Converted from moscito
32400
    1SOL     ow    1   5.624   1.666   0.598  0.3724  0.7355 -0.1845
    1SOL     hw    2   5.566   1.705   0.533  0.0300 -0.0693 -0.3793
    1SOL     hw    3   5.688   1.734   0.617  1.4549  0.5106 -2.5447
    1SOL     vw    4   5.625   1.680   0.592  0.4699  0.5996 -0.5215
    2SOL     ow    5   1.753   2.727   2.174 -0.0309 -0.3158 -0.6203
    2SOL     hw    6   1.792   2.662   2.233  0.7598  1.0432  0.4073
    2SOL     hw    7   1.675   2.757   2.220  0.8955  1.1614  0.0256
    2SOL     vw    8   1.748   2.722   2.188  0.1956  0.0584 -0.3995
    3SOL     ow    9   5.816   0.714   3.727 -0.4029  0.2296 -0.6306
    3SOL     hw   10   5.863   0.797   3.723  2.1764 -1.1410 -1.1115
    3SOL     hw   11   5.793   0.703   3.819 -0.1389  1.1417 -0.4515
    3SOL     vw   12   5.819   0.723   3.738 -0.0277  0.1691 -0.6704
    4SOL     ow   13   1.542   4.692   2.927  0.4970 -0.3997  0.1935
    4SOL     hw   14   1.519   4.663   3.015  0.0544  0.5383  0.3987
    4SOL     hw   15   1.462   4.679   2.876  0.3759  0.1864  0.2260
    4SOL     vw   16   1.528   4.687   2.932  0.4226 -0.1988  0.2248
    5SOL     ow   17   5.315   0.023   0.870 -0.8854 -0.6563 -0.2342
    5SOL     hw   18   5.353   0.056   0.951 -0.6572  0.9743 -0.9467
    5SOL     hw   19   5.248  -0.039   0.897 -2.3568  1.4718  1.3410
    5SOL     vw   20   5.311   0.019   0.884 -1.0495 -0.1604 -0.1204
    6SOL     ow   21   3.691   6.253   6.805  0.0226 -0.7717 -0.1351
    6SOL     hw   22   3.605   6.233   6.842 -0.2808  0.9800  0.1775
    6SOL     hw   23   3.672   6.289   6.718  0.0616  3.0529  1.2478
    6SOL     vw   24   3.677   6.255   6.799 -0.0124 -0.0362  0.0887
    7SOL     ow   25   2.512   6.023   6.499 -0.0182  0.1265  0.3353
    7SOL     hw   26   2.468   6.077   6.433  0.9627 -0.6281 -0.9885
    7SOL     hw   27   2.449   5.954   6.520 -0.6292  0.8072  0.7784
    7SOL     vw   28   2.498   6.021   6.493  0.0306  0.1168  0.2191
    8SOL     ow   29   5.617   1.069   4.418  0.1739 -0.7721  0.6294
    8SOL     hw   30   5.694   1.111   4.457  0.8795 -2.3927  1.0810
    8SOL     hw   31   5.647   0.980   4.397 -1.7752 -1.6850  1.5276
    8SOL     vw   32   5.631   1.063   4.421  0.0095 -1.1064  0.8075
    9SOL     ow   33   4.707   0.219   3.939 -0.8006 -0.1266  0.2366
    9SOL     hw   34   4.639   0.262   3.888 -2.9899 -0.6879  2.5199
    9SOL     hw   35   4.721   0.136   3.894 -1.0778  0.2889 -0.6463
    9SOL     vw   36   4.700   0.214   3.926 -1.1261 -0.1458  0.4214
   10SOL     ow   37   3.726   3.085   3.182  0.0898  0.5791  0.3291
   10SOL     hw   38   3.727   3.177   3.155  1.1944  0.7306  0.8061
   10SOL     hw   39   3.801   3.077   3.241  2.8177 -1.5675 -2.9694
   10SOL     vw   40   3.736   3.096   3.186  0.5955  0.3158 -0.0432
   11SOL     ow   41   7.246   4.053   5.608 -0.4605 -0.3251  0.1517
   11SOL     hw   42   7.151   4.048   5.600 -0.2689 -2.5172 -1.5881
   11SOL     hw   43   7.273   4.114   5.540 -0.4967 -1.2790 -0.7314
   11SOL     vw   44   7.237   4.061   5.598 -0.4401 -0.7403 -0.1941
   12SOL     ow   45   4.611   5.718   4.973 -1.1353 -0.0027  0.1981
   12SOL     hw   46   4.665   5.701   5.050 -1.7407 -0.1639  0.5926
   12SOL     hw   47   4.609   5.813   4.965  0.4951 -0.0198 -0.7519
   12SOL     vw   48   4.618   5.728   4.982 -0.9999 -0.0262  0.1249
   13SOL     ow   49   2.451   6.416   3.085  0.4801  0.4123  0.0498
   13SOL     hw   50   2.484   6.464   3.009  1.2547 -1.9634 -1.2278
   13SOL     hw   51   2.524   6.418   3.147  0.5172  0.8594 -0.0065
   13SOL     vw   52   2.465   6.423   3.083  0.5872  0.1578 -0.1262
   14SOL     ow   53   4.521   7.162   3.484 -0.2142  0.3518 -0.2737
   14SOL     hw   54   4.469   7.106   3.426 -0.2513 -0.1970  0.2761
   14SOL     hw   55   4.464   7.176   3.560 -0.7562  2.2793 -0.9856
   14SOL     vw   56   4.506   7.156   3.486 -0.2906  0.5336 -0.2952
   15SOL     ow   57   1.523   1.685   7.525 -0.3089 -0.4514 -0.0944
   15SOL     hw   58   1.615   1.656   7.523 -0.3448 -0.6728  0.9727
   15SOL     hw   59   1.473   1.605   7.537 -0.8157 -0.5911 -2.6160
   15SOL     vw   60   1.529   1.671   7.526 -0.3805 -0.4990 -0.2861
   16SOL     ow   61   4.532   4.560   1.266 -0.3556 -1.0338  0.2670
   16SOL     hw   62   4.544   4.644   1.222 -0.1194 -2.1140 -1.8648
   16SOL     hw   63   4.607   4.553   1.325 -0.3772  0.2320  0.4755
   16SOL     vw   64   4.543   4.570   1.268 -0.3271 -1.0092  0.0132
   17SOL     ow   65   5.755   3.347   6.227  0.1386  0.0178 -0.2255
   17SOL     hw   66   5.780   3.436   6.251 -1.1382  0.4472 -0.3881
   17SOL     hw   67   5.795   3.334   6.140  1.2093  0.0198  0.2480
   17SOL     vw   68   5.764   3.357   6.219  0.1116  0.0746 -0.1843
   18SOL     ow   69   2.555   1.884   5.005 -0.2584  0.0199  0.7658
   18SOL     hw   70   2.649   1.891   5.022 -0.7623 -0.5700  4.4896
   18SOL     hw   71   2.548   1.812   4.941  1.8059  0.7814 -0.4220
   18SOL     vw   72   2.566   1.875   4.999 -0.0526  0.0426  1.1005
   19SOL     ow   73   1.523   0.215   4.182 -0.0784  0.2684 -0.5823
   19SOL     hw   74   1.607   0.227   4.137  0.4271 -0.7563  0.0502
   19SOL     hw   75   1.457   0.227   4.114  0.6246 -0.1687 -1.3584
   19SOL     vw   76   1.526   0.218   4.167  0.0811  0.0755 -0.6013
   20SOL     ow   77   5.083   3.830   1.184  0.0407  0.1334 -0.2019
   20SOL     hw   78   5.132   3.780   1.119  1.2451  2.2771 -1.0465
   20SOL     hw   79   5.110   3.794   1.268 -0.7403 -1.9809 -0.7879
   20SOL     vw   80   5.093   3.819   1.187  0.0968  0.1372 -0.3906
   21SOL     ow   81   6.524   0.741   6.169 -0.1860  0.1590 -0.0451
   21SOL     hw   82   6.532   0.781   6.256  1.2522  0.4604 -0.3008
   21SOL     hw   83   6.472   0.803   6.119  2.3989  2.0445 -0.5812
   21SOL     vw   84   6.518   0.754   6.174  0.3448  0.4475 -0.1497
   22SOL     ow   85   6.397   5.770   6.875 -0.1904  0.9414 -0.5254
   22SOL     hw   86   6.421   5.782   6.783  1.6242  1.8444  0.0204
   22SOL     hw   87   6.471   5.807   6.924 -0.1354 -1.4003  1.3118
   22SOL     vw   88   6.410   5.776   6.869  0.0560  0.7515 -0.2112
   23SOL     ow   89   4.502   4.326   6.760  0.1112 -0.6982  0.1058
   23SOL     hw   90   4.575   4.268   6.784  0.2680  0.0414  1.5294
   23SOL     hw   91   4.439   4.268   6.717  0.2682 -1.9630  1.4861
   23SOL     vw   92   4.503   4.310   6.758  0.1526 -0.7677  0.4756
   24SOL     ow   93   3.442   6.926   6.879 -0.0845  0.3793 -0.3348
   24SOL     hw   94   3.474   6.845   6.840 -0.5104 -0.0518  0.1991
   24SOL     hw   95   3.453   6.992   6.810 -1.7199 -0.5512 -1.5535
   24SOL     vw   96   3.447   6.924   6.864 -0.3564  0.1996 -0.4251
   25SOL     ow   97   3.033   2.952   3.394  0.6163  0.1102 -0.5460
   25SOL     hw   98   2.957   2.916   3.348 -1.1046 -1.8962  3.3550
   25SOL     hw   99   3.084   2.875   3.420  0.8637  0.9445  1.7246
   25SOL     vw  100   3.030   2.937   3.392  0.4219 -0.0443  0.2682
   26SOL     ow  101   1.169   4.642   3.326  0.5757  0.5099  0.1866
   26SOL     hw  102   1.189   4.674   3.414  0.5612 -1.3596  0.9164
   26SOL     hw  103   1.073   4.637   3.324  0.5582  0.9513 -0.0874
   26SOL     vw  104   1.159   4.646   3.338  0.5715  0.3214  0.2468
   27SOL     ow  105   2.403   6.209   3.497  0.2616  0.2540 -0.1095
   27SOL     hw  106   2.407   6.120   3.533  0.5537  0.1446 -0.4061
   27SOL     hw  107   2.493   6.229   3.472 -0.2229 -0.5693 -2.9215
   27SOL     vw  108   2.415   6.200   3.498  0.2363  0.1309 -0.5196
   28SOL     ow  109   4.084   3.179   7.526  0.2547 -0.0408  0.0839
   28SOL     hw  110   4.106   3.206   7.615 -0.4159  0.7711  0.0211
   28SOL     hw  111   4.022   3.245   7.496 -0.5628 -1.0487 -0.5140
   28SOL     vw  112   4.079   3.191   7.534  0.0582 -0.0666 -0.0033
   29SOL     ow  113   3.075   3.807   0.948 -0.5414  0.1802 -0.2881
   29SOL     hw  114   3.143   3.874   0.952 -0.2697 -0.0121 -1.3892
   29SOL     hw  115   3.076   3.777   0.857 -3.3250  1.4510 -0.8388
   29SOL     vw  116   3.084   3.812   0.936 -0.8729  0.3225 -0.5060
   30SOL     ow  117   5.164   1.526   5.706 -0.7390 -0.0666  0.3424
   30SOL     hw  118   5.130   1.500   5.792 -3.0655 -1.8035 -0.9972
   30SOL     hw  119   5.152   1.621   5.704 -0.7836 -0.0067  1.8571
   30SOL     vw  120   5.158   1.536   5.717 -1.0519 -0.2878  0.3655
   31SOL     ow  121   5.092   5.039   6.670  0.4718 -0.6740  0.6495
   31SOL     hw  122   5.010   5.022   6.625  0.9556  0.8065 -0.9341
   31SOL     hw  123   5.159   4.996   6.616  0.9415  0.0959  0.5864
   31SOL     vw  124   5.090   5.031   6.657  0.5975 -0.3772  0.4323
   32SOL     ow  125   0.194   6.417   2.890  0.3461  0.2132 -1.0022
   32SOL     hw  126   0.182   6.363   2.811  0.8517 -0.8252 -0.3872
   32SOL     hw  127   0.130   6.384   2.952  1.3919 -0.4638 -0.2372
   32SOL     vw  128   0.184   6.405   2.888  0.5508 -0.0134 -0.8199
   33SOL     ow  129   6.565   0.140   3.354  0.1746  0.5905  0.5771
   33SOL     hw  130   6.552   0.047   3.374  1.9578  0.1011 -0.3310
   33SOL     hw  131   6.542   0.148   3.262  1.6725  0.6575  0.1908
   33SOL     vw  132   6.560   0.129   3.345  0.6075  0.5348  0.4063
   34SOL     ow  133   5.106   3.878   1.665  0.1676 -0.3563  0.5830
   34SOL     hw  134   5.023   3.855   1.705  0.2112 -0.4549  0.6179
   34SOL     hw  135   5.121   3.810   1.599 -0.9886  0.9970 -1.1735
   34SOL     vw  136   5.097   3.866   1.662  0.0210 -0.1907  0.3558
   35SOL     ow  137   4.777   7.590   3.772  0.6400  0.4172  0.3403
   35SOL     hw  138   4.759   7.496   3.761  2.5021  0.0419  0.0085
   35SOL     hw  139   4.753   7.628   3.687 -3.7097  0.9840  1.6267
   35SOL     vw  140   4.772   7.583   3.759  0.3121  0.4425  0.4662
   36SOL     ow  141   3.498   5.497   2.853 -0.0530 -0.2723  1.1381
   36SOL     hw  142   3.578   5.522   2.807 -0.0771 -2.1810 -0.0582
   36SOL     hw  143   3.483   5.406   2.827 -2.2742 -0.1599  1.8194
   36SOL     vw  144   3.507   5.488   2.843 -0.3493 -0.5093  1.0701
   37SOL     ow  145   2.130   6.896   2.232  0.0810  0.4941 -0.2089
   37SOL     hw  146   2.052   6.936   2.272  0.1128 -0.3907  0.7891
   37SOL     hw  147   2.181   6.970   2.198 -0.9688  1.1138 -0.4720
   37SOL     vw  148   2.126   6.911   2.233 -0.0533  0.4590 -0.1121
   38SOL     ow  149   4.809   4.325   5.572 -0.5213  0.0911  0.4487
   38SOL     hw  150   4.792   4.285   5.658 -0.5420  0.2513  0.5191
   38SOL     hw  151   4.723   4.350   5.539 -0.3159  3.0558  1.8397
   38SOL     vw  152   4.795   4.323   5.579 -0.4966  0.5035  0.6416
   39SOL     ow  153   2.433   2.739   1.122  0.4580  0.2497 -0.4068
   39SOL     hw  154   2.508   2.729   1.062 -0.7851  0.0917 -2.0036
   39SOL     hw  155   2.387   2.655   1.116  0.7031 -0.0457  1.3908
   39SOL     vw  156   2.437   2.727   1.113  0.3263  0.1898 -0.3803
   40SOL     ow  157   2.814   2.945   0.021 -0.0940  0.2125 -0.2835
   40SOL     hw  158   2.909   2.929   0.018  0.1086  0.9784  1.3157
   40SOL     hw  159   2.780   2.873   0.074  0.1049  1.8627  2.2208
   40SOL     vw  160   2.822   2.933   0.028 -0.0412  0.5313  0.2579
   41SOL     ow  161   0.291   2.867   2.241 -0.0088 -0.1457  0.3988
   41SOL     hw  162   0.341   2.912   2.173  4.4204  1.6770  4.2749
   41SOL     hw  163   0.246   2.936   2.288 -1.8325 -1.1853  0.2591
   41SOL     vw  164   0.292   2.882   2.238  0.3350 -0.0424  0.8918
   42SOL     ow  165   3.396   5.721   2.469 -0.0252  0.0567 -0.0888
   42SOL     hw  166   3.363   5.646   2.421 -1.6488  0.1929  0.7349
   42SOL     hw  167   3.353   5.716   2.554  2.3644  0.1053  1.1980
   42SOL     vw  168   3.386   5.711   2.474  0.0759  0.0813  0.1897
   43SOL     ow  169   7.069   3.091   7.212  0.0742  0.3098 -1.0019
   43SOL     hw  170   7.030   3.099   7.299 -2.1321  1.8312 -2.0636
   43SOL     hw  171   7.152   3.139   7.219  0.3265 -0.2696  0.4331
   43SOL     vw  172   7.075   3.098   7.224 -0.1836  0.4340 -0.9527
   44SOL     ow  173   2.737   6.207   2.360 -0.3555 -0.5836  0.2924
   44SOL     hw  174   2.787   6.258   2.423 -1.1596  0.1672  0.3384
   44SOL     hw  175   2.661   6.262   2.339  0.9111  0.1402 -2.9059
   44SOL     vw  176   2.733   6.221   2.366 -0.2944 -0.3891 -0.1235
   45SOL     ow  177   4.865   6.347   1.710  0.3600 -0.5317  0.4774
   45SOL     hw  178   4.780   6.360   1.668  1.1773  0.9399 -0.7938
   45SOL     hw  179   4.929   6.379   1.647  1.9198 -2.0383  1.2217
   45SOL     vw  180   4.862   6.353   1.696  0.6735 -0.5362  0.4079
   46SOL     ow  181   4.674   3.168   7.283  1.2040 -0.2452  0.0304
   46SOL     hw  182   4.695   3.104   7.351 -1.1136  0.1088  1.1701
   46SOL     hw  183   4.684   3.253   7.327 -3.1830 -0.0340  1.0546
   46SOL     vw  184   4.678   3.171   7.298  0.3197 -0.1705  0.3161
   47SOL     ow  185   4.341   3.780   3.535 -0.6417  0.2370  0.5238
   47SOL     hw  186   4.397   3.857   3.524 -0.5956  0.0467 -0.7652
   47SOL     hw  187   4.267   3.795   3.476  0.5968 -1.7891 -1.7156
   47SOL     vw  188   4.339   3.792   3.526 -0.4725 -0.0554  0.0583
   48SOL     ow  189   4.219   1.822   7.075 -0.1584 -0.7508 -0.0251
   48SOL     hw  190   4.248   1.732   7.092  0.5153 -0.4262  0.5843
   48SOL     hw  191   4.124   1.816   7.069 -0.0030 -2.0062 -3.0309
   48SOL     vw  192   4.210   1.809   7.077 -0.0491 -0.8736 -0.3417
   49SOL     ow  193   1.775   4.347   6.245  0.6724 -0.2495  0.3728
   49SOL     hw  194   1.838   4.416   6.224 -0.2010  0.7600  0.8987
   49SOL     hw  195   1.716   4.389   6.309 -0.0846 -1.3877  0.4413
   49SOL     vw  196   1.775   4.362   6.251  0.4573 -0.2668  0.4511
   50SOL     ow  197   3.737   3.457   4.046  0.3789  0.0520  0.3437
   50SOL     hw  198   3.793   3.392   4.088  0.4163  0.7837  1.4907
   50SOL     hw  199   3.656   3.411   4.026 -0.0720 -0.0776  2.2830
   50SOL     vw  200   3.734   3.443   4.049  0.3242  0.1314  0.7508
   51SOL     ow  201   1.199   3.696   2.420  0.4979  0.4654  0.1834
   51SOL     hw  202   1.192   3.610   2.379  0.4971  0.1472  0.8399
   51SOL     hw  203   1.293   3.713   2.423  0.4568  1.2301 -1.4300
   51SOL     vw  204   1.210   3.687   2.415  0.4924  0.5243  0.0572
   52SOL     ow  205   6.304   0.955   0.444 -0.3215 -0.2329  0.3089
   52SOL     hw  206   6.269   0.867   0.451  0.4914 -0.5531  0.5037
   52SOL     hw  207   6.324   0.980   0.535  1.3954 -0.6818  0.1016
   52SOL     vw  208   6.302   0.947   0.457  0.0122 -0.3344  0.3073
   53SOL     ow  209   1.321   0.827   5.738  0.0726  0.0549  0.4474
   53SOL     hw  210   1.324   0.742   5.694 -2.3995  0.6237 -1.0396
   53SOL     hw  211   1.326   0.807   5.831 -1.1881 -1.8103  0.1676
   53SOL     vw  212   1.322   0.813   5.744 -0.4199 -0.1161  0.2141
   54SOL     ow  213   0.756   6.734   2.913  0.3005 -0.7909 -0.0605
   54SOL     hw  214   0.838   6.703   2.875 -0.1636 -0.2951 -1.5106
   54SOL     hw  215   0.760   6.706   3.005  3.1744  1.2867  0.5861
   54SOL     vw  216   0.768   6.727   2.920  0.6184 -0.4513 -0.1665
   55SOL     ow  217   5.364   4.329   5.501  0.1206 -0.0315  0.7806
   55SOL     hw  218   5.413   4.393   5.450  1.5037 -1.1272  0.6830
   55SOL     hw  219   5.352   4.371   5.587  0.7339  0.4819  0.6277
   55SOL     vw  220   5.369   4.343   5.506  0.3841 -0.1085  0.7474
   56SOL     ow  221   1.979   7.272   6.057  0.5422 -0.0736  0.2087
   56SOL     hw  222   2.042   7.210   6.022  0.7026 -0.0055  0.3773
   56SOL     hw  223   1.913   7.281   5.988  0.6193 -0.2827  0.1069
   56SOL     vw  224   1.978   7.265   6.043  0.5735 -0.0920  0.2172
   57SOL     ow  225   0.646   1.721   0.604 -0.3360 -0.5105 -0.1194
   57SOL     hw  226   0.676   1.697   0.516  0.2985  1.1810 -0.3891
   57SOL     hw  227   0.720   1.767   0.643 -0.6174 -1.2431  1.3257
   57SOL     vw  228   0.660   1.724   0.597 -0.2894 -0.3840  0.0357
   58SOL     ow  229   6.387   6.953   1.957  0.3095  0.2991 -0.0854
   58SOL     hw  230   6.477   6.966   1.987 -0.7373  0.5442  3.4383
   58SOL     hw  231   6.387   6.864   1.922  1.9810  0.4042 -0.4386
   58SOL     vw  232   6.399   6.943   1.957  0.3920  0.3455  0.3329
   59SOL     ow  233   0.244   1.865   0.847  0.2794  0.0254  0.2908
   59SOL     hw  234   0.154   1.894   0.861 -0.3797 -1.4260 -0.6649
   59SOL     hw  235   0.258   1.798   0.914 -1.0572 -3.1109 -2.2709
   59SOL     vw  236   0.234   1.860   0.858  0.0161 -0.5798 -0.1733
   60SOL     ow  237   5.646   1.585   1.985 -0.1425  0.7005 -0.4482
   60SOL     hw  238   5.668   1.532   2.061  0.7037  0.9836 -0.4833
   60SOL     hw  239   5.550   1.585   1.982 -0.1648 -0.6209 -0.3238
   60SOL     vw  240   5.636   1.578   1.994 -0.0339  0.5635 -0.4364
   61SOL     ow  241   0.620   5.672   5.629 -0.4756 -0.1879  0.2123
   61SOL     hw  242   0.561   5.625   5.570 -1.7576 -0.0573  1.3413
   61SOL     hw  243   0.693   5.612   5.644 -0.5489 -0.5500 -0.8323
   61SOL     vw  244   0.622   5.658   5.623 -0.6544 -0.2189  0.2234
   62SOL     ow  245   2.324   7.496   5.030  0.2324  0.0076  0.5683
   62SOL     hw  246   2.258   7.429   5.041  1.0657 -0.8254  0.6129
   62SOL     hw  247   2.328   7.511   4.936  0.4657 -0.4537  0.5001
   62SOL     vw  248   2.316   7.489   5.019  0.3731 -0.1631  0.5651
   63SOL     ow  249   5.120   3.341   7.350  0.0452 -0.1422 -0.0121
   63SOL     hw  250   5.133   3.293   7.432  0.4493 -0.6891 -0.3908
   63SOL     hw  251   5.122   3.433   7.376  2.4344 -0.2203  0.3006
   63SOL     vw  252   5.122   3.347   7.365  0.4137 -0.2248 -0.0207
   64SOL     ow  253   1.141   1.606   4.792 -0.5248  0.1451  0.5641
   64SOL     hw  254   1.074   1.539   4.806 -0.9019  0.3361 -0.2544
   64SOL     hw  255   1.223   1.564   4.818 -1.0178  0.1094  2.1606
   64SOL     vw  256   1.143   1.592   4.797 -0.6396  0.1656  0.6666
   65SOL     ow  257   3.804   5.847   5.389  0.5423 -0.0117 -0.2422
   65SOL     hw  258   3.790   5.760   5.351  0.4125  0.5037 -1.4456
   65SOL     hw  259   3.833   5.900   5.315  0.1533  1.0843  0.3741
   65SOL     vw  260   3.806   5.843   5.374  0.4737  0.2007 -0.3197
   66SOL     ow  261   7.388   5.953   2.853  0.2777 -0.3307  0.1107
   66SOL     hw  262   7.453   5.922   2.791 -0.9194 -3.6361  0.2854
   66SOL     hw  263   7.304   5.939   2.809 -0.5240 -1.3055  1.8541
   66SOL     vw  264   7.385   5.947   2.839  0.0138 -0.8953  0.3638
   67SOL     ow  265   5.016   6.052   0.997 -0.4547  0.4579  0.1657
   67SOL     hw  266   4.971   6.112   0.937  0.7381  2.5906  1.2927
   67SOL     hw  267   4.956   6.042   1.070 -0.1833  1.2476  0.5062
   67SOL     vw  268   5.002   6.059   0.999 -0.2615  0.8438  0.3594
   68SOL     ow  269   2.151   6.133   5.506 -0.1665 -0.4254  0.4312
   68SOL     hw  270   2.124   6.192   5.435 -0.2982 -2.7369 -1.6083
   68SOL     hw  271   2.226   6.086   5.471 -0.9534 -2.4853  1.3003
   68SOL     vw  272   2.157   6.135   5.492 -0.2878 -1.0023  0.2766
   69SOL     ow  273   0.022   4.012   3.990  0.3416 -0.4160 -0.5767
   69SOL     hw  274   0.034   3.951   4.063  1.3299 -1.1848 -1.3490
   69SOL     hw  275  -0.049   3.974   3.938  0.3806 -0.4710 -0.5912
   69SOL     vw  276   0.014   3.999   3.992  0.4772 -0.5246 -0.6803
   70SOL     ow  277   7.467   1.139   5.543 -0.3761 -0.0692  0.2092
   70SOL     hw  278   7.556   1.105   5.555 -0.9271 -1.8054 -0.4239
   70SOL     hw  279   7.480   1.233   5.528  1.4228 -0.4050 -0.6688
   70SOL     vw  280   7.480   1.147   5.543 -0.2112 -0.3425  0.0100
   71SOL     ow  281   1.764   5.596   4.531  0.1826  0.2587  0.0161
   71SOL     hw  282   1.695   5.606   4.465  2.1705  0.2618 -2.2029
   71SOL     hw  283   1.758   5.504   4.558 -1.2077  0.4785  0.5024
   71SOL     vw  284   1.754   5.585   4.526  0.2615  0.2882 -0.2124
   72SOL     ow  285   4.838   0.951   3.660 -0.1224  0.5379 -0.1626
   72SOL     hw  286   4.746   0.936   3.637 -0.6596  0.2068  1.9864
   72SOL     hw  287   4.838   0.958   3.755  2.1075  0.4954 -0.1085
   72SOL     vw  288   4.826   0.950   3.669  0.1009  0.4886  0.1279
   73SOL     ow  289   5.778   3.908   7.561  0.2580 -0.0966 -0.3044
   73SOL     hw  290   5.792   3.842   7.493  0.8680 -0.0811 -0.1958
   73SOL     hw  291   5.814   3.988   7.523 -2.0234  0.6090 -1.1518
   73SOL     vw  292   5.784   3.910   7.547  0.0377 -0.0015 -0.4020
   74SOL     ow  293   5.072   5.596   0.044  0.1580  0.3999 -0.1475
   74SOL     hw  294   5.108   5.511   0.020 -0.2351  0.1499  0.1321
   74SOL     hw  295   5.006   5.576   0.110 -2.3891  0.5714 -2.4777
   74SOL     vw  296   5.068   5.583   0.050 -0.2298  0.3898 -0.4181
   75SOL     ow  297   3.950   1.636   5.086 -0.2667 -0.4748 -0.4299
   75SOL     hw  298   4.010   1.651   5.013 -0.7623 -0.4491 -0.8374
   75SOL     hw  299   3.867   1.673   5.057 -0.4516 -0.4019  0.1780
   75SOL     vw  300   3.947   1.643   5.073 -0.3563 -0.4618 -0.4036
   76SOL     ow  301   6.908   0.069   3.295  1.2310  0.0464  0.2163
   76SOL     hw  302   6.938   0.074   3.204  0.4977 -0.6667 -0.0783
   76SOL     hw  303   6.812   0.073   3.289  1.0438 -2.1891  0.7531
   76SOL     vw  304   6.899   0.070   3.282  1.1094 -0.3426  0.2482
   77SOL     ow  305   1.699   1.323   7.037 -0.0703  0.4431 -0.3977
   77SOL     hw  306   1.743   1.247   7.074 -1.5664  0.1254  0.8530
   77SOL     hw  307   1.700   1.388   7.107  1.8598  1.9377 -1.6991
   77SOL     vw  308   1.705   1.321   7.051 -0.0131  0.5984 -0.4044
   78SOL     ow  309   1.893   6.022   6.996  0.1149 -0.4221 -0.3204
   78SOL     hw  310   1.848   5.949   7.039 -0.6617  1.1362  1.6837
   78SOL     hw  311   1.968   5.982   6.953  0.1815 -2.3169  1.3980
   78SOL     vw  312   1.897   6.007   6.996  0.0212 -0.4661  0.1707
   79SOL     ow  313   4.426   1.879   5.341 -0.7229  0.7373  0.1400
   79SOL     hw  314   4.338   1.856   5.374 -0.6204  1.0899  0.6688
   79SOL     hw  315   4.462   1.936   5.408 -0.5556  1.5929 -0.6589
   79SOL     vw  316   4.419   1.883   5.354 -0.6871  0.8968  0.1044
   80SOL     ow  317   2.884   0.068   0.430 -0.1098  0.0239 -0.0396
   80SOL     hw  318   2.833   0.084   0.351  0.3578  0.1859 -0.3158
   80SOL     hw  319   2.822   0.078   0.502 -0.7373 -1.0007 -0.4281
   80SOL     vw  320   2.869   0.071   0.429 -0.1310 -0.0899 -0.1273
   81SOL     ow  321   5.993   5.105   2.655 -0.4822  0.4728  0.1595
   81SOL     hw  322   5.968   5.023   2.697 -1.9019  0.8822  0.1835
   81SOL     hw  323   5.929   5.116   2.585  0.7775  0.6890 -0.9873
   81SOL     vw  324   5.981   5.096   2.651 -0.5033  0.5553  0.0114
   82SOL     ow  325   1.227   4.762   3.567 -0.4455  0.0501 -0.1972
   82SOL     hw  326   1.305   4.792   3.519 -0.1049 -0.0817  0.2602
   82SOL     hw  327   1.160   4.826   3.546  0.2651  1.1557  0.7538
   82SOL     vw  328   1.229   4.775   3.557 -0.3068  0.1786 -0.0114
   83SOL     ow  329   5.823   0.199   1.286  0.3059 -0.1430  0.1620
   83SOL     hw  330   5.773   0.118   1.277 -0.2004  0.2263 -0.4837
   83SOL     hw  331   5.834   0.230   1.196  0.6012  0.4427  0.3972
   83SOL     vw  332   5.818   0.192   1.273  0.2782 -0.0170  0.1078
   84SOL     ow  333   0.697   2.965   5.265 -0.0405 -0.1623 -0.5273
   84SOL     hw  334   0.783   2.927   5.249  0.5195  1.4531 -1.6309
   84SOL     hw  335   0.638   2.890   5.268  1.3274 -1.2703 -0.1818
   84SOL     vw  336   0.700   2.950   5.263  0.2138 -0.0955 -0.6270
   85SOL     ow  337   0.672   4.115   7.391 -0.1024 -0.2918 -0.2854
   85SOL     hw  338   0.739   4.138   7.456 -0.7262  0.1026  0.2291
   85SOL     hw  339   0.611   4.059   7.439 -0.6190  0.0813 -0.5029
   85SOL     vw  340   0.673   4.111   7.406 -0.2529 -0.1905 -0.2463
   86SOL     ow  341   6.151   5.964   6.834 -0.3528  0.2128  0.3184
   86SOL     hw  342   6.199   6.035   6.877 -0.5362  0.4861  0.0762
   86SOL     hw  343   6.070   6.005   6.804 -0.3184 -0.0246 -0.1064
   86SOL     vw  344   6.146   5.979   6.836 -0.3724  0.2177  0.2303
   87SOL     ow  345   6.285   6.258   2.098 -0.3293  0.4064  0.6374
   87SOL     hw  346   6.380   6.267   2.090 -0.5137  1.1758 -0.9107
   87SOL     hw  347   6.271   6.163   2.106  0.4646  0.1547 -0.6966
   87SOL     vw  348   6.296   6.246   2.098 -0.2491  0.4747  0.2570
   88SOL     ow  349   2.884   1.612   6.254 -0.5197  0.6877  0.0753
   88SOL     hw  350   2.957   1.635   6.311  1.2938  0.2608 -1.9205
   88SOL     hw  351   2.920   1.546   6.194 -3.0484 -0.7969  0.0555
   88SOL     vw  352   2.898   1.606   6.253 -0.6143  0.4355 -0.1907
   89SOL     ow  353   2.129   2.882   5.496 -0.2641  0.0480  0.2164
   89SOL     hw  354   2.200   2.843   5.547 -0.8180 -1.7773 -0.3051
   89SOL     hw  355   2.134   2.975   5.515  1.2297 -0.2364  1.4705
   89SOL     vw  356   2.139   2.889   5.505 -0.1400 -0.2304  0.3128
   90SOL     ow  357   7.575   0.984   6.604 -0.1640  0.3045  0.1503
   90SOL     hw  358   7.492   0.981   6.652  0.5628 -1.4575  1.4045
   90SOL     hw  359   7.614   1.068   6.628 -1.2186  0.7841  0.2045
   90SOL     vw  360   7.569   0.994   6.614 -0.2074  0.1353  0.3231
   91SOL     ow  361   4.436   0.895   1.119 -0.2895  0.4479 -0.7060
   91SOL     hw  362   4.402   0.842   1.047 -0.8099 -1.1864  0.6781
   91SOL     hw  363   4.427   0.985   1.088 -0.1802 -0.2053 -2.8004
   91SOL     vw  364   4.430   0.900   1.106 -0.3438  0.1461 -0.7997
   92SOL     ow  365   4.125   3.424   2.070  0.2143  0.1064 -0.9027
   92SOL     hw  366   4.216   3.416   2.041  0.7506  0.7808  0.5096
   92SOL     hw  367   4.123   3.506   2.120 -0.9036 -0.4713  0.0323
   92SOL     vw  368   4.137   3.434   2.072  0.1373  0.1192 -0.5931
   93SOL     ow  369   2.119   7.112   6.804  0.0154 -1.1040 -0.2444
   93SOL     hw  370   2.044   7.078   6.853  0.6860 -2.1426  0.1027
   93SOL     hw  371   2.162   7.172   6.865 -0.8597 -0.0136 -0.6638
   93SOL     vw  372   2.115   7.115   6.819 -0.0116 -1.0972 -0.2539
   94SOL     ow  373   1.463   4.620   5.459  0.3718  0.4745  0.1973
   94SOL     hw  374   1.548   4.661   5.478  0.9792  1.1011 -3.2583
   94SOL     hw  375   1.400   4.690   5.471  0.3530  0.1771  2.1516
   94SOL     vw  376   1.466   4.635   5.463  0.4495  0.5181 -0.0012
   95SOL     ow  377   3.511   4.792   1.617  1.1326 -0.0694 -0.3357
   95SOL     hw  378   3.552   4.727   1.674  0.4466 -1.2219 -1.1326
   95SOL     hw  379   3.543   4.876   1.651 -0.0394 -0.6071  2.4329
   95SOL     vw  380   3.521   4.795   1.629  0.8875 -0.2925 -0.0755
   96SOL     ow  381   1.506   6.220   7.054 -0.2419 -0.6133  0.6636
   96SOL     hw  382   1.509   6.126   7.038  2.0717 -0.2394 -1.6545
   96SOL     hw  383   1.471   6.257   6.973  1.2584  0.6629  0.5669
   96SOL     vw  384   1.501   6.213   7.041  0.2613 -0.3955  0.3450
   97SOL     ow  385   1.105   5.525   7.147  0.4945 -0.2126  0.2514
   97SOL     hw  386   1.180   5.546   7.202  1.5675 -2.0434 -0.4483
   97SOL     hw  387   1.086   5.607   7.101  1.4358  0.5317  1.1375
   97SOL     vw  388   1.112   5.539   7.148  0.7603 -0.3560  0.2761
   98SOL     ow  389   5.677   0.141   0.895 -0.1440 -0.6977 -0.8268
   98SOL     hw  390   5.736   0.073   0.926 -1.7272 -1.4809  0.6403
   98SOL     hw  391   5.652   0.112   0.807  0.0510 -1.4301 -0.6490
   98SOL     vw  392   5.681   0.128   0.887 -0.3271 -0.8977 -0.6098
   99SOL     ow  393   3.016   4.536   1.925  0.2740 -0.3449 -1.0063
   99SOL     hw  394   2.957   4.471   1.887 -0.5881  0.3883 -0.9686
   99SOL     hw  395   3.044   4.589   1.851  0.0919 -0.0765 -0.8835
   99SOL     vw  396   3.011   4.534   1.910  0.1363 -0.2127 -0.9850
  100SOL     ow  397   1.100   4.402   2.057  0.2358 -0.9808 -0.7491
  100SOL     hw  398   1.159   4.453   2.113  1.1248 -0.8511 -1.7938
  100SOL     hw  399   1.022   4.389   2.112  1.0316 -0.7630  0.4822
  100SOL     vw  400   1.097   4.407   2.072  0.4579 -0.9348 -0.7244
  101SOL     ow  401   0.874   7.236   7.325  0.5431 -0.3348 -0.5744
  101SOL     hw  402   0.944   7.172   7.314  1.3378  0.1309  1.4853
  101SOL     hw  403   0.799   7.185   7.355  0.5647 -0.5488 -0.8710
  101SOL     vw  404   0.874   7.221   7.327  0.6508 -0.3016 -0.3417
  102SOL     ow  405   6.849   6.566   0.342  0.1507  0.1250  0.2348
  102SOL     hw  406   6.892   6.639   0.386  1.5545 -0.1494 -0.6246
  102SOL     hw  407   6.892   6.488   0.376 -1.5521 -0.3658  1.3822
  102SOL     vw  408   6.860   6.566   0.352  0.1111  0.0241  0.2728
  103SOL     ow  409   0.869   3.594   7.178 -0.3600  0.3950  0.4136
  103SOL     hw  410   0.951   3.568   7.219 -0.1783  1.4468  0.7464
  103SOL     hw  411   0.844   3.675   7.223  0.5841  2.4225 -2.3634
  103SOL     vw  412   0.877   3.601   7.189 -0.2115  0.8012  0.0913
  104SOL     ow  413   0.585   4.266   4.522  0.1731  0.0426  0.3622
  104SOL     hw  414   0.508   4.252   4.576 -0.3454 -1.2073 -0.6539
  104SOL     hw  415   0.552   4.269   4.432  0.7993  3.7244  0.1093
  104SOL     vw  416   0.571   4.265   4.517  0.1873  0.3636  0.1948
  105SOL     ow  417   3.463   2.475   1.524  0.2914 -0.0833 -0.1999
  105SOL     hw  418   3.476   2.441   1.612 -0.0781  1.6266  0.5553
  105SOL     hw  419   3.541   2.528   1.506  0.1533 -0.0483 -0.7179
  105SOL     vw  420   3.475   2.477   1.533  0.2244  0.1470 -0.1686
  106SOL     ow  421   0.820   6.249   2.129 -0.0436 -0.4774 -0.6483
  106SOL     hw  422   0.868   6.167   2.141  1.1682  0.5827  2.7853
  106SOL     hw  423   0.882   6.317   2.153 -2.2886  1.1588  0.8759
  106SOL     vw  424   0.834   6.247   2.134 -0.1799 -0.1216  0.0057
  107SOL     ow  425   3.051   3.068   1.020  0.4303  0.2878  0.7584
  107SOL     hw  426   3.113   3.140   1.027  0.1382  0.6098  0.1299
  107SOL     hw  427   3.043   3.053   0.926 -1.8518  1.5083  0.6823
  107SOL     vw  428   3.058   3.076   1.009  0.0906  0.4915  0.6655
  108SOL     ow  429   2.188   6.050   7.456  0.4468  0.2114  0.3782
  108SOL     hw  430   2.190   5.965   7.411 -2.8005  0.0354  0.2868
  108SOL     hw  431   2.167   6.027   7.547  1.5870  0.8514  0.8173
  108SOL     vw  432   2.185   6.036   7.462  0.1688  0.2725  0.4241
  109SOL     ow  433   3.904   0.735   7.224 -0.5269  0.5870 -0.4417
  109SOL     hw  434   3.937   0.683   7.297 -0.8835  1.0332  0.0433
  109SOL     hw  435   3.872   0.816   7.264 -0.6114  0.8940 -1.1052
  109SOL     vw  436   3.904   0.739   7.239 -0.5852  0.6864 -0.4649
  110SOL     ow  437   6.090   0.578   1.760  0.6155  0.0797 -0.0757
  110SOL     hw  438   6.064   0.609   1.847 -2.3768  0.7367 -1.0848
  110SOL     hw  439   6.135   0.652   1.720 -2.0293  1.4892 -0.6433
  110SOL     vw  440   6.093   0.592   1.767 -0.1283  0.3524 -0.2837
  111SOL     ow  441   4.113   1.731   6.816 -0.0773 -0.4428  0.7518
  111SOL     hw  442   4.115   1.638   6.791  2.0294 -0.5204  1.0343
  111SOL     hw  443   4.204   1.758   6.815 -0.6666  1.7278  0.4207
  111SOL     vw  444   4.125   1.722   6.812  0.1230 -0.1667  0.7455
  112SOL     ow  445   3.972   4.794   1.461 -0.6705 -0.1284 -0.2798
  112SOL     hw  446   3.978   4.762   1.371  0.1601  0.4906 -0.4535
  112SOL     hw  447   4.000   4.885   1.456 -0.1192 -0.2364  0.6815
  112SOL     vw  448   3.977   4.802   1.448 -0.4882 -0.0608 -0.1759
  113SOL     ow  449   5.483   7.171   7.319 -0.6318  0.0838 -0.4379
  113SOL     hw  450   5.419   7.119   7.270  0.8104 -2.3698  0.0926
  113SOL     hw  451   5.430   7.223   7.379 -2.1837 -1.9388  0.0688
  113SOL     vw  452   5.467   7.171   7.320 -0.6464 -0.5071 -0.3009
  114SOL     ow  453   6.102   2.013   4.258 -0.2260 -0.4077 -0.4410
  114SOL     hw  454   6.134   1.924   4.273  0.0610 -0.2248  0.0640
  114SOL     hw  455   6.040   2.029   4.329 -1.3272 -0.6978 -1.3213
  114SOL     vw  456   6.098   2.003   4.269 -0.3333 -0.4216 -0.4907
  115SOL     ow  457   6.309   5.439   2.587 -0.4878 -0.6009 -0.6345
  115SOL     hw  458   6.398   5.443   2.621  0.0098 -0.7093 -1.8700
  115SOL     hw  459   6.257   5.404   2.659  0.2966  0.3119  0.4108
  115SOL     vw  460   6.314   5.435   2.601 -0.3185 -0.4947 -0.6595
  116SOL     ow  461   1.214   3.035   0.714 -0.0521  0.6264 -0.5517
  116SOL     hw  462   1.224   2.944   0.686  0.1593 -0.1224  1.7766
  116SOL     hw  463   1.142   3.034   0.776  0.7215  1.8100  0.4196
  116SOL     vw  464   1.206   3.023   0.718  0.0778  0.6838 -0.1163
  117SOL     ow  465   3.781   4.611   2.330  0.1205 -0.3535  0.0522
  117SOL     hw  466   3.776   4.545   2.260 -0.6199 -0.5492  0.2747
  117SOL     hw  467   3.702   4.664   2.318  0.8552  0.6807 -0.3010
  117SOL     vw  468   3.770   4.610   2.319  0.1197 -0.2429  0.0350
  118SOL     ow  469   5.677   4.924   1.177 -1.0786  0.7021 -0.4744
  118SOL     hw  470   5.766   4.890   1.178 -1.3735 -0.0971 -0.5133
  118SOL     hw  471   5.626   4.861   1.228 -1.2441  2.2995  1.4633
  118SOL     vw  472   5.682   4.911   1.184 -1.1396  0.8075 -0.2238
  119SOL     ow  473   0.954   3.691   0.890 -0.7264  0.2658  0.5487
  119SOL     hw  474   1.044   3.697   0.922 -1.0732  0.8806  1.4577
  119SOL     hw  475   0.933   3.780   0.861 -0.6109 -0.1582 -0.8994
  119SOL     vw  476   0.963   3.704   0.890 -0.7569  0.2909  0.4776
  120SOL     ow  477   3.242   2.845   0.756 -0.3703  0.1735  0.0700
  120SOL     hw  478   3.195   2.815   0.834 -1.9015 -0.4616 -1.0411
  120SOL     hw  479   3.201   2.928   0.733 -0.7632 -0.2231 -0.7185
  120SOL     vw  480   3.230   2.852   0.763 -0.6242  0.0376 -0.1806
  121SOL     ow  481   4.945   2.982   0.948  0.2983  0.7264 -0.0517
  121SOL     hw  482   4.917   3.073   0.947  0.5926  0.9069  2.4141
  121SOL     hw  483   4.881   2.937   1.004 -0.9109 -1.0431 -2.6376
  121SOL     vw  484   4.933   2.988   0.955  0.1779  0.5168 -0.0676
  122SOL     ow  485   2.601   7.040   1.971 -0.3604 -0.3810 -0.5903
  122SOL     hw  486   2.599   6.953   2.012 -2.6001 -1.8843 -3.5534
  122SOL     hw  487   2.617   7.022   1.878 -0.9206  2.3914 -1.2916
  122SOL     vw  488   2.603   7.026   1.964 -0.7298 -0.2136 -1.0738
  123SOL     ow  489   5.769   1.852   2.641 -0.0469  1.1651  0.0274
  123SOL     hw  490   5.806   1.771   2.606  0.4208  1.9959 -1.4927
  123SOL     hw  491   5.766   1.911   2.566 -1.7627  2.0862  0.7763
  123SOL     vw  492   5.774   1.849   2.626 -0.2115  1.3963 -0.0743
  124SOL     ow  493   4.326   7.326   2.852  0.2974 -0.2664  0.3374
  124SOL     hw  494   4.300   7.250   2.904 -1.5727 -1.4696 -2.1412
  124SOL     hw  495   4.359   7.289   2.770 -0.5467  1.5579 -0.9059
  124SOL     vw  496   4.327   7.311   2.848 -0.0608 -0.1843 -0.1535
  125SOL     ow  497   2.023   6.911   1.440 -0.1292 -0.2361  0.2920
  125SOL     hw  498   2.028   6.954   1.525  1.6377  2.5548 -1.0511
  125SOL     hw  499   1.951   6.954   1.395 -1.0372 -1.6731  0.3129
  125SOL     vw  500   2.014   6.922   1.445 -0.0159 -0.0575  0.1176
  126SOL     ow  501   3.591   0.799   1.877 -0.1479  0.2437 -0.4173
  126SOL     hw  502   3.596   0.704   1.863 -0.0123 -0.4547  3.2351
  126SOL     hw  503   3.654   0.836   1.817  1.1614 -2.1957 -0.6668
  126SOL     vw  504   3.600   0.791   1.867  0.0428 -0.1703  0.0316
  127SOL     ow  505   3.390   2.132   5.584  0.2036  0.1712  0.3747
  127SOL     hw  506   3.436   2.061   5.539  0.9748  0.6261  0.4243
  127SOL     hw  507   3.329   2.167   5.519  1.7996  1.2765 -0.5838
  127SOL     vw  508   3.388   2.128   5.570  0.5157  0.3772  0.2551
  128SOL     ow  509   7.180   1.642   4.040 -0.7012 -0.5696  0.1739
  128SOL     hw  510   7.226   1.565   4.071 -0.5792 -0.4374  0.3174
  128SOL     hw  511   7.103   1.607   3.994 -0.7963 -0.7663  0.4855
  128SOL     vw  512   7.176   1.627   4.038 -0.6974 -0.5781  0.2339
  129SOL     ow  513   5.859   2.260   3.628  0.3623 -0.6431  0.6879
  129SOL     hw  514   5.793   2.209   3.582  0.9278 -0.6204 -0.1775
  129SOL     hw  515   5.849   2.349   3.595  0.3363 -0.4859  1.1118
  129SOL     vw  516   5.849   2.265   3.618  0.4334 -0.6193  0.6297
  130SOL     ow  517   0.686   2.716   1.729 -0.1874  0.1169  0.1744
  130SOL     hw  518   0.773   2.726   1.768  0.3361 -1.8399 -0.3887
  130SOL     hw  519   0.666   2.803   1.693  1.4533  0.6540  0.4634
  130SOL     vw  520   0.695   2.729   1.729  0.0981 -0.0705  0.1382
  131SOL     ow  521   6.852   1.745   7.445 -0.3819 -0.3693  0.0976
  131SOL     hw  522   6.773   1.760   7.394 -0.7008 -0.2258  0.6198
  131SOL     hw  523   6.833   1.783   7.531  0.6822  0.6971 -0.1184
  131SOL     vw  524   6.839   1.752   7.450 -0.2837 -0.2097  0.1378
  132SOL     ow  525   0.172   1.115   5.567  0.1340  0.0035 -0.0744
  132SOL     hw  526   0.234   1.044   5.556 -0.6213 -1.2526  2.7889
  132SOL     hw  527   0.214   1.175   5.629  0.5779  1.9366 -2.1055
  132SOL     vw  528   0.185   1.114   5.574  0.0929  0.0929  0.0353
  133SOL     ow  529   5.922   3.341   3.948  0.1434  0.2778  0.0502
  133SOL     hw  530   5.959   3.314   4.032 -0.6646 -0.6862  0.1124
  133SOL     hw  531   5.958   3.278   3.885  1.0406  1.2132 -0.4152
  133SOL     vw  532   5.932   3.329   3.950  0.1552  0.2739 -0.0031
  134SOL     ow  533   2.585   0.747   6.266  0.1239  0.2251 -0.4611
  134SOL     hw  534   2.535   0.828   6.263  0.9553  0.8173  0.7412
  134SOL     hw  535   2.546   0.697   6.338  0.7801  0.3723  0.0052
  134SOL     vw  536   2.573   0.751   6.275  0.3203  0.3227 -0.2410
  135SOL     ow  537   0.402   0.056   6.472  0.4094 -0.0545 -0.1612
  135SOL     hw  538   0.314   0.025   6.496 -0.2524  0.0827 -2.2027
  135SOL     hw  539   0.450  -0.024   6.451 -0.1770  0.0048 -1.8936
  135SOL     vw  540   0.397   0.042   6.473  0.2448 -0.0286 -0.6590
  136SOL     ow  541   5.052   3.690   4.792 -0.6224  0.1318 -0.1615
  136SOL     hw  542   5.035   3.663   4.702 -1.9654  2.2541 -0.6127
  136SOL     hw  543   5.147   3.691   4.800 -0.4921 -0.8885 -1.2639
  136SOL     vw  544   5.062   3.687   4.781 -0.7825  0.2772 -0.3664
  137SOL     ow  545   3.016   1.113   1.191  0.0672  0.5925  0.0510
  137SOL     hw  546   2.932   1.118   1.236 -1.0954  2.1202 -2.1234
  137SOL     hw  547   3.002   1.051   1.120  0.8211  0.7020 -0.2038
  137SOL     vw  548   3.003   1.106   1.188  0.0132  0.8086 -0.2696
  138SOL     ow  549   0.733   1.421   7.260 -0.0753  0.1734 -0.1735
  138SOL     hw  550   0.765   1.498   7.307  1.7414 -0.4825 -0.2554
  138SOL     hw  551   0.759   1.347   7.315  0.8946 -0.5291 -1.5093
  138SOL     vw  552   0.741   1.421   7.274  0.2923 -0.0059 -0.3605
  139SOL     ow  553   3.968   2.902   0.458 -0.9962  0.8284  0.3414
  139SOL     hw  554   3.916   2.982   0.465 -0.5517  1.0562  1.1749
  139SOL     hw  555   3.946   2.867   0.371  0.7926  3.2487 -1.2405
  139SOL     vw  556   3.958   2.908   0.447 -0.7015  1.1778  0.2427
  140SOL     ow  557   0.666   1.363   6.604 -0.0814 -0.4400 -1.3229
  140SOL     hw  558   0.751   1.408   6.601  0.0760 -0.7418 -1.4183
  140SOL     hw  559   0.685   1.275   6.574 -0.3596 -0.6159 -0.9912
  140SOL     vw  560   0.680   1.357   6.600 -0.0974 -0.5031 -1.2915
  141SOL     ow  561   6.436   3.344   5.441 -0.2964 -0.1845  0.1352
  141SOL     hw  562   6.505   3.405   5.468 -0.1145 -0.5027  0.3940
  141SOL     hw  563   6.421   3.365   5.349  0.7699 -0.6974 -0.1669
  141SOL     vw  564   6.443   3.355   5.432 -0.1318 -0.2943  0.1295
  142SOL     ow  565   0.779   0.268   0.737  0.2061 -0.3001  0.4457
  142SOL     hw  566   0.734   0.325   0.800 -0.0991  1.2662 -1.1086
  142SOL     hw  567   0.792   0.186   0.784  0.0700  0.8267  2.5678
  142SOL     vw  568   0.775   0.265   0.751  0.1479  0.0552  0.5206
  143SOL     ow  569   1.864   4.625   2.885  0.0940  0.3294  0.3898
  143SOL     hw  570   1.888   4.534   2.868 -0.7623  0.0892  0.4079
  143SOL     hw  571   1.899   4.642   2.973 -0.5121 -0.2716  0.7564
  143SOL     vw  572   1.872   4.615   2.895 -0.0989  0.2184  0.4405
  144SOL     ow  573   2.655   1.390   6.765 -0.2639  0.4982 -0.5050
  144SOL     hw  574   2.748   1.379   6.746 -0.6130 -1.6458 -1.2310
  144SOL     hw  575   2.644   1.358   6.854 -0.4118  0.0006 -0.6963
  144SOL     vw  576   2.666   1.384   6.774 -0.3295  0.1497 -0.6256
  145SOL     ow  577   5.519   0.215   7.527 -0.4754  0.1468 -0.2328
  145SOL     hw  578   5.461   0.246   7.597 -0.4513  0.8323 -0.5126
  145SOL     hw  579   5.461   0.165   7.469 -0.9682  1.4424 -0.9077
  145SOL     vw  580   5.504   0.212   7.528 -0.5374  0.4082 -0.3586
  146SOL     ow  581   1.659   2.567   5.312 -0.0071 -0.8385 -0.0314
  146SOL     hw  582   1.671   2.479   5.277  1.4821 -0.0701 -1.5950
  146SOL     hw  583   1.644   2.554   5.406 -4.4013 -3.0340 -0.7629
  146SOL     vw  584   1.659   2.554   5.320 -0.3905 -1.0267 -0.3343
  147SOL     ow  585   5.743   4.018   6.082  0.0216 -0.2867  0.2381
  147SOL     hw  586   5.735   4.058   6.168 -1.1901  1.2141 -0.5177
  147SOL     hw  587   5.832   4.040   6.053 -0.5558  1.8172 -0.0898
  147SOL     vw  588   5.754   4.026   6.089 -0.2143  0.1888  0.0951
  148SOL     ow  589   3.745   0.219   4.021 -0.2329  0.1348  0.4980
  148SOL     hw  590   3.788   0.182   3.944  1.2661  0.2845  1.2268
  148SOL     hw  591   3.764   0.158   4.092 -1.5650  0.0190  0.7788
  148SOL     vw  592   3.753   0.206   4.020 -0.2108  0.1392  0.6313
  149SOL     ow  593   0.547   7.128   5.205 -0.3429 -0.1500  0.2607
  149SOL     hw  594   0.583   7.215   5.218 -2.1691  0.6863  0.0374
  149SOL     hw  595   0.597   7.071   5.263  3.2709  0.3421 -2.0855
  149SOL     vw  596   0.558   7.132   5.214 -0.1070  0.0255 -0.0784
  150SOL     ow  597   0.198   4.594   2.155 -0.5020 -0.2388  0.4110
  150SOL     hw  598   0.255   4.522   2.129 -0.7854 -1.2176  2.3046
  150SOL     hw  599   0.250   4.673   2.142  0.3099 -0.8935 -0.3881
  150SOL     vw  600   0.212   4.595   2.150 -0.4322 -0.4544  0.5555
  151SOL     ow  601   6.184   7.539   4.085  0.3929 -0.5155 -0.2347
  151SOL     hw  602   6.170   7.612   4.024 -0.3473 -1.2709 -1.0055
  151SOL     hw  603   6.274   7.551   4.116  0.1916  0.8820 -0.1109
  151SOL     vw  604   6.194   7.550   4.081  0.2685 -0.4308 -0.3204
  152SOL     ow  605   0.036   0.518   4.467 -0.0038  0.5852  0.2538
  152SOL     hw  606  -0.011   0.435   4.463  1.1297 -0.0685  0.1242
  152SOL     hw  607   0.063   0.535   4.376 -0.0626  1.0101  0.3107
  152SOL     vw  608   0.033   0.510   4.454  0.1380  0.5550  0.2444
  153SOL     ow  609   3.835   0.870   0.778 -0.0327  0.2399 -0.0738
  153SOL     hw  610   3.924   0.867   0.813 -0.1844 -1.5198  0.2175
  153SOL     hw  611   3.820   0.963   0.762  1.5291  0.6707  0.6960
  153SOL     vw  612   3.845   0.882   0.780  0.1534  0.0646  0.0662
  154SOL     ow  613   1.253   3.000   3.503 -0.2204 -0.4411  0.7941
  154SOL     hw  614   1.308   3.075   3.478  0.2670 -0.5211  1.6038
  154SOL     hw  615   1.241   2.952   3.421  2.1327 -1.2195  0.8171
  154SOL     vw  616   1.259   3.004   3.489  0.1544 -0.5543  0.9040
  155SOL     ow  617   3.631   6.200   3.588  0.0690  0.2344 -0.0236
  155SOL     hw  618   3.645   6.236   3.675 -2.1086  0.7379  0.1919
  155SOL     hw  619   3.630   6.106   3.601 -0.3070  0.3077  0.5172
  155SOL     vw  620   3.633   6.193   3.601 -0.2680  0.3109  0.0762
  156SOL     ow  621   6.123   5.116   6.117  0.7439  0.1467  0.2698
  156SOL     hw  622   6.128   5.181   6.187  0.1960 -2.2164  2.6304
  156SOL     hw  623   6.114   5.169   6.037 -0.2505  2.9534  2.0715
  156SOL     vw  624   6.123   5.132   6.116  0.5403  0.2055  0.8187
  157SOL     ow  625   2.977   2.123   5.504 -0.4093  0.6841 -0.3879
  157SOL     hw  626   3.065   2.160   5.511 -0.2111 -0.0461  2.1538
  157SOL     hw  627   2.919   2.199   5.496  0.3689  1.2148 -1.1468
  157SOL     vw  628   2.981   2.138   5.504 -0.2805  0.6578 -0.1526
  158SOL     ow  629   6.508   0.196   7.592  0.0763 -0.1368  0.2797
  158SOL     hw  630   6.421   0.185   7.630 -1.0457 -2.1966 -2.5414
  158SOL     hw  631   6.568   0.162   7.659 -1.4832 -0.9158  1.3407
  158SOL     vw  632   6.505   0.190   7.606 -0.2773 -0.5114  0.0474
  159SOL     ow  633   3.898   5.718   4.315  0.2043  0.5215  0.0716
  159SOL     hw  634   3.839   5.688   4.384 -0.4573  0.5734 -0.4573
  159SOL     hw  635   3.911   5.811   4.333  1.1053  0.2546  0.8842
  159SOL     vw  636   3.892   5.726   4.326  0.2359  0.4930  0.1092
  160SOL     ow  637   0.288   4.422   4.882  0.1169 -0.0993 -0.0618
  160SOL     hw  638   0.321   4.370   4.809  0.2356 -1.0430  0.6514
  160SOL     hw  639   0.211   4.373   4.913 -1.2956  1.4533 -0.9632
  160SOL     vw  640   0.282   4.408   4.876 -0.0538 -0.0191 -0.0868
  161SOL     ow  641   4.617   1.187   2.248  0.4462 -0.5849 -0.4284
  161SOL     hw  642   4.663   1.267   2.272  0.9054 -1.2611  1.0537
  161SOL     hw  643   4.527   1.214   2.232  1.2954  0.8168 -3.6548
  161SOL     vw  644   4.612   1.201   2.249  0.6187 -0.4891 -0.6585
  162SOL     ow  645   1.594   5.009   7.178  0.3381  0.4613 -0.1626
  162SOL     hw  646   1.539   5.081   7.147 -2.4742 -1.9545 -1.2806
  162SOL     hw  647   1.644   4.983   7.100  0.1146  0.1852 -0.2153
  162SOL     vw  648   1.594   5.015   7.163 -0.0624  0.1061 -0.3171
  163SOL     ow  649   5.004   3.767   2.739 -0.2390 -0.2525 -0.4149
  163SOL     hw  650   5.038   3.853   2.764  0.9661 -0.9623  0.5135
  163SOL     hw  651   4.915   3.784   2.709  0.6425  1.6093 -2.2690
  163SOL     vw  652   4.997   3.780   2.738  0.0365 -0.1005 -0.5370
  164SOL     ow  653   1.225   6.393   2.025 -0.3937 -0.0403 -0.3468
  164SOL     hw  654   1.257   6.482   2.013 -2.0106  0.4625 -1.3126
  164SOL     hw  655   1.299   6.345   2.061  1.3799  1.0449 -2.3119
  164SOL     vw  656   1.239   6.398   2.028 -0.3731  0.1695 -0.7335
  165SOL     ow  657   4.729   7.534   2.562 -0.1017  0.4473  0.1047
  165SOL     hw  658   4.686   7.590   2.627  0.5237  1.0700  0.0026
  165SOL     hw  659   4.776   7.469   2.614  0.0458  0.6813  0.2676
  165SOL     vw  660   4.730   7.533   2.577  0.0002  0.5600  0.1128
  166SOL     ow  661   0.337   1.764   4.802  0.5043  0.3211  0.4803
  166SOL     hw  662   0.245   1.743   4.816  0.6515 -0.4484  0.3054
  166SOL     hw  663   0.369   1.694   4.745  1.2180  0.5408  0.6110
  166SOL     vw  664   0.329   1.752   4.796  0.6179  0.2486  0.4745
  167SOL     ow  665   5.737   4.651   3.772  0.0651  0.3185 -0.4643
  167SOL     hw  666   5.760   4.710   3.701 -0.0639 -2.3424 -2.8815
  167SOL     hw  667   5.643   4.636   3.763 -0.3966  1.5422  1.6495
  167SOL     vw  668   5.728   4.657   3.762 -0.0126  0.1287 -0.5043
  168SOL     ow  669   0.768   2.956   7.079  0.1183  0.2249  0.4353
  168SOL     hw  670   0.782   2.863   7.096  0.1496  0.2392  0.4903
  168SOL     hw  671   0.741   2.961   6.988  3.7232  0.5143 -0.7387
  168SOL     vw  672   0.766   2.944   7.069  0.5980  0.2650  0.2878
  169SOL     ow  673   0.667   7.194   0.129 -0.3399 -0.2786 -0.5373
  169SOL     hw  674   0.617   7.199   0.047 -2.3254 -2.6576  0.4343
  169SOL     hw  675   0.665   7.102   0.153  1.8132  0.0730  1.2681
  169SOL     vw  676   0.660   7.183   0.121 -0.3178 -0.5460 -0.1709
  170SOL     ow  677   0.741   3.143   3.927  0.1664  1.4434  0.3243
  170SOL     hw  678   0.823   3.191   3.938  1.7258 -1.1148  0.8943
  170SOL     hw  679   0.694   3.155   4.009  2.1924 -0.7575  1.9431
  170SOL     vw  680   0.746   3.151   3.939  0.6395  0.8155  0.6131
  171SOL     ow  681   6.933   6.926   5.560 -0.4409 -0.0704  0.1552
  171SOL     hw  682   6.989   6.902   5.486 -1.5225  0.8760 -1.0088
  171SOL     hw  683   6.995   6.944   5.631  0.6752 -0.0787 -0.7841
  171SOL     vw  684   6.949   6.925   5.560 -0.4361  0.0534 -0.1223
  172SOL     ow  685   6.511   0.245   1.758 -0.1269  0.7144  0.3327
  172SOL     hw  686   6.588   0.289   1.723 -2.5521  4.0098 -1.3461
  172SOL     hw  687   6.451   0.238   1.684 -2.0866 -0.3186  1.9195
  172SOL     vw  688   6.513   0.250   1.744 -0.7052  1.0129  0.3206
  173SOL     ow  689   4.578   5.199   0.358  0.0183 -0.0187  0.6961
  173SOL     hw  690   4.591   5.277   0.303  1.8364 -0.6890  0.0982
  173SOL     hw  691   4.485   5.179   0.348  0.2463 -0.1204 -2.2275
  173SOL     vw  692   4.567   5.207   0.349  0.2880 -0.1209  0.2315
  174SOL     ow  693   6.024   6.988   7.439  0.5370  0.4655  0.8316
  174SOL     hw  694   6.103   7.003   7.387 -0.5240 -0.8314 -1.2812
  174SOL     hw  695   5.989   7.076   7.455  0.4908  0.9142 -1.3872
  174SOL     vw  696   6.030   7.001   7.434  0.3908  0.3533  0.2601
  175SOL     ow  697   5.880   5.239   3.963 -0.7514 -0.3378 -0.3429
  175SOL     hw  698   5.879   5.335   3.960  1.2822 -0.2844 -2.5283
  175SOL     hw  699   5.930   5.218   4.042 -3.1903  0.2616  1.4673
  175SOL     vw  700   5.886   5.249   3.973 -0.8047 -0.2518 -0.3924
  176SOL     ow  701   2.544   1.062   6.920  0.0912  1.0190 -0.1421
  176SOL     hw  702   2.487   1.050   6.844 -2.7993  1.9164  1.7385
  176SOL     hw  703   2.518   1.146   6.957 -0.5808 -0.5642  3.3511
  176SOL     vw  704   2.533   1.071   6.915 -0.3787  0.9286  0.5672
  177SOL     ow  705   5.654   0.729   0.568  0.7919  0.0552  0.0619
  177SOL     hw  706   5.662   0.797   0.636 -0.1348  0.6763 -0.4326
  177SOL     hw  707   5.721   0.665   0.592  0.2857  0.0907  1.7642
  177SOL     vw  708   5.664   0.730   0.580  0.6030  0.1418  0.2213
  178SOL     ow  709   2.125   3.928   6.031 -0.2212  0.2564 -0.1696
  178SOL     hw  710   2.138   3.994   6.100 -2.3435 -0.4641  1.0216
  178SOL     hw  711   2.155   3.846   6.070  0.0569  0.0886 -0.7216
  178SOL     vw  712   2.131   3.926   6.046 -0.4646  0.1392 -0.0854
  179SOL     ow  713   5.369   0.056   2.461 -0.6335 -0.2826  0.2658
  179SOL     hw  714   5.374  -0.031   2.423 -1.8843  0.7275 -2.4799
  179SOL     hw  715   5.308   0.047   2.534 -0.3348 -1.7597  0.3638
  179SOL     vw  716   5.362   0.044   2.466 -0.7591 -0.3442 -0.0834
  180SOL     ow  717   5.838   7.160   1.731 -0.0824  0.3309 -0.9579
  180SOL     hw  718   5.924   7.169   1.772  0.2505 -1.3458 -1.2083
  180SOL     hw  719   5.841   7.217   1.655  0.9337  0.0342 -1.1494
  180SOL     vw  720   5.850   7.169   1.727  0.0954  0.0706 -1.0162
  181SOL     ow  721   0.684   3.195   4.716 -0.1663  0.2731  0.5091
  181SOL     hw  722   0.775   3.225   4.707 -0.2420  0.4892  0.4739
  181SOL     hw  723   0.685   3.106   4.680 -0.2557  0.7646 -0.7879
  181SOL     vw  724   0.696   3.187   4.710 -0.1881  0.3664  0.3333
  182SOL     ow  725   2.547   0.638   5.758 -0.1496  0.1682  0.6808
  182SOL     hw  726   2.538   0.727   5.792  1.3800  0.9798 -0.8801
  182SOL     hw  727   2.639   0.616   5.773 -0.1412 -0.5468 -0.3016
  182SOL     vw  728   2.558   0.647   5.765  0.0534  0.1810  0.3450
  183SOL     ow  729   2.027   7.148   3.035  0.1878 -0.1958 -0.5738
  183SOL     hw  730   2.025   7.128   2.942 -2.1055 -0.5861 -0.5055
  183SOL     hw  731   2.051   7.065   3.077  4.4809  0.7087 -0.8588
  183SOL     vw  732   2.030   7.134   3.028  0.4516 -0.1278 -0.6024
  184SOL     ow  733   4.298   5.632   6.937  0.1434 -0.1281 -0.3908
  184SOL     hw  734   4.223   5.652   6.881  0.7891 -1.2497 -1.7093
  184SOL     hw  735   4.288   5.690   7.012 -1.3857  0.5922 -1.1132
  184SOL     vw  736   4.287   5.642   6.939  0.0267 -0.1807 -0.6602
  185SOL     ow  737   1.771   0.626   3.443  0.1868  0.5054  0.0429
  185SOL     hw  738   1.758   0.598   3.353  0.4260  2.9282 -0.8207
  185SOL     hw  739   1.858   0.592   3.467  0.2759  0.1593 -0.7625
  185SOL     vw  740   1.781   0.618   3.434  0.2301  0.7794 -0.1773
  186SOL     ow  741   5.075   0.564   0.364  0.7407  0.1827 -0.3449
  186SOL     hw  742   5.031   0.527   0.440  0.4033 -0.4304 -0.8283
  186SOL     hw  743   5.044   0.654   0.359  1.9909  0.7441  1.1740
  186SOL     vw  744   5.065   0.571   0.374  0.8612  0.1759 -0.2083
  187SOL     ow  745   7.529   4.425   1.924 -0.5584 -0.4034 -0.1980
  187SOL     hw  746   7.623   4.443   1.924 -0.9736  2.3224 -1.3701
  187SOL     hw  747   7.492   4.493   1.979 -1.8132 -2.3739  1.5577
  187SOL     vw  748   7.537   4.436   1.931 -0.7787 -0.3037 -0.1210
  188SOL     ow  749   0.289   1.088   4.183  0.2342  0.1076  0.2623
  188SOL     hw  750   0.342   1.141   4.241  2.8006  1.0331 -2.6567
  188SOL     hw  751   0.272   1.008   4.232  1.7147  1.0641  2.4664
  188SOL     vw  752   0.294   1.084   4.197  0.7681  0.3559  0.1681
  189SOL     ow  753   0.215   3.184   3.710  0.4104  0.4612  0.2728
  189SOL     hw  754   0.208   3.198   3.805 -0.3276 -0.2406  0.3325
  189SOL     hw  755   0.143   3.235   3.673  0.1656  0.0499  0.1699
  189SOL     vw  756   0.205   3.192   3.718  0.2807  0.3142  0.2671
  190SOL     ow  757   3.471   4.426   5.361  0.0310  0.5310 -0.1349
  190SOL     hw  758   3.557   4.401   5.329  0.5277  0.2413  1.3908
  190SOL     hw  759   3.449   4.361   5.427 -1.1759  0.8515 -0.1868
  190SOL     vw  760   3.479   4.414   5.365 -0.0628  0.5348  0.0596
  191SOL     ow  761   5.640   3.133   2.866 -0.7533 -0.1316 -0.2249
  191SOL     hw  762   5.683   3.173   2.790 -0.2211  1.9994  1.1132
  191SOL     hw  763   5.627   3.042   2.841 -0.6702  0.5018 -2.9013
  191SOL     vw  764   5.644   3.126   2.853 -0.6721  0.2331 -0.4015
  192SOL     ow  765   5.801   2.794   2.655 -0.3382 -0.5265 -0.0434
  192SOL     hw  766   5.863   2.866   2.644 -0.2284 -0.9952 -3.6417
  192SOL     hw  767   5.717   2.837   2.673 -0.0121  0.4261 -0.7643
  192SOL     vw  768   5.798   2.809   2.656 -0.2806 -0.4627 -0.6131
  193SOL     ow  769   3.132   7.591   0.162 -0.3518  0.2742  0.0061
  193SOL     hw  770   3.210   7.584   0.109 -0.1662 -2.2124  0.4920
  193SOL     hw  771   3.159   7.641   0.239  0.5825 -0.0036 -0.1374
  193SOL     vw  772   3.146   7.597   0.165 -0.2040 -0.0904  0.0512
  194SOL     ow  773   4.670   7.455   1.791  0.0201 -0.4858  0.0629
  194SOL     hw  774   4.595   7.451   1.851 -0.0441 -1.1248 -0.0570
  194SOL     hw  775   4.744   7.422   1.842 -0.1639 -1.6630 -0.3954
  194SOL     vw  776   4.670   7.450   1.805 -0.0126 -0.7255 -0.0135
  195SOL     ow  777   2.118   1.829   3.587 -0.0301 -0.1078  0.5371
  195SOL     hw  778   2.155   1.798   3.504 -1.7424  0.7699 -0.6088
  195SOL     hw  779   2.027   1.800   3.585  0.0718 -0.7265  2.4910
  195SOL     vw  780   2.111   1.821   3.576 -0.2426 -0.0737  0.6437
  196SOL     ow  781   1.556   4.331   0.260 -0.2912  0.3100 -0.0711
  196SOL     hw  782   1.565   4.417   0.218 -0.1691 -0.1166 -0.9322
  196SOL     hw  783   1.630   4.280   0.227 -0.4480 -0.1833  0.3171
  196SOL     vw  784   1.567   4.336   0.250 -0.2958  0.1888 -0.1335
  197SOL     ow  785   6.597   5.043   2.708 -0.0672  0.4899 -0.3622
  197SOL     hw  786   6.653   5.106   2.753  0.4798 -0.0812 -0.2314
  197SOL     hw  787   6.613   4.960   2.753  1.1061 -0.2888 -2.0890
  197SOL     vw  788   6.606   5.040   2.720  0.1597  0.3119 -0.5730
  198SOL     ow  789   4.581   1.367   3.897  0.2501  0.4834 -0.2201
  198SOL     hw  790   4.620   1.284   3.924  0.1674  1.4218  3.1939
  198SOL     hw  791   4.490   1.347   3.879  0.2170 -0.1843  0.6432
  198SOL     vw  792   4.574   1.354   3.898  0.2351  0.5191  0.3443
  199SOL     ow  793   0.090   7.435   0.656 -0.3219  0.5934  0.2016
  199SOL     hw  794   0.145   7.506   0.688  0.0513 -0.1399  1.2556
  199SOL     hw  795   0.151   7.362   0.644 -1.1733 -0.5583  2.4153
  199SOL     vw  796   0.105   7.435   0.658 -0.3850  0.3448  0.6328
  200SOL     ow  797   3.680   4.759   0.990  0.2245  0.4131 -0.0838
  200SOL     hw  798   3.770   4.791   1.003  0.2545  0.7244 -0.9618
  200SOL     hw  799   3.652   4.800   0.907 -1.3266  1.6463  0.9847
  200SOL     vw  800   3.688   4.769   0.981  0.0238  0.6170 -0.0587
  201SOL     ow  801   2.074   0.320   0.528 -0.3030  0.1369  0.2938
  201SOL     hw  802   2.158   0.302   0.486  0.5303 -0.3967  2.0561
  201SOL     hw  803   2.023   0.240   0.515 -1.2803  1.0993 -2.3099
  201SOL     vw  804   2.079   0.307   0.521 -0.3221  0.1935  0.1827
  202SOL     ow  805   0.156   3.901   1.731  0.0200  0.6537 -0.3337
  202SOL     hw  806   0.242   3.941   1.720  1.1115 -1.8521 -1.8774
  202SOL     hw  807   0.133   3.870   1.644 -0.0322 -3.1151  0.8405
  202SOL     vw  808   0.165   3.902   1.718  0.1571 -0.1742 -0.3824
  203SOL     ow  809   0.317   4.840   2.063 -0.0264 -0.5847 -0.5867
  203SOL     hw  810   0.336   4.934   2.058 -1.7520 -0.1858 -0.3056
  203SOL     hw  811   0.388   4.798   2.014  0.6615  0.8746 -0.8821
  203SOL     vw  812   0.329   4.847   2.056 -0.1633 -0.3395 -0.5885
  204SOL     ow  813   0.767   5.420   1.641 -0.6943  1.1792 -0.5943
  204SOL     hw  814   0.735   5.427   1.551  0.7909 -1.2747 -1.4015
  204SOL     hw  815   0.856   5.386   1.632 -0.7059  0.3381  1.8403
  204SOL     vw  816   0.774   5.416   1.628 -0.4998  0.7446 -0.3796
  205SOL     ow  817   5.455   2.903   5.662 -0.9966 -0.1386  0.8236
  205SOL     hw  818   5.392   2.893   5.590  0.5675  1.9571 -0.9851
  205SOL     hw  819   5.518   2.831   5.648 -0.9405 -0.0014  0.3375
  205SOL     vw  820   5.455   2.892   5.651 -0.7827  0.1560  0.5209
  206SOL     ow  821   3.108   1.400   0.154 -0.3367 -0.6903 -0.1731
  206SOL     hw  822   3.202   1.416   0.152 -0.4861  1.0450  2.1259
  206SOL     hw  823   3.069   1.483   0.125 -1.1931 -1.6200 -1.8147
  206SOL     vw  824   3.115   1.413   0.150 -0.4693 -0.5841 -0.0864
  207SOL     ow  825   4.213   3.474   0.277  0.0151  0.2664  0.6649
  207SOL     hw  826   4.166   3.503   0.355  2.8203 -0.9988  3.0166
  207SOL     hw  827   4.297   3.520   0.282 -0.3887  1.6147 -2.7525
  207SOL     vw  828   4.218   3.484   0.288  0.3321  0.2774  0.5243
  208SOL     ow  829   1.254   3.693   1.800  0.0559  0.1168  0.5986
  208SOL     hw  830   1.295   3.727   1.720  0.6155 -0.9729  0.4080
  208SOL     hw  831   1.162   3.683   1.777 -0.0737  1.2651  0.5830
  208SOL     vw  832   1.247   3.696   1.786  0.1126  0.1245  0.5714
  209SOL     ow  833   5.316   1.589   2.036 -0.3967  0.1982 -0.4478
  209SOL     hw  834   5.304   1.520   2.101 -2.4417  1.0422  0.1602
  209SOL     hw  835   5.346   1.665   2.086 -3.6129  1.3690 -0.0444
  209SOL     vw  836   5.318   1.590   2.051 -1.0910  0.4640 -0.3144
  210SOL     ow  837   3.179   3.048   3.625  0.4829 -0.0385  0.5240
  210SOL     hw  838   3.222   2.966   3.650 -0.0412 -0.8361 -1.0960
  210SOL     hw  839   3.207   3.111   3.693  0.2430 -1.7107  2.2665
  210SOL     vw  840   3.189   3.046   3.638  0.3822 -0.3643  0.5403
  211SOL     ow  841   3.767   5.411   3.344 -0.3252  0.5565 -0.3007
  211SOL     hw  842   3.849   5.370   3.372  0.3569  2.8049  1.3745
  211SOL     hw  843   3.702   5.380   3.407 -0.2859  0.4212 -0.3270
  211SOL     vw  844   3.770   5.401   3.356 -0.2301  0.8352 -0.0831
  212SOL     ow  845   4.027   3.851   0.496 -1.0415 -0.4471  0.0611
  212SOL     hw  846   4.094   3.906   0.535 -0.8862 -1.1451  0.8098
  212SOL     hw  847   3.994   3.902   0.422 -0.1399  0.1745  0.0696
  212SOL     vw  848   4.032   3.865   0.491 -0.9022 -0.4572  0.1610
  213SOL     ow  849   2.304   2.937   6.646 -0.0880  0.5961 -0.0643
  213SOL     hw  850   2.233   2.875   6.666  0.7506 -0.0992  0.8286
  213SOL     hw  851   2.295   3.005   6.713  2.6720 -1.6925  2.9784
  213SOL     vw  852   2.293   2.938   6.657  0.3868  0.2024  0.4549
  214SOL     ow  853   5.150   6.487   2.474  0.4437 -0.4555  0.0938
  214SOL     hw  854   5.086   6.509   2.405  3.1619  1.6766 -1.9810
  214SOL     hw  855   5.178   6.572   2.508  2.0325 -1.3358  1.0644
  214SOL     vw  856   5.145   6.501   2.469  1.0121 -0.2904 -0.0517
  215SOL     ow  857   1.690   7.545   2.436  0.6110 -0.1540 -0.0686
  215SOL     hw  858   1.744   7.623   2.423 -0.1358  0.5474  0.8894
  215SOL     hw  859   1.602   7.579   2.451 -0.0426 -1.2583 -1.2056
  215SOL     vw  860   1.685   7.560   2.436  0.4262 -0.2072 -0.0921
  216SOL     ow  861   3.339   1.970   7.528 -0.1606  0.4446 -0.9111
  216SOL     hw  862   3.297   2.055   7.524 -0.2668  0.3907 -0.9440
  216SOL     hw  863   3.289   1.915   7.467 -0.6551  0.1161 -0.2154
  216SOL     vw  864   3.327   1.974   7.519 -0.2400  0.3941 -0.8240
  217SOL     ow  865   1.215   2.345   1.190  0.2820  0.3668 -0.3495
  217SOL     hw  866   1.246   2.278   1.129 -0.3467 -1.2474  1.0215
  217SOL     hw  867   1.258   2.324   1.273 -1.0366  0.7713  0.4776
  217SOL     vw  868   1.225   2.334   1.193  0.0251  0.2072 -0.0594
  218SOL     ow  869   4.350   1.753   3.437  0.2863  0.8482 -0.1415
  218SOL     hw  870   4.264   1.729   3.473  0.8331 -1.3610 -0.2319
  218SOL     hw  871   4.388   1.810   3.504  0.2670 -1.1868  1.6841
  218SOL     vw  872   4.343   1.758   3.450  0.3560  0.2881  0.0873
  219SOL     ow  873   1.910   2.812   1.395 -0.0424 -0.3162 -0.1441
  219SOL     hw  874   1.981   2.854   1.443 -1.7015  0.8246  1.4423
  219SOL     hw  875   1.940   2.722   1.382  1.8289  0.2226  0.1078
  219SOL     vw  876   1.923   2.806   1.400 -0.0144 -0.0945  0.0985
  220SOL     ow  877   6.475   4.155   6.744 -0.1861 -0.4780 -0.0687
  220SOL     hw  878   6.407   4.176   6.680 -1.7442 -0.3050  1.5482
  220SOL     hw  879   6.428   4.112   6.816  1.1111  1.1117  1.8625
  220SOL     vw  880   6.460   4.152   6.745 -0.2205 -0.2456  0.3994
  221SOL     ow  881   3.485   7.389   3.207  0.4260  0.0150 -0.1824
  221SOL     hw  882   3.454   7.479   3.195  1.1553  0.1392 -1.2469
  221SOL     hw  883   3.503   7.382   3.301  0.2117  0.9293 -0.0656
  221SOL     vw  884   3.483   7.400   3.218  0.4939  0.1519 -0.3073
  222SOL     ow  885   4.121   1.728   3.604  0.1672 -0.0979  0.1565
  222SOL     hw  886   4.070   1.669   3.659 -0.0684 -0.8223 -0.8155
  222SOL     hw  887   4.143   1.801   3.662 -1.8983  0.2050  0.6404
  222SOL     vw  888   4.117   1.730   3.619 -0.1366 -0.1535  0.0921
  223SOL     ow  889   0.196   4.129   7.257 -0.1073 -0.3436 -0.4131
  223SOL     hw  890   0.191   4.148   7.163  1.7863  1.4979 -0.2251
  223SOL     hw  891   0.210   4.034   7.262 -2.4722 -0.8413 -1.8339
  223SOL     vw  892   0.198   4.119   7.245 -0.1695 -0.1662 -0.5758
  224SOL     ow  893   0.806   5.182   7.493 -0.6424  0.4455 -0.1626
  224SOL     hw  894   0.757   5.202   7.572  0.2866  1.6884  0.1248
  224SOL     hw  895   0.874   5.121   7.522 -0.8095  0.2485 -0.1798
  224SOL     vw  896   0.808   5.176   7.507 -0.5419  0.5836 -0.1271
  225SOL     ow  897   1.540   2.827   3.473 -0.1315  0.4977 -0.0798
  225SOL     hw  898   1.473   2.853   3.410 -0.7766 -0.1180  0.3381
  225SOL     hw  899   1.491   2.797   3.549  0.6377  1.9250  1.0229
  225SOL     vw  900   1.525   2.827   3.474 -0.1151  0.6047  0.1209
  226SOL     ow  901   6.890   5.976   6.101  0.5302  0.0283  0.4728
  226SOL     hw  902   6.930   6.060   6.081 -0.8139  0.5016 -0.4104
  226SOL     hw  903   6.910   5.960   6.193  1.6333  0.8279  0.3827
  226SOL     vw  904   6.898   5.985   6.110  0.4983  0.1960  0.3445
  227SOL     ow  905   3.908   6.016   6.886 -0.1908  0.1914 -0.2826
  227SOL     hw  906   3.919   5.971   6.970  0.6247  1.3265  0.2441
  227SOL     hw  907   3.841   5.966   6.841 -1.0850 -0.1091  1.2951
  227SOL     vw  908   3.901   6.004   6.891 -0.2011  0.3016 -0.0052
  228SOL     ow  909   1.973   2.113   3.355 -0.3129  0.0097 -0.5734
  228SOL     hw  910   2.069   2.119   3.358 -0.3984  1.4693  0.9649
  228SOL     hw  911   1.945   2.196   3.316 -0.9422 -1.6910 -4.2061
  228SOL     vw  912   1.982   2.125   3.350 -0.4072 -0.0222 -0.8497
  229SOL     ow  913   2.183   0.336   4.908  0.4771  0.1655  0.1541
  229SOL     hw  914   2.248   0.400   4.937 -0.0512  0.4667  0.6908
  229SOL     hw  915   2.128   0.384   4.846 -0.9510  0.7582  1.8025
  229SOL     vw  916   2.185   0.351   4.904  0.2189  0.2834  0.4423
  230SOL     ow  917   0.896   4.396   0.157  0.3963  0.7800  0.1437
  230SOL     hw  918   0.876   4.375   0.248 -0.6474 -0.0516 -0.2614
  230SOL     hw  919   0.844   4.473   0.138 -0.3010  0.2692 -0.0754
  230SOL     vw  920   0.887   4.403   0.166  0.1667  0.6027  0.0613
  231SOL     ow  921   6.731   1.818   1.041 -0.4892  0.0167  0.0874
  231SOL     hw  922   6.826   1.820   1.046 -0.5246  0.2492  0.8504
  231SOL     hw  923   6.709   1.883   0.974 -0.1107 -0.1727 -0.2245
  231SOL     vw  924   6.740   1.827   1.033 -0.4442  0.0224  0.1469
  232SOL     ow  925   7.195   2.872   3.824  0.0954 -0.2507  0.7926
  232SOL     hw  926   7.213   2.785   3.860  0.9409 -0.7809 -0.8077
  232SOL     hw  927   7.188   2.929   3.901 -3.4373 -2.1785  2.1119
  232SOL     vw  928   7.197   2.868   3.839 -0.2594 -0.5749  0.7555
  233SOL     ow  929   3.213   4.885   4.632 -0.1266  0.8853 -0.0498
  233SOL     hw  930   3.192   4.792   4.625 -1.2491  1.1786 -0.8974
  233SOL     hw  931   3.267   4.903   4.555  0.5288  0.8331  0.3915
  233SOL     vw  932   3.217   4.875   4.621 -0.1882  0.9172 -0.1032
  234SOL     ow  933   4.178   6.850   6.592 -0.3834  0.2123 -0.0727
  234SOL     hw  934   4.213   6.780   6.648  2.8841 -1.1251 -3.3751
  234SOL     hw  935   4.087   6.824   6.576  1.1343 -4.7550 -2.7753
  234SOL     vw  936   4.170   6.837   6.597  0.2482 -0.6196 -0.8647
  235SOL     ow  937   3.358   0.850   6.317 -0.2849 -0.7053  0.5699
  235SOL     hw  938   3.434   0.900   6.287 -1.7009  1.4073  0.2913
  235SOL     hw  939   3.347   0.782   6.250 -0.5087  0.9598 -1.2055
  235SOL     vw  940   3.366   0.848   6.304 -0.5013 -0.2069  0.2990
  236SOL     ow  941   2.958   6.037   4.246  0.2076 -0.9448  0.0023
  236SOL     hw  942   3.036   6.008   4.200  1.1939  0.3447  0.8123
  236SOL     hw  943   2.924   6.109   4.193 -0.5237 -1.5758 -0.4112
  236SOL     vw  944   2.963   6.043   4.233  0.2412 -0.8578  0.0544
  237SOL     ow  945   6.097   3.536   3.897 -0.1611 -0.4572  0.3544
  237SOL     hw  946   6.127   3.509   3.811 -0.3214  0.7608 -0.1002
  237SOL     hw  947   6.029   3.473   3.920  0.0666 -0.9418 -0.2968
  237SOL     vw  948   6.092   3.524   3.889 -0.1519 -0.3604  0.2085
  238SOL     ow  949   5.774   5.039   0.847 -0.4613 -0.3743 -0.2283
  238SOL     hw  950   5.843   5.013   0.908 -1.4012  0.9840  1.5029
  238SOL     hw  951   5.820   5.061   0.766  1.4803  2.6603  1.5201
  238SOL     vw  952   5.789   5.038   0.844 -0.3290  0.2053  0.2308
  239SOL     ow  953   2.957   2.706   7.476  0.2209  0.2049 -0.3621
  239SOL     hw  954   3.042   2.733   7.513  1.3193 -1.2260 -1.6851
  239SOL     hw  955   2.969   2.614   7.454 -1.6692 -0.0002 -0.7084
  239SOL     vw  956   2.970   2.697   7.478  0.1165 -0.0110 -0.5825
  240SOL     ow  957   0.973   0.353   3.401 -0.1576  0.2618  0.1540
  240SOL     hw  958   0.959   0.447   3.414  2.0568  0.8831 -1.4456
  240SOL     hw  959   1.048   0.332   3.457 -0.0397 -0.3279 -0.2140
  240SOL     vw  960   0.981   0.363   3.410  0.1501  0.2660 -0.1055
  241SOL     ow  961   5.092   3.274   7.086 -0.5744  0.3679  0.5829
  241SOL     hw  962   5.180   3.285   7.048 -1.2712  1.2636 -0.8782
  241SOL     hw  963   5.102   3.301   7.177  0.9824 -0.9856  0.8670
  241SOL     vw  964   5.105   3.279   7.093 -0.4611  0.3076  0.4277
  242SOL     ow  965   3.546   1.763   0.078 -0.6231  0.6987  0.1643
  242SOL     hw  966   3.631   1.729   0.106 -0.5517  0.1970 -0.6351
  242SOL     hw  967   3.486   1.689   0.087 -0.6854  0.6506 -0.5809
  242SOL     vw  968   3.549   1.749   0.082 -0.6219  0.6261 -0.0395
  243SOL     ow  969   5.924   3.860   3.338  0.6278 -0.1683 -0.6238
  243SOL     hw  970   5.942   3.951   3.315 -0.0073 -0.2755 -1.5902
  243SOL     hw  971   6.007   3.814   3.321  1.0536  0.2649  0.1883
  243SOL     vw  972   5.938   3.866   3.333  0.6003 -0.1253 -0.6440
  244SOL     ow  973   3.488   7.052   7.113 -0.9259  0.0951  0.0148
  244SOL     hw  974   3.404   7.078   7.151 -0.9503  0.9576 -0.6076
  244SOL     hw  975   3.464   6.996   7.039 -0.9483  0.2349 -0.0838
  244SOL     vw  976   3.473   7.048   7.109 -0.9321  0.2270 -0.0801
  245SOL     ow  977   5.803   6.870   1.821  0.2318  0.1756 -0.2255
  245SOL     hw  978   5.885   6.900   1.859 -0.3879  0.2247  1.0977
  245SOL     hw  979   5.827   6.790   1.773  1.0140  0.0733  0.3180
  245SOL     vw  980   5.817   6.863   1.819  0.2532  0.1688  0.0207
  246SOL     ow  981   4.664   5.053   6.917 -0.4626  0.3151 -0.0591
  246SOL     hw  982   4.674   4.960   6.936 -0.9692 -0.5657 -3.3547
  246SOL     hw  983   4.620   5.055   6.832  1.6450  3.5231 -1.2593
  246SOL     vw  984   4.660   5.041   6.908 -0.2515  0.6220 -0.6523
  247SOL     ow  985   1.568   1.326   5.836  0.2003  0.5150 -0.4208
  247SOL     hw  986   1.552   1.417   5.814 -1.2685  0.2106 -0.6692
  247SOL     hw  987   1.603   1.328   5.925 -1.9798  1.1952  0.4769
  247SOL     vw  988   1.571   1.338   5.845 -0.2811  0.5646 -0.3352
  248SOL     ow  989   2.652   2.048   6.920 -0.2463 -0.7390 -0.3857
  248SOL     hw  990   2.677   2.006   7.002 -1.8057  1.1217  1.1404
  248SOL     hw  991   2.720   2.114   6.905 -0.2317 -0.7349 -0.3024
  248SOL     vw  992   2.665   2.052   6.929 -0.4499 -0.4929 -0.1733
  249SOL     ow  993   7.390   4.958   4.517 -0.9830  0.4741  0.5588
  249SOL     hw  994   7.377   4.969   4.422  0.2980  0.3815  0.3524
  249SOL     hw  995   7.395   5.047   4.551 -1.0058  0.5117  0.4648
  249SOL     vw  996   7.389   4.971   4.509 -0.8171  0.4671  0.5190
  250SOL     ow  997   3.596   5.324   2.002 -0.1216 -0.5743 -0.2810
  250SOL     hw  998   3.612   5.313   2.095  0.6724 -2.2403 -0.5907
  250SOL     hw  999   3.534   5.255   1.979 -0.4844 -0.0447 -0.9661
  250SOL     vw 1000   3.590   5.314   2.011 -0.0647 -0.7243 -0.4123
  251SOL     ow 1001   2.780   2.421   0.748 -0.1745  0.0907 -0.1445
  251SOL     hw 1002   2.864   2.432   0.792 -0.0381 -0.5396 -0.2410
  251SOL     hw 1003   2.748   2.336   0.778 -0.6466  0.2029 -0.3252
  251SOL     vw 1004   2.787   2.411   0.758 -0.2189  0.0223 -0.1811
  252SOL     ow 1005   7.543   4.002   6.117  0.3665 -0.0185 -0.0331
  252SOL     hw 1006   7.511   4.091   6.106  0.5534  0.0704  0.1267
  252SOL     hw 1007   7.469   3.954   6.155  1.3863  0.9690  3.6200
  252SOL     vw 1008   7.529   4.007   6.120  0.5257  0.1237  0.4699
  253SOL     ow 1009   4.211   4.815   4.497  0.1494 -0.1222 -0.0462
  253SOL     hw 1010   4.221   4.910   4.495 -1.5675  0.1950  2.7484
  253SOL     hw 1011   4.238   4.789   4.585  1.3755 -2.3832 -1.0011
  253SOL     vw 1012   4.216   4.824   4.508  0.0844 -0.3786  0.1967
  254SOL     ow 1013   4.787   7.182   7.031  0.3538  0.2917 -0.4496
  254SOL     hw 1014   4.814   7.213   7.118  0.5471  1.2912 -0.8448
  254SOL     hw 1015   4.836   7.102   7.018  2.0000  1.2647 -0.5124
  254SOL     vw 1016   4.797   7.176   7.041  0.5965  0.5519 -0.5102
  255SOL     ow 1017   6.857   3.193   3.085  0.1669 -0.2717  0.1779
  255SOL     hw 1018   6.787   3.144   3.041  1.1090 -0.5027 -1.1368
  255SOL     hw 1019   6.812   3.260   3.136 -1.0278 -0.6976 -0.2936
  255SOL     vw 1020   6.842   3.195   3.086  0.1338 -0.3582 -0.0577
  256SOL     ow 1021   0.946   2.715   5.000 -0.3198  0.3472  0.4386
  256SOL     hw 1022   0.964   2.631   5.041 -0.8879  0.0116  0.0029
  256SOL     hw 1023   0.853   2.712   4.977  0.4871 -0.5348 -3.3000
  256SOL     vw 1024   0.936   2.704   5.003 -0.2883  0.1864 -0.1123
  257SOL     ow 1025   1.755   2.242   1.683 -0.9300 -0.3699 -0.0846
  257SOL     hw 1026   1.717   2.329   1.670 -2.4477 -1.0065 -0.1129
  257SOL     hw 1027   1.771   2.209   1.595  4.4333  1.7531 -0.2448
  257SOL     vw 1028   1.752   2.249   1.670 -0.4226 -0.1738 -0.1096
  258SOL     ow 1029   6.087   2.553   6.619  0.2136  0.2892  0.4631
  258SOL     hw 1030   6.067   2.641   6.587 -1.1442 -0.2054 -0.1040
  258SOL     hw 1031   6.042   2.495   6.559  0.3908 -0.7772  1.3369
  258SOL     vw 1032   6.079   2.557   6.607  0.0577  0.0832  0.5033
  259SOL     ow 1033   2.743   0.638   3.303  0.0091 -0.5122  0.2702
  259SOL     hw 1034   2.707   0.722   3.273 -0.2419 -0.4148  0.8296
  259SOL     hw 1035   2.751   0.649   3.398 -1.0717 -1.5157  0.4913
  259SOL     vw 1036   2.739   0.651   3.311 -0.1665 -0.6317  0.3732
  260SOL     ow 1037   7.351   6.695   3.249  0.7586 -0.4440 -0.4721
  260SOL     hw 1038   7.420   6.649   3.297  1.1913  1.4530  0.8299
  260SOL     hw 1039   7.398   6.760   3.196  0.0469  0.1053 -0.4447
  260SOL     vw 1040   7.367   6.698   3.248  0.7219 -0.1214 -0.2966
  261SOL     ow 1041   6.259   7.055   6.288 -0.2629 -0.6844  0.3395
  261SOL     hw 1042   6.202   7.131   6.277 -0.6223 -0.4696  3.0547
  261SOL     hw 1043   6.283   7.056   6.380  2.9053 -1.6854 -0.3554
  261SOL     vw 1044   6.254   7.065   6.299  0.1075 -0.7882  0.6061
  262SOL     ow 1045   4.516   0.759   2.148 -0.2426  0.4249  0.0798
  262SOL     hw 1046   4.514   0.695   2.220  0.3975  0.3140  0.0086
  262SOL     hw 1047   4.437   0.741   2.097 -0.9124  0.7692  0.9781
  262SOL     vw 1048   4.505   0.748   2.151 -0.2465  0.4557  0.1891
  263SOL     ow 1049   2.822   1.912   5.068  0.1456 -0.1491  0.3214
  263SOL     hw 1050   2.898   1.886   5.017  0.1297 -0.7248  0.5859
  263SOL     hw 1051   2.805   2.002   5.041  0.2514 -0.3784 -0.5474
  263SOL     vw 1052   2.830   1.921   5.057  0.1576 -0.2553  0.2413
  264SOL     ow 1053   6.002   5.524   7.323  0.3132 -1.1622 -0.0338
  264SOL     hw 1054   5.983   5.457   7.389  0.9933 -0.5327  0.8283
  264SOL     hw 1055   6.009   5.605   7.373 -1.8510 -0.1633 -1.1952
  264SOL     vw 1056   6.000   5.526   7.339  0.1175 -0.9475 -0.0734
  265SOL     ow 1057   1.935   7.315   6.315  0.4572  0.2583  0.7711
  265SOL     hw 1058   1.844   7.338   6.299  0.8950  0.6785 -1.3660
  265SOL     hw 1059   1.965   7.274   6.234  2.9640  2.7752  0.2454
  265SOL     vw 1060   1.927   7.312   6.302  0.8457  0.6456  0.4199
  266SOL     ow 1061   4.808   4.736   4.715  0.7257  0.5961 -0.1644
  266SOL     hw 1062   4.866   4.702   4.784 -1.5083 -0.3825  1.3725
  266SOL     hw 1063   4.726   4.754   4.760 -0.4625  1.1031 -2.3875
  266SOL     vw 1064   4.805   4.734   4.730  0.2742  0.5341 -0.2551
  267SOL     ow 1065   5.251   2.581   1.448 -0.0399 -0.0993 -0.1935
  267SOL     hw 1066   5.254   2.582   1.353  0.0396  1.6104 -0.1920
  267SOL     hw 1067   5.325   2.525   1.473  1.6758  1.6334 -1.1211
  267SOL     vw 1068   5.261   2.573   1.439  0.1969  0.3550 -0.3157
  268SOL     ow 1069   1.681   7.526   3.418 -0.3755  0.0858  0.0536
  268SOL     hw 1070   1.593   7.489   3.407 -0.3877  0.0314  0.3241
  268SOL     hw 1071   1.734   7.452   3.446 -0.3864  0.2632  0.5401
  268SOL     vw 1072   1.676   7.511   3.420 -0.3786  0.1023  0.1535
  269SOL     ow 1073   3.769   1.746   6.781 -0.3776 -0.6773 -0.0741
  269SOL     hw 1074   3.735   1.657   6.772 -0.1232 -0.6821 -1.1034
  269SOL     hw 1075   3.729   1.795   6.710 -0.1748 -0.0703  0.2210
  269SOL     vw 1076   3.759   1.741   6.770 -0.3171 -0.5978 -0.1709
  270SOL     ow 1077   5.686   0.749   1.668 -0.5762 -0.1908  0.2093
  270SOL     hw 1078   5.649   0.662   1.681 -0.7775  0.0118  1.0234
  270SOL     hw 1079   5.698   0.784   1.756 -1.0598  0.8412 -0.1242
  270SOL     vw 1080   5.683   0.742   1.681 -0.6664 -0.0279  0.2728
  271SOL     ow 1081   5.964   4.946   1.092  0.1391  0.7190  0.1223
  271SOL     hw 1082   6.020   4.993   1.154  1.3546 -1.9053  1.1272
  271SOL     hw 1083   6.010   4.864   1.074 -1.7520 -0.0302 -1.7540
  271SOL     vw 1084   5.977   4.942   1.098  0.0496  0.2739  0.0075
  272SOL     ow 1085   1.558   2.608   3.283  0.0628 -0.2474 -0.3904
  272SOL     hw 1086   1.651   2.588   3.268  0.1508 -0.6137  0.5721
  272SOL     hw 1087   1.559   2.680   3.346 -0.3106  0.2396 -0.9266
  272SOL     vw 1088   1.571   2.615   3.289  0.0252 -0.2314 -0.3340
  273SOL     ow 1089   4.883   0.739   2.983  0.1909 -0.6903  0.1313
  273SOL     hw 1090   4.888   0.652   3.024 -2.3711 -0.3676  1.2991
  273SOL     hw 1091   4.813   0.732   2.919 -0.3753  0.5959  0.5615
  273SOL     vw 1092   4.875   0.727   2.980 -0.2217 -0.4780  0.3420
  274SOL     ow 1093   4.989   5.811   3.797 -0.2638 -0.4846 -0.1884
  274SOL     hw 1094   4.940   5.847   3.723 -0.6798 -0.8023 -0.0752
  274SOL     hw 1095   5.037   5.737   3.759  0.4344  0.0596 -0.3793
  274SOL     vw 1096   4.989   5.806   3.782 -0.2265 -0.4544 -0.1986
  275SOL     ow 1097   4.443   2.052   6.726  0.7256 -0.0701  0.1987
  275SOL     hw 1098   4.359   2.097   6.723  1.6779  1.8090  0.0302
  275SOL     hw 1099   4.430   1.980   6.788 -0.3960  1.5280  1.9221
  275SOL     vw 1100   4.430   2.048   6.733  0.7033  0.3886  0.4036
  276SOL     ow 1101   4.980   7.371   3.822  0.1536  0.4014 -0.6950
  276SOL     hw 1102   4.999   7.423   3.744 -0.4142  0.2596 -0.9304
  276SOL     hw 1103   4.989   7.432   3.895 -0.9661  0.9616 -1.0045
  276SOL     vw 1104   4.984   7.386   3.821 -0.0691  0.4563 -0.7668
  277SOL     ow 1105   5.937   1.604   3.209 -0.2256  0.2497  0.6631
  277SOL     hw 1106   6.032   1.606   3.196  0.0108 -1.7136  1.7053
  277SOL     hw 1107   5.921   1.524   3.260 -2.5954 -0.2615 -0.7082
  277SOL     vw 1108   5.947   1.594   3.214 -0.5071 -0.0768  0.6195
  278SOL     ow 1109   0.895   1.207   0.512  0.3761  0.1261 -0.3806
  278SOL     hw 1110   0.825   1.257   0.554 -0.0850 -1.1714  0.4415
  278SOL     hw 1111   0.966   1.207   0.576 -0.5696 -2.4207  0.7771
  278SOL     vw 1112   0.895   1.214   0.526  0.1905 -0.3811 -0.1194
  279SOL     ow 1113   0.871   0.949   0.633 -0.3205 -0.6482 -0.1964
  279SOL     hw 1114   0.945   0.918   0.581  1.3639 -1.4677  2.5160
  279SOL     hw 1115   0.849   1.034   0.595  3.3674  0.6089  0.0843
  279SOL     vw 1116   0.878   0.956   0.621  0.3883 -0.5905  0.1985
  280SOL     ow 1117   5.214   0.904   7.229 -1.0215  0.0207 -0.7589
  280SOL     hw 1118   5.255   0.988   7.206 -0.1636  0.2152  1.2743
  280SOL     hw 1119   5.286   0.851   7.263 -2.0211 -0.5092  0.6224
  280SOL     vw 1120   5.229   0.908   7.230 -1.0407 -0.0235 -0.3083
  281SOL     ow 1121   5.447   5.707   3.360  0.2335 -0.3145  0.5793
  281SOL     hw 1122   5.451   5.643   3.431  0.7493 -0.6441  0.2617
  281SOL     hw 1123   5.498   5.667   3.289 -1.2167 -0.5017 -0.3967
  281SOL     vw 1124   5.454   5.693   3.360  0.1099 -0.3827  0.4086
  282SOL     ow 1125   5.684   3.090   5.952  0.2232  0.0060  0.1576
  282SOL     hw 1126   5.677   3.084   6.048  0.5697  3.7177  0.5594
  282SOL     hw 1127   5.651   3.006   5.921  0.1275 -1.3816  3.5117
  282SOL     vw 1128   5.679   3.078   5.961  0.2563  0.3126  0.6530
  283SOL     ow 1129   0.090   2.704   3.702 -0.4952 -0.2753 -0.2652
  283SOL     hw 1130   0.083   2.635   3.768  0.2395  0.3641  0.5098
  283SOL     hw 1131   0.055   2.665   3.622 -0.0303 -1.5724  0.1406
  283SOL     vw 1132   0.085   2.690   3.700 -0.3369 -0.3619 -0.1094
  284SOL     ow 1133   1.843   4.868   3.275 -0.3470 -0.2541 -0.3703
  284SOL     hw 1134   1.907   4.815   3.227 -0.7338 -1.1391  0.0648
  284SOL     hw 1135   1.781   4.897   3.208  0.6298  0.8176 -0.8343
  284SOL     vw 1136   1.843   4.865   3.260 -0.2692 -0.2296 -0.3741
  285SOL     ow 1137   7.042   2.568   0.688  0.7434  0.1877  0.5698
  285SOL     hw 1138   7.025   2.651   0.733 -0.7175  0.6734 -0.7939
  285SOL     hw 1139   6.956   2.541   0.654  1.8414  0.3192 -2.6576
  285SOL     vw 1140   7.028   2.576   0.690  0.6955  0.2691 -0.0359
  286SOL     ow 1141   3.638   4.001   0.243  0.7127  0.4550 -0.2116
  286SOL     hw 1142   3.565   3.968   0.191 -0.0605 -0.6060  1.4599
  286SOL     hw 1143   3.624   4.095   0.249 -1.5121  0.0999  1.4373
  286SOL     vw 1144   3.626   4.009   0.237  0.3172  0.2680  0.2265
  287SOL     ow 1145   4.371   0.991   2.243  0.3858  0.1313 -0.3497
  287SOL     hw 1146   4.406   0.902   2.252  0.7780  0.3285  0.1054
  287SOL     hw 1147   4.372   1.026   2.332 -2.0541 -0.2502 -0.0959
  287SOL     vw 1148   4.376   0.983   2.256  0.1154  0.1070 -0.2559
  288SOL     ow 1149   3.204   0.626   7.215 -0.3293 -0.7761  0.2734
  288SOL     hw 1150   3.122   0.656   7.177 -0.2835 -0.6622  0.2622
  288SOL     hw 1151   3.244   0.705   7.251  0.0347 -0.7336 -0.2134
  288SOL     vw 1152   3.199   0.640   7.215 -0.2754 -0.7555  0.2079
  289SOL     ow 1153   3.974   6.323   6.915  0.2133 -0.1610 -0.3875
  289SOL     hw 1154   4.069   6.332   6.914  0.2820 -0.7496 -1.7156
  289SOL     hw 1155   3.942   6.411   6.936  1.0261 -0.8030  4.8292
  289SOL     vw 1156   3.982   6.336   6.918  0.3297 -0.3231  0.1254
  290SOL     ow 1157   2.592   6.028   3.632 -0.5849  0.0829  0.2179
  290SOL     hw 1158   2.601   6.031   3.728  0.6286 -1.1151  0.1668
  290SOL     hw 1159   2.651   5.958   3.605 -0.5991  0.6981 -1.4675
  290SOL     vw 1160   2.601   6.019   3.641 -0.4268  0.0062 -0.0113
  291SOL     ow 1161   4.033   0.641   6.774  0.3589  0.1516  0.4961
  291SOL     hw 1162   3.972   0.707   6.808  0.0938  0.2785 -0.2213
  291SOL     hw 1163   4.034   0.655   6.680  0.5392 -0.6731  0.3694
  291SOL     vw 1164   4.025   0.652   6.766  0.3479  0.0595  0.3848
  292SOL     ow 1165   5.452   2.918   6.125  0.5847 -0.5216  0.0452
  292SOL     hw 1166   5.381   2.946   6.068  1.3651 -0.8273 -1.1051
  292SOL     hw 1167   5.454   2.822   6.115  1.3828 -0.4839 -0.2093
  292SOL     vw 1168   5.442   2.909   6.116  0.7932 -0.5569 -0.1402
  293SOL     ow 1169   3.604   3.450   3.604  0.1528 -0.1359 -0.0580
  293SOL     hw 1170   3.528   3.509   3.610  0.2077  0.0860 -1.2959
  293SOL     hw 1171   3.584   3.379   3.666 -0.1873  0.8636  1.0311
  293SOL     vw 1172   3.591   3.449   3.613  0.1152  0.0254 -0.0775
  294SOL     ow 1173   1.048   4.151   0.276  0.2682 -0.1004 -0.1537
  294SOL     hw 1174   0.987   4.197   0.333  0.3186 -0.2129 -0.0075
  294SOL     hw 1175   1.131   4.198   0.286  0.4641 -0.5693  0.4351
  294SOL     vw 1176   1.051   4.163   0.285  0.3008 -0.1769 -0.0567
  295SOL     ow 1177   0.322   1.230   6.985 -0.2446  0.6753  0.3463
  295SOL     hw 1178   0.300   1.141   6.958 -1.5456  0.8879  0.6427
  295SOL     hw 1179   0.237   1.271   7.004  0.4468  1.3058  2.3108
  295SOL     vw 1180   0.308   1.224   6.984 -0.3250  0.7865  0.6444
  296SOL     ow 1181   2.919   6.935   5.627  0.0926  0.1715 -0.6547
  296SOL     hw 1182   3.012   6.910   5.632 -0.2393 -1.2584 -1.0446
  296SOL     hw 1183   2.917   7.025   5.658  1.7119  0.4620 -1.2696
  296SOL     vw 1184   2.931   6.943   5.631  0.2624  0.0212 -0.7873
  297SOL     ow 1185   0.354   4.567   2.398  0.1481 -0.0785 -0.4439
  297SOL     hw 1186   0.364   4.647   2.450 -0.7576  0.6159 -1.2935
  297SOL     hw 1187   0.417   4.578   2.327  1.8381 -1.3136  0.7841
  297SOL     vw 1188   0.364   4.579   2.395  0.2515 -0.1500 -0.3941
  298SOL     ow 1189   1.311   6.316   5.551 -0.4306 -0.0263  0.6333
  298SOL     hw 1190   1.258   6.249   5.595 -1.9245  1.1917  0.7912
  298SOL     hw 1191   1.348   6.367   5.623 -3.5622  2.4984  0.6808
  298SOL     vw 1192   1.309   6.314   5.566 -1.0409  0.4678  0.6604
  299SOL     ow 1193   1.487   4.610   0.566  0.4609 -0.8582  0.2827
  299SOL     hw 1194   1.444   4.590   0.649  0.9575  0.2889  0.8511
  299SOL     hw 1195   1.577   4.578   0.577  0.9862  0.7158  0.8344
  299SOL     vw 1196   1.493   4.603   0.579  0.5957 -0.4992  0.4304
  300SOL     ow 1197   6.087   1.813   4.901  0.6075  0.7282 -0.0907
  300SOL     hw 1198   6.116   1.845   4.986  3.7551  1.8656 -1.4261
  300SOL     hw 1199   6.110   1.720   4.901  2.7598  1.1916 -0.3849
  300SOL     vw 1200   6.094   1.805   4.912  1.3065  0.9394 -0.3059
  301SOL     ow 1201   7.299   4.713   5.112  0.4050  0.7868  0.5273
  301SOL     hw 1202   7.285   4.619   5.101 -1.6289  1.2657 -1.8749
  301SOL     hw 1203   7.211   4.748   5.126  1.1289  2.3776  1.2860
  301SOL     vw 1204   7.285   4.705   5.113  0.2325  1.0598  0.3104
  302SOL     ow 1205   5.140   1.725   0.856 -0.0001 -0.3536  0.0627
  302SOL     hw 1206   5.117   1.638   0.824  0.4527 -0.8266  0.9812
  302SOL     hw 1207   5.068   1.781   0.827  0.2948 -0.7862 -1.5691
  302SOL     vw 1208   5.127   1.721   0.848  0.0982 -0.4730 -0.0314
  303SOL     ow 1209   1.900   5.390   1.290  0.2825  0.4624  0.0796
  303SOL     hw 1210   1.869   5.318   1.235  1.7876  0.9990 -1.5389
  303SOL     hw 1211   1.820   5.438   1.312 -0.3395  0.5273 -2.0900
  303SOL     vw 1212   1.885   5.387   1.286  0.3991  0.5417 -0.4203
  304SOL     ow 1213   3.933   5.518   6.029 -0.0412  0.2349  0.0324
  304SOL     hw 1214   3.855   5.507   5.975  0.7590  0.2558 -1.1582
  304SOL     hw 1215   3.986   5.440   6.011 -0.3467 -0.4592  1.8554
  304SOL     vw 1216   3.930   5.506   6.020  0.0240  0.1464  0.1159
  305SOL     ow 1217   7.402   3.202   1.769 -0.2995  0.2272  0.1651
  305SOL     hw 1218   7.351   3.215   1.689 -0.3639 -0.9436  0.0056
  305SOL     hw 1219   7.486   3.244   1.751 -1.0539  1.9021  0.3142
  305SOL     vw 1220   7.407   3.209   1.756 -0.4075  0.2937  0.1637
  306SOL     ow 1221   2.082   2.053   3.072  0.0909 -0.0446 -0.2129
  306SOL     hw 1222   2.131   2.079   3.150  1.1889  1.7682 -1.4201
  306SOL     hw 1223   2.120   1.969   3.046 -1.5040 -1.5943  2.1286
  306SOL     vw 1224   2.094   2.045   3.078  0.0253 -0.0098 -0.0631
  307SOL     ow 1225   7.569   6.432   6.540 -0.8983  0.1175 -0.1371
  307SOL     hw 1226   7.636   6.489   6.577 -1.0754  0.4222 -0.2818
  307SOL     hw 1227   7.550   6.470   6.454 -1.4566  0.1946  0.0164
  307SOL     vw 1228   7.575   6.445   6.533 -0.9953  0.1678 -0.1359
  308SOL     ow 1229   5.881   2.992   0.012 -0.3540 -0.2988  0.1441
  308SOL     hw 1230   5.923   2.908  -0.006 -0.3761 -0.4510  0.8061
  308SOL     hw 1231   5.910   3.048  -0.060  2.2472  0.0532  1.3497
  308SOL     vw 1232   5.890   2.988  -0.000 -0.0138 -0.2725  0.3905
  309SOL     ow 1233   3.128   3.789   5.432 -0.2160  0.0605 -0.4389
  309SOL     hw 1234   3.113   3.716   5.492  0.1846  1.2487  1.1956
  309SOL     hw 1235   3.198   3.758   5.375 -0.7472 -1.1935 -0.4509
  309SOL     vw 1236   3.135   3.775   5.433 -0.2332  0.0517 -0.2253
  310SOL     ow 1237   6.772   5.289   2.007  0.0264 -0.1961  0.6547
  310SOL     hw 1238   6.820   5.207   2.013  0.6880 -0.0766 -2.0121
  310SOL     hw 1239   6.687   5.265   1.972  0.6050  0.2974 -1.2188
  310SOL     vw 1240   6.767   5.275   2.003  0.1900 -0.1154  0.0556
  311SOL     ow 1241   6.021   2.695   2.266 -0.5571  0.0203 -0.0508
  311SOL     hw 1242   5.980   2.684   2.181 -0.1436  1.6178 -0.4791
  311SOL     hw 1243   6.085   2.624   2.271 -0.9478 -0.3985 -0.8261
  311SOL     vw 1244   6.024   2.684   2.256 -0.5541  0.1758 -0.2096
  312SOL     ow 1245   0.770   2.410   6.584  0.0321  0.6606 -0.3836
  312SOL     hw 1246   0.777   2.473   6.655 -1.3402  2.3349 -1.6374
  312SOL     hw 1247   0.855   2.414   6.540  1.7064 -1.9520  2.2484
  312SOL     vw 1248   0.782   2.419   6.587  0.0719  0.5368 -0.2019
  313SOL     ow 1249   4.900   5.682   4.042 -0.3188  0.3931  0.1465
  313SOL     hw 1250   4.901   5.619   4.114 -1.4864 -0.6631 -0.7196
  313SOL     hw 1251   4.819   5.663   3.994 -1.6581  3.6633  0.8038
  313SOL     vw 1252   4.889   5.671   4.045 -0.6495  0.6850  0.1187
  314SOL     ow 1253   5.963   4.394   4.953 -1.0126  0.2286 -0.0912
  314SOL     hw 1254   5.969   4.435   4.866  1.3506  1.2448  0.4705
  314SOL     hw 1255   5.989   4.464   5.013 -2.9026 -0.3690  1.4946
  314SOL     vw 1256   5.967   4.409   4.949 -0.9501  0.2837  0.1922
  315SOL     ow 1257   3.652   3.515   3.117 -0.7753  0.2836 -0.2259
  315SOL     hw 1258   3.591   3.500   3.045 -0.8299  0.5351 -0.2342
  315SOL     hw 1259   3.673   3.608   3.111  0.8690 -0.1081 -1.2161
  315SOL     vw 1260   3.647   3.526   3.107 -0.5655  0.2650 -0.3575
  316SOL     ow 1261   5.654   2.185   2.748 -0.2154 -0.7280 -0.6879
  316SOL     hw 1262   5.719   2.246   2.715 -0.1899 -0.5824 -0.3686
  316SOL     hw 1263   5.570   2.220   2.716 -0.5684  1.2844  2.0658
  316SOL     vw 1264   5.651   2.198   2.739 -0.2587 -0.4432 -0.2823
  317SOL     ow 1265   5.904   4.332   5.566 -0.2990 -0.3105  0.1975
  317SOL     hw 1266   5.994   4.362   5.555 -0.3539  0.0643  0.7264
  317SOL     hw 1267   5.883   4.351   5.657 -0.4008 -1.7910  0.5113
  317SOL     vw 1268   5.913   4.338   5.576 -0.3197 -0.4566  0.3085
  318SOL     ow 1269   4.622   7.008   4.111  0.0468  0.0375  0.1310
  318SOL     hw 1270   4.583   7.041   4.030 -0.4575 -2.3927 -0.7110
  318SOL     hw 1271   4.699   6.959   4.082 -1.5160 -3.0164  0.7250
  318SOL     vw 1272   4.627   7.006   4.097 -0.2260 -0.6859  0.0980
  319SOL     ow 1273   7.551   5.567   2.789  0.8508 -0.2119  0.0716
  319SOL     hw 1274   7.583   5.643   2.740  0.1555 -1.4402 -2.4255
  319SOL     hw 1275   7.630   5.522   2.819  1.2737  1.1476  1.1232
  319SOL     vw 1276   7.566   5.571   2.786  0.8149 -0.1945 -0.1191
  320SOL     ow 1277   0.776   2.766   2.931  0.8748  0.6817 -0.0002
  320SOL     hw 1278   0.850   2.764   2.992  1.5641  0.9271 -0.8102
  320SOL     hw 1279   0.809   2.811   2.854  1.2033 -2.7401 -2.0798
  320SOL     vw 1280   0.790   2.772   2.929  1.0091  0.2624 -0.3815
  321SOL     ow 1281   7.511   4.157   2.525  0.1942  0.1122 -0.2850
  321SOL     hw 1282   7.478   4.147   2.436  0.1203  1.1395 -0.3832
  321SOL     hw 1283   7.487   4.246   2.550  0.4540 -0.0679  0.6659
  321SOL     vw 1284   7.503   4.167   2.517  0.2186  0.2241 -0.1725
  322SOL     ow 1285   3.316   6.624   6.695 -0.1431  0.8357  0.1353
  322SOL     hw 1286   3.382   6.602   6.628 -0.6395 -0.8656  0.1676
  322SOL     hw 1287   3.367   6.643   6.773  0.3944  1.7979 -0.4217
  322SOL     vw 1288   3.332   6.624   6.696 -0.1377  0.7379  0.0663
  323SOL     ow 1289   1.329   0.655   6.341 -0.9345 -0.1396  0.1567
  323SOL     hw 1290   1.328   0.704   6.258 -1.7726 -0.3739  0.0111
  323SOL     hw 1291   1.237   0.633   6.356 -0.7704 -0.2059  1.0946
  323SOL     vw 1292   1.317   0.658   6.332 -1.0234 -0.1793  0.2613
  324SOL     ow 1293   3.666   0.348   4.417 -0.0624 -0.0393  0.7902
  324SOL     hw 1294   3.588   0.299   4.392  0.2509  0.2061 -0.7562
  324SOL     hw 1295   3.739   0.293   4.388  0.3052  0.7387  0.2052
  324SOL     vw 1296   3.665   0.334   4.410  0.0274  0.0958  0.5090
  325SOL     ow 1297   0.577   1.573   1.356 -0.3402  0.4979  0.1596
  325SOL     hw 1298   0.489   1.540   1.336  0.7318 -2.2960 -0.5008
  325SOL     hw 1299   0.578   1.583   1.451 -0.6496 -2.0742  0.5071
  325SOL     vw 1300   0.565   1.570   1.366 -0.2396 -0.2101  0.1183
  326SOL     ow 1301   3.917   0.723   1.412  0.2912 -0.0957 -0.3429
  326SOL     hw 1302   4.002   0.749   1.446 -0.3161 -2.0242  3.1442
  326SOL     hw 1303   3.934   0.640   1.367  0.3519 -0.2549 -0.0329
  326SOL     vw 1304   3.930   0.715   1.411  0.2191 -0.3712  0.1581
  327SOL     ow 1305   3.775   7.301   4.464 -0.0061  0.5053 -0.1984
  327SOL     hw 1306   3.829   7.222   4.472 -1.3159 -0.4233 -0.0399
  327SOL     hw 1307   3.821   7.356   4.401  1.4735  0.0840  0.4699
  327SOL     vw 1308   3.788   7.298   4.457  0.0163  0.3271 -0.0894
  328SOL     ow 1309   3.315   1.206   1.264  0.0103  0.0664 -0.1262
  328SOL     hw 1310   3.336   1.277   1.203  1.6914 -0.9112 -0.7629
  328SOL     hw 1311   3.367   1.226   1.342  1.7108 -1.1893 -0.8696
  328SOL     vw 1312   3.325   1.218   1.266  0.4565 -0.2283 -0.3082
  329SOL     ow 1313   1.922   7.015   2.383  0.2262  0.0410  0.6699
  329SOL     hw 1314   1.861   6.952   2.423  0.7252 -1.2132 -0.4569
  329SOL     hw 1315   1.994   7.021   2.446 -1.0300  1.5917  2.0508
  329SOL     vw 1316   1.923   7.007   2.397  0.1263  0.0803  0.7035
  330SOL     ow 1317   0.996   3.858   7.237  0.0146  0.2627 -0.1228
  330SOL     hw 1318   0.962   3.819   7.317 -0.4568 -2.2963 -1.4822
  330SOL     hw 1319   1.074   3.807   7.216 -0.2551  0.4428 -1.6513
  330SOL     vw 1320   1.002   3.846   7.245 -0.0832 -0.0513 -0.5038
  331SOL     ow 1321   2.054   5.840   5.549 -0.6169 -0.7321 -0.2483
  331SOL     hw 1322   2.055   5.884   5.464 -0.0950  1.6740  0.9378
  331SOL     hw 1323   1.968   5.798   5.553 -1.5549  0.9890 -1.0909
  331SOL     vw 1324   2.042   5.840   5.538 -0.6717 -0.1879 -0.2029
  332SOL     ow 1325   6.426   2.098   1.236  0.2920  0.4277  0.4598
  332SOL     hw 1326   6.336   2.064   1.233 -0.4384  2.1224  1.3702
  332SOL     hw 1327   6.436   2.145   1.154 -0.3939  1.8429  1.1384
  332SOL     vw 1328   6.415   2.100   1.225  0.1051  0.8379  0.6695
  333SOL     ow 1329   4.588   4.791   4.839 -0.2298  0.3569 -0.1659
  333SOL     hw 1330   4.597   4.737   4.917 -0.8254 -1.2249 -1.1390
  333SOL     hw 1331   4.626   4.875   4.863  0.7904 -0.5045  1.4008
  333SOL     vw 1332   4.594   4.795   4.852 -0.1736  0.0346 -0.0875
  334SOL     ow 1333   3.640   3.176   4.557 -0.0020  0.4594 -0.2098
  334SOL     hw 1334   3.736   3.178   4.559  0.0383  0.6805  2.7102
  334SOL     hw 1335   3.618   3.128   4.477  2.5016  0.8945 -1.2466
  334SOL     vw 1336   3.650   3.170   4.547  0.3335  0.5460  0.0386
  335SOL     ow 1337   1.752   1.305   3.637  0.1357 -0.3674  1.0193
  335SOL     hw 1338   1.772   1.291   3.544 -1.2223  3.9505 -0.1569
  335SOL     hw 1339   1.837   1.328   3.675  0.1393  2.1720 -0.2918
  335SOL     vw 1340   1.766   1.306   3.629 -0.0430  0.5373  0.6912
  336SOL     ow 1341   4.292   2.996   6.995 -0.2487 -0.1122 -0.0211
  336SOL     hw 1342   4.366   3.014   6.937  0.8882  0.3200  1.5045
  336SOL     hw 1343   4.245   3.079   7.001  1.1485  0.6227  1.6937
  336SOL     vw 1344   4.296   3.009   6.988  0.0856  0.0418  0.4065
  337SOL     ow 1345   6.685   1.844   5.805  0.3846 -0.2572  0.3722
  337SOL     hw 1346   6.632   1.780   5.758 -0.2260  0.1773  0.4467
  337SOL     hw 1347   6.764   1.797   5.830  1.5662 -0.0604 -2.5833
  337SOL     vw 1348   6.688   1.829   5.802  0.4601 -0.1739 -0.0079
  338SOL     ow 1349   5.301   3.235   3.681 -0.2755 -0.1627  0.3102
  338SOL     hw 1350   5.272   3.181   3.607 -0.6644  1.0714 -0.4526
  338SOL     hw 1351   5.224   3.244   3.737 -0.0913 -0.7452  0.6742
  338SOL     vw 1352   5.287   3.229   3.679 -0.3026 -0.0768  0.2577
  339SOL     ow 1353   6.848   0.594   5.758 -0.5560  0.4012  1.0283
  339SOL     hw 1354   6.896   0.560   5.834  1.8079  1.1636 -0.0170
  339SOL     hw 1355   6.880   0.684   5.748 -1.9483  0.8218 -0.0052
  339SOL     vw 1356   6.859   0.601   5.767 -0.4280  0.5573  0.7539
  340SOL     ow 1357   6.661   2.980   4.854 -0.6177  0.2883 -0.2732
  340SOL     hw 1358   6.574   3.006   4.882 -1.1910  0.6196 -2.2155
  340SOL     hw 1359   6.649   2.892   4.818 -0.2108  0.4579 -0.8284
  340SOL     vw 1360   6.648   2.972   4.853 -0.6397  0.3543 -0.6027
  341SOL     ow 1361   2.419   2.156   0.308  0.1164 -0.7813  0.3551
  341SOL     hw 1362   2.389   2.066   0.322  0.1796 -0.7927  0.4209
  341SOL     hw 1363   2.342   2.203   0.278 -0.2231 -0.5807  1.4866
  341SOL     vw 1364   2.405   2.150   0.306  0.0799 -0.7564  0.5131
  342SOL     ow 1365   6.553   3.787   5.303  0.1322  0.3692 -0.0195
  342SOL     hw 1366   6.643   3.763   5.283 -0.0501 -0.3700  0.0437
  342SOL     hw 1367   6.533   3.743   5.385 -0.1780  0.8080  0.1491
  342SOL     vw 1368   6.562   3.778   5.311  0.0670  0.3296  0.0110
  343SOL     ow 1369   7.307   5.481   2.693  0.3031 -0.7065  1.0689
  343SOL     hw 1370   7.366   5.469   2.619  0.9155  1.0645  1.2226
  343SOL     hw 1371   7.221   5.496   2.653  0.3244 -1.3180  0.7817
  343SOL     vw 1372   7.303   5.482   2.678  0.3865 -0.5534  1.0513
  344SOL     ow 1373   4.681   6.466   1.556  0.0273 -0.0764  0.0830
  344SOL     hw 1374   4.606   6.415   1.525 -1.1867  0.8704  1.3275
  344SOL     hw 1375   4.720   6.502   1.477 -3.2069  2.6204 -0.4710
  344SOL     vw 1376   4.676   6.464   1.542 -0.5596  0.4044  0.1741
  345SOL     ow 1377   7.555   2.810   0.257 -0.1670  0.0456  0.0679
  345SOL     hw 1378   7.560   2.808   0.353 -2.2074  2.3696  0.3229
  345SOL     hw 1379   7.508   2.729   0.234  0.5110 -0.6286  0.9984
  345SOL     vw 1380   7.549   2.799   0.267 -0.3471  0.2632  0.2243
  346SOL     ow 1381   3.851   7.364   5.801  0.5770  0.4408 -0.1453
  346SOL     hw 1382   3.801   7.347   5.881 -2.1066 -1.4563 -2.0280
  346SOL     hw 1383   3.926   7.305   5.806 -0.1311 -0.4203  0.5225
  346SOL     vw 1384   3.854   7.354   5.812  0.1295  0.0765 -0.3057
  347SOL     ow 1385   0.524   1.301   2.138 -0.3527 -1.0086 -0.2410
  347SOL     hw 1386   0.617   1.318   2.151 -0.5843  1.4282 -1.2321
  347SOL     hw 1387   0.510   1.312   2.044 -1.5862 -1.6010 -0.1427
  347SOL     vw 1388   0.534   1.305   2.128 -0.5460 -0.7652 -0.3587
  348SOL     ow 1389   7.164   0.256   2.344 -0.1210  0.0364 -0.0696
  348SOL     hw 1390   7.245   0.241   2.295  0.5841  0.0975  1.0598
  348SOL     hw 1391   7.126   0.335   2.305  0.1993 -0.1633 -0.7994
  348SOL     vw 1392   7.170   0.264   2.332  0.0141  0.0181 -0.0169
  349SOL     ow 1393   1.661   4.528   6.408  0.7147 -0.3986  0.0487
  349SOL     hw 1394   1.685   4.521   6.500  0.7114 -1.2343 -0.0055
  349SOL     hw 1395   1.571   4.497   6.404 -0.2259  2.0847  0.1479
  349SOL     vw 1396   1.653   4.523   6.419  0.5901 -0.1812  0.0546
  350SOL     ow 1397   3.642   7.071   0.479 -0.0517  0.2958  0.4485
  350SOL     hw 1398   3.617   7.049   0.569  1.5506 -0.3494  0.7689
  350SOL     hw 1399   3.685   6.992   0.446 -0.1292  0.7129 -0.7175
  350SOL     vw 1400   3.644   7.058   0.486  0.1494  0.2658  0.3369
  351SOL     ow 1401   2.565   5.658   2.158 -0.1042 -0.0769 -0.3964
  351SOL     hw 1402   2.650   5.636   2.118  0.2256  1.5353 -0.6635
  351SOL     hw 1403   2.546   5.585   2.216  1.1037 -0.8355 -0.9159
  351SOL     vw 1404   2.574   5.645   2.160  0.0987  0.0360 -0.5002
  352SOL     ow 1405   4.513   1.624   0.168 -0.1798 -0.4528  0.5941
  352SOL     hw 1406   4.532   1.531   0.169  0.0724 -0.4475 -0.8073
  352SOL     hw 1407   4.459   1.639   0.245  0.8974 -1.4956  1.5838
  352SOL     vw 1408   4.508   1.614   0.178 -0.0041 -0.5897  0.5398
  353SOL     ow 1409   7.408   5.970   5.020  0.3214 -0.5619 -0.3084
  353SOL     hw 1410   7.396   6.008   4.933 -1.3424  0.3789  0.2843
  353SOL     hw 1411   7.424   5.877   5.004  1.2202 -0.2004 -1.6496
  353SOL     vw 1412   7.409   5.963   5.007  0.2205 -0.3898 -0.4072
  354SOL     ow 1413   0.837   6.429   1.674  0.0778  0.4389 -0.0148
  354SOL     hw 1414   0.855   6.343   1.635  0.4881  1.2135 -1.6087
  354SOL     hw 1415   0.923   6.468   1.687 -0.1001  2.0647 -2.8211
  354SOL     vw 1416   0.850   6.423   1.670  0.1085  0.7555 -0.5953
  355SOL     ow 1417   0.812   4.968   4.754 -0.0254  0.5535 -0.2594
  355SOL     hw 1418   0.784   4.960   4.845  0.3159  0.4443 -0.1635
  355SOL     hw 1419   0.818   4.877   4.722  0.3032  0.5731 -0.2535
  355SOL     vw 1420   0.809   4.955   4.762  0.0630  0.5417 -0.2460
  356SOL     ow 1421   1.840   4.064   2.932 -0.6201 -0.5683 -0.0395
  356SOL     hw 1422   1.766   4.003   2.924  1.9441 -3.8896 -0.3919
  356SOL     hw 1423   1.909   4.025   2.878  3.0514 -0.4690  4.0543
  356SOL     vw 1424   1.839   4.050   2.924  0.2026 -0.9933  0.4542
  357SOL     ow 1425   7.517   5.675   0.944  0.3931 -0.3261  0.5282
  357SOL     hw 1426   7.574   5.657   0.869 -0.0599 -0.5819  0.2379
  357SOL     hw 1427   7.576   5.679   1.019  0.6870 -1.6548  0.3984
  357SOL     vw 1428   7.532   5.673   0.944  0.3722 -0.5352  0.4728
  358SOL     ow 1429   3.362   0.886   3.412  0.5787 -0.6549  0.0090
  358SOL     hw 1430   3.455   0.863   3.413  1.0986  1.2318  1.2941
  358SOL     hw 1431   3.338   0.885   3.319  1.8423 -1.3223 -0.3238
  358SOL     vw 1432   3.371   0.883   3.400  0.8141 -0.4940  0.1345
  359SOL     ow 1433   6.568   2.915   5.147 -0.2097  0.4748  0.6657
  359SOL     hw 1434   6.654   2.876   5.159  0.2952  1.1520 -0.6002
  359SOL     hw 1435   6.555   2.970   5.224 -0.2826 -0.9520  1.7185
  359SOL     vw 1436   6.577   2.917   5.158 -0.1528  0.3761  0.6378
  360SOL     ow 1437   0.105   5.775   5.914 -0.1571 -0.7931  0.0477
  360SOL     hw 1438   0.059   5.719   5.852 -0.7904  0.1942 -0.3902
  360SOL     hw 1439   0.194   5.781   5.879 -1.1796  2.1102 -2.5211
  360SOL     vw 1440   0.111   5.768   5.901 -0.3756 -0.2799 -0.3493
  361SOL     ow 1441   3.806   7.250   3.942  0.3649  0.0695 -0.3294
  361SOL     hw 1442   3.749   7.212   3.876  0.2050  0.2708 -0.3089
  361SOL     hw 1443   3.857   7.176   3.976  1.1231  0.1052 -1.3371
  361SOL     vw 1444   3.805   7.236   3.938  0.4438  0.1004 -0.4596
  362SOL     ow 1445   3.793   5.244   4.201 -0.7104  0.3819  0.5156
  362SOL     hw 1446   3.808   5.285   4.115 -2.1348  1.4110  0.7227
  362SOL     hw 1447   3.822   5.154   4.190  2.9276  1.4573  0.1443
  362SOL     vw 1448   3.799   5.238   4.188 -0.4184  0.6595  0.4938
  363SOL     ow 1449   5.689   1.393   2.181 -0.0992  0.3210 -0.4053
  363SOL     hw 1450   5.774   1.392   2.225  0.3470 -0.3118 -1.2449
  363SOL     hw 1451   5.625   1.386   2.251  0.5444  0.7971  0.2370
  363SOL     vw 1452   5.692   1.392   2.196  0.0448  0.3003 -0.4313
  364SOL     ow 1453   5.885   2.941   0.331 -0.1004  0.4516 -0.5853
  364SOL     hw 1454   5.838   2.858   0.340 -0.4203  0.6936 -0.0106
  364SOL     hw 1455   5.963   2.930   0.385 -0.3199  0.6550 -0.2267
  364SOL     vw 1456   5.889   2.929   0.339 -0.1717  0.5103 -0.4621
  365SOL     ow 1457   4.576   6.004   4.554  0.6026 -0.3422 -0.6368
  365SOL     hw 1458   4.662   6.046   4.550 -0.5786  2.3191 -0.5681
  365SOL     hw 1459   4.531   6.036   4.476 -1.3743  1.0446  0.9538
  365SOL     vw 1460   4.581   6.014   4.543  0.1862  0.1917 -0.4177
  366SOL     ow 1461   1.646   4.747   2.659  0.1138  0.1242 -0.1921
  366SOL     hw 1462   1.582   4.805   2.618 -0.0749  0.6596  0.8385
  366SOL     hw 1463   1.657   4.676   2.595  1.0998  1.7475 -1.9372
  366SOL     vw 1464   1.639   4.745   2.645  0.2190  0.4089 -0.2863
  367SOL     ow 1465   1.586   4.116   5.429  0.0110 -0.2968 -0.0013
  367SOL     hw 1466   1.592   4.176   5.503  0.0534 -0.8835  0.4695
  367SOL     hw 1467   1.498   4.080   5.435  0.1720 -0.6849  0.0236
  367SOL     vw 1468   1.575   4.119   5.439  0.0379 -0.4258  0.0641
  368SOL     ow 1469   3.478   0.126   7.340 -0.0966 -0.1605  0.3691
  368SOL     hw 1470   3.505   0.108   7.250 -0.8029  0.3668  0.0333
  368SOL     hw 1471   3.519   0.057   7.392 -1.9437 -2.2233 -0.7232
  368SOL     vw 1472   3.487   0.114   7.335 -0.4336 -0.3631  0.1807
  369SOL     ow 1473   6.648   0.648   1.017  0.1744 -0.3799 -0.5210
  369SOL     hw 1474   6.672   0.592   0.944  1.1736 -0.2350 -0.3145
  369SOL     hw 1475   6.730   0.663   1.064  0.3459  2.7193 -1.5521
  369SOL     vw 1476   6.662   0.643   1.014  0.3288  0.0481 -0.6298
  370SOL     ow 1477   5.738   7.221   7.278  0.4532 -0.0571 -0.1590
  370SOL     hw 1478   5.746   7.296   7.219 -1.2670 -0.4355 -0.9273
  370SOL     hw 1479   5.644   7.204   7.282  0.7472 -1.6048  0.7336
  370SOL     vw 1480   5.727   7.229   7.270  0.2651 -0.3111 -0.1426
  371SOL     ow 1481   5.190   0.494   0.150 -0.3046  0.1445  0.0808
  371SOL     hw 1482   5.125   0.499   0.220 -0.2700 -0.9551  0.1965
  371SOL     hw 1483   5.205   0.586   0.126 -0.5237  0.5223  1.3087
  371SOL     vw 1484   5.183   0.507   0.156 -0.3293  0.0492  0.2581
  372SOL     ow 1485   3.117   2.602   1.255 -0.1753  0.2009 -0.5563
  372SOL     hw 1486   3.201   2.557   1.260 -0.8695 -1.1793 -0.8728
  372SOL     hw 1487   3.130   2.682   1.305  0.9455 -0.5952  0.4789
  372SOL     vw 1488   3.130   2.607   1.262 -0.1192 -0.0862 -0.4615
  373SOL     ow 1489   3.367   0.403   7.127 -0.1595  1.0762 -0.0326
  373SOL     hw 1490   3.341   0.448   7.047 -0.8627  0.4887 -0.1487
  373SOL     hw 1491   3.427   0.335   7.099 -2.0386 -0.5433 -0.3930
  373SOL     vw 1492   3.371   0.400   7.113 -0.5002  0.7850 -0.0954
  374SOL     ow 1493   1.359   0.982   6.690  0.5701  0.0467  0.0824
  374SOL     hw 1494   1.281   1.023   6.652  0.0087 -1.9548 -1.1099
  374SOL     hw 1495   1.431   1.042   6.669 -0.3176  0.7906 -0.9209
  374SOL     vw 1496   1.358   0.995   6.682  0.3789 -0.1192 -0.2072
  375SOL     ow 1497   4.379   1.991   0.764  0.3709  0.7145 -0.0731
  375SOL     hw 1498   4.313   1.990   0.694  1.9125  0.6090 -1.5900
  375SOL     hw 1499   4.369   1.906   0.807 -0.7414  0.8683  0.0132
  375SOL     vw 1500   4.369   1.980   0.761  0.4275  0.7209 -0.2618
  376SOL     ow 1501   2.235   0.875   4.704 -0.1906 -0.0321  0.3605
  376SOL     hw 1502   2.233   0.952   4.762 -1.2734  0.6335 -0.5228
  376SOL     hw 1503   2.277   0.907   4.624  1.2692 -0.9385  0.7407
  376SOL     vw 1504   2.240   0.890   4.701 -0.1407 -0.0639  0.2940
  377SOL     ow 1505   1.732   1.260   4.623 -0.0381 -0.8691  0.2258
  377SOL     hw 1506   1.821   1.241   4.655 -0.3066 -1.3201  0.7188
  377SOL     hw 1507   1.675   1.237   4.696 -0.5287 -0.0448  0.1120
  377SOL     vw 1508   1.737   1.255   4.637 -0.1382 -0.8198  0.2759
  378SOL     ow 1509   6.260   6.438   5.023  0.1058 -0.3471  0.0420
  378SOL     hw 1510   6.226   6.500   4.958  1.6109  1.8132  1.1908
  378SOL     hw 1511   6.356   6.446   5.015  0.3921 -2.9820 -0.1131
  378SOL     vw 1512   6.268   6.447   5.013  0.3424 -0.4096  0.1733
  379SOL     ow 1513   2.031   3.264   1.187  0.3153 -0.3573  0.2489
  379SOL     hw 1514   2.098   3.268   1.119 -1.9329  0.8008 -2.0990
  379SOL     hw 1515   2.041   3.346   1.235 -1.0439  1.1825 -1.9106
  379SOL     vw 1516   2.041   3.275   1.185 -0.1607 -0.0013 -0.3458
  380SOL     ow 1517   7.544   5.927   6.750 -0.3995 -0.1877  0.6470
  380SOL     hw 1518   7.458   5.889   6.766 -1.1851  0.7985 -0.9433
  380SOL     hw 1519   7.593   5.860   6.703 -0.7747 -0.2595  0.3629
  380SOL     vw 1520   7.539   5.913   6.746 -0.5527 -0.0668  0.4001
  381SOL     ow 1521   4.216   4.495   2.488 -0.4508 -0.7967  0.1303
  381SOL     hw 1522   4.133   4.542   2.490  0.1508  0.4051 -1.3769
  381SOL     hw 1523   4.281   4.561   2.462  0.8898 -1.8397  0.6801
  381SOL     vw 1524   4.214   4.510   2.485 -0.1945 -0.7761  0.0041
  382SOL     ow 1525   1.390   3.337   1.144  0.2435 -0.0792  0.3731
  382SOL     hw 1526   1.397   3.267   1.209 -0.2805  0.9721  1.6122
  382SOL     hw 1527   1.466   3.393   1.161  0.6821 -0.3571 -0.6369
  382SOL     vw 1528   1.401   3.335   1.155  0.2322  0.0229  0.4033
  383SOL     ow 1529   0.478   4.573   7.166  0.7935 -0.4952  0.3665
  383SOL     hw 1530   0.425   4.525   7.101  0.7547 -2.6533  1.8674
  383SOL     hw 1531   0.417   4.634   7.206 -0.0041 -1.3642  0.5134
  383SOL     vw 1532   0.463   4.574   7.162  0.6831 -0.8945  0.5839
  384SOL     ow 1533   2.830   2.947   1.115 -0.2712  0.4117 -0.3322
  384SOL     hw 1534   2.909   3.001   1.110 -0.9809  1.7049  1.3612
  384SOL     hw 1535   2.860   2.859   1.094  1.1678  1.2197 -1.9751
  384SOL     vw 1536   2.844   2.943   1.111 -0.1750  0.6888 -0.3256
  385SOL     ow 1537   4.288   1.411   3.921  0.7360 -0.2366  0.3575
  385SOL     hw 1538   4.310   1.503   3.905 -1.7959  0.5757  1.0635
  385SOL     hw 1539   4.286   1.403   4.016 -0.1297 -0.6889  0.3165
  385SOL     vw 1540   4.290   1.422   3.931  0.2875 -0.1890  0.4455
  386SOL     ow 1541   0.710   5.956   2.217  0.7015 -0.1247  0.0547
  386SOL     hw 1542   0.739   5.942   2.306  0.1347  0.6612  0.3805
  386SOL     hw 1543   0.616   5.976   2.225  0.6534  0.0018 -0.6992
  386SOL     vw 1544   0.701   5.957   2.229  0.6204 -0.0043 -0.0018
  387SOL     ow 1545   0.672   6.687   3.936 -0.3975 -0.0595 -0.1208
  387SOL     hw 1546   0.723   6.725   4.008  1.0349  0.2172 -1.2343
  387SOL     hw 1547   0.662   6.595   3.960 -1.1261  0.2970  1.0650
  387SOL     vw 1548   0.677   6.680   3.949 -0.3047  0.0238 -0.1112
  388SOL     ow 1549   0.161   0.666   5.312 -0.3726  0.1106 -0.4783
  388SOL     hw 1550   0.073   0.642   5.340 -0.7267 -0.7245 -2.1649
  388SOL     hw 1551   0.155   0.674   5.217  1.3775 -0.0252 -0.6437
  388SOL     vw 1552   0.149   0.664   5.303 -0.1884 -0.0175 -0.7224
  389SOL     ow 1553   5.908   3.502   5.283  0.1018  0.5151  0.1335
  389SOL     hw 1554   5.848   3.491   5.209  1.6669 -1.7138 -0.9247
  389SOL     hw 1555   5.956   3.583   5.263  0.4007  0.0267 -1.2597
  389SOL     vw 1556   5.907   3.511   5.270  0.3479  0.1565 -0.1900
  390SOL     ow 1557   3.950   3.089   3.361 -0.2820 -0.3404 -0.2488
  390SOL     hw 1558   4.014   3.152   3.393 -2.4519  0.4566  3.0688
  390SOL     hw 1559   3.955   3.016   3.423 -0.0441 -2.0182 -2.1545
  390SOL     vw 1560   3.959   3.088   3.374 -0.5369 -0.4566 -0.0625
  391SOL     ow 1561   3.205   2.529   5.686 -0.3622 -0.0965 -0.1857
  391SOL     hw 1562   3.170   2.586   5.618 -0.8362  0.6592  0.6785
  391SOL     hw 1563   3.173   2.566   5.768  0.6641 -0.6625  0.4986
  391SOL     vw 1564   3.196   2.541   5.688 -0.2893 -0.0714  0.0188
  392SOL     ow 1565   6.052   3.883   5.219  0.2111 -0.1161  0.0480
  392SOL     hw 1566   5.988   3.932   5.168  0.6680  0.4590  0.0250
  392SOL     hw 1567   6.051   3.795   5.180  0.0167  0.1116 -0.4722
  392SOL     vw 1568   6.044   3.878   5.207  0.2456 -0.0103 -0.0234
  393SOL     ow 1569   6.121   4.091   2.207  0.3942  0.1607 -0.8584
  393SOL     hw 1570   6.091   4.003   2.232  0.8713  0.3175  0.3762
  393SOL     hw 1571   6.125   4.089   2.112  0.0762 -1.0518 -0.8690
  393SOL     vw 1572   6.118   4.079   2.198  0.4151  0.0212 -0.6969
  394SOL     ow 1573   2.713   1.334   2.019 -0.1344  0.3038 -0.0850
  394SOL     hw 1574   2.802   1.297   2.017 -0.1853  0.2101 -0.6495
  394SOL     hw 1575   2.699   1.357   2.111  0.3219 -0.0548  0.0772
  394SOL     vw 1576   2.723   1.332   2.031 -0.0809  0.2441 -0.1382
  395SOL     ow 1577   4.247   7.256   6.900  0.0805  0.1997  0.3444
  395SOL     hw 1578   4.190   7.329   6.923 -1.7241 -1.2058  0.5727
  395SOL     hw 1579   4.193   7.198   6.847  1.0637 -1.5433  1.1199
  395SOL     vw 1580   4.233   7.258   6.896 -0.0281 -0.2158  0.4768
  396SOL     ow 1581   2.930   4.406   7.362 -0.2264 -0.5409  0.3628
  396SOL     hw 1582   2.919   4.501   7.371 -1.1703 -0.2446 -2.5512
  396SOL     hw 1583   3.022   4.395   7.338 -0.1483 -0.3192  0.5590
  396SOL     vw 1584   2.941   4.417   7.360 -0.3407 -0.4728  0.0043
  397SOL     ow 1585   3.539   4.245   4.929 -0.1823 -0.1207  0.6482
  397SOL     hw 1586   3.568   4.154   4.924  0.1978 -0.0211  0.9687
  397SOL     hw 1587   3.614   4.292   4.965 -0.4115  0.3025  0.5795
  397SOL     vw 1588   3.552   4.239   4.933 -0.1625 -0.0515  0.6814
  398SOL     ow 1589   5.664   3.054   5.535 -0.0108  0.4920  0.1673
  398SOL     hw 1590   5.704   2.967   5.533  2.7240  1.6603 -0.1857
  398SOL     hw 1591   5.617   3.056   5.618  1.7850 -0.5763  1.2981
  398SOL     vw 1592   5.663   3.043   5.546  0.5870  0.5052  0.2699
  399SOL     ow 1593   6.942   2.825   7.172 -0.6421 -0.6366 -0.7674
  399SOL     hw 1594   6.955   2.813   7.266 -0.0848 -1.4559 -0.9327
  399SOL     hw 1595   6.953   2.737   7.136 -1.3957 -0.4217 -1.5417
  399SOL     vw 1596   6.945   2.812   7.180 -0.6680 -0.7163 -0.8912
  400SOL     ow 1597   2.292   2.462   5.380 -0.3190 -0.0880  0.3741
  400SOL     hw 1598   2.264   2.455   5.471  0.8714  1.1101  0.8689
  400SOL     hw 1599   2.374   2.512   5.384  0.1292 -0.6278 -1.2873
  400SOL     vw 1600   2.299   2.468   5.393 -0.1029 -0.0012  0.2203
  401SOL     ow 1601   7.516   6.630   7.083 -0.4046  0.3807  0.1106
  401SOL     hw 1602   7.425   6.651   7.065 -0.1311  2.2322  0.6975
  401SOL     hw 1603   7.512   6.546   7.130 -1.7273  0.1054 -0.4449
  401SOL     vw 1604   7.504   6.621   7.087 -0.5431  0.5889  0.1149
  402SOL     ow 1605   1.023   6.415   2.200  0.3098  0.5174  0.5802
  402SOL     hw 1606   1.054   6.492   2.248  3.2071 -1.4648  2.2293
  402SOL     hw 1607   1.097   6.390   2.145  0.3179 -2.1731  1.6422
  402SOL     vw 1608   1.037   6.422   2.199  0.6931 -0.0992  0.9377
  403SOL     ow 1609   1.831   4.568   5.824  0.1451 -0.2166 -0.2301
  403SOL     hw 1610   1.909   4.613   5.795  0.0551 -0.6318 -1.1554
  403SOL     hw 1611   1.789   4.628   5.885 -0.1931  1.1314 -1.7433
  403SOL     vw 1612   1.836   4.582   5.828  0.0885 -0.0935 -0.5519
  404SOL     ow 1613   0.911   2.076   2.647  0.0991 -0.3896  0.2332
  404SOL     hw 1614   0.951   2.158   2.619  1.2357 -0.2328  2.1541
  404SOL     hw 1615   0.974   2.009   2.622  0.0860 -0.4630  0.3935
  404SOL     vw 1616   0.925   2.078   2.640  0.2474 -0.3785  0.5077
  405SOL     ow 1617   2.442   3.470   2.739  0.5960  0.6921  0.0327
  405SOL     hw 1618   2.431   3.529   2.814 -0.3894  0.9999 -0.3251
  405SOL     hw 1619   2.400   3.388   2.767 -0.6929  1.1286 -0.5118
  405SOL     vw 1620   2.435   3.467   2.752  0.2960  0.7904 -0.0864
  406SOL     ow 1621   3.975   3.396   7.407  0.0880 -0.4956  0.5190
  406SOL     hw 1622   3.885   3.402   7.439  0.5988 -0.3508  2.0286
  406SOL     hw 1623   3.966   3.378   7.313 -1.5156  2.4097 -0.0059
  406SOL     vw 1624   3.962   3.394   7.399 -0.0561 -0.0932  0.6490
  407SOL     ow 1625   7.511   3.352   6.021  0.3159 -0.2660  0.2356
  407SOL     hw 1626   7.463   3.333   5.940 -4.9211  1.9082  2.4319
  407SOL     hw 1627   7.531   3.445   6.015  1.6341 -0.4937  0.7518
  407SOL     vw 1628   7.507   3.361   6.009 -0.2010 -0.0093  0.5932
  408SOL     ow 1629   7.159   1.037   6.117 -0.5533 -0.0290  0.5183
  408SOL     hw 1630   7.201   0.968   6.168 -1.6610 -1.5806 -0.5863
  408SOL     hw 1631   7.148   1.109   6.179  3.0873  0.2845  1.0432
  408SOL     vw 1632   7.163   1.038   6.131 -0.2193 -0.1923  0.4420
  409SOL     ow 1633   3.375   4.038   6.394  0.0826 -0.5394 -0.2181
  409SOL     hw 1634   3.305   4.076   6.340 -0.7268 -1.0169  0.4843
  409SOL     hw 1635   3.330   3.989   6.462  1.0963 -0.2749  0.6795
  409SOL     vw 1636   3.360   4.036   6.396  0.1097 -0.5677 -0.0069
  410SOL     ow 1637   0.809   1.577   4.709  0.2418  0.0716 -0.0641
  410SOL     hw 1638   0.811   1.656   4.762 -3.7180  0.1338  0.3540
  410SOL     hw 1639   0.863   1.514   4.756 -0.8021  0.9970  2.5684
  410SOL     vw 1640   0.816   1.579   4.722 -0.4184  0.2019  0.3381
  411SOL     ow 1641   6.150   6.322   4.170  0.0238  0.4893 -0.4953
  411SOL     hw 1642   6.097   6.335   4.249  0.8077  2.1755 -0.2199
  411SOL     hw 1643   6.111   6.244   4.129 -0.5562 -0.2963  1.3979
  411SOL     vw 1644   6.138   6.313   4.175  0.0505  0.6082 -0.2093
  412SOL     ow 1645   2.751   1.030   6.714  0.0845  0.0957 -0.5713
  412SOL     hw 1646   2.698   1.045   6.792  1.5421  2.0424  0.1308
  412SOL     hw 1647   2.820   0.970   6.742 -0.3054 -0.4730 -0.8136
  412SOL     vw 1648   2.753   1.024   6.728  0.2254  0.2776 -0.5107
  413SOL     ow 1649   1.224   1.298   4.521 -0.3167 -0.3024  0.0080
  413SOL     hw 1650   1.284   1.246   4.469  0.2708  2.3713 -2.2058
  413SOL     hw 1651   1.258   1.292   4.611  1.1149 -1.7052 -0.5842
  413SOL     vw 1652   1.236   1.291   4.526 -0.0503 -0.1348 -0.3619
  414SOL     ow 1653   6.391   0.432   2.502  0.3488  0.3967 -0.1148
  414SOL     hw 1654   6.390   0.461   2.410 -1.5743  3.2466  0.6726
  414SOL     hw 1655   6.320   0.367   2.507  2.1695 -1.8071 -1.0927
  414SOL     vw 1656   6.381   0.427   2.490  0.3355  0.4820 -0.1401
  415SOL     ow 1657   3.477   4.910   1.166 -0.3017  0.2749  0.6302
  415SOL     hw 1658   3.404   4.920   1.227  0.6427  1.7754  1.5878
  415SOL     hw 1659   3.495   4.998   1.135 -0.6277 -0.4304 -1.7462
  415SOL     vw 1660   3.470   4.923   1.170 -0.2201  0.3800  0.4429
  416SOL     ow 1661   4.242   7.116   2.961 -0.1375  0.4124  0.0939
  416SOL     hw 1662   4.151   7.123   2.930 -0.1758  0.7506  0.2783
  416SOL     hw 1663   4.237   7.056   3.036 -0.2962  0.8510  0.4400
  416SOL     vw 1664   4.229   7.109   2.967 -0.1638  0.5150  0.1639
  417SOL     ow 1665   0.214   0.136   4.765  0.3511 -0.1832  0.1045
  417SOL     hw 1666   0.225   0.126   4.859  3.2755  0.2424 -0.0813
  417SOL     hw 1667   0.202   0.047   4.732  0.7021 -0.4785  0.7686
  417SOL     vw 1668   0.214   0.123   4.773  0.7832 -0.1660  0.1676
  418SOL     ow 1669   0.345   3.928   3.189 -0.4112  0.1229 -0.0547
  418SOL     hw 1670   0.354   4.022   3.178 -0.2534  0.1248  0.0877
  418SOL     hw 1671   0.265   3.905   3.141 -0.9798  0.4710  0.6994
  418SOL     vw 1672   0.335   3.937   3.181 -0.4654  0.1689  0.0635
  419SOL     ow 1673   5.753   7.378   4.676 -0.3421  0.3170  0.0743
  419SOL     hw 1674   5.710   7.403   4.594 -3.1917 -0.6506  1.1271
  419SOL     hw 1675   5.704   7.424   4.744  3.2212  2.7158  1.2686
  419SOL     vw 1676   5.741   7.387   4.674 -0.2477  0.5057  0.3710
  420SOL     ow 1677   3.555   0.739   1.136  0.1573  0.1350 -0.5796
  420SOL     hw 1678   3.587   0.704   1.053  1.1397  2.0491 -1.0719
  420SOL     hw 1679   3.460   0.741   1.126  0.2311 -0.2091 -1.4297
  420SOL     vw 1680   3.547   0.735   1.124  0.2967  0.3422 -0.7567
  421SOL     ow 1681   1.669   4.804   5.539  0.0547  0.2150 -0.6421
  421SOL     hw 1682   1.761   4.827   5.552  0.4001 -0.7954 -1.1887
  421SOL     hw 1683   1.623   4.845   5.612  0.8898  0.9989 -0.5389
  421SOL     vw 1684   1.675   4.812   5.550  0.2105  0.1850 -0.7005
  422SOL     ow 1685   2.824   3.646   1.060  0.0946 -0.5664 -0.3290
  422SOL     hw 1686   2.870   3.574   1.017  0.1460 -1.5914  1.3905
  422SOL     hw 1687   2.737   3.646   1.020 -0.0975 -1.9553  0.0513
  422SOL     vw 1688   2.819   3.637   1.049  0.0759 -0.8849 -0.0520
  423SOL     ow 1689   2.795   5.392   2.148  0.0349  0.1853 -0.6141
  423SOL     hw 1690   2.770   5.386   2.240  1.6149  3.6727  0.2257
  423SOL     hw 1691   2.891   5.396   2.150  0.0732  1.0731 -2.3297
  423SOL     vw 1692   2.805   5.392   2.160  0.2483  0.7625 -0.7297
  424SOL     ow 1693   3.659   7.445   6.390 -0.2419 -0.0192 -0.0301
  424SOL     hw 1694   3.703   7.527   6.412  0.0387 -0.4380  1.0118
  424SOL     hw 1695   3.726   7.392   6.348  0.1341 -0.4627  1.0968
  424SOL     vw 1696   3.674   7.449   6.387 -0.1552 -0.1328  0.2561
  425SOL     ow 1697   1.586   6.130   0.388 -0.4661 -0.6651 -0.1439
  425SOL     hw 1698   1.609   6.043   0.420  2.6155  0.1787  0.2556
  425SOL     hw 1699   1.626   6.136   0.302  1.1701  0.9835  0.6582
  425SOL     vw 1700   1.594   6.119   0.381  0.1563 -0.3364  0.0147
  426SOL     ow 1701   0.639   1.410   3.098 -0.0437  0.1143  0.1025
  426SOL     hw 1702   0.678   1.449   3.176 -0.4822  0.2958  0.2317
  426SOL     hw 1703   0.678   1.323   3.093  0.8169  0.4945 -0.0945
  426SOL     vw 1704   0.649   1.404   3.107  0.0120  0.1884  0.0937
  427SOL     ow 1705   2.273   5.728   5.726  0.4252  0.0218  0.0911
  427SOL     hw 1706   2.342   5.737   5.661  0.5567  0.8877  0.3372
  427SOL     hw 1707   2.317   5.694   5.804  0.3800 -0.4249 -0.0775
  427SOL     vw 1708   2.288   5.724   5.728  0.4364  0.0772  0.1013
  428SOL     ow 1709   4.703   5.787   1.253 -0.5414  0.0838  0.7536
  428SOL     hw 1710   4.726   5.812   1.164 -2.1970  4.1372  1.2346
  428SOL     hw 1711   4.630   5.725   1.243  0.1114 -0.4985 -0.6398
  428SOL     vw 1712   4.696   5.782   1.240 -0.6738  0.5417  0.6333
  429SOL     ow 1713   1.089   5.782   4.053 -0.2307  0.3064 -0.1223
  429SOL     hw 1714   1.078   5.855   4.114  0.9181  2.0117 -1.8619
  429SOL     hw 1715   1.183   5.767   4.051 -0.0072  1.5768 -2.8346
  429SOL     vw 1716   1.100   5.789   4.061 -0.0496  0.6988 -0.7095
  430SOL     ow 1717   4.728   0.438   7.050  0.0387 -0.1862  0.3459
  430SOL     hw 1718   4.761   0.385   6.977  0.9414  0.7770  0.0262
  430SOL     hw 1719   4.755   0.391   7.129  1.8495  0.3458  0.0871
  430SOL     vw 1720   4.736   0.425   7.051  0.3967  0.0111  0.2697
  431SOL     ow 1721   3.773   6.185   7.094 -0.1675 -0.0110 -0.2822
  431SOL     hw 1722   3.734   6.271   7.113 -2.3559 -1.0151  0.0250
  431SOL     hw 1723   3.804   6.154   7.179 -1.7601 -0.6062  0.1201
  431SOL     vw 1724   3.772   6.193   7.108 -0.6664 -0.2220 -0.1886
  432SOL     ow 1725   6.973   4.442   3.365  0.6602  0.0478 -0.2347
  432SOL     hw 1726   6.898   4.494   3.392  0.0312 -0.2707 -1.3481
  432SOL     hw 1727   7.038   4.506   3.336  1.0241  0.3506  1.1696
  432SOL     vw 1728   6.972   4.457   3.365  0.6254  0.0455 -0.1963
  433SOL     ow 1729   3.681   1.094   1.819  0.3081 -0.3286  0.1225
  433SOL     hw 1730   3.586   1.098   1.812  0.0797 -3.0968  0.6405
  433SOL     hw 1731   3.706   1.020   1.765  2.1305  0.0495  0.3837
  433SOL     vw 1732   3.672   1.085   1.811  0.5183 -0.6439  0.2252
  434SOL     ow 1733   4.627   0.683   3.929  0.4900  0.6581  0.1002
  434SOL     hw 1734   4.636   0.777   3.914  2.2030  0.8332  1.8232
  434SOL     hw 1735   4.681   0.642   3.862  0.1987  0.9244 -0.2995
  434SOL     vw 1736   4.635   0.690   3.918  0.6776  0.7164  0.2748
  435SOL     ow 1737   5.534   6.163   6.091  0.2811 -0.1705 -1.0693
  435SOL     hw 1738   5.616   6.135   6.050 -0.5902 -0.3909 -2.7561
  435SOL     hw 1739   5.516   6.248   6.053 -0.5736 -0.3847 -1.1511
  435SOL     vw 1740   5.543   6.170   6.081  0.0534 -0.2277 -1.3027
  436SOL     ow 1741   7.116   3.113   1.621  0.2694 -0.3679  0.7139
  436SOL     hw 1742   7.075   3.148   1.701 -1.4628 -1.0533  0.1757
  436SOL     hw 1743   7.042   3.091   1.564  1.4588  1.5541 -1.7593
  436SOL     vw 1744   7.101   3.115   1.624  0.1976 -0.2048  0.3166
  437SOL     ow 1745   7.554   5.510   3.390  0.1986  0.1667  0.1851
  437SOL     hw 1746   7.462   5.503   3.363  0.0205 -2.3030  1.1904
  437SOL     hw 1747   7.553   5.489   3.483  1.8573 -0.5482  0.0654
  437SOL     vw 1748   7.542   5.506   3.399  0.3939 -0.2534  0.3018
  438SOL     ow 1749   0.856   0.986   0.917  0.0146  0.1227 -0.3597
  438SOL     hw 1750   0.765   0.959   0.912 -0.3866  1.2541  0.2957
  438SOL     hw 1751   0.884   0.996   0.826 -0.3351 -0.7573 -0.5729
  438SOL     vw 1752   0.848   0.984   0.905 -0.0845  0.1559 -0.3014
  439SOL     ow 1753   6.842   6.346   1.354 -0.1604  0.0676 -0.6807
  439SOL     hw 1754   6.799   6.392   1.281  0.2349 -0.7376 -1.4323
  439SOL     hw 1755   6.796   6.262   1.359  1.1643 -0.7234 -1.3651
  439SOL     vw 1756   6.830   6.341   1.345  0.0665 -0.1428 -0.8701
  440SOL     ow 1757   5.942   3.797   0.149 -0.6775 -0.7623  0.0585
  440SOL     hw 1758   5.896   3.859   0.091 -0.8826 -1.6205 -0.7183
  440SOL     hw 1759   5.912   3.820   0.237 -0.3002  0.6239 -0.1481
  440SOL     vw 1760   5.932   3.808   0.153 -0.6549 -0.6926 -0.0712
  441SOL     ow 1761   2.043   0.389   1.314 -0.5776  0.9294 -0.4217
  441SOL     hw 1762   1.950   0.405   1.299 -0.5643  0.0944 -1.4804
  441SOL     hw 1763   2.046   0.302   1.353 -0.1805  0.5689 -1.2437
  441SOL     vw 1764   2.031   0.380   1.317 -0.5233  0.7716 -0.6698
  442SOL     ow 1765   4.841   0.563   5.961 -0.7097  0.2881  0.2808
  442SOL     hw 1766   4.802   0.582   6.047 -1.0811 -1.3074  0.4939
  442SOL     hw 1767   4.800   0.481   5.934  0.7093 -0.1534 -0.6162
  442SOL     vw 1768   4.831   0.555   5.969 -0.5713  0.0193  0.1903
  443SOL     ow 1769   6.092   1.008   3.047 -1.1987  0.5273  0.2528
  443SOL     hw 1770   6.026   0.946   3.077 -0.5103  0.3850  1.5718
  443SOL     hw 1771   6.160   1.004   3.114 -0.3526  1.4589 -0.5198
  443SOL     vw 1772   6.092   0.999   3.060 -0.9959  0.6315  0.3248
  444SOL     ow 1773   5.522   4.316   0.007 -0.5385 -0.1975 -0.6337
  444SOL     hw 1774   5.545   4.340  -0.083 -0.5196  0.7401 -0.3879
  444SOL     hw 1775   5.486   4.396   0.045 -2.0128 -0.9897 -0.2733
  444SOL     vw 1776   5.520   4.329   0.000 -0.7303 -0.1786 -0.5541
  445SOL     ow 1777   5.833   7.362   1.573 -0.2445 -0.2316 -0.2463
  445SOL     hw 1778   5.877   7.446   1.561  2.5771 -1.1454  2.3229
  445SOL     hw 1779   5.845   7.317   1.490  0.6698  0.8843 -0.7507
  445SOL     vw 1780   5.841   7.367   1.561  0.2484 -0.2050  0.0261
  446SOL     ow 1781   3.848   6.457   2.054  0.2613 -0.0681  0.1398
  446SOL     hw 1782   3.792   6.515   2.002 -1.0642  0.5807  2.1697
  446SOL     hw 1783   3.817   6.369   2.032  0.8092  0.0585 -1.3019
  446SOL     vw 1784   3.836   6.453   2.044  0.1588  0.0343  0.2174
  447SOL     ow 1785   0.649   6.673   3.537 -0.3606  0.1141 -0.0655
  447SOL     hw 1786   0.683   6.589   3.567  0.4905  0.5668  0.3021
  447SOL     hw 1787   0.590   6.701   3.607  0.4583  0.4666  0.5072
  447SOL     vw 1788   0.646   6.666   3.551 -0.1402  0.2203  0.0585
  448SOL     ow 1789   1.324   4.207   0.167  0.0336 -0.7846  0.6789
  448SOL     hw 1790   1.411   4.247   0.171 -0.5734  1.0171 -1.6252
  448SOL     hw 1791   1.339   4.119   0.132  0.9488 -0.5609  0.4796
  448SOL     vw 1792   1.338   4.201   0.163  0.0743 -0.5174  0.3486
  449SOL     ow 1793   5.913   0.820   3.232  0.0822 -0.0017  0.0544
  449SOL     hw 1794   5.879   0.900   3.271 -0.6651  0.9240 -2.3451
  449SOL     hw 1795   5.850   0.798   3.164  0.3306 -2.6013  0.5605
  449SOL     vw 1796   5.900   0.827   3.228  0.0162 -0.2226 -0.1955
  450SOL     ow 1797   2.811   2.050   0.620  0.5205  1.0878 -0.0601
  450SOL     hw 1798   2.738   2.019   0.566  1.3357  1.1313 -1.2159
  450SOL     hw 1799   2.888   2.006   0.583  1.2275  1.8780  0.4509
  450SOL     vw 1800   2.812   2.040   0.608  0.7212  1.1976 -0.1452
  451SOL     ow 1801   1.326   2.349   7.263 -0.7488  0.3749  0.5037
  451SOL     hw 1802   1.401   2.346   7.204 -0.7981 -1.6783  0.4774
  451SOL     hw 1803   1.362   2.382   7.345  0.2828 -0.8748  0.5827
  451SOL     vw 1804   1.341   2.353   7.266 -0.6192 -0.0609  0.5107
  452SOL     ow 1805   5.028   7.473   6.265 -0.5182 -0.3510 -0.4294
  452SOL     hw 1806   5.032   7.434   6.177 -0.2877  2.0055 -1.5545
  452SOL     hw 1807   5.120   7.486   6.289 -0.5904 -0.5550 -0.0373
  452SOL     vw 1808   5.041   7.470   6.256 -0.4976 -0.0670 -0.5260
  453SOL     ow 1809   1.804   2.853   0.860  0.6833 -0.1036  0.7861
  453SOL     hw 1810   1.811   2.781   0.797  1.3321 -0.8427  1.6779
  453SOL     hw 1811   1.797   2.810   0.945  1.1352  0.8936  1.3411
  453SOL     vw 1812   1.804   2.838   0.863  0.8286 -0.0694  0.9770
  454SOL     ow 1813   3.097   0.275   6.329 -0.1696 -0.2425 -0.2375
  454SOL     hw 1814   3.168   0.325   6.287  0.4153  0.2903  1.3011
  454SOL     hw 1815   3.058   0.224   6.258 -0.9114  2.5169 -1.9712
  454SOL     vw 1816   3.101   0.275   6.314 -0.1904  0.1919 -0.2632
  455SOL     ow 1817   7.075   7.404   5.113  0.3886  0.6224  0.4414
  455SOL     hw 1818   7.131   7.417   5.190  1.9392 -1.6040 -0.2079
  455SOL     hw 1819   7.021   7.328   5.135 -0.0764  0.7700 -0.1634
  455SOL     vw 1820   7.075   7.395   5.126  0.5319  0.3483  0.2761
  456SOL     ow 1821   4.072   1.005   1.606  0.0516  0.0453 -0.0310
  456SOL     hw 1822   4.059   1.082   1.662  1.1391  0.2569 -0.0512
  456SOL     hw 1823   4.154   1.022   1.561 -0.3745 -0.5217 -1.0565
  456SOL     vw 1824   4.081   1.018   1.607  0.1388 -0.0016 -0.1689
  457SOL     ow 1825   0.684   7.363   5.193  0.4153 -0.0192  0.1249
  457SOL     hw 1826   0.672   7.451   5.158  1.4689 -0.5061 -1.6118
  457SOL     hw 1827   0.692   7.375   5.288 -0.2121  1.6457 -0.0042
  457SOL     vw 1828   0.684   7.376   5.201  0.4715  0.1364 -0.1214
  458SOL     ow 1829   1.590   1.232   6.670  0.1451  0.1227 -0.4687
  458SOL     hw 1830   1.658   1.277   6.720  0.4990 -0.9495  0.0456
  458SOL     hw 1831   1.629   1.218   6.584  0.7291 -0.8015 -0.0687
  458SOL     vw 1832   1.604   1.236   6.665  0.2689 -0.1407 -0.3483
  459SOL     ow 1833   2.962   3.956   3.662 -0.4246  0.5443  0.1874
  459SOL     hw 1834   3.024   3.900   3.616 -0.4265  1.1165 -0.5401
  459SOL     hw 1835   2.963   3.925   3.752  0.1585 -0.1064 -0.0370
  459SOL     vw 1836   2.970   3.945   3.668 -0.3477  0.5339  0.0618
  460SOL     ow 1837   1.411   2.292   6.632 -0.4366  0.1821  0.7200
  460SOL     hw 1838   1.369   2.256   6.710  1.3542  1.5388  2.4230
  460SOL     hw 1839   1.340   2.303   6.570 -1.7015 -2.3486  1.5639
  460SOL     vw 1840   1.396   2.289   6.634 -0.3672  0.0273  1.0560
  461SOL     ow 1841   2.779   2.288   1.602 -0.0943  0.5284  0.5712
  461SOL     hw 1842   2.801   2.375   1.634 -1.9795 -0.0585  3.9147
  461SOL     hw 1843   2.716   2.303   1.531  2.1411  1.8407 -1.2789
  461SOL     vw 1844   2.774   2.301   1.597 -0.0480  0.6241  0.7682
  462SOL     ow 1845   1.708   1.661   3.294  0.2993  0.1006 -0.1921
  462SOL     hw 1846   1.622   1.698   3.274  0.2626 -0.3660 -0.9277
  462SOL     hw 1847   1.771   1.726   3.262  0.2258  0.0358 -0.4713
  462SOL     vw 1848   1.705   1.674   3.287  0.2849  0.0305 -0.3259
  463SOL     ow 1849   1.528   7.552   4.261  0.3296 -0.0176 -0.0708
  463SOL     hw 1850   1.575   7.523   4.183 -1.9878 -0.1086 -1.5296
  463SOL     hw 1851   1.510   7.645   4.246 -2.2315 -0.5671 -0.8842
  463SOL     vw 1852   1.532   7.560   4.249 -0.3141 -0.1023 -0.3705
  464SOL     ow 1853   6.803   6.637   1.437 -0.6361 -0.0390  0.0813
  464SOL     hw 1854   6.877   6.690   1.411 -1.6664  1.5326  0.2024
  464SOL     hw 1855   6.761   6.611   1.355 -0.9270  0.5346  0.0446
  464SOL     vw 1856   6.807   6.641   1.423 -0.8104  0.2441  0.0924
  465SOL     ow 1857   0.293   0.901   5.399  0.6302 -0.2657  0.4025
  465SOL     hw 1858   0.385   0.918   5.379  0.6892 -0.2838  0.6529
  465SOL     hw 1859   0.289   0.806   5.412  0.2956 -0.4646 -1.0311
  465SOL     vw 1860   0.305   0.891   5.398  0.5938 -0.2944  0.2463
  466SOL     ow 1861   7.058   5.455   4.546 -0.4333  0.2383  0.2400
  466SOL     hw 1862   6.987   5.394   4.565  0.0384 -0.5481 -0.4514
  466SOL     hw 1863   7.105   5.463   4.629 -1.4993  1.0182  0.7913
  466SOL     vw 1864   7.055   5.448   4.560 -0.5119  0.2375  0.2213
  467SOL     ow 1865   2.119   5.271   1.478 -0.4653 -0.4081 -0.3358
  467SOL     hw 1866   2.137   5.314   1.561  2.1845 -0.2981 -0.8562
  467SOL     hw 1867   2.117   5.178   1.498 -0.4105 -0.3482 -0.0576
  467SOL     vw 1868   2.121   5.264   1.491 -0.1085 -0.3855 -0.3677
  468SOL     ow 1869   1.470   0.712   1.166 -0.4833  0.1704  0.4494
  468SOL     hw 1870   1.525   0.635   1.184  1.6065  1.5797  0.3998
  468SOL     hw 1871   1.432   0.734   1.251 -4.1102 -2.9365 -0.0865
  468SOL     vw 1872   1.473   0.704   1.180 -0.6860 -0.0536  0.3721
  469SOL     ow 1873   4.764   2.761   2.442  0.1608  0.2845 -0.1021
  469SOL     hw 1874   4.843   2.714   2.469  0.7127  0.9888 -0.4741
  469SOL     hw 1875   4.793   2.850   2.425 -1.0202  1.0415  1.4872
  469SOL     vw 1876   4.778   2.766   2.443  0.0780  0.4773  0.0585
  470SOL     ow 1877   0.778   1.344   2.672  0.0285 -0.1740  0.2522
  470SOL     hw 1878   0.869   1.367   2.691 -0.3084  0.6900  0.8302
  470SOL     hw 1879   0.758   1.273   2.733 -0.3236  1.0391  1.6087
  470SOL     vw 1880   0.788   1.338   2.682 -0.0624  0.1000  0.5074
  471SOL     ow 1881   6.169   0.798   0.874  0.0363  0.1612 -0.4428
  471SOL     hw 1882   6.229   0.845   0.816  1.4659 -2.3449 -1.1610
  471SOL     hw 1883   6.117   0.744   0.815 -0.9970  0.2145  0.3969
  471SOL     vw 1884   6.170   0.797   0.859  0.0885 -0.1624 -0.4267
  472SOL     ow 1885   7.530   4.083   5.674  0.1594 -0.3890  0.4323
  472SOL     hw 1886   7.604   4.028   5.698  0.3649 -0.1535  0.3509
  472SOL     hw 1887   7.561   4.132   5.597  0.5357  0.9527  1.3973
  472SOL     vw 1888   7.544   4.082   5.667  0.2361 -0.1810  0.5488
  473SOL     ow 1889   1.193   2.405   3.549 -0.4669 -0.7460  0.0097
  473SOL     hw 1890   1.215   2.360   3.631 -1.7025 -2.4613 -0.5267
  473SOL     hw 1891   1.275   2.409   3.500  0.7337  2.0307  2.0407
  473SOL     vw 1892   1.207   2.400   3.553 -0.4715 -0.6058  0.2069
  474SOL     ow 1893   3.729   4.353   5.259  0.2565 -0.1003  0.1868
  474SOL     hw 1894   3.744   4.262   5.234  0.7142  0.1779 -0.5938
  474SOL     hw 1895   3.808   4.378   5.307  0.2196 -0.0569  0.2252
  474SOL     vw 1896   3.741   4.344   5.262  0.3121 -0.0579  0.0889
  475SOL     ow 1897   7.340   5.591   0.447  0.0034  0.3695 -0.2051
  475SOL     hw 1898   7.271   5.560   0.389  0.1138  0.5111 -0.4140
  475SOL     hw 1899   7.418   5.542   0.420  0.0254  0.3359 -0.0849
  475SOL     vw 1900   7.341   5.580   0.436  0.0210  0.3841 -0.2168
  476SOL     ow 1901   3.556   0.422   0.812 -0.1365  0.1850 -0.4868
  476SOL     hw 1902   3.505   0.416   0.892  0.0013  1.3932 -0.2922
  476SOL     hw 1903   3.646   0.405   0.839 -0.0589  0.8089 -0.3360
  476SOL     vw 1904   3.561   0.419   0.826 -0.1081  0.4267 -0.4413
  477SOL     ow 1905   5.869   0.015   0.183 -0.4551  0.1338  0.1991
  477SOL     hw 1906   5.795   0.065   0.150 -1.8309  0.7573  3.7901
  477SOL     hw 1907   5.850  -0.076   0.159 -0.2362  0.6850 -2.3876
  477SOL     vw 1908   5.857   0.010   0.176 -0.6077  0.2890  0.3316
  478SOL     ow 1909   4.443   2.243   2.895  0.0576 -0.0433 -0.6670
  478SOL     hw 1910   4.393   2.176   2.943 -1.3613 -0.1569 -2.2398
  478SOL     hw 1911   4.391   2.262   2.818  1.4630  1.3914 -1.3239
  478SOL     vw 1912   4.430   2.236   2.891  0.0558  0.1310 -0.9612
  479SOL     ow 1913   1.194   6.050   7.133 -0.4627  0.2186 -0.0209
  479SOL     hw 1914   1.170   6.074   7.043 -0.3936 -1.0300 -0.3851
  479SOL     hw 1915   1.270   5.993   7.123 -0.4093  0.1339  0.8358
  479SOL     vw 1916   1.201   6.046   7.120 -0.4466  0.0427  0.0443
  480SOL     ow 1917   0.563   6.127   4.646  0.1121  0.1745  0.0826
  480SOL     hw 1918   0.557   6.212   4.691 -0.6681  0.1863 -0.0390
  480SOL     hw 1919   0.557   6.149   4.553  1.0789  0.0853 -0.0142
  480SOL     vw 1920   0.562   6.141   4.640  0.1367  0.1647  0.0536
  481SOL     ow 1921   2.920   3.259   7.565  0.2907 -0.1399  0.1603
  481SOL     hw 1922   2.886   3.332   7.514 -2.4015 -0.9368  0.6513
  481SOL     hw 1923   2.983   3.216   7.508 -0.6597  0.5508 -1.4596
  481SOL     vw 1924   2.924   3.263   7.551 -0.1899 -0.1539  0.0114
  482SOL     ow 1925   7.339   2.914   5.691 -0.8690  0.0624 -0.5549
  482SOL     hw 1926   7.420   2.896   5.644 -0.2420  0.1275  0.4750
  482SOL     hw 1927   7.328   3.009   5.684 -0.9914  0.0241 -0.9030
  482SOL     vw 1928   7.348   2.924   5.684 -0.8025  0.0659 -0.4652
  483SOL     ow 1929   6.241   3.783   6.371  0.5990 -0.3331 -0.0034
  483SOL     hw 1930   6.194   3.729   6.308  0.9449  0.0810 -0.6281
  483SOL     hw 1931   6.173   3.823   6.425  0.2713 -0.2189 -0.5019
  483SOL     vw 1932   6.226   3.781   6.370  0.6011 -0.2635 -0.1516
  484SOL     ow 1933   1.767   5.785   4.706  0.2387  0.7097  0.1131
  484SOL     hw 1934   1.771   5.717   4.640 -2.0277  0.6846 -0.0892
  484SOL     hw 1935   1.856   5.790   4.742  1.5035  0.6397 -2.7785
  484SOL     vw 1936   1.779   5.777   4.702  0.1066  0.6971 -0.2952
  485SOL     ow 1937   5.457   0.396   0.444  0.2766 -0.0802  0.5128
  485SOL     hw 1938   5.428   0.340   0.372  1.6601 -0.5161  0.2627
  485SOL     hw 1939   5.549   0.373   0.457  0.3516  0.7813  1.6918
  485SOL     vw 1940   5.465   0.386   0.436  0.4690 -0.0241  0.6354
  486SOL     ow 1941   0.901   6.955   3.043  0.3017 -0.2619 -0.2730
  486SOL     hw 1942   0.847   6.895   2.993  0.3125 -0.4979 -0.0029
  486SOL     hw 1943   0.910   7.032   2.987 -0.5765 -0.0917 -0.1877
  486SOL     vw 1944   0.895   6.957   3.029  0.1873 -0.2706 -0.2260
  487SOL     ow 1945   3.112   1.249   6.055 -0.3759 -0.0096 -0.6271
  487SOL     hw 1946   3.124   1.205   5.970 -1.0361  0.1665 -0.8223
  487SOL     hw 1947   3.200   1.274   6.082 -0.2864  1.5080 -2.1254
  487SOL     vw 1948   3.125   1.247   6.047 -0.4512  0.2139 -0.8504
  488SOL     ow 1949   0.873   6.782   3.412 -0.2271  0.2895 -0.7571
  488SOL     hw 1950   0.874   6.762   3.319  1.6463  0.5957 -0.8505
  488SOL     hw 1951   0.805   6.725   3.449  0.5242 -1.4718 -1.9619
  488SOL     vw 1952   0.864   6.772   3.405  0.1192  0.0973 -0.9284
  489SOL     ow 1953   4.064   7.083   0.923 -0.1456  0.3386  0.5303
  489SOL     hw 1954   3.978   7.094   0.882 -0.9573 -2.5359  1.1938
  489SOL     hw 1955   4.126   7.120   0.861 -1.5708 -1.1875 -1.9605
  489SOL     vw 1956   4.061   7.089   0.910 -0.4406 -0.2420  0.2893
  490SOL     ow 1957   0.979   7.213   0.494 -0.5811 -0.3278  0.8317
  490SOL     hw 1958   0.981   7.143   0.559 -1.9234 -0.4858  0.7265
  490SOL     hw 1959   1.003   7.171   0.411  2.1748  0.0741  1.3373
  490SOL     vw 1960   0.982   7.198   0.492 -0.3946 -0.2959  0.8845
  491SOL     ow 1961   3.271   4.380   1.961 -0.6529 -0.4037 -0.1234
  491SOL     hw 1962   3.185   4.416   1.939 -1.1551 -1.4787  0.0236
  491SOL     hw 1963   3.311   4.360   1.876 -0.5759  0.0186 -0.1891
  491SOL     vw 1964   3.265   4.383   1.947 -0.7091 -0.4900 -0.1127
  492SOL     ow 1965   1.794   0.097   1.845 -0.7935 -0.1430 -0.5905
  492SOL     hw 1966   1.862   0.163   1.859 -2.4002  2.2472 -2.9785
  492SOL     hw 1967   1.835   0.032   1.789  1.0891 -1.8614  2.5073
  492SOL     vw 1968   1.808   0.097   1.839 -0.7572 -0.0544 -0.4969
  493SOL     ow 1969   6.086   4.152   4.896 -0.2439  0.0168  0.5912
  493SOL     hw 1970   6.064   4.245   4.892 -2.2938 -0.4489 -3.0564
  493SOL     hw 1971   6.157   4.141   4.832 -0.9696 -1.1046 -0.0514
  493SOL     vw 1972   6.093   4.163   4.887 -0.6104 -0.1926  0.0253
  494SOL     ow 1973   3.998   6.871   7.037  0.2560  0.6960 -0.7132
  494SOL     hw 1974   4.074   6.929   7.038 -0.1824  1.2891 -0.8065
  494SOL     hw 1975   3.924   6.929   7.018 -0.3942  0.3561  0.6016
  494SOL     vw 1976   3.998   6.886   7.035  0.1124  0.7293 -0.5522
  495SOL     ow 1977   2.024   5.502   6.424  0.2176 -0.3340  0.1441
  495SOL     hw 1978   2.081   5.519   6.500  0.8855  1.5331 -0.7135
  495SOL     hw 1979   2.075   5.442   6.369  0.9285  0.4983 -0.1229
  495SOL     vw 1980   2.038   5.496   6.427  0.3996  0.0222 -0.0045
  496SOL     ow 1981   6.682   3.270   5.109  0.2239  0.1994  0.5514
  496SOL     hw 1982   6.706   3.228   5.026  0.6321 -1.5664  1.5032
  496SOL     hw 1983   6.766   3.296   5.148  0.0776  0.4535  0.6993
  496SOL     vw 1984   6.696   3.268   5.104  0.2584 -0.0001  0.6967
  497SOL     ow 1985   2.393   7.449   1.483 -0.3183  0.2256  0.3764
  497SOL     hw 1986   2.456   7.440   1.411  0.2540  0.4247  0.8525
  497SOL     hw 1987   2.334   7.519   1.454  0.7979  1.3459  0.7285
  497SOL     vw 1988   2.393   7.457   1.469 -0.0955  0.3996  0.4857
  498SOL     ow 1989   2.157   1.340   1.847  0.1124 -0.3067  0.4797
  498SOL     hw 1990   2.225   1.399   1.814  0.2507  1.1118  2.9881
  498SOL     hw 1991   2.074   1.382   1.825 -0.0067 -1.5538 -1.7268
  498SOL     vw 1992   2.155   1.353   1.840  0.1148 -0.2841  0.5196
  499SOL     ow 1993   2.712   3.465   5.177 -0.5734  0.0272  0.1462
  499SOL     hw 1994   2.730   3.546   5.128  0.5413 -0.5562 -0.4263
  499SOL     hw 1995   2.762   3.475   5.258 -1.7550  0.6169  0.8481
  499SOL     vw 1996   2.721   3.477   5.181 -0.5822  0.0281  0.1633
  500SOL     ow 1997   4.299   5.034   1.203 -0.1330 -0.3587  0.1880
  500SOL     hw 1998   4.258   5.120   1.211  0.5971  0.1722 -1.2689
  500SOL     hw 1999   4.362   5.030   1.274 -0.2345  0.2853  0.3178
  500SOL     vw 2000   4.302   5.045   1.213 -0.0498 -0.2036  0.0129
  501SOL     ow 2001   4.714   6.399   2.384  0.5599  0.1965 -0.5969
  501SOL     hw 2002   4.698   6.445   2.466  2.4116  0.0746 -0.1277
  501SOL     hw 2003   4.743   6.467   2.323  0.8101  0.0376 -0.6565
  501SOL     vw 2004   4.716   6.414   2.387  0.8373  0.1593 -0.5430
  502SOL     ow 2005   6.817   2.010   6.656  0.4070  0.1655 -0.1229
  502SOL     hw 2006   6.818   1.929   6.605  3.0715  0.2565 -0.3702
  502SOL     hw 2007   6.905   2.017   6.691 -1.0873  0.4129  4.1794
  502SOL     vw 2008   6.829   2.000   6.654  0.5612  0.2102  0.4122
  503SOL     ow 2009   2.465   2.177   4.941  0.5338 -1.2629  0.5142
  503SOL     hw 2010   2.375   2.197   4.914  0.6376  0.5653  1.3709
  503SOL     hw 2011   2.510   2.155   4.859  0.2418  1.7452 -0.5878
  503SOL     vw 2012   2.459   2.177   4.926  0.5090 -0.6248  0.4818
  504SOL     ow 2013   5.094   5.123   6.996  0.1118 -0.2309  0.6356
  504SOL     hw 2014   5.168   5.149   7.051 -0.9032  0.1953  1.8494
  504SOL     hw 2015   5.051   5.053   7.044 -0.1965 -0.5884 -0.1346
  504SOL     vw 2016   5.098   5.117   7.009 -0.0629 -0.2220  0.6943
  505SOL     ow 2017   2.144   4.247   5.733 -0.0850  0.4834 -0.0518
  505SOL     hw 2018   2.182   4.231   5.646 -0.3326 -0.0177 -0.0703
  505SOL     hw 2019   2.219   4.250   5.792 -0.0572 -2.0723  0.1663
  505SOL     vw 2020   2.159   4.245   5.729 -0.1141  0.0799 -0.0253
  506SOL     ow 2021   0.381   2.275   6.436  0.3690 -0.6086  0.6326
  506SOL     hw 2022   0.300   2.250   6.393 -0.2214  0.9581  0.7593
  506SOL     hw 2023   0.449   2.259   6.371  0.2079 -3.3170  1.0169
  506SOL     vw 2024   0.380   2.270   6.422  0.2699 -0.7591  0.7000
  507SOL     ow 2025   4.552   0.535   5.613 -0.0916  0.0031  0.3757
  507SOL     hw 2026   4.548   0.539   5.518 -0.9151  1.2535  0.4500
  507SOL     hw 2027   4.518   0.619   5.643  3.6993  1.2940  1.7104
  507SOL     vw 2028   4.547   0.546   5.605  0.3002  0.3384  0.5615
  508SOL     ow 2029   3.428   3.799   6.225  0.3299 -0.2195 -0.9761
  508SOL     hw 2030   3.394   3.813   6.136  0.1694 -0.9593 -1.0370
  508SOL     hw 2031   3.366   3.739   6.265 -0.0285  0.7318 -0.0868
  508SOL     vw 2032   3.416   3.793   6.218  0.2614 -0.1917 -0.8667
  509SOL     ow 2033   4.493   3.322   3.710  0.2177 -0.2640 -0.4678
  509SOL     hw 2034   4.583   3.336   3.740  0.9726 -2.3927 -1.4798
  509SOL     hw 2035   4.451   3.407   3.719  2.1038  0.6168  0.7623
  509SOL     vw 2036   4.500   3.335   3.715  0.5660 -0.4288 -0.4390
  510SOL     ow 2037   0.880   3.826   2.487  0.2284  0.0739  0.1287
  510SOL     hw 2038   0.816   3.768   2.531  0.1113 -0.4884 -0.7515
  510SOL     hw 2039   0.847   3.834   2.397 -0.1833  2.1610  0.4156
  510SOL     vw 2040   0.867   3.819   2.481  0.1587  0.2751  0.0504
  511SOL     ow 2041   5.273   6.693   4.275  0.0096 -0.2627  0.4629
  511SOL     hw 2042   5.190   6.654   4.246 -0.9180  2.3706 -0.7397
  511SOL     hw 2043   5.326   6.695   4.195 -0.8510  2.8434 -0.1962
  511SOL     vw 2044   5.269   6.688   4.260 -0.2260  0.4945  0.2172
  512SOL     ow 2045   6.153   4.185   6.849 -0.2754  0.0361  0.4380
  512SOL     hw 2046   6.198   4.107   6.881 -0.0532  0.2229  0.5892
  512SOL     hw 2047   6.188   4.199   6.761  0.0754  0.2667  0.6121
  512SOL     vw 2048   6.164   4.177   6.842 -0.1998  0.0913  0.4809
  513SOL     ow 2049   5.390   1.435   2.253  0.2965 -0.1865  0.2422
  513SOL     hw 2050   5.398   1.351   2.207  2.2632 -0.3474  0.7926
  513SOL     hw 2051   5.317   1.421   2.314  0.3074 -1.3493  0.0242
  513SOL     vw 2052   5.381   1.422   2.255  0.5574 -0.3611  0.2860
  514SOL     ow 2053   5.618   6.803   1.473 -0.0903 -0.0699 -0.0987
  514SOL     hw 2054   5.542   6.813   1.416 -0.2720 -1.6792 -0.1637
  514SOL     hw 2055   5.673   6.739   1.429 -0.2542 -1.4013  1.5354
  514SOL     vw 2056   5.615   6.796   1.460 -0.1359 -0.4578  0.1084
  515SOL     ow 2057   3.790   4.110   7.186 -0.5583 -1.1120  0.9192
  515SOL     hw 2058   3.749   4.158   7.258 -0.8335 -0.0206  0.0634
  515SOL     hw 2059   3.878   4.148   7.179 -0.3240 -1.6141  1.0267
  515SOL     vw 2060   3.797   4.121   7.195 -0.5636 -1.0343  0.8206
  516SOL     ow 2061   0.434   5.098   4.089  0.7367 -0.2407 -0.4167
  516SOL     hw 2062   0.430   5.123   4.182  0.1787 -1.4720 -0.0867
  516SOL     hw 2063   0.360   5.144   4.049  0.7645  0.0089 -0.1856
  516SOL     vw 2064   0.424   5.107   4.096  0.6668 -0.3703 -0.3424
  517SOL     ow 2065   6.214   3.918   0.137 -0.8702  0.2368  0.1917
  517SOL     hw 2066   6.145   3.979   0.112 -2.0271 -0.7562  0.8616
  517SOL     hw 2067   6.276   3.920   0.064 -2.3325  0.0912 -1.1013
  517SOL     vw 2068   6.213   3.926   0.124 -1.2157  0.0865  0.1095
  518SOL     ow 2069   6.005   4.922   5.143 -1.3581 -0.3021  0.7633
  518SOL     hw 2070   5.940   4.939   5.211  0.1782 -1.6906  2.6945
  518SOL     hw 2071   6.069   4.993   5.153 -0.5108 -1.1496  1.6451
  518SOL     vw 2072   6.005   4.934   5.153 -1.0436 -0.5972  1.1344
  519SOL     ow 2073   7.192   3.430   0.322 -0.0742 -0.6110  0.2340
  519SOL     hw 2074   7.143   3.501   0.363  1.2179  0.6282 -0.2714
  519SOL     hw 2075   7.226   3.379   0.395 -0.1385 -0.0774  0.6423
  519SOL     vw 2076   7.190   3.433   0.337  0.0877 -0.3771  0.2212
  520SOL     ow 2077   6.996   7.496   4.295 -0.6867  0.1017 -0.4239
  520SOL     hw 2078   7.054   7.568   4.318  0.6702 -0.9815 -0.3284
  520SOL     hw 2079   6.908   7.533   4.304 -0.0400  1.7782 -0.5557
  520SOL     vw 2080   6.992   7.510   4.299 -0.4227  0.1800 -0.4287
  521SOL     ow 2081   3.288   2.268   5.933  0.0222 -0.1551 -0.1908
  521SOL     hw 2082   3.330   2.319   5.864 -0.8439  1.3039  0.3089
  521SOL     hw 2083   3.328   2.300   6.014  1.1376 -1.9543  0.0175
  521SOL     vw 2084   3.299   2.279   5.935  0.0551 -0.1999 -0.0975
  522SOL     ow 2085   6.439   1.626   4.488 -0.2055  0.1373  0.0165
  522SOL     hw 2086   6.472   1.540   4.513  0.4036  0.2002 -0.5449
  522SOL     hw 2087   6.486   1.647   4.407  0.6923  1.5797  0.8592
  522SOL     vw 2088   6.450   1.618   4.481 -0.0067  0.3359  0.0539
  523SOL     ow 2089   2.088   4.244   2.707  0.3778  0.1279 -0.2285
  523SOL     hw 2090   2.145   4.226   2.782  1.5268 -0.3854 -1.1938
  523SOL     hw 2091   2.033   4.165   2.699  2.3062 -1.1732 -1.6927
  523SOL     vw 2092   2.088   4.231   2.716  0.7838 -0.1113 -0.5490
  524SOL     ow 2093   4.502   5.157   7.119  0.2540 -0.4205 -0.4172
  524SOL     hw 2094   4.436   5.097   7.153  0.4882 -0.9767 -0.9426
  524SOL     hw 2095   4.558   5.104   7.062  1.5873 -0.1079  0.5594
  524SOL     vw 2096   4.501   5.142   7.116  0.4609 -0.4528 -0.3576
  525SOL     ow 2097   1.075   2.040   1.579 -0.0886  0.1256  0.3381
  525SOL     hw 2098   1.061   2.005   1.491  1.3673 -0.9791  0.5089
  525SOL     hw 2099   1.031   1.978   1.638 -0.0439  0.2100  0.4614
  525SOL     vw 2100   1.068   2.027   1.575  0.1094 -0.0091  0.3769
  526SOL     ow 2101   1.630   3.051   7.273  0.2472  0.7217 -0.3006
  526SOL     hw 2102   1.615   2.980   7.336 -1.2391 -0.4441 -1.8638
  526SOL     hw 2103   1.547   3.099   7.271  0.6660  1.4394 -0.5150
  526SOL     vw 2104   1.617   3.048   7.281  0.1064  0.6627 -0.5352
  527SOL     ow 2105   5.535   2.503   4.935  0.5701  0.0910 -0.2559
  527SOL     hw 2106   5.550   2.597   4.946  1.5670 -0.1081  0.1094
  527SOL     hw 2107   5.533   2.490   4.840 -0.6530  0.6370 -0.3268
  527SOL     vw 2108   5.536   2.514   4.924  0.5403  0.1367 -0.2170
  528SOL     ow 2109   5.236   5.777   0.682  0.0371  0.6194 -0.7493
  528SOL     hw 2110   5.291   5.851   0.705 -0.0441  1.3195 -2.6210
  528SOL     hw 2111   5.276   5.740   0.603  1.1950 -2.5910  1.1790
  528SOL     vw 2112   5.248   5.782   0.674  0.1793  0.2882 -0.7418
  529SOL     ow 2113   0.132   6.066   7.470  1.0893  0.1706 -0.5225
  529SOL     hw 2114   0.130   5.992   7.410  0.6872  1.1827 -1.8090
  529SOL     hw 2115   0.222   6.071   7.501  1.0394 -1.0419 -0.1531
  529SOL     vw 2116   0.144   6.057   7.466  1.0297  0.1442 -0.6433
  530SOL     ow 2117   3.854   5.745   2.802  0.0715  0.1681  0.2603
  530SOL     hw 2118   3.794   5.780   2.867  0.3403  1.9733 -0.4018
  530SOL     hw 2119   3.852   5.808   2.730  1.8549 -0.3205 -0.2951
  530SOL     vw 2120   3.846   5.758   2.801  0.3422  0.3417  0.0998
  531SOL     ow 2121   1.623   1.398   3.286  0.2013 -0.3371 -0.0970
  531SOL     hw 2122   1.648   1.392   3.194  0.6033 -0.4523  0.0173
  531SOL     hw 2123   1.663   1.480   3.316 -0.9865  0.3551 -0.3461
  531SOL     vw 2124   1.631   1.408   3.278  0.0976 -0.2609 -0.1148
  532SOL     ow 2125   5.037   5.000   6.025 -0.3741 -0.4756  0.4467
  532SOL     hw 2126   4.974   5.047   6.079 -1.2994 -0.3207 -0.7283
  532SOL     hw 2127   5.055   5.059   5.952  0.6322 -0.7987  0.4174
  532SOL     vw 2128   5.031   5.014   6.022 -0.3633 -0.4978  0.2878
  533SOL     ow 2129   5.659   6.956   3.917  0.7731 -0.5843  0.0931
  533SOL     hw 2130   5.566   6.980   3.924  1.2159  1.3602  0.0243
  533SOL     hw 2131   5.659   6.861   3.916 -1.3080 -0.6397 -0.8627
  533SOL     vw 2132   5.647   6.947   3.918  0.5569 -0.3352 -0.0421
  534SOL     ow 2133   1.254   2.688   1.871  0.2781 -0.4996  0.4652
  534SOL     hw 2134   1.198   2.614   1.846  0.3359 -0.4147  0.0847
  534SOL     hw 2135   1.198   2.765   1.860  1.1166 -0.1592 -2.1764
  534SOL     vw 2136   1.239   2.688   1.866  0.3964 -0.4435  0.0665
  535SOL     ow 2137   2.965   0.799   3.323 -0.1052 -0.6621 -0.4105
  535SOL     hw 2138   2.905   0.825   3.393  0.5357  2.0538 -0.7602
  535SOL     hw 2139   2.999   0.882   3.288  1.5425 -2.0093 -2.2441
  535SOL     vw 2140   2.961   0.814   3.327  0.1968 -0.4815 -0.6986
  536SOL     ow 2141   1.058   0.069   0.303  0.5854  0.4775  0.6223
  536SOL     hw 2142   1.094   0.120   0.230  1.0736  0.4819  0.8638
  536SOL     hw 2143   0.963   0.075   0.291  0.6259  1.6648  0.7938
  536SOL     vw 2144   1.050   0.076   0.292  0.6552  0.6348  0.6768
  537SOL     ow 2145   2.241   7.125   2.151  0.1724  0.7989 -0.4649
  537SOL     hw 2146   2.188   7.172   2.086 -0.0960 -0.5222 -1.2373
  537SOL     hw 2147   2.331   7.151   2.131  0.2987 -0.9449 -2.6233
  537SOL     vw 2148   2.246   7.135   2.140  0.1535  0.3946 -0.8515
  538SOL     ow 2149   1.125   7.045   3.981  0.1703 -0.2090 -0.0126
  538SOL     hw 2150   1.155   7.135   3.967 -0.7729  1.0350  4.3133
  538SOL     hw 2151   1.134   7.032   4.075 -3.9154 -3.0291  0.2260
  538SOL     vw 2152   1.130   7.055   3.991 -0.4932 -0.4172  0.5896
  539SOL     ow 2153   1.420   4.296   2.989 -0.5292  0.8923 -0.3919
  539SOL     hw 2154   1.424   4.204   3.016 -0.4931  0.5554 -1.5230
  539SOL     hw 2155   1.490   4.306   2.924  0.6784  2.1772  1.0161
  539SOL     vw 2156   1.430   4.285   2.984 -0.3651  1.0173 -0.3555
  540SOL     ow 2157   2.210   2.597   5.169 -0.2249 -0.4684 -0.6782
  540SOL     hw 2158   2.130   2.558   5.134  0.5557 -0.7831 -2.1995
  540SOL     hw 2159   2.236   2.539   5.240 -0.4173 -1.3360 -1.3065
  540SOL     vw 2160   2.203   2.584   5.174 -0.1473 -0.6244 -0.9618
  541SOL     ow 2161   1.624   1.061   3.843  0.0495  0.0691 -0.0877
  541SOL     hw 2162   1.608   1.068   3.937  1.4874  4.9201  0.0304
  541SOL     hw 2163   1.718   1.048   3.835 -0.0103  0.0766 -0.9025
  541SOL     vw 2164   1.634   1.060   3.854  0.2313  0.7102 -0.1796
  542SOL     ow 2165   1.898   2.952   3.786  0.5478 -0.4359  0.2133
  542SOL     hw 2166   1.809   2.981   3.764  0.3299 -1.7699 -0.8376
  542SOL     hw 2167   1.952   3.031   3.776 -0.6309  0.6639  1.9234
  542SOL     vw 2168   1.893   2.967   3.782  0.3636 -0.4667  0.3003
  543SOL     ow 2169   3.013   2.087   1.971 -0.4585 -0.0846 -0.2119
  543SOL     hw 2170   3.082   2.153   1.961 -0.0748 -0.7423 -2.7571
  543SOL     hw 2171   2.952   2.125   2.034  0.7073  1.8241 -0.1386
  543SOL     vw 2172   3.014   2.100   1.978 -0.2542  0.0805 -0.5381
  544SOL     ow 2173   0.825   2.496   3.463 -0.1349  0.2151 -0.0320
  544SOL     hw 2174   0.744   2.466   3.504  0.0718  0.1912  0.3583
  544SOL     hw 2175   0.881   2.419   3.460  0.6399  0.6768  1.5579
  544SOL     vw 2176   0.822   2.482   3.468 -0.0054  0.2730  0.2294
  545SOL     ow 2177   1.221   5.027   5.349  0.2393 -0.0103  0.2858
  545SOL     hw 2178   1.239   4.947   5.400 -1.7606 -1.7161 -1.4890
  545SOL     hw 2179   1.271   5.095   5.393  5.0381 -2.8213 -0.1446
  545SOL     vw 2180   1.230   5.025   5.362  0.6086 -0.6063 -0.0052
  546SOL     ow 2181   2.887   2.694   1.096  1.0858 -0.0876 -0.2201
  546SOL     hw 2182   2.946   2.666   1.166 -1.4791 -2.1604  1.3093
  546SOL     hw 2183   2.916   2.645   1.019  1.2357 -1.2960  0.5768
  546SOL     vw 2184   2.899   2.684   1.095  0.7672 -0.5205  0.0868
  547SOL     ow 2185   1.938   6.641   1.150  0.0681 -0.2766  0.2456
  547SOL     hw 2186   1.957   6.717   1.097 -0.5249 -1.0132 -1.0695
  547SOL     hw 2187   1.851   6.612   1.121 -0.9945  0.1958  2.7029
  547SOL     vw 2188   1.929   6.647   1.139 -0.1504 -0.3119  0.3963
  548SOL     ow 2189   2.877   5.863   6.146  0.0064 -0.2500  0.5066
  548SOL     hw 2190   2.899   5.894   6.058 -1.0914  0.7249  0.5509
  548SOL     hw 2191   2.837   5.777   6.131  0.5592 -0.4477  0.1295
  548SOL     vw 2192   2.874   5.856   6.132 -0.0654 -0.1476  0.4630
  549SOL     ow 2193   4.900   7.198   3.558 -0.3924  0.2045 -0.3874
  549SOL     hw 2194   4.854   7.170   3.479 -0.5244 -1.8087  0.3282
  549SOL     hw 2195   4.915   7.292   3.546 -0.7450  0.0275 -2.6054
  549SOL     vw 2196   4.896   7.207   3.546 -0.4563 -0.0846 -0.5856
  550SOL     ow 2197   1.858   5.654   5.582 -0.3885 -0.3639  0.0442
  550SOL     hw 2198   1.763   5.654   5.572 -0.5434  1.2678  1.0821
  550SOL     hw 2199   1.884   5.564   5.563 -2.1923 -0.9876  0.2984
  550SOL     vw 2200   1.849   5.642   5.578 -0.6469 -0.2310  0.2146
  551SOL     ow 2201   4.072   1.484   2.442 -1.1995  0.6221 -0.1812
  551SOL     hw 2202   3.985   1.515   2.414 -1.9452 -1.1313  0.0827
  551SOL     hw 2203   4.066   1.389   2.437  0.6390  0.4629  0.1225
  551SOL     vw 2204   4.060   1.476   2.437 -1.0555  0.3697 -0.1062
  552SOL     ow 2205   0.186   2.953   2.605 -0.0362  0.2230  0.0602
  552SOL     hw 2206   0.199   3.044   2.577  1.1015  0.4033  1.0918
  552SOL     hw 2207   0.094   2.935   2.584 -0.7281  2.1154  1.1578
  552SOL     vw 2208   0.175   2.963   2.599  0.0226  0.4964  0.3411
  553SOL     ow 2209   2.932   0.459   3.300  0.1554 -0.0210 -0.6739
  553SOL     hw 2210   2.860   0.523   3.301  0.0396 -0.1472 -0.9099
  553SOL     hw 2211   2.888   0.374   3.298  0.1509 -0.3425  3.7228
  553SOL     vw 2212   2.916   0.456   3.300  0.1395 -0.0801 -0.1251
  554SOL     ow 2213   5.284   2.736   1.187 -0.0729  0.8758 -0.3695
  554SOL     hw 2214   5.375   2.716   1.164 -0.4575 -0.7621 -0.5795
  554SOL     hw 2215   5.234   2.717   1.108 -0.8628 -0.4682  0.4188
  554SOL     vw 2216   5.290   2.731   1.174 -0.2277  0.4823 -0.2932
  555SOL     ow 2217   1.459   1.911   0.317  0.2175  0.2427 -0.4995
  555SOL     hw 2218   1.374   1.954   0.331  0.0036 -0.9463  2.3210
  555SOL     hw 2219   1.523   1.974   0.350  0.1572 -0.1673  0.4281
  555SOL     vw 2220   1.456   1.925   0.323  0.1813  0.0317 -0.0050
  556SOL     ow 2221   2.076   6.663   1.454  0.0431 -0.1865 -0.5343
  556SOL     hw 2222   2.133   6.670   1.531 -0.0452 -0.1948 -0.4690
  556SOL     hw 2223   2.057   6.754   1.430  1.3663 -0.1410 -1.5008
  556SOL     vw 2224   2.081   6.676   1.461  0.2060 -0.1819 -0.6531
  557SOL     ow 2225   6.647   2.092   5.922  0.4992  0.5419  0.0788
  557SOL     hw 2226   6.561   2.126   5.898  1.3396  2.8947  0.1343
  557SOL     hw 2227   6.654   2.009   5.876 -1.7154  0.3612 -0.0459
  557SOL     vw 2228   6.636   2.086   5.913  0.3181  0.8285  0.0696
  558SOL     ow 2229   3.701   6.495   1.003 -0.3518  0.1419  0.4051
  558SOL     hw 2230   3.696   6.590   1.008  2.0996  0.2830  1.6645
  558SOL     hw 2231   3.630   6.470   0.944 -0.3356  2.8246 -0.8860
  558SOL     vw 2232   3.691   6.504   0.996 -0.0261  0.5145  0.4009
  559SOL     ow 2233   0.307   4.961   4.958  0.2002  0.1368 -0.2300
  559SOL     hw 2234   0.242   4.966   4.887 -1.3246  1.8913  1.1958
  559SOL     hw 2235   0.377   5.019   4.929 -0.7331  1.4044 -0.0509
  559SOL     vw 2236   0.307   4.969   4.945 -0.1241  0.5355 -0.0181
  560SOL     ow 2237   1.383   2.391   3.360  0.3357  0.2673 -0.4693
  560SOL     hw 2238   1.461   2.442   3.336  1.3809 -1.5018 -0.9927
  560SOL     hw 2239   1.382   2.318   3.298 -0.2752 -1.1579  1.1443
  560SOL     vw 2240   1.394   2.388   3.349  0.3930 -0.1541 -0.3256
  561SOL     ow 2241   7.286   0.028   4.764  0.2665 -0.1112  0.1010
  561SOL     hw 2242   7.276   0.088   4.690  0.9372 -0.3610 -0.1968
  561SOL     hw 2243   7.328   0.080   4.832 -3.3161  1.1547  1.6123
  561SOL     vw 2244   7.290   0.043   4.763 -0.1175  0.0229  0.2611
  562SOL     ow 2245   6.309   0.424   7.462  0.5011 -0.9116 -0.3261
  562SOL     hw 2246   6.295   0.354   7.526  1.2464  0.5868  1.5549
  562SOL     hw 2247   6.400   0.411   7.433  1.0508 -0.0375  0.9429
  562SOL     vw 2248   6.319   0.413   7.466  0.6719 -0.5986  0.0892
  563SOL     ow 2249   7.424   5.892   5.821 -0.1080  0.7726 -0.4139
  563SOL     hw 2250   7.365   5.930   5.887 -0.8369  2.0568 -1.7572
  563SOL     hw 2251   7.501   5.864   5.871 -0.4172  2.1809  0.9207
  563SOL     vw 2252   7.426   5.893   5.837 -0.2453  1.1277 -0.4148
  564SOL     ow 2253   3.464   5.075   4.314  0.2756 -0.1653  0.1635
  564SOL     hw 2254   3.480   5.107   4.403  3.5360 -0.3603 -0.2441
  564SOL     hw 2255   3.413   4.995   4.326 -1.6020  1.1584  1.6322
  564SOL     vw 2256   3.459   5.069   4.328  0.4581 -0.0162  0.3035
  565SOL     ow 2257   0.743   4.748   3.852 -0.0212 -0.4993 -0.9582
  565SOL     hw 2258   0.727   4.734   3.945 -0.1770 -3.0067 -1.3046
  565SOL     hw 2259   0.682   4.818   3.828 -0.3383 -0.1703  0.6993
  565SOL     vw 2260   0.733   4.756   3.861 -0.0837 -0.7868 -0.7852
  566SOL     ow 2261   1.113   5.769   6.983  1.0259  0.2683  0.4402
  566SOL     hw 2262   1.036   5.799   6.934 -0.2041 -1.5569  1.1546
  566SOL     hw 2263   1.164   5.720   6.919  0.5114 -0.2908  0.4473
  566SOL     vw 2264   1.110   5.767   6.968  0.7958 -0.0463  0.5355
  567SOL     ow 2265   3.320   1.184   6.418  0.3827  0.2084 -1.2583
  567SOL     hw 2266   3.393   1.149   6.470  0.2953 -0.3706 -1.5238
  567SOL     hw 2267   3.261   1.222   6.483 -0.1974 -1.3598 -0.8137
  567SOL     vw 2268   3.322   1.184   6.434  0.2947 -0.0750 -1.2348
  568SOL     ow 2269   6.536   7.417   2.108 -0.3448  0.1279  0.8078
  568SOL     hw 2270   6.540   7.344   2.047  0.7693 -0.4608  1.5593
  568SOL     hw 2271   6.514   7.493   2.053 -2.1781 -0.8414  0.1198
  568SOL     vw 2272   6.533   7.418   2.092 -0.4399 -0.0777  0.8161
  569SOL     ow 2273   7.249   4.466   5.159 -0.1890  1.0477  0.1881
  569SOL     hw 2274   7.304   4.389   5.174  0.6285  1.1283 -2.0334
  569SOL     hw 2275   7.167   4.447   5.204  1.0985  0.2737  2.3274
  569SOL     vw 2276   7.246   4.453   5.167  0.0885  0.9563  0.1771
  570SOL     ow 2277   4.898   4.615   4.488  0.2603 -0.2398 -0.4706
  570SOL     hw 2278   4.819   4.577   4.528  1.1988 -0.5643  1.1628
  570SOL     hw 2279   4.884   4.604   4.394 -0.8037 -2.0232 -0.1696
  570SOL     vw 2280   4.886   4.608   4.481  0.2434 -0.5178 -0.2153
  571SOL     ow 2281   2.553   0.063   5.095 -0.2373 -0.3425  0.9150
  571SOL     hw 2282   2.614   0.079   5.167  0.2938 -1.8201  0.8398
  571SOL     hw 2283   2.609   0.033   5.023 -0.9973 -1.2045  0.6632
  571SOL     vw 2284   2.569   0.061   5.095 -0.2675 -0.6514  0.8719
  572SOL     ow 2285   5.967   3.824   4.051 -0.1530  0.4094  0.4440
  572SOL     hw 2286   6.024   3.883   4.100 -2.2912  1.8139  1.3751
  572SOL     hw 2287   5.880   3.863   4.058 -1.2922 -1.7269 -0.7661
  572SOL     vw 2288   5.963   3.837   4.058 -0.5851  0.3129  0.4070
  573SOL     ow 2289   4.010   1.860   6.135  0.1752 -0.0278  0.0555
  573SOL     hw 2290   3.960   1.914   6.074 -0.2015  0.8635  1.1169
  573SOL     hw 2291   3.943   1.811   6.184  0.2631  1.4324  1.7288
  573SOL     vw 2292   3.994   1.860   6.133  0.1371  0.2825  0.4163
  574SOL     ow 2293   6.097   3.669   0.338  0.6852  0.5960 -0.0873
  574SOL     hw 2294   6.141   3.648   0.421 -1.5222 -2.6375  0.4683
  574SOL     hw 2295   6.055   3.587   0.312  0.4550  1.7547 -3.9588
  574SOL     vw 2296   6.097   3.655   0.345  0.3633  0.3223 -0.5248
  575SOL     ow 2297   5.228   0.801   6.963 -0.0793 -0.7580  0.2731
  575SOL     hw 2298   5.316   0.835   6.947 -0.3469  0.1175  0.5766
  575SOL     hw 2299   5.233   0.708   6.942  0.5612 -0.4398 -1.0857
  575SOL     vw 2300   5.240   0.793   6.958 -0.0303 -0.6005  0.1338
  576SOL     ow 2301   5.739   4.244   4.948 -0.2167  0.6857  0.1861
  576SOL     hw 2302   5.815   4.303   4.952  0.6717 -0.4397  0.2728
  576SOL     hw 2303   5.698   4.265   4.864  1.3291 -0.0368 -0.7959
  576SOL     vw 2304   5.744   4.255   4.938  0.1047  0.4423  0.0679
  577SOL     ow 2305   6.330   2.076   3.406  0.2149  0.0536 -0.1591
  577SOL     hw 2306   6.380   2.089   3.486 -0.4939  1.8538  0.0372
  577SOL     hw 2307   6.299   1.985   3.412  0.9180 -0.1229  1.1649
  577SOL     vw 2308   6.332   2.066   3.417  0.2141  0.2679  0.0414
  578SOL     ow 2309   3.123   7.536   5.707  0.6871  0.3818 -0.2560
  578SOL     hw 2310   3.037   7.537   5.666  0.9312  0.4191 -0.7780
  578SOL     hw 2311   3.130   7.450   5.748 -1.0722  1.6004  3.0221
  578SOL     vw 2312   3.113   7.525   5.707  0.4872  0.5476  0.1075
  579SOL     ow 2313   0.296   5.251   0.639 -0.5738  0.1712  1.3133
  579SOL     hw 2314   0.278   5.345   0.643 -0.7472  0.2247 -0.0515
  579SOL     hw 2315   0.374   5.243   0.584 -0.9956 -0.5024  0.7779
  579SOL     vw 2316   0.304   5.262   0.632 -0.6524  0.0894  1.0625
  580SOL     ow 2317   1.039   2.586   2.062 -0.9478 -0.9030  0.0300
  580SOL     hw 2318   1.049   2.668   2.112 -1.1447  1.0159 -2.8566
  580SOL     hw 2319   0.946   2.565   2.070 -1.6747  1.1469 -1.9131
  580SOL     vw 2320   1.028   2.594   2.070 -1.0697 -0.3794 -0.6073
  581SOL     ow 2321   7.485   3.110   3.489 -0.3557 -0.0242 -0.3965
  581SOL     hw 2322   7.429   3.160   3.549 -0.3545  1.0135 -1.2213
  581SOL     hw 2323   7.555   3.171   3.465 -0.3162 -0.4336 -1.3839
  581SOL     vw 2324   7.487   3.125   3.493 -0.3504  0.0585 -0.6357
  582SOL     ow 2325   1.831   2.841   3.176  0.4135  0.2969 -0.3139
  582SOL     hw 2326   1.866   2.902   3.112 -0.1693  0.5952 -0.3614
  582SOL     hw 2327   1.810   2.895   3.252  0.3620  0.0731 -0.1663
  582SOL     vw 2328   1.833   2.856   3.177  0.3298  0.3066 -0.3006
  583SOL     ow 2329   0.779   2.154   1.058  1.1228 -0.6871  0.6057
  583SOL     hw 2330   0.729   2.072   1.053  0.5977 -0.3482  0.2528
  583SOL     hw 2331   0.785   2.185   0.968 -1.2966  1.1938  0.9603
  583SOL     vw 2332   0.773   2.147   1.046  0.7344 -0.3941  0.6059
  584SOL     ow 2333   7.564   5.191   4.997  0.4132  0.4208 -0.5190
  584SOL     hw 2334   7.507   5.244   5.052  1.3694  1.9037 -0.9091
  584SOL     hw 2335   7.533   5.101   5.010 -0.7602  0.9773  0.7403
  584SOL     vw 2336   7.552   5.186   5.006  0.3846  0.6897 -0.4044
  585SOL     ow 2337   5.536   7.211   3.191 -0.2321 -0.1427 -0.1599
  585SOL     hw 2338   5.539   7.304   3.215  2.8212  0.0363 -0.8591
  585SOL     hw 2339   5.606   7.201   3.126  1.0523 -3.3715  1.5239
  585SOL     vw 2340   5.546   7.222   3.185  0.3400 -0.5450 -0.0300
  586SOL     ow 2341   3.242   3.501   2.776  0.2251 -0.6587 -0.1883
  586SOL     hw 2342   3.222   3.417   2.736 -3.5587 -0.4237  0.8010
  586SOL     hw 2343   3.185   3.563   2.732  2.3680  1.3440 -0.3675
  586SOL     vw 2344   3.232   3.498   2.765  0.0086 -0.3635 -0.0814
  587SOL     ow 2345   5.102   4.327   5.399 -0.1122 -0.2525 -0.6102
  587SOL     hw 2346   5.195   4.309   5.418  0.1383  0.7369 -0.8616
  587SOL     hw 2347   5.093   4.312   5.305 -0.2971 -0.6868 -0.5276
  587SOL     vw 2348   5.113   4.323   5.389 -0.1040 -0.1795 -0.6325
  588SOL     ow 2349   6.136   3.802   2.361 -0.5410 -0.4641  0.2799
  588SOL     hw 2350   6.068   3.804   2.294  0.4287  0.2200 -0.7155
  588SOL     hw 2351   6.206   3.750   2.322 -0.6901 -1.6558  1.5191
  588SOL     vw 2352   6.136   3.795   2.347 -0.4325 -0.5311  0.3120
  589SOL     ow 2353   0.429   1.514   3.678  0.5115  0.9017 -0.0481
  589SOL     hw 2354   0.377   1.493   3.600  0.3980 -1.7683  0.6511
  589SOL     hw 2355   0.364   1.539   3.743  0.3519  0.3991 -0.0110
  589SOL     vw 2356   0.414   1.514   3.676  0.4755  0.4830  0.0490
  590SOL     ow 2357   6.671   6.878   5.274 -0.0555  0.6987 -0.0331
  590SOL     hw 2358   6.737   6.812   5.253 -0.9906 -0.8194  1.5302
  590SOL     hw 2359   6.720   6.954   5.304  1.0339  0.6165 -1.4884
  590SOL     vw 2360   6.686   6.879   5.275 -0.0350  0.4873 -0.0188
  591SOL     ow 2361   7.416   2.880   5.956 -0.4977 -0.0153  0.5558
  591SOL     hw 2362   7.400   2.877   5.862 -0.5044  0.3989  0.5421
  591SOL     hw 2363   7.506   2.849   5.967 -1.5243 -3.4466  0.7197
  591SOL     vw 2364   7.426   2.875   5.945 -0.6342 -0.4134  0.5755
  592SOL     ow 2365   4.863   2.967   3.179 -0.2343  0.0723 -0.0427
  592SOL     hw 2366   4.840   3.051   3.220 -3.1644 -0.4859 -0.2946
  592SOL     hw 2367   4.943   2.986   3.130 -0.1974  2.4310  0.7578
  592SOL     vw 2368   4.870   2.981   3.178 -0.6158  0.3098  0.0296
  593SOL     ow 2369   4.985   1.301   4.318  0.1668 -0.2826 -0.4688
  593SOL     hw 2370   5.044   1.289   4.392 -1.8033 -1.1722  1.0354
  593SOL     hw 2371   4.971   1.213   4.283  0.2280  0.0001 -1.2360
  593SOL     vw 2372   4.991   1.288   4.323 -0.0849 -0.3627 -0.3719
  594SOL     ow 2373   1.667   2.199   5.820 -0.1189 -0.2047 -1.1801
  594SOL     hw 2374   1.744   2.142   5.818 -0.6758 -1.0868  0.2698
  594SOL     hw 2375   1.612   2.167   5.749 -0.1876 -1.1791 -0.7185
  594SOL     vw 2376   1.670   2.187   5.811 -0.2014 -0.4497 -0.9279
  595SOL     ow 2377   0.611   4.794   4.362  0.5034  0.5302 -0.2951
  595SOL     hw 2378   0.679   4.805   4.295 -0.6734  1.0513 -1.4596
  595SOL     hw 2379   0.633   4.711   4.404  1.6084  0.4653 -0.9423
  595SOL     vw 2380   0.623   4.784   4.358  0.4939  0.5903 -0.5341
  596SOL     ow 2381   1.448   2.590   4.708  0.0045  1.0670 -0.0554
  596SOL     hw 2382   1.397   2.661   4.667  0.2497  0.9797 -0.5262
  596SOL     hw 2383   1.402   2.510   4.682  0.0829  1.0182 -0.0428
  596SOL     vw 2384   1.435   2.589   4.699  0.0472  1.0492 -0.1156
  597SOL     ow 2385   5.928   7.047   3.788  0.5614  0.1889  0.0352
  597SOL     hw 2386   6.007   7.082   3.830  0.8506 -0.0269 -0.3178
  597SOL     hw 2387   5.936   6.952   3.799  1.2085  0.0470 -1.4710
  597SOL     vw 2388   5.940   7.039   3.795  0.6850  0.1416 -0.2100
  598SOL     ow 2389   0.048   5.920   0.176 -0.1849 -0.4196  0.2750
  598SOL     hw 2390   0.063   5.947   0.086  1.4620 -1.7759  0.1001
  598SOL     hw 2391   0.068   5.998   0.228  1.6428 -0.4074 -0.3807
  598SOL     vw 2392   0.053   5.934   0.171  0.2737 -0.5972  0.1654
  599SOL     ow 2393   3.675   4.079   0.635  0.2128  0.0523  0.6975
  599SOL     hw 2394   3.608   4.044   0.576  0.7961 -1.3810  0.8481
  599SOL     hw 2395   3.737   4.007   0.646  1.6446  1.2642  0.7830
  599SOL     vw 2396   3.674   4.065   0.629  0.4786  0.0234  0.7286
  600SOL     ow 2397   0.387   3.340   0.112  0.8843 -0.4549  0.5802
  600SOL     hw 2398   0.463   3.388   0.145  0.2305  0.7007  0.4707
  600SOL     hw 2399   0.314   3.372   0.165  0.2698 -0.6161 -0.1454
  600SOL     vw 2400   0.387   3.350   0.124  0.7169 -0.3238  0.4700
  601SOL     ow 2401   6.476   1.661   3.942 -0.1527  0.4173 -0.0036
  601SOL     hw 2402   6.440   1.574   3.923  1.3509  0.0159 -1.2573
  601SOL     hw 2403   6.432   1.720   3.881  0.4403  0.1233 -0.7354
  601SOL     vw 2404   6.466   1.657   3.931  0.1237  0.3256 -0.2656
  602SOL     ow 2405   5.057   1.214   2.780 -0.3257  0.4606  0.6671
  602SOL     hw 2406   5.035   1.295   2.736 -0.9542  0.1908  0.4756
  602SOL     hw 2407   5.150   1.199   2.759 -0.2279  1.0866  0.6527
  602SOL     vw 2408   5.067   1.223   2.771 -0.3958  0.5076  0.6399
  603SOL     ow 2409   0.262   3.553   2.187  0.2932 -0.2160 -0.7311
  603SOL     hw 2410   0.197   3.606   2.140 -1.8873 -3.5731 -1.8514
  603SOL     hw 2411   0.301   3.498   2.119  0.8669 -1.5566  0.6464
  603SOL     vw 2412   0.258   3.553   2.171  0.0812 -0.8359 -0.6973
  604SOL     ow 2413   2.012   3.473   3.689 -0.8181 -0.2227 -0.6051
  604SOL     hw 2414   1.964   3.484   3.607 -2.2278  0.7930  0.3173
  604SOL     hw 2415   1.972   3.536   3.749  0.8590 -0.2252  0.5772
  604SOL     vw 2416   2.000   3.482   3.686 -0.7828 -0.0890 -0.3273
  605SOL     ow 2417   6.575   1.147   0.732 -0.1331  0.6240 -0.4744
  605SOL     hw 2418   6.544   1.232   0.701 -1.3217  0.7842  1.0407
  605SOL     hw 2419   6.612   1.165   0.818  0.4046 -0.2690 -0.5073
  605SOL     vw 2420   6.575   1.161   0.739 -0.2189  0.5273 -0.2789
  606SOL     ow 2421   4.591   0.903   0.375  0.1278  0.6348  0.1000
  606SOL     hw 2422   4.600   0.948   0.291 -0.5643  0.3099 -0.1498
  606SOL     hw 2423   4.630   0.964   0.439  1.2396  0.6126 -0.5264
  606SOL     vw 2424   4.597   0.917   0.372  0.1831  0.5890 -0.0156
  607SOL     ow 2425   4.325   0.748   0.419  0.2409  0.6948  0.0316
  607SOL     hw 2426   4.314   0.662   0.377 -0.5204 -0.0389  1.6322
  607SOL     hw 2427   4.393   0.791   0.368 -1.6012  0.4505 -2.8268
  607SOL     vw 2428   4.332   0.742   0.407 -0.1025  0.5658 -0.1344
  608SOL     ow 2429   1.849   3.190   7.045 -0.4011  0.4384 -0.2369
  608SOL     hw 2430   1.932   3.238   7.048 -0.5882  0.8572 -1.3036
  608SOL     hw 2431   1.782   3.259   7.041 -0.7652  0.0984 -0.0449
  608SOL     vw 2432   1.851   3.206   7.045 -0.4738  0.4488 -0.3521
  609SOL     ow 2433   7.115   1.777   1.257  0.2287 -0.4629  0.9258
  609SOL     hw 2434   7.188   1.819   1.301 -0.0714  0.9288  0.1467
  609SOL     hw 2435   7.155   1.704   1.209  0.9168 -0.4325  1.4474
  609SOL     vw 2436   7.130   1.773   1.256  0.2799 -0.2753  0.8918
  610SOL     ow 2437   4.453   6.808   6.129 -0.1314 -0.3060  0.3016
  610SOL     hw 2438   4.430   6.734   6.073 -0.3552 -1.0707  1.3634
  610SOL     hw 2439   4.369   6.851   6.147  0.2016  1.5357 -2.0148
  610SOL     vw 2440   4.439   6.804   6.124 -0.1171 -0.1636  0.1361
  611SOL     ow 2441   1.220   4.954   1.281 -0.5556  0.1307 -0.6101
  611SOL     hw 2442   1.172   4.878   1.248 -2.2100  1.5177 -1.5656
  611SOL     hw 2443   1.310   4.940   1.252 -0.8070 -1.4893 -0.6944
  611SOL     vw 2444   1.226   4.942   1.273 -0.8070  0.1001 -0.7472
  612SOL     ow 2445   0.426   1.774   3.225  0.0447  0.7021  0.2618
  612SOL     hw 2446   0.346   1.770   3.278  0.3855 -0.2270  0.7295
  612SOL     hw 2447   0.474   1.850   3.257 -0.0135  0.4694  0.9071
  612SOL     vw 2448   0.421   1.783   3.236  0.0820  0.5488  0.4085
  613SOL     ow 2449   4.099   1.786   5.251  0.1692 -0.3137  0.1345
  613SOL     hw 2450   4.032   1.721   5.231 -0.4694  0.4092 -0.1346
  613SOL     hw 2451   4.168   1.771   5.186 -0.3454 -0.1875 -0.4488
  613SOL     vw 2452   4.099   1.775   5.240  0.0172 -0.2016  0.0217
  614SOL     ow 2453   1.940   2.236   0.923  0.9813  1.1416 -0.1305
  614SOL     hw 2454   1.864   2.279   0.885 -0.6698 -0.1620  1.5134
  614SOL     hw 2455   1.925   2.238   1.017  2.0141 -0.8125  0.1424
  614SOL     vw 2456   1.928   2.242   0.930  0.8997  0.7117  0.1224
  615SOL     ow 2457   4.497   5.539   3.982  0.3353  0.8473 -0.2307
  615SOL     hw 2458   4.426   5.486   3.946  0.9423  0.0513 -0.2811
  615SOL     hw 2459   4.520   5.496   4.064  1.9896 -0.0277 -1.0865
  615SOL     vw 2460   4.491   5.526   3.988  0.6335  0.6270 -0.3501
  616SOL     ow 2461   5.623   0.379   1.376  0.1208  0.6425 -0.3321
  616SOL     hw 2462   5.591   0.331   1.452  2.5201  1.7080  1.4993
  616SOL     hw 2463   5.697   0.326   1.344 -0.4751  0.5246 -1.6013
  616SOL     vw 2464   5.629   0.365   1.382  0.3588  0.7675 -0.2578
  617SOL     ow 2465   2.044   7.195   6.567 -0.7925 -0.3523 -0.6916
  617SOL     hw 2466   2.089   7.185   6.651 -1.7320  3.8637  0.5338
  617SOL     hw 2467   1.954   7.167   6.584 -0.0228 -4.1323 -1.8290
  617SOL     vw 2468   2.038   7.190   6.580 -0.8147 -0.2949 -0.6795
  618SOL     ow 2469   2.109   0.775   4.982 -0.1630 -0.2771 -0.5069
  618SOL     hw 2470   2.025   0.782   5.028 -1.0658 -0.1390 -2.1015
  618SOL     hw 2471   2.139   0.865   4.972  0.3519 -0.3455  0.3418
  618SOL     vw 2472   2.102   0.788   4.987 -0.2142 -0.2679 -0.6053
  619SOL     ow 2473   4.453   6.613   1.890  0.5581 -1.3004 -0.3768
  619SOL     hw 2474   4.463   6.521   1.916 -1.2123 -2.1441 -2.3647
  619SOL     hw 2475   4.359   6.622   1.872  0.7026  0.9150 -0.2838
  619SOL     vw 2476   4.442   6.602   1.891  0.3436 -1.1196 -0.6269
  620SOL     ow 2477   5.447   0.438   1.192 -0.0120 -0.3144  0.3086
  620SOL     hw 2478   5.515   0.423   1.256 -1.1166 -1.8328  1.1737
  620SOL     hw 2479   5.373   0.473   1.242  0.3666  2.2547 -0.7441
  620SOL     vw 2480   5.446   0.441   1.207 -0.1080 -0.1758  0.2838
  621SOL     ow 2481   3.221   6.684   7.514  0.3473  0.5400  0.1215
  621SOL     hw 2482   3.259   6.687   7.602 -1.3879  0.9054  0.8943
  621SOL     hw 2483   3.263   6.608   7.473  3.4551  2.1078  0.1170
  621SOL     vw 2484   3.231   6.674   7.521  0.5286  0.7949  0.2229
  622SOL     ow 2485   1.019   6.555   3.386 -0.0880  0.0992 -0.4234
  622SOL     hw 2486   0.965   6.489   3.430  1.7249  0.2490  2.2619
  622SOL     hw 2487   0.977   6.638   3.406  1.7567  0.3822  3.0782
  622SOL     vw 2488   1.007   6.557   3.395  0.3945  0.1564  0.3928
  623SOL     ow 2489   5.014   5.799   1.374 -0.5416 -0.2196  0.5770
  623SOL     hw 2490   5.077   5.860   1.335 -0.4637 -0.1160  0.8587
  623SOL     hw 2491   5.043   5.712   1.345 -0.9335 -0.0886 -0.2113
  623SOL     vw 2492   5.026   5.795   1.365 -0.5829 -0.1886  0.5102
  624SOL     ow 2493   2.786   5.143   1.006 -0.6188  0.3568  0.7056
  624SOL     hw 2494   2.732   5.168   0.932 -0.0103 -0.7601 -0.1405
  624SOL     hw 2495   2.723   5.123   1.076 -1.1773  1.9337  0.6873
  624SOL     vw 2496   2.770   5.143   1.006 -0.6121  0.4177  0.5915
  625SOL     ow 2497   2.279   5.777   2.166 -1.5607 -0.0463 -0.0013
  625SOL     hw 2498   2.299   5.737   2.251 -2.1152  2.9923  1.7230
  625SOL     hw 2499   2.364   5.783   2.122 -1.0203 -0.3900  0.9628
  625SOL     vw 2500   2.293   5.773   2.171 -1.5626  0.3090  0.3535
  626SOL     ow 2501   4.755   6.064   0.321 -0.0767 -0.1376  0.0363
  626SOL     hw 2502   4.753   6.128   0.250  1.5924 -0.3864 -0.2891
  626SOL     hw 2503   4.679   6.085   0.374 -2.2060 -0.8067 -2.5359
  626SOL     vw 2504   4.745   6.075   0.318 -0.1373 -0.2584 -0.3460
  627SOL     ow 2505   2.643   3.118   3.453  0.0969  0.6761 -0.2629
  627SOL     hw 2506   2.585   3.134   3.528 -0.6856  0.4068 -0.8024
  627SOL     hw 2507   2.621   3.029   3.424 -0.7631  1.3704 -1.8191
  627SOL     vw 2508   2.633   3.108   3.459 -0.1198  0.7322 -0.5394
  628SOL     ow 2509   6.779   2.314   0.414 -0.2548  0.4536  0.3750
  628SOL     hw 2510   6.865   2.276   0.395 -0.5015 -0.2684  0.6439
  628SOL     hw 2511   6.727   2.239   0.443 -0.5394  1.1205  1.6639
  628SOL     vw 2512   6.784   2.299   0.416 -0.3247  0.4463  0.5805
  629SOL     ow 2513   4.195   6.179   5.965  0.1918  0.2210  0.4505
  629SOL     hw 2514   4.111   6.178   6.012 -0.3077 -1.8646 -0.3796
  629SOL     hw 2515   4.179   6.233   5.888  0.2215  1.4266  1.2592
  629SOL     vw 2516   4.182   6.186   5.961  0.1297  0.1051  0.4475
  630SOL     ow 2517   5.467   1.301   1.884  1.2019  0.1874 -0.0330
  630SOL     hw 2518   5.491   1.301   1.791  1.0239 -0.2440 -0.0809
  630SOL     hw 2519   5.541   1.258   1.927  0.9630 -0.2551 -0.0621
  630SOL     vw 2520   5.480   1.296   1.877  1.1468  0.0721 -0.0431
  631SOL     ow 2521   6.995   3.085   7.475  0.1085  0.3136 -0.2956
  631SOL     hw 2522   7.061   3.018   7.489 -1.1955 -0.7518  1.0209
  631SOL     hw 2523   6.932   3.073   7.546 -2.6460 -0.1108 -2.6120
  631SOL     vw 2524   6.995   3.075   7.486 -0.4270  0.1169 -0.4275
  632SOL     ow 2525   7.039   6.673   3.294 -0.2857 -0.5103 -0.4488
  632SOL     hw 2526   6.980   6.641   3.363  0.2582  0.1367  0.3257
  632SOL     hw 2527   7.015   6.765   3.282  1.5089  0.1757  0.9087
  632SOL     vw 2528   7.028   6.681   3.301  0.0229 -0.3345 -0.1674
  633SOL     ow 2529   3.202   2.707   0.993 -0.1796 -0.1086  0.5097
  633SOL     hw 2530   3.176   2.678   1.080 -1.8638  1.0214  0.4531
  633SOL     hw 2531   3.291   2.674   0.981 -0.6106 -1.9251  1.8739
  633SOL     vw 2532   3.210   2.699   1.003 -0.4587 -0.1992  0.6822
  634SOL     ow 2533   5.606   2.162   2.280 -0.1083  0.3831 -0.4331
  634SOL     hw 2534   5.534   2.218   2.308 -1.6773 -1.5751 -0.3055
  634SOL     hw 2535   5.625   2.189   2.191 -1.2601  0.6908 -0.5934
  634SOL     vw 2536   5.599   2.173   2.272 -0.4675  0.1655 -0.4376
  635SOL     ow 2537   3.831   3.579   3.833  0.2872 -0.0497 -0.2070
  635SOL     hw 2538   3.876   3.508   3.787  1.3323 -0.8356  1.9064
  635SOL     hw 2539   3.792   3.537   3.910 -0.3820  1.4074  0.2800
  635SOL     vw 2540   3.832   3.564   3.837  0.3369  0.0387  0.1361
  636SOL     ow 2541   2.261   0.793   7.586  0.1295  0.0549  0.1557
  636SOL     hw 2542   2.184   0.839   7.553  0.6824  0.7937 -0.1307
  636SOL     hw 2543   2.241   0.778   7.679 -0.3530  0.2502  0.0899
  636SOL     vw 2544   2.248   0.797   7.594  0.1388  0.1782  0.1092
  637SOL     ow 2545   0.500   4.016   3.666  0.4245  0.6862 -0.2717
  637SOL     hw 2546   0.535   4.007   3.755 -3.3352  0.3021  1.3520
  637SOL     hw 2547   0.549   4.090   3.629  1.3446  1.6326  2.5361
  637SOL     vw 2548   0.511   4.025   3.673  0.0498  0.7601  0.3129
  638SOL     ow 2549   3.119   4.125   5.057  0.7348 -0.6323 -0.0331
  638SOL     hw 2550   3.050   4.116   4.991 -1.9512  1.1909  2.3075
  638SOL     hw 2551   3.171   4.200   5.027  0.6221 -0.8866 -0.9023
  638SOL     vw 2552   3.117   4.133   5.044  0.3655 -0.4253  0.1609
  639SOL     ow 2553   1.632   4.995   6.713 -0.3043  0.0231 -0.1222
  639SOL     hw 2554   1.618   5.088   6.727 -1.2227 -0.4374  2.6478
  639SOL     hw 2555   1.673   4.964   6.794  0.3955 -1.9177 -1.1363
  639SOL     vw 2556   1.636   5.003   6.726 -0.3331 -0.2940  0.1094
  640SOL     ow 2557   7.316   3.281   1.517 -0.4922  0.2044 -0.3876
  640SOL     hw 2558   7.229   3.245   1.534 -1.2725  1.3762 -1.7218
  640SOL     hw 2559   7.304   3.376   1.527  1.3038  0.2736  2.2030
  640SOL     vw 2560   7.303   3.289   1.521 -0.3583  0.3682 -0.2218
  641SOL     ow 2561   3.018   4.272   5.306  0.4280 -0.0379 -0.1152
  641SOL     hw 2562   3.039   4.353   5.259  1.6321  0.5540  1.3642
  641SOL     hw 2563   3.019   4.297   5.398 -0.6853 -1.4310  0.3012
  641SOL     vw 2564   3.021   4.286   5.312  0.4399 -0.1438  0.1349
  642SOL     ow 2565   1.890   4.035   5.952 -1.0860 -0.0608 -0.1502
  642SOL     hw 2566   1.877   4.074   6.038 -0.5002 -0.1446 -0.0170
  642SOL     hw 2567   1.966   3.978   5.963 -0.6940  0.3151 -0.8456
  642SOL     vw 2568   1.898   4.033   5.965 -0.9570 -0.0224 -0.2241
  643SOL     ow 2569   3.278   4.336   5.017  0.5206  0.7866  0.2574
  643SOL     hw 2570   3.368   4.309   4.998  0.3814  1.1955 -1.1288
  643SOL     hw 2571   3.277   4.430   5.001 -1.1845  0.2129 -4.7094
  643SOL     vw 2572   3.290   4.344   5.012  0.2770  0.7646 -0.5805
  644SOL     ow 2573   6.808   6.436   1.033  0.0400  0.3092 -0.3088
  644SOL     hw 2574   6.751   6.381   0.980  1.7713 -0.7212 -1.1843
  644SOL     hw 2575   6.862   6.482   0.970  0.5442  0.8719  0.5092
  644SOL     vw 2576   6.808   6.435   1.018  0.3350  0.2477 -0.3164
  645SOL     ow 2577   0.673   4.422   7.288 -0.8216 -0.0441  0.1679
  645SOL     hw 2578   0.605   4.473   7.244 -0.5115  1.2936  1.1725
  645SOL     hw 2579   0.755   4.455   7.250 -0.4894  1.7616  2.2496
  645SOL     vw 2580   0.675   4.433   7.277 -0.7368  0.3705  0.5751
  646SOL     ow 2581   2.414   0.954   2.257  0.2836 -0.4217 -0.1793
  646SOL     hw 2582   2.494   0.998   2.228  0.9780 -2.2263 -1.1620
  646SOL     hw 2583   2.425   0.863   2.228 -0.2439 -1.7434  3.3269
  646SOL     vw 2584   2.426   0.948   2.249  0.3057 -0.8342  0.1537
  647SOL     ow 2585   6.442   5.471   0.933  0.6594 -0.2132 -0.4681
  647SOL     hw 2586   6.535   5.458   0.951  0.2329 -1.4611  1.1676
  647SOL     hw 2587   6.403   5.385   0.948 -0.9321  0.5713  0.1299
  647SOL     vw 2588   6.449   5.458   0.937  0.3932 -0.2744 -0.1734
  648SOL     ow 2589   4.530   7.340   7.143 -0.4640 -0.2838  0.0570
  648SOL     hw 2590   4.497   7.356   7.231 -1.5021  0.1134 -0.3980
  648SOL     hw 2591   4.568   7.423   7.115 -2.0730  0.2313 -0.6840
  648SOL     vw 2592   4.531   7.353   7.151 -0.8135 -0.1636 -0.1009
  649SOL     ow 2593   3.869   2.935   0.172  0.1211 -0.1184 -0.2850
  649SOL     hw 2594   3.957   2.920   0.137  0.4612 -1.3039  0.9826
  649SOL     hw 2595   3.813   2.943   0.094  1.4120  1.2886 -1.1272
  649SOL     vw 2596   3.873   2.934   0.157  0.3362 -0.0892 -0.2289
  650SOL     ow 2597   6.056   7.551   1.244 -0.4263 -0.7733  0.2914
  650SOL     hw 2598   6.012   7.520   1.323 -3.0940  0.1428 -0.7326
  650SOL     hw 2599   6.041   7.482   1.180  1.8083 -1.5570  0.5270
  650SOL     vw 2600   6.048   7.538   1.246 -0.4835 -0.7558  0.1873
  651SOL     ow 2601   4.040   7.532   0.223 -0.7213  0.0884  0.1282
  651SOL     hw 2602   4.008   7.575   0.143 -1.7062 -1.1160 -0.1584
  651SOL     hw 2603   3.960   7.513   0.272 -0.0371  3.2141  2.7441
  651SOL     vw 2604   4.025   7.535   0.219 -0.7608  0.3421  0.4355
  652SOL     ow 2605   1.197   0.468   3.103 -0.3197  0.3492  0.3284
  652SOL     hw 2606   1.141   0.394   3.081 -0.4800  0.7728 -0.7264
  652SOL     hw 2607   1.162   0.541   3.052  2.5632  0.1248 -2.2254
  652SOL     vw 2608   1.185   0.468   3.094  0.0395  0.3755 -0.1477
  653SOL     ow 2609   5.996   0.022   1.515  0.2787 -0.0569  0.1647
  653SOL     hw 2610   5.988   0.114   1.539 -1.0102 -0.1329  0.1045
  653SOL     hw 2611   6.072  -0.009   1.565  2.6614  1.7037 -2.0844
  653SOL     vw 2612   6.005   0.030   1.525  0.4230  0.1654 -0.1399
  654SOL     ow 2613   2.551   1.950   3.479 -0.4244  0.7335  0.2121
  654SOL     hw 2614   2.465   1.983   3.506 -1.0643 -0.1639 -0.6574
  654SOL     hw 2615   2.599   2.027   3.450  0.6434  1.9853  4.5237
  654SOL     vw 2616   2.546   1.964   3.479 -0.3680  0.7802  0.6661
  655SOL     ow 2617   4.007   5.318   1.703 -0.0982 -0.4824 -0.4633
  655SOL     hw 2618   3.930   5.352   1.658  0.0980  0.1589 -0.3259
  655SOL     hw 2619   4.070   5.300   1.633  1.8655  4.5161 -0.4002
  655SOL     vw 2620   4.005   5.320   1.688  0.1867  0.2618 -0.4368
  656SOL     ow 2621   1.332   5.044   1.549  0.2404 -0.5700  0.4130
  656SOL     hw 2622   1.426   5.034   1.533  0.2843 -1.4858  1.1899
  656SOL     hw 2623   1.291   5.020   1.465  0.6849 -0.1116  0.0548
  656SOL     vw 2624   1.339   5.040   1.536  0.3048 -0.6304  0.4682
  657SOL     ow 2625   4.127   6.322   5.725 -0.0960 -0.2038  0.3371
  657SOL     hw 2626   4.098   6.411   5.705  1.6327  0.1962 -0.5829
  657SOL     hw 2627   4.181   6.297   5.649 -1.9628 -2.7264 -0.2617
  657SOL     vw 2628   4.131   6.331   5.712 -0.1140 -0.4842  0.1369
  658SOL     ow 2629   2.970   7.384   7.411  0.3784  0.0426  0.4291
  658SOL     hw 2630   2.883   7.379   7.372  2.2471  0.2627 -4.3130
  658SOL     hw 2631   3.011   7.300   7.391  1.8806  0.6248  0.9126
  658SOL     vw 2632   2.963   7.373   7.404  0.8233  0.1485 -0.1328
  659SOL     ow 2633   6.949   7.464   2.717 -0.1893  0.2021 -0.2621
  659SOL     hw 2634   6.917   7.519   2.788 -0.0266 -1.4863  1.2093
  659SOL     hw 2635   7.021   7.414   2.755  2.3255  1.7330 -2.6493
  659SOL     vw 2636   6.954   7.464   2.731  0.1638  0.1812 -0.3829
  660SOL     ow 2637   0.001   5.776   5.483 -0.9760 -0.6217  0.2321
  660SOL     hw 2638   0.092   5.804   5.476 -0.2649 -2.6501  0.8613
  660SOL     hw 2639  -0.048   5.858   5.492  0.2650  0.8963 -4.1657
  660SOL     vw 2640   0.006   5.791   5.483 -0.7185 -0.6888 -0.2654
  661SOL     ow 2641   7.192   5.858   1.417  0.9034 -0.2175  0.2125
  661SOL     hw 2642   7.200   5.857   1.321  0.0463 -0.8943  0.1451
  661SOL     hw 2643   7.105   5.895   1.434  1.1304  0.0925  0.7455
  661SOL     vw 2644   7.182   5.863   1.406  0.8202 -0.2661  0.2740
  662SOL     ow 2645   7.507   3.701   3.979  0.3146 -0.0498  0.1231
  662SOL     hw 2646   7.446   3.675   3.910  1.0505 -0.7253 -0.2925
  662SOL     hw 2647   7.567   3.627   3.987  0.6850  0.3272  0.9825
  662SOL     vw 2648   7.507   3.688   3.971  0.4606 -0.0890  0.1817
  663SOL     ow 2649   3.377   4.839   5.232 -0.2048 -0.3985 -0.0102
  663SOL     hw 2650   3.362   4.751   5.264 -0.4482 -0.1590  0.5420
  663SOL     hw 2651   3.316   4.848   5.158 -1.6809  0.0070  1.2074
  663SOL     vw 2652   3.367   4.829   5.226 -0.4317 -0.3133  0.2236
  664SOL     ow 2653   0.507   1.538   4.717  0.2480  0.3883  0.0177
  664SOL     hw 2654   0.513   1.498   4.631 -0.0521  0.9795 -0.2830
  664SOL     hw 2655   0.596   1.567   4.737  0.1916  0.8401 -0.3803
  664SOL     vw 2656   0.519   1.537   4.709  0.2010  0.5260 -0.0746
  665SOL     ow 2657   7.533   2.596   3.132 -0.0235 -0.2087 -0.7166
  665SOL     hw 2658   7.516   2.606   3.226  1.3359  2.9068 -0.6665
  665SOL     hw 2659   7.521   2.684   3.097  1.5362 -0.8627 -3.0926
  665SOL     vw 2660   7.529   2.609   3.140  0.3617  0.1161 -1.0233
  666SOL     ow 2661   4.032   4.803   1.763 -0.6264 -0.4519 -0.2610
  666SOL     hw 2662   4.090   4.774   1.833 -1.1759 -1.2027 -0.1001
  666SOL     hw 2663   4.059   4.893   1.745  0.6483 -0.8218 -0.2688
  666SOL     vw 2664   4.043   4.811   1.770 -0.5307 -0.5999 -0.2408
  667SOL     ow 2665   0.926   5.432   7.430  0.0450  0.7264 -0.4250
  667SOL     hw 2666   0.915   5.351   7.481  0.6026 -0.4890 -2.1368
  667SOL     hw 2667   0.968   5.493   7.490 -1.1239  0.0320  1.1669
  667SOL     vw 2668   0.930   5.429   7.445 -0.0356  0.4745 -0.4408
  668SOL     ow 2669   2.417   1.749   6.851  0.2277  0.4829  0.1972
  668SOL     hw 2670   2.448   1.743   6.941 -1.9847 -1.7815  0.9228
  668SOL     hw 2671   2.487   1.710   6.799  0.3604 -0.7904  1.2770
  668SOL     vw 2672   2.430   1.743   6.856 -0.0467  0.0162  0.4349
  669SOL     ow 2673   0.224   5.545   7.459  0.2213  0.2152  0.1870
  669SOL     hw 2674   0.237   5.597   7.538  3.0249 -0.4744  0.3027
  669SOL     hw 2675   0.138   5.504   7.471  0.2335  0.7257  2.5175
  669SOL     vw 2676   0.214   5.546   7.471  0.5928  0.1917  0.5100
  670SOL     ow 2677   7.170   0.176   3.330  0.2694 -0.1380 -0.0009
  670SOL     hw 2678   7.232   0.166   3.403 -0.2995 -0.2305  0.4780
  670SOL     hw 2679   7.221   0.218   3.261  0.8274 -0.0718  0.4430
  670SOL     vw 2680   7.185   0.180   3.331  0.2680 -0.1415  0.1209
  671SOL     ow 2681   5.609   2.134   1.912 -0.3773  0.0677 -0.4783
  671SOL     hw 2682   5.614   2.039   1.920  1.0398  0.2078  0.6097
  671SOL     hw 2683   5.603   2.149   1.818  0.4965 -1.0649 -0.7389
  671SOL     vw 2684   5.608   2.123   1.901 -0.0749 -0.0632 -0.3692
  672SOL     ow 2685   5.607   1.169   5.940  0.3348 -0.4015 -0.2450
  672SOL     hw 2686   5.641   1.084   5.915  0.1103 -0.4519 -0.3824
  672SOL     hw 2687   5.683   1.227   5.942  0.5823 -0.7435  0.4427
  672SOL     vw 2688   5.621   1.166   5.937  0.3378 -0.4532 -0.1721
  673SOL     ow 2689   2.982   7.077   4.737 -0.5282 -0.6549 -0.5567
  673SOL     hw 2690   2.910   7.027   4.700  2.4883 -5.4127 -0.8873
  673SOL     hw 2691   3.042   7.090   4.664  0.1477  0.8636  0.2211
  673SOL     vw 2692   2.980   7.072   4.723 -0.0410 -1.0822 -0.4978
  674SOL     ow 2693   6.186   7.156   4.788 -0.2315 -0.1720 -0.1864
  674SOL     hw 2694   6.235   7.115   4.860 -1.8991  1.8044  2.2724
  674SOL     hw 2695   6.222   7.245   4.783 -1.4303  0.3139 -0.4634
  674SOL     vw 2696   6.197   7.163   4.797 -0.6099  0.1528  0.1018
  675SOL     ow 2697   7.541   4.064   1.796  0.3908  0.2353  0.1554
  675SOL     hw 2698   7.496   4.073   1.711  3.4071  2.3371 -1.3816
  675SOL     hw 2699   7.611   4.001   1.779  0.4301 -0.0749  1.3883
  675SOL     vw 2700   7.544   4.057   1.782  0.7939  0.4718  0.1153
  676SOL     ow 2701   6.007   0.697   7.122  0.1318 -0.0250  0.1086
  676SOL     hw 2702   5.914   0.694   7.144  0.4664 -1.9024  1.6181
  676SOL     hw 2703   6.015   0.645   7.042  0.1383 -2.1219  1.3929
  676SOL     vw 2704   5.996   0.690   7.115  0.1764 -0.5494  0.4773
  677SOL     ow 2705   7.448   3.513   7.007 -0.2110 -0.3048  0.0861
  677SOL     hw 2706   7.426   3.510   6.914 -3.3678 -2.6062  0.7380
  677SOL     hw 2707   7.376   3.560   7.048  1.9935  2.2966  1.3291
  677SOL     vw 2708   7.436   3.519   7.000 -0.3366 -0.2654  0.3362
  678SOL     ow 2709   2.086   0.738   4.453  0.8768  0.4649 -0.4524
  678SOL     hw 2710   2.145   0.744   4.378 -0.8942  0.1440 -1.9461
  678SOL     hw 2711   1.998   0.745   4.415 -0.0972 -0.2005  1.5348
  678SOL     vw 2712   2.082   0.739   4.438  0.5147  0.3348 -0.3874
  679SOL     ow 2713   1.425   5.413   1.357 -0.2693  0.4398 -0.1794
  679SOL     hw 2714   1.349   5.470   1.352 -0.9155  0.0828  3.0223
  679SOL     hw 2715   1.500   5.470   1.341 -0.9759  1.9599  1.5526
  679SOL     vw 2716   1.425   5.428   1.354 -0.4478  0.5934  0.4715
  680SOL     ow 2717   6.496   5.898   4.066 -0.8858  0.1214  0.5488
  680SOL     hw 2718   6.534   5.972   4.114 -1.0899 -0.0540  0.9889
  680SOL     hw 2719   6.512   5.823   4.123 -1.1922 -0.0803  0.3660
  680SOL     vw 2720   6.503   5.898   4.080 -0.9532  0.0718  0.5827
  681SOL     ow 2721   2.818   1.954   5.852  0.6981  0.0418  0.0558
  681SOL     hw 2722   2.894   2.010   5.843  3.3586 -2.7788  2.5479
  681SOL     hw 2723   2.759   2.002   5.911  0.5133  2.2050 -1.7934
  681SOL     vw 2724   2.820   1.967   5.859  1.0246 -0.0449  0.1407
  682SOL     ow 2725   3.535   2.237   1.434  0.6344  0.6806 -0.1295
  682SOL     hw 2726   3.631   2.227   1.435  0.7249  1.4674  0.9941
  682SOL     hw 2727   3.520   2.323   1.472 -0.5596  0.2810  0.3282
  682SOL     vw 2728   3.546   2.247   1.439  0.4888  0.7318  0.0791
  683SOL     ow 2729   3.166   6.431   6.414  0.1730 -0.2248  0.6524
  683SOL     hw 2730   3.175   6.343   6.452 -0.3240 -0.3560  0.4702
  683SOL     hw 2731   3.162   6.417   6.320  1.8972  0.1403  0.4752
  683SOL     vw 2732   3.167   6.418   6.407  0.3349 -0.1941  0.6049
  684SOL     ow 2733   3.149   5.553   1.755  0.4481  0.1813 -0.2845
  684SOL     hw 2734   3.116   5.501   1.829  5.1140 -1.0170  1.3148
  684SOL     hw 2735   3.086   5.538   1.685 -2.9511 -0.6174  2.6429
  684SOL     vw 2736   3.137   5.544   1.756  0.6152 -0.0820  0.3127
  685SOL     ow 2737   6.743   2.418   0.157 -0.4116 -0.4906  0.5227
  685SOL     hw 2738   6.834   2.430   0.131 -1.1634  2.2817 -1.2965
  685SOL     hw 2739   6.747   2.389   0.248  2.2515 -1.2734  0.2392
  685SOL     vw 2740   6.755   2.416   0.166 -0.1595 -0.2280  0.2453
  686SOL     ow 2741   1.498   0.334   6.816 -0.0575  0.4551 -0.4779
  686SOL     hw 2742   1.483   0.274   6.744 -1.8511 -1.4186  1.3170
  686SOL     hw 2743   1.524   0.278   6.889 -0.7049  1.9697  0.9796
  686SOL     vw 2744   1.499   0.319   6.816 -0.3795  0.4078 -0.0489
  687SOL     ow 2745   5.925   0.938   1.548 -0.7446 -0.0363 -0.4666
  687SOL     hw 2746   5.899   0.965   1.460 -0.4676  0.1688 -0.4866
  687SOL     hw 2747   5.877   0.856   1.564  0.9603 -1.3572 -1.7274
  687SOL     vw 2748   5.916   0.930   1.539 -0.4828 -0.1835 -0.6356
  688SOL     ow 2749   4.783   2.957   1.198 -0.0427 -0.3847 -0.6811
  688SOL     hw 2750   4.794   3.049   1.172 -1.2940 -0.0916 -0.2220
  688SOL     hw 2751   4.856   2.941   1.257 -0.3022  0.5912 -0.0677
  688SOL     vw 2752   4.794   2.967   1.202 -0.2418 -0.2173 -0.5396
  689SOL     ow 2753   7.358   3.797   6.218 -0.1479  0.2001  0.8785
  689SOL     hw 2754   7.285   3.760   6.169  1.7131 -1.9063 -0.4752
  689SOL     hw 2755   7.423   3.728   6.221  1.7131  1.8905  2.2969
  689SOL     vw 2756   7.357   3.783   6.212  0.3428  0.1453  0.8869
  690SOL     ow 2757   5.841   3.770   1.218  0.1056  0.5104 -0.4645
  690SOL     hw 2758   5.840   3.710   1.144  1.5648  1.2214 -1.1024
  690SOL     hw 2759   5.756   3.814   1.215 -0.3890 -0.4638 -0.8689
  690SOL     vw 2760   5.830   3.768   1.208  0.2325  0.4756 -0.6021
  691SOL     ow 2761   5.768   3.630   3.310  0.6214 -0.2233  0.6247
  691SOL     hw 2762   5.831   3.558   3.307  0.8970 -0.1372  2.8603
  691SOL     hw 2763   5.817   3.703   3.349 -0.1778  0.6380  0.0749
  691SOL     vw 2764   5.783   3.630   3.314  0.5524 -0.0982  0.8471
  692SOL     ow 2765   5.300   0.698   0.502 -0.6709  0.4710  0.1825
  692SOL     hw 2766   5.299   0.680   0.596 -0.4877  1.7824  0.4490
  692SOL     hw 2767   5.243   0.631   0.464 -0.8981  0.0494  1.2513
  692SOL     vw 2768   5.292   0.687   0.509 -0.6764  0.5884  0.3587
  693SOL     ow 2769   0.707   5.700   3.130  0.4324  0.1291 -0.1959
  693SOL     hw 2770   0.712   5.764   3.058  0.8922  2.4006  1.7200
  693SOL     hw 2771   0.789   5.651   3.123  1.5797  1.9059  0.0989
  693SOL     vw 2772   0.719   5.702   3.119  0.6445  0.6633  0.0958
  694SOL     ow 2773   2.131   0.177   4.501 -0.3492 -0.1824  0.3004
  694SOL     hw 2774   2.129   0.225   4.418 -1.1702 -1.6467 -0.5586
  694SOL     hw 2775   2.050   0.126   4.501 -0.0935 -0.6270  1.7652
  694SOL     vw 2776   2.120   0.177   4.490 -0.4238 -0.4342  0.3803
  695SOL     ow 2777   6.871   7.253   4.157 -0.0185  0.1714  0.5944
  695SOL     hw 2778   6.852   7.164   4.129  0.4759  0.7181 -1.6249
  695SOL     hw 2779   6.859   7.307   4.079  1.2457  1.8342  1.4689
  695SOL     vw 2780   6.867   7.248   4.143  0.2136  0.4630  0.4170
  696SOL     ow 2781   0.088   3.029   6.460  0.1103 -0.3373 -0.0279
  696SOL     hw 2782   0.031   2.985   6.396  0.8857 -1.0898 -0.2137
  696SOL     hw 2783   0.029   3.087   6.508 -0.4983  0.2399 -1.4129
  696SOL     vw 2784   0.073   3.031   6.458  0.1323 -0.3605 -0.2353
  697SOL     ow 2785   1.931   3.184   0.917  0.2699  0.1867  0.1585
  697SOL     hw 2786   1.965   3.224   0.997 -0.0132 -0.1095  0.4324
  697SOL     hw 2787   2.007   3.146   0.874  0.6806  1.7113 -0.5242
  697SOL     vw 2788   1.945   3.184   0.922  0.2867  0.3489  0.1045
  698SOL     ow 2789   4.774   7.378   5.426 -0.7175  0.3504  0.3624
  698SOL     hw 2790   4.728   7.393   5.343  1.0649 -1.8616 -1.1515
  698SOL     hw 2791   4.716   7.321   5.476 -1.2820  0.7354  0.1654
  698SOL     vw 2792   4.760   7.373   5.422 -0.5569  0.1094  0.1369
  699SOL     ow 2793   7.118   1.003   2.272 -0.2636 -0.0089 -0.6618
  699SOL     hw 2794   7.104   0.973   2.362  3.0285 -1.0645 -0.3542
  699SOL     hw 2795   7.139   1.096   2.281 -2.0194  0.4328 -0.6626
  699SOL     vw 2796   7.119   1.011   2.285 -0.0613 -0.0899 -0.6211
  700SOL     ow 2797   1.015   1.646   1.543  0.0277  0.4883  0.7909
  700SOL     hw 2798   1.110   1.636   1.545  0.0094  0.2004  0.3681
  700SOL     hw 2799   0.984   1.592   1.616  0.0318 -1.4529 -0.5720
  700SOL     vw 2800   1.023   1.638   1.553  0.0259  0.1943  0.5553
  701SOL     ow 2801   1.754   0.196   4.931 -0.5142 -0.3486 -0.0629
  701SOL     hw 2802   1.723   0.127   4.873 -2.8665 -1.1422  1.9731
  701SOL     hw 2803   1.715   0.277   4.896  0.6307 -0.2989 -1.3045
  701SOL     vw 2804   1.745   0.198   4.919 -0.6735 -0.4467  0.0417
  702SOL     ow 2805   0.958   4.943   1.463 -0.2278  0.3010  0.6600
  702SOL     hw 2806   1.024   4.874   1.469  0.4577  0.7505 -1.0966
  702SOL     hw 2807   0.880   4.906   1.505  1.0827 -0.2557  2.7257
  702SOL     vw 2808   0.956   4.929   1.469  0.0355  0.2868  0.7008
  703SOL     ow 2809   0.076   5.607   4.562 -0.5049 -0.3181  0.0627
  703SOL     hw 2810   0.057   5.514   4.555  0.1309 -0.3551 -1.4638
  703SOL     hw 2811   0.130   5.627   4.486  1.0346  0.8913  1.3838
  703SOL     vw 2812   0.081   5.597   4.551 -0.2179 -0.1636  0.0358
  704SOL     ow 2813   1.173   1.050   2.788  0.2932 -0.6125 -0.4551
  704SOL     hw 2814   1.154   0.994   2.713  2.1776 -1.7893 -0.1327
  704SOL     hw 2815   1.190   1.137   2.751 -1.6679 -0.4521 -1.0586
  704SOL     vw 2816   1.173   1.054   2.774  0.2830 -0.7467 -0.4922
  705SOL     ow 2817   6.954   2.771   5.547 -0.2862  0.3678  0.6814
  705SOL     hw 2818   7.003   2.744   5.625  0.3567  0.9939  0.5109
  705SOL     hw 2819   7.021   2.805   5.488 -1.0344  2.4685  0.9647
  705SOL     vw 2820   6.969   2.772   5.550 -0.2999  0.7275  0.6962
  706SOL     ow 2821   1.709   4.746   5.979  0.2987 -0.1173 -0.6128
  706SOL     hw 2822   1.758   4.820   5.942 -2.9021  2.0239 -1.0200
  706SOL     hw 2823   1.676   4.779   6.063 -1.4776 -0.8992 -0.9581
  706SOL     vw 2824   1.711   4.760   5.985 -0.3580  0.0620 -0.7122
  707SOL     ow 2825   5.123   2.759   6.221  0.4624  0.0092  1.3037
  707SOL     hw 2826   5.175   2.830   6.261  0.8714  0.5629 -0.1402
  707SOL     hw 2827   5.160   2.750   6.133  0.5650 -2.1693  1.5234
  707SOL     vw 2828   5.135   2.768   6.215  0.5300 -0.2052  1.1423
  708SOL     ow 2829   5.606   5.138   4.572  0.2732 -1.0149 -0.0646
  708SOL     hw 2830   5.608   5.220   4.523  0.2862 -1.0377 -0.1023
  708SOL     hw 2831   5.524   5.142   4.622  0.0523 -1.1801 -0.4109
  708SOL     vw 2832   5.595   5.149   4.572  0.2458 -1.0400 -0.1156
  709SOL     ow 2833   7.091   7.473   4.586 -0.0484 -0.2616 -0.1755
  709SOL     hw 2834   7.167   7.483   4.528 -0.1123 -0.7302 -0.3487
  709SOL     hw 2835   7.018   7.455   4.526 -0.7811  2.4171 -0.2190
  709SOL     vw 2836   7.091   7.472   4.570 -0.1535  0.0296 -0.2041
  710SOL     ow 2837   2.436   6.458   1.308  0.2980  0.1880  0.1094
  710SOL     hw 2838   2.410   6.411   1.229 -0.1363 -0.7321  0.7896
  710SOL     hw 2839   2.499   6.400   1.351 -0.2233  0.2241  0.9430
  710SOL     vw 2840   2.441   6.444   1.303  0.1719  0.0715  0.3092
  711SOL     ow 2841   1.397   7.513   2.831 -0.0120  0.2357 -0.6750
  711SOL     hw 2842   1.305   7.489   2.832 -0.0659  0.3099 -1.7319
  711SOL     hw 2843   1.397   7.609   2.828  0.0592  0.2176 -1.6560
  711SOL     vw 2844   1.385   7.523   2.830 -0.0098  0.2432 -0.9440
  712SOL     ow 2845   7.146   5.432   0.320 -0.0957  0.2855  0.3539
  712SOL     hw 2846   7.058   5.469   0.318 -0.4399 -0.5430 -1.0771
  712SOL     hw 2847   7.177   5.438   0.230  1.5320  1.0200  0.9176
  712SOL     vw 2848   7.139   5.438   0.308  0.0739  0.2732  0.2394
  713SOL     ow 2849   3.024   2.572   0.372 -0.0168 -0.2756  0.0421
  713SOL     hw 2850   3.069   2.528   0.300 -1.2443 -2.0636  0.2999
  713SOL     hw 2851   2.955   2.623   0.329 -0.5747 -1.1256 -0.1062
  713SOL     vw 2852   3.021   2.573   0.357 -0.2525 -0.6237  0.0565
  714SOL     ow 2853   2.026   4.869   5.276 -0.2627  0.1327  0.1167
  714SOL     hw 2854   1.963   4.880   5.204 -0.1260  0.0714 -0.0134
  714SOL     hw 2855   1.980   4.902   5.353 -0.1350  0.9049 -0.1324
  714SOL     vw 2856   2.012   4.875   5.276 -0.2277  0.2267  0.0668
  715SOL     ow 2857   7.299   5.379   3.380 -0.5562  0.2259  0.5199
  715SOL     hw 2858   7.266   5.344   3.297  1.4157  0.4504 -0.4362
  715SOL     hw 2859   7.301   5.303   3.438  2.8718 -1.2933 -1.2742
  715SOL     vw 2860   7.295   5.364   3.377  0.1564  0.0553  0.1570
  716SOL     ow 2861   0.358   6.639   2.881  0.8825  0.0622 -0.1930
  716SOL     hw 2862   0.430   6.634   2.818  1.5931  0.0750  0.5992
  716SOL     hw 2863   0.281   6.611   2.832  1.3942  0.2065 -1.1036
  716SOL     vw 2864   0.357   6.635   2.866  1.0438  0.0830 -0.2086
  717SOL     ow 2865   0.383   6.354   2.552  0.5141 -0.9098  0.1196
  717SOL     hw 2866   0.397   6.417   2.482  1.6063 -1.1566  0.0969
  717SOL     hw 2867   0.307   6.388   2.601  2.7522  2.0396  1.8531
  717SOL     vw 2868   0.375   6.367   2.549  0.9535 -0.5531  0.3453
  718SOL     ow 2869   3.166   7.356   4.669  0.1819  0.3508  0.1411
  718SOL     hw 2870   3.150   7.389   4.581  1.4993 -0.8964 -0.6119
  718SOL     hw 2871   3.207   7.429   4.715 -1.5907  1.4132  0.1341
  718SOL     vw 2872   3.169   7.370   4.664  0.1218  0.3266  0.0410
  719SOL     ow 2873   5.986   3.315   5.064 -0.1987 -0.1701  0.2699
  719SOL     hw 2874   5.959   3.376   5.133 -1.6551  0.7031 -1.0026
  719SOL     hw 2875   5.978   3.366   4.983 -0.2304 -1.6837 -0.7116
  719SOL     vw 2876   5.981   3.330   5.062 -0.3951 -0.2545 -0.0274
  720SOL     ow 2877   4.840   3.303   2.159 -0.0017 -0.0093  0.1070
  720SOL     hw 2878   4.824   3.373   2.222 -2.5341  1.4062 -1.9244
  720SOL     hw 2879   4.905   3.340   2.099  2.8240 -1.5550  2.0181
  720SOL     vw 2880   4.846   3.317   2.159  0.0370 -0.0266  0.0912
  721SOL     ow 2881   7.325   5.846   3.100 -0.0451 -0.0007 -0.1585
  721SOL     hw 2882   7.262   5.894   3.155  1.4557  1.0164  0.7464
  721SOL     hw 2883   7.336   5.903   3.023  2.5882  1.8343  1.4213
  721SOL     vw 2884   7.318   5.860   3.097  0.5002  0.3757  0.1693
  722SOL     ow 2885   4.314   6.340   4.933 -0.1720 -0.1198  0.3377
  722SOL     hw 2886   4.367   6.308   5.007  0.0385 -0.5119  0.0206
  722SOL     hw 2887   4.273   6.420   4.966 -2.5182 -1.8712  1.9475
  722SOL     vw 2888   4.316   6.346   4.947 -0.4537 -0.4027  0.5085
  723SOL     ow 2889   1.235   3.421   0.831  0.4946 -0.5345 -0.0844
  723SOL     hw 2890   1.226   3.438   0.925  2.5308  0.4098  0.0128
  723SOL     hw 2891   1.158   3.370   0.808 -0.0312 -0.8455  2.1151
  723SOL     vw 2892   1.224   3.416   0.840  0.6939 -0.4511  0.2186
  724SOL     ow 2893   7.151   4.889   7.461  0.6324  0.3227  0.6937
  724SOL     hw 2894   7.072   4.940   7.480  0.3058 -0.3903  1.3037
  724SOL     hw 2895   7.137   4.856   7.372  0.0348 -0.1453  0.9475
  724SOL     vw 2896   7.138   4.891   7.451  0.5102  0.1667  0.8075
  725SOL     ow 2897   2.842   5.910   1.787  0.6361  0.2876  0.3555
  725SOL     hw 2898   2.752   5.900   1.757  0.7645 -1.7811  0.5680
  725SOL     hw 2899   2.834   5.936   1.879  0.2944  2.4386 -0.2124
  725SOL     vw 2900   2.829   5.912   1.795  0.6080  0.2985  0.3086
  726SOL     ow 2901   3.901   7.488   4.324  0.2201  0.6570 -0.0230
  726SOL     hw 2902   3.994   7.506   4.312  0.2100 -0.0646 -1.4314
  726SOL     hw 2903   3.866   7.487   4.235 -0.8627 -0.5077  0.3964
  726SOL     vw 2904   3.909   7.490   4.311  0.0759  0.4084 -0.1535
  727SOL     ow 2905   4.196   6.857   3.077  0.4758 -0.4545 -0.2129
  727SOL     hw 2906   4.105   6.829   3.076  0.3606 -0.1164 -1.7680
  727SOL     hw 2907   4.228   6.838   2.989  1.0589  2.0823 -0.6290
  727SOL     vw 2908   4.189   6.851   3.065  0.5374 -0.0753 -0.4730
  728SOL     ow 2909   6.682   7.547   1.587  0.6264  0.5273  0.5033
  728SOL     hw 2910   6.724   7.631   1.569 -0.2466  0.8041 -0.3487
  728SOL     hw 2911   6.734   7.509   1.658  0.9128  1.8689  1.0434
  728SOL     vw 2912   6.695   7.553   1.594  0.5491  0.7408  0.4621
  729SOL     ow 2913   1.876   7.000   5.828 -0.2862 -0.0770 -0.7583
  729SOL     hw 2914   1.828   7.081   5.816  2.3473  1.7045 -0.1210
  729SOL     hw 2915   1.926   6.989   5.747  0.0536 -0.5964 -0.4867
  729SOL     vw 2916   1.876   7.009   5.816  0.1060  0.0894 -0.6382
  730SOL     ow 2917   6.244   0.875   7.112  0.1664 -0.2726 -0.4447
  730SOL     hw 2918   6.273   0.966   7.122 -1.2693  0.2693 -0.9093
  730SOL     hw 2919   6.249   0.859   7.018 -1.0687 -0.1209 -0.5570
  730SOL     vw 2920   6.249   0.885   7.101 -0.1860 -0.1811 -0.5209
  731SOL     ow 2921   3.906   3.955   0.270  0.3755 -0.5073 -0.3198
  731SOL     hw 2922   3.811   3.965   0.269  0.3830 -0.4097 -0.1369
  731SOL     hw 2923   3.921   3.869   0.230  0.1383 -1.0166  0.6275
  731SOL     vw 2924   3.895   3.945   0.265  0.3452 -0.5616 -0.1706
  732SOL     ow 2925   6.793   7.007   1.513 -0.7491  0.3109  0.3279
  732SOL     hw 2926   6.885   7.000   1.487 -0.7395 -1.3527  0.6940
  732SOL     hw 2927   6.791   6.973   1.603 -1.7084  0.3501  0.3285
  732SOL     vw 2928   6.805   7.002   1.522 -0.8743  0.0966  0.3763
  733SOL     ow 2929   0.757   2.699   4.079 -0.2499  0.5479  0.1508
  733SOL     hw 2930   0.694   2.746   4.024 -0.5615  1.1101  0.9743
  733SOL     hw 2931   0.707   2.629   4.119 -0.1967  0.5939  0.2980
  733SOL     vw 2932   0.742   2.696   4.077 -0.2840  0.6281  0.2789
  734SOL     ow 2933   3.949   3.533   1.269 -1.0037  0.8757  0.9304
  734SOL     hw 2934   3.854   3.543   1.271 -1.2983 -1.2775  0.4948
  734SOL     hw 2935   3.967   3.464   1.332 -0.0937 -0.8276 -1.0826
  734SOL     vw 2936   3.939   3.525   1.278 -0.9224  0.3669  0.6073
  735SOL     ow 2937   2.035   1.124   4.559  0.1615  0.0163  0.1493
  735SOL     hw 2938   2.067   1.034   4.554 -3.3721 -1.3284 -1.6757
  735SOL     hw 2939   2.031   1.153   4.467 -0.3439  1.3845  0.5772
  735SOL     vw 2940   2.039   1.116   4.546 -0.3715  0.0194 -0.0348
  736SOL     ow 2941   6.193   4.666   2.376 -0.1259  0.0865  0.5706
  736SOL     hw 2942   6.106   4.703   2.364 -0.5611 -0.2533  2.3968
  736SOL     hw 2943   6.210   4.673   2.470  0.6187 -2.4371  0.7090
  736SOL     vw 2944   6.184   4.672   2.387 -0.0851 -0.2913  0.8298
  737SOL     ow 2945   3.346   1.277   6.176  0.5988 -0.1996 -0.7481
  737SOL     hw 2946   3.341   1.242   6.265 -0.8632 -1.4371 -1.2763
  737SOL     hw 2947   3.327   1.370   6.185 -0.7034 -0.5270  0.1184
  737SOL     vw 2948   3.343   1.284   6.189  0.2341 -0.4061 -0.7036
  738SOL     ow 2949   2.357   4.291   4.000 -0.5456 -1.2744  0.1765
  738SOL     hw 2950   2.408   4.371   4.008 -0.7947 -1.2111  1.1522
  738SOL     hw 2951   2.319   4.296   3.912  1.8965 -1.8012 -1.0291
  738SOL     vw 2952   2.359   4.302   3.989 -0.2562 -1.3356  0.1460
  739SOL     ow 2953   3.550   4.035   7.505  0.2853  0.0025 -0.6147
  739SOL     hw 2954   3.640   4.021   7.535  0.6421  0.1706 -1.5554
  739SOL     hw 2955   3.496   4.023   7.583  1.1961  0.8478  0.1760
  739SOL     vw 2956   3.555   4.032   7.519  0.4525  0.1361 -0.6344
  740SOL     ow 2957   0.686   5.051   0.661  0.3565 -0.3704  0.4449
  740SOL     hw 2958   0.626   5.092   0.723 -2.3807 -4.6338  0.9703
  740SOL     hw 2959   0.652   5.076   0.575  0.3067  0.4363  0.6869
  740SOL     vw 2960   0.674   5.060   0.658 -0.0112 -0.8264  0.5462
  741SOL     ow 2961   0.025   2.637   3.436 -0.2627 -0.0154  0.5507
  741SOL     hw 2962   0.060   2.696   3.369 -1.8016  1.3766  0.9031
  741SOL     hw 2963   0.082   2.561   3.432 -0.7497 -0.3871 -2.9475
  741SOL     vw 2964   0.037   2.635   3.426 -0.5300  0.1192  0.1358
  742SOL     ow 2965   2.777   7.110   2.654  0.0659 -0.0119  0.5699
  742SOL     hw 2966   2.705   7.047   2.644 -0.8208  1.0206  0.2347
  742SOL     hw 2967   2.743   7.191   2.617  2.4425 -0.1768 -2.2959
  742SOL     vw 2968   2.763   7.112   2.648  0.2625  0.1028  0.1476
  743SOL     ow 2969   4.964   3.041   3.472 -0.5253 -0.4395 -0.7399
  743SOL     hw 2970   4.966   2.949   3.448  0.1594 -0.8995  0.9337
  743SOL     hw 2971   4.880   3.053   3.517 -0.7439 -0.1719 -1.2147
  743SOL     vw 2972   4.953   3.031   3.475 -0.4637 -0.4649 -0.5817
  744SOL     ow 2973   5.999   4.348   7.058  0.6165 -0.4960 -0.1065
  744SOL     hw 2974   6.055   4.318   6.987  1.2136  0.1862  0.0617
  744SOL     hw 2975   6.052   4.414   7.104 -0.8352  1.2162 -0.8015
  744SOL     vw 2976   6.014   4.353   7.055  0.5035 -0.1802 -0.1762
  745SOL     ow 2977   3.238   4.025   0.921  0.4208 -0.3043  0.6334
  745SOL     hw 2978   3.253   4.010   0.828  1.7411 -1.9185  1.0712
  745SOL     hw 2979   3.190   4.108   0.924  1.4508  0.4341 -1.3999
  745SOL     vw 2980   3.233   4.034   0.909  0.7309 -0.4199  0.4229
  746SOL     ow 2981   5.557   2.817   0.049 -0.0452  0.1118 -0.1408
  746SOL     hw 2982   5.648   2.787   0.048  0.1422  0.6485  0.2514
  746SOL     hw 2983   5.537   2.831   0.142 -0.0213  1.4719 -0.3123
  746SOL     vw 2984   5.566   2.815   0.061 -0.0174  0.3622 -0.1117
  747SOL     ow 2985   0.153   1.532   1.499  0.2540  0.5017 -0.1919
  747SOL     hw 2986   0.186   1.513   1.411  0.4819 -1.2884  0.2503
  747SOL     hw 2987   0.090   1.603   1.485  0.0902  0.0928 -1.8411
  747SOL     vw 2988   0.149   1.539   1.485  0.2624  0.2115 -0.3511
  748SOL     ow 2989   0.527   5.837   4.571 -0.0719 -0.2722  0.7723
  748SOL     hw 2990   0.523   5.887   4.490  0.7744  0.5334  1.2028
  748SOL     hw 2991   0.441   5.796   4.578 -0.1649 -0.3392 -0.5118
  748SOL     vw 2992   0.515   5.838   4.561  0.0275 -0.1748  0.6599
  749SOL     ow 2993   6.374   2.277   7.040 -0.2061 -0.0514  0.3980
  749SOL     hw 2994   6.452   2.249   7.088 -0.5518  0.5268  1.3293
  749SOL     hw 2995   6.322   2.324   7.105  0.8252  3.7949 -1.2430
  749SOL     vw 2996   6.378   2.280   7.055 -0.1154  0.5324  0.3040
  750SOL     ow 2997   0.761   1.377   2.220  0.4435 -0.1283 -0.4993
  750SOL     hw 2998   0.806   1.294   2.234  0.1209 -0.0519  1.3135
  750SOL     hw 2999   0.785   1.404   2.132  1.4809 -1.5751 -0.6848
  750SOL     vw 3000   0.770   1.370   2.210  0.5378 -0.3092 -0.2844
  751SOL     ow 3001   7.182   6.787   3.041 -1.1106  0.0110  0.1184
  751SOL     hw 3002   7.156   6.871   3.079  1.3533  0.1820  1.6458
  751SOL     hw 3003   7.194   6.806   2.948  0.2937  1.6568  0.5753
  751SOL     vw 3004   7.180   6.801   3.034 -0.6001  0.2508  0.3803
  752SOL     ow 3005   4.532   3.122   0.921  0.6673 -0.2083 -0.6968
  752SOL     hw 3006   4.462   3.176   0.957  0.7446  0.8026 -1.9757
  752SOL     hw 3007   4.608   3.180   0.918  1.3768 -1.0765  0.0076
  752SOL     vw 3008   4.533   3.137   0.925  0.7713 -0.1894 -0.7727
  753SOL     ow 3009   1.532   0.315   3.765 -0.3828  0.9614  0.3546
  753SOL     hw 3010   1.545   0.389   3.824 -1.1054  1.6741 -0.3392
  753SOL     hw 3011   1.505   0.243   3.821 -1.1664  1.6531  0.8999
  753SOL     vw 3012   1.530   0.315   3.780 -0.5816  1.1467  0.3351
  754SOL     ow 3013   1.872   7.314   1.933 -0.1397 -0.0944 -0.6566
  754SOL     hw 3014   1.900   7.227   1.963 -1.0585 -1.1693 -2.6766
  754SOL     hw 3015   1.953   7.362   1.918  0.3752 -0.4469  0.8967
  754SOL     vw 3016   1.886   7.309   1.935 -0.1930 -0.2825 -0.7181
  755SOL     ow 3017   3.928   1.406   2.080  0.0791 -0.7719 -0.5345
  755SOL     hw 3018   3.946   1.380   1.990 -2.8748 -0.2996 -1.3913
  755SOL     hw 3019   3.876   1.486   2.072  2.0908  0.8999  1.7393
  755SOL     vw 3020   3.923   1.413   2.067 -0.0451 -0.4889 -0.3476
  756SOL     ow 3021   7.470   6.245   0.856  0.3702 -0.5413  0.0973
  756SOL     hw 3022   7.397   6.266   0.799  1.2383 -1.2350 -1.3215
  756SOL     hw 3023   7.541   6.222   0.796  0.7412 -3.2502  1.4605
  756SOL     vw 3024   7.470   6.245   0.841  0.5338 -0.9899  0.0900
  757SOL     ow 3025   4.206   2.012   0.551 -0.1538 -0.1753 -0.3590
  757SOL     hw 3026   4.176   2.103   0.560 -0.3935 -0.4577  2.1405
  757SOL     hw 3027   4.131   1.965   0.515  0.1552  0.6550 -2.2449
  757SOL     vw 3028   4.192   2.018   0.547 -0.1450 -0.1030 -0.2781
  758SOL     ow 3029   7.242   4.633   7.527  0.1574  0.3863 -0.2471
  758SOL     hw 3030   7.186   4.611   7.601  1.1101 -0.4630  0.2387
  758SOL     hw 3031   7.228   4.727   7.514  0.6962  0.7546  1.6205
  758SOL     vw 3032   7.233   4.643   7.535  0.3541  0.3226  0.0634
  759SOL     ow 3033   4.354   5.622   3.290 -0.3446  0.3461  0.2390
  759SOL     hw 3034   4.403   5.680   3.349  0.1791 -0.1577  0.3146
  759SOL     hw 3035   4.286   5.678   3.252 -3.5291 -0.1976  4.4900
  759SOL     vw 3036   4.352   5.637   3.293 -0.6957  0.2079  0.8099
  760SOL     ow 3037   2.197   6.750   2.479 -0.0204  0.1060  0.1582
  760SOL     hw 3038   2.144   6.827   2.503 -3.5190 -2.0765  0.0965
  760SOL     hw 3039   2.203   6.699   2.559 -1.4545 -1.5300 -0.7193
  760SOL     vw 3040   2.191   6.754   2.493 -0.6711 -0.3979  0.0342
  761SOL     ow 3041   7.316   7.337   5.729 -0.2035 -0.6585 -0.2466
  761SOL     hw 3042   7.342   7.290   5.650  2.2268  0.5690 -0.2897
  761SOL     hw 3043   7.267   7.413   5.696  0.5754 -0.2902 -0.5847
  761SOL     vw 3044   7.313   7.341   5.714  0.2198 -0.4480 -0.2968
  762SOL     ow 3045   1.541   1.050   3.032 -0.6525  0.3442  0.3165
  762SOL     hw 3046   1.580   1.034   2.946 -1.9892  0.4646 -0.3318
  762SOL     hw 3047   1.591   1.123   3.069  1.8989 -1.5593  0.9525
  762SOL     vw 3048   1.553   1.057   3.026 -0.4922  0.1090  0.3148
  763SOL     ow 3049   3.684   3.875   6.337  0.1947 -0.2523 -0.3370
  763SOL     hw 3050   3.753   3.916   6.390 -0.7860  1.2908 -0.1981
  763SOL     hw 3051   3.711   3.783   6.331  1.2013 -0.1264  1.4403
  763SOL     vw 3052   3.697   3.868   6.344  0.1981 -0.0322 -0.0842
  764SOL     ow 3053   1.838   4.384   2.752  0.7005 -0.5036 -0.4336
  764SOL     hw 3054   1.815   4.427   2.670  0.5126  0.9667  0.3519
  764SOL     hw 3055   1.907   4.323   2.729  1.0769  0.3309 -1.5831
  764SOL     vw 3056   1.844   4.382   2.738  0.7254 -0.1993 -0.4816
  765SOL     ow 3057   0.767   4.553   0.481  0.2004 -0.1672 -0.2968
  765SOL     hw 3058   0.718   4.539   0.401  1.9066  0.0986 -1.4387
  765SOL     hw 3059   0.730   4.490   0.543 -1.4492 -0.0629 -1.1165
  765SOL     vw 3060   0.756   4.543   0.479  0.2078 -0.1183 -0.5556
  766SOL     ow 3061   7.234   4.858   0.731 -0.1082 -0.3880 -0.4152
  766SOL     hw 3062   7.248   4.884   0.639  2.1093  0.8018  0.1843
  766SOL     hw 3063   7.201   4.937   0.773  0.8416 -0.3081  0.2052
  766SOL     vw 3064   7.232   4.872   0.724  0.3097 -0.2205 -0.2542
  767SOL     ow 3065   1.200   7.297   4.544  0.5887  0.0876 -0.3682
  767SOL     hw 3066   1.170   7.240   4.614 -3.9820  2.0706 -0.3410
  767SOL     hw 3067   1.159   7.261   4.465  0.0801  1.5785 -0.8217
  767SOL     vw 3068   1.190   7.285   4.543 -0.0815  0.5457 -0.4246
  768SOL     ow 3069   4.649   4.739   1.676  0.1115 -0.4935  0.1553
  768SOL     hw 3070   4.627   4.803   1.608  0.3052 -1.1190 -0.5105
  768SOL     hw 3071   4.717   4.781   1.728  1.2542 -0.6758 -1.1257
  768SOL     vw 3072   4.655   4.753   1.674  0.2875 -0.5999 -0.1016
  769SOL     ow 3073   2.377   3.520   5.638 -0.4203 -0.3918  0.0862
  769SOL     hw 3074   2.451   3.579   5.624 -1.1595  1.3548  2.7557
  769SOL     hw 3075   2.336   3.512   5.552  0.6393  1.7386 -0.6908
  769SOL     vw 3076   2.382   3.526   5.625 -0.3780  0.1198  0.3359
  770SOL     ow 3077   7.074   0.873   5.870 -0.2353  1.3176 -0.0530
  770SOL     hw 3078   7.032   0.821   5.938  0.4808 -0.5666 -1.0004
  770SOL     hw 3079   7.009   0.878   5.800 -0.0855  1.1920 -0.2013
  770SOL     vw 3080   7.060   0.867   5.870 -0.1211  1.0525 -0.1976
  771SOL     ow 3081   4.592   0.297   4.212 -0.0882  0.3443  0.1694
  771SOL     hw 3082   4.529   0.232   4.242 -0.1383 -0.0317 -0.7276
  771SOL     hw 3083   4.539   0.370   4.181 -0.0314  0.8591  1.2305
  771SOL     vw 3084   4.577   0.298   4.212 -0.0870  0.3626  0.1910
  772SOL     ow 3085   1.239   7.585   6.600  0.1732  0.2295  0.1293
  772SOL     hw 3086   1.319   7.604   6.648 -0.0885  1.9357 -0.0352
  772SOL     hw 3087   1.205   7.505   6.641  1.0983  0.4055  1.3010
  772SOL     vw 3088   1.245   7.577   6.612  0.2607  0.4776  0.2620
  773SOL     ow 3089   0.167   4.461   5.363  0.4004  0.2759  0.0408
  773SOL     hw 3090   0.241   4.510   5.400  0.7570 -0.6651  0.5943
  773SOL     hw 3091   0.141   4.400   5.432 -0.6137  0.2846 -0.3124
  773SOL     vw 3092   0.173   4.460   5.377  0.3136  0.1531  0.0672
  774SOL     ow 3093   5.055   0.097   3.650  0.2617 -0.7438 -0.7097
  774SOL     hw 3094   5.142   0.078   3.684 -0.7153 -3.2696  0.6345
  774SOL     hw 3095   5.070   0.124   3.559  2.5017  0.1253 -0.1243
  774SOL     vw 3096   5.068   0.098   3.642  0.4280 -0.9624 -0.4553
  775SOL     ow 3097   6.170   6.102   2.516  0.0595 -0.4862 -0.1740
  775SOL     hw 3098   6.076   6.112   2.500  0.0650  2.1098  1.0142
  775SOL     hw 3099   6.183   6.007   2.516 -2.0505 -0.9190 -2.9311
  775SOL     vw 3100   6.159   6.091   2.514 -0.2182 -0.2010 -0.3810
  776SOL     ow 3101   2.311   0.124   6.476  0.0526 -0.1418  0.5898
  776SOL     hw 3102   2.234   0.130   6.419 -0.2487 -0.4816  0.9571
  776SOL     hw 3103   2.380   0.094   6.418  0.2545  1.4273 -0.0473
  776SOL     vw 3104   2.310   0.121   6.461  0.0395  0.0204  0.5543
  777SOL     ow 3105   1.989   3.195   3.708  0.3812 -0.0632  0.4759
  777SOL     hw 3106   1.897   3.193   3.682  0.6296  0.6876 -0.5137
  777SOL     hw 3107   2.002   3.281   3.747  1.0428  0.4898 -0.9117
  777SOL     vw 3108   1.979   3.206   3.710  0.5013  0.1088  0.1622
  778SOL     ow 3109   0.483   0.016   2.628 -0.2691  0.1359  0.7168
  778SOL     hw 3110   0.402   0.048   2.668 -0.9417  0.5340 -0.8665
  778SOL     hw 3111   0.476  -0.079   2.634 -1.0087  0.1563  0.3291
  778SOL     vw 3112   0.471   0.008   2.634 -0.4554  0.1911  0.4567
  779SOL     ow 3113   1.909   0.004   4.521  0.2921 -0.5227 -0.2854
  779SOL     hw 3114   1.911  -0.011   4.616  2.0252 -1.5008 -0.4342
  779SOL     hw 3115   1.889   0.097   4.512  0.1300 -0.4038  1.0422
  779SOL     vw 3116   1.907   0.014   4.532  0.4994 -0.6361 -0.1297
  780SOL     ow 3117   6.249   1.795   4.284 -0.2202  0.2623 -0.2927
  780SOL     hw 3118   6.278   1.842   4.362 -1.9666  0.5428  0.2276
  780SOL     hw 3119   6.327   1.748   4.254  1.1531  2.1313  0.1432
  780SOL     vw 3120   6.263   1.795   4.290 -0.2697  0.5459 -0.1664
  781SOL     ow 3121   7.287   0.270   5.081  0.2037 -0.1049  0.2101
  781SOL     hw 3122   7.197   0.303   5.083  0.2288  0.0097  2.8253
  781SOL     hw 3123   7.341   0.348   5.072  0.0769  0.1018  1.0757
  781SOL     vw 3124   7.283   0.285   5.080  0.1903 -0.0625  0.6692
  782SOL     ow 3125   2.729   3.979   2.448  0.6563  0.1956  0.4569
  782SOL     hw 3126   2.749   3.906   2.389  2.1728  0.9638 -0.0240
  782SOL     hw 3127   2.798   3.975   2.514  1.3418  1.7465 -0.1232
  782SOL     vw 3128   2.741   3.969   2.449  0.9468  0.5015  0.3169
  783SOL     ow 3129   4.851   6.609   1.864  0.3139  0.4174 -0.3033
  783SOL     hw 3130   4.859   6.682   1.926  3.3217  0.8628 -1.0368
  783SOL     hw 3131   4.800   6.645   1.791 -1.3130  0.5900  0.8663
  783SOL     vw 3132   4.846   6.623   1.862  0.4959  0.4988 -0.2457
  784SOL     ow 3133   4.108   5.264   3.766 -0.4236  0.3007  0.2740
  784SOL     hw 3134   4.078   5.249   3.856 -1.4168  2.0829  0.3020
  784SOL     hw 3135   4.041   5.225   3.711 -2.0808  2.8097  0.3489
  784SOL     vw 3136   4.096   5.257   3.771 -0.7734  0.8667  0.2875
  785SOL     ow 3137   2.056   6.182   7.186  0.6041  0.4647 -1.0727
  785SOL     hw 3138   2.024   6.272   7.179  0.8266  0.6261 -0.0868
  785SOL     hw 3139   1.993   6.130   7.136 -0.5975  0.9184 -0.0574
  785SOL     vw 3140   2.044   6.187   7.178  0.4749  0.5457 -0.8085
  786SOL     ow 3141   3.234   0.426   4.242 -0.7617 -0.5586  0.2991
  786SOL     hw 3142   3.180   0.381   4.177  1.4978 -0.2008 -2.0229
  786SOL     hw 3143   3.269   0.502   4.194  0.7861 -0.1064  2.0327
  786SOL     vw 3144   3.232   0.430   4.227 -0.2594 -0.4517  0.2213
  787SOL     ow 3145   7.382   0.864   5.045 -0.1993 -0.3495 -0.0437
  787SOL     hw 3146   7.445   0.897   5.109 -0.9801 -1.1585  1.1694
  787SOL     hw 3147   7.432   0.857   4.964  1.0510 -0.1617  0.6899
  787SOL     vw 3148   7.397   0.867   5.043 -0.1371 -0.4314  0.2131
  788SOL     ow 3149   4.927   4.555   6.593 -0.0843 -0.5566  0.2688
  788SOL     hw 3150   4.910   4.568   6.686  1.0479 -0.7082  0.5094
  788SOL     hw 3151   4.997   4.489   6.590 -0.4855 -0.9559 -0.7051
  788SOL     vw 3152   4.934   4.548   6.605  0.0122 -0.6292  0.1721
  789SOL     ow 3153   3.930   3.786   7.139 -0.5406 -0.2418 -0.1143
  789SOL     hw 3154   3.855   3.836   7.106  0.7267  0.3419 -2.2651
  789SOL     hw 3155   3.994   3.852   7.164 -0.2313 -0.7545  0.4652
  789SOL     vw 3156   3.928   3.801   7.138 -0.3326 -0.2323 -0.3216
  790SOL     ow 3157   3.985   7.193   1.368 -0.3845  0.3010 -0.0458
  790SOL     hw 3158   3.898   7.233   1.376 -0.4156 -0.0528  2.0659
  790SOL     hw 3159   3.966   7.103   1.340 -0.4114  1.1671 -3.1379
  790SOL     vw 3160   3.971   7.186   1.366 -0.3921  0.3686 -0.1752
  791SOL     ow 3161   0.618   1.587   3.323 -0.2471 -0.5266 -0.2597
  791SOL     hw 3162   0.559   1.536   3.379 -0.1275 -1.1584 -0.6971
  791SOL     hw 3163   0.559   1.637   3.266 -0.3776  0.7292  0.9544
  791SOL     vw 3164   0.602   1.587   3.323 -0.2486 -0.4444 -0.1572
  792SOL     ow 3165   3.858   0.177   4.323 -0.3539 -0.0944 -0.1447
  792SOL     hw 3166   3.855   0.083   4.339 -0.0379 -0.1420 -0.3392
  792SOL     hw 3167   3.934   0.189   4.265 -0.4615  0.2642 -0.2167
  792SOL     vw 3168   3.868   0.166   4.317 -0.3264 -0.0533 -0.1800
  793SOL     ow 3169   3.279   5.876   2.876 -0.5706 -0.9286 -0.1823
  793SOL     hw 3170   3.257   5.925   2.796 -1.2927 -1.0306 -0.0507
  793SOL     hw 3171   3.298   5.944   2.941  0.8688 -0.8462 -0.6575
  793SOL     vw 3172   3.279   5.891   2.874 -0.4759 -0.9313 -0.2276
  794SOL     ow 3173   2.669   2.193   0.823 -0.4972  0.3872  0.5941
  794SOL     hw 3174   2.590   2.201   0.771 -0.6348 -0.6278  0.6330
  794SOL     hw 3175   2.721   2.126   0.778  1.1567  2.2623 -0.4360
  794SOL     vw 3176   2.666   2.185   0.810 -0.2971  0.5007  0.4633
  795SOL     ow 3177   5.048   3.464   2.454  0.1858 -0.3748  0.1815
  795SOL     hw 3178   4.959   3.434   2.433  0.7280 -2.2710  0.5088
  795SOL     hw 3179   5.059   3.543   2.400 -1.9824  0.3948  0.7621
  795SOL     vw 3180   5.038   3.471   2.444 -0.0288 -0.5234  0.3011
  796SOL     ow 3181   5.777   2.083   6.607  0.0005 -0.4796 -0.1050
  796SOL     hw 3182   5.694   2.119   6.637 -0.4627 -1.4445 -0.2080
  796SOL     hw 3183   5.778   2.101   6.513 -0.1700 -0.6208 -0.1335
  796SOL     vw 3184   5.766   2.090   6.598 -0.0830 -0.6256 -0.1223
  797SOL     ow 3185   2.336   4.304   4.320  0.7028 -0.0402  0.4817
  797SOL     hw 3186   2.426   4.328   4.339  0.7353  0.7651 -0.5783
  797SOL     hw 3187   2.284   4.379   4.352  0.5840  0.3463 -0.5856
  797SOL     vw 3188   2.341   4.317   4.327  0.6917  0.1171  0.2010
  798SOL     ow 3189   0.851   1.594   1.318 -0.1636  0.0313 -0.0051
  798SOL     hw 3190   0.760   1.573   1.335 -0.5247  1.9501  0.7174
  798SOL     hw 3191   0.883   1.630   1.401  0.5517  1.6043 -0.9150
  798SOL     vw 3192   0.843   1.596   1.331 -0.1169  0.4920 -0.0299
  799SOL     ow 3193   6.053   0.027   0.454 -0.0234  0.1924 -0.5420
  799SOL     hw 3194   5.960   0.009   0.466  0.5095 -1.6577  1.4647
  799SOL     hw 3195   6.058   0.121   0.439 -2.1343  0.5647  0.7090
  799SOL     vw 3196   6.042   0.037   0.454 -0.2317 -0.0026 -0.1122
  800SOL     ow 3197   3.120   6.907   7.064 -0.4748  0.1459 -0.1577
  800SOL     hw 3198   3.169   6.854   7.002 -1.2197  0.5003 -1.0712
  800SOL     hw 3199   3.031   6.872   7.060 -0.8112  0.9928 -0.2300
  800SOL     vw 3200   3.114   6.895   7.056 -0.6174  0.3045 -0.2880
  801SOL     ow 3201   1.669   4.768   7.550 -0.2700  0.6066 -0.1104
  801SOL     hw 3202   1.711   4.689   7.585  1.2819  1.0385 -0.8967
  801SOL     hw 3203   1.733   4.804   7.489 -0.0069  3.6762  1.7991
  801SOL     vw 3204   1.683   4.762   7.547 -0.0306  1.0688  0.0378
  802SOL     ow 3205   6.615   1.226   2.911 -0.6345  0.1112  0.2020
  802SOL     hw 3206   6.554   1.225   2.836 -0.2446  2.0686 -0.1978
  802SOL     hw 3207   6.671   1.302   2.895  2.0569 -1.6618  0.4974
  802SOL     vw 3208   6.614   1.236   2.899 -0.2277  0.1355  0.1884
  803SOL     ow 3209   4.237   5.518   4.418 -0.3917  0.1318 -0.5776
  803SOL     hw 3210   4.186   5.539   4.496 -2.0044 -0.9379 -1.2899
  803SOL     hw 3211   4.319   5.482   4.451 -0.5374  0.8413  0.6067
  803SOL     vw 3212   4.241   5.516   4.433 -0.6237  0.0839 -0.5152
  804SOL     ow 3213   5.947   1.629   1.962 -0.5847  0.4116  0.3376
  804SOL     hw 3214   5.990   1.712   1.985 -0.5652  0.7554 -0.9022
  804SOL     hw 3215   6.010   1.561   1.986 -0.5358  0.7513  1.2202
  804SOL     vw 3216   5.961   1.631   1.969 -0.5760  0.5018  0.2905
  805SOL     ow 3217   0.593   0.287   2.787 -0.1613  0.1395  0.5797
  805SOL     hw 3218   0.636   0.367   2.817 -0.0167  0.7495 -1.1801
  805SOL     hw 3219   0.507   0.290   2.829 -0.0206  1.0142  0.8343
  805SOL     vw 3220   0.588   0.298   2.797 -0.1236  0.3354  0.3811
  806SOL     ow 3221   6.484   4.444   1.914  0.0721 -0.6171 -0.3601
  806SOL     hw 3222   6.489   4.462   1.820  1.5206  2.0416  0.1362
  806SOL     hw 3223   6.572   4.461   1.947 -0.9317  0.9290  1.8228
  806SOL     vw 3224   6.496   4.449   1.906  0.1311 -0.0622 -0.0066
  807SOL     ow 3225   0.365   7.162   3.399  0.3223 -0.5753  0.2170
  807SOL     hw 3226   0.355   7.217   3.322  2.2912 -0.2827  0.1023
  807SOL     hw 3227   0.459   7.166   3.419 -0.1935 -0.0769  3.0397
  807SOL     vw 3228   0.376   7.170   3.392  0.5140 -0.4709  0.5742
  808SOL     ow 3229   2.346   4.232   6.153 -0.0762  0.5885 -0.1863
  808SOL     hw 3230   2.275   4.177   6.185  0.0245  0.2972 -0.4470
  808SOL     hw 3231   2.392   4.261   6.232  0.8538 -1.0490 -0.0761
  808SOL     vw 3232   2.343   4.228   6.167  0.0597  0.3343 -0.2062
  809SOL     ow 3233   5.799   6.403   1.715  0.0960  0.0401  0.4881
  809SOL     hw 3234   5.832   6.493   1.711 -0.5845  0.2473 -0.6898
  809SOL     hw 3235   5.864   6.352   1.666  1.9250 -0.6180  3.3360
  809SOL     vw 3236   5.812   6.408   1.708  0.2475 -0.0198  0.7085
  810SOL     ow 3237   6.817   6.236   0.326 -0.9750  0.1161 -0.3149
  810SOL     hw 3238   6.876   6.247   0.251 -0.8911 -0.1678 -0.2931
  810SOL     hw 3239   6.830   6.145   0.353  0.8214  0.8283  1.5415
  810SOL     vw 3240   6.827   6.226   0.319 -0.7272  0.1726 -0.0671
  811SOL     ow 3241   3.613   5.389   6.464  0.1998  0.0880  0.5408
  811SOL     hw 3242   3.656   5.313   6.502  1.0432  0.3670  0.1728
  811SOL     hw 3243   3.582   5.439   6.540  2.1654  0.8115  0.9363
  811SOL     vw 3244   3.615   5.386   6.479  0.5703  0.2203  0.5445
  812SOL     ow 3245   0.400   3.849   6.279 -0.1920 -0.8065  0.3887
  812SOL     hw 3246   0.392   3.775   6.218  1.3413  0.8121 -1.9350
  812SOL     hw 3247   0.469   3.904   6.242 -2.1014  2.4699  1.2648
  812SOL     vw 3248   0.408   3.846   6.266 -0.2416 -0.1606  0.1976
  813SOL     ow 3249   3.908   3.714   3.560 -0.1546 -0.1806 -0.4794
  813SOL     hw 3250   3.843   3.656   3.520  1.4572 -0.9341 -2.1551
  813SOL     hw 3251   3.949   3.758   3.486  1.8874 -0.4622  0.4278
  813SOL     vw 3252   3.905   3.712   3.545  0.3275 -0.3172 -0.5809
  814SOL     ow 3253   3.954   3.608   0.801  0.0510  0.2983  0.0903
  814SOL     hw 3254   3.981   3.570   0.717 -0.0282  0.6315 -0.0883
  814SOL     hw 3255   3.886   3.548   0.833  0.6326 -0.2544  0.2951
  814SOL     vw 3256   3.948   3.595   0.794  0.1172  0.2694  0.0937
  815SOL     ow 3257   0.901   7.050   0.024 -0.1103 -0.5716 -0.0282
  815SOL     hw 3258   0.833   6.984   0.042 -0.4423 -0.6543 -1.5223
  815SOL     hw 3259   0.949   7.056   0.107 -2.4328  0.0982  1.3939
  815SOL     vw 3260   0.898   7.042   0.038 -0.4606 -0.4940 -0.0377
  816SOL     ow 3261   4.684   1.589   4.049 -0.5173  0.4561  0.6810
  816SOL     hw 3262   4.657   1.508   4.006 -2.2359  1.1774  0.2959
  816SOL     hw 3263   4.622   1.655   4.016  0.2302  1.7251  1.7141
  816SOL     vw 3264   4.672   1.587   4.039 -0.6454  0.7187  0.7663
  817SOL     ow 3265   1.224   0.165   6.124 -0.4200  0.0777  0.1925
  817SOL     hw 3266   1.176   0.239   6.086 -2.0576 -1.3524 -0.6804
  817SOL     hw 3267   1.234   0.103   6.051 -1.6939 -1.8009  1.5296
  817SOL     vw 3268   1.219   0.167   6.109 -0.8041 -0.3588  0.2539
  818SOL     ow 3269   1.333   0.209   2.866  0.8534  0.7061  0.2699
  818SOL     hw 3270   1.260   0.187   2.923  0.8422  0.0993  0.0231
  818SOL     hw 3271   1.307   0.292   2.825  0.1477  0.3161 -0.0848
  818SOL     vw 3272   1.320   0.217   2.868  0.7588  0.5746  0.1905
  819SOL     ow 3273   1.252   4.299   5.691 -0.4087  0.0845 -0.1203
  819SOL     hw 3274   1.316   4.329   5.756  0.6421 -0.4399 -0.9012
  819SOL     hw 3275   1.171   4.287   5.742  0.1519  0.5623  0.9136
  819SOL     vw 3276   1.250   4.301   5.707 -0.1960  0.0784 -0.0868
  820SOL     ow 3277   0.650   5.162   2.061 -0.4423 -0.3200 -0.3941
  820SOL     hw 3278   0.607   5.135   1.980 -0.7050 -0.0984 -0.3309
  820SOL     hw 3279   0.601   5.118   2.130 -0.0406 -0.7346 -0.3720
  820SOL     vw 3280   0.638   5.153   2.059 -0.4239 -0.3457 -0.3829
  821SOL     ow 3281   5.485   3.582   3.191  0.3123  0.0006 -0.3390
  821SOL     hw 3282   5.488   3.657   3.131 -0.4018 -0.1209 -0.5338
  821SOL     hw 3283   5.432   3.517   3.145  0.4251 -0.3994  0.0913
  821SOL     vw 3284   5.478   3.583   3.177  0.2332 -0.0679 -0.3079
  822SOL     ow 3285   4.189   6.487   3.183 -0.1726 -0.6448 -0.2438
  822SOL     hw 3286   4.158   6.545   3.253 -0.7688 -2.3907  1.0168
  822SOL     hw 3287   4.258   6.537   3.140  1.2241  0.0071  2.5041
  822SOL     vw 3288   4.194   6.502   3.186 -0.0670 -0.7892  0.2850
  823SOL     ow 3289   6.685   6.616   1.169 -0.3330  0.2467 -0.0567
  823SOL     hw 3290   6.723   6.560   1.101 -2.9765 -1.3461 -0.3771
  823SOL     hw 3291   6.711   6.704   1.144 -1.0119 -0.2831 -3.0953
  823SOL     vw 3292   6.694   6.620   1.157 -0.7713 -0.0334 -0.4999
  824SOL     ow 3293   1.751   2.705   4.942 -0.9918  0.1582  0.2199
  824SOL     hw 3294   1.810   2.673   5.011 -0.3149 -2.3510 -1.3733
  824SOL     hw 3295   1.664   2.678   4.970 -0.8332 -0.0272  0.5456
  824SOL     vw 3296   1.748   2.697   4.955 -0.8816 -0.1973  0.0527
  825SOL     ow 3297   7.223   1.000   4.418  0.4474  0.1874 -0.5062
  825SOL     hw 3298   7.316   0.985   4.437  0.2778  0.3027  0.4169
  825SOL     hw 3299   7.201   1.079   4.466 -0.6128 -0.8793  0.8317
  825SOL     vw 3300   7.232   1.008   4.427  0.2851  0.0618 -0.2079
  826SOL     ow 3301   6.587   0.577   0.038 -0.1835 -0.1894  0.1996
  826SOL     hw 3302   6.574   0.483   0.056  1.1253 -0.3314  0.5068
  826SOL     hw 3303   6.581   0.618   0.124 -0.4606 -0.0300  0.1031
  826SOL     vw 3304   6.585   0.570   0.052 -0.0474 -0.1871  0.2274
  827SOL     ow 3305   1.873   2.816   5.173 -0.2306  0.3363 -0.3459
  827SOL     hw 3306   1.856   2.860   5.090 -1.3771 -2.1172 -1.5181
  827SOL     hw 3307   1.965   2.834   5.192 -0.5528  2.8720 -0.8769
  827SOL     vw 3308   1.882   2.824   5.165 -0.4243  0.3471 -0.5708
  828SOL     ow 3309   6.770   2.102   2.277  0.5089  0.2963  0.5977
  828SOL     hw 3310   6.798   2.023   2.323 -0.0579 -0.8237 -0.8818
  828SOL     hw 3311   6.806   2.174   2.328  2.1457 -0.9512  1.2869
  828SOL     vw 3312   6.778   2.101   2.290  0.6502 -0.0161  0.4933
  829SOL     ow 3313   6.014   7.435   4.763 -0.9400 -0.0139  0.7313
  829SOL     hw 3314   5.922   7.414   4.777 -0.7866 -1.8606 -0.7026
  829SOL     hw 3315   6.013   7.510   4.703 -1.5411 -0.6758 -0.1134
  829SOL     vw 3316   6.002   7.442   4.757 -0.9992 -0.3448  0.4306
  830SOL     ow 3317   2.682   4.549   2.807 -0.3627 -0.4972  0.6646
  830SOL     hw 3318   2.733   4.513   2.880  0.2418  0.2447  0.6186
  830SOL     hw 3319   2.593   4.557   2.842 -0.8614 -3.3111  0.2385
  830SOL     vw 3320   2.677   4.546   2.822 -0.3488 -0.7706  0.6022
  831SOL     ow 3321   2.377   1.048   5.376  0.5082 -0.1305 -0.4585
  831SOL     hw 3322   2.440   1.078   5.442  1.7700 -1.4029 -1.0066
  831SOL     hw 3323   2.381   0.952   5.382 -0.2439 -0.2472 -1.5542
  831SOL     vw 3324   2.386   1.039   5.385  0.5754 -0.3138 -0.6752
  832SOL     ow 3325   3.746   3.896   5.452  0.1611  0.0508  0.5082
  832SOL     hw 3326   3.842   3.886   5.456  0.0468 -0.6524  2.1369
  832SOL     hw 3327   3.721   3.845   5.375  1.0920  0.2145  0.0803
  832SOL     vw 3328   3.756   3.888   5.442  0.2688 -0.0204  0.6666
  833SOL     ow 3329   3.127   1.860   1.267  1.0002 -0.2371  0.1130
  833SOL     hw 3330   3.193   1.917   1.307 -0.6020  1.3963  0.5864
  833SOL     hw 3331   3.055   1.859   1.330 -1.3556  1.8874 -2.2879
  833SOL     vw 3332   3.127   1.868   1.281  0.4780  0.2586 -0.1413
  834SOL     ow 3333   2.718   2.887   5.959  0.0748  0.3609 -0.2923
  834SOL     hw 3334   2.657   2.933   5.901  0.3812  2.2610  0.7933
  834SOL     hw 3335   2.783   2.954   5.983  0.9021 -0.8190  0.9040
  834SOL     vw 3336   2.719   2.902   5.955  0.2242  0.4560  0.0088
  835SOL     ow 3337   6.352   3.961   6.897  0.0480  0.0964  0.1153
  835SOL     hw 3338   6.384   3.921   6.978  1.6066  0.4913 -0.2796
  835SOL     hw 3339   6.358   3.891   6.832 -0.2541  0.0737  0.1071
  835SOL     vw 3340   6.357   3.946   6.899  0.2134  0.1456  0.0620
  836SOL     ow 3341   1.197   2.137   4.498  0.5969  0.1404 -0.2912
  836SOL     hw 3342   1.262   2.122   4.429 -0.1463  1.0138 -1.2117
  836SOL     hw 3343   1.149   2.055   4.503  1.1636 -0.1993 -0.2564
  836SOL     vw 3344   1.200   2.124   4.489  0.5736  0.2108 -0.4079
  837SOL     ow 3345   5.874   5.410   7.051  0.5317  0.2192  0.1397
  837SOL     hw 3346   5.859   5.328   7.098  3.0258  0.2258  1.0941
  837SOL     hw 3347   5.924   5.385   6.974 -0.4585  0.6376 -0.6600
  837SOL     vw 3348   5.878   5.396   7.047  0.7300  0.2751  0.1602
  838SOL     ow 3349   2.945   5.157   3.075 -0.5162 -1.0645 -0.8370
  838SOL     hw 3350   2.973   5.127   3.162  0.9598 -0.2377 -1.0028
  838SOL     hw 3351   2.986   5.243   3.065 -0.4538 -1.2589 -2.4596
  838SOL     vw 3352   2.954   5.164   3.085 -0.3133 -0.9809 -1.0730
  839SOL     ow 3353   7.430   5.708   1.521  0.0465  0.0182  0.0877
  839SOL     hw 3354   7.484   5.772   1.567  0.5383 -1.2230  1.3118
  839SOL     hw 3355   7.493   5.650   1.478 -0.3711 -0.1753 -0.2702
  839SOL     vw 3356   7.445   5.709   1.521  0.0560 -0.1709  0.2019
  840SOL     ow 3357   1.830   0.185   2.415  0.8538 -0.2904 -0.1169
  840SOL     hw 3358   1.790   0.251   2.471  0.2659 -1.3517  0.7669
  840SOL     hw 3359   1.920   0.176   2.448  0.5958 -0.7089  0.4853
  840SOL     vw 3360   1.837   0.192   2.427  0.7422 -0.4856  0.0792
  841SOL     ow 3361   3.896   3.202   4.479 -0.3969 -0.3077 -0.3822
  841SOL     hw 3362   3.950   3.266   4.525 -0.7255  0.1146 -0.5736
  841SOL     hw 3363   3.951   3.124   4.472  0.2405  0.1648 -0.7030
  841SOL     vw 3364   3.910   3.200   4.484 -0.3562 -0.1897 -0.4499
  842SOL     ow 3365   5.342   0.867   6.216  0.9785 -0.1115  0.0832
  842SOL     hw 3366   5.318   0.843   6.127  0.5154 -0.6900  0.3603
  842SOL     hw 3367   5.279   0.821   6.271  0.7313  0.9024  0.6736
  842SOL     vw 3368   5.330   0.858   6.212  0.8848 -0.0540  0.1976
  843SOL     ow 3369   6.819   7.279   4.799 -1.2870  0.3513  0.3270
  843SOL     hw 3370   6.889   7.217   4.778 -0.3211  1.9248 -1.4247
  843SOL     hw 3371   6.755   7.269   4.729 -2.0139  0.0996  1.0123
  843SOL     vw 3372   6.820   7.270   4.787 -1.2553  0.5257  0.1864
  844SOL     ow 3373   2.716   7.135   7.082  0.3104  0.7963 -0.2588
  844SOL     hw 3374   2.740   7.124   6.990 -1.0165  0.1543 -0.5544
  844SOL     hw 3375   2.731   7.228   7.100 -1.6274  1.5041 -1.8398
  844SOL     vw 3376   2.721   7.146   7.072 -0.1203  0.8051 -0.5066
  845SOL     ow 3377   1.476   4.604   3.174 -0.0206 -0.2160 -0.0512
  845SOL     hw 3378   1.501   4.682   3.225  0.0616  0.0195 -0.4482
  845SOL     hw 3379   1.527   4.533   3.213  0.9717  0.1838 -0.5780
  845SOL     vw 3380   1.486   4.605   3.186  0.1212 -0.1323 -0.1731
  846SOL     ow 3381   0.943   1.394   4.828  0.4933  0.1117 -0.4591
  846SOL     hw 3382   0.902   1.346   4.900 -0.0240  1.4150  0.1463
  846SOL     hw 3383   0.973   1.326   4.768 -0.9488 -0.9382 -0.0418
  846SOL     vw 3384   0.942   1.379   4.830  0.2348  0.1452 -0.3242
  847SOL     ow 3385   4.439   3.285   1.778  0.0456  0.0057  0.4083
  847SOL     hw 3386   4.354   3.328   1.769  0.3055  0.7548  1.3761
  847SOL     hw 3387   4.466   3.266   1.688 -1.2931 -0.5688  0.1008
  847SOL     vw 3388   4.431   3.288   1.765 -0.0968  0.0287  0.4954
  848SOL     ow 3389   0.822   0.062   4.301 -0.0303  0.1479  1.0794
  848SOL     hw 3390   0.911   0.071   4.336  0.0712 -0.9064  1.1352
  848SOL     hw 3391   0.815  -0.031   4.279 -1.0687  0.2525  0.9343
  848SOL     vw 3392   0.833   0.051   4.303 -0.1539  0.0226  1.0676
  849SOL     ow 3393   0.943   5.418   6.003  0.2960 -0.1113 -0.6415
  849SOL     hw 3394   0.974   5.339   6.048 -0.5025 -1.3092 -2.1065
  849SOL     hw 3395   1.021   5.456   5.964  1.0066  0.9344  1.6405
  849SOL     vw 3396   0.957   5.413   6.004  0.2843 -0.1314 -0.5341
  850SOL     ow 3397   6.842   5.710   5.919  0.2957  0.5323 -0.0679
  850SOL     hw 3398   6.884   5.633   5.958 -0.2338  1.1603  1.8529
  850SOL     hw 3399   6.859   5.702   5.825 -0.3124 -2.2883 -0.0287
  850SOL     vw 3400   6.849   5.699   5.912  0.1459  0.2429  0.1905
  851SOL     ow 3401   0.739   1.812   1.547 -0.3726  0.9634  0.5807
  851SOL     hw 3402   0.828   1.824   1.515 -0.6893 -2.5670 -2.2127
  851SOL     hw 3403   0.683   1.853   1.481 -0.8892  1.3303  1.2325
  851SOL     vw 3404   0.743   1.819   1.534 -0.4825  0.5460  0.2981
  852SOL     ow 3405   3.208   1.148   3.574 -0.8485 -0.2116  0.5639
  852SOL     hw 3406   3.157   1.185   3.501  1.5302  0.8189 -0.7221
  852SOL     hw 3407   3.163   1.179   3.652 -2.1032  0.7606 -0.4808
  852SOL     vw 3408   3.195   1.157   3.574 -0.7004  0.0526  0.2565
  853SOL     ow 3409   5.952   4.118   2.693  0.0885 -0.0953 -0.2213
  853SOL     hw 3410   5.891   4.045   2.685 -2.4018  2.0459 -2.4078
  853SOL     hw 3411   5.950   4.141   2.785 -2.4662 -0.0919 -0.2250
  853SOL     vw 3412   5.944   4.111   2.704 -0.5772  0.1876 -0.5102
  854SOL     ow 3413   6.205   1.593   4.601 -0.2723  0.5235  0.2487
  854SOL     hw 3414   6.294   1.611   4.569  0.4081 -2.4553  0.2274
  854SOL     hw 3415   6.216   1.584   4.696 -0.9486  1.9207  0.4932
  854SOL     vw 3416   6.218   1.594   4.609 -0.2718  0.3149  0.2780
  855SOL     ow 3417   1.072   5.199   1.299  0.9526 -0.2210  0.0602
  855SOL     hw 3418   0.989   5.231   1.263  0.1283 -0.8480  1.3599
  855SOL     hw 3419   1.059   5.105   1.309  1.3577 -0.1360  1.4833
  855SOL     vw 3420   1.059   5.191   1.295  0.8972 -0.2925  0.4194
  856SOL     ow 3421   4.205   2.166   1.089  0.4211  0.1158  0.5862
  856SOL     hw 3422   4.132   2.166   1.027  0.5349  0.3565  0.4493
  856SOL     hw 3423   4.228   2.074   1.100  1.0400  0.1316 -0.4855
  856SOL     vw 3424   4.198   2.154   1.082  0.5174  0.1495  0.4268
  857SOL     ow 3425   1.090   4.305   2.992 -1.0077 -0.6753  0.5091
  857SOL     hw 3426   1.047   4.315   3.077  2.6133  0.8116  2.3774
  857SOL     hw 3427   1.048   4.370   2.936 -2.7913 -0.9937  1.3996
  857SOL     vw 3428   1.079   4.315   2.996 -0.7653 -0.5212  0.8731
  858SOL     ow 3429   1.277   2.834   4.663  0.6423 -0.0519 -0.2859
  858SOL     hw 3430   1.341   2.901   4.688  0.1889 -0.1203  1.1095
  858SOL     hw 3431   1.250   2.859   4.575  1.2321  1.0209 -0.1811
  858SOL     vw 3432   1.282   2.846   4.655  0.6602  0.0807 -0.0882
  859SOL     ow 3433   3.251   7.203   3.201  0.3790  0.3414  1.0441
  859SOL     hw 3434   3.215   7.116   3.221  1.6531 -1.5479 -3.5734
  859SOL     hw 3435   3.178   7.250   3.160  1.4174 -1.8358 -4.0668
  859SOL     vw 3436   3.237   7.198   3.198  0.6843 -0.1953 -0.2396
  860SOL     ow 3437   3.278   4.823   4.976  0.6088  0.0091  0.3925
  860SOL     hw 3438   3.226   4.743   4.975 -0.8720  0.8332 -3.2464
  860SOL     hw 3439   3.354   4.803   4.921  0.4726  0.9202 -0.1504
  860SOL     vw 3440   3.281   4.810   4.969  0.3955  0.2382 -0.1593
  861SOL     ow 3441   4.132   5.089   1.713 -0.0838 -0.1619 -0.2346
  861SOL     hw 3442   4.078   5.167   1.727 -1.2181 -0.4167 -2.6467
  861SOL     hw 3443   4.108   5.059   1.625  0.6342 -3.0076  0.4491
  861SOL     vw 3444   4.122   5.095   1.703 -0.1388 -0.5710 -0.4626
  862SOL     ow 3445   0.021   0.949   1.112 -0.2151  0.1154  0.3168
  862SOL     hw 3446   0.103   0.964   1.159  1.4422 -2.4019 -1.5485
  862SOL     hw 3447   0.013   1.024   1.053  0.6875  0.4413  0.5937
  862SOL     vw 3448   0.031   0.961   1.111  0.1226 -0.1737  0.1072
  863SOL     ow 3449   6.523   6.875   1.494  0.9844 -0.5024 -0.1715
  863SOL     hw 3450   6.515   6.842   1.404  2.4914 -1.1614 -0.1047
  863SOL     hw 3451   6.488   6.804   1.548  1.5889 -0.8161 -0.1759
  863SOL     vw 3452   6.517   6.861   1.489  1.2629 -0.6309 -0.1633
  864SOL     ow 3453   0.844   2.439   3.091  0.7611  0.3512  0.5101
  864SOL     hw 3454   0.831   2.440   2.996 -1.5375 -1.7605  0.6832
  864SOL     hw 3455   0.896   2.360   3.108 -1.1429 -0.8570  1.1098
  864SOL     vw 3456   0.849   2.429   3.081  0.2066 -0.0869  0.6119
  865SOL     ow 3457   4.205   4.284   0.327 -0.1131 -0.0402 -0.2904
  865SOL     hw 3458   4.288   4.281   0.279 -1.1824  1.7069 -2.4657
  865SOL     hw 3459   4.141   4.250   0.264 -1.2027 -0.3185  0.9418
  865SOL     vw 3460   4.208   4.279   0.312 -0.3979  0.1538 -0.4148
  866SOL     ow 3461   2.279   0.408   0.820  0.0205  0.7871  0.3255
  866SOL     hw 3462   2.328   0.344   0.871 -1.0998  1.5717  2.5315
  866SOL     hw 3463   2.344   0.472   0.793  0.5369  0.8549  1.6448
  866SOL     vw 3464   2.294   0.408   0.823 -0.0591  0.8995  0.7906
  867SOL     ow 3465   0.937   5.690   7.305  0.2797  0.1091  0.2190
  867SOL     hw 3466   0.941   5.772   7.257  0.2097 -0.0579 -0.0723
  867SOL     hw 3467   0.923   5.717   7.396  1.7597  0.4670  0.3647
  867SOL     vw 3468   0.935   5.704   7.311  0.4657  0.1342  0.1998
  868SOL     ow 3469   1.845   0.010   7.173 -0.6149  0.4208 -0.4263
  868SOL     hw 3470   1.899  -0.039   7.111  2.1327  2.3017  0.2722
  868SOL     hw 3471   1.856  -0.036   7.256 -1.1048  0.1079 -0.5340
  868SOL     vw 3472   1.853  -0.002   7.176 -0.3170  0.6278 -0.3486
  869SOL     ow 3473   4.279   6.712   0.399 -0.3292 -0.0841 -0.1986
  869SOL     hw 3474   4.257   6.635   0.347 -1.8640 -0.2756  0.6657
  869SOL     hw 3475   4.375   6.716   0.396 -0.2773 -1.3260 -1.2295
  869SOL     vw 3476   4.289   6.702   0.392 -0.5248 -0.2732 -0.2206
  870SOL     ow 3477   1.962   5.762   5.815  0.2953  0.3096  0.1035
  870SOL     hw 3478   1.918   5.847   5.821  0.4884  0.4954 -0.8439
  870SOL     hw 3479   1.904   5.709   5.760  1.8280  0.9958 -2.3283
  870SOL     vw 3480   1.948   5.767   5.808  0.5230  0.4246 -0.3421
  871SOL     ow 3481   3.803   0.981   6.758  0.1253  0.3097  0.9470
  871SOL     hw 3482   3.818   0.922   6.832 -0.3777 -1.0266  0.0069
  871SOL     hw 3483   3.816   1.069   6.795  2.1137 -0.3925  2.0988
  871SOL     vw 3484   3.807   0.985   6.773  0.3213  0.0407  0.9744
  872SOL     ow 3485   0.223   2.708   6.301 -0.0177 -0.1739 -0.3839
  872SOL     hw 3486   0.249   2.714   6.209 -3.1020 -1.6444 -1.4894
  872SOL     hw 3487   0.127   2.705   6.298 -0.4179  2.6885  3.1145
  872SOL     vw 3488   0.214   2.709   6.288 -0.4775  0.0097 -0.0682
  873SOL     ow 3489   0.862   2.028   4.361  0.2062  0.4797 -0.4477
  873SOL     hw 3490   0.884   2.113   4.325  0.2093  0.5730 -0.2243
  873SOL     hw 3491   0.774   2.039   4.397  0.0476  0.2835 -0.7609
  873SOL     vw 3492   0.853   2.040   4.361  0.1857  0.4661 -0.4594
  874SOL     ow 3493   2.070   2.922   1.588  0.2820  0.1522 -0.2348
  874SOL     hw 3494   2.157   2.900   1.622 -1.0990 -2.3339  2.0520
  874SOL     hw 3495   2.013   2.921   1.664 -1.9933  0.5044 -1.8216
  874SOL     vw 3496   2.074   2.919   1.602 -0.2004 -0.1293 -0.1425
  875SOL     ow 3497   1.415   1.357   4.145 -0.3334 -0.3888  0.0908
  875SOL     hw 3498   1.427   1.292   4.213 -1.9614 -0.4407  0.3633
  875SOL     hw 3499   1.356   1.316   4.082 -0.1170  0.2434 -0.5451
  875SOL     vw 3500   1.409   1.343   4.145 -0.5196 -0.3123  0.0432
  876SOL     ow 3501   0.378   1.568   3.060  0.5259  0.1663 -0.0401
  876SOL     hw 3502   0.395   1.624   3.135  0.9407 -2.5640  2.0686
  876SOL     hw 3503   0.283   1.559   3.057  0.5020  0.3846  0.0467
  876SOL     vw 3504   0.368   1.574   3.069  0.5775 -0.1652  0.2495
  877SOL     ow 3505   0.112   6.187   0.707  0.0732 -0.1332  0.0239
  877SOL     hw 3506   0.193   6.167   0.754  0.6178 -0.3377 -0.9485
  877SOL     hw 3507   0.136   6.260   0.649 -0.5159 -0.0101 -0.0666
  877SOL     vw 3508   0.126   6.194   0.705  0.0673 -0.1438 -0.1163
  878SOL     ow 3509   7.177   2.881   7.531  0.2643  0.4606  0.3448
  878SOL     hw 3510   7.228   2.909   7.607 -0.5822  1.9850  0.3972
  878SOL     hw 3511   7.242   2.858   7.465  1.0288  1.6523  0.6559
  878SOL     vw 3512   7.192   2.881   7.532  0.2534  0.8188  0.3929
  879SOL     ow 3513   7.299   7.261   7.440 -0.0646 -0.1738 -0.0323
  879SOL     hw 3514   7.315   7.349   7.474 -0.8816 -0.6831  1.7948
  879SOL     hw 3515   7.378   7.212   7.462  0.3328  0.0462 -0.9260
  879SOL     vw 3516   7.311   7.266   7.447 -0.1202 -0.2117  0.0911
  880SOL     ow 3517   3.469   4.411   6.188 -0.0766 -0.2876 -0.0437
  880SOL     hw 3518   3.441   4.495   6.150  1.1108  1.0329  1.8102
  880SOL     hw 3519   3.539   4.435   6.248 -0.5130 -2.4906  1.4520
  880SOL     vw 3520   3.474   4.425   6.191  0.0224 -0.4041  0.3984
  881SOL     ow 3521   1.275   4.370   3.226  0.2227  0.0243 -0.7914
  881SOL     hw 3522   1.251   4.450   3.273 -2.9155 -1.3001  0.0939
  881SOL     hw 3523   1.345   4.332   3.279 -0.5012  0.5702  0.6133
  881SOL     vw 3524   1.281   4.376   3.239 -0.2868 -0.0784 -0.4892
  882SOL     ow 3525   7.085   5.224   0.493  0.1141  0.1448 -0.5922
  882SOL     hw 3526   7.098   5.295   0.431 -1.3469 -0.7801 -2.0369
  882SOL     hw 3527   7.123   5.256   0.575 -2.2345  3.4631 -0.5836
  882SOL     vw 3528   7.092   5.238   0.496 -0.3884  0.4604 -0.7816
  883SOL     ow 3529   4.118   3.203   0.222 -0.0557  0.6356  0.3481
  883SOL     hw 3530   4.154   3.288   0.245  0.1184  0.6842 -0.1034
  883SOL     hw 3531   4.047   3.189   0.285 -0.6644  1.5115 -0.1396
  883SOL     vw 3532   4.113   3.212   0.233 -0.1130  0.7576  0.2242
  884SOL     ow 3533   0.448   5.079   0.789 -0.3210  0.5980 -0.9647
  884SOL     hw 3534   0.399   5.117   0.716 -5.4104 -1.1904  1.0543
  884SOL     hw 3535   0.427   5.136   0.863  1.3380  0.0820 -0.0482
  884SOL     vw 3536   0.439   5.092   0.789 -0.7736  0.2937 -0.5774
  885SOL     ow 3537   0.448   6.511   4.721  0.6353 -0.4655 -0.0752
  885SOL     hw 3538   0.434   6.595   4.764 -0.9204 -0.2040 -1.0017
  885SOL     hw 3539   0.458   6.533   4.628 -1.9569 -1.3853 -0.6594
  885SOL     vw 3540   0.447   6.525   4.714  0.0881 -0.5522 -0.2747
  886SOL     ow 3541   4.665   5.541   0.778 -0.1914  0.2078 -0.6457
  886SOL     hw 3542   4.677   5.627   0.737  1.1205  2.7986  4.4295
  886SOL     hw 3543   4.588   5.550   0.834  0.3569 -1.7037  0.5263
  886SOL     vw 3544   4.657   5.553   0.780  0.0541  0.2975  0.1785
  887SOL     ow 3545   3.757   4.969   4.326 -0.3072 -0.0952  0.3050
  887SOL     hw 3546   3.674   5.018   4.327 -0.4611 -0.3508  0.7825
  887SOL     hw 3547   3.732   4.880   4.353  0.3677  0.2408  2.1848
  887SOL     vw 3548   3.742   4.964   4.330 -0.2384 -0.0844  0.6158
  888SOL     ow 3549   0.591   2.565   0.750  0.2809 -0.2793  0.0933
  888SOL     hw 3550   0.506   2.607   0.761  0.5145  0.4596 -0.8068
  888SOL     hw 3551   0.655   2.634   0.766  0.6809 -0.4030 -0.9140
  888SOL     vw 3552   0.588   2.579   0.754  0.3645 -0.1981 -0.1584
  889SOL     ow 3553   3.063   7.332   0.060 -0.0618  0.3417 -0.3133
  889SOL     hw 3554   3.028   7.366  -0.023 -0.8371 -1.1722 -0.6214
  889SOL     hw 3555   3.047   7.238   0.057 -1.3606  0.4139  2.1781
  889SOL     vw 3556   3.057   7.324   0.049 -0.3353  0.1516 -0.0252
  890SOL     ow 3557   6.568   3.791   4.005 -0.2793  0.2736 -0.4975
  890SOL     hw 3558   6.534   3.705   4.029 -1.0905  0.4454 -1.0110
  890SOL     hw 3559   6.604   3.779   3.917  2.3103 -0.2509  0.5412
  890SOL     vw 3560   6.569   3.778   3.996 -0.0448  0.2270 -0.4280
  891SOL     ow 3561   5.178   0.582   1.211 -0.2474  0.0579 -0.8147
  891SOL     hw 3562   5.123   0.540   1.145  1.0747  0.1845 -2.0743
  891SOL     hw 3563   5.162   0.676   1.199  0.7604  0.1375 -1.7191
  891SOL     vw 3564   5.169   0.589   1.201  0.0601  0.0851 -1.1003
  892SOL     ow 3565   4.425   2.491   3.010  0.1216 -0.1815 -0.6286
  892SOL     hw 3566   4.476   2.544   2.948  0.2082  1.4731  0.7645
  892SOL     hw 3567   4.442   2.401   2.984  2.1727  0.3737 -1.4493
  892SOL     vw 3568   4.434   2.486   2.998  0.4036  0.1100 -0.5530
  893SOL     ow 3569   3.060   1.803   5.623  0.6556  1.1005  0.4517
  893SOL     hw 3570   3.111   1.829   5.546 -0.2458  0.4357 -0.4001
  893SOL     hw 3571   3.114   1.737   5.666 -0.3472 -1.3076 -1.6993
  893SOL     vw 3572   3.074   1.798   5.619  0.4044  0.6951  0.0556
  894SOL     ow 3573   3.937   3.330   6.769  0.2504  0.2607 -0.9445
  894SOL     hw 3574   3.919   3.368   6.683 -1.2133  0.2804 -0.6501
  894SOL     hw 3575   4.022   3.368   6.794 -0.3248  1.9925 -1.4361
  894SOL     vw 3576   3.946   3.340   6.761 -0.0186  0.4919 -0.9706
  895SOL     ow 3577   3.486   6.814   0.321 -0.6279  0.4293  0.1476
  895SOL     hw 3578   3.503   6.801   0.414 -1.3117  0.1923  0.2400
  895SOL     hw 3579   3.444   6.733   0.292 -4.7624  2.1659  0.6822
  895SOL     vw 3580   3.483   6.801   0.329 -1.2635  0.6270  0.2303
  896SOL     ow 3581   0.476   6.809   3.712 -0.0196 -0.3400 -0.3777
  896SOL     hw 3582   0.386   6.791   3.737  0.5017 -0.5674  1.5650
  896SOL     hw 3583   0.526   6.794   3.793  1.6552  0.5048 -1.2068
  896SOL     vw 3584   0.471   6.804   3.726  0.2701 -0.2584 -0.2308
  897SOL     ow 3585   6.044   6.372   5.191  0.3225  0.2684  0.4532
  897SOL     hw 3586   5.975   6.348   5.254 -0.3817 -0.9505 -0.7303
  897SOL     hw 3587   6.042   6.467   5.189  1.4952  0.4843  3.4624
  897SOL     vw 3588   6.034   6.381   5.199  0.3841  0.1364  0.6940
  898SOL     ow 3589   0.953   4.571   1.463  0.3049  0.3972 -0.4208
  898SOL     hw 3590   0.873   4.604   1.423 -0.5759 -0.6541  0.4329
  898SOL     hw 3591   0.926   4.534   1.547  1.2936 -1.9362 -1.0352
  898SOL     vw 3592   0.939   4.570   1.469  0.3192 -0.0491 -0.3892
  899SOL     ow 3593   1.768   1.651   6.869 -0.2485 -0.2465  0.3892
  899SOL     hw 3594   1.747   1.653   6.962 -0.9496 -1.2480  0.2656
  899SOL     hw 3595   1.765   1.559   6.845 -0.7308  0.0429 -0.7634
  899SOL     vw 3596   1.765   1.639   6.878 -0.4046 -0.3405  0.2205
  900SOL     ow 3597   0.501   6.106   6.110 -0.3916  0.2099 -0.2627
  900SOL     hw 3598   0.578   6.080   6.161 -0.9642 -1.6275 -0.2526
  900SOL     hw 3599   0.432   6.046   6.139 -1.2410  0.3662 -1.8582
  900SOL     vw 3600   0.502   6.095   6.121 -0.5792 -0.0122 -0.4718
  901SOL     ow 3601   4.804   5.048   2.781 -0.0023  0.5610 -0.2958
  901SOL     hw 3602   4.888   5.006   2.765 -0.5604 -1.4033  1.5318
  901SOL     hw 3603   4.741   4.976   2.780 -1.1436  1.4481  1.9965
  901SOL     vw 3604   4.807   5.033   2.778 -0.2267  0.4189  0.2477
  902SOL     ow 3605   2.077   1.580   7.060 -0.2186  0.0453 -0.4817
  902SOL     hw 3606   2.139   1.534   7.003  0.9429  0.7863  0.1307
  902SOL     hw 3607   2.132   1.617   7.129 -1.2616  1.3655 -0.3231
  902SOL     vw 3608   2.093   1.579   7.062 -0.2028  0.3172 -0.3800
  903SOL     ow 3609   4.961   6.124   0.517  0.1236 -0.0268 -0.2743
  903SOL     hw 3610   4.958   6.189   0.447 -2.6805  0.4033  0.1286
  903SOL     hw 3611   5.050   6.089   0.514  0.6017  1.2150 -2.8790
  903SOL     vw 3612   4.972   6.128   0.508 -0.1833  0.1941 -0.5648
  904SOL     ow 3613   1.744   2.481   3.742  0.2144  0.4203  0.2190
  904SOL     hw 3614   1.704   2.419   3.803 -1.3523  0.9001 -0.2466
  904SOL     hw 3615   1.809   2.430   3.694 -2.1783 -1.4094 -1.3327
  904SOL     vw 3616   1.747   2.466   3.744 -0.3080  0.2422 -0.0472
  905SOL     ow 3617   3.488   7.212   2.973  0.4127  0.5668 -0.3558
  905SOL     hw 3618   3.475   7.285   2.912  1.4169 -0.2929 -1.6566
  905SOL     hw 3619   3.567   7.167   2.940  0.1943 -0.7145  0.7893
  905SOL     vw 3620   3.497   7.216   2.960  0.5164  0.2842 -0.3762
  906SOL     ow 3621   7.421   3.806   2.502 -0.2882 -0.0126 -0.0101
  906SOL     hw 3622   7.403   3.760   2.583 -2.5589 -2.8283 -1.9335
  906SOL     hw 3623   7.368   3.886   2.507 -1.9171 -1.0933  0.5193
  906SOL     vw 3624   7.412   3.811   2.513 -0.8028 -0.5267 -0.1938
  907SOL     ow 3625   6.984   3.049   4.943 -0.1464  0.5184 -0.5516
  907SOL     hw 3626   7.073   3.030   4.915  0.1909  2.1466 -0.7084
  907SOL     hw 3627   6.994   3.086   5.031 -0.7660 -0.1980 -0.1666
  907SOL     vw 3628   6.997   3.052   4.951 -0.1838  0.6386 -0.5217
  908SOL     ow 3629   4.423   3.905   1.928 -0.1718 -0.1047  0.2503
  908SOL     hw 3630   4.381   3.910   2.014  1.5987  0.4420  1.1347
  908SOL     hw 3631   4.423   3.995   1.896  0.6497 -0.0223  0.4525
  908SOL     vw 3632   4.418   3.917   1.935  0.1702 -0.0218  0.3937
  909SOL     ow 3633   6.004   0.792   5.329 -0.3481  0.1591 -0.2496
  909SOL     hw 3634   5.982   0.867   5.383 -1.8667  0.4719 -1.2404
  909SOL     hw 3635   5.972   0.815   5.241 -0.7771 -1.5915 -0.5991
  909SOL     vw 3636   5.997   0.805   5.324 -0.6049 -0.0306 -0.4263
  910SOL     ow 3637   7.325   5.118   6.440  0.3741 -0.1867  0.9406
  910SOL     hw 3638   7.333   5.023   6.428 -2.2706 -0.6786  2.2978
  910SOL     hw 3639   7.246   5.141   6.391  1.4907  1.5211 -0.1333
  910SOL     vw 3640   7.315   5.109   6.432  0.1726 -0.0265  0.9780
  911SOL     ow 3641   1.974   0.705   4.708 -0.1275  0.2137  0.4681
  911SOL     hw 3642   1.880   0.699   4.727 -0.5362  1.1389 -1.0970
  911SOL     hw 3643   1.979   0.719   4.614  1.7246 -2.9017 -0.0398
  911SOL     vw 3644   1.962   0.706   4.698  0.0629 -0.0753  0.1948
  912SOL     ow 3645   1.086   1.156   0.699  0.9723  0.4590 -0.0327
  912SOL     hw 3646   1.176   1.190   0.694  1.9709 -2.1042 -0.6984
  912SOL     hw 3647   1.093   1.064   0.674 -1.6237 -0.2219  1.3758
  912SOL     vw 3648   1.099   1.149   0.695  0.7614  0.0309  0.0653
  913SOL     ow 3649   5.970   5.334   3.036  0.3359 -0.1868 -0.3022
  913SOL     hw 3650   6.001   5.332   3.127  0.7165 -0.4349 -0.4370
  913SOL     hw 3651   5.922   5.252   3.025  2.1784 -1.2281 -0.9799
  913SOL     vw 3652   5.968   5.323   3.047  0.6294 -0.3569 -0.4095
  914SOL     ow 3653   0.484   3.215   3.601 -0.5197 -0.2443 -0.9146
  914SOL     hw 3654   0.507   3.305   3.579  1.0729 -0.1037  0.9680
  914SOL     hw 3655   0.391   3.217   3.620 -0.3402  1.2038 -0.0890
  914SOL     vw 3656   0.475   3.227   3.601 -0.2859 -0.0348 -0.5572
  915SOL     ow 3657   5.276   3.073   1.321  0.4399  0.0883 -0.2899
  915SOL     hw 3658   5.302   3.112   1.237 -0.1587  0.0574 -0.4919
  915SOL     hw 3659   5.198   3.022   1.300 -1.3896  2.2671  0.7844
  915SOL     vw 3660   5.269   3.072   1.307  0.1194  0.3716 -0.1748
  916SOL     ow 3661   0.446   2.683   4.809 -0.2685  0.4941  0.4583
  916SOL     hw 3662   0.356   2.659   4.786 -0.3186  0.9285  0.1854
  916SOL     hw 3663   0.445   2.689   4.905 -0.3321 -0.2582  0.5130
  916SOL     vw 3664   0.434   2.681   4.819 -0.2835  0.4522  0.4296
  917SOL     ow 3665   4.473   1.232   4.280  0.0091  0.1478 -0.2753
  917SOL     hw 3666   4.546   1.268   4.330  1.0986 -0.3532 -1.4499
  917SOL     hw 3667   4.514   1.174   4.216 -1.4719 -0.6938 -0.5196
  917SOL     vw 3668   4.488   1.229   4.278 -0.0427 -0.0294 -0.4625
  918SOL     ow 3669   5.562   3.468   3.496  0.1298 -0.6048  0.3444
  918SOL     hw 3670   5.473   3.467   3.531  0.4380  0.6677  1.2431
  918SOL     hw 3671   5.589   3.376   3.494 -1.9650 -1.2686 -2.0179
  918SOL     vw 3672   5.554   3.456   3.500 -0.1059 -0.5244  0.1513
  919SOL     ow 3673   4.588   2.108   0.958 -0.7908  0.2883  0.4672
  919SOL     hw 3674   4.639   2.039   1.002 -1.2919 -0.1146  0.4224
  919SOL     hw 3675   4.597   2.184   1.015 -0.0394  0.2539  0.4024
  919SOL     vw 3676   4.596   2.109   0.971 -0.7577  0.2307  0.4528
  920SOL     ow 3677   3.238   0.611   2.094 -0.2032 -0.3052 -0.5476
  920SOL     hw 3678   3.210   0.687   2.146  0.8226 -0.3379  0.1048
  920SOL     hw 3679   3.208   0.535   2.144  0.4882 -0.3338 -0.1611
  920SOL     vw 3680   3.231   0.611   2.108  0.0234 -0.3133 -0.4106
  921SOL     ow 3681   3.723   5.527   2.731  0.0730 -0.3261  0.3002
  921SOL     hw 3682   3.773   5.609   2.734 -1.4554  0.6825 -0.4018
  921SOL     hw 3683   3.788   5.460   2.711  1.4758  0.6063  1.5402
  921SOL     vw 3684   3.738   5.529   2.729  0.0565 -0.0701  0.3712
  922SOL     ow 3685   1.734   7.135   3.012 -0.0724  0.3185 -0.0446
  922SOL     hw 3686   1.647   7.170   2.993  0.1191  0.1202 -1.4149
  922SOL     hw 3687   1.722   7.041   3.020 -0.1764  0.4122  1.0939
  922SOL     vw 3688   1.721   7.127   3.010 -0.0608  0.3052 -0.0751
  923SOL     ow 3689   4.611   0.911   4.917  0.3414  0.7494 -0.2807
  923SOL     hw 3690   4.561   0.991   4.935 -1.2120 -0.1798 -0.2598
  923SOL     hw 3691   4.685   0.940   4.865 -0.9310  2.0522 -1.4575
  923SOL     vw 3692   4.614   0.925   4.913 -0.0315  0.7986 -0.4332
  924SOL     ow 3693   3.197   5.329   6.678  0.1247  0.3037 -0.7497
  924SOL     hw 3694   3.109   5.305   6.707 -0.9626  0.9571 -3.2271
  924SOL     hw 3695   3.256   5.290   6.743 -1.9835  0.3946  1.3278
  924SOL     vw 3696   3.194   5.321   6.690 -0.2970  0.4017 -0.8025
  925SOL     ow 3697   2.967   0.111   6.180  0.4722  0.4047 -0.6159
  925SOL     hw 3698   2.875   0.130   6.197  1.0726  1.2661  2.3393
  925SOL     hw 3699   2.979   0.020   6.205  0.4346  0.3315 -0.8690
  925SOL     vw 3700   2.957   0.102   6.186  0.5463  0.5087 -0.2592
  926SOL     ow 3701   6.170   2.327   3.338  0.2414  0.8530 -0.1688
  926SOL     hw 3702   6.122   2.381   3.275  1.4539  0.9471 -1.0562
  926SOL     hw 3703   6.242   2.383   3.367  1.2807 -0.1250 -0.7913
  926SOL     vw 3704   6.173   2.341   3.333  0.5386  0.7365 -0.3681
  927SOL     ow 3705   1.048   5.582   6.233 -0.3928  0.4765  0.6907
  927SOL     hw 3706   1.049   5.516   6.302  2.3331 -0.5010 -0.1568
  927SOL     hw 3707   1.048   5.665   6.280 -1.0721 -0.1320  1.8092
  927SOL     vw 3708   1.048   5.584   6.248 -0.1228  0.2673  0.7265
  928SOL     ow 3709   6.720   4.079   3.831  0.5755  0.7621  0.4474
  928SOL     hw 3710   6.646   4.091   3.772  1.1200 -1.5152 -0.7930
  928SOL     hw 3711   6.778   4.154   3.813 -0.3498  1.3427 -0.1855
  928SOL     vw 3712   6.718   4.091   3.821  0.5250  0.5383  0.2003
  929SOL     ow 3713   5.466   6.920   4.847 -0.1978 -0.6342  0.2830
  929SOL     hw 3714   5.489   6.827   4.840 -0.2134 -0.6876  0.9203
  929SOL     hw 3715   5.464   6.950   4.756 -1.2582 -1.5234 -0.0152
  929SOL     vw 3716   5.469   6.912   4.834 -0.3395 -0.7586  0.3278
  930SOL     ow 3717   0.000   7.558   7.383 -0.2702 -0.3356 -0.1396
  930SOL     hw 3718   0.047   7.577   7.464 -0.2557  0.2076 -0.2732
  930SOL     hw 3719  -0.005   7.642   7.338 -0.7626 -0.5277 -0.4487
  930SOL     vw 3720   0.006   7.572   7.388 -0.3333 -0.2894 -0.1981
  931SOL     ow 3721   1.170   6.564   3.152  0.2238  0.1942  0.0570
  931SOL     hw 3722   1.134   6.554   3.240  0.5168 -0.4156  0.1111
  931SOL     hw 3723   1.218   6.483   3.136  1.9731  1.1512  0.1830
  931SOL     vw 3724   1.172   6.552   3.161  0.4932  0.2398  0.0808
  932SOL     ow 3725   5.804   5.686   7.105  0.9270  0.2666  0.6108
  932SOL     hw 3726   5.807   5.671   7.011 -1.0182 -0.8134  0.6661
  932SOL     hw 3727   5.779   5.778   7.114  2.9368  0.9020  0.1392
  932SOL     vw 3728   5.801   5.696   7.094  0.9356  0.2077  0.5555
  933SOL     ow 3729   5.454   3.940   0.344  0.2133 -0.2193  0.1513
  933SOL     hw 3730   5.376   3.929   0.398  1.0378 -1.8745  1.1109
  933SOL     hw 3731   5.525   3.905   0.399  1.9792  2.9388  0.1175
  933SOL     vw 3732   5.453   3.934   0.359  0.5553 -0.0211  0.2735
  934SOL     ow 3733   3.114   2.841   1.369 -0.6811  0.6185  0.1043
  934SOL     hw 3734   3.164   2.847   1.451  0.2470 -1.7307 -0.2430
  934SOL     hw 3735   3.028   2.877   1.392  0.1228  1.7469  1.5763
  934SOL     vw 3736   3.109   2.847   1.383 -0.4525  0.4574  0.2527
  935SOL     ow 3737   6.356   0.745   2.124 -0.3783 -0.2656  0.0649
  935SOL     hw 3738   6.345   0.827   2.172  0.6658  0.2253 -0.4879
  935SOL     hw 3739   6.346   0.677   2.190 -0.8736  0.3220  0.6078
  935SOL     vw 3740   6.353   0.747   2.139 -0.3057 -0.1233  0.0635
  936SOL     ow 3741   3.229   0.353   3.274 -0.4030 -0.1860  0.7359
  936SOL     hw 3742   3.308   0.356   3.220 -0.7566  2.2653  0.2439
  936SOL     hw 3743   3.197   0.263   3.265  0.9584 -0.5437 -1.0776
  936SOL     vw 3744   3.235   0.342   3.266 -0.2700  0.0902  0.4318
  937SOL     ow 3745   6.757   4.960   4.998  0.0422  0.1239  0.8171
  937SOL     hw 3746   6.714   4.954   5.083  1.4127  0.4728  1.5631
  937SOL     hw 3747   6.776   4.869   4.975 -2.4159 -0.2067 -0.2898
  937SOL     vw 3748   6.754   4.948   5.006 -0.1011  0.1264  0.7694
  938SOL     ow 3749   5.007   5.599   6.813 -1.0168  0.2038  0.0939
  938SOL     hw 3750   4.973   5.657   6.745 -4.2189 -1.3939  0.1422
  938SOL     hw 3751   4.988   5.644   6.895  0.8111  1.1216  0.0554
  938SOL     vw 3752   5.000   5.613   6.815 -1.1978  0.1140  0.0951
  939SOL     ow 3753   3.939   7.240   6.814 -0.2851 -0.2433  0.0668
  939SOL     hw 3754   3.989   7.195   6.746  1.7716 -1.2503  2.1158
  939SOL     hw 3755   3.891   7.171   6.859 -1.2609  0.3451 -0.0499
  939SOL     vw 3756   3.939   7.225   6.811 -0.1423 -0.2990  0.3219
  940SOL     ow 3757   6.559   4.073   5.371 -0.2579  0.5050 -0.2252
  940SOL     hw 3758   6.630   4.132   5.344 -0.5738 -0.0357 -2.3986
  940SOL     hw 3759   6.517   4.119   5.444  0.6954  2.0625 -0.6017
  940SOL     vw 3760   6.563   4.087   5.377 -0.1736  0.6392 -0.5617
  941SOL     ow 3761   4.262   2.214   2.690 -0.2575  0.3335  0.2843
  941SOL     hw 3762   4.212   2.151   2.742 -0.2377 -0.8076 -1.0178
  941SOL     hw 3763   4.230   2.202   2.601  3.4835 -1.7952 -1.0008
  941SOL     vw 3764   4.251   2.204   2.685  0.2389 -0.0980 -0.0571
  942SOL     ow 3765   6.219   3.364   0.168  0.1374  1.2875  0.2988
  942SOL     hw 3766   6.265   3.413   0.237  2.2085 -0.1812  0.0859
  942SOL     hw 3767   6.289   3.316   0.123 -1.5573 -0.4243 -0.6444
  942SOL     vw 3768   6.235   3.364   0.171  0.1872  0.8680  0.1463
  943SOL     ow 3769   1.411   3.067   4.727 -0.3224  0.8844  0.0994
  943SOL     hw 3770   1.489   3.066   4.781 -0.2600  1.9434  0.0433
  943SOL     hw 3771   1.414   3.151   4.681  0.5353 -0.6399 -2.8866
  943SOL     vw 3772   1.421   3.078   4.728 -0.2010  0.8229 -0.3018
  944SOL     ow 3773   4.567   0.271   1.014 -0.2967  0.6366 -0.5104
  944SOL     hw 3774   4.615   0.194   1.043  0.4329  1.2843  0.0417
  944SOL     hw 3775   4.501   0.285   1.082  2.1454  2.8318  1.5930
  944SOL     vw 3776   4.564   0.263   1.027  0.1218  1.0117 -0.1601
  945SOL     ow 3777   0.140   4.375   2.392 -0.4527  0.1794  0.3265
  945SOL     hw 3778   0.162   4.283   2.383 -1.1480  0.1401 -1.3930
  945SOL     hw 3779   0.061   4.377   2.446 -0.6634 -0.2547  0.0307
  945SOL     vw 3780   0.132   4.363   2.398 -0.5723  0.1171  0.0606
  946SOL     ow 3781   4.795   5.325   5.685  0.7106  0.0468 -0.5527
  946SOL     hw 3782   4.869   5.350   5.629  0.6410 -0.3017 -0.8041
  946SOL     hw 3783   4.718   5.352   5.635  0.6700  0.5353 -0.2287
  946SOL     vw 3784   4.795   5.332   5.671  0.6959  0.0653 -0.5431
  947SOL     ow 3785   5.394   3.103   3.296 -0.9517 -0.0131 -0.4187
  947SOL     hw 3786   5.445   3.061   3.227  0.2778  2.6400 -1.2432
  947SOL     hw 3787   5.370   3.188   3.260 -2.6538  0.3739  1.4445
  947SOL     vw 3788   5.398   3.108   3.282 -1.0142  0.3879 -0.2817
  948SOL     ow 3789   5.787   6.550   1.421  0.0802  0.4627 -0.5167
  948SOL     hw 3790   5.871   6.529   1.381  1.2020  0.8310  1.5266
  948SOL     hw 3791   5.723   6.508   1.363  1.5968  0.5096 -2.3563
  948SOL     vw 3792   5.790   6.542   1.408  0.4282  0.5174 -0.4898
  949SOL     ow 3793   5.152   2.627   0.695  0.2351  0.5953 -0.3069
  949SOL     hw 3794   5.085   2.663   0.638  1.3247  0.5261 -1.6713
  949SOL     hw 3795   5.235   2.656   0.657  1.0796 -1.6294 -0.3078
  949SOL     vw 3796   5.154   2.635   0.683  0.4902  0.2927 -0.4871
  950SOL     ow 3797   0.263   1.767   2.378  0.4638 -0.6906  0.2048
  950SOL     hw 3798   0.207   1.766   2.300 -0.1134 -0.2214  0.6039
  950SOL     hw 3799   0.202   1.763   2.452  0.4828  4.1874  0.8211
  950SOL     vw 3800   0.247   1.767   2.377  0.3901  0.0148  0.3387
  951SOL     ow 3801   3.634   4.138   6.812 -0.1363  0.5580 -0.0333
  951SOL     hw 3802   3.674   4.159   6.728 -0.2176  2.4748  0.3578
  951SOL     hw 3803   3.547   4.104   6.789  0.7938 -1.4373 -0.7853
  951SOL     vw 3804   3.628   4.136   6.798 -0.0243  0.5479 -0.0811
  952SOL     ow 3805   1.466   2.823   0.592 -0.5663  0.0439  0.0912
  952SOL     hw 3806   1.479   2.824   0.497 -2.4049  0.4355 -0.1873
  952SOL     hw 3807   1.499   2.737   0.620  1.3906  0.4962 -0.6439
  952SOL     vw 3808   1.472   2.812   0.583 -0.5507  0.1553 -0.0426
  953SOL     ow 3809   1.484   2.687   4.985  0.2577 -0.5663  1.2483
  953SOL     hw 3810   1.455   2.655   4.899 -1.0653 -0.2306  1.5447
  953SOL     hw 3811   1.403   2.705   5.032  0.9580 -1.4333  2.8483
  953SOL     vw 3812   1.469   2.685   4.980  0.1755 -0.6363  1.4985
  954SOL     ow 3813   4.383   4.568   4.073 -0.3574  0.0814 -0.5211
  954SOL     hw 3814   4.348   4.614   3.996 -0.4918  1.2399  0.2164
  954SOL     hw 3815   4.467   4.533   4.042 -1.3012 -1.2041 -1.7759
  954SOL     vw 3816   4.389   4.570   4.059 -0.4995  0.0644 -0.5896
  955SOL     ow 3817   3.416   2.142   0.908 -0.5526 -0.6235  0.4306
  955SOL     hw 3818   3.451   2.231   0.895 -3.4958  0.5298 -0.5566
  955SOL     hw 3819   3.401   2.136   1.002  0.4438 -0.4242  0.6146
  955SOL     vw 3820   3.419   2.153   0.919 -0.8096 -0.4451  0.3246
  956SOL     ow 3821   6.202   3.155   5.913  0.2186  0.1249 -0.2630
  956SOL     hw 3822   6.234   3.207   5.839 -0.1706 -0.1027 -0.5963
  956SOL     hw 3823   6.280   3.114   5.949  0.2970 -0.6182 -1.2194
  956SOL     vw 3824   6.216   3.156   5.908  0.1774 -0.0032 -0.4327
  957SOL     ow 3825   5.106   4.439   4.494  0.1913 -0.4211  0.2183
  957SOL     hw 3826   5.060   4.361   4.465 -0.6749  1.0696 -2.8645
  957SOL     hw 3827   5.038   4.506   4.501  1.1524  0.5168  0.9102
  957SOL     vw 3828   5.091   4.438   4.491  0.2038 -0.1006 -0.0970
  958SOL     ow 3829   0.463   7.573   2.138  0.5136  0.5352 -0.8770
  958SOL     hw 3830   0.419   7.658   2.151  0.6232  0.7979 -2.1102
  958SOL     hw 3831   0.399   7.521   2.090 -0.2647 -0.7476  1.3956
  958SOL     vw 3832   0.449   7.578   2.133  0.4253  0.4008 -0.7398
  959SOL     ow 3833   6.991   1.904   1.056 -0.8292 -0.2537  0.2694
  959SOL     hw 3834   7.069   1.872   1.102  0.1762  1.5330 -0.1199
  959SOL     hw 3835   7.007   1.883   0.964  1.1678  3.5151 -0.4546
  959SOL     vw 3836   7.003   1.897   1.050 -0.4332  0.4793  0.1225
  960SOL     ow 3837   7.086   4.181   3.326  0.0197  1.2507 -0.6382
  960SOL     hw 3838   7.172   4.223   3.332  0.6967 -0.0763 -0.5573
  960SOL     hw 3839   7.080   4.128   3.406 -0.4257  0.5592 -1.1164
  960SOL     vw 3840   7.097   4.179   3.338  0.0503  0.9844 -0.6906
  961SOL     ow 3841   4.182   7.054   7.097  0.1230 -0.5094 -0.8505
  961SOL     hw 3842   4.203   7.134   7.049  0.5153 -0.4261 -0.5427
  961SOL     hw 3843   4.240   7.055   7.173 -1.4746  0.0757  0.4091
  961SOL     vw 3844   4.193   7.065   7.101 -0.0360 -0.4210 -0.6433
  962SOL     ow 3845   5.226   1.861   3.653 -0.2416  0.2153  0.1321
  962SOL     hw 3846   5.197   1.938   3.604 -1.4884  0.3508  1.0397
  962SOL     hw 3847   5.306   1.834   3.609 -1.6303 -0.0703 -2.3811
  962SOL     vw 3848   5.233   1.868   3.641 -0.5891  0.1954 -0.0798
  963SOL     ow 3849   7.270   2.138   2.500 -0.0754  0.4344 -0.2821
  963SOL     hw 3850   7.220   2.075   2.552  0.2362  2.4220  2.5908
  963SOL     hw 3851   7.211   2.212   2.489  0.8389  1.1459 -0.4532
  963SOL     vw 3852   7.256   2.139   2.505  0.0868  0.7905  0.0744
  964SOL     ow 3853   2.884   4.121   3.420 -0.2535  0.2492 -0.0332
  964SOL     hw 3854   2.822   4.149   3.352  1.1579  3.1819 -0.2624
  964SOL     hw 3855   2.948   4.067   3.374  1.3062  3.0560 -1.4741
  964SOL     vw 3856   2.884   4.118   3.405  0.1385  1.0064 -0.2536
  965SOL     ow 3857   1.258   4.849   3.171  0.1043 -0.8839  0.2832
  965SOL     hw 3858   1.231   4.780   3.232 -1.3094 -0.4750  0.1685
  965SOL     hw 3859   1.184   4.856   3.110  0.3158  0.5792  0.1691
  965SOL     vw 3860   1.245   4.841   3.171 -0.0542 -0.6368  0.2531
  966SOL     ow 3861   6.286   4.279   4.750  0.7636 -0.2888  0.0433
  966SOL     hw 3862   6.267   4.372   4.752  0.4945 -0.2169 -2.6366
  966SOL     hw 3863   6.371   4.272   4.708  1.0231 -1.2402  0.6827
  966SOL     vw 3864   6.294   4.290   4.745  0.7625 -0.4048 -0.2258
  967SOL     ow 3865   3.314   2.527   2.949  0.2492  0.0128 -0.4511
  967SOL     hw 3866   3.393   2.554   2.903  0.4090  0.8472  0.2941
  967SOL     hw 3867   3.244   2.579   2.910  0.2618  0.1657 -0.2686
  967SOL     vw 3868   3.315   2.537   2.938  0.2719  0.1431 -0.3287
  968SOL     ow 3869   1.895   0.276   1.578  0.6163 -0.0504  0.5493
  968SOL     hw 3870   1.845   0.349   1.612  2.5818  0.2063  3.2703
  968SOL     hw 3871   1.911   0.220   1.654  2.6026 -1.1879 -0.5948
  968SOL     vw 3872   1.891   0.278   1.592  1.1377 -0.1666  0.7573
  969SOL     ow 3873   4.597   5.770   4.678 -0.4917 -0.3263 -0.0594
  969SOL     hw 3874   4.611   5.857   4.642 -0.8703  0.4435  1.5629
  969SOL     hw 3875   4.628   5.710   4.610  1.8195  1.0994 -0.3611
  969SOL     vw 3876   4.603   5.773   4.664 -0.2367 -0.0367  0.1147
  970SOL     ow 3877   1.366   0.872   2.877  0.0015 -0.1828  0.5345
  970SOL     hw 3878   1.432   0.880   2.809 -1.4509  0.1327 -0.9107
  970SOL     hw 3879   1.302   0.941   2.857 -0.0950  0.4199  2.6816
  970SOL     vw 3880   1.366   0.882   2.865 -0.2028 -0.0616  0.6270
  971SOL     ow 3881   1.499   2.730   1.925  0.0766 -0.1275  0.6778
  971SOL     hw 3882   1.413   2.724   1.885  0.7514  0.3953 -0.9043
  971SOL     hw 3883   1.483   2.773   2.010 -1.4425 -1.8030  1.3009
  971SOL     vw 3884   1.486   2.735   1.931 -0.0348 -0.2794  0.5512
  972SOL     ow 3885   2.909   0.363   1.664  0.0555  0.3197  0.7404
  972SOL     hw 3886   2.869   0.347   1.579  1.7417 -2.1119  0.2862
  972SOL     hw 3887   2.875   0.448   1.691 -3.9002 -0.6768 -0.3575
  972SOL     vw 3888   2.899   0.372   1.657 -0.2439 -0.1326  0.5355
  973SOL     ow 3889   0.916   3.892   0.347 -0.8929 -0.0041  0.5362
  973SOL     hw 3890   0.859   3.937   0.284 -0.6667 -2.2563 -1.4429
  973SOL     hw 3891   0.995   3.946   0.352 -1.3031  0.7004 -0.4214
  973SOL     vw 3892   0.919   3.905   0.339 -0.9172 -0.2083  0.1487
  974SOL     ow 3893   6.697   6.796   5.528  0.5836 -0.5456 -0.7734
  974SOL     hw 3894   6.790   6.819   5.535  0.3020  0.6037 -0.6910
  974SOL     hw 3895   6.678   6.801   5.435  0.0682  1.5046 -0.6039
  974SOL     vw 3896   6.707   6.799   5.517  0.4785 -0.1235 -0.7401
  975SOL     ow 3897   1.491   3.739   5.627  0.4543 -0.3346  0.0845
  975SOL     hw 3898   1.447   3.819   5.600 -0.8280 -1.3192 -0.8804
  975SOL     hw 3899   1.434   3.668   5.596  1.9597 -1.6445  0.1546
  975SOL     vw 3900   1.477   3.740   5.619  0.4837 -0.6373 -0.0334
  976SOL     ow 3901   5.240   3.779   0.516  0.5224  0.3151  0.2782
  976SOL     hw 3902   5.157   3.756   0.474  1.2465 -1.1618 -0.4449
  976SOL     hw 3903   5.263   3.701   0.566  2.4219 -0.1123 -1.1253
  976SOL     vw 3904   5.232   3.765   0.517  0.8686  0.0639 -0.0024
  977SOL     ow 3905   7.574   0.903   5.281 -0.2138  0.3723  0.7363
  977SOL     hw 3906   7.512   0.942   5.343 -0.5054  1.3698 -0.1304
  977SOL     hw 3907   7.557   0.809   5.286 -2.0121  0.6233  0.3427
  977SOL     vw 3908   7.563   0.896   5.290 -0.4895  0.5370  0.5698
  978SOL     ow 3909   0.498   1.885   2.432  0.2781 -0.6583 -0.3160
  978SOL     hw 3910   0.413   1.855   2.466 -0.0269 -0.5276 -0.9354
  978SOL     hw 3911   0.476   1.927   2.349  1.1803 -2.5769 -1.5935
  978SOL     vw 3912   0.484   1.887   2.425  0.3568 -0.8942 -0.5662
  979SOL     ow 3913   0.869   6.120   6.911 -0.1331 -0.3453 -0.6950
  979SOL     hw 3914   0.960   6.129   6.884  0.5712  1.0925  1.9063
  979SOL     hw 3915   0.819   6.167   6.844  1.2488  0.8261 -0.9315
  979SOL     vw 3916   0.874   6.127   6.899  0.1421 -0.0005 -0.3831
  980SOL     ow 3917   7.167   3.501   1.061  0.5146 -0.1350 -0.3571
  980SOL     hw 3918   7.159   3.564   0.989  3.2643  0.7965  0.0309
  980SOL     hw 3919   7.241   3.533   1.113 -0.1832 -1.8240  1.8448
  980SOL     vw 3920   7.176   3.513   1.058  0.7851 -0.2351 -0.0154
  981SOL     ow 3921   2.239   4.153   2.906  0.5215  0.2638 -0.3061
  981SOL     hw 3922   2.263   4.168   2.998 -1.4081  1.8028  0.0083
  981SOL     hw 3923   2.222   4.059   2.900 -0.8651  0.3592  1.3375
  981SOL     vw 3924   2.240   4.143   2.918  0.0840  0.4795 -0.0477
  982SOL     ow 3925   1.106   6.324   7.249 -0.3225  0.0122  0.3657
  982SOL     hw 3926   1.160   6.245   7.245  1.2888  1.0416  0.8738
  982SOL     hw 3927   1.022   6.297   7.213 -0.4141 -2.4225  2.1058
  982SOL     vw 3928   1.102   6.310   7.244 -0.1220 -0.1733  0.6621
  983SOL     ow 3929   2.054   6.194   4.023  0.1425 -0.6080  0.6033
  983SOL     hw 3930   2.007   6.274   4.047  1.2690  0.7597 -1.4796
  983SOL     hw 3931   1.990   6.142   3.974 -0.1230 -0.2257  0.5421
  983SOL     vw 3932   2.039   6.197   4.020  0.2562 -0.3769  0.3207
  984SOL     ow 3933   4.681   2.154   2.995  0.0996 -0.6402 -0.6249
  984SOL     hw 3934   4.590   2.154   2.965 -0.1188 -1.4414 -0.0078
  984SOL     hw 3935   4.704   2.061   3.003  0.4882 -0.4555  0.6177
  984SOL     vw 3936   4.672   2.142   2.992  0.1221 -0.7213 -0.3796
  985SOL     ow 3937   6.316   6.320   3.027  0.0692  0.2002 -0.2317
  985SOL     hw 3938   6.325   6.390   3.092 -2.4427  0.5096 -0.1326
  985SOL     hw 3939   6.354   6.243   3.069  0.6580  0.9422  0.6312
  985SOL     vw 3940   6.322   6.319   3.041 -0.1845  0.3390 -0.1048
  986SOL     ow 3941   0.390   1.695   0.634 -0.3579  0.1460 -0.5065
  986SOL     hw 3942   0.396   1.618   0.691 -2.0753  0.1003 -0.3199
  986SOL     hw 3943   0.481   1.720   0.616  0.2214 -0.2513  1.6857
  986SOL     vw 3944   0.403   1.688   0.639 -0.5081  0.0875 -0.1926
  987SOL     ow 3945   6.644   0.314   2.515 -0.0831  0.3845  0.2552
  987SOL     hw 3946   6.683   0.298   2.601  0.3929  1.0923  0.1805
  987SOL     hw 3947   6.573   0.377   2.531  0.6283  1.2696  0.0098
  987SOL     vw 3948   6.640   0.320   2.528  0.0739  0.5947  0.2131
  988SOL     ow 3949   6.976   3.403   1.233  0.3861  0.7049 -0.3507
  988SOL     hw 3950   7.056   3.419   1.183  0.0255  0.5550 -0.9907
  988SOL     hw 3951   6.908   3.447   1.184 -0.3460 -1.2934 -1.2313
  988SOL     vw 3952   6.978   3.411   1.220  0.2420  0.4215 -0.5513
  989SOL     ow 3953   4.513   6.429   3.787 -0.9737  0.0162  0.9014
  989SOL     hw 3954   4.585   6.376   3.752 -0.6185  1.3109 -0.4181
  989SOL     hw 3955   4.437   6.370   3.784 -0.8859 -0.0907 -1.8010
  989SOL     vw 3956   4.512   6.414   3.782 -0.9153  0.1729  0.3707
  990SOL     ow 3957   6.446   1.272   2.691  0.1315  0.0172  0.1441
  990SOL     hw 3958   6.454   1.202   2.626 -4.1511  1.0599 -1.8769
  990SOL     hw 3959   6.483   1.349   2.648 -1.3560  0.3759 -0.5753
  990SOL     vw 3960   6.452   1.273   2.676 -0.6297  0.2021 -0.2176
  991SOL     ow 3961   0.127   5.516   3.125 -0.5565  0.0541 -0.2045
  991SOL     hw 3962   0.211   5.517   3.079 -0.8831 -1.6437 -0.9220
  991SOL     hw 3963   0.096   5.606   3.121  0.7443  0.5007 -0.8405
  991SOL     vw 3964   0.134   5.528   3.119 -0.4279 -0.1109 -0.3830
  992SOL     ow 3965   7.533   6.112   6.531 -0.0579  0.1898 -0.5200
  992SOL     hw 3966   7.489   6.057   6.596 -2.2709  1.9198 -0.4141
  992SOL     hw 3967   7.576   6.050   6.472 -0.5670 -1.5320  0.8235
  992SOL     vw 3968   7.533   6.097   6.532 -0.4172  0.1910 -0.3283
  993SOL     ow 3969   6.374   1.489   1.034  0.4448  0.2167  0.3516
  993SOL     hw 3970   6.397   1.533   0.952  0.3856  0.1567  0.3025
  993SOL     hw 3971   6.313   1.421   1.008 -2.0440  2.1243  0.7864
  993SOL     vw 3972   6.369   1.486   1.020  0.1087  0.4604  0.4025
  994SOL     ow 3973   4.075   2.795   0.072 -0.7811  0.1222 -0.2835
  994SOL     hw 3974   4.051   2.779  -0.019  2.5769 -1.2442 -1.0848
  994SOL     hw 3975   4.123   2.716   0.098  2.0247  2.1533  1.2048
  994SOL     vw 3976   4.079   2.782   0.063  0.0319  0.2100 -0.1929
  995SOL     ow 3977   2.137   2.793   4.527  0.0834  0.0721  0.0099
  995SOL     hw 3978   2.224   2.833   4.532  1.2558 -2.3116  0.3572
  995SOL     hw 3979   2.089   2.847   4.465  0.8482  3.0616  1.8248
  995SOL     vw 3980   2.142   2.805   4.519  0.3392  0.1521  0.2949
  996SOL     ow 3981   3.214   4.513   2.210  0.3383 -0.2137  1.0441
  996SOL     hw 3982   3.126   4.488   2.238  0.1731 -0.3640  0.4202
  996SOL     hw 3983   3.219   4.607   2.225 -1.1521  0.4753 -1.9894
  996SOL     vw 3984   3.203   4.522   2.215  0.1198 -0.1426  0.5617
  997SOL     ow 3985   0.165   3.338   7.432  0.0239  0.6815  0.7722
  997SOL     hw 3986   0.211   3.419   7.453 -0.6586  0.7271  2.2500
  997SOL     hw 3987   0.225   3.269   7.457 -0.1564  0.7444  1.4034
  997SOL     vw 3988   0.179   3.340   7.438 -0.0899  0.6958  1.0507
  998SOL     ow 3989   1.552   7.544   5.505 -0.2007  0.2327  0.1928
  998SOL     hw 3990   1.628   7.540   5.447  0.1182 -0.2839  0.6388
  998SOL     hw 3991   1.571   7.480   5.575 -0.7356  0.5840  0.6715
  998SOL     vw 3992   1.565   7.535   5.507 -0.2291  0.2110  0.3147
  999SOL     ow 3993   6.274   1.785   5.463 -0.0489 -0.9327 -0.5254
  999SOL     hw 3994   6.238   1.792   5.375 -1.5178  0.3739  0.1397
  999SOL     hw 3995   6.368   1.771   5.449 -0.2262 -0.6448 -2.2733
  999SOL     vw 3996   6.282   1.784   5.450 -0.2661 -0.7223 -0.6683
 1000SOL     ow 3997   7.029   1.924   2.823  0.1475 -0.6221 -0.6533
 1000SOL     hw 3998   7.095   1.886   2.881  0.4524 -0.0846 -0.6442
 1000SOL     hw 3999   7.009   1.854   2.760  0.2148 -1.0217 -0.2364
 1000SOL     vw 4000   7.035   1.909   2.823  0.1965 -0.6039 -0.5971
 1001SOL     ow 4001   2.887   3.971   1.131 -0.4879 -0.0759  0.2340
 1001SOL     hw 4002   2.800   3.968   1.172 -0.7494  0.4488 -0.2552
 1001SOL     hw 4003   2.894   4.061   1.099  0.2658 -0.1005  0.3191
 1001SOL     vw 4004   2.876   3.983   1.132 -0.4230 -0.0099  0.1807
 1002SOL     ow 4005   7.011   3.901   0.758 -0.1155  0.5559 -0.2013
 1002SOL     hw 4006   6.919   3.877   0.742 -0.5110  2.1204 -0.4171
 1002SOL     hw 4007   7.008   3.959   0.834  0.8927 -0.5621  0.7357
 1002SOL     vw 4008   6.998   3.905   0.766 -0.0348  0.6149 -0.1062
 1003SOL     ow 4009   1.387   7.529   3.300 -0.1719 -0.1496  0.3252
 1003SOL     hw 4010   1.436   7.496   3.225  0.6450 -0.5343  1.0067
 1003SOL     hw 4011   1.394   7.459   3.365 -1.9199 -0.3502  0.3286
 1003SOL     vw 4012   1.395   7.516   3.299 -0.2947 -0.2270  0.4156
 1004SOL     ow 4013   4.297   1.742   6.282 -1.1308 -0.1144  0.3922
 1004SOL     hw 4014   4.257   1.744   6.369 -2.7710 -1.4901 -0.2779
 1004SOL     hw 4015   4.328   1.652   6.271 -0.4343  0.1877 -0.2534
 1004SOL     vw 4016   4.296   1.731   6.292 -1.2553 -0.2560  0.2186
 1005SOL     ow 4017   1.848   2.570   3.181 -0.2358  0.5497 -0.3384
 1005SOL     hw 4018   1.864   2.664   3.179 -0.4948  0.5874 -1.0877
 1005SOL     hw 4019   1.804   2.552   3.098 -0.3862 -0.1972 -0.1027
 1005SOL     vw 4020   1.844   2.580   3.170 -0.2898  0.4561 -0.4061
 1006SOL     ow 4021   5.741   6.021   2.172 -0.0622  0.5674  0.4088
 1006SOL     hw 4022   5.721   5.929   2.187  2.2035  0.0076  0.1841
 1006SOL     hw 4023   5.770   6.026   2.081  3.3133  0.7724  1.3621
 1006SOL     vw 4024   5.742   6.010   2.162  0.6821  0.5205  0.5051
 1007SOL     ow 4025   1.532   1.758   6.975  0.0659  0.0130  0.3976
 1007SOL     hw 4026   1.571   1.727   6.893  2.4373  0.4370  1.2938
 1007SOL     hw 4027   1.485   1.682   7.009  0.3535 -0.6252 -0.5792
 1007SOL     vw 4028   1.531   1.744   6.968  0.4166 -0.0153  0.3872
 1008SOL     ow 4029   5.515   0.078   5.390  0.0403  0.0667 -0.0288
 1008SOL     hw 4030   5.473   0.159   5.417  0.4479  1.3080 -2.7119
 1008SOL     hw 4031   5.607   0.089   5.415 -0.0845  0.0394  0.4362
 1008SOL     vw 4032   5.522   0.090   5.397  0.0775  0.2269 -0.3214
 1009SOL     ow 4033   1.217   4.570   2.992 -0.1705  0.0143  0.3700
 1009SOL     hw 4034   1.246   4.646   3.042 -1.5904  1.3078 -0.6816
 1009SOL     hw 4035   1.259   4.579   2.907 -1.1466  0.2001 -0.1055
 1009SOL     vw 4036   1.227   4.581   2.988 -0.4867  0.2096  0.1684
 1010SOL     ow 4037   1.432   3.520   0.649 -0.3276 -0.4157  0.2607
 1010SOL     hw 4038   1.401   3.518   0.739 -0.5370 -1.5797  0.1887
 1010SOL     hw 4039   1.359   3.554   0.598  0.0761  1.0472  0.6053
 1010SOL     vw 4040   1.419   3.524   0.654 -0.3020 -0.3762  0.2967
 1011SOL     ow 4041   7.347   1.427   6.972  0.5553 -0.0469  0.2918
 1011SOL     hw 4042   7.331   1.517   6.943  1.0100  0.7358  2.3149
 1011SOL     hw 4043   7.289   1.416   7.048  0.1271 -1.6663 -0.2184
 1011SOL     vw 4044   7.337   1.437   6.978  0.5586 -0.1573  0.4916
 1012SOL     ow 4045   4.080   3.435   4.095  0.3020 -0.3812 -0.6288
 1012SOL     hw 4046   4.022   3.366   4.126  0.0776  1.2552  3.1750
 1012SOL     hw 4047   4.166   3.393   4.088  0.5437 -0.9376  3.2247
 1012SOL     vw 4048   4.084   3.421   4.098  0.3042 -0.2388  0.3815
 1013SOL     ow 4049   0.652   3.242   5.247  0.7292  0.3867  0.1402
 1013SOL     hw 4050   0.661   3.147   5.251  2.0586  0.2853 -2.7347
 1013SOL     hw 4051   0.728   3.276   5.295  1.6834 -0.0939 -0.9776
 1013SOL     vw 4052   0.663   3.234   5.254  1.0305  0.3099 -0.3865
 1014SOL     ow 4053   3.361   2.839   3.690 -0.4552 -0.3647  0.5397
 1014SOL     hw 4054   3.393   2.851   3.779 -0.0336  2.8711  0.0482
 1014SOL     hw 4055   3.416   2.895   3.636 -0.8412 -2.0632 -1.7982
 1014SOL     vw 4056   3.372   2.848   3.694 -0.4506 -0.1620  0.1664
 1015SOL     ow 4057   0.943   1.293   0.875  0.4472 -0.5525  0.0787
 1015SOL     hw 4058   1.000   1.250   0.811 -0.0253 -0.3843 -0.4591
 1015SOL     hw 4059   0.972   1.385   0.874 -1.1190 -0.0123 -1.6849
 1015SOL     vw 4060   0.955   1.300   0.866  0.1782 -0.4590 -0.2249
 1016SOL     ow 4061   1.617   4.146   5.748  0.7549  0.7245  0.2282
 1016SOL     hw 4062   1.546   4.095   5.786  1.8767  1.3722  3.5520
 1016SOL     hw 4063   1.584   4.236   5.749  0.9923  0.8118  0.1685
 1016SOL     vw 4064   1.603   4.152   5.753  0.9342  0.8214  0.6590
 1017SOL     ow 4065   1.591   7.481   6.654 -0.1308 -0.9611 -0.5161
 1017SOL     hw 4066   1.589   7.386   6.666  2.1433 -1.2578 -1.8817
 1017SOL     hw 4067   1.547   7.495   6.570  1.6758 -1.1224 -1.5295
 1017SOL     vw 4068   1.585   7.470   6.644  0.4076 -1.0214 -0.8302
 1018SOL     ow 4069   5.503   5.212   6.027  0.2666  0.1553  0.3662
 1018SOL     hw 4070   5.427   5.166   6.062 -0.3540 -0.4559 -1.6406
 1018SOL     hw 4071   5.506   5.186   5.935  1.8850  1.5469 -0.0187
 1018SOL     vw 4072   5.493   5.202   6.019  0.3986  0.2584  0.0503
 1019SOL     ow 4073   0.824   4.723   4.630  0.4559  0.6824  0.6892
 1019SOL     hw 4074   0.913   4.701   4.657  0.3998 -0.6988 -0.1368
 1019SOL     hw 4075   0.836   4.793   4.565  1.0054  0.0780  0.1153
 1019SOL     vw 4076   0.838   4.729   4.625  0.5210  0.4206  0.5045
 1020SOL     ow 4077   2.452   7.113   2.452 -0.4571  0.2178  0.3518
 1020SOL     hw 4078   2.426   7.055   2.381 -0.3354  1.7370 -0.9990
 1020SOL     hw 4079   2.370   7.152   2.482 -0.4370  0.0851  0.5778
 1020SOL     vw 4080   2.438   7.111   2.447 -0.4383  0.4008  0.2035
 1021SOL     ow 4081   2.580   5.111   1.175 -0.5704 -0.0065 -0.0566
 1021SOL     hw 4082   2.533   5.189   1.204  0.8779  0.3960  1.3376
 1021SOL     hw 4083   2.553   5.043   1.236  0.3356  0.1340  0.5162
 1021SOL     vw 4084   2.570   5.112   1.187 -0.2598  0.0651  0.2030
 1022SOL     ow 4085   7.276   3.337   6.374  0.1294 -0.2636  0.6952
 1022SOL     hw 4086   7.236   3.344   6.287 -2.5520  3.5965  1.9937
 1022SOL     hw 4087   7.208   3.298   6.428  0.6546  0.1217  1.6461
 1022SOL     vw 4088   7.262   3.332   6.369 -0.1552  0.2966  0.9918
 1023SOL     ow 4089   2.683   4.245   7.426 -0.1240  0.1260  0.3183
 1023SOL     hw 4090   2.720   4.297   7.497 -0.7666  0.7115  0.2305
 1023SOL     hw 4091   2.749   4.249   7.356  0.3539 -0.1670  0.7416
 1023SOL     vw 4092   2.697   4.252   7.426 -0.1458  0.1645  0.3626
 1024SOL     ow 4093   0.096   4.707   2.441 -0.7505 -0.5440  0.4843
 1024SOL     hw 4094   0.029   4.775   2.436 -1.7401 -1.4821  0.5052
 1024SOL     hw 4095   0.103   4.687   2.534  0.0082 -0.0214  0.5404
 1024SOL     vw 4096   0.088   4.713   2.452 -0.7810 -0.5987  0.4945
 1025SOL     ow 4097   3.143   2.216   2.899  0.0950  0.0700 -0.0352
 1025SOL     hw 4098   3.057   2.230   2.939 -0.0814 -0.4086 -0.2451
 1025SOL     hw 4099   3.132   2.139   2.844  1.0165 -0.8317  0.9861
 1025SOL     vw 4100   3.130   2.208   2.897  0.1932 -0.1122  0.0720
 1026SOL     ow 4101   4.011   4.966   0.599 -0.0624  0.2939  0.4677
 1026SOL     hw 4102   4.025   5.021   0.522 -1.1005 -0.6437 -0.4247
 1026SOL     hw 4103   3.921   4.984   0.626  0.2150  0.4336  1.3354
 1026SOL     vw 4104   4.001   4.976   0.592 -0.1628  0.1886  0.4645
 1027SOL     ow 4105   1.787   2.012   1.884  0.2423 -0.1880  0.7583
 1027SOL     hw 4106   1.784   1.972   1.971 -2.3023  2.1692  1.9212
 1027SOL     hw 4107   1.696   2.009   1.853  0.7394  0.7981 -0.9227
 1027SOL     vw 4108   1.774   2.007   1.891 -0.0279  0.2531  0.6899
 1028SOL     ow 4109   1.436   6.681   3.112 -0.5206 -0.1802 -0.0680
 1028SOL     hw 4110   1.509   6.726   3.153 -0.3031 -0.5478 -0.0552
 1028SOL     hw 4111   1.451   6.588   3.129  0.6295 -0.5375 -2.6357
 1028SOL     vw 4112   1.447   6.674   3.119 -0.3401 -0.2759 -0.4052
 1029SOL     ow 4113   2.283   2.907   1.315 -0.5522  0.3599  0.3225
 1029SOL     hw 4114   2.291   2.876   1.405 -2.1142  0.2277  0.4355
 1029SOL     hw 4115   2.238   2.991   1.323 -2.1252 -0.3812 -0.4310
 1029SOL     vw 4116   2.278   2.914   1.328 -0.9658  0.2447  0.2379
 1030SOL     ow 4117   2.842   3.299   1.689  0.5545  0.1566  0.3062
 1030SOL     hw 4118   2.790   3.284   1.768  0.6029  0.1950  0.3457
 1030SOL     hw 4119   2.778   3.321   1.622  0.3456 -1.5303 -0.0981
 1030SOL     vw 4120   2.827   3.300   1.691  0.5332 -0.0609  0.2581
 1031SOL     ow 4121   7.342   3.260   2.123  0.5356 -0.5763  0.4447
 1031SOL     hw 4122   7.328   3.353   2.102  3.0150 -0.5020 -1.4892
 1031SOL     hw 4123   7.333   3.255   2.218 -1.8813  1.1447  0.4065
 1031SOL     vw 4124   7.339   3.272   2.132  0.5438 -0.3394  0.1845
 1032SOL     ow 4125   4.210   1.430   3.270 -0.0981  0.2231 -0.2823
 1032SOL     hw 4126   4.271   1.440   3.344 -0.0811  1.2892 -0.4266
 1032SOL     hw 4127   4.200   1.336   3.260  0.2766  0.0557  0.7815
 1032SOL     vw 4128   4.217   1.419   3.279 -0.0465  0.3417 -0.1611
 1033SOL     ow 4129   6.964   6.154   1.621 -0.0317 -0.4979 -0.2392
 1033SOL     hw 4130   6.968   6.126   1.712  1.5924  0.2093 -0.0608
 1033SOL     hw 4131   6.936   6.246   1.625 -0.5997 -0.6500 -0.5105
 1033SOL     vw 4132   6.961   6.163   1.633  0.1075 -0.4246 -0.2515
 1034SOL     ow 4133   5.663   3.065   6.241 -0.0074  0.0764  0.5279
 1034SOL     hw 4134   5.593   3.007   6.214  0.4668 -0.0318 -0.5093
 1034SOL     hw 4135   5.738   3.008   6.255  0.4295  0.4060 -0.3816
 1034SOL     vw 4136   5.664   3.050   6.240  0.1128  0.1055  0.2711
 1035SOL     ow 4137   4.652   6.258   6.758 -0.6155  0.3897 -0.1584
 1035SOL     hw 4138   4.729   6.293   6.803 -0.9030  1.6407 -0.5899
 1035SOL     hw 4139   4.675   6.263   6.665 -1.0173  0.2849 -0.2645
 1035SOL     vw 4140   4.665   6.263   6.752 -0.7064  0.5410 -0.2291
 1036SOL     ow 4141   5.163   5.940   1.190  0.1881 -0.1444 -0.3150
 1036SOL     hw 4142   5.256   5.925   1.176 -0.2428 -1.6016 -2.0413
 1036SOL     hw 4143   5.130   5.970   1.106 -1.2311 -1.6300 -0.3375
 1036SOL     vw 4144   5.171   5.942   1.177 -0.0558 -0.5324 -0.5457
 1037SOL     ow 4145   5.413   6.462   2.306  0.7725  0.5553  0.8724
 1037SOL     hw 4146   5.486   6.403   2.289 -1.8435 -2.5630 -0.6027
 1037SOL     hw 4147   5.406   6.514   2.225  0.0197 -0.7669  0.0582
 1037SOL     vw 4148   5.422   6.461   2.293  0.3278 -0.0305  0.5704
 1038SOL     ow 4149   3.879   1.984   5.948 -0.4863  0.2220 -0.3812
 1038SOL     hw 4150   3.847   1.934   5.873 -0.7023  2.1743 -1.6936
 1038SOL     hw 4151   3.800   2.015   5.992 -0.3961  0.8428 -0.6379
 1038SOL     vw 4152   3.864   1.982   5.944 -0.5029  0.5615 -0.5884
 1039SOL     ow 4153   1.919   7.463   6.950 -0.1096 -0.1028 -0.5837
 1039SOL     hw 4154   1.866   7.399   6.902 -0.4042 -1.4948  1.4437
 1039SOL     hw 4155   1.994   7.412   6.981 -1.1772 -0.0163  2.4872
 1039SOL     vw 4156   1.922   7.448   6.948 -0.2893 -0.2754  0.0889
 1040SOL     ow 4157   0.106   0.668   5.052 -0.1060 -0.0954  0.1162
 1040SOL     hw 4158   0.067   0.740   5.002  1.3627  0.9019  0.3530
 1040SOL     hw 4159   0.131   0.603   4.987 -1.1138 -0.2580 -0.1305
 1040SOL     vw 4160   0.104   0.669   5.037 -0.0452  0.0147  0.1152
 1041SOL     ow 4161   3.187   0.296   0.028 -0.0173 -0.4450  0.2695
 1041SOL     hw 4162   3.131   0.306   0.105 -0.5466 -1.5499  0.0391
 1041SOL     hw 4163   3.252   0.230   0.053  0.7614  0.3091  0.2867
 1041SOL     vw 4164   3.189   0.289   0.042  0.0156 -0.4913  0.2414
 1042SOL     ow 4165   5.811   2.837   5.512 -0.4478  0.5029  0.2732
 1042SOL     hw 4166   5.883   2.818   5.452 -1.9084  0.4502 -1.5405
 1042SOL     hw 4167   5.849   2.826   5.599  1.5622 -0.1102 -0.6226
 1042SOL     vw 4168   5.826   2.833   5.515 -0.3755  0.4151 -0.0844
 1043SOL     ow 4169   6.654   3.484   5.619  0.0904 -0.1850  0.2755
 1043SOL     hw 4170   6.689   3.565   5.582  0.0739  0.4773  1.6394
 1043SOL     hw 4171   6.716   3.416   5.592 -0.7649 -0.0711 -2.3118
 1043SOL     vw 4172   6.667   3.486   5.610 -0.0246 -0.0825  0.1140
 1044SOL     ow 4173   7.074   5.725   2.798  0.0654  0.6621 -0.3536
 1044SOL     hw 4174   7.009   5.655   2.792  0.4514  0.3971 -1.8324
 1044SOL     hw 4175   7.030   5.794   2.848  0.0693 -1.0261  2.1381
 1044SOL     vw 4176   7.060   5.725   2.804  0.1168  0.4041 -0.2199
 1045SOL     ow 4177   7.229   4.602   4.704  0.1277 -0.4055  0.2038
 1045SOL     hw 4178   7.169   4.675   4.721  2.1374  1.4325 -0.1804
 1045SOL     hw 4179   7.204   4.535   4.768 -1.3208  0.8997  1.0734
 1045SOL     vw 4180   7.218   4.603   4.715  0.2015  0.0093  0.2677
 1046SOL     ow 4181   4.615   6.762   6.348  0.1298  0.3175 -0.0177
 1046SOL     hw 4182   4.685   6.704   6.320 -0.3506 -0.1639 -0.2454
 1046SOL     hw 4183   4.571   6.787   6.267  1.2540  2.2368 -0.0920
 1046SOL     vw 4184   4.618   6.758   6.334  0.2148  0.5074 -0.0575
 1047SOL     ow 4185   2.164   2.563   1.372  0.2188  0.0736 -0.1018
 1047SOL     hw 4186   2.166   2.583   1.466  2.1277  1.4324 -0.3483
 1047SOL     hw 4187   2.209   2.479   1.365  0.7162  0.3107  0.1551
 1047SOL     vw 4188   2.170   2.555   1.384  0.5362  0.2842 -0.1004
 1048SOL     ow 4189   0.983   4.645   3.990  0.0268  0.3456  0.4497
 1048SOL     hw 4190   1.007   4.573   4.049  0.5120  0.7638  0.7745
 1048SOL     hw 4191   1.050   4.712   4.006 -0.1984  0.7139 -0.1282
 1048SOL     vw 4192   0.995   4.645   4.000  0.0612  0.4494  0.4162
 1049SOL     ow 4193   6.519   0.918   3.309 -0.1059 -0.6428  0.5016
 1049SOL     hw 4194   6.425   0.934   3.317  0.1581  0.4072  1.7701
 1049SOL     hw 4195   6.547   0.892   3.397  1.2607  1.8754  0.9200
 1049SOL     vw 4196   6.510   0.917   3.322  0.1092 -0.1720  0.7242
 1050SOL     ow 4197   3.693   5.481   1.808  0.2328 -0.2668  0.4055
 1050SOL     hw 4198   3.674   5.415   1.875 -0.9964 -0.6322 -0.2836
 1050SOL     hw 4199   3.761   5.441   1.753  0.7204 -0.2559  0.9871
 1050SOL     vw 4200   3.700   5.467   1.810  0.1349 -0.3135  0.3914
 1051SOL     ow 4201   4.526   5.784   6.747 -0.2171 -0.7347 -0.0347
 1051SOL     hw 4202   4.537   5.843   6.673 -1.3272  0.1988  0.5078
 1051SOL     hw 4203   4.443   5.811   6.787  0.9236 -0.4152  2.2616
 1051SOL     vw 4204   4.516   5.795   6.742 -0.2131 -0.5693  0.3400
 1052SOL     ow 4205   1.817   4.819   6.541  0.0857 -0.5457  0.0025
 1052SOL     hw 4206   1.864   4.752   6.491  0.5746 -0.2058  0.0069
 1052SOL     hw 4207   1.882   4.852   6.604 -0.0689  0.1393 -0.1924
 1052SOL     vw 4208   1.832   4.814   6.543  0.1298 -0.4106 -0.0226
 1053SOL     ow 4209   1.414   2.536   6.162 -0.5335  0.2452  0.1047
 1053SOL     hw 4210   1.435   2.459   6.109 -0.6668  0.2372  0.0620
 1053SOL     hw 4211   1.333   2.512   6.207 -0.7453  0.4761 -0.1470
 1053SOL     vw 4212   1.406   2.523   6.161 -0.5790  0.2748  0.0660
 1054SOL     ow 4213   4.450   6.054   3.389 -0.0212 -0.4430  0.0063
 1054SOL     hw 4214   4.396   6.130   3.368 -0.9694 -0.5117  1.9580
 1054SOL     hw 4215   4.534   6.091   3.415 -0.3926 -0.0493  0.6812
 1054SOL     vw 4216   4.454   6.069   3.390 -0.1957 -0.4001  0.3527
 1055SOL     ow 4217   2.969   4.976   2.837  0.0606 -0.6647  0.3776
 1055SOL     hw 4218   3.026   4.937   2.903  0.4387 -0.4366  0.1952
 1055SOL     hw 4219   2.930   4.902   2.791  0.0400 -0.8234  0.6504
 1055SOL     vw 4220   2.971   4.961   2.840  0.1078 -0.6557  0.3895
 1056SOL     ow 4221   2.934   1.441   6.039 -0.1165 -0.2026  0.7155
 1056SOL     hw 4222   2.845   1.405   6.038  0.2299 -1.0938  0.2103
 1056SOL     hw 4223   2.991   1.364   6.046  0.6553  0.2582 -0.1376
 1056SOL     vw 4224   2.930   1.426   6.040  0.0311 -0.2595  0.5364
 1057SOL     ow 4225   7.273   5.638   2.946 -0.2458 -0.2644 -0.6547
 1057SOL     hw 4226   7.288   5.694   3.022  0.1901 -0.8246 -0.3227
 1057SOL     hw 4227   7.215   5.689   2.890 -2.3518 -0.6579  1.0133
 1057SOL     vw 4228   7.267   5.652   2.949 -0.4663 -0.3903 -0.3909
 1058SOL     ow 4229   3.581   4.936   3.807  0.1314 -1.1404 -0.1468
 1058SOL     hw 4230   3.569   5.005   3.742  0.6840  0.0744  1.0026
 1058SOL     hw 4231   3.609   4.860   3.756  0.5220 -0.2294 -1.3290
 1058SOL     vw 4232   3.583   4.935   3.792  0.2558 -0.8597 -0.1510
 1059SOL     ow 4233   5.708   0.656   0.108  0.8377 -0.2650  0.0303
 1059SOL     hw 4234   5.666   0.684   0.027  2.3934 -0.9675 -1.0869
 1059SOL     hw 4235   5.650   0.686   0.177  0.0251  1.3651 -1.2875
 1059SOL     vw 4236   5.695   0.664   0.106  0.9360 -0.1427 -0.2910
 1060SOL     ow 4237   2.630   6.408   7.559  0.0946 -0.3784 -0.0105
 1060SOL     hw 4238   2.558   6.378   7.615  1.1064  0.6469  1.9364
 1060SOL     hw 4239   2.666   6.328   7.521 -0.4127 -1.1463  1.0838
 1060SOL     vw 4240   2.625   6.394   7.561  0.1612 -0.3445  0.3908
 1061SOL     ow 4241   6.536   3.408   0.800  0.1208 -0.3249  0.9809
 1061SOL     hw 4242   6.445   3.378   0.795 -0.3475  0.6617  2.7490
 1061SOL     hw 4243   6.551   3.453   0.717 -0.0299 -2.9094 -0.5618
 1061SOL     vw 4244   6.526   3.410   0.789  0.0393 -0.5357  1.0107
 1062SOL     ow 4245   6.196   3.638   0.054 -0.5428  0.3459 -0.0068
 1062SOL     hw 4246   6.221   3.652  -0.037 -0.1446  0.5757  0.1350
 1062SOL     hw 4247   6.192   3.542   0.063 -2.4190  0.3109 -0.7466
 1062SOL     vw 4248   6.199   3.627   0.043 -0.7379  0.3716 -0.0856
 1063SOL     ow 4249   0.734   5.488   2.107  0.2644 -0.4551  0.6330
 1063SOL     hw 4250   0.654   5.518   2.062  1.6172  1.4412 -0.6958
 1063SOL     hw 4251   0.761   5.564   2.159  0.1253 -1.7829  2.7331
 1063SOL     vw 4252   0.727   5.502   2.108  0.4245 -0.3803  0.7348
 1064SOL     ow 4253   6.941   7.139   1.305 -0.0362 -0.2138 -0.2894
 1064SOL     hw 4254   7.036   7.149   1.318  0.2405 -0.6834 -1.7055
 1064SOL     hw 4255   6.904   7.224   1.330  0.7153 -0.1243  0.5674
 1064SOL     vw 4256   6.949   7.151   1.310  0.0994 -0.2639 -0.3631
 1065SOL     ow 4257   1.943   5.544   0.730  0.1961 -0.2547  0.3551
 1065SOL     hw 4258   1.919   5.616   0.789  1.4442 -0.3117  0.9678
 1065SOL     hw 4259   2.023   5.507   0.769  1.0712 -0.2853 -1.3676
 1065SOL     vw 4260   1.951   5.549   0.743  0.4762 -0.2663  0.2086
 1066SOL     ow 4261   1.451   7.475   5.085 -0.4406  0.0084  0.7401
 1066SOL     hw 4262   1.525   7.415   5.099  0.6299  0.6486 -1.5282
 1066SOL     hw 4263   1.488   7.562   5.097 -0.6721  0.3568 -0.8345
 1066SOL     vw 4264   1.466   7.478   5.088 -0.3300  0.1388  0.2334
 1067SOL     ow 4265   3.383   3.332   4.686 -0.0834 -1.2081 -0.1660
 1067SOL     hw 4266   3.375   3.411   4.739 -0.0022 -0.8200 -0.7221
 1067SOL     hw 4267   3.311   3.339   4.622  1.2123 -0.4819 -1.6105
 1067SOL     vw 4268   3.372   3.343   4.684  0.0982 -1.0612 -0.4301
 1068SOL     ow 4269   3.191   7.094   4.565 -0.5672  0.2849 -0.2280
 1068SOL     hw 4270   3.133   7.056   4.500  0.4427 -1.7265 -0.0195
 1068SOL     hw 4271   3.195   7.187   4.542 -0.7218 -0.2560 -2.6504
 1068SOL     vw 4272   3.184   7.101   4.554 -0.4544 -0.0517 -0.5200
 1069SOL     ow 4273   4.436   6.327   1.951  0.7182  0.1802 -0.0638
 1069SOL     hw 4274   4.414   6.355   2.039  0.3216  4.7724 -1.3660
 1069SOL     hw 4275   4.352   6.304   1.911  0.6802 -0.1519  0.1981
 1069SOL     vw 4276   4.422   6.327   1.957  0.6609  0.7422 -0.2010
 1070SOL     ow 4277   0.658   3.345   3.801 -0.4164  0.2494  0.4695
 1070SOL     hw 4278   0.592   3.299   3.748 -0.2390  0.4002  0.1176
 1070SOL     hw 4279   0.706   3.275   3.846 -0.0292  0.0753 -0.2052
 1070SOL     vw 4280   0.655   3.330   3.800 -0.3419  0.2463  0.3341
 1071SOL     ow 4281   5.278   1.913   1.070  0.3825  0.1143 -0.4633
 1071SOL     hw 4282   5.298   2.002   1.043  0.6355 -0.3756 -1.9901
 1071SOL     hw 4283   5.297   1.911   1.164 -0.2294  1.8162 -0.2787
 1071SOL     vw 4284   5.283   1.924   1.079  0.3350  0.2742 -0.6404
 1072SOL     ow 4285   0.936   5.208   1.551 -0.4938 -0.5655  0.3845
 1072SOL     hw 4286   0.920   5.114   1.542 -1.5715 -0.3796  0.2482
 1072SOL     hw 4287   0.966   5.236   1.464 -0.9695 -0.6342  0.1989
 1072SOL     vw 4288   0.938   5.199   1.538 -0.6988 -0.5500  0.3420
 1073SOL     ow 4289   3.251   1.657   1.396  0.3551 -0.2994 -0.0663
 1073SOL     hw 4290   3.209   1.714   1.331 -2.2459  0.7599  2.3655
 1073SOL     hw 4291   3.333   1.702   1.416 -0.3316  1.1285 -0.2712
 1073SOL     vw 4292   3.256   1.671   1.390 -0.0788  0.0287  0.2275
 1074SOL     ow 4293   4.106   3.592   0.048 -0.1440  0.2119  0.1904
 1074SOL     hw 4294   4.135   3.551   0.130  0.0677 -0.6504 -0.3051
 1074SOL     hw 4295   4.177   3.651   0.024  1.0471 -1.5188 -0.7551
 1074SOL     vw 4296   4.119   3.594   0.056  0.0410 -0.1303  0.0003
 1075SOL     ow 4297   5.728   1.916   2.892  0.1472 -0.4387 -0.2336
 1075SOL     hw 4298   5.773   1.842   2.933 -0.1662 -0.8804 -0.6697
 1075SOL     hw 4299   5.737   1.900   2.798  0.1441  0.1241 -0.3347
 1075SOL     vw 4300   5.735   1.904   2.885  0.1054 -0.4227 -0.3043
 1076SOL     ow 4301   6.943   2.230   1.292  0.2800  0.0236 -0.2211
 1076SOL     hw 4302   6.969   2.212   1.382 -0.9524  0.0248  0.1595
 1076SOL     hw 4303   6.911   2.321   1.294 -1.0473 -0.4248 -0.3440
 1076SOL     vw 4304   6.942   2.240   1.304 -0.0579 -0.0353 -0.1871
 1077SOL     ow 4305   5.554   6.192   4.431  0.2809  0.3864 -0.6402
 1077SOL     hw 4306   5.485   6.236   4.382 -0.2876  0.3000  0.0773
 1077SOL     hw 4307   5.555   6.103   4.396 -1.9918 -0.5034  1.3287
 1077SOL     vw 4308   5.545   6.186   4.420 -0.0942  0.2577 -0.2859
 1078SOL     ow 4309   0.852   6.678   6.342  0.1838 -0.1905  0.5204
 1078SOL     hw 4310   0.889   6.590   6.340 -0.1132 -0.3300  0.8954
 1078SOL     hw 4311   0.830   6.692   6.434  2.1037  1.0782  0.8243
 1078SOL     vw 4312   0.854   6.668   6.354  0.3980 -0.0415  0.6104
 1079SOL     ow 4313   3.099   0.345   0.283 -0.3972 -0.0290  0.4882
 1079SOL     hw 4314   3.128   0.427   0.325  0.5255 -0.1509  0.1031
 1079SOL     hw 4315   3.130   0.276   0.341 -0.7267 -0.1262  0.5485
 1079SOL     vw 4316   3.107   0.347   0.296 -0.3188 -0.0579  0.4454
 1080SOL     ow 4317   0.372   1.322   2.393 -0.4583 -0.4151  0.3398
 1080SOL     hw 4318   0.461   1.319   2.429  0.9109  0.9041 -2.5893
 1080SOL     hw 4319   0.330   1.241   2.424  2.1203 -1.6389  0.8788
 1080SOL     vw 4320   0.378   1.311   2.402  0.0626 -0.4025  0.0243
 1081SOL     ow 4321   2.676   6.992   1.669 -0.3454 -0.1512 -0.4975
 1081SOL     hw 4322   2.768   7.018   1.663  0.2025 -1.2905  1.8079
 1081SOL     hw 4323   2.672   6.908   1.624  0.1636 -0.9316  0.8626
 1081SOL     vw 4324   2.688   6.985   1.662 -0.2060 -0.4044 -0.0139
 1082SOL     ow 4325   6.798   3.101   2.578 -0.5906 -0.4690  0.0989
 1082SOL     hw 4326   6.847   3.079   2.499  0.1121 -1.5167  0.8078
 1082SOL     hw 4327   6.767   3.018   2.612 -0.6079 -0.0679  1.1034
 1082SOL     vw 4328   6.801   3.087   2.572 -0.4997 -0.5543  0.3250
 1083SOL     ow 4329   3.738   2.783   3.173 -0.5422 -0.5577  0.0176
 1083SOL     hw 4330   3.741   2.866   3.124  0.0260 -1.1347 -0.9651
 1083SOL     hw 4331   3.655   2.787   3.221  0.1038  1.1705  1.0878
 1083SOL     vw 4332   3.727   2.794   3.173 -0.3819 -0.4058  0.0292
 1084SOL     ow 4333   7.324   0.889   6.634  0.0547 -0.3729  0.1815
 1084SOL     hw 4334   7.345   0.830   6.706 -1.8715  0.1672  1.2570
 1084SOL     hw 4335   7.244   0.852   6.596 -0.6927  1.0453  0.3294
 1084SOL     vw 4336   7.316   0.876   6.639 -0.2980 -0.1145  0.3428
 1085SOL     ow 4337   3.685   0.863   1.358 -0.5003 -0.3237 -0.6753
 1085SOL     hw 4338   3.629   0.793   1.324 -0.0966 -0.0578 -1.9632
 1085SOL     hw 4339   3.772   0.824   1.363 -1.2364 -2.1116  5.3283
 1085SOL     vw 4340   3.689   0.849   1.354 -0.5442 -0.5245 -0.0532
 1086SOL     ow 4341   5.079   6.979   0.487 -0.8140 -1.0510 -0.6680
 1086SOL     hw 4342   5.089   7.011   0.576 -0.7573 -0.0799 -1.0123
 1086SOL     hw 4343   4.993   7.012   0.459  0.8825  2.5163 -2.4536
 1086SOL     vw 4344   5.069   6.988   0.495 -0.5829 -0.4523 -0.9490
 1087SOL     ow 4345   0.661   7.410   0.317 -0.5345 -0.6793 -0.5502
 1087SOL     hw 4346   0.688   7.339   0.375 -0.5290 -0.0424  0.2321
 1087SOL     hw 4347   0.633   7.365   0.236  1.1915 -1.4685 -0.7555
 1087SOL     vw 4348   0.661   7.394   0.314 -0.3060 -0.6995 -0.4741
 1088SOL     ow 4349   5.773   5.080   0.385  0.3188 -0.4801  0.2515
 1088SOL     hw 4350   5.693   5.052   0.429  0.7782 -0.7211  0.9409
 1088SOL     hw 4351   5.766   5.042   0.297 -0.5629 -0.0609  0.1220
 1088SOL     vw 4352   5.762   5.072   0.379  0.2630 -0.4568  0.3254
 1089SOL     ow 4353   1.632   1.505   4.076  0.0552 -0.5736  0.0025
 1089SOL     hw 4354   1.566   1.444   4.110  0.6213 -0.3381  1.5749
 1089SOL     hw 4355   1.661   1.555   4.152  0.3659  0.9623 -1.0774
 1089SOL     vw 4356   1.627   1.503   4.090  0.1709 -0.3399  0.0675
 1090SOL     ow 4357   4.811   5.740   7.085  0.1926  0.3699  0.2717
 1090SOL     hw 4358   4.803   5.785   7.169 -0.0354  1.5735 -0.3698
 1090SOL     hw 4359   4.796   5.648   7.105 -1.3375  0.8159  1.3174
 1090SOL     vw 4360   4.808   5.734   7.099 -0.0393  0.5875  0.3250
 1091SOL     ow 4361   4.334   1.070   4.084  0.3897  0.5040 -0.4206
 1091SOL     hw 4362   4.285   1.146   4.116  0.0530  0.0412  0.1644
 1091SOL     hw 4363   4.313   1.065   3.991  2.6823  2.8853 -1.2112
 1091SOL     vw 4364   4.325   1.080   4.076  0.6475  0.7571 -0.4475
 1092SOL     ow 4365   0.950   0.222   2.751  0.4070  0.0156  0.1303
 1092SOL     hw 4366   0.974   0.314   2.742 -1.4364  0.4024 -1.4472
 1092SOL     hw 4367   0.992   0.194   2.832  2.2404  1.8139 -0.1169
 1092SOL     vw 4368   0.959   0.230   2.760  0.4057  0.3039 -0.1103
 1093SOL     ow 4369   0.990   6.455   6.339  0.8352  0.6601  0.4059
 1093SOL     hw 4370   0.931   6.424   6.270  1.0787  1.0436  0.0169
 1093SOL     hw 4371   0.957   6.415   6.419  0.5120  0.2550  0.0739
 1093SOL     vw 4372   0.978   6.446   6.340  0.8247  0.6571  0.3107
 1094SOL     ow 4373   2.804   6.473   4.680  0.7252  0.0689  0.1085
 1094SOL     hw 4374   2.829   6.411   4.611 -0.4777  0.2417 -0.5107
 1094SOL     hw 4375   2.810   6.559   4.639  1.1003  0.2686  0.5734
 1094SOL     vw 4376   2.808   6.476   4.666  0.6160  0.1178  0.0885
 1095SOL     ow 4377   0.299   4.370   2.637  0.2864  0.1997  0.3789
 1095SOL     hw 4378   0.381   4.404   2.672  1.0466 -0.3124 -0.8533
 1095SOL     hw 4379   0.307   4.381   2.542 -1.4401  0.9603  0.2803
 1095SOL     vw 4380   0.311   4.376   2.629  0.1589  0.2325  0.2034
 1096SOL     ow 4381   7.439   5.970   5.557 -0.5091  0.4230  0.0098
 1096SOL     hw 4382   7.364   5.934   5.511  0.4231 -0.3318 -0.9598
 1096SOL     hw 4383   7.429   5.939   5.647 -1.5773  0.7080  0.0054
 1096SOL     vw 4384   7.428   5.961   5.563 -0.5271  0.3612 -0.1187
 1097SOL     ow 4385   0.868   5.261   4.594 -0.4250 -0.1929 -0.3083
 1097SOL     hw 4386   0.878   5.228   4.684 -1.2169  0.9388  0.2118
 1097SOL     hw 4387   0.956   5.257   4.558  0.3987  1.5306  1.3211
 1097SOL     vw 4388   0.881   5.256   4.601 -0.4208  0.1841 -0.0248
 1098SOL     ow 4389   7.138   2.409   2.464 -0.5091 -0.0140  0.1568
 1098SOL     hw 4390   7.112   2.450   2.546  0.2696  1.5868 -0.3510
 1098SOL     hw 4391   7.214   2.460   2.435 -1.3921  0.1484 -2.0674
 1098SOL     vw 4392   7.145   2.422   2.471 -0.5229  0.2186 -0.2036
 1099SOL     ow 4393   3.609   3.061   4.302 -0.4366 -0.0873 -0.3442
 1099SOL     hw 4394   3.542   3.121   4.271 -1.9129 -0.7373  1.3442
 1099SOL     hw 4395   3.647   3.023   4.223 -0.5365  1.8785 -1.3930
 1099SOL     vw 4396   3.605   3.064   4.288 -0.6446  0.0862 -0.2596
 1100SOL     ow 4397   1.474   5.069   6.018  0.5776 -0.2141 -0.3684
 1100SOL     hw 4398   1.435   5.018   5.947 -0.5419 -0.9596  0.7504
 1100SOL     hw 4399   1.422   5.047   6.095  1.1190  1.3650  0.4889
 1100SOL     vw 4400   1.462   5.059   6.019  0.5013 -0.1040 -0.1078
 1101SOL     ow 4401   5.603   2.366   5.231  0.1635 -0.2185  0.3049
 1101SOL     hw 4402   5.610   2.286   5.283 -1.8650  1.3290  3.3293
 1101SOL     hw 4403   5.645   2.433   5.285  0.6102  1.0081 -1.4901
 1101SOL     vw 4404   5.609   2.364   5.245 -0.0451  0.1476  0.4668
 1102SOL     ow 4405   1.774   2.262   4.220 -0.4616  0.1913  0.0943
 1102SOL     hw 4406   1.711   2.227   4.282  0.3522 -0.5476  0.5247
 1102SOL     hw 4407   1.727   2.331   4.174 -0.8681  1.2647  2.0290
 1102SOL     vw 4408   1.760   2.267   4.222 -0.4079  0.2354  0.4063
 1103SOL     ow 4409   4.380   2.283   0.922 -0.7738 -0.4428 -0.8361
 1103SOL     hw 4410   4.373   2.378   0.926  1.5203 -0.2779  1.0547
 1103SOL     hw 4411   4.337   2.252   1.001  1.0034 -0.7436  0.0488
 1103SOL     vw 4412   4.373   2.291   0.933 -0.2367 -0.4607 -0.4699
 1104SOL     ow 4413   4.377   1.319   2.277  0.7214  0.0623 -0.4663
 1104SOL     hw 4414   4.317   1.387   2.245 -1.5403 -1.2253  0.7218
 1104SOL     hw 4415   4.433   1.364   2.341 -0.9606  0.8139  0.5637
 1104SOL     vw 4416   4.376   1.334   2.282  0.2010 -0.0084 -0.1736
 1105SOL     ow 4417   0.737   2.742   6.479  0.4327  0.3750 -0.3906
 1105SOL     hw 4418   0.791   2.676   6.437  0.3594  1.2983 -1.9948
 1105SOL     hw 4419   0.798   2.812   6.502  0.4092  0.0490  0.7446
 1105SOL     vw 4420   0.752   2.742   6.477  0.4199  0.4537 -0.4525
 1106SOL     ow 4421   2.126   4.121   5.053  0.3107 -0.4110  0.3381
 1106SOL     hw 4422   2.088   4.059   4.991 -0.8988  3.7187 -3.5710
 1106SOL     hw 4423   2.219   4.122   5.031 -0.3217  2.1426 -2.8918
 1106SOL     vw 4424   2.133   4.113   5.042  0.0676  0.4706 -0.6039
 1107SOL     ow 4425   6.504   7.380   1.458  0.1323 -0.7726  0.5552
 1107SOL     hw 4426   6.436   7.430   1.412  2.3527  1.1076 -0.9300
 1107SOL     hw 4427   6.580   7.439   1.459  2.6435 -3.7602 -0.3998
 1107SOL     vw 4428   6.505   7.394   1.452  0.7567 -0.9184  0.2333
 1108SOL     ow 4429   1.132   2.675   3.505 -0.6449 -0.2404  0.5224
 1108SOL     hw 4430   1.141   2.583   3.529  0.2955 -0.5373 -0.8123
 1108SOL     hw 4431   1.210   2.717   3.543 -1.2661  0.0974  1.4549
 1108SOL     vw 4432   1.144   2.669   3.513 -0.6028 -0.2350  0.4693
 1109SOL     ow 4433   6.334   3.748   2.588 -0.8514  0.5860  0.6037
 1109SOL     hw 4434   6.349   3.663   2.630  3.6975 -1.7062 -4.4761
 1109SOL     hw 4435   6.376   3.811   2.646  2.5440 -1.8720  1.0796
 1109SOL     vw 4436   6.341   3.745   2.602  0.1967 -0.0408 -0.0037
 1110SOL     ow 4437   6.600   5.284   7.492  0.2602 -0.3913  0.3756
 1110SOL     hw 4438   6.572   5.208   7.543  0.6105 -1.4166 -0.9150
 1110SOL     hw 4439   6.632   5.346   7.558 -1.4222 -0.7165  1.5672
 1110SOL     vw 4440   6.601   5.282   7.508  0.0844 -0.5693  0.3629
 1111SOL     ow 4441   3.757   0.404   4.960 -0.2730 -0.6033 -0.0248
 1111SOL     hw 4442   3.847   0.423   4.987 -0.8572 -2.8771  4.4607
 1111SOL     hw 4443   3.708   0.484   4.982 -0.0806 -1.1486  2.8240
 1111SOL     vw 4444   3.763   0.417   4.967 -0.3246 -0.9752  0.9429
 1112SOL     ow 4445   5.517   4.811   3.560 -0.0805  0.0906  0.2825
 1112SOL     hw 4446   5.486   4.880   3.620  1.9507  0.5572  0.8986
 1112SOL     hw 4447   5.530   4.735   3.617  1.2286  0.3414  0.3539
 1112SOL     vw 4448   5.515   4.810   3.576  0.3600  0.1853  0.3731
 1113SOL     ow 4449   0.628   2.649   6.765 -0.0720 -0.2844 -0.8416
 1113SOL     hw 4450   0.618   2.595   6.686  0.6393  0.1126 -1.2178
 1113SOL     hw 4451   0.617   2.588   6.838 -1.0649 -0.5973 -1.2420
 1113SOL     vw 4452   0.625   2.634   6.764 -0.1091 -0.2732 -0.9439
 1114SOL     ow 4453   7.367   3.646   7.374  0.4297  0.3805  0.5845
 1114SOL     hw 4454   7.353   3.574   7.435 -4.6244 -0.9000 -1.6093
 1114SOL     hw 4455   7.340   3.724   7.422  0.7113  0.0631  1.2756
 1114SOL     vw 4456   7.362   3.647   7.388 -0.2000  0.1698  0.3865
 1115SOL     ow 4457   6.898   7.435   6.429  0.5149 -0.2272 -0.5487
 1115SOL     hw 4458   6.892   7.482   6.346 -0.9280  1.4487  0.4521
 1115SOL     hw 4459   6.905   7.343   6.403 -0.5167  0.1831 -2.5095
 1115SOL     vw 4460   6.898   7.429   6.414  0.1886  0.0479 -0.6754
 1116SOL     ow 4461   3.078   5.728   0.429  0.0899  0.0126  0.1247
 1116SOL     hw 4462   3.115   5.739   0.517  0.8951 -2.4588  0.1726
 1116SOL     hw 4463   3.079   5.816   0.391  3.2272  0.5799  1.2487
 1116SOL     vw 4464   3.083   5.741   0.436  0.6101 -0.2382  0.2794
 1117SOL     ow 4465   7.136   2.884   3.505 -0.4632 -0.2634  0.2026
 1117SOL     hw 4466   7.095   2.849   3.426 -0.0954 -4.6917  1.6756
 1117SOL     hw 4467   7.230   2.873   3.491 -0.2156  1.5073  0.2712
 1117SOL     vw 4468   7.143   2.878   3.493 -0.3822 -0.6139  0.4060
 1118SOL     ow 4469   7.559   5.595   3.857  0.2624  0.4129  0.9089
 1118SOL     hw 4470   7.622   5.661   3.826  1.6551 -1.1016  0.3580
 1118SOL     hw 4471   7.602   5.511   3.839 -2.8988 -0.8817 -1.8051
 1118SOL     vw 4472   7.573   5.593   3.850  0.0291  0.0422  0.4780
 1119SOL     ow 4473   7.293   0.965   2.050  0.2412  0.4957 -0.0252
 1119SOL     hw 4474   7.241   0.941   1.973 -0.5264  2.2087 -0.0917
 1119SOL     hw 4475   7.358   1.026   2.017  2.0130 -1.1788  0.1723
 1119SOL     vw 4476   7.295   0.970   2.035  0.3738  0.5008 -0.0079
 1120SOL     ow 4477   0.238   5.831   4.892 -0.7621  0.0883  0.9932
 1120SOL     hw 4478   0.260   5.793   4.807 -1.7502  3.2045 -0.8367
 1120SOL     hw 4479   0.203   5.758   4.943 -0.0654 -1.9211 -1.2313
 1120SOL     vw 4480   0.236   5.816   4.888 -0.8005  0.2341  0.4582
 1121SOL     ow 4481   2.570   3.982   7.546  0.6399  0.1152 -0.3856
 1121SOL     hw 4482   2.651   3.985   7.597 -0.2483 -0.1771  1.0931
 1121SOL     hw 4483   2.501   4.002   7.609 -0.5788 -1.0557 -1.2941
 1121SOL     vw 4484   2.572   3.985   7.561  0.3620 -0.0777 -0.3104
 1122SOL     ow 4485   7.034   3.600   2.209  0.3138 -0.7588  0.1986
 1122SOL     hw 4486   6.976   3.533   2.174 -0.7587  0.1069  0.2356
 1122SOL     hw 4487   7.119   3.582   2.169 -0.4092 -0.9647 -1.3428
 1122SOL     vw 4488   7.037   3.589   2.199  0.0770 -0.6717  0.0000
 1123SOL     ow 4489   5.172   4.654   2.012 -0.1654  0.0621  0.1422
 1123SOL     hw 4490   5.142   4.718   2.076 -0.1689 -1.1790  1.4185
 1123SOL     hw 4491   5.114   4.578   2.024 -0.7514  0.0909 -1.9400
 1123SOL     vw 4492   5.160   4.652   2.022 -0.2429 -0.0975  0.0358
 1124SOL     ow 4493   7.391   2.861   3.527  0.4519 -0.4558 -0.0057
 1124SOL     hw 4494   7.435   2.946   3.525 -1.4053  0.5235 -1.0718
 1124SOL     hw 4495   7.452   2.802   3.482  1.3592  0.4937 -0.0657
 1124SOL     vw 4496   7.405   2.864   3.521  0.3264 -0.2012 -0.1541
 1125SOL     ow 4497   6.419   4.675   5.954  0.4226  0.3980  0.1465
 1125SOL     hw 4498   6.382   4.761   5.935 -0.7193 -0.4789 -1.8847
 1125SOL     hw 4499   6.365   4.642   6.026  0.7408  1.2707  0.8090
 1125SOL     vw 4500   6.407   4.682   5.961  0.3138  0.3974 -0.0341
 1126SOL     ow 4501   0.704   0.214   6.051 -0.3339 -0.6691  0.4512
 1126SOL     hw 4502   0.652   0.216   5.971 -0.2892 -0.0872  0.4346
 1126SOL     hw 4503   0.722   0.306   6.071 -0.5413 -0.7953  1.2597
 1126SOL     vw 4504   0.700   0.226   6.043 -0.3554 -0.6089  0.5555
 1127SOL     ow 4505   3.267   0.285   7.374 -0.0830 -0.5158 -0.4174
 1127SOL     hw 4506   3.235   0.282   7.464 -0.4054  1.7102 -0.3897
 1127SOL     hw 4507   3.343   0.228   7.373 -0.0338 -0.5258  1.2912
 1127SOL     vw 4508   3.273   0.277   7.385 -0.1191 -0.2234 -0.1886
 1128SOL     ow 4509   6.592   0.749   0.562 -0.5205 -0.3559  0.1457
 1128SOL     hw 4510   6.687   0.762   0.559 -0.7255  1.3463  0.0146
 1128SOL     hw 4511   6.571   0.750   0.655 -0.5246  0.1793  0.1372
 1128SOL     vw 4512   6.602   0.751   0.574 -0.5484 -0.0607  0.1273
 1129SOL     ow 4513   3.657   1.958   6.188 -0.4194 -0.2103 -0.0122
 1129SOL     hw 4514   3.703   1.875   6.175 -0.4340  0.0694 -2.3214
 1129SOL     hw 4515   3.660   1.972   6.283  1.3948 -1.7956  0.2478
 1129SOL     vw 4516   3.663   1.949   6.199 -0.1820 -0.3825 -0.2825
 1130SOL     ow 4517   4.992   2.728   0.487  0.3414  0.1477 -0.4289
 1130SOL     hw 4518   4.988   2.760   0.397  2.4063 -0.2753 -0.7305
 1130SOL     hw 4519   4.953   2.641   0.484 -0.3784  0.4772 -0.7315
 1130SOL     vw 4520   4.987   2.721   0.475  0.5186  0.1353 -0.5086
 1131SOL     ow 4521   1.305   6.183   0.572  0.2789  0.1233  0.3412
 1131SOL     hw 4522   1.360   6.229   0.636 -0.1392 -1.7468  2.1517
 1131SOL     hw 4523   1.222   6.230   0.574  0.9118  1.3298 -0.4094
 1131SOL     vw 4524   1.302   6.195   0.581  0.3073  0.0358  0.4810
 1132SOL     ow 4525   1.505   2.763   3.014 -0.1907 -1.2638  0.3272
 1132SOL     hw 4526   1.516   2.765   3.109 -2.8720 -1.1197  0.7025
 1132SOL     hw 4527   1.536   2.848   2.984  2.2570 -1.9009  0.7813
 1132SOL     vw 4528   1.510   2.774   3.023 -0.2215 -1.3288  0.4368
 1133SOL     ow 4529   4.967   5.516   0.810  0.1407 -0.3255  0.1049
 1133SOL     hw 4530   4.994   5.426   0.790 -1.1208 -0.3526 -1.7099
 1133SOL     hw 4531   4.873   5.511   0.822  0.0151  0.7997 -0.3164
 1133SOL     vw 4532   4.958   5.503   0.809 -0.0424 -0.1807 -0.1901
 1134SOL     ow 4533   2.626   3.081   1.422  0.1621  0.2760  0.5991
 1134SOL     hw 4534   2.566   3.059   1.493 -0.1613 -1.1064 -0.0621
 1134SOL     hw 4535   2.660   3.168   1.445 -3.3239  1.9238  0.1690
 1134SOL     vw 4536   2.623   3.090   1.434 -0.3406  0.3111  0.4551
 1135SOL     ow 4537   3.189   2.339   4.084 -0.5843 -0.0376  0.4054
 1135SOL     hw 4538   3.154   2.309   4.000 -0.1576 -1.5183  0.7153
 1135SOL     hw 4539   3.150   2.425   4.097 -0.7144  0.2008 -1.2725
 1135SOL     vw 4540   3.179   2.346   4.074 -0.5451 -0.2015  0.2248
 1136SOL     ow 4541   3.477   7.311   4.580 -0.7450 -0.5405 -0.1010
 1136SOL     hw 4542   3.448   7.310   4.671  0.1659  0.7534  0.2274
 1136SOL     hw 4543   3.453   7.398   4.547 -2.6065 -1.5613 -1.6448
 1136SOL     vw 4544   3.470   7.322   4.587 -0.8705 -0.5045 -0.2613
 1137SOL     ow 4545   3.581   5.434   3.105  0.0027 -0.0712 -0.3862
 1137SOL     hw 4546   3.556   5.450   3.014  0.2527  0.0028 -0.4433
 1137SOL     hw 4547   3.500   5.406   3.148 -0.2314  0.4036 -0.5093
 1137SOL     vw 4548   3.567   5.432   3.099  0.0049  0.0010 -0.4098
 1138SOL     ow 4549   2.122   5.945   0.116  0.1697 -0.0828  0.0611
 1138SOL     hw 4550   2.163   5.975   0.197 -1.6953 -2.6249  2.1175
 1138SOL     hw 4551   2.180   5.876   0.084  0.1363 -0.1184  0.0780
 1138SOL     vw 4552   2.135   5.940   0.122 -0.0808 -0.4230  0.3346
 1139SOL     ow 4553   5.328   0.869   7.528 -0.0174 -0.1422  0.0243
 1139SOL     hw 4554   5.290   0.934   7.470 -0.0345  1.6491  1.9447
 1139SOL     hw 4555   5.421   0.892   7.533 -0.3618  1.0105  2.2105
 1139SOL     vw 4556   5.335   0.880   7.521 -0.0653  0.2462  0.5660
 1140SOL     ow 4557   4.390   5.289   0.705 -0.1540 -0.2700  0.0261
 1140SOL     hw 4558   4.332   5.217   0.730  2.3905 -2.3793  0.3744
 1140SOL     hw 4559   4.389   5.288   0.609 -1.7797  0.7720 -0.0181
 1140SOL     vw 4560   4.382   5.279   0.696 -0.0329 -0.4106  0.0662
 1141SOL     ow 4561   0.807   3.045   4.945 -0.1189 -0.1978  0.1748
 1141SOL     hw 4562   0.861   3.049   5.024 -0.2821  5.1705  0.3746
 1141SOL     hw 4563   0.817   2.955   4.914  4.6903 -1.0393  3.0557
 1141SOL     vw 4564   0.816   3.034   4.951  0.4941  0.3996  0.5813
 1142SOL     ow 4565   3.531   5.576   1.564  0.3226  0.0678 -0.1169
 1142SOL     hw 4566   3.520   5.497   1.512  1.6217  0.1175 -0.5107
 1142SOL     hw 4567   3.453   5.628   1.545 -0.8154 -1.3301  0.5721
 1142SOL     vw 4568   3.520   5.573   1.554  0.3440 -0.1101 -0.0780
 1143SOL     ow 4569   4.697   0.385   5.807  0.0222  0.6316 -0.4446
 1143SOL     hw 4570   4.639   0.426   5.743 -1.2254  0.8373  0.7699
 1143SOL     hw 4571   4.656   0.300   5.826 -0.0595  0.8927  0.6313
 1143SOL     vw 4572   4.684   0.379   5.801 -0.1531  0.6932 -0.1423
 1144SOL     ow 4573   7.105   4.827   4.727 -0.1297 -0.1276 -0.2090
 1144SOL     hw 4574   7.123   4.886   4.653 -0.9014 -1.8594 -1.8687
 1144SOL     hw 4575   7.009   4.822   4.730 -0.0760 -1.1369  0.0172
 1144SOL     vw 4576   7.095   4.834   4.717 -0.2246 -0.4892 -0.3984
 1145SOL     ow 4577   1.225   6.780   2.913 -0.0538  0.6137 -0.2932
 1145SOL     hw 4578   1.150   6.741   2.869  0.8363 -1.5530 -0.0156
 1145SOL     hw 4579   1.285   6.805   2.843 -0.8469  2.0627 -0.4980
 1145SOL     vw 4580   1.223   6.778   2.898 -0.0409  0.5190 -0.2836
 1146SOL     ow 4581   7.429   5.867   3.870  0.3734 -0.8037 -1.4070
 1146SOL     hw 4582   7.461   5.948   3.831  0.1132 -0.2993 -0.5754
 1146SOL     hw 4583   7.494   5.844   3.936 -0.6682 -0.0379 -0.0509
 1146SOL     vw 4584   7.442   5.875   3.873  0.2017 -0.6361 -1.1184
 1147SOL     ow 4585   2.925   5.494   0.313  0.8639  0.5799 -0.4006
 1147SOL     hw 4586   2.878   5.411   0.311 -0.4962  1.2879  0.5933
 1147SOL     hw 4587   2.943   5.513   0.221 -2.1156  0.9703 -1.0162
 1147SOL     vw 4588   2.921   5.485   0.301  0.2912  0.7250 -0.3507
 1148SOL     ow 4589   5.328   3.332   3.139  0.1193  0.3537 -0.0497
 1148SOL     hw 4590   5.236   3.310   3.125  0.7632 -1.9229 -1.1714
 1148SOL     hw 4591   5.369   3.317   3.054  1.5981  1.0788  0.5057
 1148SOL     vw 4592   5.321   3.327   3.126  0.3994  0.1491 -0.1243
 1149SOL     ow 4593   4.295   0.189   0.874 -0.0661  0.3177 -0.0081
 1149SOL     hw 4594   4.278   0.159   0.963  2.0877 -0.8178  0.0840
 1149SOL     hw 4595   4.209   0.194   0.833 -0.8474 -3.6060  0.7742
 1149SOL     vw 4596   4.282   0.186   0.880  0.1147 -0.3498  0.1073
 1150SOL     ow 4597   5.166   6.254   2.284 -0.0321  0.0462 -0.1318
 1150SOL     hw 4598   5.181   6.236   2.192  0.3910  1.2464 -0.3157
 1150SOL     hw 4599   5.071   6.266   2.291 -0.3617 -2.2552  0.0369
 1150SOL     vw 4600   5.156   6.254   2.273 -0.0196 -0.0989 -0.1336
 1151SOL     ow 4601   1.574   2.604   5.885 -0.0336  0.1475 -0.1351
 1151SOL     hw 4602   1.632   2.531   5.906 -0.0478  0.6068  1.7779
 1151SOL     hw 4603   1.538   2.630   5.970 -1.8769  0.8449 -1.0843
 1151SOL     vw 4604   1.577   2.598   5.899 -0.2787  0.3000 -0.0079
 1152SOL     ow 4605   7.043   1.932   0.048  0.6584  0.6838  0.2906
 1152SOL     hw 4606   7.002   1.858   0.092  1.1817  0.9135  1.2060
 1152SOL     hw 4607   6.969   1.983   0.014  0.3150 -0.6233 -1.0269
 1152SOL     vw 4608   7.028   1.929   0.049  0.6821  0.5417  0.2376
 1153SOL     ow 4609   2.380   7.411   4.754  0.0211 -0.1114 -0.2359
 1153SOL     hw 4610   2.343   7.323   4.751  0.6175 -0.3905  0.3953
 1153SOL     hw 4611   2.468   7.400   4.791 -0.3911  0.9030  1.1579
 1153SOL     vw 4612   2.387   7.398   4.758  0.0454 -0.0143  0.0312
 1154SOL     ow 4613   2.252   1.837   1.069  0.6022 -0.3925  0.4291
 1154SOL     hw 4614   2.227   1.767   1.008 -3.3793  3.0818 -2.4765
 1154SOL     hw 4615   2.190   1.827   1.142  1.8901 -1.3956  1.4412
 1154SOL     vw 4616   2.240   1.826   1.070  0.2469 -0.0665  0.1793
 1155SOL     ow 4617   1.666   2.460   6.250  0.0815 -0.8299 -0.0283
 1155SOL     hw 4618   1.692   2.462   6.158 -0.7818  1.0427 -0.2728
 1155SOL     hw 4619   1.574   2.486   6.250 -0.2583 -1.9108  1.2885
 1155SOL     vw 4620   1.658   2.463   6.238 -0.0772 -0.7254  0.1135
 1156SOL     ow 4621   1.422   6.398   6.850 -0.6032 -0.5188  0.7515
 1156SOL     hw 4622   1.502   6.447   6.830 -0.1066 -1.0270  1.4748
 1156SOL     hw 4623   1.400   6.354   6.767 -2.0965  2.2930 -0.4911
 1156SOL     vw 4624   1.430   6.399   6.836 -0.7346 -0.2148  0.6833
 1157SOL     ow 4625   1.059   3.742   0.094  0.0846 -0.3056 -0.1699
 1157SOL     hw 4626   1.000   3.709   0.162 -0.4853 -0.5819 -0.7866
 1157SOL     hw 4627   1.054   3.837   0.102 -1.0613 -0.3024 -0.7158
 1157SOL     vw 4628   1.050   3.750   0.104 -0.1417 -0.3417 -0.3233
 1158SOL     ow 4629   5.813   0.999   6.546 -0.4426  0.1614 -0.0836
 1158SOL     hw 4630   5.743   0.978   6.608 -1.3008 -1.6783 -1.6030
 1158SOL     hw 4631   5.892   1.004   6.600 -1.5186  1.1439  1.4940
 1158SOL     vw 4632   5.814   0.997   6.562 -0.6979  0.0483 -0.0761
 1159SOL     ow 4633   7.214   3.528   7.180  0.2276  0.2643 -0.0448
 1159SOL     hw 4634   7.261   3.565   7.255  1.0384 -1.5885  0.3970
 1159SOL     hw 4635   7.162   3.601   7.147 -0.5689  1.0200  2.6239
 1159SOL     vw 4636   7.213   3.543   7.185  0.2294  0.1194  0.3655
 1160SOL     ow 4637   3.681   0.045   6.818 -0.5674 -0.0175 -0.2290
 1160SOL     hw 4638   3.685   0.056   6.723  0.7450  2.0766 -0.0059
 1160SOL     hw 4639   3.771   0.060   6.847 -1.4858  2.7539  1.5847
 1160SOL     vw 4640   3.694   0.049   6.809 -0.5155  0.6247  0.0396
 1161SOL     ow 4641   6.002   1.628   1.499  0.3219 -0.0804 -0.1421
 1161SOL     hw 4642   6.024   1.543   1.460  0.5010 -0.7995  1.4399
 1161SOL     hw 4643   6.030   1.692   1.434 -0.5502 -1.2389 -1.7372
 1161SOL     vw 4644   6.008   1.625   1.485  0.2306 -0.3281 -0.1439
 1162SOL     ow 4645   5.855   1.696   2.943  0.6846  0.3086  0.4522
 1162SOL     hw 4646   5.782   1.640   2.918 -0.8612  2.7593 -0.9851
 1162SOL     hw 4647   5.874   1.673   3.034 -3.7292  1.3206  1.8738
 1162SOL     vw 4648   5.848   1.686   2.952 -0.1013  0.7654  0.4501
 1163SOL     ow 4649   6.396   6.687   5.984  0.0391 -0.2852 -0.5356
 1163SOL     hw 4650   6.337   6.749   5.942 -0.2160  0.0403  0.2781
 1163SOL     hw 4651   6.382   6.700   6.078  1.5508 -0.0707 -0.3137
 1163SOL     vw 4652   6.386   6.697   5.991  0.2050 -0.2139 -0.3989
 1164SOL     ow 4653   0.414   1.313   2.877  0.3585  0.0415 -0.4939
 1164SOL     hw 4654   0.434   1.220   2.868 -0.1619 -0.0895 -0.2988
 1164SOL     hw 4655   0.341   1.327   2.817 -0.2425  0.1043  0.2410
 1164SOL     vw 4656   0.407   1.302   2.868  0.2105  0.0325 -0.3712
 1165SOL     ow 4657   6.249   6.813   3.038  0.4186 -0.5204 -0.1895
 1165SOL     hw 4658   6.184   6.813   3.109  2.2176  0.1939  1.5624
 1165SOL     hw 4659   6.259   6.905   3.015  1.4693 -0.5090  0.2492
 1165SOL     vw 4660   6.242   6.825   3.044  0.7946 -0.4246  0.0995
 1166SOL     ow 4661   7.473   5.429   2.496 -0.1149 -0.7006  0.3350
 1166SOL     hw 4662   7.476   5.334   2.482 -1.9585 -0.6414 -0.6409
 1166SOL     hw 4663   7.536   5.464   2.433  0.4782 -1.2306  0.6084
 1166SOL     vw 4664   7.482   5.421   2.486 -0.2797 -0.7629  0.2424
 1167SOL     ow 4665   1.000   2.950   5.911 -0.0309  0.5201  0.2135
 1167SOL     hw 4666   1.088   2.966   5.877 -1.1160  1.1521 -2.4516
 1167SOL     hw 4667   0.990   3.013   5.983  1.2757  1.1833 -0.1614
 1167SOL     vw 4668   1.010   2.960   5.916 -0.0017  0.6911 -0.1874
 1168SOL     ow 4669   2.295   0.803   0.361  0.0185  0.0828  0.1221
 1168SOL     hw 4670   2.325   0.844   0.442  1.6611 -1.4926  0.3738
 1168SOL     hw 4671   2.375   0.769   0.321 -0.7893  0.5445 -2.0265
 1168SOL     vw 4672   2.310   0.804   0.366  0.1287 -0.0641 -0.1282
 1169SOL     ow 4673   0.673   1.344   0.559 -0.2022 -0.2353 -0.1462
 1169SOL     hw 4674   0.614   1.362   0.632  0.2564 -1.0562  0.4399
 1169SOL     hw 4675   0.619   1.298   0.495 -0.6647  0.6892 -0.4431
 1169SOL     vw 4676   0.658   1.341   0.560 -0.2027 -0.2216 -0.1080
 1170SOL     ow 4677   3.646   5.167   7.479 -0.8390 -0.4309  0.0599
 1170SOL     hw 4678   3.631   5.111   7.555  0.3325  0.6696  1.1432
 1170SOL     hw 4679   3.721   5.128   7.434  0.4665  0.6131  1.2349
 1170SOL     vw 4680   3.654   5.154   7.483 -0.5121 -0.1478  0.3581
 1171SOL     ow 4681   5.192   3.390   4.424 -0.1109 -0.0295 -0.4302
 1171SOL     hw 4682   5.167   3.479   4.449  1.1839 -0.2717  2.0183
 1171SOL     hw 4683   5.130   3.333   4.469  0.1206 -0.4232 -0.5954
 1171SOL     vw 4684   5.180   3.394   4.433  0.0904 -0.1135 -0.1290
 1172SOL     ow 4685   0.835   4.844   5.484 -0.2484 -0.3549 -0.6494
 1172SOL     hw 4686   0.898   4.785   5.526  1.9135  1.6786 -0.8139
 1172SOL     hw 4687   0.749   4.806   5.504  0.9349 -2.5091  0.7642
 1172SOL     vw 4688   0.832   4.831   5.492  0.1930 -0.3710 -0.4845
 1173SOL     ow 4689   4.671   3.231   0.599 -0.2662 -0.1697  0.6878
 1173SOL     hw 4690   4.598   3.172   0.620 -1.1047  0.5201 -0.2027
 1173SOL     hw 4691   4.686   3.280   0.680 -0.0035 -1.1172  1.2317
 1173SOL     vw 4692   4.663   3.230   0.613 -0.3419 -0.2036  0.6421
 1174SOL     ow 4693   3.247   4.517   6.858  0.1418  0.3841  0.3383
 1174SOL     hw 4694   3.312   4.587   6.866  1.9907 -0.9149 -1.9648
 1174SOL     hw 4695   3.265   4.460   6.933 -0.6486  1.7386  1.6108
 1174SOL     vw 4696   3.258   4.519   6.869  0.2815  0.3915  0.2024
 1175SOL     ow 4697   4.798   1.424   2.936  0.9378  0.4169 -0.1488
 1175SOL     hw 4698   4.723   1.477   2.962  1.3456  0.9560 -0.0623
 1175SOL     hw 4699   4.836   1.471   2.862  0.3343 -0.6208 -1.1454
 1175SOL     vw 4700   4.793   1.437   2.930  0.9120  0.3511 -0.2688
 1176SOL     ow 4701   2.613   6.142   2.627 -0.1316  0.4767  0.2187
 1176SOL     hw 4702   2.651   6.123   2.541 -1.0566 -1.8777  0.2456
 1176SOL     hw 4703   2.554   6.068   2.644 -2.5275  2.5012  1.4398
 1176SOL     vw 4704   2.610   6.130   2.618 -0.5697  0.4330  0.3834
 1177SOL     ow 4705   3.840   3.694   7.392 -0.5664  0.3868 -0.5042
 1177SOL     hw 4706   3.888   3.725   7.314  0.5304  1.8324  0.6732
 1177SOL     hw 4707   3.881   3.611   7.413  0.5303  0.9478 -0.3246
 1177SOL     vw 4708   3.852   3.687   7.384 -0.2769  0.6516 -0.3252
 1178SOL     ow 4709   2.536   6.155   6.818  0.7245  0.3074  0.7554
 1178SOL     hw 4710   2.465   6.101   6.783  0.4880  0.3245  1.2109
 1178SOL     hw 4711   2.505   6.245   6.806  0.9906  0.3410  0.2734
 1178SOL     vw 4712   2.522   6.160   6.812  0.7284  0.3145  0.7520
 1179SOL     ow 4713   4.544   2.768   1.978  0.1424 -0.1743  0.3176
 1179SOL     hw 4714   4.467   2.825   1.981 -0.3257 -0.7730  0.0085
 1179SOL     hw 4715   4.537   2.724   1.893 -0.1258 -1.5074  1.0064
 1179SOL     vw 4716   4.533   2.770   1.967  0.0453 -0.4290  0.3678
 1180SOL     ow 4717   5.433   0.978   5.755  0.0901 -0.4708 -0.2850
 1180SOL     hw 4718   5.422   0.935   5.670  0.0289 -0.3551 -0.3364
 1180SOL     hw 4719   5.527   0.981   5.769  0.1519  0.5918 -0.9031
 1180SOL     vw 4720   5.444   0.972   5.746  0.0904 -0.3153 -0.3734
 1181SOL     ow 4721   5.393   2.362   2.226  0.7187  0.3139  0.0871
 1181SOL     hw 4722   5.303   2.366   2.259  0.6981 -2.0438  0.4648
 1181SOL     hw 4723   5.386   2.317   2.142  1.3884  1.5407 -0.6445
 1181SOL     vw 4724   5.380   2.357   2.220  0.8042  0.1647  0.0404
 1182SOL     ow 4725   5.367   6.586   2.089 -0.4330  0.2352  0.5774
 1182SOL     hw 4726   5.362   6.558   1.997 -2.5377  1.2789  0.3059
 1182SOL     hw 4727   5.343   6.679   2.086  0.1855  0.4616  2.1213
 1182SOL     vw 4728   5.363   6.595   2.076 -0.6289  0.4029  0.7454
 1183SOL     ow 4729   4.305   3.105   1.214 -0.2748  0.3158 -0.4846
 1183SOL     hw 4730   4.252   3.099   1.294 -1.7699  1.3087 -1.3618
 1183SOL     hw 4731   4.371   3.036   1.224 -2.7425 -2.1514 -0.0975
 1183SOL     vw 4732   4.307   3.095   1.226 -0.7977  0.1212 -0.5492
 1184SOL     ow 4733   0.110   1.323   7.243  0.4314  0.1912 -0.6080
 1184SOL     hw 4734   0.055   1.379   7.298  2.1647  1.4581 -0.0920
 1184SOL     hw 4735   0.158   1.268   7.305 -0.4610 -1.1729 -1.0680
 1184SOL     vw 4736   0.109   1.323   7.258  0.5423  0.1785 -0.6006
 1185SOL     ow 4737   6.274   6.613   1.144 -0.0940 -0.7441  0.2919
 1185SOL     hw 4738   6.303   6.645   1.058 -0.2187  1.7268  1.0922
 1185SOL     hw 4739   6.313   6.526   1.151 -0.0081 -0.9999 -2.2147
 1185SOL     vw 4740   6.283   6.605   1.133 -0.0992 -0.4518  0.0668
 1186SOL     ow 4741   4.320   0.824   4.152 -0.2765  0.5376 -0.0258
 1186SOL     hw 4742   4.307   0.908   4.108  0.7877  1.4717  1.3498
 1186SOL     hw 4743   4.332   0.761   4.081 -0.6342  1.6235 -1.0802
 1186SOL     vw 4744   4.320   0.826   4.136 -0.1831  0.8041  0.0167
 1187SOL     ow 4745   2.199   1.301   4.688 -0.7358  0.0336  0.0317
 1187SOL     hw 4746   2.192   1.285   4.782  0.6396 -0.5223  0.0589
 1187SOL     hw 4747   2.156   1.226   4.647 -1.9112  0.5879  0.1885
 1187SOL     vw 4748   2.192   1.289   4.695 -0.7095  0.0334  0.0560
 1188SOL     ow 4749   2.138   5.582   0.487 -0.6755 -0.1807 -0.0248
 1188SOL     hw 4750   2.128   5.660   0.541  0.9396  0.1466 -0.1544
 1188SOL     hw 4751   2.232   5.573   0.474 -0.9460 -0.9913 -1.7061
 1188SOL     vw 4752   2.149   5.591   0.492 -0.4982 -0.2441 -0.2638
 1189SOL     ow 4753   2.420   0.267   7.051 -0.2696 -0.7224 -0.1591
 1189SOL     hw 4754   2.508   0.263   7.089 -0.7403  0.8399  1.2317
 1189SOL     hw 4755   2.434   0.277   6.957  0.9851 -2.3003 -0.1726
 1189SOL     vw 4756   2.433   0.268   7.044 -0.1663 -0.7245  0.0226
 1190SOL     ow 4757   2.711   2.012   5.606  0.3388  0.1915  0.1634
 1190SOL     hw 4758   2.653   2.087   5.590 -1.9372 -1.1059  1.7752
 1190SOL     hw 4759   2.725   2.012   5.701  1.1413 -0.8590  0.0687
 1190SOL     vw 4760   2.705   2.022   5.616  0.1444 -0.1184  0.3638
 1191SOL     ow 4761   6.477   3.420   5.198 -0.4412  0.2201  0.4721
 1191SOL     hw 4762   6.459   3.499   5.147  1.5631  1.9237  2.2068
 1191SOL     hw 4763   6.555   3.382   5.157 -1.2551 -0.7850 -0.2063
 1191SOL     vw 4764   6.485   3.425   5.185 -0.2840  0.3123  0.6118
 1192SOL     ow 4765   3.961   6.874   7.310 -0.5066 -0.1410 -0.1267
 1192SOL     hw 4766   3.974   6.968   7.317 -0.1730 -0.1025 -1.1527
 1192SOL     hw 4767   3.968   6.855   7.216 -2.1299 -0.9508 -0.1327
 1192SOL     vw 4768   3.964   6.884   7.298 -0.6768 -0.2425 -0.2632
 1193SOL     ow 4769   4.947   1.080   2.981 -0.6748 -0.0752  0.0220
 1193SOL     hw 4770   4.891   1.137   3.035 -2.5547 -1.1856 -0.6418
 1193SOL     hw 4771   4.986   1.139   2.916  0.4828  1.0399  1.6289
 1193SOL     vw 4772   4.945   1.096   2.980 -0.7703 -0.0746  0.1463
 1194SOL     ow 4773   7.286   3.260   7.230 -0.0220 -0.6939  0.2088
 1194SOL     hw 4774   7.367   3.263   7.280  1.3932  1.5443 -1.9673
 1194SOL     hw 4775   7.277   3.349   7.194 -2.2299 -1.5002 -1.4575
 1194SOL     vw 4776   7.295   3.272   7.232 -0.1266 -0.5051 -0.2980
 1195SOL     ow 4777   4.723   3.356   0.189 -0.1189  0.1592  0.5387
 1195SOL     hw 4778   4.797   3.408   0.220 -1.5674  1.1695  2.5069
 1195SOL     hw 4779   4.655   3.421   0.170 -0.5804 -0.7514 -1.1321
 1195SOL     vw 4780   4.724   3.371   0.191 -0.3710  0.1723  0.5779
 1196SOL     ow 4781   2.075   6.382   3.634 -0.1519  0.2933 -0.2554
 1196SOL     hw 4782   2.070   6.357   3.542 -2.1681  1.3246 -0.4838
 1196SOL     hw 4783   2.013   6.323   3.678 -2.5260  2.5407 -0.3167
 1196SOL     vw 4784   2.066   6.371   3.628 -0.7313  0.7257 -0.2936
 1197SOL     ow 4785   2.783   7.095   7.585 -0.3512  0.2703  0.3499
 1197SOL     hw 4786   2.709   7.151   7.563 -0.6784 -0.8004 -1.4963
 1197SOL     hw 4787   2.743   7.014   7.617 -0.2340 -1.3886 -3.2023
 1197SOL     vw 4788   2.768   7.092   7.586 -0.3790 -0.0896 -0.3623
 1198SOL     ow 4789   2.439   6.874   2.289  0.3139  0.8846 -0.2987
 1198SOL     hw 4790   2.502   6.838   2.351 -0.7943 -1.6044 -0.4943
 1198SOL     hw 4791   2.480   6.862   2.204  0.1071  0.4323 -0.3358
 1198SOL     vw 4792   2.453   6.868   2.286  0.1404  0.4964 -0.3294
 1199SOL     ow 4793   4.869   1.223   3.590 -0.3496  0.4295 -0.2621
 1199SOL     hw 4794   4.873   1.131   3.614 -2.6105  0.3305 -0.0648
 1199SOL     hw 4795   4.960   1.250   3.582  0.3587 -1.7126  0.0528
 1199SOL     vw 4796   4.881   1.214   3.592 -0.5546  0.1339 -0.1947
 1200SOL     ow 4797   4.097   7.094   6.622  0.9579  0.5706  0.4799
 1200SOL     hw 4798   4.086   7.095   6.527  2.3538 -1.6537  0.1984
 1200SOL     hw 4799   4.154   7.018   6.638  0.1055  0.3908  3.1624
 1200SOL     vw 4800   4.103   7.084   6.612  1.0295  0.2534  0.7966
 1201SOL     ow 4801   4.385   6.435   2.209  0.7169 -0.4177  0.2118
 1201SOL     hw 4802   4.453   6.501   2.220 -0.1557  0.2568  2.2038
 1201SOL     hw 4803   4.386   6.385   2.291  1.3559 -2.9595 -1.2335
 1201SOL     vw 4804   4.394   6.437   2.221  0.6862 -0.6638  0.2838
 1202SOL     ow 4805   4.045   4.504   2.946 -0.0160  0.3547  0.3028
 1202SOL     hw 4806   4.099   4.582   2.962 -0.3283  0.8355 -0.8970
 1202SOL     hw 4807   3.978   4.508   3.014  1.7213 -0.5473  2.1672
 1202SOL     vw 4808   4.044   4.515   2.957  0.1721  0.2992  0.3905
 1203SOL     ow 4809   3.954   2.757   5.372 -0.1086  0.0891  0.5773
 1203SOL     hw 4810   4.008   2.680   5.388 -1.0111 -0.6025  0.4379
 1203SOL     hw 4811   3.925   2.747   5.281  0.2594  0.9178  0.3603
 1203SOL     vw 4812   3.957   2.746   5.362 -0.1791  0.1070  0.5302
 1204SOL     ow 4813   3.362   5.882   1.975  0.1638 -0.3039 -0.0960
 1204SOL     hw 4814   3.421   5.858   1.904  1.2910 -0.1792  0.7812
 1204SOL     hw 4815   3.413   5.940   2.031 -1.1906  0.8398  0.0253
 1204SOL     vw 4816   3.376   5.886   1.973  0.1338 -0.1369  0.0358
 1205SOL     ow 4817   3.591   7.364   6.971 -0.1967  0.6694  0.4505
 1205SOL     hw 4818   3.632   7.394   7.052  1.9025 -0.9332  0.0903
 1205SOL     hw 4819   3.550   7.281   6.994 -0.1425  0.5191  0.0115
 1205SOL     vw 4820   3.591   7.357   6.984  0.0874  0.4382  0.3452
 1206SOL     ow 4821   5.177   5.973   0.476 -0.0310 -0.4060  0.6476
 1206SOL     hw 4822   5.257   5.994   0.428  1.1714  0.7716  3.0282
 1206SOL     hw 4823   5.203   5.906   0.538 -1.3591 -1.3113  0.2748
 1206SOL     vw 4824   5.191   5.967   0.478 -0.0474 -0.3705  0.9125
 1207SOL     ow 4825   4.654   1.644   5.428  0.2329  0.3042 -0.2685
 1207SOL     hw 4826   4.657   1.710   5.497  1.2269 -1.7770  1.7986
 1207SOL     hw 4827   4.611   1.569   5.468  1.6124 -1.2818 -1.6203
 1207SOL     vw 4828   4.648   1.643   5.442  0.5462 -0.1796 -0.1740
 1208SOL     ow 4829   7.020   2.453   2.222  0.4293  0.1490  0.1446
 1208SOL     hw 4830   7.078   2.455   2.298  1.2013  0.2156 -0.4376
 1208SOL     hw 4831   7.078   2.463   2.146 -0.2212 -0.8352 -0.5098
 1208SOL     vw 4832   7.035   2.454   2.222  0.4454  0.0280 -0.0184
 1209SOL     ow 4833   1.112   4.115   7.219 -0.2414  0.0771 -0.5003
 1209SOL     hw 4834   1.137   4.063   7.296 -0.7678  0.2162 -0.2317
 1209SOL     hw 4835   1.185   4.104   7.159 -0.7031 -1.6971 -0.8108
 1209SOL     vw 4836   1.125   4.107   7.222 -0.3718 -0.1388 -0.5059
 1210SOL     ow 4837   1.175   1.631   4.495 -0.2648  0.1147 -0.5013
 1210SOL     hw 4838   1.178   1.631   4.591 -0.0004  1.0446 -0.5032
 1210SOL     hw 4839   1.133   1.714   4.472 -0.0440  0.0437 -1.1912
 1210SOL     vw 4840   1.170   1.642   4.505 -0.2008  0.2280 -0.5925
 1211SOL     ow 4841   0.624   3.528   5.627 -0.1318 -0.0458  0.1953
 1211SOL     hw 4842   0.627   3.614   5.584 -0.6562  0.3064  0.8573
 1211SOL     hw 4843   0.540   3.491   5.600  0.1085 -0.3771 -0.1173
 1211SOL     vw 4844   0.614   3.534   5.617 -0.1693 -0.0430  0.2413
 1212SOL     ow 4845   0.128   5.272   5.190 -0.2347  1.0673  0.4591
 1212SOL     hw 4846   0.059   5.331   5.219 -0.3324  0.5009  1.4178
 1212SOL     hw 4847   0.102   5.245   5.102 -2.4157 -0.8189  1.5765
 1212SOL     vw 4848   0.116   5.276   5.182 -0.5354  0.7434  0.7327
 1213SOL     ow 4849   1.808   1.876   6.644 -0.4242  0.2869 -0.0340
 1213SOL     hw 4850   1.756   1.801   6.673 -0.9210  0.9034  0.7138
 1213SOL     hw 4851   1.761   1.952   6.678  0.7091  0.8848  0.2370
 1213SOL     vw 4852   1.795   1.876   6.652 -0.3402  0.4472  0.1004
 1214SOL     ow 4853   7.047   6.599   1.274  0.3478  0.3250 -0.4132
 1214SOL     hw 4854   7.020   6.657   1.203  1.2294  0.5154 -0.6071
 1214SOL     hw 4855   7.040   6.511   1.237 -0.7627  0.3104 -0.1963
 1214SOL     vw 4856   7.043   6.595   1.260  0.3173  0.3483 -0.4101
 1215SOL     ow 4857   6.058   5.410   2.348 -0.4149  0.2126  0.3251
 1215SOL     hw 4858   6.081   5.492   2.391 -0.0058 -0.5886  1.7002
 1215SOL     hw 4859   5.963   5.405   2.356 -0.3715  0.2037  0.9543
 1215SOL     vw 4860   6.049   5.420   2.355 -0.3552  0.1056  0.5896
 1216SOL     ow 4861   0.243   4.999   5.206  0.3494  0.5512 -0.0917
 1216SOL     hw 4862   0.256   5.008   5.112  4.3339 -0.1119  0.2064
 1216SOL     hw 4863   0.177   4.930   5.215 -0.2870  0.7946 -2.3564
 1216SOL     vw 4864   0.236   4.991   5.195  0.7911  0.4954 -0.3514
 1217SOL     ow 4865   5.707   0.218   0.471  0.5780  0.0631  0.7899
 1217SOL     hw 4866   5.696   0.190   0.380  1.0020 -3.2517  1.6055
 1217SOL     hw 4867   5.802   0.216   0.485  0.4431 -3.3404  2.1966
 1217SOL     vw 4868   5.718   0.214   0.461  0.6161 -0.8233  1.0831
 1218SOL     ow 4869   4.945   2.774   3.430  0.0951  0.2201  0.1665
 1218SOL     hw 4870   4.890   2.737   3.498 -0.7091  3.5547  1.5562
 1218SOL     hw 4871   5.033   2.771   3.465  0.4094 -2.1953 -0.6848
 1218SOL     vw 4872   4.949   2.769   3.443  0.0305  0.3414  0.2375
 1219SOL     ow 4873   0.469   6.068   5.287  0.2162 -0.0499  0.0644
 1219SOL     hw 4874   0.490   6.046   5.378 -1.5646 -0.6392  0.3700
 1219SOL     hw 4875   0.431   5.987   5.251 -0.5766  0.6442 -0.7010
 1219SOL     vw 4876   0.466   6.054   5.295 -0.1233 -0.0360  0.0041
 1220SOL     ow 4877   6.477   1.358   1.265  0.4940  0.3649 -0.1251
 1220SOL     hw 4878   6.548   1.346   1.327 -1.0522 -0.9639  1.5135
 1220SOL     hw 4879   6.463   1.271   1.226 -0.0675  0.6502 -0.5931
 1220SOL     vw 4880   6.484   1.345   1.268  0.2158  0.2272  0.0293
 1221SOL     ow 4881   0.165   6.252   5.727 -0.0322 -0.4306 -0.4616
 1221SOL     hw 4882   0.153   6.181   5.665  2.1604  0.9355 -2.6665
 1221SOL     hw 4883   0.113   6.325   5.691  2.8600  1.0220 -2.0602
 1221SOL     vw 4884   0.157   6.252   5.714  0.6387 -0.0589 -0.9634
 1222SOL     ow 4885   2.035   3.525   0.273  0.3390  0.4883 -0.1043
 1222SOL     hw 4886   2.126   3.505   0.294  1.6258  2.0054 -3.4872
 1222SOL     hw 4887   2.019   3.480   0.190 -1.8019  0.7729  0.1096
 1222SOL     vw 4888   2.045   3.517   0.265  0.2264  0.7261 -0.5224
 1223SOL     ow 4889   6.587   0.582   5.802  0.3084  0.4675  0.8615
 1223SOL     hw 4890   6.586   0.506   5.860 -0.4069  0.4166  0.7905
 1223SOL     hw 4891   6.678   0.613   5.804  0.2520  0.6122  2.2002
 1223SOL     vw 4892   6.599   0.576   5.810  0.2067  0.4799  1.0288
 1224SOL     ow 4893   7.329   3.962   3.944 -0.2662  0.1403  0.2907
 1224SOL     hw 4894   7.276   3.892   3.907 -0.5484  0.0119  0.9254
 1224SOL     hw 4895   7.290   4.042   3.910 -0.6005  0.0290  0.4069
 1224SOL     vw 4896   7.317   3.963   3.935 -0.3474  0.1086  0.3899
 1225SOL     ow 4897   0.342   6.244   5.136 -0.3836  0.5817  0.1784
 1225SOL     hw 4898   0.382   6.167   5.175 -0.3446  0.1029 -0.7820
 1225SOL     hw 4899   0.389   6.257   5.054 -2.2128 -0.0777 -1.0516
 1225SOL     vw 4900   0.353   6.236   5.130 -0.6198  0.4315 -0.1106
 1226SOL     ow 4901   0.373   4.778   5.258 -0.3368 -0.1502 -0.1167
 1226SOL     hw 4902   0.348   4.870   5.253 -0.0421 -0.1139 -1.4547
 1226SOL     hw 4903   0.414   4.769   5.344 -0.2523  1.0081 -0.0146
 1226SOL     vw 4904   0.375   4.789   5.269 -0.2867  0.0074 -0.2797
 1227SOL     ow 4905   4.918   4.578   5.542 -0.1513 -0.6902  0.3880
 1227SOL     hw 4906   4.953   4.663   5.516 -0.4951 -0.6334  0.1060
 1227SOL     hw 4907   4.831   4.575   5.503  0.0557 -1.3853 -0.0352
 1227SOL     vw 4908   4.911   4.589   5.534 -0.1698 -0.7744  0.2949
 1228SOL     ow 4909   0.996   1.116   1.135  0.0947  0.3703 -0.3806
 1228SOL     hw 4910   0.963   1.052   1.070 -2.5159  0.1608  1.0193
 1228SOL     hw 4911   1.044   1.063   1.198 -1.4213 -0.1910  0.3633
 1228SOL     vw 4912   0.998   1.100   1.134 -0.4498  0.2686 -0.0977
 1229SOL     ow 4913   7.520   4.518   5.494 -0.0673 -0.4462 -0.1449
 1229SOL     hw 4914   7.509   4.463   5.572 -2.1362  0.9070  0.5956
 1229SOL     hw 4915   7.614   4.536   5.491  0.4880 -2.8834  0.3271
 1229SOL     vw 4916   7.531   4.513   5.504 -0.2670 -0.5889  0.0150
 1230SOL     ow 4917   4.953   1.495   5.396  0.4303 -0.2570  0.7222
 1230SOL     hw 4918   5.007   1.455   5.327  3.6333  0.3830  2.6223
 1230SOL     hw 4919   4.941   1.424   5.460 -0.0510 -0.0856  0.8217
 1230SOL     vw 4920   4.959   1.480   5.396  0.7892 -0.1500  0.9856
 1231SOL     ow 4921   0.236   4.717   4.375  0.0654 -0.0720 -0.3239
 1231SOL     hw 4922   0.214   4.744   4.286 -0.6337  0.1067 -0.1046
 1231SOL     hw 4923   0.297   4.784   4.406 -1.4202  1.1268  0.1070
 1231SOL     vw 4924   0.241   4.729   4.368 -0.2229  0.1099 -0.2379
 1232SOL     ow 4925   0.427   5.449   4.458  0.1093  1.0917 -0.2378
 1232SOL     hw 4926   0.378   5.512   4.406  0.4255  0.9050 -0.7723
 1232SOL     hw 4927   0.482   5.503   4.516  1.4933  1.3572 -1.7239
 1232SOL     vw 4928   0.428   5.464   4.459  0.3336  1.1022 -0.5043
 1233SOL     ow 4929   1.210   1.823   4.944 -0.1087  0.4505 -1.0063
 1233SOL     hw 4930   1.200   1.797   5.036  3.1277 -1.7235 -1.0814
 1233SOL     hw 4931   1.172   1.750   4.894  1.3268 -0.1545 -1.2832
 1233SOL     vw 4932   1.204   1.810   4.950  0.5077  0.0839 -1.0526
 1234SOL     ow 4933   3.353   5.311   4.159 -0.6624 -0.5717 -0.6543
 1234SOL     hw 4934   3.396   5.250   4.219 -0.9156  0.8875  1.0562
 1234SOL     hw 4935   3.425   5.350   4.109  0.1124  1.7014  2.0420
 1234SOL     vw 4936   3.368   5.308   4.160 -0.5934 -0.0794 -0.0727
 1235SOL     ow 4937   3.859   0.647   0.643  0.9372  0.7504 -0.0253
 1235SOL     hw 4938   3.833   0.736   0.666  0.6788  1.1741 -1.7975
 1235SOL     hw 4939   3.944   0.657   0.600  0.8878  0.1443 -0.2779
 1235SOL     vw 4940   3.867   0.660   0.640  0.8967  0.7263 -0.2924
 1236SOL     ow 4941   6.336   4.906   6.198  0.4198  0.0642 -0.0555
 1236SOL     hw 4942   6.292   4.892   6.283  0.6208  0.8894  0.1963
 1236SOL     hw 4943   6.420   4.945   6.221  0.8577 -0.5403 -0.5988
 1236SOL     vw 4944   6.341   4.909   6.213  0.5043  0.0932 -0.0939
 1237SOL     ow 4945   4.033   6.939   1.226  0.4876 -0.4651 -0.0854
 1237SOL     hw 4946   3.986   6.868   1.270  0.6328 -0.4664  0.0664
 1237SOL     hw 4947   4.109   6.956   1.281  0.4740 -0.2153 -0.1395
 1237SOL     vw 4948   4.037   6.932   1.239  0.5050 -0.4323 -0.0725
 1238SOL     ow 4949   6.988   1.132   4.306 -0.3971 -0.0497 -0.1920
 1238SOL     hw 4950   6.940   1.130   4.388  0.1161  0.1230  0.1200
 1238SOL     hw 4951   6.921   1.147   4.239 -0.5550  2.5945  0.4352
 1238SOL     vw 4952   6.973   1.134   4.308 -0.3500  0.3219 -0.0682
 1239SOL     ow 4953   5.488   5.697   5.576  0.2594 -0.0048  0.0085
 1239SOL     hw 4954   5.576   5.733   5.592 -0.1745  1.2530 -0.2729
 1239SOL     hw 4955   5.471   5.642   5.652  1.8894 -1.5336 -0.6562
 1239SOL     vw 4956   5.498   5.695   5.588  0.4170 -0.0405 -0.1166
 1240SOL     ow 4957   0.341   2.540   1.604  0.4842  0.1265 -0.0912
 1240SOL     hw 4958   0.289   2.577   1.532  1.6182 -0.3323 -1.1934
 1240SOL     hw 4959   0.319   2.594   1.680 -0.4296  0.9082 -0.8850
 1240SOL     vw 4960   0.331   2.552   1.604  0.5133  0.1692 -0.3414
 1241SOL     ow 4961   3.701   0.034   5.651 -0.1273  0.3131 -0.3655
 1241SOL     hw 4962   3.651   0.112   5.629 -1.0356  0.5608  2.3188
 1241SOL     hw 4963   3.654  -0.038   5.609 -2.7867  0.5510  1.9491
 1241SOL     vw 4964   3.688   0.034   5.642 -0.5980  0.3769  0.2942
 1242SOL     ow 4965   1.098   3.183   6.906  0.3075  0.4206 -0.4593
 1242SOL     hw 4966   1.096   3.088   6.900  0.2661  0.3095  1.0268
 1242SOL     hw 4967   1.115   3.202   6.998 -1.0277  1.8512 -0.4490
 1242SOL     vw 4968   1.100   3.173   6.917  0.1258  0.5946 -0.2618
 1243SOL     ow 4969   6.047   2.778   0.493 -0.0934  0.8074 -0.5782
 1243SOL     hw 4970   6.099   2.732   0.558 -0.9431  0.8657  0.1612
 1243SOL     hw 4971   6.081   2.748   0.408  0.0897 -0.3320 -0.1107
 1243SOL     vw 4972   6.059   2.768   0.490 -0.1812  0.6648 -0.4189
 1244SOL     ow 4973   2.721   6.833   7.396 -0.4057 -0.5109  0.7968
 1244SOL     hw 4974   2.690   6.744   7.383  1.1286 -1.1115  0.9833
 1244SOL     hw 4975   2.809   6.822   7.432  0.6130  1.0578 -1.0394
 1244SOL     vw 4976   2.729   6.820   7.399 -0.0688 -0.3831  0.5791
 1245SOL     ow 4977   0.388   4.472   5.133 -0.4260 -0.3580  0.1434
 1245SOL     hw 4978   0.444   4.463   5.210  0.4138  0.3216 -0.3691
 1245SOL     hw 4979   0.299   4.466   5.167 -0.0636 -0.0907  1.1647
 1245SOL     vw 4980   0.383   4.470   5.148 -0.2674 -0.2329  0.2105
 1246SOL     ow 4981   0.113   3.822   3.103 -0.0653  0.1882 -0.1926
 1246SOL     hw 4982   0.072   3.894   3.056  0.3608 -0.4064 -1.5094
 1246SOL     hw 4983   0.071   3.743   3.070  3.1028 -0.6139 -2.8541
 1246SOL     vw 4984   0.102   3.821   3.093  0.4089  0.0039 -0.7175
 1247SOL     ow 4985   3.312   2.799   6.075  0.0405 -0.1950 -0.0774
 1247SOL     hw 4986   3.298   2.772   6.166 -1.6231  1.6869  0.3182
 1247SOL     hw 4987   3.250   2.871   6.062  0.5101 -0.1456 -2.6022
 1247SOL     vw 4988   3.302   2.805   6.085 -0.1169  0.0597 -0.3583
 1248SOL     ow 4989   0.117   6.060   4.949 -0.1870 -0.0729 -0.1243
 1248SOL     hw 4990   0.176   5.993   4.913  1.4009  0.0045  2.1387
 1248SOL     hw 4991   0.144   6.141   4.906 -2.4306 -0.8220 -3.2414
 1248SOL     vw 4992   0.129   6.062   4.939 -0.2735 -0.1616 -0.2367
 1249SOL     ow 4993   0.158   7.337   7.028 -0.0336 -0.2071  0.6940
 1249SOL     hw 4994   0.242   7.291   7.027  0.7787  1.1887  0.9683
 1249SOL     hw 4995   0.095   7.271   7.057  0.6968 -1.6679 -0.8507
 1249SOL     vw 4996   0.161   7.322   7.032  0.1699 -0.2158  0.5264
 1250SOL     ow 4997   0.877   4.823   0.818  0.2553  0.8870 -0.4594
 1250SOL     hw 4998   0.854   4.898   0.763  0.8035  1.0209 -0.5142
 1250SOL     hw 4999   0.936   4.771   0.764  1.0650  1.1881  0.1095
 1250SOL     vw 5000   0.882   4.826   0.804  0.4345  0.9444 -0.3916
 1251SOL     ow 5001   7.154   5.575   0.649  0.0675 -0.1738  0.2584
 1251SOL     hw 5002   7.223   5.591   0.585 -0.3481  1.1000  0.1057
 1251SOL     hw 5003   7.128   5.662   0.679  0.0044 -0.7144  1.8990
 1251SOL     vw 5004   7.160   5.589   0.645  0.0045 -0.0770  0.4547
 1252SOL     ow 5005   5.338   1.202   2.108 -0.3812 -0.1285  0.1867
 1252SOL     hw 5006   5.400   1.134   2.135 -0.4610  0.4438  1.9468
 1252SOL     hw 5007   5.354   1.214   2.015  0.3819 -1.7869  0.0664
 1252SOL     vw 5008   5.348   1.194   2.100 -0.2909 -0.2718  0.4030
 1253SOL     ow 5009   6.512   3.460   5.862 -0.3134 -0.3038 -0.0973
 1253SOL     hw 5010   6.558   3.488   5.783 -0.2417  1.1145  0.4192
 1253SOL     hw 5011   6.565   3.493   5.935 -1.8016  0.8669  0.5157
 1253SOL     vw 5012   6.525   3.468   5.861 -0.5004  0.0378  0.0517
 1254SOL     ow 5013   3.496   2.996   3.511  0.1404  0.1406  0.5248
 1254SOL     hw 5014   3.537   3.050   3.443 -0.0165  0.4758  0.6937
 1254SOL     hw 5015   3.568   2.970   3.568  0.5868 -1.6738 -0.7740
 1254SOL     vw 5016   3.511   3.000   3.509  0.1785 -0.0545  0.3759
 1255SOL     ow 5017   0.447   1.606   2.610 -0.0324 -0.0705 -0.2584
 1255SOL     hw 5018   0.359   1.625   2.640 -0.0533 -0.8784  0.2218
 1255SOL     hw 5019   0.436   1.539   2.543  0.2648 -0.7587  0.3654
 1255SOL     vw 5020   0.434   1.600   2.605  0.0041 -0.2679 -0.1127
 1256SOL     ow 5021   1.424   2.407   7.517 -1.2324  0.3123 -0.7434
 1256SOL     hw 5022   1.354   2.369   7.571 -1.6951  0.5059 -1.2016
 1256SOL     hw 5023   1.478   2.455   7.579 -0.0245 -1.9102  0.0456
 1256SOL     vw 5024   1.422   2.408   7.532 -1.1340  0.0446 -0.6995
 1257SOL     ow 5025   2.385   6.996   1.543 -0.1958  0.7574  0.3725
 1257SOL     hw 5026   2.299   7.037   1.531 -0.2221  0.5338 -0.1883
 1257SOL     hw 5027   2.377   6.910   1.503  0.2718  0.7081  0.3795
 1257SOL     vw 5028   2.372   6.990   1.536 -0.1374  0.7215  0.2995
 1258SOL     ow 5029   3.273   0.496   5.479 -0.1461 -0.0418 -0.3915
 1258SOL     hw 5030   3.299   0.441   5.405  0.3794  0.4895 -0.6088
 1258SOL     hw 5031   3.231   0.572   5.439 -1.8660 -0.7670 -0.0509
 1258SOL     vw 5032   3.271   0.499   5.464 -0.3037 -0.0674 -0.3750
 1259SOL     ow 5033   5.030   5.947   6.956  0.5613  0.3643 -0.3645
 1259SOL     hw 5034   5.109   5.963   6.905  0.6253  0.8007 -0.1334
 1259SOL     hw 5035   5.059   5.951   7.047  0.5237 -0.7936 -0.2846
 1259SOL     vw 5036   5.045   5.950   6.961  0.5648  0.2689 -0.3235
 1260SOL     ow 5037   3.138   0.126   0.434 -0.3533 -0.3963  0.4469
 1260SOL     hw 5038   3.044   0.105   0.433 -0.4105 -0.1259 -0.4777
 1260SOL     hw 5039   3.170   0.085   0.514 -1.2682 -0.4676  0.7979
 1260SOL     vw 5040   3.130   0.118   0.445 -0.4815 -0.3700  0.3712
 1261SOL     ow 5041   2.300   2.053   3.538  0.0474 -0.1026  0.2029
 1261SOL     hw 5042   2.278   2.103   3.617  1.6436 -1.3379  1.5079
 1261SOL     hw 5043   2.239   1.979   3.539 -1.4172  1.0214 -0.9980
 1261SOL     vw 5044   2.289   2.050   3.549  0.0648 -0.1173  0.2166
 1262SOL     ow 5045   4.270   0.942   5.109 -0.6613 -0.6159 -0.0844
 1262SOL     hw 5046   4.206   0.939   5.181 -1.9209  0.5355 -1.1074
 1262SOL     hw 5047   4.253   0.863   5.059 -0.9626 -0.5705 -0.0603
 1262SOL     vw 5048   4.259   0.931   5.112 -0.8671 -0.4580 -0.2162
 1263SOL     ow 5049   6.977   5.289   4.264  0.0704  0.3573 -0.3298
 1263SOL     hw 5050   6.891   5.331   4.257 -0.4650 -0.8327 -1.1203
 1263SOL     hw 5051   6.964   5.201   4.229  2.4446  1.2623 -4.0282
 1263SOL     vw 5052   6.964   5.283   4.259  0.3128  0.3200 -0.9220
 1264SOL     ow 5053   7.404   5.064   5.608 -0.6154 -0.0440  1.1005
 1264SOL     hw 5054   7.423   4.987   5.662  1.2740 -0.5669 -0.1858
 1264SOL     hw 5055   7.421   5.139   5.665 -0.3468 -0.5786  1.7376
 1264SOL     vw 5056   7.409   5.063   5.622 -0.3307 -0.1836  1.0147
 1265SOL     ow 5057   0.552   2.553   1.952  0.1670 -0.2453  0.4329
 1265SOL     hw 5058   0.572   2.605   1.874 -1.2904 -0.9847 -0.4824
 1265SOL     hw 5059   0.457   2.546   1.952  0.1308 -0.2654  2.3071
 1265SOL     vw 5060   0.542   2.559   1.941 -0.0301 -0.3455  0.5594
 1266SOL     ow 5061   1.556   6.250   5.551  0.0235 -0.6925  0.0260
 1266SOL     hw 5062   1.561   6.233   5.645 -1.6202  1.2938  0.5330
 1266SOL     hw 5063   1.464   6.268   5.534  0.7120  2.2660 -1.3118
 1266SOL     vw 5064   1.545   6.250   5.561 -0.1025 -0.0398 -0.0834
 1267SOL     ow 5065   6.760   2.053   1.180  0.1981 -0.5381 -0.6326
 1267SOL     hw 5066   6.800   1.967   1.178 -0.3627 -0.8407  0.3180
 1267SOL     hw 5067   6.824   2.108   1.225 -0.7284 -1.2137  1.6582
 1267SOL     vw 5068   6.774   2.049   1.186  0.0021 -0.6672 -0.2050
 1268SOL     ow 5069   6.997   2.702   7.430 -0.5913  0.7009 -0.5212
 1268SOL     hw 5070   7.029   2.625   7.385 -1.4625  0.0792 -0.1147
 1268SOL     hw 5071   7.076   2.749   7.458 -0.0308 -0.6312  0.2113
 1268SOL     vw 5072   7.011   2.698   7.428 -0.6323  0.4431 -0.3707
 1269SOL     ow 5073   5.023   4.926   7.172  0.2582  0.0325  0.1832
 1269SOL     hw 5074   5.084   4.852   7.179  1.9030  1.4033  1.2448
 1269SOL     hw 5075   4.958   4.910   7.239  1.0433 -0.0873  0.9310
 1269SOL     vw 5076   5.023   4.914   7.181  0.5784  0.1974  0.4220
 1270SOL     ow 5077   5.630   6.505   5.136 -0.7156  1.1420  1.1492
 1270SOL     hw 5078   5.642   6.517   5.231 -1.4328  1.9632  1.1483
 1270SOL     hw 5079   5.610   6.412   5.126 -1.4427  1.2009  1.9042
 1270SOL     vw 5080   5.629   6.494   5.147 -0.9062  1.2581  1.2486
 1271SOL     ow 5081   4.445   0.779   7.191 -0.8725 -0.1815  0.6488
 1271SOL     hw 5082   4.364   0.731   7.171 -0.6911 -0.0111 -0.5390
 1271SOL     hw 5083   4.450   0.777   7.287 -0.9384 -2.4423  0.6661
 1271SOL     vw 5084   4.435   0.772   7.201 -0.8574 -0.4573  0.4945
 1272SOL     ow 5085   4.432   6.269   4.662  0.3774  0.1601  0.1099
 1272SOL     hw 5086   4.430   6.365   4.654 -1.9400  0.1166 -0.6311
 1272SOL     hw 5087   4.449   6.238   4.574  1.3171 -0.1401  0.3850
 1272SOL     vw 5088   4.434   6.278   4.650  0.1955  0.1147  0.0484
 1273SOL     ow 5089   3.806   2.228   0.275  0.4484  0.4141  0.1321
 1273SOL     hw 5090   3.865   2.292   0.236 -1.2782  0.2943 -2.9463
 1273SOL     hw 5091   3.858   2.148   0.282  1.9024  1.4422  1.7506
 1273SOL     vw 5092   3.821   2.226   0.271  0.4126  0.5338 -0.0605
 1274SOL     ow 5093   4.261   3.202   7.296 -0.5809  0.2649 -0.1081
 1274SOL     hw 5094   4.297   3.285   7.329 -0.4164  0.3100 -0.3942
 1274SOL     hw 5095   4.253   3.216   7.201 -0.6114 -0.0245 -0.1477
 1274SOL     vw 5096   4.265   3.215   7.288 -0.5631  0.2327 -0.1512
 1275SOL     ow 5097   6.559   2.246   6.566  0.1325  0.2525 -1.0469
 1275SOL     hw 5098   6.567   2.153   6.586  0.2164  0.1355 -1.6018
 1275SOL     hw 5099   6.624   2.261   6.497  1.8389  1.2336  0.6712
 1275SOL     vw 5100   6.569   2.236   6.559  0.3684  0.3664 -0.8936
 1276SOL     ow 5101   1.888   6.806   3.733 -0.5509 -0.2219 -0.1305
 1276SOL     hw 5102   1.966   6.852   3.763 -0.3231 -0.6291 -0.0982
 1276SOL     hw 5103   1.918   6.754   3.658 -0.4685 -1.4951  0.7565
 1276SOL     vw 5104   1.902   6.805   3.727 -0.5099 -0.4439 -0.0092
 1277SOL     ow 5105   4.647   6.708   1.688 -0.2606 -0.1339  0.0170
 1277SOL     hw 5106   4.588   6.694   1.762 -2.9974  2.5209 -1.4056
 1277SOL     hw 5107   4.629   6.635   1.628 -0.5343 -0.4767  0.5150
 1277SOL     vw 5108   4.637   6.697   1.690 -0.6580  0.1709 -0.1050
 1278SOL     ow 5109   0.546   4.510   2.223  0.4629  0.2647 -0.0945
 1278SOL     hw 5110   0.556   4.417   2.242 -0.1402  0.2173  0.0151
 1278SOL     hw 5111   0.634   4.540   2.201  0.6421 -0.3551 -0.2360
 1278SOL     vw 5112   0.559   4.502   2.222  0.4070  0.1767 -0.0987
 1279SOL     ow 5113   1.644   0.239   7.079  0.0003  0.3450 -0.9016
 1279SOL     hw 5114   1.576   0.303   7.097 -0.6956 -0.2511 -1.3569
 1279SOL     hw 5115   1.597   0.163   7.044  0.8076 -0.4172 -0.3626
 1279SOL     vw 5116   1.629   0.238   7.076  0.0150  0.1658 -0.8905
 1280SOL     ow 5117   7.491   1.437   0.287 -0.4995  0.7821  0.1909
 1280SOL     hw 5118   7.439   1.517   0.285 -2.3211 -0.3195  0.8766
 1280SOL     hw 5119   7.528   1.436   0.376 -0.1791  1.0341  0.0619
 1280SOL     vw 5120   7.489   1.447   0.299 -0.6976  0.6700  0.2644
 1281SOL     ow 5121   1.463   4.369   0.898 -0.3406 -0.1889  0.3971
 1281SOL     hw 5122   1.387   4.420   0.869 -0.9852 -1.8752 -1.0101
 1281SOL     hw 5123   1.451   4.361   0.992 -0.7171  1.4091  0.5264
 1281SOL     vw 5124   1.452   4.375   0.906 -0.4753 -0.2007  0.2285
 1282SOL     ow 5125   4.346   4.293   3.864  0.5618  0.3818  0.5260
 1282SOL     hw 5126   4.279   4.313   3.928  2.1529  2.9700  1.5065
 1282SOL     hw 5127   4.421   4.262   3.915  0.5513 -1.4644 -0.4651
 1282SOL     vw 5128   4.347   4.291   3.879  0.7701  0.4797  0.5245
 1283SOL     ow 5129   7.471   0.148   4.926  0.5953 -0.0490 -0.0915
 1283SOL     hw 5130   7.510   0.071   4.967 -0.2555 -0.8554 -0.7443
 1283SOL     hw 5131   7.412   0.183   4.992  0.7221 -0.1591  0.0832
 1283SOL     vw 5132   7.469   0.142   4.940  0.4997 -0.1699 -0.1545
 1284SOL     ow 5133   5.693   0.597   1.050 -0.3204 -0.0704  0.0609
 1284SOL     hw 5134   5.736   0.520   1.011 -1.9178 -0.9590 -0.0229
 1284SOL     hw 5135   5.757   0.630   1.113  1.4857  0.1503 -1.7559
 1284SOL     vw 5136   5.707   0.591   1.053 -0.2930 -0.1585 -0.1900
 1285SOL     ow 5137   6.113   3.944   6.583 -0.4763  0.7032  0.2079
 1285SOL     hw 5138   6.032   3.980   6.618  0.8343  0.7424  3.5104
 1285SOL     hw 5139   6.126   3.862   6.632  1.5549  0.7962 -0.0926
 1285SOL     vw 5140   6.104   3.938   6.594 -0.0355  0.7206  0.6042
 1286SOL     ow 5141   2.293   5.068   4.492  0.1471 -0.3298  0.0148
 1286SOL     hw 5142   2.318   5.006   4.424  0.7881  0.8372 -0.8397
 1286SOL     hw 5143   2.375   5.088   4.538  0.3284  1.3413 -0.9672
 1286SOL     vw 5144   2.307   5.063   4.489  0.2556  0.0446 -0.2275
 1287SOL     ow 5145   5.808   7.140   7.004 -0.7977 -0.0969  0.2868
 1287SOL     hw 5146   5.732   7.143   6.947  0.3792  1.5569 -1.3192
 1287SOL     hw 5147   5.849   7.055   6.986 -1.0207 -0.0298 -0.5716
 1287SOL     vw 5148   5.804   7.129   6.994 -0.6719  0.1304 -0.0384
 1288SOL     ow 5149   1.185   5.858   2.043  0.3396  0.2830  0.5158
 1288SOL     hw 5150   1.281   5.856   2.046  0.3185  0.5656  1.9941
 1288SOL     hw 5151   1.161   5.778   1.996  1.2895 -0.0095  0.5077
 1288SOL     vw 5152   1.195   5.847   2.037  0.4621  0.2816  0.7098
 1289SOL     ow 5153   0.729   0.219   3.378  0.1849  0.0299  0.3667
 1289SOL     hw 5154   0.762   0.137   3.342  2.1777  0.7723  0.3566
 1289SOL     hw 5155   0.797   0.283   3.357 -0.7469  1.4254  1.4394
 1289SOL     vw 5156   0.743   0.217   3.371  0.3249  0.3120  0.5068
 1290SOL     ow 5157   5.372   6.231   2.537 -0.6466 -0.3917 -0.1317
 1290SOL     hw 5158   5.353   6.180   2.616 -0.1186  0.5393  0.6356
 1290SOL     hw 5159   5.467   6.222   2.526 -0.8646 -1.4110 -1.3223
 1290SOL     vw 5160   5.382   6.223   2.546 -0.6061 -0.4034 -0.1875
 1291SOL     ow 5161   5.552   7.000   7.496 -0.2658 -0.1391  0.3673
 1291SOL     hw 5162   5.518   7.071   7.441 -1.0540 -0.6754  0.1415
 1291SOL     hw 5163   5.514   7.018   7.583  1.1695  0.8435  0.8352
 1291SOL     vw 5164   5.542   7.012   7.501 -0.1807 -0.0806  0.3991
 1292SOL     ow 5165   0.473   0.873   1.789 -0.3502 -0.2666  0.1085
 1292SOL     hw 5166   0.487   0.890   1.882  0.3266 -2.3773  0.4370
 1292SOL     hw 5167   0.386   0.911   1.772  0.7692  2.9142  0.7774
 1292SOL     vw 5168   0.463   0.881   1.799 -0.1132 -0.1254  0.2400
 1293SOL     ow 5169   4.327   2.780   0.753 -0.1492 -0.4252  0.3979
 1293SOL     hw 5170   4.310   2.687   0.761  2.2806 -1.4891 -3.9136
 1293SOL     hw 5171   4.403   2.796   0.808  0.9171 -1.6367 -0.6641
 1293SOL     vw 5172   4.335   2.770   0.761  0.3121 -0.7254 -0.3111
 1294SOL     ow 5173   2.173   2.588   1.645 -0.3917 -0.2485  1.0260
 1294SOL     hw 5174   2.225   2.512   1.671 -0.4265 -0.4012  0.6601
 1294SOL     hw 5175   2.237   2.653   1.616 -0.4206 -0.6880 -0.0873
 1294SOL     vw 5176   2.188   2.586   1.644 -0.4001 -0.3265  0.8308
 1295SOL     ow 5177   6.883   0.000   5.184 -0.6656  0.5361 -0.4540
 1295SOL     hw 5178   6.952  -0.056   5.148 -1.6512 -0.0565 -1.4765
 1295SOL     hw 5179   6.913   0.022   5.272 -1.0401 -3.0555  0.7160
 1295SOL     vw 5180   6.896  -0.004   5.191 -0.8452 -0.0162 -0.4344
 1296SOL     ow 5181   3.810   5.139   3.817 -0.3011 -0.5734 -0.0629
 1296SOL     hw 5182   3.871   5.197   3.862  1.9355 -1.6719 -1.4835
 1296SOL     hw 5183   3.833   5.147   3.724 -1.4943 -1.9374 -0.5140
 1296SOL     vw 5184   3.821   5.147   3.810 -0.1634 -0.8984 -0.3098
 1297SOL     ow 5185   7.016   6.442   1.614 -0.8776  0.1540  0.4624
 1297SOL     hw 5186   7.034   6.460   1.706 -0.3902 -0.0487  0.4108
 1297SOL     hw 5187   7.068   6.507   1.566  0.1171 -0.7320  0.2999
 1297SOL     vw 5188   7.025   6.453   1.620 -0.6821  0.0103  0.4342
 1298SOL     ow 5189   2.545   1.800   5.469  0.2509 -0.2995  0.0523
 1298SOL     hw 5190   2.544   1.707   5.492  0.4200 -1.1098 -2.8084
 1298SOL     hw 5191   2.455   1.820   5.445  0.1106  0.4724  1.1078
 1298SOL     vw 5192   2.533   1.790   5.469  0.2546 -0.3046 -0.1860
 1299SOL     ow 5193   4.491   0.344   0.713  0.2342 -0.4387 -0.2826
 1299SOL     hw 5194   4.544   0.423   0.698  0.7698 -0.9608 -1.2953
 1299SOL     hw 5195   4.401   0.375   0.711  0.4617  0.3880  0.9354
 1299SOL     vw 5196   4.486   0.359   0.711  0.3350 -0.3985 -0.2555
 1300SOL     ow 5197   4.236   5.383   3.275 -0.1008 -0.1048 -0.5250
 1300SOL     hw 5198   4.203   5.380   3.185 -1.5710  2.4347 -0.1660
 1300SOL     hw 5199   4.288   5.463   3.279  2.5783 -1.7397  0.1676
 1300SOL     vw 5200   4.238   5.393   3.263  0.0587  0.0145 -0.3864
 1301SOL     ow 5201   5.311   0.757   0.179  0.4767 -0.1731 -0.8467
 1301SOL     hw 5202   5.321   0.812   0.102  0.1409  1.2011  0.0523
 1301SOL     hw 5203   5.239   0.797   0.228 -0.0647 -1.6732 -0.3604
 1301SOL     vw 5204   5.303   0.769   0.176  0.3610 -0.1897 -0.6639
 1302SOL     ow 5205   0.110   6.078   5.527  0.2075  0.1856 -0.0729
 1302SOL     hw 5206   0.018   6.074   5.501  0.4850 -0.3927 -1.0315
 1302SOL     hw 5207   0.148   6.146   5.471  1.2475 -2.4136 -2.7919
 1302SOL     vw 5208   0.103   6.086   5.516  0.3813 -0.2339 -0.5584
 1303SOL     ow 5209   2.069   4.604   5.011 -0.0882 -0.3128  0.7720
 1303SOL     hw 5210   2.104   4.646   4.932 -0.7825 -3.1673 -1.2410
 1303SOL     hw 5211   1.975   4.616   5.005 -0.1312 -0.3979  1.2746
 1303SOL     vw 5212   2.061   4.611   5.000 -0.1855 -0.7005  0.5727
 1304SOL     ow 5213   0.715   2.759   4.834 -0.3535 -0.9952 -0.2703
 1304SOL     hw 5214   0.621   2.744   4.842 -0.5540  0.0798 -0.4440
 1304SOL     hw 5215   0.724   2.811   4.753  0.5534 -2.5137 -1.1890
 1304SOL     vw 5216   0.704   2.764   4.824 -0.2603 -1.0537 -0.4144
 1305SOL     ow 5217   1.261   5.630   1.859 -0.0724  0.1201  0.3006
 1305SOL     hw 5218   1.311   5.623   1.940  0.9957 -0.5121 -0.3855
 1305SOL     hw 5219   1.305   5.699   1.809 -0.7214  0.5061  0.2494
 1305SOL     vw 5220   1.273   5.638   1.863 -0.0171  0.0875  0.2033
 1306SOL     ow 5221   7.030   3.324   0.061  0.3239 -0.8502 -0.3963
 1306SOL     hw 5222   6.976   3.392   0.020  0.6522 -1.3324 -1.6554
 1306SOL     hw 5223   7.010   3.245   0.012  1.6811 -1.1773 -0.4610
 1306SOL     vw 5224   7.020   3.323   0.049  0.5465 -0.9570 -0.5710
 1307SOL     ow 5225   6.660   3.408   4.710  0.3069  0.1366 -0.0221
 1307SOL     hw 5226   6.570   3.439   4.715  0.6918  1.4317 -0.6122
 1307SOL     hw 5227   6.659   3.342   4.641 -0.1647  0.2464 -0.1253
 1307SOL     vw 5228   6.648   3.403   4.701  0.2956  0.3217 -0.1137
 1308SOL     ow 5229   7.399   4.590   2.089 -0.0234 -0.1973  0.9010
 1308SOL     hw 5230   7.412   4.673   2.134 -0.1925 -0.6336  1.7902
 1308SOL     hw 5231   7.310   4.594   2.055  0.5095  0.6241 -0.4930
 1308SOL     vw 5232   7.389   4.601   2.090  0.0246 -0.1466  0.8345
 1309SOL     ow 5233   6.870   3.073   4.634  0.4522  0.0609 -0.0658
 1309SOL     hw 5234   6.930   3.014   4.589  0.2928  0.5902 -0.9912
 1309SOL     hw 5235   6.870   3.153   4.582 -1.6841 -0.2036 -0.5857
 1309SOL     vw 5236   6.878   3.076   4.622  0.1493  0.0957 -0.2565
 1310SOL     ow 5237   3.367   5.191   6.851  0.6593 -0.0479 -0.0373
 1310SOL     hw 5238   3.450   5.148   6.830  1.2917 -0.9136  3.4580
 1310SOL     hw 5239   3.317   5.123   6.898  0.1412  1.8427  2.3631
 1310SOL     vw 5240   3.372   5.176   6.855  0.6744  0.0873  0.7403
 1311SOL     ow 5241   5.380   6.030   0.292  0.1775  0.4771 -0.3716
 1311SOL     hw 5242   5.349   6.042   0.203 -0.7562 -0.2159 -0.1540
 1311SOL     hw 5243   5.475   6.035   0.285  0.3635 -2.7851 -1.9573
 1311SOL     vw 5244   5.388   6.032   0.280  0.0789 -0.0448 -0.5521
 1312SOL     ow 5245   0.564   3.833   4.758  0.4530 -0.0450  0.5830
 1312SOL     hw 5246   0.483   3.857   4.803  0.4520  0.9843  0.0443
 1312SOL     hw 5247   0.539   3.759   4.703 -0.2889  0.6833 -0.0835
 1312SOL     vw 5248   0.550   3.826   4.757  0.3550  0.1869  0.4239
 1313SOL     ow 5249   1.393   5.202   1.225  0.1468 -0.5593  0.2066
 1313SOL     hw 5250   1.470   5.146   1.229  0.5318 -0.0588 -0.0150
 1313SOL     hw 5251   1.415   5.276   1.282  1.5520  1.6375 -2.8728
 1313SOL     vw 5252   1.406   5.205   1.233  0.3830 -0.2036 -0.2289
 1314SOL     ow 5253   5.781   0.009   7.195 -0.1549  0.0330 -0.5839
 1314SOL     hw 5254   5.694   0.038   7.166 -0.1587 -0.5042 -1.1255
 1314SOL     hw 5255   5.792   0.051   7.281 -0.0094  1.8909 -1.4542
 1314SOL     vw 5256   5.771   0.018   7.202 -0.1361  0.2072 -0.7701
 1315SOL     ow 5257   2.153   2.860   5.219 -0.3643 -0.1202 -0.1068
 1315SOL     hw 5258   2.202   2.778   5.207 -3.0306 -1.8191 -0.1713
 1315SOL     hw 5259   2.147   2.871   5.314  0.1881  0.1697 -0.0977
 1315SOL     vw 5260   2.159   2.851   5.230 -0.6431 -0.3060 -0.1140
 1316SOL     ow 5261   7.237   5.293   5.015 -0.8604  0.0487  0.6577
 1316SOL     hw 5262   7.204   5.383   5.019 -3.0997 -0.6545 -0.2744
 1316SOL     hw 5263   7.158   5.240   5.004  0.4098 -2.0428  1.2533
 1316SOL     vw 5264   7.222   5.298   5.014 -0.9880 -0.3200  0.6135
 1317SOL     ow 5265   7.352   6.114   3.731  0.0468 -0.1502  0.1084
 1317SOL     hw 5266   7.353   6.060   3.652 -0.4636 -0.6369  0.4327
 1317SOL     hw 5267   7.308   6.195   3.705 -0.2633 -0.3748 -0.0682
 1317SOL     vw 5268   7.346   6.118   3.717 -0.0613 -0.2439  0.1279
 1318SOL     ow 5269   6.105   5.655   6.885 -0.0116  0.5443  0.1566
 1318SOL     hw 5270   6.074   5.565   6.892 -0.0248  0.6190  1.3005
 1318SOL     hw 5271   6.026   5.707   6.869  0.0478  0.3222 -0.9293
 1318SOL     vw 5272   6.091   5.650   6.884 -0.0055  0.5245  0.1645
 1319SOL     ow 5273   6.428   1.963   6.889 -0.1939  0.1478 -0.3370
 1319SOL     hw 5274   6.429   1.950   6.984  1.1857 -2.0158 -0.5716
 1319SOL     hw 5275   6.403   2.054   6.877 -1.0081  0.3090  2.0743
 1319SOL     vw 5276   6.425   1.973   6.900 -0.1192 -0.1163 -0.0501
 1320SOL     ow 5277   1.216   2.288   5.032 -0.4378 -0.0250  0.1041
 1320SOL     hw 5278   1.222   2.243   5.116 -2.1954 -1.0802 -0.2985
 1320SOL     hw 5279   1.308   2.301   5.006  0.1912 -2.7688  0.5944
 1320SOL     vw 5280   1.229   2.283   5.040 -0.5867 -0.5263  0.1159
 1321SOL     ow 5281   0.565   4.370   1.052  0.1806  0.2285  0.2062
 1321SOL     hw 5282   0.545   4.371   1.145  1.0149  0.5799  0.3923
 1321SOL     hw 5283   0.485   4.340   1.010 -0.6335  1.3359  0.9244
 1321SOL     vw 5284   0.552   4.366   1.058  0.1833  0.4210  0.3255
 1322SOL     ow 5285   6.702   7.366   5.195  0.1027  0.4155  0.3581
 1322SOL     hw 5286   6.700   7.343   5.288  1.4373 -1.7513 -0.0828
 1322SOL     hw 5287   6.752   7.448   5.192  1.0463 -0.0916  1.4509
 1322SOL     vw 5288   6.709   7.374   5.207  0.4034  0.0627  0.4442
 1323SOL     ow 5289   2.171   7.149   1.460 -0.1612  0.0325  0.2598
 1323SOL     hw 5290   2.179   7.196   1.377  0.7340  0.6973  0.6926
 1323SOL     hw 5291   2.095   7.092   1.449 -0.2944  0.4033 -0.8662
 1323SOL     vw 5292   2.162   7.148   1.448 -0.0606  0.1693  0.1683
 1324SOL     ow 5293   7.526   2.231   2.429  0.1207  0.2003  0.3531
 1324SOL     hw 5294   7.489   2.287   2.361  1.4466  1.7143  0.8230
 1324SOL     hw 5295   7.452   2.179   2.460 -0.8824  0.7932 -0.9714
 1324SOL     vw 5296   7.511   2.232   2.425  0.1633  0.4783  0.2403
 1325SOL     ow 5297   5.719   4.267   4.692  0.0226 -0.6246 -0.0108
 1325SOL     hw 5298   5.791   4.282   4.632  0.9225  0.4948  1.2874
 1325SOL     hw 5299   5.726   4.175   4.716  1.9195 -0.2408  1.1441
 1325SOL     vw 5300   5.729   4.257   4.688  0.3915 -0.4263  0.3128
 1326SOL     ow 5301   7.385   5.311   2.908  0.4076 -0.0764  0.6306
 1326SOL     hw 5302   7.423   5.255   2.841  0.7878  1.9069 -0.8974
 1326SOL     hw 5303   7.334   5.252   2.963 -0.5598 -1.7040 -1.8524
 1326SOL     vw 5304   7.383   5.296   2.907  0.3302 -0.0296  0.1013
 1327SOL     ow 5305   0.024   0.842   4.865 -0.3402  0.0414  0.3833
 1327SOL     hw 5306   0.037   0.937   4.861 -2.1871  0.2936 -0.9621
 1327SOL     hw 5307   0.041   0.812   4.776 -3.4541 -0.2755 -0.2253
 1327SOL     vw 5308   0.028   0.851   4.852 -0.9947  0.0328  0.1256
 1328SOL     ow 5309   4.379   7.049   3.274  1.3437 -0.4683 -0.1762
 1328SOL     hw 5310   4.383   7.107   3.198  0.5158 -0.1314  0.0333
 1328SOL     hw 5311   4.374   6.961   3.236 -0.8684 -0.2207 -0.5696
 1328SOL     vw 5312   4.379   7.045   3.259  0.9427 -0.3912 -0.2005
 1329SOL     ow 5313   6.800   0.290   2.319 -0.0902 -0.3623  0.3776
 1329SOL     hw 5314   6.850   0.371   2.313 -1.5462  0.4859 -1.0101
 1329SOL     hw 5315   6.737   0.305   2.389 -1.5617  0.4716 -1.0455
 1329SOL     vw 5316   6.798   0.303   2.327 -0.4766 -0.1404  0.0068
 1330SOL     ow 5317   3.674   7.029   0.206 -0.0070 -0.1913 -0.3383
 1330SOL     hw 5318   3.768   7.038   0.188  0.4298 -2.5209  0.3902
 1330SOL     hw 5319   3.655   7.097   0.270  1.0790  0.5768 -0.8013
 1330SOL     vw 5320   3.684   7.039   0.212  0.1940 -0.3972 -0.3033
 1331SOL     ow 5321   1.710   2.797   1.572 -0.7278  0.1148  0.0463
 1331SOL     hw 5322   1.775   2.790   1.503 -0.4994 -0.4005  0.3004
 1331SOL     hw 5323   1.629   2.822   1.528 -0.2303  1.3223 -0.1968
 1331SOL     vw 5324   1.708   2.799   1.557 -0.6320  0.2060  0.0478
 1332SOL     ow 5325   1.031   7.408   7.505 -0.7156 -0.9580 -0.3578
 1332SOL     hw 5326   1.103   7.459   7.542  1.2091 -1.5568 -2.9339
 1332SOL     hw 5327   0.989   7.367   7.580  2.1651 -1.2155  1.2625
 1332SOL     vw 5328   1.035   7.410   7.520 -0.0815 -1.0707 -0.4838
 1333SOL     ow 5329   3.570   7.120   3.234  0.0285 -0.1279  0.1820
 1333SOL     hw 5330   3.610   7.110   3.320 -1.7155  1.4233  1.2495
 1333SOL     hw 5331   3.611   7.052   3.180  1.2925 -1.0237  2.1697
 1333SOL     vw 5332   3.581   7.110   3.238 -0.0348 -0.0415  0.5852
 1334SOL     ow 5333   5.864   7.257   0.505 -0.2593  0.1456  0.4759
 1334SOL     hw 5334   5.780   7.225   0.472 -0.0149  0.7396 -0.7765
 1334SOL     hw 5335   5.845   7.288   0.594 -1.3150  0.0709  0.2880
 1334SOL     vw 5336   5.850   7.257   0.513 -0.3664  0.2139  0.2859
 1335SOL     ow 5337   5.847   6.131   1.869  0.1275 -0.2598 -0.2005
 1335SOL     hw 5338   5.840   6.226   1.870  0.7158 -0.1352  2.8838
 1335SOL     hw 5339   5.935   6.113   1.902 -0.6836 -1.8138  1.3039
 1335SOL     vw 5340   5.858   6.141   1.874  0.0985 -0.4482  0.4050
 1336SOL     ow 5341   4.983   0.488   0.593  0.2736 -0.6058 -0.1384
 1336SOL     hw 5342   4.888   0.477   0.581  0.6378 -3.7392 -1.1441
 1336SOL     hw 5343   4.991   0.548   0.667 -2.3972  2.4013 -2.0050
 1336SOL     vw 5344   4.971   0.494   0.601 -0.0310 -0.6224 -0.5174
 1337SOL     ow 5345   5.493   1.139   0.644  0.2617  0.5538  0.4533
 1337SOL     hw 5346   5.567   1.198   0.632 -0.5776  1.8340  1.4549
 1337SOL     hw 5347   5.470   1.146   0.736 -0.0374 -1.1417  0.5391
 1337SOL     vw 5348   5.500   1.147   0.654  0.1116  0.4990  0.5967
 1338SOL     ow 5349   4.521   1.488   5.623  0.4537  0.5520  0.0102
 1338SOL     hw 5350   4.543   1.504   5.715 -1.0884  2.2480  0.1431
 1338SOL     hw 5351   4.438   1.442   5.625 -0.0600  1.4278 -0.5202
 1338SOL     vw 5352   4.513   1.484   5.636  0.1826  0.8913 -0.0420
 1339SOL     ow 5353   0.386   4.493   4.424 -0.6803  0.2033 -0.4859
 1339SOL     hw 5354   0.323   4.563   4.404  0.6576  1.3548 -0.8337
 1339SOL     hw 5355   0.417   4.465   4.338 -0.9093 -0.5396 -0.3265
 1339SOL     vw 5356   0.381   4.499   4.410 -0.5340  0.2570 -0.5107
 1340SOL     ow 5357   4.191   2.056   2.058  0.3959 -0.1567 -0.2116
 1340SOL     hw 5358   4.278   2.087   2.082  1.1033 -0.1349 -2.6238
 1340SOL     hw 5359   4.137   2.135   2.057  1.0614  0.3130 -1.5497
 1340SOL     vw 5360   4.195   2.070   2.061  0.5770 -0.0918 -0.7064
 1341SOL     ow 5361   4.685   0.663   0.398  0.4609 -0.2060  0.2588
 1341SOL     hw 5362   4.714   0.667   0.307 -1.6180  0.4755 -0.4266
 1341SOL     hw 5363   4.633   0.742   0.411  0.1484 -0.6245  1.8307
 1341SOL     vw 5364   4.682   0.674   0.388  0.1452 -0.1713  0.3758
 1342SOL     ow 5365   5.245   3.046   3.499  0.2196  0.7721 -0.1656
 1342SOL     hw 5366   5.303   3.069   3.426  2.2876 -1.3612  0.6817
 1342SOL     hw 5367   5.157   3.052   3.462  1.0540  1.9952 -2.1504
 1342SOL     vw 5368   5.241   3.050   3.485  0.6022  0.6518 -0.3158
 1343SOL     ow 5369   0.407   5.824   5.254 -0.1814  0.0257 -0.3975
 1343SOL     hw 5370   0.362   5.843   5.337 -0.9212 -1.0595 -0.5364
 1343SOL     hw 5371   0.496   5.800   5.280 -1.1487 -3.1559  0.4065
 1343SOL     vw 5372   0.413   5.824   5.269 -0.4067 -0.5374 -0.3095
 1344SOL     ow 5373   7.236   7.090   0.637 -0.5522  0.3508 -0.1329
 1344SOL     hw 5374   7.272   7.165   0.683  2.0111 -1.7122  1.4855
 1344SOL     hw 5375   7.147   7.081   0.671 -0.6329  2.1372  0.2127
 1344SOL     vw 5376   7.229   7.099   0.647 -0.2248  0.3145  0.1262
 1345SOL     ow 5377   3.074   1.184   1.485 -0.4170 -0.4810  0.7646
 1345SOL     hw 5378   3.031   1.110   1.528  0.1268 -0.2200  1.8013
 1345SOL     hw 5379   3.049   1.260   1.538  0.5002 -0.1890  0.7911
 1345SOL     vw 5380   3.065   1.184   1.498 -0.2244 -0.4079  0.9049
 1346SOL     ow 5381   1.494   0.037   6.913 -0.6043  0.3921  0.2066
 1346SOL     hw 5382   1.430   0.004   6.975  0.1425  0.8373  1.2418
 1346SOL     hw 5383   1.533  -0.042   6.874  1.1683 -0.0530  2.6555
 1346SOL     vw 5384   1.491   0.022   6.916 -0.2719  0.3921  0.6666
 1347SOL     ow 5385   0.064   4.004   6.693 -0.5845 -0.0149 -0.3786
 1347SOL     hw 5386   0.142   4.004   6.638  0.1372  0.0970  0.6238
 1347SOL     hw 5387   0.005   4.067   6.650  0.7377  1.5651  0.0195
 1347SOL     vw 5388   0.067   4.012   6.680 -0.3149  0.2084 -0.1936
 1348SOL     ow 5389   3.184   1.190   2.575 -0.3287 -0.3707  0.2806
 1348SOL     hw 5390   3.091   1.188   2.553 -0.9885 -0.3169  2.8115
 1348SOL     hw 5391   3.189   1.152   2.663  1.8822  0.7471  0.7133
 1348SOL     vw 5392   3.173   1.185   2.584 -0.1241 -0.2162  0.6716
 1349SOL     ow 5393   0.951   2.318   5.353  0.3211 -0.0210  0.1554
 1349SOL     hw 5394   0.986   2.381   5.416 -3.2199  2.5462 -0.1474
 1349SOL     hw 5395   0.887   2.267   5.402 -1.4291  1.0372 -0.9017
 1349SOL     vw 5396   0.948   2.320   5.368 -0.3770  0.4573 -0.0243
 1350SOL     ow 5397   3.231   4.056   5.345 -0.3016 -0.3457  0.1016
 1350SOL     hw 5398   3.178   4.011   5.410 -0.5955 -1.1354 -0.6661
 1350SOL     hw 5399   3.322   4.040   5.372 -0.4048  1.3715  1.6613
 1350SOL     vw 5400   3.236   4.048   5.357 -0.3538 -0.2232  0.2060
 1351SOL     ow 5401   6.504   1.389   4.627 -0.3097  0.1502  0.2608
 1351SOL     hw 5402   6.427   1.333   4.644  1.4938 -2.4070  0.6184
 1351SOL     hw 5403   6.566   1.331   4.582  0.8866  2.5597 -1.3910
 1351SOL     vw 5404   6.502   1.374   4.623  0.0863  0.1307  0.0901
 1352SOL     ow 5405   1.773   4.554   0.050  0.0135  0.6123  0.3494
 1352SOL     hw 5406   1.778   4.460   0.030 -2.9980 -0.1130  2.2444
 1352SOL     hw 5407   1.862   4.577   0.078  1.2357 -1.2203 -1.6642
 1352SOL     vw 5408   1.785   4.544   0.051 -0.2227  0.2747  0.3338
 1353SOL     ow 5409   1.632   0.369   4.353  0.3038  0.2068 -0.4238
 1353SOL     hw 5410   1.573   0.415   4.413  0.2113 -0.5899  0.1195
 1353SOL     hw 5411   1.574   0.319   4.296  0.4165 -1.2767  0.6745
 1353SOL     vw 5412   1.617   0.368   4.354  0.3064 -0.0940 -0.2074
 1354SOL     ow 5413   5.994   4.493   3.843  0.5042 -0.3781 -0.0747
 1354SOL     hw 5414   6.051   4.570   3.850  0.1232 -0.1702  0.8501
 1354SOL     hw 5415   6.016   4.440   3.919  1.4128 -1.6524 -1.1820
 1354SOL     vw 5416   6.004   4.496   3.854  0.5736 -0.5190 -0.0986
 1355SOL     ow 5417   2.566   2.305   1.378 -0.0063  0.0009 -0.1155
 1355SOL     hw 5418   2.473   2.294   1.357  0.0610  1.6079 -1.4321
 1355SOL     hw 5419   2.602   2.352   1.303  1.4526  1.1279  1.2337
 1355SOL     vw 5420   2.559   2.309   1.365  0.1951  0.3614 -0.1113
 1356SOL     ow 5421   1.055   3.655   2.692  0.0059 -0.4664  0.4163
 1356SOL     hw 5422   0.983   3.655   2.755  1.3800 -0.6495  2.0723
 1356SOL     hw 5423   1.104   3.575   2.712  3.4994  1.9897  2.8871
 1356SOL     vw 5424   1.052   3.644   2.703  0.6481 -0.1664  0.9609
 1357SOL     ow 5425   3.547   7.088   6.699  0.5729  0.1267 -0.0166
 1357SOL     hw 5426   3.491   7.121   6.628  1.5967  3.4361  0.5272
 1357SOL     hw 5427   3.636   7.094   6.664  1.0108  0.8342  1.1541
 1357SOL     vw 5428   3.552   7.094   6.685  0.7658  0.6568  0.2098
 1358SOL     ow 5429   6.315   1.414   4.235 -0.5068  0.4544 -0.2179
 1358SOL     hw 5430   6.360   1.335   4.263  1.0885  1.7040  0.9239
 1358SOL     hw 5431   6.233   1.414   4.285  0.7743  0.9252  2.0216
 1358SOL     vw 5432   6.310   1.404   4.245 -0.1273  0.6814  0.2279
 1359SOL     ow 5433   5.061   0.235   1.299  0.1017 -0.4819 -0.2444
 1359SOL     hw 5434   5.075   0.191   1.216  1.6033  1.6831 -1.2348
 1359SOL     hw 5435   5.117   0.188   1.361  3.1976  0.9771 -1.6901
 1359SOL     vw 5436   5.070   0.223   1.297  0.7083 -0.0038 -0.5657
 1360SOL     ow 5437   2.214   3.045   6.406 -0.1867 -0.0707 -0.0779
 1360SOL     hw 5438   2.220   3.138   6.428  0.4319 -0.0351 -0.3611
 1360SOL     hw 5439   2.227   2.999   6.489 -0.4737  0.0916  0.0583
 1360SOL     vw 5440   2.217   3.051   6.419 -0.1429 -0.0446 -0.0973
 1361SOL     ow 5441   1.114   3.455   7.334 -0.3407 -0.2042 -0.5789
 1361SOL     hw 5442   1.148   3.417   7.415  0.3542 -0.9007 -1.1832
 1361SOL     hw 5443   1.177   3.523   7.311 -1.3521  1.0824  0.2656
 1361SOL     vw 5444   1.127   3.459   7.342 -0.3825 -0.1264 -0.5472
 1362SOL     ow 5445   2.739   2.865   7.028  0.1253  0.3631  0.7355
 1362SOL     hw 5446   2.786   2.917   6.962 -0.4015 -1.4327 -1.1723
 1362SOL     hw 5447   2.666   2.920   7.055  0.1449  1.0138 -0.4750
 1362SOL     vw 5448   2.736   2.879   7.023  0.0585  0.2122  0.3242
 1363SOL     ow 5449   0.520   1.605   5.313 -0.3491  0.6643 -0.5527
 1363SOL     hw 5450   0.615   1.607   5.312 -0.3317  0.0259 -0.5857
 1363SOL     hw 5451   0.498   1.566   5.398 -0.5366 -0.6834 -1.1928
 1363SOL     vw 5452   0.530   1.600   5.324 -0.3715  0.4022 -0.6416
 1364SOL     ow 5453   1.057   2.612   3.779 -0.2820 -0.5884  0.6538
 1364SOL     hw 5454   1.009   2.584   3.701 -0.5697 -0.7547  0.8889
 1364SOL     hw 5455   1.068   2.706   3.767  1.9666 -0.9416 -0.8576
 1364SOL     vw 5456   1.052   2.620   3.767 -0.0233 -0.6568  0.4854
 1365SOL     ow 5457   5.895   2.057   4.403 -0.1120 -0.3750  0.2670
 1365SOL     hw 5458   5.852   2.068   4.488  1.9686  1.9485  1.1295
 1365SOL     hw 5459   5.823   2.047   4.341 -1.8529  1.3702  1.8714
 1365SOL     vw 5460   5.880   2.057   4.406 -0.0675  0.1619  0.5925
 1366SOL     ow 5461   5.660   2.477   2.563  0.1114  0.1141 -0.3676
 1366SOL     hw 5462   5.603   2.488   2.639  0.6157  1.7125 -0.1939
 1366SOL     hw 5463   5.736   2.428   2.596 -1.6040 -3.1566 -0.8705
 1366SOL     vw 5464   5.663   2.472   2.577 -0.0482 -0.1067 -0.4110
 1367SOL     ow 5465   2.626   1.425   1.779  0.5156  0.4540  0.2328
 1367SOL     hw 5466   2.689   1.391   1.715  0.2976 -1.7385  1.0832
 1367SOL     hw 5467   2.672   1.418   1.863 -0.7929 -1.2636  0.8823
 1367SOL     vw 5468   2.641   1.419   1.782  0.3142 -0.0619  0.4307
 1368SOL     ow 5469   7.437   3.711   2.744 -0.0987 -0.3465 -0.3979
 1368SOL     hw 5470   7.526   3.688   2.773 -0.9631 -2.3604  0.8372
 1368SOL     hw 5471   7.404   3.769   2.813 -0.5425 -1.5018  0.3943
 1368SOL     vw 5472   7.445   3.716   2.757 -0.2713 -0.7646 -0.1304
 1369SOL     ow 5473   4.946   5.825   4.573  0.3835  0.9163  0.0124
 1369SOL     hw 5474   5.009   5.811   4.643 -0.4651 -1.1980  0.4354
 1369SOL     hw 5475   4.995   5.805   4.493  0.7727  1.2444  0.1640
 1369SOL     vw 5476   4.961   5.820   4.571  0.3226  0.6807  0.0882
 1370SOL     ow 5477   5.606   6.197   6.372  0.1470  0.1614 -0.7754
 1370SOL     hw 5478   5.578   6.229   6.458  1.6787 -0.7532  0.1181
 1370SOL     hw 5479   5.699   6.220   6.367  0.1069  0.1188 -2.1690
 1370SOL     vw 5480   5.615   6.204   6.383  0.3436  0.0350 -0.8411
 1371SOL     ow 5481   1.159   5.553   0.230 -0.4406  0.4121 -0.2946
 1371SOL     hw 5482   1.109   5.476   0.258 -0.5632  1.0703  1.3992
 1371SOL     hw 5483   1.249   5.522   0.225 -0.4898  0.1484  0.3647
 1371SOL     vw 5484   1.164   5.539   0.233 -0.4632  0.4640  0.0158
 1372SOL     ow 5485   5.929   3.878   2.163 -0.3743  0.5172 -0.3996
 1372SOL     hw 5486   5.867   3.854   2.232 -0.6332  1.0093 -0.4612
 1372SOL     hw 5487   5.874   3.896   2.087 -0.1784  1.2540 -0.3707
 1372SOL     vw 5488   5.913   3.877   2.162 -0.3829  0.6794 -0.4039
 1373SOL     ow 5489   1.618   0.608   6.858 -0.5021  0.0550  0.0178
 1373SOL     hw 5490   1.578   0.522   6.840 -1.5820  0.7302 -0.9694
 1373SOL     hw 5491   1.557   0.650   6.920 -1.2940  1.0354 -1.3777
 1373SOL     vw 5492   1.604   0.602   6.864 -0.7491  0.2734 -0.2966
 1374SOL     ow 5493   1.280   6.836   5.243 -0.2199  0.8140 -0.3347
 1374SOL     hw 5494   1.283   6.881   5.328  0.1425 -0.2944  0.2483
 1374SOL     hw 5495   1.325   6.896   5.183 -3.3332  3.1857 -0.5401
 1374SOL     vw 5496   1.286   6.850   5.246 -0.5828  0.9809 -0.2847
 1375SOL     ow 5497   5.118   0.707   1.992 -0.3168  0.1626  0.5556
 1375SOL     hw 5498   5.161   0.781   1.949  0.3115 -1.1208 -1.1514
 1375SOL     hw 5499   5.025   0.725   1.983 -0.1750  0.6431 -0.0621
 1375SOL     vw 5500   5.111   0.719   1.985 -0.2155  0.0567  0.2488
 1376SOL     ow 5501   1.110   1.731   1.091  0.2104 -0.1690  0.1317
 1376SOL     hw 5502   1.182   1.675   1.120  0.1806 -1.3722 -1.8804
 1376SOL     hw 5503   1.152   1.799   1.039  0.4216  2.8285  3.7763
 1376SOL     vw 5504   1.125   1.732   1.088  0.2344  0.0678  0.3470
 1377SOL     ow 5505   2.074   1.096   1.988  0.7120  0.3611  0.3047
 1377SOL     hw 5506   1.985   1.073   2.015  0.0531  1.4622 -0.8244
 1377SOL     hw 5507   2.125   1.094   2.069 -0.9205  2.3622  1.4586
 1377SOL     vw 5508   2.069   1.092   2.002  0.4096  0.7704  0.3080
 1378SOL     ow 5509   2.370   4.223   7.386 -0.1598 -0.0865 -0.0201
 1378SOL     hw 5510   2.304   4.243   7.453  0.6096  0.7955  0.4998
 1378SOL     hw 5511   2.325   4.239   7.303 -1.1242 -1.1877  0.2634
 1378SOL     vw 5512   2.355   4.228   7.384 -0.1855 -0.1154  0.0858
 1379SOL     ow 5513   5.159   2.195   5.101  0.0423  0.2494  0.1546
 1379SOL     hw 5514   5.176   2.110   5.142  1.5445  0.5997  0.3338
 1379SOL     hw 5515   5.066   2.211   5.116 -0.7009 -2.1534 -1.4216
 1379SOL     vw 5516   5.149   2.186   5.108  0.1426 -0.0215 -0.0300
 1380SOL     ow 5517   5.597   1.872   1.947 -0.3896 -0.4788 -1.2488
 1380SOL     hw 5518   5.511   1.832   1.934 -0.2198 -1.3246  0.0500
 1380SOL     hw 5519   5.623   1.845   2.035  0.3151  1.4622 -0.8114
 1380SOL     vw 5520   5.589   1.863   1.957 -0.2742 -0.3343 -1.0197
 1381SOL     ow 5521   3.411   4.010   3.046 -0.8515  0.5344  0.1433
 1381SOL     hw 5522   3.413   3.917   3.065  0.3777  0.4553 -0.2733
 1381SOL     hw 5523   3.325   4.025   3.008 -0.6983 -0.6426 -0.7348
 1381SOL     vw 5524   3.400   4.000   3.043 -0.6690  0.3686 -0.0277
 1382SOL     ow 5525   2.510   6.500   6.742  0.1616 -0.3567 -0.1671
 1382SOL     hw 5526   2.601   6.504   6.771 -0.2037  2.4423  0.9180
 1382SOL     hw 5527   2.508   6.556   6.664  0.0272 -3.4121 -2.5238
 1382SOL     vw 5528   2.522   6.508   6.735  0.0957 -0.3905 -0.3347
 1383SOL     ow 5529   6.592   3.659   1.310  0.2111  0.1868  0.2305
 1383SOL     hw 5530   6.637   3.726   1.259 -1.5820  0.1868 -1.4653
 1383SOL     hw 5531   6.567   3.703   1.391 -0.2912  1.3560 -0.5450
 1383SOL     vw 5532   6.595   3.674   1.314 -0.0916  0.3412 -0.0956
 1384SOL     ow 5533   1.182   4.563   0.131 -0.2442 -0.1511 -0.0677
 1384SOL     hw 5534   1.113   4.510   0.172 -0.4063 -0.1984 -0.3948
 1384SOL     hw 5535   1.164   4.556   0.037 -1.7617  2.4436 -0.0875
 1384SOL     vw 5536   1.170   4.555   0.124 -0.4658  0.1853 -0.1135
 1385SOL     ow 5537   0.981   1.441   1.122  0.4105  0.2122 -0.4043
 1385SOL     hw 5538   0.988   1.506   1.052  1.6870  3.1771  2.2615
 1385SOL     hw 5539   0.955   1.491   1.199 -1.3747 -2.9734  1.2640
 1385SOL     vw 5540   0.978   1.456   1.123  0.3434  0.1830  0.1676
 1386SOL     ow 5541   4.852   0.749   2.009 -0.0489 -0.0357  0.2105
 1386SOL     hw 5542   4.771   0.800   2.001 -0.5222 -1.0127 -2.1285
 1386SOL     hw 5543   4.826   0.671   2.058 -0.3691 -0.0335  0.0481
 1386SOL     vw 5544   4.838   0.746   2.014 -0.1538 -0.1643 -0.1196
 1387SOL     ow 5545   1.811   0.727   4.338 -0.3612  0.0108  0.5304
 1387SOL     hw 5546   1.836   0.734   4.245 -1.6610  0.3581  0.1944
 1387SOL     hw 5547   1.717   0.711   4.337  0.2273 -4.9999  1.6516
 1387SOL     vw 5548   1.802   0.726   4.326 -0.4550 -0.6045  0.6340
 1388SOL     ow 5549   6.464   7.498   1.749  0.0389 -0.1850  0.9513
 1388SOL     hw 5550   6.503   7.511   1.662 -0.7881 -0.7892  0.4836
 1388SOL     hw 5551   6.483   7.580   1.796 -1.3944  1.0628 -0.5307
 1388SOL     vw 5552   6.472   7.511   1.744 -0.2592 -0.0999  0.6940
 1389SOL     ow 5553   0.788   5.169   4.249  0.2031  0.1138  0.0205
 1389SOL     hw 5554   0.732   5.193   4.322  0.3326  0.9281 -0.1427
 1389SOL     hw 5555   0.746   5.092   4.210  0.0173 -0.1850  0.8052
 1389SOL     vw 5556   0.775   5.162   4.253  0.1957  0.1817  0.1025
 1390SOL     ow 5557   5.568   6.989   1.663 -0.2973 -0.8222  0.3442
 1390SOL     hw 5558   5.588   6.909   1.614  1.0698 -0.0089 -0.4928
 1390SOL     hw 5559   5.558   7.056   1.596  0.4363  0.0790  1.1061
 1390SOL     vw 5560   5.570   6.987   1.648 -0.0203 -0.5960  0.3343
 1391SOL     ow 5561   6.493   0.086   1.979  0.1279  0.0954 -0.2716
 1391SOL     hw 5562   6.499   0.142   2.057  2.2302 -0.2490 -0.1022
 1391SOL     hw 5563   6.515   0.144   1.906 -0.0274  0.0090 -0.3870
 1391SOL     vw 5564   6.497   0.101   1.980  0.3850  0.0385 -0.2645
 1392SOL     ow 5565   6.554   5.195   2.248  0.9655  0.1400 -0.0871
 1392SOL     hw 5566   6.591   5.107   2.253  1.0776  0.2407  2.3272
 1392SOL     hw 5567   6.523   5.213   2.337  0.6110  2.3999 -0.5975
 1392SOL     vw 5568   6.555   5.186   2.261  0.9334  0.4518  0.1642
 1393SOL     ow 5569   1.455   7.441   4.476 -0.3413  0.1135 -0.5002
 1393SOL     hw 5570   1.480   7.483   4.394  0.6460 -0.3398 -0.4474
 1393SOL     hw 5571   1.466   7.348   4.459 -1.3680 -0.0712 -0.2404
 1393SOL     vw 5572   1.459   7.434   4.463 -0.3464  0.0293 -0.4590
 1394SOL     ow 5573   0.213   1.807   6.500 -0.4731  0.6091 -0.2734
 1394SOL     hw 5574   0.235   1.804   6.407 -2.3077 -1.4039 -0.7172
 1394SOL     hw 5575   0.119   1.828   6.502 -0.6861 -0.3186  1.0564
 1394SOL     vw 5576   0.203   1.810   6.488 -0.7432  0.2211 -0.1566
 1395SOL     ow 5577   2.437   5.139   3.787 -0.1938  0.0936 -0.1152
 1395SOL     hw 5578   2.467   5.055   3.821  0.5168 -0.4272 -1.9199
 1395SOL     hw 5579   2.341   5.132   3.787 -0.2061  0.0311  1.4883
 1395SOL     vw 5580   2.428   5.127   3.791 -0.1018  0.0167 -0.1417
 1396SOL     ow 5581   3.636   4.606   1.794  0.4292 -0.4235  0.0478
 1396SOL     hw 5582   3.689   4.666   1.847  0.2337  1.2120 -1.5147
 1396SOL     hw 5583   3.699   4.556   1.744  0.5884  1.1650 -1.4290
 1396SOL     vw 5584   3.651   4.608   1.794  0.4244  0.0019 -0.3532
 1397SOL     ow 5585   6.982   1.764   7.167 -0.0890  0.6326 -0.8734
 1397SOL     hw 5586   7.045   1.782   7.097  2.5886  3.1003  1.8559
 1397SOL     hw 5587   6.898   1.790   7.130  1.4028  3.2718 -2.7774
 1397SOL     vw 5588   6.980   1.770   7.153  0.4609  1.3064 -0.7648
 1398SOL     ow 5589   5.466   1.373   6.122 -0.2525 -0.0785 -0.5064
 1398SOL     hw 5590   5.534   1.411   6.177  0.3315  0.2016 -1.3856
 1398SOL     hw 5591   5.400   1.442   6.113  1.1104  1.0642 -2.6283
 1398SOL     vw 5592   5.466   1.387   6.128  0.0043  0.1093 -0.9024
 1399SOL     ow 5593   5.768   2.495   5.406 -0.3548 -0.8010 -0.7568
 1399SOL     hw 5594   5.857   2.470   5.381 -0.7614 -3.0584 -0.1865
 1399SOL     hw 5595   5.755   2.454   5.492 -1.0193  1.8535  0.5230
 1399SOL     vw 5596   5.778   2.486   5.414 -0.4961 -0.7485 -0.5126
 1400SOL     ow 5597   4.776   6.249   0.135  0.4430 -0.1216  0.5442
 1400SOL     hw 5598   4.813   6.202   0.059  0.7254 -1.6309  1.5553
 1400SOL     hw 5599   4.717   6.314   0.097  1.7267  0.1977 -1.0185
 1400SOL     vw 5600   4.773   6.251   0.120  0.6497 -0.2785  0.4714
 1401SOL     ow 5601   6.818   6.525   6.333  0.2659  0.5951  0.1263
 1401SOL     hw 5602   6.836   6.611   6.369  0.0274  1.2637 -1.2622
 1401SOL     hw 5603   6.735   6.499   6.373  0.6318  0.7513  0.9910
 1401SOL     vw 5604   6.809   6.533   6.343  0.2825  0.7036  0.0572
 1402SOL     ow 5605   6.879   0.869   5.686 -0.2328  0.0716 -0.0878
 1402SOL     hw 5606   6.950   0.871   5.622  0.6674  0.9263  0.8898
 1402SOL     hw 5607   6.806   0.913   5.642  0.2829  0.4193 -0.6209
 1402SOL     vw 5608   6.879   0.875   5.672 -0.0460  0.2302 -0.0291
 1403SOL     ow 5609   2.875   2.358   5.761 -0.5148 -0.6721 -0.0502
 1403SOL     hw 5610   2.935   2.287   5.781  1.6959  1.6626  2.5845
 1403SOL     hw 5611   2.789   2.326   5.789  0.5258 -2.0800  1.7514
 1403SOL     vw 5612   2.872   2.345   5.767 -0.0858 -0.5498  0.5352
 1404SOL     ow 5613   6.213   1.495   2.540  0.0284 -0.6996 -0.2543
 1404SOL     hw 5614   6.178   1.547   2.467 -0.0861  0.0679  0.3336
 1404SOL     hw 5615   6.274   1.434   2.499  0.5976  0.2845 -0.9135
 1404SOL     vw 5616   6.216   1.494   2.525  0.0885 -0.4686 -0.2637
 1405SOL     ow 5617   2.915   6.558   6.357 -0.0646  0.1459  0.4760
 1405SOL     hw 5618   2.961   6.611   6.293  0.3751 -0.9452 -0.1385
 1405SOL     hw 5619   2.825   6.552   6.325 -0.0051  0.1478  0.3118
 1405SOL     vw 5620   2.909   6.564   6.345  0.0013  0.0021  0.3731
 1406SOL     ow 5621   1.326   4.117   3.835 -0.4071  0.3344  0.7109
 1406SOL     hw 5622   1.308   4.162   3.753 -2.4719  0.3695  1.1083
 1406SOL     hw 5623   1.348   4.187   3.897  0.9457  0.3258  0.2631
 1406SOL     vw 5624   1.326   4.132   3.833 -0.5011  0.3378  0.7042
 1407SOL     ow 5625   0.740   4.822   1.529  0.0487  0.0651  0.0082
 1407SOL     hw 5626   0.735   4.747   1.588 -1.9508  1.0905  1.2108
 1407SOL     hw 5627   0.681   4.800   1.457 -2.6253  1.4804  1.6393
 1407SOL     vw 5628   0.732   4.809   1.527 -0.5679  0.3870  0.3821
 1408SOL     ow 5629   6.823   5.202   4.812  0.1434  0.1527 -0.0030
 1408SOL     hw 5630   6.827   5.190   4.717 -0.1596 -0.3114  0.0389
 1408SOL     hw 5631   6.743   5.252   4.827 -0.0659 -0.1970  0.0470
 1408SOL     vw 5632   6.813   5.207   4.801  0.0758  0.0451  0.0093
 1409SOL     ow 5633   0.010   0.256   2.769 -0.5274 -0.6358  0.8850
 1409SOL     hw 5634   0.029   0.326   2.832 -1.3413 -1.4883  2.1197
 1409SOL     hw 5635  -0.048   0.298   2.705 -0.8878 -0.1235  1.5219
 1409SOL     vw 5636   0.005   0.271   2.769 -0.6823 -0.6807  1.1321
 1410SOL     ow 5637   7.334   6.929   3.483 -0.4531  0.4550 -0.2477
 1410SOL     hw 5638   7.302   6.852   3.437  0.0200  0.8215 -1.2447
 1410SOL     hw 5639   7.391   6.895   3.551 -0.5651 -0.0901 -0.4240
 1410SOL     vw 5640   7.337   6.914   3.486 -0.4053  0.4315 -0.4025
 1411SOL     ow 5641   0.820   7.068   5.289 -0.1162  0.1713  0.1503
 1411SOL     hw 5642   0.789   7.103   5.205 -2.0250  4.2166  2.2100
 1411SOL     hw 5643   0.880   7.136   5.322  0.8398 -1.4512  1.9603
 1411SOL     vw 5644   0.824   7.082   5.283 -0.2419  0.4909  0.6609
 1412SOL     ow 5645   6.586   2.436   6.791  0.7428 -0.6029 -0.0752
 1412SOL     hw 5646   6.641   2.377   6.843  1.0876  0.5611  0.9132
 1412SOL     hw 5647   6.579   2.515   6.844  0.1006  0.1724 -1.2850
 1412SOL     vw 5648   6.592   2.438   6.805  0.7036 -0.3470 -0.1044
 1413SOL     ow 5649   3.709   7.028   3.446  0.4599  0.1258 -0.9975
 1413SOL     hw 5650   3.684   7.054   3.535  0.3089  0.4295 -1.1285
 1413SOL     hw 5651   3.802   7.051   3.440  0.3327  0.6267 -1.1063
 1413SOL     vw 5652   3.718   7.035   3.457  0.4232  0.2322 -1.0291
 1414SOL     ow 5653   1.801   2.044   2.964  0.3516  0.3072  0.4671
 1414SOL     hw 5654   1.777   1.986   3.037 -0.2330 -0.2176 -0.1315
 1414SOL     hw 5655   1.724   2.045   2.907  1.3462 -0.5808 -0.9686
 1414SOL     vw 5656   1.788   2.036   2.966  0.4057  0.1208  0.1986
 1415SOL     ow 5657   7.411   5.680   4.952 -0.0191 -0.0783 -0.5351
 1415SOL     hw 5658   7.346   5.616   4.980  1.3595 -1.3023  0.0333
 1415SOL     hw 5659   7.432   5.654   4.862  1.4255 -1.2742  0.0896
 1415SOL     vw 5660   7.405   5.668   4.943  0.3533 -0.3977 -0.3779
 1416SOL     ow 5661   3.625   2.391   1.121  0.2916 -0.0777  0.4939
 1416SOL     hw 5662   3.599   2.306   1.157 -2.0244  1.2318  2.1552
 1416SOL     hw 5663   3.720   2.385   1.115  0.1424 -3.2877 -0.8599
 1416SOL     vw 5664   3.634   2.379   1.125 -0.0336 -0.3283  0.5345
 1417SOL     ow 5665   5.992   0.870   6.326  0.1308 -0.3418 -0.2828
 1417SOL     hw 5666   6.021   0.827   6.406 -0.4960  1.0323  0.7244
 1417SOL     hw 5667   5.986   0.800   6.261  2.3902 -1.1990  0.3650
 1417SOL     vw 5668   5.995   0.855   6.328  0.3462 -0.2736 -0.0644
 1418SOL     ow 5669   4.874   1.058   2.092 -0.0353 -0.0103  0.1403
 1418SOL     hw 5670   4.954   1.107   2.073  0.4058 -1.0682 -0.8338
 1418SOL     hw 5671   4.901   0.967   2.092 -1.5107 -0.5049 -1.7607
 1418SOL     vw 5672   4.888   1.053   2.089 -0.1719 -0.2152 -0.2389
 1419SOL     ow 5673   2.471   5.937   2.693 -0.3025 -0.5539 -0.6439
 1419SOL     hw 5674   2.493   5.844   2.684 -1.4918 -0.8346 -0.8232
 1419SOL     hw 5675   2.380   5.937   2.724 -0.0801  0.5441  0.0516
 1419SOL     vw 5676   2.462   5.924   2.696 -0.4300 -0.4458 -0.5758
 1420SOL     ow 5677   3.989   5.601   0.677  0.2362  0.4958  0.8588
 1420SOL     hw 5678   4.060   5.660   0.654  0.6787 -0.6035 -0.7568
 1420SOL     hw 5679   4.023   5.552   0.752  0.5155  1.1262  1.1515
 1420SOL     vw 5680   4.003   5.602   0.684  0.3314  0.4339  0.6843
 1421SOL     ow 5681   0.853   4.386   2.187 -0.6448 -1.0210  0.1112
 1421SOL     hw 5682   0.856   4.433   2.271 -2.0155 -0.9671  0.1539
 1421SOL     hw 5683   0.814   4.301   2.209  1.9854 -2.3374  0.0707
 1421SOL     vw 5684   0.848   4.381   2.201 -0.4786 -1.1876  0.1116
 1422SOL     ow 5685   2.699   3.899   5.312  0.2917  0.2041 -0.1463
 1422SOL     hw 5686   2.648   3.824   5.282  2.7184 -1.8229  0.4208
 1422SOL     hw 5687   2.680   3.969   5.249  0.2030 -1.8303 -2.5296
 1422SOL     vw 5688   2.690   3.898   5.300  0.6002 -0.3318 -0.3860
 1423SOL     ow 5689   0.733   0.232   6.981  0.3988 -0.1427  0.1558
 1423SOL     hw 5690   0.786   0.179   6.921  0.1768  1.0037 -1.1196
 1423SOL     hw 5691   0.704   0.306   6.928 -0.6703  0.3992  1.4254
 1423SOL     vw 5692   0.736   0.234   6.966  0.2284  0.0800  0.1552
 1424SOL     ow 5693   0.342   2.954   4.264  0.0733  0.0068 -0.7107
 1424SOL     hw 5694   0.346   2.920   4.175  2.5350  1.9647 -1.4695
 1424SOL     hw 5695   0.278   3.025   4.259  1.2704  1.0781 -1.3480
 1424SOL     vw 5696   0.334   2.959   4.252  0.5560  0.4064 -0.8945
 1425SOL     ow 5697   7.511   1.959   5.458 -0.0912 -0.2869 -0.2861
 1425SOL     hw 5698   7.539   1.940   5.368 -2.7169 -1.8515 -0.8833
 1425SOL     hw 5699   7.416   1.947   5.456 -0.5360  1.9801  2.1820
 1425SOL     vw 5700   7.502   1.955   5.446 -0.4964 -0.1942 -0.0396
 1426SOL     ow 5701   1.754   5.345   4.567 -1.1001 -0.2891 -0.2152
 1426SOL     hw 5702   1.682   5.319   4.509 -2.6677 -0.3833  1.6543
 1426SOL     hw 5703   1.781   5.263   4.609 -1.2477  0.0288  0.5135
 1426SOL     vw 5704   1.748   5.330   4.565 -1.3265 -0.2594  0.1278
 1427SOL     ow 5705   3.827   5.588   3.117 -0.1006 -0.2869  1.3309
 1427SOL     hw 5706   3.916   5.610   3.144  0.0449  1.0019 -0.0633
 1427SOL     hw 5707   3.793   5.668   3.076 -0.4292 -1.8294 -1.7642
 1427SOL     vw 5708   3.834   5.601   3.115 -0.1248 -0.3202  0.7387
 1428SOL     ow 5709   1.470   0.172   6.619  0.5747  0.2597  0.0519
 1428SOL     hw 5710   1.534   0.204   6.555 -0.2620  0.9900 -0.4451
 1428SOL     hw 5711   1.520   0.113   6.675  1.5316  0.2947 -0.7303
 1428SOL     vw 5712   1.485   0.168   6.618  0.5906  0.3607 -0.1166
 1429SOL     ow 5713   4.221   5.068   0.725  0.1481 -0.0553  0.4734
 1429SOL     hw 5714   4.209   5.038   0.815  1.2963 -1.0221  0.3235
 1429SOL     hw 5715   4.154   5.022   0.676  1.1896 -1.5993  0.4316
 1429SOL     vw 5716   4.211   5.058   0.731  0.4368 -0.3865  0.4481
 1430SOL     ow 5717   0.563   6.641   2.727 -0.0895 -0.2576  0.1541
 1430SOL     hw 5718   0.612   6.637   2.644 -1.0816 -0.0475 -0.4511
 1430SOL     hw 5719   0.627   6.675   2.790  0.9077 -1.1535 -0.3430
 1430SOL     vw 5720   0.578   6.645   2.724 -0.0888 -0.3481  0.0087
 1431SOL     ow 5721   7.149   0.690   4.981  0.6356 -0.1561 -0.1839
 1431SOL     hw 5722   7.102   0.722   4.904  0.2846  1.5349  0.6836
 1431SOL     hw 5723   7.225   0.644   4.946 -0.1927 -0.5281 -1.5514
 1431SOL     vw 5724   7.153   0.688   4.967  0.4799  0.0179 -0.2499
 1432SOL     ow 5725   1.295   4.562   0.783 -0.6743  0.2235 -0.0959
 1432SOL     hw 5726   1.228   4.499   0.756 -0.4452  0.0177 -0.1928
 1432SOL     hw 5727   1.251   4.619   0.846 -1.5454  1.4087 -1.6896
 1432SOL     vw 5728   1.281   4.561   0.788 -0.7589  0.3524 -0.3189
 1433SOL     ow 5729   5.694   1.356   2.659  0.1153  0.0216 -0.2267
 1433SOL     hw 5730   5.651   1.379   2.577  2.5535 -2.2877 -2.3229
 1433SOL     hw 5731   5.632   1.297   2.703 -1.4135  1.6516 -0.0600
 1433SOL     vw 5732   5.680   1.351   2.654  0.2353 -0.0680 -0.4812
 1434SOL     ow 5733   0.587   4.195   7.020 -0.2012  0.0601 -0.5704
 1434SOL     hw 5734   0.516   4.135   6.997 -0.5125  0.1448  0.1779
 1434SOL     hw 5735   0.571   4.273   6.968 -0.9615  0.2873 -0.0019
 1434SOL     vw 5736   0.576   4.197   7.010 -0.3426  0.1016 -0.3965
 1435SOL     ow 5737   0.033   5.934   5.217 -0.0347 -0.1062  0.8422
 1435SOL     hw 5738   0.123   5.903   5.209 -0.4342 -1.0585 -0.2425
 1435SOL     hw 5739  -0.012   5.864   5.264 -0.7534 -0.8407 -0.8635
 1435SOL     vw 5740   0.039   5.921   5.222 -0.1822 -0.3285  0.4740
 1436SOL     ow 5741   0.382   5.234   5.319  0.1237 -0.3830 -0.1792
 1436SOL     hw 5742   0.476   5.227   5.336 -0.0672 -2.5357  0.2436
 1436SOL     hw 5743   0.374   5.312   5.264  2.2668 -0.6696 -1.0092
 1436SOL     vw 5744   0.393   5.243   5.314  0.3812 -0.7048 -0.2329
 1437SOL     ow 5745   0.140   2.918   3.847 -0.0380  0.1337 -0.3310
 1437SOL     hw 5746   0.161   2.988   3.786 -0.1754  1.0638  0.6650
 1437SOL     hw 5747   0.117   2.844   3.791  2.3180  0.1444 -1.4648
 1437SOL     vw 5748   0.140   2.917   3.832  0.2547  0.2577 -0.3492
 1438SOL     ow 5749   6.264   4.345   1.062 -0.3304 -0.1791  0.0189
 1438SOL     hw 5750   6.257   4.404   1.137 -1.3189  1.7870 -1.5280
 1438SOL     hw 5751   6.291   4.261   1.100  0.3172  1.0192  2.4149
 1438SOL     vw 5752   6.267   4.342   1.077 -0.3753  0.2384  0.1309
 1439SOL     ow 5753   3.108   7.251   4.992  0.0831  0.0493 -0.0759
 1439SOL     hw 5754   3.079   7.294   5.073  0.2830 -0.4911  0.2871
 1439SOL     hw 5755   3.195   7.287   4.975 -0.3408  0.8683 -0.5750
 1439SOL     vw 5756   3.115   7.261   5.000  0.0536  0.0858 -0.0937
 1440SOL     ow 5757   1.221   1.299   3.171 -0.0546 -0.6147 -0.0219
 1440SOL     hw 5758   1.248   1.328   3.084  0.2321 -1.0143 -0.0745
 1440SOL     hw 5759   1.285   1.339   3.230  0.3916 -1.1856 -0.1019
 1440SOL     vw 5760   1.233   1.308   3.167  0.0421 -0.7427 -0.0392
 1441SOL     ow 5761   7.221   3.377   6.128  1.0704  0.4324 -0.2475
 1441SOL     hw 5762   7.180   3.462   6.109  1.0735  0.1076 -1.8818
 1441SOL     hw 5763   7.308   3.383   6.088  1.8031  0.3088  1.2578
 1441SOL     vw 5764   7.227   3.389   6.120  1.1675  0.3734 -0.2646
 1442SOL     ow 5765   5.600   4.949   4.385 -0.2692  0.1091 -0.1262
 1442SOL     hw 5766   5.603   5.012   4.457 -1.1694  0.4454 -0.3680
 1442SOL     hw 5767   5.660   4.880   4.411  0.7120  1.0367  0.1773
 1442SOL     vw 5768   5.608   4.948   4.398 -0.2584  0.2759 -0.1180
 1443SOL     ow 5769   6.916   4.589   5.351 -0.2363  0.0109 -0.6040
 1443SOL     hw 5770   6.862   4.576   5.428  0.4651  0.7245  0.0233
 1443SOL     hw 5771   6.908   4.507   5.302 -2.4327  0.3477 -0.9120
 1443SOL     vw 5772   6.908   4.576   5.354 -0.4339  0.1495 -0.5620
 1444SOL     ow 5773   0.439   0.333   3.331 -0.2588  0.0317  0.4183
 1444SOL     hw 5774   0.409   0.258   3.279 -1.6100  0.6314  0.2848
 1444SOL     hw 5775   0.359   0.382   3.350 -0.2227 -1.1394  4.7210
 1444SOL     vw 5776   0.424   0.330   3.326 -0.4323 -0.0437  0.9683
 1445SOL     ow 5777   3.247   2.075   1.381 -0.5572  0.4695 -0.6919
 1445SOL     hw 5778   3.315   2.058   1.447 -0.9614 -0.1466 -0.4326
 1445SOL     hw 5779   3.296   2.110   1.306 -0.0173  0.5641 -0.3063
 1445SOL     vw 5780   3.263   2.077   1.380 -0.5394  0.4008 -0.6068
 1446SOL     ow 5781   7.090   4.405   1.938 -0.9150 -0.0551 -0.1484
 1446SOL     hw 5782   7.060   4.398   2.028 -0.5780 -0.8192 -0.0846
 1446SOL     hw 5783   7.026   4.461   1.895 -0.9524  0.5010  0.6158
 1446SOL     vw 5784   7.078   4.411   1.944 -0.8752 -0.0825 -0.0392
 1447SOL     ow 5785   5.602   2.997   6.877 -0.2028  0.1836  0.7180
 1447SOL     hw 5786   5.653   3.022   6.800  0.8098 -0.9094  0.9939
 1447SOL     hw 5787   5.664   3.004   6.950 -1.4031  2.1901  1.6435
 1447SOL     vw 5788   5.617   3.001   6.876 -0.2275  0.3042  0.8767
 1448SOL     ow 5789   0.995   1.872   1.380 -0.3954  0.4213  0.3449
 1448SOL     hw 5790   0.963   1.845   1.294  1.9195 -1.8425  0.0461
 1448SOL     hw 5791   1.015   1.789   1.424 -2.2508  1.4758  3.4314
 1448SOL     vw 5792   0.994   1.857   1.374 -0.3348  0.2618  0.7127
 1449SOL     ow 5793   7.190   5.639   3.942 -0.2434  0.0417 -0.2318
 1449SOL     hw 5794   7.211   5.593   4.023  1.2824  2.7712  1.0422
 1449SOL     hw 5795   7.103   5.675   3.957 -0.7668 -1.0169 -0.6096
 1449SOL     vw 5796   7.181   5.638   3.955 -0.1111  0.2620 -0.1135
 1450SOL     ow 5797   7.118   0.002   2.555  0.1443 -0.6548  0.2075
 1450SOL     hw 5798   7.184  -0.026   2.618 -0.5996  1.5231  2.0930
 1450SOL     hw 5799   7.035  -0.025   2.594 -0.2721 -0.4474 -0.5130
 1450SOL     vw 5800   7.116  -0.006   2.568 -0.0088 -0.3400  0.3613
 1451SOL     ow 5801   0.617   1.810   4.008  0.1636  0.3436 -0.4174
 1451SOL     hw 5802   0.549   1.875   3.990  1.2704  1.5681 -0.3412
 1451SOL     hw 5803   0.576   1.750   4.071 -0.3210  2.0441  0.9932
 1451SOL     vw 5804   0.602   1.811   4.014  0.2457  0.7295 -0.2213
 1452SOL     ow 5805   2.984   1.645   5.894  0.3485  1.0750 -0.0951
 1452SOL     hw 5806   2.966   1.563   5.941 -3.0933  0.7173 -1.7041
 1452SOL     hw 5807   3.078   1.643   5.877  0.5994 -1.9471  1.0313
 1452SOL     vw 5808   2.994   1.634   5.898 -0.0725  0.6291 -0.1588
 1453SOL     ow 5809   3.124   0.466   1.070  0.4280  0.3028  0.1577
 1453SOL     hw 5810   3.078   0.464   1.153 -1.5564  1.8214 -0.8056
 1453SOL     hw 5811   3.163   0.554   1.067  0.7153  0.1596 -0.3856
 1453SOL     vw 5812   3.123   0.478   1.080  0.2041  0.4843 -0.0411
 1454SOL     ow 5813   6.123   1.956   4.692  0.4769 -0.2768  0.1693
 1454SOL     hw 5814   6.094   1.914   4.773  1.7215 -2.2410 -0.3243
 1454SOL     hw 5815   6.172   2.033   4.721  1.8969 -1.5574  1.4255
 1454SOL     vw 5816   6.126   1.960   4.706  0.8287 -0.7049  0.2699
 1455SOL     ow 5817   1.765   7.420   2.795 -0.5489  0.0450  0.4694
 1455SOL     hw 5818   1.690   7.362   2.807 -0.7108 -0.6663 -2.9571
 1455SOL     hw 5819   1.732   7.491   2.740  1.1771 -0.1159 -0.8526
 1455SOL     vw 5820   1.750   7.422   2.790 -0.3426 -0.0701 -0.1571
 1456SOL     ow 5821   0.759   7.466   2.422  0.3712  0.5334 -0.3134
 1456SOL     hw 5822   0.823   7.408   2.463 -0.3763 -1.7977 -2.2342
 1456SOL     hw 5823   0.780   7.463   2.328 -0.6871  2.1517 -0.6462
 1456SOL     vw 5824   0.770   7.458   2.415  0.1329  0.4396 -0.6107
 1457SOL     ow 5825   7.122   5.593   1.511  0.1514  0.3339  0.6674
 1457SOL     hw 5826   7.100   5.514   1.562  1.3810 -0.2082  0.3874
 1457SOL     hw 5827   7.053   5.656   1.534 -0.5574 -0.6386  1.3026
 1457SOL     vw 5828   7.110   5.591   1.521  0.2203  0.1340  0.7143
 1458SOL     ow 5829   2.810   0.842   6.348 -0.1908  0.7413 -0.2182
 1458SOL     hw 5830   2.723   0.821   6.315  1.0622 -1.5943 -2.3625
 1458SOL     hw 5831   2.811   0.805   6.437 -1.8133  2.1266  0.4212
 1458SOL     vw 5832   2.799   0.834   6.355 -0.2395  0.6159 -0.4168
 1459SOL     ow 5833   4.859   5.224   1.110 -0.6381  0.2602 -0.1834
 1459SOL     hw 5834   4.898   5.154   1.058 -0.0751 -0.1875  0.8283
 1459SOL     hw 5835   4.788   5.181   1.159  0.2239  0.1953  1.0552
 1459SOL     vw 5836   4.854   5.209   1.110 -0.4501  0.1926  0.1135
 1460SOL     ow 5837   3.625   2.046   6.435 -0.0158 -0.4931 -0.2737
 1460SOL     hw 5838   3.533   2.021   6.432 -0.5977  1.2647  1.0803
 1460SOL     hw 5839   3.624   2.139   6.456  2.0769 -0.2948 -0.7986
 1460SOL     vw 5840   3.613   2.055   6.438  0.1835 -0.2348 -0.1643
 1461SOL     ow 5841   1.827   1.679   7.186  0.1366  0.1734 -0.6249
 1461SOL     hw 5842   1.843   1.766   7.222  0.2658 -0.6417  1.4211
 1461SOL     hw 5843   1.912   1.650   7.154  0.7473 -0.2421  1.2235
 1461SOL     vw 5844   1.840   1.686   7.187  0.2342  0.0110 -0.1111
 1462SOL     ow 5845   3.851   3.870   0.687 -0.7182  0.6249  0.3187
 1462SOL     hw 5846   3.899   3.864   0.604 -0.8933  2.3434  0.0547
 1462SOL     hw 5847   3.866   3.785   0.729  0.8500  0.3548 -0.6748
 1462SOL     vw 5848   3.859   3.858   0.682 -0.5343  0.8160  0.1528
 1463SOL     ow 5849   0.575   1.986   3.250  0.9649  0.2197  0.1232
 1463SOL     hw 5850   0.557   2.040   3.173  0.7539 -1.7749 -1.3004
 1463SOL     hw 5851   0.600   2.049   3.318 -0.4299  2.1809 -1.0751
 1463SOL     vw 5852   0.576   2.002   3.249  0.7530  0.2153 -0.2227
 1464SOL     ow 5853   6.669   4.769   2.054  0.1374 -0.0701 -0.3421
 1464SOL     hw 5854   6.700   4.678   2.058  1.3544  0.3467  0.4054
 1464SOL     hw 5855   6.585   4.764   2.010  0.2428 -1.5515 -0.4258
 1464SOL     vw 5856   6.662   4.756   2.049  0.3121 -0.2103 -0.2546
 1465SOL     ow 5857   1.282   2.506   3.022 -0.7064  0.6176  0.0736
 1465SOL     hw 5858   1.317   2.420   3.046 -1.0900 -0.2168 -2.1203
 1465SOL     hw 5859   1.263   2.548   3.106  2.2113 -0.2402  1.3269
 1465SOL     vw 5860   1.284   2.501   3.036 -0.3719  0.3945 -0.0504
 1466SOL     ow 5861   2.395   1.439   6.060  0.6799 -0.1879 -0.4191
 1466SOL     hw 5862   2.341   1.413   5.985  1.1508 -1.6549 -0.2933
 1466SOL     hw 5863   2.368   1.528   6.080 -2.7286 -1.2588  0.4665
 1466SOL     vw 5864   2.384   1.447   6.053  0.2923 -0.5229 -0.2856
 1467SOL     ow 5865   5.820   1.477   1.745 -0.2866 -0.2705 -0.1591
 1467SOL     hw 5866   5.854   1.521   1.668 -1.4020 -1.6554 -1.4968
 1467SOL     hw 5867   5.747   1.423   1.713 -0.4845 -1.2669  1.7709
 1467SOL     vw 5868   5.815   1.476   1.731 -0.4599 -0.5846 -0.0809
 1468SOL     ow 5869   2.698   1.469   6.401 -0.2010  0.1150  0.2089
 1468SOL     hw 5870   2.750   1.523   6.342 -0.4886  1.8028  1.4291
 1468SOL     hw 5871   2.762   1.427   6.459 -0.0685  0.4510  0.3063
 1468SOL     vw 5872   2.713   1.471   6.401 -0.2216  0.3821  0.3827
 1469SOL     ow 5873   5.507   5.347   5.337 -0.2113 -0.2079  0.2718
 1469SOL     hw 5874   5.487   5.393   5.256 -1.8519 -0.7470  0.3355
 1469SOL     hw 5875   5.452   5.269   5.335 -0.0329 -0.4050  1.7390
 1469SOL     vw 5876   5.497   5.343   5.326 -0.4041 -0.3052  0.4737
 1470SOL     ow 5877   2.854   0.272   6.546 -0.0493  0.0222  0.1750
 1470SOL     hw 5878   2.850   0.182   6.578  1.3481 -0.4662 -0.8845
 1470SOL     hw 5879   2.866   0.325   6.624  4.7452 -1.2430  0.6064
 1470SOL     vw 5880   2.855   0.267   6.560  0.7678 -0.2092  0.0923
 1471SOL     ow 5881   2.697   2.550   1.197  0.0530  0.3335  0.8649
 1471SOL     hw 5882   2.762   2.600   1.147 -3.2636  4.9103  0.5077
 1471SOL     hw 5883   2.686   2.600   1.277 -1.7777 -1.3303  1.7209
 1471SOL     vw 5884   2.704   2.563   1.201 -0.6261  0.7180  0.9308
 1472SOL     ow 5885   2.765   0.530   3.049  0.1284 -0.4081 -0.4788
 1472SOL     hw 5886   2.763   0.626   3.038 -0.7045 -0.3462  0.1170
 1472SOL     hw 5887   2.759   0.517   3.144 -2.9896 -1.0907 -0.6663
 1472SOL     vw 5888   2.764   0.541   3.060 -0.3930 -0.4900 -0.4250
 1473SOL     ow 5889   5.461   5.697   1.716 -0.0652  0.0230 -0.0743
 1473SOL     hw 5890   5.390   5.633   1.725  1.3186 -2.0383 -2.6815
 1473SOL     hw 5891   5.420   5.772   1.673 -1.4089  0.4698  1.8291
 1473SOL     vw 5892   5.446   5.699   1.712 -0.0598 -0.1898 -0.1671
 1474SOL     ow 5893   3.285   1.587   3.862 -0.1227  0.4338  1.0640
 1474SOL     hw 5894   3.218   1.521   3.848  1.0985 -0.7387  0.5386
 1474SOL     hw 5895   3.241   1.656   3.913 -1.5308 -0.5845  1.2759
 1474SOL     vw 5896   3.271   1.587   3.867 -0.1476  0.1447  1.0227
 1475SOL     ow 5897   3.601   2.008   0.160 -0.3532 -0.2284 -0.1358
 1475SOL     hw 5898   3.559   1.995   0.245  0.6926 -0.9505  0.2883
 1475SOL     hw 5899   3.666   2.076   0.176 -0.9417  0.4666 -0.6496
 1475SOL     vw 5900   3.604   2.015   0.173 -0.2929 -0.2320 -0.1476
 1476SOL     ow 5901   5.449   4.039   6.124 -1.1612 -0.3532  0.2859
 1476SOL     hw 5902   5.367   4.027   6.078 -0.3507 -0.3241 -1.2384
 1476SOL     hw 5903   5.456   4.134   6.136 -1.1442 -0.3240  0.0379
 1476SOL     vw 5904   5.439   4.050   6.120 -1.0521 -0.3455  0.0522
 1477SOL     ow 5905   4.576   1.295   0.685 -0.1001 -0.4752  0.2563
 1477SOL     hw 5906   4.575   1.316   0.779  0.5962 -4.8026  1.4752
 1477SOL     hw 5907   4.668   1.278   0.665 -0.4525 -1.3950 -0.6877
 1477SOL     vw 5908   4.588   1.296   0.695 -0.0548 -1.1675  0.2926
 1478SOL     ow 5909   6.484   1.876   6.568  0.3268  0.0737 -0.3442
 1478SOL     hw 5910   6.390   1.880   6.553 -0.4566  3.0295  3.5590
 1478SOL     hw 5911   6.523   1.906   6.486 -2.2116  0.1441 -1.6126
 1478SOL     vw 5912   6.477   1.881   6.555 -0.1116  0.4730  0.0036
 1479SOL     ow 5913   2.731   1.771   6.059  0.5965  0.3354  0.4754
 1479SOL     hw 5914   2.773   1.721   6.129  1.8431  1.7234  0.7727
 1479SOL     hw 5915   2.659   1.817   6.101  2.0749  2.1396  1.2274
 1479SOL     vw 5916   2.727   1.771   6.073  0.9561  0.7566  0.6137
 1480SOL     ow 5917   0.472   4.560   2.773 -0.6986  0.0352 -0.2597
 1480SOL     hw 5918   0.560   4.530   2.796 -0.3482  2.5463  2.2884
 1480SOL     hw 5919   0.416   4.523   2.841 -1.3985 -0.3311 -1.0160
 1480SOL     vw 5920   0.476   4.551   2.785 -0.7447  0.3181 -0.0232
 1481SOL     ow 5921   0.597   6.723   6.269  0.4321 -0.1541  0.2797
 1481SOL     hw 5922   0.689   6.699   6.263 -0.0705 -1.8292 -1.6489
 1481SOL     hw 5923   0.558   6.655   6.325 -0.4796 -2.6073 -3.0067
 1481SOL     vw 5924   0.604   6.711   6.276  0.2455 -0.6986 -0.4084
 1482SOL     ow 5925   3.256   2.710   6.336  0.0418 -0.3264  0.1523
 1482SOL     hw 5926   3.163   2.729   6.333 -0.6393 -3.0127  1.4495
 1482SOL     hw 5927   3.283   2.729   6.426  0.0147 -2.1988  0.6144
 1482SOL     vw 5928   3.248   2.715   6.347 -0.0517 -0.9278  0.3843
 1483SOL     ow 5929   5.917   3.232   5.946 -0.6357  0.6513  0.5904
 1483SOL     hw 5930   5.853   3.164   5.929  0.1365  0.4030 -1.6182
 1483SOL     hw 5931   6.001   3.187   5.944 -0.1988  1.4547  0.3924
 1483SOL     vw 5932   5.920   3.217   5.944 -0.4761  0.7246  0.2725
 1484SOL     ow 5933   0.408   5.590   1.786 -0.1508  0.4971  0.3629
 1484SOL     hw 5934   0.334   5.651   1.795  1.1401  2.3078 -0.5440
 1484SOL     hw 5935   0.449   5.615   1.703  3.6593  2.1558  2.5045
 1484SOL     vw 5936   0.403   5.602   1.776  0.5222  0.9549  0.5258
 1485SOL     ow 5937   2.575   0.449   6.094 -0.0534  0.8195  0.2104
 1485SOL     hw 5938   2.618   0.482   6.015  0.6348 -1.9949 -0.6918
 1485SOL     hw 5939   2.523   0.523   6.125  4.6424  4.3417  0.9416
 1485SOL     vw 5940   2.574   0.463   6.088  0.6571  0.9129  0.1879
 1486SOL     ow 5941   5.830   0.444   4.372 -0.2032  0.0819  0.1524
 1486SOL     hw 5942   5.766   0.380   4.342  1.3136 -1.8415  0.7685
 1486SOL     hw 5943   5.898   0.444   4.305  1.4405 -1.5448  1.7032
 1486SOL     vw 5944   5.831   0.436   4.359  0.2139 -0.3865  0.4382
 1487SOL     ow 5945   1.133   7.435   0.511  0.5628 -0.2633 -0.9165
 1487SOL     hw 5946   1.110   7.342   0.502  0.4846 -0.4567  0.8942
 1487SOL     hw 5947   1.133   7.450   0.605  2.7446  1.0293 -1.0693
 1487SOL     vw 5948   1.130   7.424   0.522  0.8404 -0.1185 -0.6978
 1488SOL     ow 5949   3.703   6.347   3.366  0.1622 -0.1591  0.2954
 1488SOL     hw 5950   3.665   6.304   3.443  0.4636 -0.3819  0.3227
 1488SOL     hw 5951   3.675   6.438   3.373 -0.2781 -0.2978  0.3721
 1488SOL     vw 5952   3.694   6.353   3.377  0.1440 -0.2067  0.3091
 1489SOL     ow 5953   6.494   3.967   2.398  0.3632 -0.2776 -0.2406
 1489SOL     hw 5954   6.501   4.058   2.371  0.2569 -0.4179 -0.7641
 1489SOL     hw 5955   6.486   3.970   2.493  0.4910  0.2492 -0.2446
 1489SOL     vw 5956   6.494   3.979   2.407  0.3660 -0.2266 -0.3102
 1490SOL     ow 5957   2.060   2.936   0.828 -0.2518 -0.2532  0.3148
 1490SOL     hw 5958   1.964   2.935   0.832 -0.3283  0.6648 -0.8755
 1490SOL     hw 5959   2.081   2.940   0.735  0.9880 -1.6654  0.4961
 1490SOL     vw 5960   2.050   2.937   0.817 -0.0983 -0.3184  0.1817
 1491SOL     ow 5961   3.001   7.446   6.210 -0.1631 -0.3218 -0.4657
 1491SOL     hw 5962   2.954   7.406   6.137  0.4615 -1.3104 -0.3412
 1491SOL     hw 5963   2.945   7.430   6.286 -0.1307 -0.5734 -0.4927
 1491SOL     vw 5964   2.987   7.438   6.210 -0.0764 -0.4854 -0.4528
 1492SOL     ow 5965   5.084   5.671   1.005 -0.0694  0.1227  0.0488
 1492SOL     hw 5966   5.161   5.720   0.977 -0.9259  0.5341 -1.7320
 1492SOL     hw 5967   5.054   5.625   0.926 -2.0284  0.5168  0.4973
 1492SOL     vw 5968   5.090   5.671   0.991 -0.4411  0.2291 -0.1270
 1493SOL     ow 5969   2.748   6.232   6.408 -0.8957 -0.0397  0.7408
 1493SOL     hw 5970   2.679   6.296   6.389 -1.0316  0.3277  2.3194
 1493SOL     hw 5971   2.779   6.203   6.322  0.5461  3.5965 -0.1333
 1493SOL     vw 5972   2.743   6.237   6.395 -0.7234  0.4888  0.8340
 1494SOL     ow 5973   1.256   6.507   6.485 -0.2018 -0.1850 -0.2792
 1494SOL     hw 5974   1.344   6.544   6.484 -0.8930  1.5140 -0.7692
 1494SOL     hw 5975   1.209   6.556   6.553 -0.0971 -2.8531  1.8795
 1494SOL     vw 5976   1.261   6.518   6.494 -0.2791 -0.3126 -0.0589
 1495SOL     ow 5977   2.544   1.253   6.556  0.2855 -0.2215  0.8291
 1495SOL     hw 5978   2.566   1.281   6.645 -1.0222  0.6983  0.8819
 1495SOL     hw 5979   2.551   1.158   6.558  0.5920 -0.1889  1.8201
 1495SOL     vw 5980   2.548   1.244   6.568  0.1534 -0.0958  0.9670
 1496SOL     ow 5981   2.945   6.281   4.548 -0.1880 -0.2461  0.3418
 1496SOL     hw 5982   2.911   6.218   4.485 -3.4199  0.6711  0.9973
 1496SOL     hw 5983   2.955   6.231   4.629 -2.3255 -0.0973  0.7456
 1496SOL     vw 5984   2.942   6.266   4.550 -0.8963 -0.1051  0.4814
 1497SOL     ow 5985   0.576   1.964   2.717 -0.1184  0.2748  0.3871
 1497SOL     hw 5986   0.503   1.911   2.749 -0.2178 -0.8027 -1.4761
 1497SOL     hw 5987   0.651   1.904   2.718 -0.3869 -0.2654 -2.4668
 1497SOL     vw 5988   0.576   1.949   2.722 -0.1669  0.0613 -0.2352
 1498SOL     ow 5989   4.340   3.873   5.832 -0.2658  0.7956 -0.0244
 1498SOL     hw 5990   4.263   3.911   5.875 -0.4490 -0.0256  0.3888
 1498SOL     hw 5991   4.385   3.949   5.794 -1.7894  1.2195 -1.1326
 1498SOL     vw 5992   4.336   3.888   5.833 -0.4909  0.7432 -0.1161
 1499SOL     ow 5993   7.481   0.974   4.546  0.4472 -0.5147 -0.4442
 1499SOL     hw 5994   7.498   1.029   4.622 -0.5398 -0.3491 -0.3310
 1499SOL     hw 5995   7.535   0.896   4.560 -0.5719 -0.9990  1.0162
 1499SOL     vw 5996   7.490   0.971   4.558  0.1824 -0.5568 -0.2365
 1500SOL     ow 5997   7.048   3.591   1.438  0.4705  0.5817  0.0865
 1500SOL     hw 5998   6.992   3.568   1.512  3.0209 -0.6753  1.7626
 1500SOL     hw 5999   7.024   3.529   1.369 -2.7626  2.5190 -0.7586
 1500SOL     vw 6000   7.037   3.580   1.438  0.3805  0.6714  0.1962
 1501SOL     ow 6001   0.037   5.247   3.265  0.5950 -0.1364  0.4857
 1501SOL     hw 6002  -0.003   5.181   3.322 -2.0628  0.6207 -0.3800
 1501SOL     hw 6003   0.053   5.201   3.183  1.9700 -0.5427  0.9562
 1501SOL     vw 6004   0.034   5.232   3.262  0.4258 -0.0899  0.4337
 1502SOL     ow 6005   1.887   3.374   0.504  0.0385 -0.2914  0.1132
 1502SOL     hw 6006   1.842   3.300   0.465 -1.7051  0.0938  1.2515
 1502SOL     hw 6007   1.961   3.335   0.552  1.0656 -0.9257 -1.8948
 1502SOL     vw 6008   1.891   3.359   0.505 -0.0561 -0.3242 -0.0015
 1503SOL     ow 6009   6.417   0.619   5.314  0.3582 -0.2310  0.1958
 1503SOL     hw 6010   6.463   0.559   5.257 -1.1303  0.4777 -1.8659
 1503SOL     hw 6011   6.324   0.601   5.298 -0.1050  1.4014  0.8305
 1503SOL     vw 6012   6.411   0.609   5.305  0.1009  0.0779  0.0079
 1504SOL     ow 6013   2.253   3.873   5.596  0.7014 -0.8573  0.0756
 1504SOL     hw 6014   2.267   3.895   5.688  1.5044 -2.0145  0.2628
 1504SOL     hw 6015   2.225   3.782   5.597  1.0066 -0.9772 -0.8336
 1504SOL     vw 6016   2.251   3.864   5.608  0.8476 -1.0258 -0.0196
 1505SOL     ow 6017   5.312   7.588   5.208  0.3806  0.9401  0.6464
 1505SOL     hw 6018   5.326   7.635   5.126 -1.9116  0.0579 -0.3575
 1505SOL     hw 6019   5.385   7.613   5.264  1.3649  2.5137 -1.2402
 1505SOL     vw 6020   5.323   7.597   5.205  0.2081  1.0312  0.2649
 1506SOL     ow 6021   2.251   1.028   4.944 -0.3243 -0.5524  0.3282
 1506SOL     hw 6022   2.194   1.097   4.979 -0.1165  1.3248 -2.6812
 1506SOL     hw 6023   2.336   1.045   4.983 -0.5382  0.1936  0.4874
 1506SOL     vw 6024   2.254   1.039   4.954 -0.3251 -0.2063 -0.0477
 1507SOL     ow 6025   0.662   4.523   0.244 -0.1190 -0.0828  0.1139
 1507SOL     hw 6026   0.607   4.446   0.227  0.5080 -0.2654 -1.2245
 1507SOL     hw 6027   0.611   4.597   0.210 -0.7347  0.1294  1.4277
 1507SOL     vw 6028   0.648   4.522   0.238 -0.1175 -0.0792  0.1107
 1508SOL     ow 6029   3.210   6.400   0.951  0.1012  0.4957  0.1415
 1508SOL     hw 6030   3.189   6.455   1.027 -1.4865 -0.5485  0.5154
 1508SOL     hw 6031   3.293   6.435   0.918  0.9124  0.9097  2.4255
 1508SOL     vw 6032   3.218   6.412   0.957 -0.0014  0.4125  0.4922
 1509SOL     ow 6033   7.497   6.922   0.267  0.3202  0.0392  0.9239
 1509SOL     hw 6034   7.474   6.833   0.292 -2.1963  0.3333 -0.0323
 1509SOL     hw 6035   7.528   6.915   0.176 -2.5781  0.3488 -0.2006
 1509SOL     vw 6036   7.498   6.909   0.258 -0.3941  0.1190  0.6494
 1510SOL     ow 6037   4.747   4.735   2.736  0.1621 -0.1730 -0.0159
 1510SOL     hw 6038   4.673   4.739   2.676  0.4181  1.1996 -0.2735
 1510SOL     hw 6039   4.815   4.687   2.688  1.1845  2.8153 -1.8365
 1510SOL     vw 6040   4.746   4.729   2.722  0.3309  0.4027 -0.2902
 1511SOL     ow 6041   7.140   1.829   7.423 -0.6998 -0.9174 -0.4511
 1511SOL     hw 6042   7.231   1.813   7.448 -0.2761  1.5024 -0.1128
 1511SOL     hw 6043   7.100   1.867   7.502 -0.9223  1.4830 -1.6331
 1511SOL     vw 6044   7.147   1.832   7.437 -0.6733 -0.2815 -0.5624
 1512SOL     ow 6045   7.021   5.632   4.314  0.0590 -0.5780  0.0546
 1512SOL     hw 6046   7.078   5.578   4.260 -0.1789  0.1291 -0.9176
 1512SOL     hw 6047   7.039   5.722   4.286 -0.6239 -0.2559  0.6145
 1512SOL     vw 6048   7.031   5.637   4.303 -0.0625 -0.4423  0.0002
 1513SOL     ow 6049   1.375   4.521   2.770 -0.0309 -0.1254  0.1335
 1513SOL     hw 6050   1.447   4.462   2.747  1.7401  1.9302  0.0721
 1513SOL     hw 6051   1.325   4.531   2.688  0.4304 -0.5244 -0.1986
 1513SOL     vw 6052   1.378   4.515   2.756  0.2636  0.0932  0.0817
 1514SOL     ow 6053   1.592   4.754   7.290  0.5616  0.0592 -0.3708
 1514SOL     hw 6054   1.590   4.740   7.385  1.8221 -2.7501 -0.6598
 1514SOL     hw 6055   1.676   4.717   7.262 -0.8933 -1.6195 -2.8904
 1514SOL     vw 6056   1.603   4.747   7.299  0.5359 -0.5329 -0.7415
 1515SOL     ow 6057   5.455   0.719   7.273 -0.5213  0.3567  0.1678
 1515SOL     hw 6058   5.410   0.664   7.208 -2.5514  0.3476  1.4800
 1515SOL     hw 6059   5.477   0.658   7.343  1.7259  0.3509 -0.4663
 1515SOL     vw 6060   5.452   0.703   7.274 -0.4926  0.3547  0.2573
 1516SOL     ow 6061   6.866   5.996   6.396 -0.4596  0.3129 -0.3336
 1516SOL     hw 6062   6.772   6.013   6.406 -0.6907 -1.1857  0.2781
 1516SOL     hw 6063   6.892   5.957   6.479  1.1225  2.2923  0.1855
 1516SOL     vw 6064   6.857   5.993   6.408 -0.2813  0.3762 -0.1845
 1517SOL     ow 6065   1.429   5.469   0.139  0.5484  0.1181 -0.5365
 1517SOL     hw 6066   1.439   5.393   0.081  0.2103 -0.3283 -0.0138
 1517SOL     hw 6067   1.472   5.540   0.091 -0.5912 -0.0048 -1.8053
 1517SOL     vw 6068   1.436   5.468   0.125  0.3534  0.0432 -0.6350
 1518SOL     ow 6069   0.070   4.570   4.167 -0.7094 -0.1623 -1.0576
 1518SOL     hw 6070   0.036   4.535   4.249 -2.8901  1.5069 -1.1592
 1518SOL     hw 6071   0.000   4.554   4.103  0.3124 -0.0752 -2.2364
 1518SOL     vw 6072   0.056   4.563   4.169 -0.8623  0.0691 -1.2267
 1519SOL     ow 6073   6.487   7.306   4.968  0.2162  0.5954 -0.2840
 1519SOL     hw 6074   6.418   7.357   4.926  0.6962  0.9146 -0.7056
 1519SOL     hw 6075   6.455   7.216   4.967  0.0074  0.6737 -0.8963
 1519SOL     vw 6076   6.474   7.301   4.963  0.2520  0.6480 -0.4203
 1520SOL     ow 6077   5.727   5.529   5.331  0.0509  0.3803  0.0708
 1520SOL     hw 6078   5.804   5.502   5.381 -0.0673 -0.9212 -0.4334
 1520SOL     hw 6079   5.670   5.453   5.330 -0.6195  0.8707 -0.7640
 1520SOL     vw 6080   5.730   5.516   5.337 -0.0529  0.2732 -0.1059
 1521SOL     ow 6081   2.460   6.781   3.845 -0.4749 -0.2669 -0.1902
 1521SOL     hw 6082   2.398   6.778   3.919  1.1358 -1.4066  1.1982
 1521SOL     hw 6083   2.487   6.690   3.834  2.2374  0.3896  0.4389
 1521SOL     vw 6084   2.455   6.768   3.853  0.0955 -0.3304  0.0758
 1522SOL     ow 6085   0.466   2.822   2.598  0.1810  0.2037 -0.3141
 1522SOL     hw 6086   0.457   2.806   2.504  0.5933  3.2570 -0.9861
 1522SOL     hw 6087   0.551   2.867   2.606 -1.0155  2.3650  1.0991
 1522SOL     vw 6088   0.476   2.826   2.586  0.0775  0.8918 -0.2161
 1523SOL     ow 6089   4.297   0.395   0.346 -0.0618  0.9580  0.2232
 1523SOL     hw 6090   4.377   0.342   0.337  0.4341  1.7308 -0.0160
 1523SOL     hw 6091   4.226   0.334   0.328  0.4925  0.3537  0.0172
 1523SOL     vw 6092   4.298   0.380   0.343  0.0765  0.9803  0.1645
 1524SOL     ow 6093   7.112   7.249   3.034  0.6233  0.4929  0.2017
 1524SOL     hw 6094   7.030   7.294   3.055  0.3128  0.9009 -1.6475
 1524SOL     hw 6095   7.111   7.242   2.938  3.3540  1.7031 -0.0021
 1524SOL     vw 6096   7.101   7.254   3.024  0.9425  0.7064 -0.0691
 1525SOL     ow 6097   2.947   5.841   3.272  1.2625  0.2893 -0.4375
 1525SOL     hw 6098   3.041   5.862   3.276  1.4729 -0.3997 -1.3037
 1525SOL     hw 6099   2.939   5.760   3.323  0.9159  0.9747  0.6374
 1525SOL     vw 6100   2.959   5.833   3.279  1.2445  0.2885 -0.4100
 1526SOL     ow 6101   4.162   6.881   0.234  0.2661  0.3497 -0.2382
 1526SOL     hw 6102   4.219   6.824   0.285 -0.2884  0.9852  1.1266
 1526SOL     hw 6103   4.217   6.956   0.212  0.0166  0.8980  0.9596
 1526SOL     vw 6104   4.177   6.884   0.238  0.1602  0.5057  0.0999
 1527SOL     ow 6105   2.128   2.976   0.570  1.1869  0.2933  0.8131
 1527SOL     hw 6106   2.222   2.991   0.565  0.9854  1.2838 -2.0109
 1527SOL     hw 6107   2.105   2.937   0.486 -0.7929 -0.9594  1.8538
 1527SOL     vw 6108   2.137   2.973   0.558  0.8991  0.2587  0.5778
 1528SOL     ow 6109   5.516   6.197   4.696  0.4240  0.1437 -0.1106
 1528SOL     hw 6110   5.573   6.141   4.748 -0.3588 -0.6272 -0.0534
 1528SOL     hw 6111   5.559   6.204   4.611  1.1419  0.4792  0.2727
 1528SOL     vw 6112   5.529   6.191   4.692  0.4151  0.0863 -0.0527
 1529SOL     ow 6113   4.410   0.376   2.295 -0.1676  0.3059 -0.0156
 1529SOL     hw 6114   4.427   0.369   2.201 -3.1436 -0.0020 -0.6168
 1529SOL     hw 6115   4.419   0.470   2.314  1.0857  0.2879 -0.4166
 1529SOL     vw 6116   4.413   0.387   2.285 -0.3946  0.2629 -0.1478
 1530SOL     ow 6117   0.784   6.660   3.168 -0.2398 -0.4389  0.1829
 1530SOL     hw 6118   0.700   6.622   3.194 -0.1625 -1.3663 -0.8449
 1530SOL     hw 6119   0.847   6.589   3.179  0.1716 -0.1678 -0.3757
 1530SOL     vw 6120   0.781   6.646   3.173 -0.1753 -0.5255 -0.0263
 1531SOL     ow 6121   1.417   6.069   2.653 -0.5790 -0.4362 -0.1016
 1531SOL     hw 6122   1.340   6.104   2.609  0.1618  0.5095 -0.6951
 1531SOL     hw 6123   1.437   6.132   2.721 -0.9009 -1.1858  0.6995
 1531SOL     vw 6124   1.410   6.082   2.656 -0.5237 -0.4103 -0.0743
 1532SOL     ow 6125   5.537   5.940   5.430 -0.2822 -0.1778 -0.0090
 1532SOL     hw 6126   5.612   5.900   5.386 -0.4287  0.8009 -1.2365
 1532SOL     hw 6127   5.576   5.992   5.501  0.0268 -1.1814  0.5745
 1532SOL     vw 6128   5.552   5.942   5.433 -0.2608 -0.1812 -0.0939
 1533SOL     ow 6129   5.611   1.409   0.527 -0.3710  0.0696 -0.0895
 1533SOL     hw 6130   5.606   1.504   0.540 -0.3696 -0.0082  0.5258
 1533SOL     hw 6131   5.693   1.395   0.480  1.2416  0.1278  2.5130
 1533SOL     vw 6132   5.621   1.420   0.523 -0.1581  0.0670  0.3351
 1534SOL     ow 6133   4.117   7.014   1.922  0.1914  0.4893  0.9566
 1534SOL     hw 6134   4.126   7.082   1.855 -0.7900  0.3256  0.6392
 1534SOL     hw 6135   4.189   7.031   1.983  1.8356 -0.0592 -0.7247
 1534SOL     vw 6136   4.128   7.025   1.921  0.2789  0.3955  0.6929
 1535SOL     ow 6137   3.349   2.106   0.586 -0.5021 -0.3349 -0.3368
 1535SOL     hw 6138   3.354   2.174   0.519 -1.5425 -0.4192 -0.5095
 1535SOL     hw 6139   3.257   2.082   0.590 -0.8052  0.8535  2.2667
 1535SOL     vw 6140   3.338   2.112   0.578 -0.6794 -0.1893 -0.0161
 1536SOL     ow 6141   5.250   2.951   4.165  0.6522 -0.8518 -0.4441
 1536SOL     hw 6142   5.204   3.029   4.134  1.6280  0.2778  0.8638
 1536SOL     hw 6143   5.190   2.879   4.145 -0.5991  0.2971 -0.9936
 1536SOL     vw 6144   5.236   2.951   4.158  0.6158 -0.5510 -0.3440
 1537SOL     ow 6145   5.302   4.525   3.092 -0.3092 -0.0220  0.1681
 1537SOL     hw 6146   5.397   4.525   3.105 -0.4156  0.5250  1.0468
 1537SOL     hw 6147   5.290   4.544   2.999  0.4489 -0.3682 -0.0032
 1537SOL     vw 6148   5.313   4.528   3.082 -0.2232  0.0045  0.2614
 1538SOL     ow 6149   1.804   2.373   4.472 -0.4052 -0.1344 -1.1070
 1538SOL     hw 6150   1.728   2.322   4.498 -0.6875  0.8226  0.0612
 1538SOL     hw 6151   1.811   2.360   4.378 -1.1781 -1.3395 -1.0167
 1538SOL     vw 6152   1.795   2.365   4.463 -0.5444 -0.1674 -0.9410
 1539SOL     ow 6153   6.784   3.250   4.856  0.4278  0.3579 -0.0907
 1539SOL     hw 6154   6.732   3.314   4.807  1.7807  0.0120 -2.1005
 1539SOL     hw 6155   6.860   3.300   4.886  0.4928  0.1483  0.0898
 1539SOL     vw 6156   6.787   3.265   4.854  0.6146  0.2847 -0.3321
 1540SOL     ow 6157   5.867   5.775   6.842  0.1630  0.1833 -0.4245
 1540SOL     hw 6158   5.848   5.868   6.854 -0.1034  0.3403 -1.9221
 1540SOL     hw 6159   5.880   5.764   6.748  0.3858 -1.2686 -0.2600
 1540SOL     vw 6160   5.867   5.785   6.831  0.1574  0.0126 -0.6003
 1541SOL     ow 6161   7.532   5.438   5.259 -0.0921 -0.5184 -0.3353
 1541SOL     hw 6162   7.474   5.362   5.257  2.6701 -2.8233 -1.2490
 1541SOL     hw 6163   7.578   5.430   5.343 -0.8538  1.1116  0.2680
 1541SOL     vw 6164   7.531   5.427   5.270  0.1721 -0.6075 -0.3762
 1542SOL     ow 6165   1.769   2.713   6.288  0.3039 -0.5502 -0.0368
 1542SOL     hw 6166   1.754   2.620   6.275 -5.3713  0.0771 -0.5866
 1542SOL     hw 6167   1.776   2.749   6.200 -1.8742 -0.1534 -0.1141
 1542SOL     vw 6168   1.768   2.706   6.275 -0.7322 -0.4152 -0.1194
 1543SOL     ow 6169   2.927   5.562   4.511 -0.3222 -0.7657 -0.1532
 1543SOL     hw 6170   2.941   5.656   4.515  0.0266 -0.7786 -0.8912
 1543SOL     hw 6171   2.832   5.552   4.513 -0.3836 -0.3546 -0.6795
 1543SOL     vw 6172   2.916   5.573   4.512 -0.2843 -0.7131 -0.3200
 1544SOL     ow 6173   1.896   0.350   3.792 -0.1699 -0.4296  0.4244
 1544SOL     hw 6174   1.977   0.396   3.813 -1.0801  1.0762  0.7503
 1544SOL     hw 6175   1.832   0.384   3.854 -0.9507 -1.9952  0.5320
 1544SOL     vw 6176   1.899   0.361   3.803 -0.3930 -0.4375  0.4815
 1545SOL     ow 6177   7.484   3.220   1.203 -0.4479  0.0371  0.1684
 1545SOL     hw 6178   7.484   3.171   1.286  0.5565 -0.8011 -0.3105
 1545SOL     hw 6179   7.475   3.311   1.230 -2.3234 -0.3740  1.0836
 1545SOL     vw 6180   7.483   3.225   1.218 -0.5629 -0.1277  0.2260
 1546SOL     ow 6181   0.396   2.008   6.566 -0.6280  0.1702 -0.3617
 1546SOL     hw 6182   0.312   1.963   6.563 -1.1229  1.0735 -0.4109
 1546SOL     hw 6183   0.450   1.963   6.501 -1.3538  0.1385 -0.9540
 1546SOL     vw 6184   0.392   1.996   6.557 -0.7891  0.2853 -0.4466
 1547SOL     ow 6185   2.612   7.326   2.568 -0.6607 -0.2770 -0.2223
 1547SOL     hw 6186   2.565   7.266   2.510 -1.2024  0.3658 -0.4680
 1547SOL     hw 6187   2.573   7.411   2.550 -0.2091  0.0774  0.4413
 1547SOL     vw 6188   2.601   7.329   2.558 -0.6726 -0.1454 -0.1671
 1548SOL     ow 6189   0.480   1.271   3.787 -0.7467  0.4494  0.0062
 1548SOL     hw 6190   0.463   1.347   3.733 -2.6923  0.7319  0.9227
 1548SOL     hw 6191   0.439   1.198   3.741  1.3777 -0.1640 -1.0263
 1548SOL     vw 6192   0.473   1.271   3.774 -0.7231  0.4058 -0.0091
 1549SOL     ow 6193   6.966   0.822   4.370 -0.1435  0.6083 -0.2734
 1549SOL     hw 6194   6.875   0.838   4.394 -0.7668  1.4423 -2.8284
 1549SOL     hw 6195   6.987   0.736   4.407 -2.2507  0.0161 -0.3643
 1549SOL     vw 6196   6.957   0.813   4.378 -0.5035  0.6402 -0.6227
 1550SOL     ow 6197   3.549   2.957   3.860  0.4879  0.0961  0.0289
 1550SOL     hw 6198   3.559   3.050   3.880  1.1464 -0.3259  1.8242
 1550SOL     hw 6199   3.615   2.939   3.793  0.9852  0.7323  0.3429
 1550SOL     vw 6200   3.559   2.967   3.854  0.6405  0.1243  0.3072
 1551SOL     ow 6201   2.264   0.134   7.540 -0.0899  0.7304  0.4475
 1551SOL     hw 6202   2.210   0.136   7.462 -1.6790 -0.5099  1.4434
 1551SOL     hw 6203   2.330   0.067   7.523  0.9528  1.9600 -0.6099
 1551SOL     vw 6204   2.265   0.126   7.528 -0.1621  0.7290  0.4392
 1552SOL     ow 6205   0.808   3.476   7.511 -0.0767 -0.9405 -0.0032
 1552SOL     hw 6206   0.883   3.419   7.528  0.0576 -0.5384  0.8049
 1552SOL     hw 6207   0.749   3.460   7.586 -0.3915 -0.6024 -0.1770
 1552SOL     vw 6208   0.810   3.466   7.523 -0.1005 -0.8428  0.0806
 1553SOL     ow 6209   5.696   7.299   1.313 -0.0697 -0.2972 -0.0357
 1553SOL     hw 6210   5.757   7.268   1.245 -1.0087 -1.1650 -0.5007
 1553SOL     hw 6211   5.690   7.393   1.297 -0.6965 -0.5633 -1.5349
 1553SOL     vw 6212   5.703   7.307   1.302 -0.2761 -0.4468 -0.2949
 1554SOL     ow 6213   0.394   1.303   4.331 -0.0418 -0.1426 -0.4050
 1554SOL     hw 6214   0.318   1.315   4.387 -0.5732 -0.0746 -1.1298
 1554SOL     hw 6215   0.457   1.369   4.361 -0.3821 -0.0066  0.0027
 1554SOL     vw 6216   0.393   1.313   4.342 -0.1568 -0.1157 -0.4468
 1555SOL     ow 6217   6.560   2.225   1.051 -0.5955  0.2204 -0.1220
 1555SOL     hw 6218   6.600   2.179   1.125 -1.1639  0.2973  0.2374
 1555SOL     hw 6219   6.569   2.164   0.978  1.5480  0.8411 -0.4346
 1555SOL     vw 6220   6.567   2.211   1.051 -0.3877  0.3126 -0.1158
 1556SOL     ow 6221   2.987   2.312   4.366  0.9088 -0.0553 -0.2184
 1556SOL     hw 6222   2.977   2.272   4.279 -0.5192  0.2372 -0.2136
 1556SOL     hw 6223   2.918   2.379   4.369 -0.3845 -1.3708  1.8570
 1556SOL     vw 6224   2.976   2.316   4.355  0.5499 -0.1903  0.0560
 1557SOL     ow 6225   7.142   4.420   4.910  0.0343  0.2974  0.0863
 1557SOL     hw 6226   7.188   4.423   4.993 -0.3399 -0.4583  0.3249
 1557SOL     hw 6227   7.082   4.347   4.918  0.0518  0.1620 -0.8784
 1557SOL     vw 6228   7.140   4.411   4.922 -0.0126  0.1798 -0.0095
 1558SOL     ow 6229   3.240   1.070   6.688 -0.0422  0.2749  0.3408
 1558SOL     hw 6230   3.237   1.042   6.597 -0.2307  0.5946  0.2442
 1558SOL     hw 6231   3.237   0.989   6.739  0.0677  0.0957  0.0632
 1558SOL     vw 6232   3.239   1.056   6.683 -0.0527  0.2934  0.2911
 1559SOL     ow 6233   1.321   2.552   6.985 -0.0425 -0.6379  0.2503
 1559SOL     hw 6234   1.316   2.639   7.024  2.0813 -0.1533 -0.4209
 1559SOL     hw 6235   1.231   2.522   6.981 -0.7957  1.3953  0.8130
 1559SOL     vw 6236   1.309   2.560   6.989  0.1383 -0.3058  0.2358
 1560SOL     ow 6237   5.287   3.469   1.437 -0.3354 -0.2447 -0.0392
 1560SOL     hw 6238   5.225   3.399   1.455  0.2219 -0.8631 -0.4535
 1560SOL     hw 6239   5.373   3.428   1.451  0.0668 -0.1657 -1.9766
 1560SOL     vw 6240   5.290   3.454   1.441 -0.2089 -0.3159 -0.3495
 1561SOL     ow 6241   2.565   4.077   7.223  0.2131 -0.1872 -0.2480
 1561SOL     hw 6242   2.502   4.134   7.177  0.5105 -0.1792 -0.6482
 1561SOL     hw 6243   2.651   4.113   7.200  0.6562 -2.7214 -3.2543
 1561SOL     vw 6244   2.568   4.090   7.214  0.3109 -0.5205 -0.6974
 1562SOL     ow 6245   4.141   1.775   6.514  0.3378 -0.1931 -0.3105
 1562SOL     hw 6246   4.145   1.796   6.607  3.5803  0.0691 -0.3957
 1562SOL     hw 6247   4.110   1.684   6.511 -1.6285  0.3860  0.8446
 1562SOL     vw 6248   4.138   1.766   6.526  0.5062 -0.0821 -0.1693
 1563SOL     ow 6249   2.872   3.304   1.132 -0.4451 -0.6946  0.8367
 1563SOL     hw 6250   2.818   3.339   1.062  0.2386 -1.0704  0.1073
 1563SOL     hw 6251   2.925   3.237   1.090  2.5626  1.4464  0.8716
 1563SOL     vw 6252   2.872   3.300   1.117  0.0420 -0.4618  0.7451
 1564SOL     ow 6253   1.873   7.388   3.033  0.5969  0.4975  0.6231
 1564SOL     hw 6254   1.965   7.408   3.012  0.0038  2.0936 -0.6227
 1564SOL     hw 6255   1.827   7.395   2.950 -0.9724  1.6147  1.5230
 1564SOL     vw 6256   1.879   7.391   3.020  0.3116  0.8557  0.5774
 1565SOL     ow 6257   5.120   5.981   7.206 -0.2448 -0.7381  0.2561
 1565SOL     hw 6258   5.166   6.056   7.245  0.2063 -1.1789  0.5922
 1565SOL     hw 6259   5.167   5.905   7.239  0.9396 -1.1247 -2.1308
 1565SOL     vw 6260   5.132   5.981   7.216 -0.0288 -0.8473 -0.0145
 1566SOL     ow 6261   5.902   7.096   4.367 -0.0083 -0.2279  0.0872
 1566SOL     hw 6262   5.856   7.014   4.349  0.4030 -0.4505  0.0489
 1566SOL     hw 6263   5.835   7.164   4.356 -0.0296 -0.4339 -1.2244
 1566SOL     vw 6264   5.887   7.094   4.363  0.0432 -0.2844 -0.0906
 1567SOL     ow 6265   4.644   4.505   6.476 -0.6894  0.3051  0.5352
 1567SOL     hw 6266   4.731   4.515   6.515  0.0944  0.6903 -1.2147
 1567SOL     hw 6267   4.656   4.532   6.385 -1.7608 -3.2696 -0.7942
 1567SOL     vw 6268   4.657   4.510   6.469 -0.7269 -0.1156  0.1287
 1568SOL     ow 6269   3.745   3.712   5.239  0.1206  0.5826  0.1147
 1568SOL     hw 6270   3.779   3.642   5.296  2.1356  1.6452  0.3094
 1568SOL     hw 6271   3.815   3.728   5.176 -1.0214  1.2422 -1.0345
 1568SOL     vw 6272   3.759   3.705   5.239  0.2357  0.8098 -0.0110
 1569SOL     ow 6273   4.421   3.481   2.118 -0.2681 -0.0291  0.1639
 1569SOL     hw 6274   4.400   3.568   2.152  1.5661  0.9499 -1.0147
 1569SOL     hw 6275   4.437   3.428   2.196 -0.3946  0.9825  0.8972
 1569SOL     vw 6276   4.420   3.485   2.133 -0.0427  0.2334  0.1049
 1570SOL     ow 6277   3.726   2.307   0.535  0.2393 -0.4919  0.0239
 1570SOL     hw 6278   3.744   2.300   0.441 -2.1133 -3.2150 -0.3846
 1570SOL     hw 6279   3.757   2.224   0.571 -2.8085 -1.4882  0.7317
 1570SOL     vw 6280   3.732   2.295   0.527 -0.4733 -0.9825  0.0634
 1571SOL     ow 6281   7.306   0.772   2.325 -0.0423  0.2771  0.2280
 1571SOL     hw 6282   7.315   0.740   2.415  0.3325  0.6435  0.3228
 1571SOL     hw 6283   7.217   0.745   2.300  0.8959 -2.5636 -0.4013
 1571SOL     vw 6284   7.295   0.764   2.334  0.1311 -0.0494  0.1575
 1572SOL     ow 6285   4.751   3.828   2.660 -0.4779  0.1449  0.9381
 1572SOL     hw 6286   4.728   3.916   2.690  0.8591  0.5913  0.7120
 1572SOL     hw 6287   4.760   3.837   2.565 -0.1420 -0.1810  0.9373
 1572SOL     vw 6288   4.749   3.841   2.651 -0.2570  0.1607  0.9083
 1573SOL     ow 6289   5.821   6.282   5.343 -0.7626  0.8323 -0.0156
 1573SOL     hw 6290   5.756   6.279   5.414  0.9701  0.6871  1.6570
 1573SOL     hw 6291   5.770   6.269   5.263 -2.8961  1.6493  1.1270
 1573SOL     vw 6292   5.806   6.280   5.342 -0.8156  0.9208  0.3557
 1574SOL     ow 6293   5.482   5.820   1.968 -0.5210  0.2721 -0.2723
 1574SOL     hw 6294   5.415   5.861   1.914 -0.9896 -1.2685 -0.9043
 1574SOL     hw 6295   5.450   5.830   2.058 -1.3145  0.0310 -0.5261
 1574SOL     vw 6296   5.469   5.827   1.973 -0.6876  0.0370 -0.3892
 1575SOL     ow 6297   6.431   3.467   1.091 -0.6826  0.3925 -0.1306
 1575SOL     hw 6298   6.342   3.501   1.104 -0.0189  2.3213 -0.2862
 1575SOL     hw 6299   6.440   3.457   0.997 -0.5240  0.8761 -0.1720
 1575SOL     vw 6300   6.420   3.470   1.081 -0.5741  0.7107 -0.1565
 1576SOL     ow 6301   3.558   4.424   5.804 -0.1756 -0.0713 -0.4630
 1576SOL     hw 6302   3.491   4.482   5.840 -1.9520 -2.5191  0.4598
 1576SOL     hw 6303   3.565   4.353   5.868  0.6565 -1.7299 -2.2907
 1576SOL     vw 6304   3.550   4.422   5.817 -0.3002 -0.6132 -0.5820
 1577SOL     ow 6305   4.803   5.870   7.315  0.2172 -0.2592 -0.3297
 1577SOL     hw 6306   4.810   5.965   7.309 -0.2241 -0.2042 -0.0099
 1577SOL     hw 6307   4.858   5.847   7.390  1.6879 -0.4362 -1.4331
 1577SOL     vw 6308   4.811   5.879   7.324  0.3533 -0.2751 -0.4330
 1578SOL     ow 6309   0.998   5.632   0.021 -0.3255 -0.0821 -0.0060
 1578SOL     hw 6310   0.929   5.668   0.078 -0.1884  1.3951 -0.7257
 1578SOL     hw 6311   1.074   5.627   0.078 -0.0845  1.7609 -0.1007
 1578SOL     vw 6312   0.999   5.636   0.036 -0.2756  0.3560 -0.1135
 1579SOL     ow 6313   3.630   5.383   0.068 -0.0383 -0.2718 -0.0262
 1579SOL     hw 6314   3.616   5.464   0.116  0.2945  0.7387 -1.5802
 1579SOL     hw 6315   3.697   5.336   0.118 -0.0454  0.5099  0.7384
 1579SOL     vw 6316   3.637   5.387   0.081  0.0046 -0.0353 -0.1304
 1580SOL     ow 6317   5.575   0.055   0.666  0.8328 -0.8887  0.8616
 1580SOL     hw 6318   5.605  -0.036   0.667 -1.8936 -1.8943  0.1850
 1580SOL     hw 6319   5.618   0.093   0.590  0.2525 -2.3493 -0.2573
 1580SOL     vw 6320   5.584   0.048   0.656  0.3965 -1.2140  0.6247
 1581SOL     ow 6321   0.253   6.862   1.611 -0.2853 -0.1586  0.1824
 1581SOL     hw 6322   0.197   6.939   1.620  0.3552  0.5343 -1.4643
 1581SOL     hw 6323   0.297   6.874   1.527  3.2405 -0.0885  1.8795
 1581SOL     vw 6324   0.251   6.874   1.601  0.2644 -0.0579  0.1891
 1582SOL     ow 6325   0.507   5.640   1.523 -0.0786  0.1226 -0.2236
 1582SOL     hw 6326   0.561   5.577   1.476 -0.2957 -1.0324  1.0201
 1582SOL     hw 6327   0.442   5.669   1.459  1.7344  1.2774 -1.6484
 1582SOL     vw 6328   0.506   5.635   1.509  0.1319  0.1225 -0.2475
 1583SOL     ow 6329   5.903   0.623   1.207  0.7321 -0.2880  0.5626
 1583SOL     hw 6330   5.896   0.609   1.302  2.8884  0.1136  0.8440
 1583SOL     hw 6331   5.933   0.713   1.198 -1.5550  0.4065 -0.6541
 1583SOL     vw 6332   5.906   0.633   1.219  0.7150 -0.1434  0.4392
 1584SOL     ow 6333   1.949   3.421   4.863 -0.1585 -0.1405  0.2441
 1584SOL     hw 6334   2.042   3.401   4.873 -0.0008  0.8848  0.9656
 1584SOL     hw 6335   1.945   3.486   4.793 -0.0229  1.8585  2.0017
 1584SOL     vw 6336   1.960   3.427   4.855 -0.1199  0.2584  0.5713
 1585SOL     ow 6337   6.011   4.002   1.356 -0.5834 -0.1849  0.0690
 1585SOL     hw 6338   6.024   4.079   1.411 -1.7997  0.3958 -0.4200
 1585SOL     hw 6339   6.030   4.033   1.267  2.5497 -1.4095  0.2002
 1585SOL     vw 6340   6.015   4.016   1.351 -0.3304 -0.2699  0.0218
 1586SOL     ow 6341   0.977   1.560   0.876 -0.3528 -0.5714  0.1801
 1586SOL     hw 6342   0.905   1.586   0.819  0.0527  0.7423  0.2314
 1586SOL     hw 6343   1.018   1.642   0.902 -1.0754 -1.0383  3.1276
 1586SOL     vw 6344   0.973   1.574   0.872 -0.3946 -0.4597  0.5757
 1587SOL     ow 6345   3.389   3.577   4.832  0.6992 -0.2082 -0.7536
 1587SOL     hw 6346   3.382   3.669   4.855 -0.6747 -0.1980 -1.1741
 1587SOL     hw 6347   3.460   3.574   4.768  1.2089  0.4382 -0.2454
 1587SOL     vw 6348   3.398   3.589   4.827  0.5852 -0.1214 -0.7420
 1588SOL     ow 6349   2.360   3.379   1.386 -0.1299 -0.3247 -0.6595
 1588SOL     hw 6350   2.321   3.451   1.336  1.0153 -0.9328 -2.5292
 1588SOL     hw 6351   2.305   3.303   1.366  0.8456 -0.7649 -1.7563
 1588SOL     vw 6352   2.347   3.379   1.377  0.1501 -0.4630 -1.0509
 1589SOL     ow 6353   1.090   4.019   0.038  0.2042 -0.0000 -0.2886
 1589SOL     hw 6354   1.078   4.062   0.122 -0.6205  0.1807 -0.4919
 1589SOL     hw 6355   1.184   4.000   0.034  0.1045 -0.9691  1.1221
 1589SOL     vw 6356   1.101   4.022   0.048  0.0822 -0.1042 -0.1293
 1590SOL     ow 6357   3.213   3.316   0.991  0.2572  0.0569  0.0644
 1590SOL     hw 6358   3.156   3.380   1.033  0.2374 -0.5040  0.9094
 1590SOL     hw 6359   3.280   3.368   0.948 -0.6360  0.7066 -0.5756
 1590SOL     vw 6360   3.214   3.331   0.991  0.1367  0.0685  0.0914
 1591SOL     ow 6361   1.708   0.634   6.179 -0.4475 -0.3193  0.6947
 1591SOL     hw 6362   1.674   0.716   6.216  0.9684  0.2868  0.7162
 1591SOL     hw 6363   1.803   0.640   6.191 -0.3993 -2.6985  2.2083
 1591SOL     vw 6364   1.716   0.645   6.185 -0.2545 -0.5532  0.8974
 1592SOL     ow 6365   0.068   0.363   4.913 -0.0948 -0.9199 -0.1556
 1592SOL     hw 6366   0.136   0.351   4.979 -1.2277 -1.4251  0.9812
 1592SOL     hw 6367   0.010   0.288   4.926 -1.9002  0.4700  0.2308
 1592SOL     vw 6368   0.069   0.351   4.924 -0.4824 -0.8032  0.0453
 1593SOL     ow 6369   2.334   2.531   0.727  0.1785 -0.2566 -0.2339
 1593SOL     hw 6370   2.255   2.581   0.747 -0.2202  0.9580 -4.1525
 1593SOL     hw 6371   2.402   2.597   0.713  0.9609 -1.1102 -0.5655
 1593SOL     vw 6372   2.333   2.546   0.728  0.2290 -0.2090 -0.7946
 1594SOL     ow 6373   2.347   5.022   7.406 -0.2826  0.1858  0.2817
 1594SOL     hw 6374   2.267   4.986   7.444 -1.1506 -1.1312 -2.5220
 1594SOL     hw 6375   2.324   5.113   7.384 -0.6497  0.1338  0.4513
 1594SOL     vw 6376   2.333   5.029   7.408 -0.4455  0.0052 -0.0658
 1595SOL     ow 6377   4.147   2.934   7.296  0.7901  0.2825  0.4723
 1595SOL     hw 6378   4.154   2.928   7.201 -0.9771  0.5795  0.2910
 1595SOL     hw 6379   4.158   2.844   7.326 -1.2840 -0.2748 -0.2657
 1595SOL     vw 6380   4.150   2.921   7.287  0.2832  0.2482  0.3510
 1596SOL     ow 6381   5.410   1.695   0.817 -0.5688  0.2916  0.3901
 1596SOL     hw 6382   5.500   1.693   0.784 -1.5196  2.3296 -2.6711
 1596SOL     hw 6383   5.362   1.637   0.758 -1.6764  1.0534  0.5216
 1596SOL     vw 6384   5.416   1.687   0.805 -0.8404  0.6610  0.0036
 1597SOL     ow 6385   1.285   2.258   1.423 -0.4276 -0.2093  0.3055
 1597SOL     hw 6386   1.268   2.164   1.415 -2.6779  0.0172  1.6519
 1597SOL     hw 6387   1.349   2.264   1.494  0.5724 -0.7526 -0.5221
 1597SOL     vw 6388   1.291   2.246   1.431 -0.5925 -0.2511  0.3739
 1598SOL     ow 6389   7.361   2.714   1.178  0.2320  0.1245  0.0591
 1598SOL     hw 6390   7.446   2.695   1.139  0.2368  3.8971 -2.3579
 1598SOL     hw 6391   7.298   2.685   1.113 -0.1503  0.1547  0.4160
 1598SOL     vw 6392   7.364   2.708   1.164  0.1822  0.6262 -0.2127
 1599SOL     ow 6393   4.397   0.814   7.468  0.5842 -0.5422  0.1167
 1599SOL     hw 6394   4.474   0.771   7.505 -0.1639 -3.4295 -1.4382
 1599SOL     hw 6395   4.323   0.769   7.508 -0.2484 -0.8306 -1.6882
 1599SOL     vw 6396   4.397   0.802   7.478  0.3755 -0.9611 -0.3264
 1600SOL     ow 6397   6.644   3.725   3.760  0.1725 -0.1006  0.4166
 1600SOL     hw 6398   6.587   3.664   3.712 -0.8120  0.8031  0.4042
 1600SOL     hw 6399   6.730   3.713   3.721 -0.3199 -0.4156 -0.6083
 1600SOL     vw 6400   6.648   3.715   3.749 -0.0222 -0.0226  0.2798
 1601SOL     ow 6401   0.648   6.029   5.086  0.1895  0.3488 -0.1150
 1601SOL     hw 6402   0.625   6.055   5.176  2.6689  2.5564 -0.0059
 1601SOL     hw 6403   0.665   5.935   5.093 -0.5455  0.2839  1.5084
 1601SOL     vw 6404   0.647   6.020   5.099  0.4196  0.6316  0.1137
 1602SOL     ow 6405   1.283   1.970   1.379  1.0863  0.0422 -0.0281
 1602SOL     hw 6406   1.219   1.913   1.339  1.0520 -0.8795  1.2650
 1602SOL     hw 6407   1.367   1.927   1.364  2.0037  2.7663 -4.5030
 1602SOL     vw 6408   1.286   1.957   1.372  1.2028  0.2800 -0.4479
 1603SOL     ow 6409   3.632   5.383   3.570  0.5392 -0.2262 -0.2412
 1603SOL     hw 6410   3.545   5.423   3.568  0.2188 -0.9505 -1.3997
 1603SOL     hw 6411   3.616   5.292   3.596  1.0670 -0.1288  0.4770
 1603SOL     vw 6412   3.618   5.376   3.573  0.5665 -0.3090 -0.2995
 1604SOL     ow 6413   0.388   7.576   7.549 -0.6842  0.6206  0.3682
 1604SOL     hw 6414   0.306   7.626   7.549 -0.7815  0.4808 -0.4891
 1604SOL     hw 6415   0.388   7.531   7.465 -0.9328 -1.4052  1.4035
 1604SOL     vw 6416   0.377   7.577   7.538 -0.7299  0.3345  0.3915
 1605SOL     ow 6417   0.521   2.289   4.308 -0.9159  0.5383 -0.0863
 1605SOL     hw 6418   0.534   2.206   4.355 -0.0816  0.6644 -0.0830
 1605SOL     hw 6419   0.445   2.273   4.252  0.2650 -0.8106 -1.3806
 1605SOL     vw 6420   0.512   2.276   4.307 -0.6500  0.3769 -0.2565
 1606SOL     ow 6421   1.975   7.384   4.788 -0.1209 -0.9854 -0.0180
 1606SOL     hw 6422   2.009   7.335   4.713 -1.1581 -1.4754 -0.1785
 1606SOL     hw 6423   1.887   7.350   4.801  0.2951 -1.4291  1.8921
 1606SOL     vw 6424   1.968   7.373   4.780 -0.2029 -1.1082  0.2129
 1607SOL     ow 6425   3.207   2.244   5.447  0.4359  0.3855 -0.1438
 1607SOL     hw 6426   3.189   2.337   5.436  1.1664  0.4172 -1.1663
 1607SOL     hw 6427   3.198   2.207   5.359  1.6395 -0.2352 -0.0207
 1607SOL     vw 6428   3.203   2.251   5.434  0.6912  0.3079 -0.2627
 1608SOL     ow 6429   1.871   6.977   4.974  0.1061  0.5952  0.7310
 1608SOL     hw 6430   1.839   6.890   4.949 -0.5882  0.7642  1.0073
 1608SOL     hw 6431   1.950   6.990   4.921 -1.2622  0.9230 -1.3359
 1608SOL     vw 6432   1.877   6.967   4.964 -0.1660  0.6607  0.4947
 1609SOL     ow 6433   0.194   4.048   2.140  0.5848  0.4051  0.1042
 1609SOL     hw 6434   0.284   4.077   2.124  1.0648  0.2417  2.2581
 1609SOL     hw 6435   0.140   4.117   2.099  1.6759  1.0286 -0.3449
 1609SOL     vw 6436   0.199   4.061   2.132  0.7921  0.4659  0.3290
 1610SOL     ow 6437   2.355   2.853   1.568  0.4232 -0.5002  0.6595
 1610SOL     hw 6438   2.381   2.907   1.643  0.6870 -0.7734  0.7700
 1610SOL     hw 6439   2.438   2.830   1.525  0.1833  1.0489 -0.7114
 1610SOL     vw 6440   2.369   2.857   1.572  0.4263 -0.3318  0.4932
 1611SOL     ow 6441   1.866   1.657   6.445 -0.3648 -0.0194 -0.9095
 1611SOL     hw 6442   1.799   1.634   6.510  2.4134 -2.7026  1.3600
 1611SOL     hw 6443   1.852   1.595   6.374 -1.4673  0.7913 -1.4234
 1611SOL     vw 6444   1.855   1.645   6.444 -0.1437 -0.2664 -0.6778
 1612SOL     ow 6445   6.328   7.103   4.990 -0.7118 -0.5613 -1.2718
 1612SOL     hw 6446   6.273   7.107   5.068 -0.5199 -0.5420 -1.1349
 1612SOL     hw 6447   6.378   7.022   5.000  0.3997  0.1772 -0.6248
 1612SOL     vw 6448   6.328   7.093   5.002 -0.5400 -0.4611 -1.1680
 1613SOL     ow 6449   2.054   3.775   5.331  0.2295 -0.0542 -0.5490
 1613SOL     hw 6450   2.012   3.745   5.411  1.7342 -2.2515 -0.4738
 1613SOL     hw 6451   1.999   3.740   5.260 -0.5454  1.0217 -0.4917
 1613SOL     vw 6452   2.041   3.766   5.332  0.3258 -0.2023 -0.5314
 1614SOL     ow 6453   2.205   5.579   2.400  0.5153 -1.0071  0.0772
 1614SOL     hw 6454   2.194   5.637   2.476  0.1418 -4.9244  3.3911
 1614SOL     hw 6455   2.297   5.554   2.402 -0.2672 -4.2986  2.0719
 1614SOL     vw 6456   2.216   5.583   2.410  0.3629 -1.9584  0.7776
 1615SOL     ow 6457   1.586   1.419   0.369 -0.0359  0.7415 -0.6141
 1615SOL     hw 6458   1.633   1.416   0.453 -1.7560 -1.0426  0.3519
 1615SOL     hw 6459   1.615   1.340   0.323  0.6820  1.5669 -1.6253
 1615SOL     vw 6460   1.596   1.408   0.374 -0.1681  0.6150 -0.6201
 1616SOL     ow 6461   5.340   2.178   2.029  0.1904 -0.0817  0.8555
 1616SOL     hw 6462   5.279   2.212   1.963  2.1112  1.1758 -0.3871
 1616SOL     hw 6463   5.413   2.144   1.978  2.2505  1.9282  2.2725
 1616SOL     vw 6464   5.342   2.178   2.014  0.7160  0.3495  0.8786
 1617SOL     ow 6465   0.196   4.075   6.284 -0.1887  0.6737 -0.8537
 1617SOL     hw 6466   0.277   4.125   6.290  0.5162 -0.5018 -0.0287
 1617SOL     hw 6467   0.142   4.108   6.356 -0.7615  1.9738 -1.8587
 1617SOL     vw 6468   0.200   4.086   6.294 -0.1713  0.6902 -0.8776
 1618SOL     ow 6469   1.548   1.975   1.734 -0.8032  0.1585 -0.8982
 1618SOL     hw 6470   1.484   1.972   1.805  0.0202  0.6578 -0.1141
 1618SOL     hw 6471   1.525   1.901   1.678  0.6275 -2.4969  1.7234
 1618SOL     vw 6472   1.536   1.965   1.736 -0.5058 -0.1260 -0.4488
 1619SOL     ow 6473   0.930   3.961   0.842  0.0233  0.3503 -0.2672
 1619SOL     hw 6474   0.970   4.008   0.769  2.3881 -0.7245  0.2328
 1619SOL     hw 6475   0.982   3.987   0.918 -2.0105  0.9939  0.9968
 1619SOL     vw 6476   0.942   3.971   0.843  0.0670  0.2935 -0.0344
 1620SOL     ow 6477   5.159   3.540   2.974  0.3374 -0.3805 -0.3862
 1620SOL     hw 6478   5.116   3.562   3.057 -0.9047 -1.3200 -0.7532
 1620SOL     hw 6479   5.156   3.444   2.970  4.7603 -0.7401  0.7248
 1620SOL     vw 6480   5.153   3.530   2.985  0.7572 -0.5518 -0.2879
 1621SOL     ow 6481   2.372   2.401   1.632 -0.1119 -0.1484  0.2491
 1621SOL     hw 6482   2.416   2.359   1.558  1.6096  1.5773  0.2043
 1621SOL     hw 6483   2.402   2.351   1.708 -2.3873 -2.3385 -0.1408
 1621SOL     vw 6484   2.382   2.389   1.632 -0.1850 -0.2097  0.1917
 1622SOL     ow 6485   2.560   1.661   2.297  0.0177 -0.4216 -0.0384
 1622SOL     hw 6486   2.562   1.710   2.215 -0.2037 -2.9780 -1.6824
 1622SOL     hw 6487   2.633   1.697   2.348  1.1187  0.2540 -1.9829
 1622SOL     vw 6488   2.570   1.672   2.293  0.1338 -0.6697 -0.5119
 1623SOL     ow 6489   0.807   0.328   7.482 -0.0746  0.3241 -0.1195
 1623SOL     hw 6490   0.899   0.331   7.509 -1.0106  0.5163  3.5663
 1623SOL     hw 6491   0.792   0.413   7.440  0.9538  1.2063  1.2087
 1623SOL     vw 6492   0.817   0.340   7.480 -0.0624  0.4659  0.5419
 1624SOL     ow 6493   3.066   7.130   7.372  0.1442 -0.1454 -0.2575
 1624SOL     hw 6494   3.003   7.067   7.335  1.0834 -1.8667  0.9417
 1624SOL     hw 6495   3.150   7.107   7.331  0.3984  0.7936 -0.2942
 1624SOL     vw 6496   3.069   7.119   7.361  0.3017 -0.2484 -0.1040
 1625SOL     ow 6497   2.818   5.357   5.401  0.4570  0.2013  0.0422
 1625SOL     hw 6498   2.848   5.334   5.313  1.3580 -1.7950  0.8218
 1625SOL     hw 6499   2.724   5.336   5.401 -0.1000  2.4119 -1.0975
 1625SOL     vw 6500   2.809   5.351   5.390  0.5023  0.2298 -0.0052
 1626SOL     ow 6501   6.272   4.252   0.114 -0.0504  0.7005  0.3942
 1626SOL     hw 6502   6.348   4.294   0.074  0.0193  0.2459  0.0387
 1626SOL     hw 6503   6.243   4.188   0.049 -0.7814  0.9165  0.4992
 1626SOL     vw 6504   6.278   4.249   0.100 -0.1378  0.6690  0.3612
 1627SOL     ow 6505   6.532   5.170   1.935  0.3426 -0.2720  0.5538
 1627SOL     hw 6506   6.472   5.169   1.860  0.9874 -2.2968  0.0036
 1627SOL     hw 6507   6.476   5.158   2.011 -0.4637  2.9810  0.6108
 1627SOL     vw 6508   6.517   5.168   1.935  0.3214 -0.1101  0.4888
 1628SOL     ow 6509   0.517   5.252   0.519  0.1613 -0.5837 -0.1100
 1628SOL     hw 6510   0.555   5.297   0.595 -0.4007 -2.0257  1.0810
 1628SOL     hw 6511   0.571   5.280   0.445  0.4486  1.2129  0.7335
 1628SOL     vw 6512   0.529   5.261   0.519  0.1251 -0.5369  0.1585
 1629SOL     ow 6513   3.951   6.302   2.866  0.9378  0.3978 -0.0957
 1629SOL     hw 6514   4.037   6.291   2.827  1.0018  1.4760 -0.3023
 1629SOL     hw 6515   3.950   6.243   2.941  0.4783 -2.4227 -2.1550
 1629SOL     vw 6516   3.962   6.293   2.871  0.8857  0.1681 -0.3945
 1630SOL     ow 6517   0.104   2.093   3.091  0.3609 -0.2076 -0.8654
 1630SOL     hw 6518   0.128   2.022   3.151 -2.6923 -1.6182 -1.1032
 1630SOL     hw 6519   0.123   2.058   3.004 -0.8910 -0.6796 -0.9689
 1630SOL     vw 6520   0.109   2.079   3.088 -0.2071 -0.4561 -0.9105
 1631SOL     ow 6521   3.758   6.836   0.401  0.1934  0.2608  0.2598
 1631SOL     hw 6522   3.719   6.820   0.487  0.6344  1.4360  0.7023
 1631SOL     hw 6523   3.684   6.837   0.341 -0.1383 -0.4076  0.6517
 1631SOL     vw 6524   3.743   6.834   0.405  0.2078  0.3276  0.3699
 1632SOL     ow 6525   2.760   2.486   0.063 -1.1590 -0.3724 -0.3222
 1632SOL     hw 6526   2.776   2.538  -0.016 -0.7449 -1.1998 -0.7989
 1632SOL     hw 6527   2.841   2.436   0.074 -1.0080  0.1270  0.9357
 1632SOL     vw 6528   2.773   2.486   0.054 -1.0843 -0.4156 -0.2191
 1633SOL     ow 6529   1.784   5.072   4.636 -0.6967 -0.1243  0.1475
 1633SOL     hw 6530   1.782   5.044   4.728  0.7679 -1.1465 -0.1027
 1633SOL     hw 6531   1.700   5.044   4.601  0.2793 -3.4804  0.1750
 1633SOL     vw 6532   1.773   5.065   4.643 -0.3747 -0.7019  0.1183
 1634SOL     ow 6533   3.074   0.520   6.474 -0.9776 -0.3629 -0.5832
 1634SOL     hw 6534   3.138   0.551   6.538 -1.7630 -0.4215  0.2528
 1634SOL     hw 6535   3.036   0.599   6.436 -1.1342 -0.3150 -0.3305
 1634SOL     vw 6536   3.077   0.534   6.477 -1.1019 -0.3643 -0.4394
 1635SOL     ow 6537   2.293   0.541   5.513 -0.2867  0.3598 -0.1204
 1635SOL     hw 6538   2.207   0.538   5.554  0.1605 -1.3309  0.7649
 1635SOL     hw 6539   2.284   0.488   5.434 -0.2595  0.8656 -0.4709
 1635SOL     vw 6540   2.281   0.534   5.508 -0.2242  0.2035 -0.0501
 1636SOL     ow 6541   1.974   7.555   5.206  0.4835  0.0478 -0.1818
 1636SOL     hw 6542   1.971   7.629   5.145  0.2317  0.2824  0.1127
 1636SOL     hw 6543   2.016   7.485   5.156 -1.6183 -0.4491 -1.3856
 1636SOL     vw 6544   1.979   7.556   5.191  0.1730  0.0129 -0.3016
 1637SOL     ow 6545   5.115   4.367   5.695 -0.1862 -0.5487 -0.4426
 1637SOL     hw 6546   5.199   4.413   5.689 -1.3368  1.6645 -0.6081
 1637SOL     hw 6547   5.133   4.293   5.753  1.5525  0.6876  0.7090
 1637SOL     vw 6548   5.129   4.364   5.702 -0.1085 -0.0937 -0.3126
 1638SOL     ow 6549   3.582   5.382   3.989  0.3086 -0.1603  0.1559
 1638SOL     hw 6550   3.548   5.316   3.928  2.1566 -1.1043  0.0742
 1638SOL     hw 6551   3.598   5.459   3.935 -0.7977  0.0016  0.0330
 1638SOL     vw 6552   3.580   5.383   3.974  0.4064 -0.2635  0.1290
 1639SOL     ow 6553   4.180   1.730   3.192  0.7626 -0.4484  0.3191
 1639SOL     hw 6554   4.254   1.759   3.245  1.6906 -0.7433 -0.7820
 1639SOL     hw 6555   4.156   1.807   3.141  2.0703 -1.0488 -1.2867
 1639SOL     vw 6556   4.187   1.744   3.192  1.0579 -0.5666 -0.0381
 1640SOL     ow 6557   0.466   0.373   0.255  0.9102 -0.2231 -0.0846
 1640SOL     hw 6558   0.447   0.460   0.221  1.6118 -0.1736 -0.3708
 1640SOL     hw 6559   0.447   0.379   0.349 -0.7091 -0.2638 -0.3861
 1640SOL     vw 6560   0.461   0.385   0.263  0.7891 -0.2219 -0.1622
 1641SOL     ow 6561   3.190   5.780   4.354 -0.8048 -0.3764 -0.1151
 1641SOL     hw 6562   3.260   5.782   4.419 -0.0420  0.9243 -0.9326
 1641SOL     hw 6563   3.110   5.799   4.403 -0.2467  0.5164  0.4675
 1641SOL     vw 6564   3.188   5.783   4.369 -0.6305 -0.0870 -0.1462
 1642SOL     ow 6565   1.318   4.347   5.420  0.0665 -0.1737  0.2391
 1642SOL     hw 6566   1.249   4.305   5.369  0.3309  0.8308 -0.9778
 1642SOL     hw 6567   1.288   4.339   5.511 -0.0354 -2.6688  0.0438
 1642SOL     vw 6568   1.305   4.341   5.425  0.0880 -0.3705  0.0525
 1643SOL     ow 6569   4.564   6.713   6.634 -0.0334  0.0001 -0.5255
 1643SOL     hw 6570   4.618   6.691   6.710  1.1318  1.2531 -0.9439
 1643SOL     hw 6571   4.474   6.706   6.665  0.4216  0.3831  0.9464
 1643SOL     vw 6572   4.559   6.709   6.648  0.1805  0.2160 -0.3867
 1644SOL     ow 6573   6.370   7.228   0.445  0.0339  0.1659 -0.7005
 1644SOL     hw 6574   6.405   7.190   0.365 -2.0201 -1.0086 -1.1361
 1644SOL     hw 6575   6.395   7.166   0.514 -0.0439  0.0359 -0.7888
 1644SOL     vw 6576   6.378   7.215   0.444 -0.2475 -0.0062 -0.7696
 1645SOL     ow 6577   3.515   4.161   2.413  0.4397 -0.0861 -0.1609
 1645SOL     hw 6578   3.437   4.109   2.431 -0.8172  0.9317 -2.1850
 1645SOL     hw 6579   3.527   4.214   2.491 -0.6250 -0.6111  0.3802
 1645SOL     vw 6580   3.506   4.162   2.425  0.1333 -0.0210 -0.3566
 1646SOL     ow 6581   2.889   2.391   5.506  1.4050 -0.1681 -0.3785
 1646SOL     hw 6582   2.801   2.373   5.471  1.0494  1.7677 -0.5606
 1646SOL     hw 6583   2.879   2.378   5.601  1.5155 -2.0966 -0.5882
 1646SOL     vw 6584   2.876   2.387   5.514  1.3726 -0.1673 -0.4299
 1647SOL     ow 6585   5.170   1.898   1.856  0.2789 -0.4992 -0.2004
 1647SOL     hw 6586   5.119   1.974   1.828 -0.6387 -1.4136 -1.0717
 1647SOL     hw 6587   5.163   1.899   1.952 -0.3321  0.1006 -0.2398
 1647SOL     vw 6588   5.162   1.908   1.865  0.0770 -0.5407 -0.3205
 1648SOL     ow 6589   3.386   4.476   1.433 -0.3184 -0.5664 -0.5754
 1648SOL     hw 6590   3.379   4.436   1.520  0.3437 -2.1987 -1.2321
 1648SOL     hw 6591   3.305   4.526   1.423 -0.9862 -1.3989  0.4886
 1648SOL     vw 6592   3.374   4.478   1.443 -0.3191 -0.8917 -0.5217
 1649SOL     ow 6593   0.617   4.999   3.763  0.4905 -0.6582  0.5827
 1649SOL     hw 6594   0.671   5.016   3.686 -0.0222  1.9022  0.7080
 1649SOL     hw 6595   0.528   5.017   3.735  0.2724  0.0986  1.7096
 1649SOL     vw 6596   0.612   5.004   3.749  0.3941 -0.2205  0.7480
 1650SOL     ow 6597   4.167   1.482   2.195 -0.1395  0.0617  0.0231
 1650SOL     hw 6598   4.132   1.506   2.280  2.0556 -0.4022  1.1406
 1650SOL     hw 6599   4.090   1.470   2.139 -1.8491 -2.2303  2.6065
 1650SOL     vw 6600   4.153   1.484   2.199 -0.0753 -0.3018  0.5114
 1651SOL     ow 6601   4.834   6.834   2.019  0.2664 -0.4273  0.3647
 1651SOL     hw 6602   4.887   6.847   2.098  0.3189  1.3665  0.0753
 1651SOL     hw 6603   4.745   6.824   2.052  0.3961 -0.5222  0.6900
 1651SOL     vw 6604   4.829   6.834   2.034  0.2904 -0.2029  0.3693
 1652SOL     ow 6605   0.787   5.867   3.958  0.2282  0.0392 -0.1336
 1652SOL     hw 6606   0.705   5.909   3.982  0.0794  0.3941 -1.2332
 1652SOL     hw 6607   0.794   5.879   3.863  0.5585 -1.7608 -0.3729
 1652SOL     vw 6608   0.777   5.874   3.949  0.2522 -0.1512 -0.3103
 1653SOL     ow 6609   4.668   4.348   1.172 -0.4915 -0.9546 -0.5122
 1653SOL     hw 6610   4.595   4.393   1.214 -1.8859 -2.3376 -1.3890
 1653SOL     hw 6611   4.646   4.347   1.079  0.8626 -1.0222 -0.8566
 1653SOL     vw 6612   4.656   4.354   1.166 -0.4971 -1.1463 -0.6733
 1654SOL     ow 6613   2.205   6.498   5.529  0.3074 -0.1449  0.5004
 1654SOL     hw 6614   2.268   6.533   5.466  0.1720 -2.0865 -0.8052
 1654SOL     hw 6615   2.256   6.436   5.582 -0.5202 -2.2391 -1.0025
 1654SOL     vw 6616   2.220   6.494   5.528  0.1804 -0.6771  0.1299
 1655SOL     ow 6617   7.284   2.418   0.599 -0.3802  0.3215 -0.1565
 1655SOL     hw 6618   7.359   2.427   0.658 -0.5032 -0.8004  0.1981
 1655SOL     hw 6619   7.284   2.499   0.548  0.3212  0.8774  0.6980
 1655SOL     vw 6620   7.294   2.430   0.600 -0.3037  0.2468  0.0030
 1656SOL     ow 6621   2.668   1.690   0.786 -0.4940 -1.2888  0.3116
 1656SOL     hw 6622   2.635   1.742   0.712  0.2411 -0.6223  0.4367
 1656SOL     hw 6623   2.740   1.742   0.822  0.5992 -2.6182  0.1449
 1656SOL     vw 6624   2.673   1.704   0.781 -0.2527 -1.3762  0.3061
 1657SOL     ow 6625   7.429   0.474   5.031  0.5170  0.3850 -0.3943
 1657SOL     hw 6626   7.424   0.521   4.947 -1.5919 -1.2044 -1.2553
 1657SOL     hw 6627   7.515   0.433   5.030  0.0184 -0.7827 -2.5211
 1657SOL     vw 6628   7.440   0.475   5.020  0.1729  0.0212 -0.7885
 1658SOL     ow 6629   3.095   6.988   0.016  0.1964  0.2299 -0.3524
 1658SOL     hw 6630   3.105   7.049  -0.057 -0.4715  0.1188 -0.5392
 1658SOL     hw 6631   3.020   6.934  -0.007 -0.6536  0.8375  0.8707
 1658SOL     vw 6632   3.087   6.989   0.003 -0.0037  0.2956 -0.2157
 1659SOL     ow 6633   1.615   2.857   1.319  0.1885  0.2783 -0.0863
 1659SOL     hw 6634   1.676   2.817   1.258  0.1039  1.9533 -1.3469
 1659SOL     hw 6635   1.554   2.787   1.342  1.4008 -0.8952 -0.3429
 1659SOL     vw 6636   1.615   2.842   1.314  0.3372  0.3444 -0.2865
 1660SOL     ow 6637   7.101   6.484   6.472  0.3880 -0.0221 -0.3145
 1660SOL     hw 6638   7.114   6.567   6.425  1.0151  1.3027  2.0246
 1660SOL     hw 6639   7.185   6.468   6.516  0.6407 -2.5468 -1.6038
 1660SOL     vw 6640   7.114   6.493   6.472  0.5038 -0.1802 -0.1757
 1661SOL     ow 6641   2.947   6.794   3.880  0.3461  0.0645 -0.3210
 1661SOL     hw 6642   3.011   6.849   3.926  1.5196  0.4515 -2.2843
 1661SOL     hw 6643   2.994   6.713   3.861 -1.6085 -2.1174  3.2226
 1661SOL     vw 6644   2.962   6.791   3.883  0.2431 -0.1721 -0.1124
 1662SOL     ow 6645   0.809   0.975   0.157 -0.1078 -0.7401  0.1365
 1662SOL     hw 6646   0.780   0.947   0.244 -0.8073  0.7330  0.3944
 1662SOL     hw 6647   0.782   0.903   0.099 -0.1652 -1.4612  1.0281
 1662SOL     vw 6648   0.802   0.962   0.161 -0.2077 -0.6409  0.2881
 1663SOL     ow 6649   6.543   7.169   1.607  0.1086 -0.1626 -0.1261
 1663SOL     hw 6650   6.516   7.250   1.563  0.9406 -0.8860 -2.1022
 1663SOL     hw 6651   6.542   7.190   1.700  0.1804  2.0781 -0.5822
 1663SOL     vw 6652   6.539   7.183   1.613  0.2277  0.0374 -0.4469
 1664SOL     ow 6653   3.391   2.224   1.205  0.1316 -0.0525  0.7134
 1664SOL     hw 6654   3.436   2.195   1.285 -0.3306  0.0497  1.0100
 1664SOL     hw 6655   3.375   2.317   1.219 -0.1297 -0.0794  0.5864
 1664SOL     vw 6656   3.395   2.232   1.218  0.0361 -0.0427  0.7358
 1665SOL     ow 6657   1.430   2.429   1.822 -0.2815 -0.9964  0.6360
 1665SOL     hw 6658   1.449   2.365   1.752 -0.3803 -3.1242  2.4556
 1665SOL     hw 6659   1.339   2.455   1.807 -0.7845 -2.5783  0.8136
 1665SOL     vw 6660   1.421   2.424   1.811 -0.3609 -1.4859  0.8995
 1666SOL     ow 6661   0.691   2.036   1.347 -0.3457  0.3520  0.6792
 1666SOL     hw 6662   0.609   2.024   1.299  0.3093 -2.5209  0.0913
 1666SOL     hw 6663   0.729   2.116   1.309 -1.8378  0.5240 -0.5763
 1666SOL     vw 6664   0.685   2.045   1.335 -0.4561 -0.0044  0.4361
 1667SOL     ow 6665   6.096   7.291   4.010 -0.1604  0.1962 -0.0656
 1667SOL     hw 6666   6.138   7.252   3.934 -0.4494  0.7488 -0.5138
 1667SOL     hw 6667   6.152   7.365   4.034 -0.5990  0.6221 -0.3507
 1667SOL     vw 6668   6.109   7.296   4.003 -0.2565  0.3254 -0.1626
 1668SOL     ow 6669   2.052   2.130   1.802 -0.2551  0.0646  0.0854
 1668SOL     hw 6670   2.056   2.060   1.736 -2.9293 -1.9483  1.8542
 1668SOL     hw 6671   2.088   2.091   1.881  2.4223  2.2768  0.0975
 1668SOL     vw 6672   2.057   2.116   1.804 -0.2546  0.0908  0.3204
 1669SOL     ow 6673   6.050   2.094   3.537  0.5035  0.1809  0.0623
 1669SOL     hw 6674   5.999   2.054   3.467  1.3161 -0.0295 -0.4163
 1669SOL     hw 6675   5.984   2.136   3.593 -0.2514 -0.6725 -0.1572
 1669SOL     vw 6676   6.034   2.094   3.535  0.5109  0.0405 -0.0298
 1670SOL     ow 6677   7.531   2.348   0.143 -0.0030  0.5304 -0.1827
 1670SOL     hw 6678   7.607   2.362   0.086 -0.2623 -2.4301 -1.4456
 1670SOL     hw 6679   7.468   2.304   0.087 -1.0714 -0.6920  1.8852
 1670SOL     vw 6680   7.533   2.344   0.128 -0.1781 -0.0215 -0.0765
 1671SOL     ow 6681   3.494   3.536   2.898 -0.2350 -0.4721  0.1132
 1671SOL     hw 6682   3.554   3.504   2.831  0.3520 -0.3772  0.5886
 1671SOL     hw 6683   3.407   3.510   2.867  0.2562 -3.9017  1.1724
 1671SOL     vw 6684   3.490   3.528   2.885 -0.0927 -0.9121  0.3155
 1672SOL     ow 6685   1.349   6.372   4.317  0.0098 -0.1898 -0.2854
 1672SOL     hw 6686   1.333   6.465   4.335 -0.2600 -0.6487  2.2157
 1672SOL     hw 6687   1.436   6.370   4.278  0.5019  1.0330  0.6919
 1672SOL     vw 6688   1.358   6.384   4.314  0.0392 -0.0889  0.1738
 1673SOL     ow 6689   5.464   3.341   6.230  0.2209  0.2807 -0.0209
 1673SOL     hw 6690   5.421   3.345   6.144  0.1151 -0.9126 -0.0492
 1673SOL     hw 6691   5.449   3.427   6.269 -2.3463 -0.1240  0.0287
 1673SOL     vw 6692   5.456   3.353   6.223 -0.1316  0.0699 -0.0181
 1674SOL     ow 6693   0.312   0.822   4.280  0.4295 -0.4160 -0.6626
 1674SOL     hw 6694   0.288   0.758   4.214  3.7103 -0.4442 -2.0099
 1674SOL     hw 6695   0.406   0.811   4.291  0.8190  2.9174  0.4266
 1674SOL     vw 6696   0.321   0.812   4.273  0.9138  0.0201 -0.6964
 1675SOL     ow 6697   0.557   0.082   6.238 -0.4904 -0.7956  0.1926
 1675SOL     hw 6698   0.579   0.128   6.157  0.5796 -0.0293  0.8963
 1675SOL     hw 6699   0.553  -0.010   6.212 -1.3759 -0.4601 -0.9678
 1675SOL     vw 6700   0.559   0.076   6.224 -0.4660 -0.6502  0.1323
 1676SOL     ow 6701   0.260   3.116   2.053  0.1336 -0.5415  0.2860
 1676SOL     hw 6702   0.335   3.071   2.016  0.9324  2.0015 -1.4209
 1676SOL     hw 6703   0.292   3.204   2.073 -1.6503 -0.2734  2.3193
 1676SOL     vw 6704   0.274   3.121   2.051  0.0036 -0.1707  0.3290
 1677SOL     ow 6705   7.572   3.980   2.920  0.0610  0.1629  0.6295
 1677SOL     hw 6706   7.557   4.071   2.896 -0.4976 -0.5188 -1.8595
 1677SOL     hw 6707   7.485   3.945   2.939  0.1695 -0.0964  0.6525
 1677SOL     vw 6708   7.559   3.988   2.919  0.0016  0.0387  0.3040
 1678SOL     ow 6709   6.329   2.433   0.470 -0.0636  0.5096  0.4421
 1678SOL     hw 6710   6.241   2.423   0.434  0.7498 -0.1091 -1.5044
 1678SOL     hw 6711   6.349   2.348   0.509 -0.2003  0.5592  0.6248
 1678SOL     vw 6712   6.320   2.420   0.471  0.0255  0.4345  0.2094
 1679SOL     ow 6713   1.509   6.453   1.218 -0.0386  0.2028  0.4266
 1679SOL     hw 6714   1.517   6.526   1.280 -0.0758 -0.4772  1.2647
 1679SOL     hw 6715   1.441   6.397   1.257 -1.5297  0.7555 -1.2743
 1679SOL     vw 6716   1.501   6.455   1.232 -0.2403  0.1860  0.3127
 1680SOL     ow 6717   5.706   0.637   7.138  0.2682  0.0035 -0.2456
 1680SOL     hw 6718   5.627   0.683   7.168 -0.1050 -1.3721  1.0296
 1680SOL     hw 6719   5.672   0.562   7.088  0.6913 -1.1862  1.1871
 1680SOL     vw 6720   5.691   0.633   7.135  0.2751 -0.3349  0.1118
 1681SOL     ow 6721   6.628   6.734   5.847 -0.0162 -0.0294 -0.0137
 1681SOL     hw 6722   6.697   6.735   5.913 -0.2436 -1.2548  0.2773
 1681SOL     hw 6723   6.554   6.692   5.891  0.1316 -1.7629 -1.3248
 1681SOL     vw 6724   6.627   6.729   5.861 -0.0267 -0.4199 -0.1483
 1682SOL     ow 6725   0.474   2.817   6.466 -0.1103 -0.0161  0.1681
 1682SOL     hw 6726   0.441   2.900   6.432 -1.2378 -0.0152  1.2145
 1682SOL     hw 6727   0.569   2.824   6.457 -0.2838  0.0831 -2.7159
 1682SOL     vw 6728   0.482   2.829   6.460 -0.2819 -0.0030 -0.0744
 1683SOL     ow 6729   0.848   4.288   0.408  0.2295 -0.2657 -0.6204
 1683SOL     hw 6730   0.854   4.376   0.445  2.5632 -0.8978  0.7153
 1683SOL     hw 6731   0.766   4.289   0.358  0.2024  2.6534 -0.7107
 1683SOL     vw 6732   0.838   4.300   0.407  0.5338  0.0360 -0.4561
 1684SOL     ow 6733   0.182   4.113   2.397 -0.5496  0.1584  0.1529
 1684SOL     hw 6734   0.188   4.086   2.306 -0.2382  1.0522 -0.0974
 1684SOL     hw 6735   0.272   4.131   2.424 -0.7376  0.9105  0.3154
 1684SOL     vw 6736   0.195   4.112   2.389 -0.5333  0.3753  0.1413
 1685SOL     ow 6737   3.537   2.617   2.817  0.2741 -0.0225 -0.0982
 1685SOL     hw 6738   3.555   2.711   2.827  1.1634 -0.1618 -0.3252
 1685SOL     hw 6739   3.588   2.591   2.740  1.0309 -0.9656  0.7035
 1685SOL     vw 6740   3.546   2.626   2.808  0.4913 -0.1653 -0.0223
 1686SOL     ow 6741   0.254   0.302   6.146  0.2755  0.1132  0.2726
 1686SOL     hw 6742   0.190   0.287   6.216 -0.5835  0.6232 -0.3730
 1686SOL     hw 6743   0.201   0.333   6.072  1.1264 -0.7290 -0.7098
 1686SOL     vw 6744   0.238   0.304   6.146  0.2744  0.0694  0.0579
 1687SOL     ow 6745   2.412   7.402   3.854  0.1856 -0.5011  0.1058
 1687SOL     hw 6746   2.381   7.344   3.784 -1.4741  2.7393 -2.1001
 1687SOL     hw 6747   2.499   7.430   3.825 -0.3136  0.4851 -0.4923
 1687SOL     vw 6748   2.419   7.398   3.841 -0.0993  0.0565 -0.2642
 1688SOL     ow 6749   4.749   6.980   6.529  0.4736  0.4570 -0.0540
 1688SOL     hw 6750   4.747   7.021   6.615 -0.3817  3.1533 -1.2563
 1688SOL     hw 6751   4.786   7.047   6.471 -2.5442  0.2711 -2.4410
 1688SOL     vw 6752   4.753   6.994   6.532 -0.0372  0.7882 -0.5274
 1689SOL     ow 6753   5.487   4.299   6.719  0.1063 -0.4715  0.4974
 1689SOL     hw 6754   5.486   4.317   6.625  0.1098  0.2645  0.6325
 1689SOL     hw 6755   5.404   4.255   6.736 -0.9024  1.3811  0.5182
 1689SOL     vw 6756   5.476   4.295   6.709 -0.0262 -0.1299  0.5181
 1690SOL     ow 6757   7.297   3.523   2.093 -0.2052 -0.3840 -0.0728
 1690SOL     hw 6758   7.276   3.534   2.000 -2.3193  0.4667  0.4628
 1690SOL     hw 6759   7.346   3.602   2.116 -3.2209  1.4692  0.4341
 1690SOL     vw 6760   7.301   3.535   2.083 -0.8819 -0.0272  0.0648
 1691SOL     ow 6761   1.945   2.730   1.955 -0.3980  0.2103 -0.7892
 1691SOL     hw 6762   1.937   2.803   1.893 -0.6231  0.8912  0.0329
 1691SOL     hw 6763   1.932   2.769   2.041 -0.7588 -0.8380 -0.3449
 1691SOL     vw 6764   1.942   2.745   1.958 -0.4754  0.1619 -0.6221
 1692SOL     ow 6765   1.742   2.969   3.402 -0.2181 -0.0798  0.6010
 1692SOL     hw 6766   1.757   3.049   3.451  0.7157 -0.0682  0.3165
 1692SOL     hw 6767   1.663   2.932   3.440  0.5545 -0.1564  2.2267
 1692SOL     vw 6768   1.734   2.974   3.413  0.0070 -0.0885  0.7781
 1693SOL     ow 6769   1.735   5.059   6.405  0.4961  0.0637 -0.0473
 1693SOL     hw 6770   1.805   5.120   6.428  1.2592 -0.5917 -0.5606
 1693SOL     hw 6771   1.698   5.095   6.324 -0.3481  0.8699  0.6747
 1693SOL     vw 6772   1.740   5.072   6.397  0.4855  0.0834 -0.0200
 1694SOL     ow 6773   5.710   0.814   4.391 -0.0202  0.4060 -0.4580
 1694SOL     hw 6774   5.674   0.784   4.475 -1.5566  0.1788 -1.1673
 1694SOL     hw 6775   5.804   0.806   4.401 -0.1947  0.0964  1.1476
 1694SOL     vw 6776   5.717   0.809   4.403 -0.2460  0.3352 -0.3395
 1695SOL     ow 6777   6.672   3.123   1.524 -0.3646 -0.5809 -0.0956
 1695SOL     hw 6778   6.676   3.184   1.598  1.8382  0.5793 -1.0604
 1695SOL     hw 6779   6.593   3.071   1.540 -0.3027  0.0162  2.7180
 1695SOL     vw 6780   6.662   3.125   1.536 -0.0658 -0.3490  0.1484
 1696SOL     ow 6781   3.869   0.709   4.526 -0.8081  0.0988 -0.5064
 1696SOL     hw 6782   3.931   0.744   4.462 -0.9418  0.3493 -0.5011
 1696SOL     hw 6783   3.807   0.781   4.541 -0.2841  0.3446  0.5496
 1696SOL     vw 6784   3.869   0.723   4.520 -0.7567  0.1643 -0.3662
 1697SOL     ow 6785   4.916   4.364   1.314  0.6361 -1.2203 -0.3138
 1697SOL     hw 6786   4.842   4.359   1.254  0.1191 -0.4312  0.2290
 1697SOL     hw 6787   4.985   4.407   1.263  0.0090 -0.0161 -0.1906
 1697SOL     vw 6788   4.915   4.369   1.299  0.4852 -0.9568 -0.2260
 1698SOL     ow 6789   1.090   2.928   1.945 -0.2474  0.0540  0.6850
 1698SOL     hw 6790   1.083   2.919   2.040  0.4161 -1.2204  0.6389
 1698SOL     hw 6791   1.107   3.021   1.931  0.1706  0.1715  1.8521
 1698SOL     vw 6792   1.092   2.939   1.955 -0.1047 -0.0986  0.8329
 1699SOL     ow 6793   0.488   0.959   4.665 -0.0569 -0.7164  0.3018
 1699SOL     hw 6794   0.489   0.932   4.757  2.8912  0.6823  0.8350
 1699SOL     hw 6795   0.579   0.947   4.637 -0.8667 -0.9766 -2.4314
 1699SOL     vw 6796   0.500   0.954   4.674  0.2252 -0.5662  0.0114
 1700SOL     ow 6797   0.906   7.441   6.184  0.2388  0.2538  0.8257
 1700SOL     hw 6798   0.962   7.503   6.230 -0.3094 -0.3558  2.3927
 1700SOL     hw 6799   0.962   7.365   6.169  0.2070  0.1554  1.1954
 1700SOL     vw 6800   0.921   7.439   6.188  0.1623  0.1602  1.0812
 1701SOL     ow 6801   3.411   5.478   1.813  0.3381  0.1608  0.0444
 1701SOL     hw 6802   3.391   5.424   1.890 -0.8731 -2.6610 -2.0421
 1701SOL     hw 6803   3.328   5.483   1.766  0.9559  2.1250 -0.9347
 1701SOL     vw 6804   3.397   5.471   1.817  0.2599  0.0477 -0.3601
 1702SOL     ow 6805   5.212   5.389   0.544  0.3003  0.8720 -0.0710
 1702SOL     hw 6806   5.194   5.480   0.520  1.1944  0.8602 -0.8386
 1702SOL     hw 6807   5.254   5.351   0.467 -0.9188 -0.4787 -0.1226
 1702SOL     vw 6808   5.215   5.396   0.531  0.2573  0.6921 -0.1790
 1703SOL     ow 6809   7.017   5.465   2.400  0.5390  0.3826 -0.5948
 1703SOL     hw 6810   6.932   5.441   2.437  0.0487  0.2413 -1.7676
 1703SOL     hw 6811   7.062   5.381   2.389  1.3353  0.5422  1.1361
 1703SOL     vw 6812   7.012   5.450   2.403  0.5794  0.3850 -0.5212
 1704SOL     ow 6813   2.412   1.344   6.292 -0.3224  0.1991 -0.4913
 1704SOL     hw 6814   2.348   1.274   6.301  2.3252 -2.4273 -0.6671
 1704SOL     hw 6815   2.403   1.373   6.201 -1.0454 -0.3343 -0.5986
 1704SOL     vw 6816   2.403   1.339   6.281 -0.0684 -0.2177 -0.5286
 1705SOL     ow 6817   2.498   5.655   3.712  0.1237  0.3423 -0.0272
 1705SOL     hw 6818   2.433   5.677   3.779  0.1624  0.1947  0.0610
 1705SOL     hw 6819   2.579   5.696   3.743  0.2693 -0.1681  0.2960
 1705SOL     vw 6820   2.500   5.663   3.725  0.1479  0.2553  0.0271
 1706SOL     ow 6821   3.172   7.307   5.817 -0.0713 -0.2249  0.0499
 1706SOL     hw 6822   3.224   7.269   5.745 -0.3925  0.8057 -0.7561
 1706SOL     hw 6823   3.102   7.244   5.832 -2.0379  1.0182 -2.9129
 1706SOL     vw 6824   3.170   7.294   5.809 -0.3732  0.0751 -0.4473
 1707SOL     ow 6825   0.990   0.539   0.756 -0.0728 -0.0373 -0.2586
 1707SOL     hw 6826   1.038   0.484   0.818 -0.6678  0.1152  0.3547
 1707SOL     hw 6827   0.906   0.556   0.799 -0.8675 -0.6732 -1.4943
 1707SOL     vw 6828   0.985   0.534   0.770 -0.2561 -0.1011 -0.3407
 1708SOL     ow 6829   5.142   2.298   1.860 -0.2704 -0.3245  0.0299
 1708SOL     hw 6830   5.106   2.368   1.805  0.3311 -1.5676 -2.0924
 1708SOL     hw 6831   5.115   2.319   1.948 -0.2048  2.5171 -0.5483
 1708SOL     vw 6832   5.134   2.310   1.864 -0.1824 -0.1136 -0.3264
 1709SOL     ow 6833   2.862   6.109   3.260  0.1439 -0.0128 -0.1551
 1709SOL     hw 6834   2.781   6.155   3.281 -1.2434 -2.6228  0.6380
 1709SOL     hw 6835   2.928   6.149   3.318 -1.4126 -0.2787  1.9059
 1709SOL     vw 6836   2.860   6.120   3.270 -0.2446 -0.3922  0.2214
 1710SOL     ow 6837   3.965   1.902   2.244  0.0021  0.0255  0.1106
 1710SOL     hw 6838   3.898   1.898   2.175 -1.3521  3.3266  1.0183
 1710SOL     hw 6839   3.953   1.821   2.293 -0.3890 -1.4520 -2.2543
 1710SOL     vw 6840   3.954   1.891   2.241 -0.2282  0.2660 -0.0815
 1711SOL     ow 6841   0.738   6.631   2.486 -0.1805  0.1049 -0.4259
 1711SOL     hw 6842   0.796   6.555   2.480  1.1351  1.1091 -0.9938
 1711SOL     hw 6843   0.756   6.681   2.406 -1.3899  0.7586 -0.3073
 1711SOL     vw 6844   0.748   6.628   2.474 -0.1665  0.3235 -0.4852
 1712SOL     ow 6845   4.998   3.991   4.874 -0.2233 -0.2715 -0.6252
 1712SOL     hw 6846   5.092   3.993   4.856 -0.1254  0.1567 -0.0958
 1712SOL     hw 6847   4.957   4.016   4.791  0.1471  0.0218 -0.7229
 1712SOL     vw 6848   5.005   3.995   4.861 -0.1614 -0.1763 -0.5682
 1713SOL     ow 6849   6.308   4.864   3.583  0.1571 -0.2566 -0.2946
 1713SOL     hw 6850   6.285   4.832   3.496 -2.0625 -1.9480  0.8256
 1713SOL     hw 6851   6.286   4.792   3.642  0.9490  1.0928  1.7591
 1713SOL     vw 6852   6.302   4.850   3.580 -0.0315 -0.3016  0.1242
 1714SOL     ow 6853   2.569   5.279   5.417 -0.1988 -0.9389 -0.8556
 1714SOL     hw 6854   2.586   5.233   5.336 -0.8703 -4.3038  0.7615
 1714SOL     hw 6855   2.483   5.320   5.404  0.4478  0.0061 -2.3658
 1714SOL     vw 6856   2.560   5.279   5.405 -0.2021 -1.2581 -0.8416
 1715SOL     ow 6857   4.940   2.450   1.676  0.4690  0.1388 -0.7188
 1715SOL     hw 6858   4.917   2.359   1.657 -1.0179  0.5986 -1.2781
 1715SOL     hw 6859   4.963   2.487   1.591  1.7207  0.1355 -0.3975
 1715SOL     vw 6860   4.940   2.443   1.662  0.4380  0.1988 -0.7502
 1716SOL     ow 6861   5.603   2.055   6.974 -1.0047  0.4028 -0.9661
 1716SOL     hw 6862   5.551   2.071   7.052 -0.3172  1.6486 -0.7337
 1716SOL     hw 6863   5.684   2.105   6.988  1.3432 -3.2074 -0.2799
 1716SOL     vw 6864   5.607   2.064   6.986 -0.6044  0.0907 -0.8452
 1717SOL     ow 6865   4.424   2.865   0.517  0.4517  0.4453  0.7408
 1717SOL     hw 6866   4.374   2.808   0.576  1.3901 -0.1340  1.0020
 1717SOL     hw 6867   4.457   2.935   0.573  0.0376  0.7702  0.5876
 1717SOL     vw 6868   4.422   2.867   0.532  0.5207  0.4117  0.7550
 1718SOL     ow 6869   5.777   1.869   6.905  0.1752 -0.2078  0.0965
 1718SOL     hw 6870   5.848   1.897   6.962  0.2959  0.7882 -0.5228
 1718SOL     hw 6871   5.714   1.940   6.909 -0.5828 -0.8740  0.2688
 1718SOL     vw 6872   5.778   1.882   6.913  0.0913 -0.1643  0.0374
 1719SOL     ow 6873   2.381   6.776   1.401  0.2147  0.8875 -0.4410
 1719SOL     hw 6874   2.448   6.707   1.392 -0.9287 -0.8887  3.0565
 1719SOL     hw 6875   2.304   6.739   1.358  0.0688  0.6756 -0.0048
 1719SOL     vw 6876   2.380   6.762   1.394  0.0445  0.6251  0.0780
 1720SOL     ow 6877   1.815   0.732   6.516  0.3244 -0.5034  0.2039
 1720SOL     hw 6878   1.826   0.679   6.438 -2.2781  2.2443 -2.2901
 1720SOL     hw 6879   1.852   0.817   6.494  1.7322 -0.2755  2.9475
 1720SOL     vw 6880   1.821   0.736   6.503  0.1668 -0.1108  0.2370
 1721SOL     ow 6881   0.475   5.902   2.737 -0.3860  0.4228  0.3474
 1721SOL     hw 6882   0.548   5.873   2.791 -0.4661 -1.6362 -0.5561
 1721SOL     hw 6883   0.415   5.944   2.799  0.3558 -0.2506  1.5655
 1721SOL     vw 6884   0.476   5.904   2.752 -0.2987  0.0622  0.3890
 1722SOL     ow 6885   2.082   7.344   5.042  0.1316 -0.2557  0.2990
 1722SOL     hw 6886   2.023   7.349   4.967  0.3336  3.9242  0.1748
 1722SOL     hw 6887   2.046   7.274   5.097 -0.3778 -3.0652 -3.2652
 1722SOL     vw 6888   2.069   7.336   5.040  0.0912 -0.0746 -0.1874
 1723SOL     ow 6889   7.399   1.779   7.139 -0.7588  0.0835 -0.1195
 1723SOL     hw 6890   7.372   1.693   7.172 -0.6776 -0.1927 -0.7562
 1723SOL     hw 6891   7.332   1.801   7.074  0.3031 -0.4358 -1.4444
 1723SOL     vw 6892   7.386   1.770   7.135 -0.6077 -0.0214 -0.3784
 1724SOL     ow 6893   5.529   3.775   6.024  1.1245 -0.0513  0.3421
 1724SOL     hw 6894   5.467   3.708   6.051  1.2019  0.4512  1.8780
 1724SOL     hw 6895   5.565   3.744   5.942 -0.9221 -0.5114 -0.4284
 1724SOL     vw 6896   5.526   3.762   6.017  0.8647 -0.0459  0.4430
 1725SOL     ow 6897   5.741   1.775   1.758  0.7645  0.1420 -0.6165
 1725SOL     hw 6898   5.824   1.822   1.752 -0.1962  1.8113 -1.4800
 1725SOL     hw 6899   5.686   1.829   1.814  0.2528 -0.9548 -0.0375
 1725SOL     vw 6900   5.745   1.788   1.765  0.5703  0.2176 -0.6541
 1726SOL     ow 6901   2.521   4.147   2.427 -0.4618  1.1711  0.0008
 1726SOL     hw 6902   2.559   4.185   2.348 -1.4254  0.2133 -0.9569
 1726SOL     hw 6903   2.586   4.084   2.457  0.5227  2.5073  0.8022
 1726SOL     vw 6904   2.534   4.144   2.421 -0.4590  1.2212 -0.0198
 1727SOL     ow 6905   1.372   2.733   3.680 -0.0257  0.2048 -0.5214
 1727SOL     hw 6906   1.388   2.656   3.734 -0.4454 -0.0008 -0.6867
 1727SOL     hw 6907   1.385   2.807   3.739  1.2611  0.0497 -0.5828
 1727SOL     vw 6908   1.375   2.733   3.695  0.0888  0.1574 -0.5512
 1728SOL     ow 6909   3.797   0.445   4.631 -0.0777  0.5329 -0.0583
 1728SOL     hw 6910   3.823   0.534   4.608 -0.4886  1.2985  2.1433
 1728SOL     hw 6911   3.732   0.421   4.565  0.1868  1.7837 -0.8080
 1728SOL     vw 6912   3.792   0.454   4.619 -0.0970  0.7989  0.1335
 1729SOL     ow 6913   3.524   2.982   2.230  0.4065  0.1400 -0.4809
 1729SOL     hw 6914   3.502   2.999   2.322  0.1301  1.7715 -0.8336
 1729SOL     hw 6915   3.460   2.916   2.202  1.1887 -1.2338  0.7774
 1729SOL     vw 6916   3.513   2.975   2.239  0.4731  0.1739 -0.3613
 1730SOL     ow 6917   1.061   1.474   7.277 -0.0591  0.0752  0.2283
 1730SOL     hw 6918   1.106   1.531   7.215 -0.7834  0.9326  0.4612
 1730SOL     hw 6919   1.006   1.534   7.328 -1.0828 -0.8791  0.2705
 1730SOL     vw 6920   1.060   1.490   7.276 -0.2897  0.0625  0.2649
 1731SOL     ow 6921   1.323   3.605   0.206  1.1409  0.2729  0.0001
 1731SOL     hw 6922   1.333   3.672   0.273 -0.0986 -0.7575  1.2926
 1731SOL     hw 6923   1.267   3.645   0.140 -0.2386  0.3199  1.1361
 1731SOL     vw 6924   1.317   3.619   0.206  0.7953  0.1431  0.3205
 1732SOL     ow 6925   0.625   4.562   4.083 -0.0098 -0.1605 -0.2254
 1732SOL     hw 6926   0.683   4.495   4.117 -0.0675  0.5673  1.3662
 1732SOL     hw 6927   0.647   4.641   4.132 -0.2634  0.8964 -1.7282
 1732SOL     vw 6928   0.635   4.564   4.094 -0.0509  0.0751 -0.2136
 1733SOL     ow 6929   2.587   4.916   3.854  0.1145  0.2844 -0.4516
 1733SOL     hw 6930   2.674   4.953   3.870  0.8772 -2.5708  3.1818
 1733SOL     hw 6931   2.601   4.847   3.789 -0.1771  1.9377 -2.3799
 1733SOL     vw 6932   2.600   4.912   3.847  0.1767  0.1259 -0.2266
 1734SOL     ow 6933   5.360   6.563   0.471 -0.1292 -0.3505  0.3034
 1734SOL     hw 6934   5.405   6.541   0.552  3.5337 -0.9080 -1.6363
 1734SOL     hw 6935   5.320   6.481   0.443 -1.7738 -0.0569  1.6588
 1734SOL     vw 6936   5.361   6.549   0.478  0.1371 -0.3850  0.2263
 1735SOL     ow 6937   2.170   3.167   1.586 -0.4927 -0.6210 -0.6263
 1735SOL     hw 6938   2.132   3.223   1.654  0.2743  0.1068 -0.7901
 1735SOL     hw 6939   2.121   3.085   1.593 -0.1902 -0.6898  1.0319
 1735SOL     vw 6940   2.158   3.163   1.596 -0.3515 -0.5341 -0.4292
 1736SOL     ow 6941   5.294   2.383   2.859 -0.0442  0.1099  0.7955
 1736SOL     hw 6942   5.202   2.406   2.861 -0.4133 -1.1649  0.0102
 1736SOL     hw 6943   5.302   2.321   2.786  1.7663  1.5369 -0.3098
 1736SOL     vw 6944   5.283   2.378   2.849  0.1462  0.1299  0.5461
 1737SOL     ow 6945   5.396   0.919   0.867  0.1117  0.3564 -0.4862
 1737SOL     hw 6946   5.483   0.911   0.829  0.6612  0.5103  0.6720
 1737SOL     hw 6947   5.404   0.993   0.928 -1.3626  1.6105 -1.7470
 1737SOL     vw 6948   5.409   0.928   0.870 -0.0100  0.5421 -0.4998
 1738SOL     ow 6949   3.643   1.938   7.440  0.0636 -0.3202  0.7971
 1738SOL     hw 6950   3.677   1.879   7.373  0.1881 -0.5804  1.0906
 1738SOL     hw 6951   3.695   2.018   7.431  0.6000 -0.6372  1.1006
 1738SOL     vw 6952   3.654   1.941   7.430  0.1509 -0.3964  0.8759
 1739SOL     ow 6953   5.069   5.246   0.743  0.6183 -0.0054 -0.1686
 1739SOL     hw 6954   5.096   5.156   0.763 -0.1640 -0.3779 -0.7297
 1739SOL     hw 6955   5.136   5.279   0.683  2.5221  0.8270  2.2488
 1739SOL     vw 6956   5.082   5.238   0.737  0.7663  0.0551  0.0764
 1740SOL     ow 6957   4.780   6.786   3.351  0.6931  0.8073  0.0437
 1740SOL     hw 6958   4.775   6.879   3.329  0.7840  0.7840 -0.0823
 1740SOL     hw 6959   4.820   6.746   3.274 -0.7488  0.4334 -0.5404
 1740SOL     vw 6960   4.785   6.793   3.338  0.5147  0.7553 -0.0501
 1741SOL     ow 6961   3.353   0.148   5.779  0.7068  0.2214  0.1333
 1741SOL     hw 6962   3.430   0.153   5.723  1.0194  0.1135  0.5497
 1741SOL     hw 6963   3.306   0.230   5.762 -2.0901 -1.9263 -4.3515
 1741SOL     vw 6964   3.357   0.160   5.770  0.3790 -0.0762 -0.4034
 1742SOL     ow 6965   3.448   3.802   5.690 -0.1792 -0.0929  0.2976
 1742SOL     hw 6966   3.437   3.872   5.626 -0.0838 -0.1820  0.1836
 1742SOL     hw 6967   3.417   3.723   5.645  1.2128 -0.4140 -0.1488
 1742SOL     vw 6968   3.442   3.801   5.676  0.0172 -0.1470  0.2236
 1743SOL     ow 6969   2.465   4.799   0.525 -0.0288 -0.2807 -0.4487
 1743SOL     hw 6970   2.490   4.789   0.433 -1.0883  1.3884 -0.9495
 1743SOL     hw 6971   2.432   4.888   0.532  1.4383  0.1506  1.9213
 1743SOL     vw 6972   2.464   4.809   0.514  0.0250 -0.0036 -0.2021
 1744SOL     ow 6973   1.472   4.908   0.526 -0.0576  0.5952  0.0340
 1744SOL     hw 6974   1.518   4.824   0.538  0.0434  0.5583 -0.5754
 1744SOL     hw 6975   1.383   4.891   0.557 -0.1121  0.1776 -0.3387
 1744SOL     vw 6976   1.466   4.894   0.531 -0.0516  0.5352 -0.0956
 1745SOL     ow 6977   2.364   1.306   2.211 -0.7050 -0.1972  0.3735
 1745SOL     hw 6978   2.460   1.303   2.211 -0.6989 -0.1343  0.8178
 1745SOL     hw 6979   2.342   1.362   2.285 -1.0979 -1.1784  1.0239
 1745SOL     vw 6980   2.373   1.313   2.221 -0.7559 -0.3183  0.5180
 1746SOL     ow 6981   5.145   4.059   1.914  0.3947  0.0873 -0.2404
 1746SOL     hw 6982   5.083   4.054   1.986  0.7371  1.1325  0.1557
 1746SOL     hw 6983   5.135   4.148   1.880  1.9910  0.4560  0.1529
 1746SOL     vw 6984   5.136   4.070   1.919  0.6509  0.2735 -0.1363
 1747SOL     ow 6985   6.644   5.678   4.414 -0.1802 -0.2725  0.4397
 1747SOL     hw 6986   6.561   5.695   4.458  0.0797 -1.5040  1.4727
 1747SOL     hw 6987   6.627   5.600   4.361  0.9769 -2.2931  2.8264
 1747SOL     vw 6988   6.631   5.670   4.413  0.0069 -0.7017  0.8910
 1748SOL     ow 6989   4.745   1.450   3.325 -0.4867 -0.1544  0.4755
 1748SOL     hw 6990   4.783   1.382   3.268  0.8144  1.0937 -0.2129
 1748SOL     hw 6991   4.796   1.529   3.306 -1.6677  0.9290  1.5754
 1748SOL     vw 6992   4.757   1.451   3.315 -0.4709  0.1532  0.5299
 1749SOL     ow 6993   0.353   6.504   5.816  0.3428  0.1927 -0.5072
 1749SOL     hw 6994   0.383   6.516   5.906 -1.4224 -0.1284  0.1604
 1749SOL     hw 6995   0.364   6.590   5.776  2.2817  0.0505 -0.3811
 1749SOL     vw 6996   0.359   6.517   5.823  0.3657  0.1316 -0.4025
 1750SOL     ow 6997   4.903   0.528   1.655  0.1316  0.3027  1.1183
 1750SOL     hw 6998   4.848   0.527   1.733 -1.0735 -0.3133  0.3008
 1750SOL     hw 6999   4.851   0.575   1.589  1.4973  1.6036  0.9207
 1750SOL     vw 7000   4.888   0.534   1.656  0.1528  0.3931  0.9844
 1751SOL     ow 7001   0.037   2.341   3.152 -0.2894 -0.2248 -0.2166
 1751SOL     hw 7002   0.052   2.349   3.246 -1.9963 -0.8562  0.1391
 1751SOL     hw 7003   0.055   2.249   3.132  0.4935  0.0014 -0.6122
 1751SOL     vw 7004   0.041   2.330   3.161 -0.4113 -0.2784 -0.2218
 1752SOL     ow 7005   0.634   6.148   1.869 -0.0912  0.1591  0.6926
 1752SOL     hw 7006   0.632   6.164   1.775  0.6425  0.9802  0.8055
 1752SOL     hw 7007   0.682   6.066   1.878  1.7735  1.1669  0.4516
 1752SOL     vw 7008   0.640   6.139   1.858  0.2517  0.4003  0.6757
 1753SOL     ow 7009   2.131   6.706   5.723  0.4761 -0.0888  0.6082
 1753SOL     hw 7010   2.137   6.634   5.660 -1.2496 -1.6310  2.0933
 1753SOL     hw 7011   2.087   6.776   5.674  2.1125  0.0159 -0.8392
 1753SOL     vw 7012   2.126   6.706   5.708  0.4643 -0.2785  0.6135
 1754SOL     ow 7013   5.020   3.084   1.992  0.4025  0.1329 -0.5341
 1754SOL     hw 7014   5.043   3.044   1.908  2.0845 -2.0867  0.8741
 1754SOL     hw 7015   5.099   3.130   2.019  0.7980 -1.3049  0.9350
 1754SOL     vw 7016   5.034   3.085   1.984  0.6766 -0.3496 -0.1544
 1755SOL     ow 7017   5.740   0.439   3.619  0.4232  0.1226  0.4233
 1755SOL     hw 7018   5.705   0.442   3.708 -2.1666  2.1914 -0.5170
 1755SOL     hw 7019   5.696   0.364   3.578  1.3519 -0.6192  0.7631
 1755SOL     vw 7020   5.729   0.430   3.625  0.2041  0.2977  0.3440
 1756SOL     ow 7021   0.379   6.941   6.341  0.4161  0.1640  0.1352
 1756SOL     hw 7022   0.376   7.011   6.407  0.1054  2.1722 -1.8976
 1756SOL     hw 7023   0.291   6.904   6.342  0.5262 -0.1162  1.1061
 1756SOL     vw 7024   0.367   6.945   6.350  0.3896  0.3917 -0.0050
 1757SOL     ow 7025   1.634   5.338   0.341 -0.4142 -0.1053  0.5577
 1757SOL     hw 7026   1.642   5.252   0.300 -1.0420 -0.5730  1.3735
 1757SOL     hw 7027   1.559   5.378   0.296 -0.2272 -0.0509  0.2919
 1757SOL     vw 7028   1.625   5.332   0.330 -0.4723 -0.1597  0.6302
 1758SOL     ow 7029   1.551   6.373   1.672 -0.3851  0.1698  0.0880
 1758SOL     hw 7030   1.613   6.374   1.745  0.3855  0.9338 -0.5700
 1758SOL     hw 7031   1.542   6.280   1.650  0.9330  0.0872 -0.1519
 1758SOL     vw 7032   1.558   6.360   1.679 -0.1095  0.2596 -0.0305
 1759SOL     ow 7033   0.595   2.282   1.977  0.2597  0.1128 -0.0958
 1759SOL     hw 7034   0.598   2.378   1.980  0.8686  0.2356 -2.4145
 1759SOL     hw 7035   0.648   2.254   2.052  3.5713  1.7141 -1.6074
 1759SOL     vw 7036   0.603   2.291   1.987  0.7769  0.3403 -0.6011
 1760SOL     ow 7037   5.360   6.379   4.793 -0.9420 -0.1285  0.0386
 1760SOL     hw 7038   5.303   6.340   4.860 -0.2296 -0.8629  0.2270
 1760SOL     hw 7039   5.418   6.308   4.767 -0.2509  0.5591 -0.3036
 1760SOL     vw 7040   5.360   6.364   4.799 -0.7565 -0.1345  0.0184
 1761SOL     ow 7041   0.145   3.834   6.466  0.0860  0.1709 -0.0805
 1761SOL     hw 7042   0.220   3.798   6.513 -0.2797 -0.0612  0.3272
 1761SOL     hw 7043   0.087   3.867   6.534  0.0181  0.7597 -0.4146
 1761SOL     vw 7044   0.148   3.833   6.481  0.0288  0.2180 -0.0708
 1762SOL     ow 7045   4.265   1.408   3.660  0.4114  0.0158  0.0469
 1762SOL     hw 7046   4.228   1.323   3.638  1.8654 -0.4348 -0.8190
 1762SOL     hw 7047   4.245   1.420   3.753 -1.3148 -0.4494 -0.2388
 1762SOL     vw 7048   4.258   1.399   3.670  0.3753 -0.1050 -0.1051
 1763SOL     ow 7049   1.311   7.473   7.021  0.2545 -0.6554  0.2599
 1763SOL     hw 7050   1.343   7.419   7.093  2.8067  0.6022  0.1998
 1763SOL     hw 7051   1.323   7.419   6.943  0.6475 -0.8385  0.4431
 1763SOL     vw 7052   1.317   7.459   7.020  0.6431 -0.5136  0.2761
 1764SOL     ow 7053   3.620   3.660   5.836 -0.2993 -0.2475  0.1223
 1764SOL     hw 7054   3.700   3.631   5.792 -0.2293 -1.8564  1.2188
 1764SOL     hw 7055   3.574   3.712   5.770 -0.6964 -3.3617 -2.2686
 1764SOL     vw 7056   3.625   3.663   5.821 -0.3425 -0.8708 -0.0484
 1765SOL     ow 7057   0.366   3.153   7.471  0.0653 -0.0131 -0.1554
 1765SOL     hw 7058   0.318   3.071   7.463  0.0355 -0.1673  1.3680
 1765SOL     hw 7059   0.363   3.174   7.564  1.3294  0.9624 -0.3092
 1765SOL     vw 7060   0.359   3.145   7.482  0.2281  0.0954  0.0253
 1766SOL     ow 7061   4.733   5.783   3.635 -0.4364 -0.9363  0.5226
 1766SOL     hw 7062   4.654   5.776   3.581 -0.5119 -1.0946  0.6540
 1766SOL     hw 7063   4.712   5.852   3.698  0.6690  1.3182 -1.3967
 1766SOL     vw 7064   4.720   5.792   3.636 -0.3006 -0.6597  0.2868
 1767SOL     ow 7065   2.317   1.000   4.457  0.2176  0.4972  0.3208
 1767SOL     hw 7066   2.294   1.009   4.365  2.3751 -0.1461 -0.3564
 1767SOL     hw 7067   2.396   0.945   4.456 -0.9502 -1.3983  2.7157
 1767SOL     vw 7068   2.324   0.994   4.445  0.3481  0.1622  0.5474
 1768SOL     ow 7069   6.136   1.960   5.657 -0.1010 -0.2516  0.8637
 1768SOL     hw 7070   6.186   2.010   5.593 -0.0981  0.8797  1.7138
 1768SOL     hw 7071   6.048   1.998   5.655 -0.2260 -0.5180  1.1841
 1768SOL     vw 7072   6.131   1.972   5.649 -0.1168 -0.1374  1.0180
 1769SOL     ow 7073   2.742   5.998   4.578 -0.5312 -0.7780 -0.3265
 1769SOL     hw 7074   2.653   6.026   4.559 -0.1454 -0.2298 -1.4101
 1769SOL     hw 7075   2.758   6.028   4.668 -1.1291 -0.0750 -0.4466
 1769SOL     vw 7076   2.732   6.005   4.587 -0.5591 -0.6130 -0.4849
 1770SOL     ow 7077   2.941   3.326   4.624  0.1344 -0.3990  0.0600
 1770SOL     hw 7078   3.034   3.326   4.600  0.3742  1.3584  0.8502
 1770SOL     hw 7079   2.925   3.414   4.656 -1.8939 -0.5900 -0.3163
 1770SOL     vw 7080   2.951   3.337   4.625 -0.1017 -0.1923  0.1144
 1771SOL     ow 7081   6.121   0.233   1.171 -0.0451  0.2056  0.3372
 1771SOL     hw 7082   6.094   0.265   1.256  0.7671 -2.3630  1.6793
 1771SOL     hw 7083   6.084   0.144   1.166  0.1672  0.1720 -1.8715
 1771SOL     vw 7084   6.112   0.225   1.181  0.0901 -0.1377  0.2229
 1772SOL     ow 7085   0.104   1.111   4.903  0.1638  0.0021 -0.1594
 1772SOL     hw 7086   0.172   1.116   4.835  0.1875  1.1947 -0.0689
 1772SOL     hw 7087   0.040   1.177   4.878  1.3774  2.3102  2.2297
 1772SOL     vw 7088   0.105   1.120   4.891  0.3270  0.4639  0.1678
 1773SOL     ow 7089   3.965   0.643   5.782 -0.3743  0.0905  0.5642
 1773SOL     hw 7090   3.932   0.578   5.844  0.5945 -2.7854 -1.7179
 1773SOL     hw 7091   4.058   0.650   5.802 -0.8430  2.8096  2.3720
 1773SOL     vw 7092   3.973   0.636   5.793 -0.3083  0.0698  0.5014
 1774SOL     ow 7093   5.390   1.735   1.816  0.1746  0.7002  0.9239
 1774SOL     hw 7094   5.326   1.798   1.781 -0.5717 -0.7868 -0.5203
 1774SOL     hw 7095   5.338   1.677   1.871  0.4894  0.1742  0.6723
 1774SOL     vw 7096   5.375   1.736   1.818  0.1175  0.4346  0.7001
 1775SOL     ow 7097   4.273   4.642   1.144 -0.2054  0.0366  0.0000
 1775SOL     hw 7098   4.304   4.552   1.156 -0.3822  0.0103  0.2648
 1775SOL     hw 7099   4.353   4.694   1.136 -0.0977 -0.2535 -1.0242
 1775SOL     vw 7100   4.288   4.637   1.144 -0.2146 -0.0052 -0.1001
 1776SOL     ow 7101   0.546   6.527   2.325 -0.0040 -0.1076 -0.0419
 1776SOL     hw 7102   0.509   6.610   2.294  0.4423  0.7080  1.5127
 1776SOL     hw 7103   0.615   6.553   2.386 -0.1529 -1.6357  0.8215
 1776SOL     vw 7104   0.550   6.542   2.329  0.0352 -0.2015  0.2772
 1777SOL     ow 7105   7.294   2.835   6.293  0.3607  0.3479  0.6398
 1777SOL     hw 7106   7.224   2.795   6.344 -0.8290 -0.2128 -1.3490
 1777SOL     hw 7107   7.364   2.770   6.293 -0.5729 -0.6918 -0.4257
 1777SOL     vw 7108   7.294   2.821   6.300  0.0806  0.1367  0.2365
 1778SOL     ow 7109   0.937   1.482   0.253 -0.5354 -0.6629  0.1221
 1778SOL     hw 7110   0.969   1.395   0.230  0.8915  0.0002 -0.5094
 1778SOL     hw 7111   1.014   1.538   0.250 -1.8196  1.1830 -2.2209
 1778SOL     vw 7112   0.951   1.478   0.250 -0.5166 -0.3318 -0.2703
 1779SOL     ow 7113   7.348   0.590   4.788 -0.1871 -0.6034 -0.2232
 1779SOL     hw 7114   7.325   0.672   4.744 -0.3972 -0.9910 -0.8553
 1779SOL     hw 7115   7.286   0.526   4.753 -0.0677 -1.0201  0.3130
 1779SOL     vw 7116   7.336   0.592   4.777 -0.1991 -0.7095 -0.2360
 1780SOL     ow 7117   0.917   3.711   7.461 -0.6909 -0.0281  0.5884
 1780SOL     hw 7118   0.970   3.731   7.538  1.7455 -1.2621 -0.6477
 1780SOL     hw 7119   0.874   3.629   7.482 -2.5088  1.1509  1.7361
 1780SOL     vw 7120   0.919   3.703   7.474 -0.6093 -0.0354  0.5765
 1781SOL     ow 7121   3.673   5.344   0.342  0.2395  0.3639 -0.3680
 1781SOL     hw 7122   3.656   5.275   0.405 -0.9424  1.4781  0.5919
 1781SOL     hw 7123   3.590   5.358   0.297 -0.2222  2.6020  0.9991
 1781SOL     vw 7124   3.660   5.337   0.345  0.0226  0.8061 -0.0609
 1782SOL     ow 7125   7.147   0.923   2.525 -0.0879 -0.1704 -1.0745
 1782SOL     hw 7126   7.088   0.981   2.573  1.1262  1.9875 -2.0539
 1782SOL     hw 7127   7.214   0.898   2.588 -1.2713 -1.6120 -0.3104
 1782SOL     vw 7128   7.148   0.927   2.539 -0.0839 -0.0759 -1.1029
 1783SOL     ow 7129   4.125   0.303   2.882  0.3909  0.3401  0.5440
 1783SOL     hw 7130   4.050   0.362   2.886  0.7029  0.8153 -0.3857
 1783SOL     hw 7131   4.201   0.360   2.896  0.5560 -0.2664  2.4153
 1783SOL     vw 7132   4.125   0.318   2.885  0.4537  0.3228  0.6683
 1784SOL     ow 7133   4.270   2.514   4.328 -0.4525 -0.6773 -0.2494
 1784SOL     hw 7134   4.214   2.466   4.389 -0.8836 -1.7608 -1.4636
 1784SOL     hw 7135   4.218   2.589   4.301  0.4061  0.8418  2.0365
 1784SOL     vw 7136   4.256   2.517   4.332 -0.3963 -0.6198 -0.1080
 1785SOL     ow 7137   7.495   7.294   0.169 -0.0907  0.0843  0.6378
 1785SOL     hw 7138   7.584   7.270   0.142  0.3668  0.4101  1.8068
 1785SOL     hw 7139   7.462   7.346   0.096  0.8045  0.2267  0.3176
 1785SOL     vw 7140   7.503   7.298   0.156  0.0877  0.1459  0.7498
 1786SOL     ow 7141   2.324   2.890   1.820  0.6768  0.2661  0.1695
 1786SOL     hw 7142   2.294   2.975   1.852  1.1043  0.6258 -0.3538
 1786SOL     hw 7143   2.317   2.832   1.895  0.6854  0.8458  0.6270
 1786SOL     vw 7144   2.319   2.894   1.834  0.7343  0.3901  0.1608
 1787SOL     ow 7145   6.328   5.115   2.145  0.3746 -0.8844  0.4928
 1787SOL     hw 7146   6.405   5.139   2.195 -0.4599  1.1306  0.9069
 1787SOL     hw 7147   6.289   5.198   2.119 -0.5220 -1.8538 -1.5040
 1787SOL     vw 7148   6.333   5.129   2.148  0.1462 -0.7467  0.2841
 1788SOL     ow 7149   1.096   1.300   5.966  0.0118 -0.4675 -1.1159
 1788SOL     hw 7150   1.029   1.302   6.035  3.0607  2.9284  2.2053
 1788SOL     hw 7151   1.158   1.233   5.994  0.2086 -0.5380 -1.7155
 1788SOL     vw 7152   1.095   1.292   5.979  0.4400 -0.0287 -0.7567
 1789SOL     ow 7153   3.921   3.325   7.159 -0.2048 -0.3103 -0.1758
 1789SOL     hw 7154   3.938   3.404   7.108 -0.5615  1.4258  2.2503
 1789SOL     hw 7155   3.830   3.301   7.137 -1.4650  2.2092  1.7392
 1789SOL     vw 7156   3.911   3.332   7.149 -0.4181  0.2512  0.3974
 1790SOL     ow 7157   1.388   3.007   2.792  0.1127 -0.0912  0.3808
 1790SOL     hw 7158   1.408   3.090   2.748  1.7873  0.2652  1.7354
 1790SOL     hw 7159   1.340   3.032   2.871  1.1788 -0.3340  1.1259
 1790SOL     vw 7160   1.384   3.021   2.797  0.4743 -0.0763  0.6578
 1791SOL     ow 7161   5.856   2.811   0.757  0.6278  0.1187 -0.7718
 1791SOL     hw 7162   5.807   2.780   0.681 -1.7503  1.3626  0.1480
 1791SOL     hw 7163   5.844   2.905   0.758 -2.3015 -0.0530  2.8303
 1791SOL     vw 7164   5.848   2.819   0.747 -0.0725  0.2601 -0.1752
 1792SOL     ow 7165   0.277   3.255   6.377  0.1405  0.2644 -0.7768
 1792SOL     hw 7166   0.232   3.185   6.425 -0.2280  1.6548  0.9858
 1792SOL     hw 7167   0.207   3.301   6.331 -0.5407  2.7788  2.4091
 1792SOL     vw 7168   0.262   3.251   6.377  0.0020  0.7796 -0.1237
 1793SOL     ow 7169   5.057   6.602   4.140 -0.6669  0.6998  0.2909
 1793SOL     hw 7170   5.024   6.527   4.091  3.1220 -0.3474 -1.0454
 1793SOL     hw 7171   5.026   6.678   4.092 -0.6117 -0.2058 -1.2361
 1793SOL     vw 7172   5.049   6.602   4.127 -0.1595  0.4423 -0.0873
 1794SOL     ow 7173   4.946   4.889   4.415  0.7233  0.0432  0.2174
 1794SOL     hw 7174   5.000   4.837   4.355  0.7469  0.2362  0.0692
 1794SOL     hw 7175   4.920   4.965   4.363  2.5889  1.3541  1.1085
 1794SOL     vw 7176   4.950   4.892   4.400  0.9727  0.2413  0.3154
 1795SOL     ow 7177   4.260   3.665   4.159  0.3189 -0.4922  0.2076
 1795SOL     hw 7178   4.337   3.660   4.103 -0.6493 -0.9278 -1.1678
 1795SOL     hw 7179   4.294   3.682   4.246  1.9537 -0.6247 -0.3683
 1795SOL     vw 7180   4.274   3.667   4.163  0.4067 -0.5672 -0.0498
 1796SOL     ow 7181   1.000   6.551   0.954 -0.4604 -0.0241  0.5537
 1796SOL     hw 7182   1.049   6.471   0.938 -1.4767 -0.5065 -0.2898
 1796SOL     hw 7183   0.941   6.559   0.879 -1.7208  0.4854  1.5578
 1796SOL     vw 7184   0.998   6.542   0.942 -0.7607 -0.0203  0.5749
 1797SOL     ow 7185   1.151   4.750   1.479  0.2761  0.2837  0.0534
 1797SOL     hw 7186   1.108   4.672   1.445  0.4102  0.1929  0.0934
 1797SOL     hw 7187   1.245   4.733   1.469  0.3349  0.0514  0.8940
 1797SOL     vw 7188   1.158   4.738   1.473  0.3016  0.2413  0.1696
 1798SOL     ow 7189   0.675   0.263   0.134 -0.1474 -0.3063 -0.1400
 1798SOL     hw 7190   0.593   0.302   0.164  0.1489 -0.2249  0.5933
 1798SOL     hw 7191   0.688   0.298   0.046 -0.6331  0.0829 -0.0600
 1798SOL     vw 7192   0.666   0.273   0.127 -0.1724 -0.2442 -0.0327
 1799SOL     ow 7193   6.033   0.184   0.018 -0.1993  0.2372 -0.0289
 1799SOL     hw 7194   5.992   0.119   0.075  2.4365 -1.5865 -0.0712
 1799SOL     hw 7195   5.966   0.204  -0.048 -2.6009  0.8811  2.4002
 1799SOL     vw 7196   6.019   0.178   0.017 -0.1686  0.0816  0.2860
 1800SOL     ow 7197   0.257   4.610   6.207  0.0725  0.0526 -0.1566
 1800SOL     hw 7198   0.165   4.591   6.225  0.6074 -2.1694  0.5406
 1800SOL     hw 7199   0.278   4.555   6.132  0.5821  1.3993 -1.0385
 1800SOL     vw 7200   0.248   4.600   6.200  0.2104 -0.0627 -0.1810
 1801SOL     ow 7201   0.993   3.180   5.427  0.2038 -0.3173 -0.3301
 1801SOL     hw 7202   1.018   3.088   5.412 -0.3103 -0.3315 -1.2045
 1801SOL     hw 7203   1.024   3.226   5.349  1.0184  0.3815  0.3881
 1801SOL     vw 7204   1.000   3.174   5.414  0.2434 -0.2270 -0.3510
 1802SOL     ow 7205   3.182   5.804   4.045  0.9573  0.3111 -0.2375
 1802SOL     hw 7206   3.276   5.800   4.025  1.7420  2.4925  2.3837
 1802SOL     hw 7207   3.178   5.799   4.140 -1.6143  0.4281 -0.2792
 1802SOL     vw 7208   3.194   5.803   4.055  0.7216  0.6142  0.1025
 1803SOL     ow 7209   2.355   2.416   4.637  0.2869 -0.0559  0.4589
 1803SOL     hw 7210   2.372   2.486   4.574 -1.3330 -0.0775 -0.0538
 1803SOL     hw 7211   2.426   2.423   4.700  1.3542  0.6653 -0.7652
 1803SOL     vw 7212   2.367   2.426   4.637  0.2140  0.0364  0.2296
 1804SOL     ow 7213   1.458   3.110   1.330  0.8312 -0.1851  0.4655
 1804SOL     hw 7214   1.410   3.155   1.400  2.8821  0.4981  1.5072
 1804SOL     hw 7215   1.407   3.031   1.314  0.3183 -0.3862  2.7755
 1804SOL     vw 7216   1.445   3.106   1.337  1.0341 -0.1215  0.9077
 1805SOL     ow 7217   4.162   0.466   6.936 -0.0241 -0.3562  0.0179
 1805SOL     hw 7218   4.117   0.506   6.861  0.7147 -1.3935 -1.0251
 1805SOL     hw 7219   4.146   0.373   6.926 -2.3321 -0.3944  2.8122
 1805SOL     vw 7220   4.154   0.459   6.925 -0.2310 -0.4981  0.2491
 1806SOL     ow 7221   3.259   1.625   5.808  0.1492  0.0968 -0.4190
 1806SOL     hw 7222   3.338   1.678   5.796  1.9715 -2.2232  0.4539
 1806SOL     hw 7223   3.264   1.560   5.739  1.2912 -2.5443  1.9477
 1806SOL     vw 7224   3.270   1.624   5.797  0.5404 -0.5578  0.0083
 1807SOL     ow 7225   5.279   5.629   1.432  0.4749  0.3097  0.6901
 1807SOL     hw 7226   5.290   5.574   1.510 -0.7294  0.5852  1.0783
 1807SOL     hw 7227   5.365   5.626   1.389  0.7488 -1.0239  1.2480
 1807SOL     vw 7228   5.292   5.621   1.437  0.3521  0.1702  0.8150
 1808SOL     ow 7229   1.520   5.276   7.548  0.4618  0.0869 -0.0385
 1808SOL     hw 7230   1.507   5.318   7.463  1.8815 -0.3145 -0.4691
 1808SOL     hw 7231   1.508   5.183   7.531  1.1750 -0.0363  0.0974
 1808SOL     vw 7232   1.517   5.269   7.534  0.7432  0.0176 -0.0775
 1809SOL     ow 7233   1.096   0.935   0.497 -0.1672  0.5519 -0.1288
 1809SOL     hw 7234   1.183   0.895   0.496 -0.0187  0.8691 -1.5348
 1809SOL     hw 7235   1.091   0.983   0.414 -2.2648 -0.7599 -0.8422
 1809SOL     vw 7236   1.107   0.936   0.486 -0.4244  0.4207 -0.4084
 1810SOL     ow 7237   6.849   5.627   4.594  0.2461 -0.6183 -0.6420
 1810SOL     hw 7238   6.818   5.609   4.683  1.2992  1.7439  0.3086
 1810SOL     hw 7239   6.771   5.623   4.539 -0.6275 -0.9702  0.5958
 1810SOL     vw 7240   6.835   5.624   4.598  0.2699 -0.3531 -0.3533
 1811SOL     ow 7241   6.181   6.938   0.079  0.2391 -0.3670 -0.0750
 1811SOL     hw 7242   6.133   6.987   0.145  2.1721 -1.1240  1.9917
 1811SOL     hw 7243   6.272   6.964   0.091  0.8120 -1.5279 -1.5781
 1811SOL     vw 7244   6.187   6.948   0.089  0.5698 -0.6204 -0.0006
 1812SOL     ow 7245   7.236   7.233   4.943  0.4265  0.2584 -0.0610
 1812SOL     hw 7246   7.177   7.278   5.004  0.1565  0.2532 -0.3149
 1812SOL     hw 7247   7.280   7.167   4.996  1.3712  1.2851  0.4956
 1812SOL     vw 7248   7.234   7.230   4.958  0.5155  0.3929 -0.0212
 1813SOL     ow 7249   6.522   0.265   2.200  0.0678 -0.0068  0.3957
 1813SOL     hw 7250   6.493   0.226   2.282  1.7484  0.2714  1.1646
 1813SOL     hw 7251   6.614   0.286   2.215  0.3230  0.3468 -1.4600
 1813SOL     vw 7252   6.530   0.263   2.213  0.3231  0.0766  0.2522
 1814SOL     ow 7253   4.770   6.691   6.868  0.3890 -0.7027  0.4159
 1814SOL     hw 7254   4.703   6.638   6.912  0.2157 -0.9456 -0.1389
 1814SOL     hw 7255   4.845   6.633   6.858  0.5101 -0.5787  0.5867
 1814SOL     vw 7256   4.771   6.676   6.873  0.3822 -0.7186  0.3653
 1815SOL     ow 7257   3.361   3.849   5.948  0.4273 -0.4998  0.9167
 1815SOL     hw 7258   3.278   3.894   5.930  1.2351  1.7315  2.2865
 1815SOL     hw 7259   3.410   3.856   5.867  1.1331  2.6617  1.4940
 1815SOL     vw 7260   3.356   3.856   5.935  0.6270  0.2117  1.1735
 1816SOL     ow 7261   4.555   0.061   0.794  0.1086 -0.5157 -0.1298
 1816SOL     hw 7262   4.523   0.024   0.711  0.0788 -0.3939 -0.1725
 1816SOL     hw 7263   4.645   0.027   0.801 -0.1154 -1.0793  0.1252
 1816SOL     vw 7264   4.563   0.051   0.784  0.0753 -0.5740 -0.1018
 1817SOL     ow 7265   3.601   5.095   6.772 -0.2660  0.2094 -0.4287
 1817SOL     hw 7266   3.677   5.099   6.830 -0.2257  0.4098 -0.4932
 1817SOL     hw 7267   3.637   5.107   6.684 -0.2303 -0.9267 -0.5768
 1817SOL     vw 7268   3.616   5.097   6.768 -0.2558  0.0861 -0.4566
 1818SOL     ow 7269   6.745   4.567   3.460  0.5531 -0.6509  0.0534
 1818SOL     hw 7270   6.781   4.559   3.548  0.0052 -1.6069  0.2063
 1818SOL     hw 7271   6.695   4.486   3.447 -2.4860  1.0253  0.2945
 1818SOL     vw 7272   6.743   4.555   3.470  0.0799 -0.5558  0.1054
 1819SOL     ow 7273   1.371   2.119   4.296  0.3973 -0.4307  0.5444
 1819SOL     hw 7274   1.387   2.026   4.284 -1.5537 -0.8752  1.0839
 1819SOL     hw 7275   1.440   2.148   4.355  0.5022 -1.7471  1.0992
 1819SOL     vw 7276   1.382   2.111   4.302  0.1537 -0.6630  0.6886
 1820SOL     ow 7277   5.642   5.175   1.118 -0.1201 -0.5780 -0.1440
 1820SOL     hw 7278   5.667   5.084   1.137  1.9591  0.4217  2.7383
 1820SOL     hw 7279   5.580   5.197   1.187 -0.2460  0.3053 -0.5395
 1820SOL     vw 7280   5.637   5.166   1.130  0.1373 -0.3295  0.1841
 1821SOL     ow 7281   3.999   7.051   1.593  0.0710  0.2763  0.4677
 1821SOL     hw 7282   3.916   7.067   1.639  0.0571  0.1045  0.5032
 1821SOL     hw 7283   3.997   7.111   1.519  0.4708  1.1585  1.1616
 1821SOL     vw 7284   3.988   7.061   1.589  0.1221  0.3698  0.5639
 1822SOL     ow 7285   4.173   3.670   1.931 -0.2935 -0.0122  0.7049
 1822SOL     hw 7286   4.091   3.694   1.887  0.0584 -0.4759 -0.2047
 1822SOL     hw 7287   4.156   3.583   1.968 -0.0895 -0.2718  0.1924
 1822SOL     vw 7288   4.160   3.662   1.930 -0.2203 -0.1074  0.5172
 1823SOL     ow 7289   5.298   4.787   6.248 -0.3950  0.6349  0.7149
 1823SOL     hw 7290   5.315   4.700   6.286  0.3140  0.7296  0.6387
 1823SOL     hw 7291   5.211   4.780   6.209 -0.8440  0.3136  1.7329
 1823SOL     vw 7292   5.289   4.774   6.248 -0.3610  0.6049  0.8392
 1824SOL     ow 7293   6.998   2.097   3.049  0.0843  0.2904 -0.4743
 1824SOL     hw 7294   6.963   2.091   3.137 -0.1390  0.1278 -0.5720
 1824SOL     hw 7295   7.091   2.117   3.061  0.1342 -0.0935 -0.1952
 1824SOL     vw 7296   7.006   2.099   3.062  0.0615  0.2183 -0.4504
 1825SOL     ow 7297   6.467   0.809   7.291 -0.5654  0.4901  0.4418
 1825SOL     hw 7298   6.444   0.833   7.201 -2.5812 -1.9761  0.1728
 1825SOL     hw 7299   6.551   0.764   7.283 -0.5632  0.5880 -0.1485
 1825SOL     vw 7300   6.475   0.806   7.278 -0.8309  0.1776  0.3283
 1826SOL     ow 7301   1.122   4.890   2.914 -0.6293  0.6447  0.3800
 1826SOL     hw 7302   1.044   4.873   2.862  0.4307 -1.5328 -0.6491
 1826SOL     hw 7303   1.190   4.909   2.850  0.3155 -0.3868  1.0419
 1826SOL     vw 7304   1.121   4.890   2.899 -0.3648  0.2213  0.3316
 1827SOL     ow 7305   4.294   1.905   2.614 -0.0888 -0.5713 -0.1361
 1827SOL     hw 7306   4.278   1.814   2.641 -0.2340 -1.0016 -1.5737
 1827SOL     hw 7307   4.383   1.924   2.644 -0.4356 -0.8067  1.1096
 1827SOL     vw 7308   4.304   1.895   2.622 -0.1538 -0.6591 -0.1615
 1828SOL     ow 7309   1.368   0.220   6.342 -0.1916 -0.4266  0.2110
 1828SOL     hw 7310   1.337   0.209   6.252  0.5153 -1.1354  0.0368
 1828SOL     hw 7311   1.389   0.131   6.371  0.0864 -0.1494  0.8918
 1828SOL     vw 7312   1.367   0.206   6.334 -0.0617 -0.4836  0.2780
 1829SOL     ow 7313   2.151   3.004   4.993  0.1024 -0.8602  0.3684
 1829SOL     hw 7314   2.173   3.097   4.990 -0.2003 -0.8204 -1.2004
 1829SOL     hw 7315   2.171   2.978   5.083 -1.9747  1.2513  1.5522
 1829SOL     vw 7316   2.157   3.013   5.005 -0.2116 -0.5764  0.3176
 1830SOL     ow 7317   0.976   2.077   3.310 -0.3170 -0.3286  0.1293
 1830SOL     hw 7318   1.049   2.015   3.312  0.4147  0.5121  0.4686
 1830SOL     hw 7319   0.900   2.027   3.337  0.4217 -0.8611  1.2854
 1830SOL     vw 7320   0.976   2.062   3.314 -0.1230 -0.2879  0.3268
 1831SOL     ow 7321   6.679   0.586   7.370 -0.4665  0.2632 -1.0215
 1831SOL     hw 7322   6.629   0.581   7.452 -0.0570 -1.3943 -0.8428
 1831SOL     hw 7323   6.676   0.498   7.334  1.4869  0.3420 -1.5057
 1831SOL     vw 7324   6.672   0.574   7.376 -0.1550  0.0549 -1.0617
 1832SOL     ow 7325   6.393   5.801   2.272  0.4570 -0.0099  0.5643
 1832SOL     hw 7326   6.359   5.869   2.215 -0.2508  0.3056  1.3452
 1832SOL     hw 7327   6.445   5.744   2.214 -1.9658 -0.9548 -0.8397
 1832SOL     vw 7328   6.396   5.802   2.257  0.0441 -0.0930  0.4821
 1833SOL     ow 7329   4.453   5.460   1.604 -0.4329 -0.0310  0.9375
 1833SOL     hw 7330   4.411   5.543   1.582 -0.3132 -0.2960 -0.3778
 1833SOL     hw 7331   4.544   5.472   1.578 -0.9788 -1.5075 -2.0926
 1833SOL     vw 7332   4.459   5.473   1.598 -0.4892 -0.2606  0.3642
 1834SOL     ow 7333   5.644   7.548   1.252  1.0504 -0.2546  0.1618
 1834SOL     hw 7334   5.609   7.559   1.341  0.9566  0.4328  0.0457
 1834SOL     hw 7335   5.579   7.590   1.195  0.6934 -1.4273 -0.3176
 1834SOL     vw 7336   5.631   7.555   1.256  0.9911 -0.3185  0.0832
 1835SOL     ow 7337   7.388   5.225   5.220  0.1556 -0.6926  0.0258
 1835SOL     hw 7338   7.338   5.220   5.138 -1.5528 -0.5251  1.0021
 1835SOL     hw 7339   7.400   5.134   5.246  0.5315 -0.7399 -0.3089
 1835SOL     vw 7340   7.383   5.212   5.212 -0.0200 -0.6764  0.1104
 1836SOL     ow 7341   5.439   0.932   0.447  0.4010  0.0721  0.9433
 1836SOL     hw 7342   5.489   0.983   0.383 -1.5373  1.8367  0.6995
 1836SOL     hw 7343   5.428   0.992   0.521  0.3431 -0.9896  1.8114
 1836SOL     vw 7344   5.444   0.947   0.448  0.1378  0.1649  1.0257
 1837SOL     ow 7345   6.819   2.456   1.290 -0.7281 -0.1922  0.3179
 1837SOL     hw 7346   6.890   2.487   1.346  0.9248 -3.9366  0.5794
 1837SOL     hw 7347   6.743   2.449   1.348  0.3397 -1.7318  1.6266
 1837SOL     vw 7348   6.819   2.459   1.305 -0.3693 -0.8893  0.5251
 1838SOL     ow 7349   5.181   0.534   1.791 -0.0220  0.2959  0.1340
 1838SOL     hw 7350   5.170   0.596   1.863  0.3261  0.3683  0.1282
 1838SOL     hw 7351   5.238   0.466   1.827  0.5768  0.5934 -0.2240
 1838SOL     vw 7352   5.187   0.533   1.805  0.1030  0.3447  0.0860
 1839SOL     ow 7353   5.710   5.087   3.845  0.2809 -0.0897 -0.4899
 1839SOL     hw 7354   5.765   5.157   3.878 -0.5584  1.0192 -1.3617
 1839SOL     hw 7355   5.676   5.120   3.762 -0.2235 -1.4890 -0.8719
 1839SOL     vw 7356   5.713   5.101   3.838  0.1035 -0.1280 -0.6552
 1840SOL     ow 7357   0.956   6.608   2.803 -0.9964 -0.0166  0.0359
 1840SOL     hw 7358   0.960   6.531   2.860 -1.7883  1.0531  1.6231
 1840SOL     hw 7359   1.002   6.581   2.724  0.5497 -1.4386  1.3348
 1840SOL     vw 7360   0.962   6.594   2.800 -0.8969 -0.0632  0.4168
 1841SOL     ow 7361   2.301   3.941   5.831  0.1723  0.1218 -0.3373
 1841SOL     hw 7362   2.388   3.908   5.852 -0.0068 -0.4914 -0.5454
 1841SOL     hw 7363   2.247   3.913   5.905 -0.1305 -0.6785 -0.8564
 1841SOL     vw 7364   2.305   3.933   5.844  0.1086 -0.0646 -0.4334
 1842SOL     ow 7365   3.776   7.050   6.981 -0.0972  0.0125  0.2212
 1842SOL     hw 7366   3.752   7.112   7.050 -0.8938 -0.9815  0.8717
 1842SOL     hw 7367   3.692   7.015   6.950  0.2640  0.2969 -1.1283
 1842SOL     vw 7368   3.762   7.054   6.986 -0.1547 -0.0811  0.1290
 1843SOL     ow 7369   6.074   6.474   2.971 -0.6413 -0.7311  0.2584
 1843SOL     hw 7370   5.988   6.482   3.012 -1.1491  1.6453 -1.0560
 1843SOL     hw 7371   6.089   6.560   2.930  1.8613 -1.4452 -0.5235
 1843SOL     vw 7372   6.065   6.487   2.971 -0.3781 -0.5119 -0.0180
 1844SOL     ow 7373   4.135   6.391   1.116  0.1846  0.0024  0.7713
 1844SOL     hw 7374   4.186   6.359   1.191  0.1846  0.6256  1.0368
 1844SOL     hw 7375   4.195   6.383   1.042 -0.2603 -1.9402  0.5537
 1844SOL     vw 7376   4.150   6.385   1.116  0.1261 -0.1717  0.7776
 1845SOL     ow 7377   4.242   5.635   4.133 -0.2473  0.0692  0.0276
 1845SOL     hw 7378   4.198   5.715   4.103  0.2392  0.5079  0.4750
 1845SOL     hw 7379   4.330   5.640   4.096 -0.3908 -0.5356 -0.4039
 1845SOL     vw 7380   4.248   5.646   4.124 -0.2022  0.0474  0.0298
 1846SOL     ow 7381   6.390   7.021   5.426  0.3435 -0.3281  0.0486
 1846SOL     hw 7382   6.421   7.110   5.417  1.7464 -0.5200  2.2956
 1846SOL     hw 7383   6.457   6.967   5.385 -1.1842 -0.3881 -2.6369
 1846SOL     vw 7384   6.403   7.025   5.419  0.3271 -0.3614 -0.0091
 1847SOL     ow 7385   5.343   7.208   5.008  0.0020 -0.4764 -0.0958
 1847SOL     hw 7386   5.356   7.227   5.101  3.5290  1.1383 -0.7505
 1847SOL     hw 7387   5.308   7.289   4.972  2.3696  0.3413 -0.7199
 1847SOL     vw 7388   5.340   7.221   5.016  0.7799 -0.1554 -0.2642
 1848SOL     ow 7389   5.452   1.807   3.574 -0.1978  0.5300 -0.0719
 1848SOL     hw 7390   5.484   1.720   3.554  2.0339  1.2061  0.3350
 1848SOL     hw 7391   5.465   1.817   3.668 -1.2499  1.0020  0.0424
 1848SOL     vw 7392   5.458   1.797   3.584 -0.0420  0.6815 -0.0031
 1849SOL     ow 7393   5.975   6.107   6.722  0.3044 -0.0382 -0.4712
 1849SOL     hw 7394   5.905   6.172   6.714 -0.6135 -1.1538 -2.0697
 1849SOL     hw 7395   6.028   6.118   6.643  2.6053  1.4255  1.1450
 1849SOL     vw 7396   5.973   6.117   6.711  0.4869  0.0076 -0.4692
 1850SOL     ow 7397   4.273   4.843   1.566  0.2131  0.6436  0.4198
 1850SOL     hw 7398   4.233   4.821   1.651  0.5564 -0.0638  0.4072
 1850SOL     hw 7399   4.306   4.759   1.533 -1.4354  0.5894 -1.2353
 1850SOL     vw 7400   4.272   4.829   1.573  0.0408  0.5431  0.1998
 1851SOL     ow 7401   0.000   6.024   0.987 -0.0665  0.0253 -0.1867
 1851SOL     hw 7402   0.092   6.030   1.013 -0.1593 -0.6226  0.3145
 1851SOL     hw 7403  -0.005   5.943   0.937 -1.0453 -1.9556  2.8690
 1851SOL     vw 7404   0.012   6.014   0.984 -0.2077 -0.3216  0.2826
 1852SOL     ow 7405   4.006   5.100   3.261  0.4698  0.4844  0.3227
 1852SOL     hw 7406   4.074   5.073   3.199  1.4433  1.3163  0.9941
 1852SOL     hw 7407   3.968   5.017   3.292 -0.5862  0.0512 -1.9083
 1852SOL     vw 7408   4.010   5.085   3.257  0.4592  0.5369  0.1168
 1853SOL     ow 7409   4.171   0.649   0.001 -0.0562  0.2299  0.0603
 1853SOL     hw 7410   4.226   0.629   0.077 -0.5896 -2.9703 -0.2459
 1853SOL     hw 7411   4.111   0.717   0.032 -1.2237 -1.9435  3.1088
 1853SOL     vw 7412   4.170   0.655   0.015 -0.2806 -0.4791  0.4221
 1854SOL     ow 7413   0.065   1.778   0.024 -0.3273 -0.1406 -0.1355
 1854SOL     hw 7414   0.078   1.872   0.009 -0.8723 -0.1595 -0.7670
 1854SOL     hw 7415  -0.020   1.759  -0.015 -1.0251 -0.5691  1.5142
 1854SOL     vw 7416   0.056   1.788   0.017 -0.4913 -0.1996 -0.0012
 1855SOL     ow 7417   4.570   6.587   7.048  0.0799 -0.5396 -0.3219
 1855SOL     hw 7418   4.622   6.528   7.101  0.9465  0.1959 -0.3305
 1855SOL     hw 7419   4.506   6.625   7.109  1.5584  0.8795  0.4110
 1855SOL     vw 7420   4.568   6.584   7.063  0.3893 -0.2553 -0.2265
 1856SOL     ow 7421   6.355   3.511   2.701 -0.0116 -0.7929 -0.0701
 1856SOL     hw 7422   6.419   3.460   2.751 -0.5619 -0.7189  0.7260
 1856SOL     hw 7423   6.285   3.449   2.682  1.2776 -1.5302 -2.9644
 1856SOL     vw 7424   6.354   3.496   2.705  0.0861 -0.8804 -0.3469
 1857SOL     ow 7425   5.851   0.447   0.168  0.0294 -0.3318  0.0653
 1857SOL     hw 7426   5.802   0.524   0.138 -0.4870 -0.3449  0.8485
 1857SOL     hw 7427   5.923   0.439   0.105  0.7477  1.4442  0.5836
 1857SOL     vw 7428   5.854   0.456   0.156  0.0560 -0.0992  0.2370
 1858SOL     ow 7429   2.319   0.508   1.287 -0.4895 -0.0878 -0.5896
 1858SOL     hw 7430   2.403   0.549   1.265 -1.8608  2.7763 -0.9797
 1858SOL     hw 7431   2.328   0.484   1.379  0.0416  2.3980  0.0900
 1858SOL     vw 7432   2.331   0.510   1.296 -0.6003  0.6180 -0.5514
 1859SOL     ow 7433   1.551   1.351   3.844 -1.0531 -0.6436 -0.1002
 1859SOL     hw 7434   1.466   1.319   3.872 -0.9390 -0.2033  0.7836
 1859SOL     hw 7435   1.573   1.419   3.908 -1.4309  1.4274 -2.0494
 1859SOL     vw 7436   1.543   1.356   3.856 -1.0880 -0.3121 -0.2409
 1860SOL     ow 7437   1.450   5.833   4.758  0.2115 -0.4698 -0.0846
 1860SOL     hw 7438   1.357   5.812   4.761  0.4683 -1.6039  1.9555
 1860SOL     hw 7439   1.471   5.839   4.665 -2.1424  1.1230 -0.5814
 1860SOL     vw 7440   1.441   5.831   4.746 -0.0652 -0.4091  0.1190
 1861SOL     ow 7441   2.708   6.762   5.436 -0.8655 -0.0426  0.2869
 1861SOL     hw 7442   2.737   6.671   5.428  1.1793  0.5664  0.2437
 1861SOL     hw 7443   2.746   6.806   5.360  0.1876  1.3015  1.5373
 1861SOL     vw 7444   2.717   6.756   5.425 -0.4567  0.2153  0.4461
 1862SOL     ow 7445   0.165   2.406   3.424  0.1225 -0.4881 -0.3296
 1862SOL     hw 7446   0.248   2.398   3.377  0.8264  0.1268  0.7750
 1862SOL     hw 7447   0.155   2.322   3.469  0.4304 -0.3472 -0.0007
 1862SOL     vw 7448   0.175   2.393   3.424  0.2560 -0.3885 -0.1403
 1863SOL     ow 7449   1.283   1.848   2.187 -0.3659  0.1672 -0.5027
 1863SOL     hw 7450   1.327   1.796   2.254  1.2455  0.9823 -0.8783
 1863SOL     hw 7451   1.196   1.809   2.180 -0.4244 -0.2695  1.6866
 1863SOL     vw 7452   1.278   1.836   2.195 -0.1611  0.2172 -0.2633
 1864SOL     ow 7453   2.686   2.171   5.266  0.1469  0.0027  0.3436
 1864SOL     hw 7454   2.624   2.100   5.251 -0.6154  0.9150 -1.0197
 1864SOL     hw 7455   2.714   2.197   5.178 -1.3749  2.9084  0.6000
 1864SOL     vw 7456   2.682   2.165   5.252 -0.1544  0.5065  0.1974
 1865SOL     ow 7457   0.703   6.439   1.919  0.3723  1.1523 -0.2971
 1865SOL     hw 7458   0.691   6.530   1.944  0.6976  0.8962  0.8230
 1865SOL     hw 7459   0.760   6.442   1.842  2.5247  1.7958  1.2352
 1865SOL     vw 7460   0.709   6.451   1.912  0.6993  1.2035  0.0529
 1866SOL     ow 7461   0.642   1.917   1.044  0.8545 -0.0858  0.3012
 1866SOL     hw 7462   0.575   1.849   1.057 -0.6046  1.3462  0.5883
 1866SOL     hw 7463   0.723   1.876   1.072  0.8551 -3.1760 -3.4088
 1866SOL     vw 7464   0.644   1.902   1.049  0.6621 -0.3046 -0.1503
 1867SOL     ow 7465   1.681   2.609   4.624  0.5454  0.3818  0.0797
 1867SOL     hw 7466   1.691   2.702   4.603 -2.5404  0.5186 -1.3105
 1867SOL     hw 7467   1.599   2.603   4.672  0.3059 -1.6860 -0.4830
 1867SOL     vw 7468   1.672   2.620   4.627  0.1068  0.1268 -0.1776
 1868SOL     ow 7469   5.223   3.495   2.675  0.2474  0.2294  0.2046
 1868SOL     hw 7470   5.193   3.478   2.586  0.1040  0.0755  0.2824
 1868SOL     hw 7471   5.278   3.420   2.697  0.7985  0.5720  0.0146
 1868SOL     vw 7472   5.226   3.483   2.666  0.3014  0.2544  0.1898
 1869SOL     ow 7473   5.970   1.771   4.557 -0.2348  0.3579  0.5376
 1869SOL     hw 7474   5.911   1.821   4.500 -0.8589 -1.3731 -0.4187
 1869SOL     hw 7475   6.007   1.836   4.617 -1.7902  1.7675  0.0353
 1869SOL     vw 7476   5.967   1.786   4.557 -0.5221  0.3154  0.3455
 1870SOL     ow 7477   1.183   5.127   1.017 -0.7709  0.0811  0.4187
 1870SOL     hw 7478   1.238   5.088   0.949  1.4608  0.4547  1.8734
 1870SOL     hw 7479   1.114   5.063   1.033  0.3917 -1.3489 -0.1303
 1870SOL     vw 7480   1.181   5.114   1.010 -0.3231 -0.0584  0.5382
 1871SOL     ow 7481   1.537   5.823   4.504  0.0661  0.3338 -0.1222
 1871SOL     hw 7482   1.515   5.734   4.477  0.5479 -0.8597  3.0217
 1871SOL     hw 7483   1.617   5.844   4.455 -0.5095 -0.6034 -1.5115
 1871SOL     vw 7484   1.545   5.814   4.494  0.0536  0.0529  0.1092
 1872SOL     ow 7485   0.747   3.930   6.849 -0.8579  0.4965 -0.4540
 1872SOL     hw 7486   0.696   3.955   6.926 -0.3403 -0.9565  0.3850
 1872SOL     hw 7487   0.733   4.002   6.787 -4.1338  0.0971 -0.3811
 1872SOL     vw 7488   0.738   3.943   6.851 -1.2218  0.2521 -0.3340
 1873SOL     ow 7489   1.705   0.373   4.035  0.1380 -0.2937  0.0293
 1873SOL     hw 7490   1.620   0.416   4.033  0.1307 -0.1052  2.2740
 1873SOL     hw 7491   1.762   0.432   4.083  0.1489 -2.5916  3.1635
 1873SOL     vw 7492   1.701   0.386   4.041  0.1385 -0.5720  0.7389
 1874SOL     ow 7493   4.270   3.550   5.710 -0.0019  0.1220 -0.4099
 1874SOL     hw 7494   4.344   3.489   5.715 -1.1251 -1.1929  1.9370
 1874SOL     hw 7495   4.251   3.558   5.617  2.1945 -0.5943 -0.9778
 1874SOL     vw 7496   4.278   3.543   5.698  0.1395 -0.1460 -0.1750
 1875SOL     ow 7497   7.391   1.480   4.147 -0.5689 -1.1063 -0.6246
 1875SOL     hw 7498   7.477   1.470   4.106 -0.2730 -0.4642 -0.1748
 1875SOL     hw 7499   7.405   1.543   4.218 -1.5523 -0.4272 -1.0083
 1875SOL     vw 7500   7.404   1.487   4.151 -0.6597 -0.9319 -0.6158
 1876SOL     ow 7501   0.791   4.093   7.138  0.3395  0.0342  0.1191
 1876SOL     hw 7502   0.729   4.146   7.088  1.6907  1.2548 -0.3215
 1876SOL     hw 7503   0.767   4.109   7.230  0.4355  1.0725 -0.0226
 1876SOL     vw 7504   0.780   4.103   7.144  0.5304  0.3324  0.0424
 1877SOL     ow 7505   7.154   4.243   3.904  0.3355 -0.0062 -0.6133
 1877SOL     hw 7506   7.074   4.258   3.854  0.3033  1.2146 -0.2281
 1877SOL     hw 7507   7.142   4.293   3.985  1.7530  0.7428 -0.8296
 1877SOL     vw 7508   7.142   4.251   3.908  0.5181  0.2534 -0.5909
 1878SOL     ow 7509   1.998   2.916   4.301  0.7744  0.0515  0.3705
 1878SOL     hw 7510   1.964   3.004   4.285 -0.6951 -0.6394 -0.6504
 1878SOL     hw 7511   2.057   2.899   4.228 -1.4494 -0.9403 -1.3393
 1878SOL     vw 7512   2.001   2.925   4.289  0.2872 -0.1705  0.0103
 1879SOL     ow 7513   3.371   0.337   0.567 -0.1932 -0.3508 -0.0728
 1879SOL     hw 7514   3.364   0.264   0.505 -1.6233  0.3932 -0.8424
 1879SOL     hw 7515   3.281   0.352   0.596 -0.2163  2.0701 -1.1252
 1879SOL     vw 7516   3.358   0.329   0.562 -0.3848  0.0667 -0.3132
 1880SOL     ow 7517   3.942   7.093   0.179 -0.4212  0.3213  0.3942
 1880SOL     hw 7518   3.998   7.033   0.228  0.7745  0.7760 -0.3723
 1880SOL     hw 7519   3.987   7.104   0.095 -1.4261  1.0778 -0.0673
 1880SOL     vw 7520   3.955   7.086   0.174 -0.3960  0.4809  0.2321
 1881SOL     ow 7521   4.144   0.707   0.597  0.5627  0.3682  0.1419
 1881SOL     hw 7522   4.112   0.784   0.643  2.3349  0.6850  0.8929
 1881SOL     hw 7523   4.204   0.741   0.531 -1.2313 -0.1486 -1.8729
 1881SOL     vw 7524   4.148   0.722   0.594  0.5593  0.3418 -0.0249
 1882SOL     ow 7525   0.787   3.909   1.386 -0.3664 -0.3170  0.5840
 1882SOL     hw 7526   0.759   3.999   1.367 -1.7072 -0.6800  0.6876
 1882SOL     hw 7527   0.707   3.865   1.415 -1.0486 -2.8941 -4.0999
 1882SOL     vw 7528   0.772   3.915   1.387 -0.6333 -0.7050 -0.0203
 1883SOL     ow 7529   1.373   1.903   1.942  0.0142 -0.5716 -0.4002
 1883SOL     hw 7530   1.366   1.863   2.028  2.0144 -0.1547  0.0184
 1883SOL     hw 7531   1.380   1.829   1.881 -0.2776 -0.8633 -0.0801
 1883SOL     vw 7532   1.373   1.888   1.945  0.2396 -0.5552 -0.3028
 1884SOL     ow 7533   0.174   1.153   5.295  0.3975 -0.1545 -0.4833
 1884SOL     hw 7534   0.156   1.174   5.387  0.7355 -1.1447 -0.1791
 1884SOL     hw 7535   0.142   1.229   5.247 -2.8255 -0.9408  0.1637
 1884SOL     vw 7536   0.167   1.166   5.301  0.0169 -0.3889 -0.3579
 1885SOL     ow 7537   5.187   5.778   7.365 -0.4498 -0.8041 -0.3246
 1885SOL     hw 7538   5.171   5.708   7.302  2.0476 -0.6113 -1.2778
 1885SOL     hw 7539   5.251   5.742   7.426  1.0647  0.6764 -0.9702
 1885SOL     vw 7540   5.193   5.764   7.365  0.0794 -0.5832 -0.5355
 1886SOL     ow 7541   0.178   0.103   0.766  0.1212 -0.3696 -0.2477
 1886SOL     hw 7542   0.124   0.142   0.697  0.4707  0.5747 -0.0127
 1886SOL     hw 7543   0.268   0.112   0.733  0.1715 -1.6070 -0.4814
 1886SOL     vw 7544   0.183   0.110   0.752  0.1739 -0.4083 -0.2475
 1887SOL     ow 7545   4.530   4.993   1.721  0.1619  0.2176  0.9610
 1887SOL     hw 7546   4.543   4.931   1.793 -1.2002  0.6520  1.6166
 1887SOL     hw 7547   4.617   5.005   1.684  0.5448 -1.7635  1.0807
 1887SOL     vw 7548   4.543   4.986   1.726  0.0329  0.0138  1.0633
 1888SOL     ow 7549   2.918   0.294   5.707  0.6289  0.6530  0.5124
 1888SOL     hw 7550   2.922   0.236   5.631 -1.9004 -0.1258  0.8564
 1888SOL     hw 7551   3.008   0.321   5.722  1.6760 -1.7719 -0.7740
 1888SOL     vw 7552   2.930   0.290   5.699  0.4334  0.2303  0.3884
 1889SOL     ow 7553   5.177   7.207   5.469  0.1834  0.3913  0.5830
 1889SOL     hw 7554   5.224   7.147   5.527  0.5688 -2.2091 -2.1806
 1889SOL     hw 7555   5.085   7.187   5.484  0.2901 -0.5073  0.1017
 1889SOL     vw 7556   5.171   7.196   5.479  0.2482 -0.0703  0.1547
 1890SOL     ow 7557   2.935   3.479   0.870  0.5543 -0.5278 -0.1724
 1890SOL     hw 7558   2.965   3.499   0.782  0.1820 -2.2209 -0.7062
 1890SOL     hw 7559   2.883   3.400   0.861  1.5944 -1.5011  1.7528
 1890SOL     vw 7560   2.932   3.471   0.858  0.6424 -0.8795  0.0111
 1891SOL     ow 7561   1.506   5.398   0.968 -0.2523 -0.0496  0.4947
 1891SOL     hw 7562   1.523   5.340   0.895 -3.2459 -0.9855  0.4248
 1891SOL     hw 7563   1.593   5.430   0.994  1.2191 -2.3949 -1.1837
 1891SOL     vw 7564   1.520   5.395   0.962 -0.4532 -0.4826  0.2640
 1892SOL     ow 7565   6.536   0.306   7.346 -0.7130  0.3095  0.8642
 1892SOL     hw 7566   6.535   0.243   7.418  1.6389  1.0052  1.5910
 1892SOL     hw 7567   6.533   0.252   7.267  1.8255 -0.8188  1.4553
 1892SOL     vw 7568   6.535   0.291   7.345 -0.0679  0.2524  1.0383
 1893SOL     ow 7569   2.879   2.650   5.853  0.6976 -0.3846 -0.2782
 1893SOL     hw 7570   2.882   2.557   5.833 -0.6485 -0.6595  0.6225
 1893SOL     hw 7571   2.785   2.670   5.862  1.0113  0.2302  2.9568
 1893SOL     vw 7572   2.867   2.640   5.852  0.5615 -0.3397  0.2673
 1894SOL     ow 7573   3.908   1.592   6.977 -0.2493  0.5070  0.4597
 1894SOL     hw 7574   3.966   1.517   6.988  1.4015  1.7109  0.3688
 1894SOL     hw 7575   3.825   1.554   6.950 -0.1109 -1.4445  2.4287
 1894SOL     vw 7576   3.905   1.577   6.975 -0.0131  0.4084  0.7074
 1895SOL     ow 7577   4.253   1.328   4.168 -0.5679  0.4608  0.6057
 1895SOL     hw 7578   4.193   1.391   4.208 -0.0887  0.8018  0.8058
 1895SOL     hw 7579   4.313   1.304   4.238 -0.2167  0.4425  0.3055
 1895SOL     vw 7580   4.253   1.333   4.182 -0.4582  0.5034  0.5925
 1896SOL     ow 7581   5.951   2.647   2.018  0.6787 -0.5964 -0.0198
 1896SOL     hw 7582   5.969   2.563   1.976 -0.6608 -1.2564  0.6542
 1896SOL     hw 7583   5.856   2.659   2.006  0.8145  0.6998  0.1062
 1896SOL     vw 7584   5.941   2.637   2.011  0.5202 -0.5124  0.0858
 1897SOL     ow 7585   0.936   0.065   5.954 -0.1819 -0.1580 -0.2192
 1897SOL     hw 7586   0.992   0.102   5.886  0.1963  0.1368  0.2484
 1897SOL     hw 7587   0.869   0.132   5.969 -0.6523 -0.4959 -0.7535
 1897SOL     vw 7588   0.935   0.079   5.947 -0.1940 -0.1637 -0.2282
 1898SOL     ow 7589   1.640   4.347   0.540  0.7171  0.1940 -0.1005
 1898SOL     hw 7590   1.643   4.336   0.445 -0.3648  0.8232 -0.2251
 1898SOL     hw 7591   1.550   4.323   0.564  1.3379 -1.2178  0.9471
 1898SOL     vw 7592   1.628   4.342   0.531  0.6562  0.0911  0.0213
 1899SOL     ow 7593   3.789   1.013   2.484 -0.1827  0.3537 -0.4777
 1899SOL     hw 7594   3.874   1.036   2.447  0.0228  0.7482  0.2202
 1899SOL     hw 7595   3.746   0.961   2.416  0.4172  0.5699 -1.0276
 1899SOL     vw 7596   3.795   1.009   2.470 -0.0765  0.4342 -0.4582
 1900SOL     ow 7597   6.964   2.936   1.248  0.7486  0.7241 -0.0473
 1900SOL     hw 7598   6.916   3.018   1.235 -0.7888  0.3490  2.5674
 1900SOL     hw 7599   6.958   2.919   1.342 -2.1895 -4.2070 -0.7760
 1900SOL     vw 7600   6.957   2.944   1.258  0.1581  0.0240  0.2015
 1901SOL     ow 7601   4.592   7.119   3.865  0.1439  0.2404  0.2409
 1901SOL     hw 7602   4.652   7.193   3.856  1.8638 -0.7632  2.3188
 1901SOL     hw 7603   4.621   7.057   3.799  1.0355  0.0258  0.8135
 1901SOL     vw 7604   4.604   7.121   3.855  0.4883  0.0796  0.5907
 1902SOL     ow 7605   1.976   2.406   3.622  0.1081  0.7419 -0.3091
 1902SOL     hw 7606   1.988   2.410   3.527  1.0063  0.5661 -0.2123
 1902SOL     hw 7607   2.034   2.335   3.651 -0.7044  0.3029  0.2912
 1902SOL     vw 7608   1.985   2.397   3.613  0.1194  0.6608 -0.2172
 1903SOL     ow 7609   5.857   7.192   4.029 -0.1169  0.0526  0.9540
 1903SOL     hw 7610   5.949   7.215   4.043 -0.3422  0.8875  1.1051
 1903SOL     hw 7611   5.810   7.240   4.097 -0.9136  1.6925 -0.6692
 1903SOL     vw 7612   5.863   7.201   4.039 -0.2515  0.3793  0.7596
 1904SOL     ow 7613   3.487   4.587   2.062  0.0697 -0.0792 -0.3161
 1904SOL     hw 7614   3.553   4.523   2.034 -0.6042 -0.9315 -0.0202
 1904SOL     hw 7615   3.497   4.660   2.001  2.2340  0.4513  0.5987
 1904SOL     vw 7616   3.497   4.588   2.050  0.2662 -0.1216 -0.1562
 1905SOL     ow 7617   4.857   6.042   4.884  0.2473 -0.0265  0.7622
 1905SOL     hw 7618   4.933   6.027   4.939  1.0487 -5.9849 -1.2071
 1905SOL     hw 7619   4.782   6.032   4.942  0.9235  0.9898  1.8516
 1905SOL     vw 7620   4.857   6.039   4.899  0.4423 -0.6785  0.6464
 1906SOL     ow 7621   1.302   2.370   4.570 -0.1907  1.2934  0.0295
 1906SOL     hw 7622   1.257   2.434   4.515 -0.7731 -0.6148 -1.8677
 1906SOL     hw 7623   1.274   2.285   4.536  3.0232 -0.0228  0.2713
 1906SOL     vw 7624   1.292   2.368   4.558  0.1565  0.8678 -0.1888
 1907SOL     ow 7625   6.012   6.216   3.043  0.2790 -0.2655 -0.2345
 1907SOL     hw 7626   5.992   6.123   3.044 -0.7637 -0.1157  2.7061
 1907SOL     hw 7627   6.043   6.235   3.131  0.6666  2.1619 -0.8150
 1907SOL     vw 7628   6.014   6.206   3.054  0.1922  0.0746  0.0768
 1908SOL     ow 7629   4.947   2.314   3.173  0.9815  0.1256 -0.0117
 1908SOL     hw 7630   4.962   2.324   3.267 -0.2413  1.3632  0.0910
 1908SOL     hw 7631   5.035   2.312   3.135  1.4822  1.2411  1.0200
 1908SOL     vw 7632   4.961   2.315   3.181  0.8860  0.4362  0.1380
 1909SOL     ow 7633   7.039   6.572   2.569  0.1501  0.5833  0.1024
 1909SOL     hw 7634   7.076   6.660   2.563 -0.0356  0.6036 -1.2334
 1909SOL     hw 7635   6.948   6.582   2.541  0.7318 -0.3462 -2.4696
 1909SOL     vw 7636   7.032   6.585   2.564  0.2024  0.4632 -0.4133
 1910SOL     ow 7637   3.516   4.250   6.001  0.1646 -0.0478  1.0850
 1910SOL     hw 7638   3.444   4.219   5.946  1.3768 -0.0252 -0.5769
 1910SOL     hw 7639   3.475   4.313   6.060 -1.5685 -1.6232  1.6911
 1910SOL     vw 7640   3.501   4.254   6.002  0.0960 -0.2527  0.9460
 1911SOL     ow 7641   1.306   4.211   1.972  0.1987  0.4969 -0.0956
 1911SOL     hw 7642   1.227   4.239   1.926  1.3271 -0.2448 -2.6692
 1911SOL     hw 7643   1.377   4.230   1.911  1.9530  0.4084  1.8172
 1911SOL     vw 7644   1.305   4.217   1.958  0.5790  0.3870 -0.1828
 1912SOL     ow 7645   4.098   2.539   5.379  0.0278  0.4671  0.4679
 1912SOL     hw 7646   4.107   2.521   5.473  1.8426  1.3347  0.5045
 1912SOL     hw 7647   4.182   2.512   5.342 -0.7742 -0.1750 -0.9938
 1912SOL     vw 7648   4.110   2.533   5.386  0.1612  0.4967  0.2799
 1913SOL     ow 7649   0.355   6.488   3.139  0.5402 -0.0395  0.6679
 1913SOL     hw 7650   0.279   6.436   3.165  1.7069 -1.7185  0.8528
 1913SOL     hw 7651   0.429   6.446   3.182  2.1347 -0.8578 -2.5533
 1913SOL     vw 7652   0.355   6.476   3.148  0.9045 -0.3691  0.2673
 1914SOL     ow 7653   3.811   0.413   0.888  0.2185  0.1413 -0.2989
 1914SOL     hw 7654   3.808   0.381   0.979  0.3727 -0.4180 -0.4881
 1914SOL     hw 7655   3.833   0.505   0.897 -0.5189  0.2776  0.2731
 1914SOL     vw 7656   3.813   0.421   0.901  0.1415  0.0855 -0.2483
 1915SOL     ow 7657   0.245   1.732   5.283  0.1214 -0.0289  0.5289
 1915SOL     hw 7658   0.213   1.823   5.281  0.5659  0.1141 -1.5594
 1915SOL     hw 7659   0.211   1.697   5.366 -3.2568  0.9024 -0.3162
 1915SOL     vw 7660   0.236   1.740   5.294 -0.2657  0.1128  0.1419
 1916SOL     ow 7661   2.218   2.265   4.818 -0.0213  0.6026  0.2977
 1916SOL     hw 7662   2.142   2.217   4.786 -0.5990  1.8462 -0.2756
 1916SOL     hw 7663   2.248   2.315   4.743  0.6155  1.0766  0.8527
 1916SOL     vw 7664   2.212   2.265   4.804 -0.0135  0.8293  0.2954
 1917SOL     ow 7665   6.394   6.822   6.232  0.6254  0.1765 -0.1185
 1917SOL     hw 7666   6.458   6.893   6.228  0.2242  0.5036 -1.1875
 1917SOL     hw 7667   6.311   6.867   6.248  0.2612  0.0430 -1.4983
 1917SOL     vw 7668   6.391   6.837   6.233  0.5248  0.2022 -0.4416
 1918SOL     ow 7669   2.642   2.811   0.930 -0.1600 -0.4757  0.0677
 1918SOL     hw 7670   2.602   2.894   0.905 -0.8098 -0.7060  0.3330
 1918SOL     hw 7671   2.690   2.830   1.010  2.8358  0.5324 -1.8060
 1918SOL     vw 7672   2.643   2.824   0.937  0.1494 -0.3731 -0.1445
 1919SOL     ow 7673   4.587   6.775   2.114  0.2211 -0.7481 -0.3910
 1919SOL     hw 7674   4.539   6.856   2.133  1.2634 -0.2595  0.2485
 1919SOL     hw 7675   4.542   6.738   2.038 -0.6354  0.1277 -0.3318
 1919SOL     vw 7676   4.574   6.781   2.107  0.2453 -0.5682 -0.2989
 1920SOL     ow 7677   5.085   5.525   1.307 -0.0115 -0.0693  0.7782
 1920SOL     hw 7678   5.173   5.546   1.337 -1.0644  0.3328  4.0410
 1920SOL     hw 7679   5.067   5.439   1.345 -0.6123 -0.7368 -0.9353
 1920SOL     vw 7680   5.094   5.517   1.316 -0.2294 -0.1044  0.9826
 1921SOL     ow 7681   6.982   2.277   0.720  0.1660 -0.3536  0.5001
 1921SOL     hw 7682   6.917   2.242   0.781  1.4281 -2.3366  0.8108
 1921SOL     hw 7683   6.978   2.218   0.644  1.8691 -0.8225  0.7214
 1921SOL     vw 7684   6.973   2.265   0.718  0.5572 -0.6771  0.5703
 1922SOL     ow 7685   3.030   5.315   4.082  0.1657 -0.5675 -0.4604
 1922SOL     hw 7686   3.018   5.262   4.003  1.2037 -2.0775  0.3371
 1922SOL     hw 7687   2.967   5.279   4.145 -1.3183  1.2310 -0.8176
 1922SOL     vw 7688   3.020   5.303   4.080  0.1068 -0.5295 -0.4020
 1923SOL     ow 7689   4.898   6.792   4.005  0.6407  0.5241  0.3573
 1923SOL     hw 7690   4.902   6.796   3.909 -0.6271 -1.5876  0.1534
 1923SOL     hw 7691   4.924   6.880   4.034 -0.5627  1.7287 -1.9664
 1923SOL     vw 7692   4.902   6.804   3.996  0.3145  0.4046  0.0237
 1924SOL     ow 7693   3.156   5.615   6.536 -0.0104  0.0774  0.0177
 1924SOL     hw 7694   3.230   5.669   6.565  0.4524 -1.4806  1.9251
 1924SOL     hw 7695   3.079   5.661   6.569  0.3972 -0.5326  1.9230
 1924SOL     vw 7696   3.156   5.628   6.544  0.1044 -0.2086  0.5207
 1925SOL     ow 7697   5.164   4.301   1.799  0.5581  0.3537  0.0523
 1925SOL     hw 7698   5.226   4.341   1.738 -1.6146 -1.7292 -3.9479
 1925SOL     hw 7699   5.089   4.359   1.799  0.1186 -0.2101 -0.1301
 1925SOL     vw 7700   5.163   4.314   1.791  0.2134  0.0045 -0.4995
 1926SOL     ow 7701   2.812   2.655   5.338 -0.5604  0.0493 -0.0060
 1926SOL     hw 7702   2.758   2.708   5.396 -0.9348  0.7849 -1.0019
 1926SOL     hw 7703   2.788   2.684   5.249  0.2984 -0.7477 -0.5170
 1926SOL     vw 7704   2.801   2.665   5.334 -0.4965  0.0412 -0.2050
 1927SOL     ow 7705   7.196   5.883   3.365  0.0546  0.1252  0.5332
 1927SOL     hw 7706   7.102   5.891   3.380 -0.4499  0.0174 -2.2124
 1927SOL     hw 7707   7.215   5.791   3.381 -0.2530  0.1690  1.2130
 1927SOL     vw 7708   7.186   5.872   3.369 -0.0527  0.1171  0.2607
 1928SOL     ow 7709   2.592   2.639   0.701  0.2650 -0.5653 -0.0906
 1928SOL     hw 7710   2.628   2.706   0.759 -0.7487 -1.5541  1.7654
 1928SOL     hw 7711   2.657   2.568   0.703 -0.0863 -0.8831  0.4231
 1928SOL     vw 7712   2.606   2.638   0.709  0.0850 -0.7378  0.2221
 1929SOL     ow 7713   5.999   3.314   5.688  0.0258  0.6077  0.7838
 1929SOL     hw 7714   6.089   3.331   5.717  0.5008 -0.0416 -0.2549
 1929SOL     hw 7715   5.952   3.294   5.769  1.2475 -0.8206  1.1853
 1929SOL     vw 7716   6.004   3.313   5.703  0.2499  0.3335  0.6998
 1930SOL     ow 7717   1.091   3.406   5.585 -0.5491  0.5074 -0.2266
 1930SOL     hw 7718   1.169   3.438   5.539 -1.3213  1.3524 -0.9971
 1930SOL     hw 7719   1.070   3.322   5.543 -0.5534  0.7030 -0.6223
 1930SOL     vw 7720   1.098   3.399   5.574 -0.6515  0.6448 -0.3808
 1931SOL     ow 7721   1.642   2.464   6.532 -0.1319  0.1821  0.4348
 1931SOL     hw 7722   1.617   2.443   6.442  0.8520 -1.4343  0.4956
 1931SOL     hw 7723   1.694   2.544   6.525  1.1900 -0.7407 -0.6406
 1931SOL     vw 7724   1.645   2.472   6.519  0.1724 -0.1531  0.3011
 1932SOL     ow 7725   4.511   4.032   3.469 -0.6212 -0.1041 -0.2742
 1932SOL     hw 7726   4.576   4.047   3.538 -0.4562 -1.2301 -0.1602
 1932SOL     hw 7727   4.563   4.018   3.390 -0.8026  0.9245 -0.5819
 1932SOL     vw 7728   4.526   4.032   3.468 -0.6237 -0.1171 -0.2998
 1933SOL     ow 7729   4.754   7.064   3.358  0.2629 -0.1652  0.6209
 1933SOL     hw 7730   4.783   7.098   3.273  4.3542  1.5201  2.3719
 1933SOL     hw 7731   4.669   7.106   3.373  0.9842  2.2175 -1.2353
 1933SOL     vw 7732   4.747   7.074   3.349  0.8979  0.3712  0.6070
 1934SOL     ow 7733   0.524   7.336   2.576 -0.1549 -0.3487 -0.5187
 1934SOL     hw 7734   0.612   7.323   2.541  0.4192 -0.4404  0.8963
 1934SOL     hw 7735   0.528   7.302   2.665 -1.8985 -1.2484 -0.7350
 1934SOL     vw 7736   0.536   7.330   2.583 -0.3092 -0.4795 -0.3604
 1935SOL     ow 7737   0.050   5.403   5.495 -0.1758  0.4317 -0.0410
 1935SOL     hw 7738   0.129   5.444   5.460 -0.5547  0.7367 -0.5665
 1935SOL     hw 7739   0.020   5.464   5.563 -1.6066  1.9167 -1.8701
 1935SOL     vw 7740   0.057   5.417   5.500 -0.4145  0.6676 -0.3517
 1936SOL     ow 7741   3.547   0.856   6.539 -0.1863 -0.2906 -0.5606
 1936SOL     hw 7742   3.487   0.850   6.465 -2.2643 -0.1459  0.9987
 1936SOL     hw 7743   3.505   0.802   6.607  2.7039 -2.1766 -0.1050
 1936SOL     vw 7744   3.533   0.848   6.538 -0.0792 -0.5203 -0.2947
 1937SOL     ow 7745   1.860   4.072   5.382  0.2812 -0.1564  0.5037
 1937SOL     hw 7746   1.858   4.061   5.477  0.9916  0.2881  0.5775
 1937SOL     hw 7747   1.953   4.064   5.359 -0.0909 -2.7617 -0.4671
 1937SOL     vw 7748   1.872   4.070   5.392  0.3258 -0.4416  0.3853
 1938SOL     ow 7749   1.738   7.491   5.339 -0.2102  0.3964  0.3556
 1938SOL     hw 7750   1.731   7.437   5.261 -1.7158  0.1870  0.6002
 1938SOL     hw 7751   1.827   7.525   5.337  0.2620 -0.8279 -0.6337
 1938SOL     vw 7752   1.749   7.489   5.329 -0.3465  0.2074  0.2575
 1939SOL     ow 7753   4.442   4.704   0.797  0.0266  0.1307  0.0538
 1939SOL     hw 7754   4.430   4.782   0.744 -0.9475  0.3922  0.6368
 1939SOL     hw 7755   4.530   4.713   0.835 -0.0697  0.9216  0.0899
 1939SOL     vw 7756   4.452   4.715   0.795 -0.1144  0.2694  0.1355
 1940SOL     ow 7757   5.259   2.092   3.172  0.6348  0.0128 -0.3087
 1940SOL     hw 7758   5.241   2.028   3.241  0.4877 -1.4097 -1.6052
 1940SOL     hw 7759   5.210   2.059   3.096  0.5196  1.7104 -1.0070
 1940SOL     vw 7760   5.250   2.079   3.171  0.6001  0.0490 -0.5720
 1941SOL     ow 7761   3.397   0.516   1.855  0.2277 -0.0893 -0.5235
 1941SOL     hw 7762   3.450   0.504   1.776  2.7258  2.2957  0.6351
 1941SOL     hw 7763   3.455   0.493   1.927 -0.0153  3.1038  0.8409
 1941SOL     vw 7764   3.412   0.511   1.854  0.5252  0.6467 -0.1906
 1942SOL     ow 7765   5.224   2.647   3.072 -0.6389 -0.0028  0.3205
 1942SOL     hw 7766   5.195   2.558   3.092  1.3465 -0.6706  0.3684
 1942SOL     hw 7767   5.273   2.674   3.150 -0.6760  0.9048  0.0396
 1942SOL     vw 7768   5.226   2.639   3.085 -0.3817  0.0288  0.2898
 1943SOL     ow 7769   3.201   0.349   5.712  0.4782 -0.5885  0.2177
 1943SOL     hw 7770   3.238   0.414   5.771  0.2200 -1.5273  1.4420
 1943SOL     hw 7771   3.209   0.389   5.625 -1.6987  2.0513  1.1035
 1943SOL     vw 7772   3.207   0.363   5.708  0.1569 -0.3641  0.4961
 1944SOL     ow 7773   0.860   1.819   1.143  0.1300  0.0406  0.3726
 1944SOL     hw 7774   0.947   1.800   1.109  0.1889 -0.8788  1.0016
 1944SOL     hw 7775   0.833   1.739   1.187 -1.4033 -0.0046 -0.5703
 1944SOL     vw 7776   0.868   1.806   1.144 -0.0645 -0.0867  0.3312
 1945SOL     ow 7777   0.913   2.892   5.442 -0.2851 -0.4047 -0.2501
 1945SOL     hw 7778   0.834   2.854   5.481 -1.0671 -0.0774 -1.4415
 1945SOL     hw 7779   0.963   2.817   5.410 -0.6151 -0.5595 -0.4012
 1945SOL     vw 7780   0.909   2.877   5.443 -0.4318 -0.3818 -0.4272
 1946SOL     ow 7781   0.611   2.189   6.620 -0.1837  0.8951 -0.0940
 1946SOL     hw 7782   0.679   2.256   6.626 -0.3020  0.8981  1.9478
 1946SOL     hw 7783   0.658   2.106   6.626 -0.2901  0.8745  0.4511
 1946SOL     vw 7784   0.626   2.187   6.621 -0.2134  0.8929  0.2475
 1947SOL     ow 7785   1.004   5.139   4.816 -0.7691  0.2751  0.0437
 1947SOL     hw 7786   1.069   5.111   4.752 -0.7948 -1.5350  0.7691
 1947SOL     hw 7787   0.928   5.083   4.800 -0.2574 -1.3132  2.5486
 1947SOL     vw 7788   1.002   5.128   4.806 -0.7049 -0.1731  0.4697
 1948SOL     ow 7789   5.322   6.012   0.780 -0.5163 -0.0666  0.1303
 1948SOL     hw 7790   5.274   6.047   0.855 -0.7727 -1.7523  0.8065
 1948SOL     hw 7791   5.414   6.013   0.809 -0.4597  0.5313 -0.0633
 1948SOL     vw 7792   5.328   6.017   0.794 -0.5426 -0.2100  0.1940
 1949SOL     ow 7793   2.589   3.330   1.533 -0.5608 -0.1134 -0.3722
 1949SOL     hw 7794   2.556   3.275   1.605 -2.6427  1.8379  0.2701
 1949SOL     hw 7795   2.513   3.343   1.476  0.5588  0.0386 -1.8912
 1949SOL     vw 7796   2.575   3.324   1.535 -0.6877  0.1642 -0.4879
 1950SOL     ow 7797   4.020   5.353   3.430 -0.1865 -0.7022  0.3793
 1950SOL     hw 7798   4.077   5.326   3.358 -0.8833 -1.5953  0.1544
 1950SOL     hw 7799   4.042   5.445   3.444 -0.2239 -0.4401 -1.1416
 1950SOL     vw 7800   4.031   5.362   3.422 -0.2835 -0.7856  0.1490
 1951SOL     ow 7801   2.315   4.339   2.569  0.1815 -0.5932 -0.5122
 1951SOL     hw 7802   2.256   4.269   2.595  0.4841 -0.5345  0.3516
 1951SOL     hw 7803   2.262   4.419   2.577  0.3577 -0.5453  0.2172
 1951SOL     vw 7804   2.300   4.341   2.573  0.2447 -0.5789 -0.3020
 1952SOL     ow 7805   1.108   1.824   5.196  0.2062 -0.6207  0.4765
 1952SOL     hw 7806   1.070   1.829   5.283  0.7070  0.8183  0.6245
 1952SOL     hw 7807   1.035   1.797   5.140 -0.8441  1.2073  0.9065
 1952SOL     vw 7808   1.093   1.821   5.200  0.1336 -0.1897  0.5527
 1953SOL     ow 7809   0.763   1.592   5.559  0.3738 -0.1275 -1.0697
 1953SOL     hw 7810   0.711   1.514   5.538  1.4526 -1.6329  1.5156
 1953SOL     hw 7811   0.701   1.650   5.604  0.5593 -1.4513  1.0204
 1953SOL     vw 7812   0.748   1.589   5.562  0.5406 -0.5008 -0.4525
 1954SOL     ow 7813   5.343   2.379   5.157  0.0963  0.2745  0.7546
 1954SOL     hw 7814   5.286   2.302   5.160  1.4678 -0.8123  0.0354
 1954SOL     hw 7815   5.368   2.393   5.249  1.3370 -1.3542  0.7223
 1954SOL     vw 7816   5.339   2.371   5.170  0.4411 -0.0838  0.6557
 1955SOL     ow 7817   3.402   7.406   6.495 -0.4912 -0.5218  0.2228
 1955SOL     hw 7818   3.384   7.313   6.511  2.1797 -1.0835  0.3611
 1955SOL     hw 7819   3.491   7.408   6.459 -1.5350  1.7542 -2.7216
 1955SOL     vw 7820   3.411   7.394   6.492 -0.2766 -0.2954 -0.1473
 1956SOL     ow 7821   5.180   4.650   6.525 -0.2324 -0.1448  0.3575
 1956SOL     hw 7822   5.092   4.659   6.561  0.0057 -0.9349  1.1685
 1956SOL     hw 7823   5.223   4.733   6.543 -0.6588  0.0682  0.3827
 1956SOL     vw 7824   5.174   4.662   6.532 -0.2575 -0.2205  0.4678
 1957SOL     ow 7825   0.334   2.296   6.744 -0.4142 -0.0963 -0.1279
 1957SOL     hw 7826   0.247   2.318   6.711  0.6350  1.2287 -2.2083
 1957SOL     hw 7827   0.356   2.368   6.803 -0.0890  0.4419 -0.8920
 1957SOL     vw 7828   0.325   2.308   6.748 -0.2328  0.1496 -0.5033
 1958SOL     ow 7829   5.310   1.152   5.988  0.2445  0.1107 -0.4141
 1958SOL     hw 7830   5.306   1.101   5.907 -1.3538 -1.7710  0.7690
 1958SOL     hw 7831   5.224   1.140   6.029  1.6151 -0.7973  2.5517
 1958SOL     vw 7832   5.298   1.143   5.983  0.2146 -0.2574  0.1333
 1959SOL     ow 7833   4.771   1.252   3.132  0.3021  0.1364 -0.6237
 1959SOL     hw 7834   4.782   1.305   3.053  1.5881 -2.6446 -2.4723
 1959SOL     hw 7835   4.698   1.193   3.112  0.2140 -0.1840  0.5423
 1959SOL     vw 7836   4.763   1.251   3.119  0.4604 -0.2728 -0.7138
 1960SOL     ow 7837   3.930   1.242   5.582 -0.0338 -0.0289  0.4677
 1960SOL     hw 7838   4.006   1.218   5.634  0.8374  1.9107  0.1987
 1960SOL     hw 7839   3.920   1.337   5.597 -2.1701 -0.1510  0.1967
 1960SOL     vw 7840   3.939   1.252   5.591 -0.2007  0.2109  0.3965
 1961SOL     ow 7841   2.808   5.621   0.545  0.5611  0.2906 -0.0811
 1961SOL     hw 7842   2.764   5.648   0.626 -2.0502 -0.1346 -1.2587
 1961SOL     hw 7843   2.784   5.528   0.535 -2.1291  1.1404 -2.9933
 1961SOL     vw 7844   2.799   5.612   0.555 -0.1384  0.3467 -0.6207
 1962SOL     ow 7845   5.379   4.347   4.597 -0.5559 -0.4756  0.0599
 1962SOL     hw 7846   5.312   4.291   4.637 -1.7855  1.0012  0.1963
 1962SOL     hw 7847   5.462   4.311   4.627 -1.3442 -1.4846  1.1216
 1962SOL     vw 7848   5.381   4.335   4.606 -0.8223 -0.4139  0.2177
 1963SOL     ow 7849   6.966   7.231   4.431  0.5737  0.0210 -0.7210
 1963SOL     hw 7850   6.873   7.239   4.454  0.7222  0.9851 -0.4123
 1963SOL     hw 7851   7.009   7.209   4.514  0.6045 -0.5828 -0.8953
 1963SOL     vw 7852   6.959   7.229   4.445  0.5977  0.0684 -0.7031
 1964SOL     ow 7853   5.575   4.482   6.979  0.1504 -0.2774  0.2870
 1964SOL     hw 7854   5.546   4.510   7.066  1.0698  0.3849  0.3949
 1964SOL     hw 7855   5.594   4.564   6.933 -1.2384 -0.5585 -0.8856
 1964SOL     vw 7856   5.573   4.497   6.984  0.0887 -0.2267  0.1466
 1965SOL     ow 7857   4.375   6.920   7.565  0.1463 -0.6020  0.1771
 1965SOL     hw 7858   4.462   6.904   7.602  1.2416 -0.8832 -2.3107
 1965SOL     hw 7859   4.350   6.835   7.527 -0.5463 -0.1525 -0.3817
 1965SOL     vw 7860   4.383   6.906   7.565  0.1993 -0.5798 -0.2246
 1966SOL     ow 7861   6.545   0.697   5.535 -1.2031  0.5475  0.4090
 1966SOL     hw 7862   6.496   0.696   5.453 -3.2587  1.2948  1.5540
 1966SOL     hw 7863   6.573   0.788   5.545 -0.9266  0.4515  0.5229
 1966SOL     vw 7864   6.543   0.709   5.526 -1.4377  0.6334  0.5751
 1967SOL     ow 7865   1.128   5.030   5.051  0.1137 -0.0489  0.0597
 1967SOL     hw 7866   1.150   4.942   5.023 -1.0192 -0.5820  0.7611
 1967SOL     hw 7867   1.103   5.076   4.971 -0.5875 -0.7678 -0.1426
 1967SOL     vw 7868   1.128   5.025   5.037 -0.1283 -0.2141  0.1259
 1968SOL     ow 7869   3.619   3.588   6.089 -0.4043  0.0943  0.4597
 1968SOL     hw 7870   3.548   3.638   6.128 -1.1508 -0.7504  0.2011
 1968SOL     hw 7871   3.616   3.610   5.996 -1.7257 -1.5517  0.0633
 1968SOL     vw 7872   3.609   3.598   6.082 -0.6771 -0.2342  0.3734
 1969SOL     ow 7873   2.024   2.503   4.644  0.0946  0.4672 -0.1540
 1969SOL     hw 7874   2.081   2.507   4.720  0.4055 -2.6791 -0.1134
 1969SOL     hw 7875   2.080   2.529   4.570  0.7388  0.2707  0.2629
 1969SOL     vw 7876   2.039   2.507   4.644  0.2207  0.0262 -0.0937
 1970SOL     ow 7877   5.601   4.058   0.149 -0.4034 -0.0599 -0.5296
 1970SOL     hw 7878   5.570   4.007   0.224  2.5881  1.1471  1.7070
 1970SOL     hw 7879   5.663   4.000   0.105  0.9887  0.6374  0.4522
 1970SOL     vw 7880   5.605   4.044   0.153  0.1752  0.1915 -0.1049
 1971SOL     ow 7881   3.318   4.827   1.429 -0.1882  0.2300  0.6123
 1971SOL     hw 7882   3.262   4.754   1.456  0.3925 -0.5074 -0.1205
 1971SOL     hw 7883   3.383   4.834   1.499 -0.1182 -0.1127  0.5866
 1971SOL     vw 7884   3.319   4.818   1.442 -0.1023  0.0875  0.5122
 1972SOL     ow 7885   4.540   2.449   4.123  0.2507  0.3229 -0.5053
 1972SOL     hw 7886   4.635   2.442   4.136  0.7555  2.5862 -2.3285
 1972SOL     hw 7887   4.521   2.388   4.051 -0.1902 -1.9378  1.3977
 1972SOL     vw 7888   4.550   2.440   4.115  0.2594  0.3233 -0.4947
 1973SOL     ow 7889   4.629   5.996   5.061  0.0856 -0.7654  0.4146
 1973SOL     hw 7890   4.570   6.070   5.050  1.2844  0.2620  0.6867
 1973SOL     hw 7891   4.621   5.972   5.153  0.7622 -0.0133  0.6845
 1973SOL     vw 7892   4.620   6.002   5.071  0.3333 -0.5305  0.4859
 1974SOL     ow 7893   3.801   1.686   0.162  0.0908  0.0017 -0.0081
 1974SOL     hw 7894   3.846   1.767   0.182  1.7777 -0.2708 -2.3343
 1974SOL     hw 7895   3.797   1.639   0.245  1.9711  1.0729  0.7309
 1974SOL     vw 7896   3.806   1.690   0.176  0.5615  0.1070 -0.2175
 1975SOL     ow 7897   0.941   0.305   0.537  0.5221 -0.0110 -0.3612
 1975SOL     hw 7898   0.876   0.284   0.604 -0.8430  0.5680 -1.4466
 1975SOL     hw 7899   0.935   0.233   0.474 -0.8188  1.1825 -1.6777
 1975SOL     vw 7900   0.931   0.293   0.537  0.1651  0.2228 -0.6781
 1976SOL     ow 7901   6.043   7.148   0.192 -0.3938 -0.6956  0.0725
 1976SOL     hw 7902   6.069   7.208   0.123  0.4527  0.2674  1.1908
 1976SOL     hw 7903   6.073   7.189   0.273  1.0570 -3.0318  0.8419
 1976SOL     vw 7904   6.050   7.161   0.194 -0.0906 -0.8769  0.3215
 1977SOL     ow 7905   1.259   5.324   1.565  0.5658 -0.5686 -0.0355
 1977SOL     hw 7906   1.184   5.381   1.547  1.9060  2.2769  2.5118
 1977SOL     hw 7907   1.325   5.349   1.501  1.5888  1.8621  1.8157
 1977SOL     vw 7908   1.258   5.335   1.554  0.8777  0.1278  0.5448
 1978SOL     ow 7909   0.463   1.975   2.187  0.2271 -0.8352  0.2558
 1978SOL     hw 7910   0.420   2.057   2.161  0.5929  0.1945  2.6517
 1978SOL     hw 7911   0.556   1.995   2.181  0.3274 -1.3449  0.1236
 1978SOL     vw 7912   0.469   1.989   2.183  0.2886 -0.7666  0.5544
 1979SOL     ow 7913   2.258   6.230   3.813  0.1618 -0.3087 -0.2127
 1979SOL     hw 7914   2.306   6.158   3.772  0.6269 -0.9021  1.2799
 1979SOL     hw 7915   2.205   6.187   3.881 -0.7991  0.5879 -0.3699
 1979SOL     vw 7916   2.257   6.215   3.817  0.0963 -0.2687 -0.0366
 1980SOL     ow 7917   2.349   3.819   6.934  0.3598 -0.4750  0.4765
 1980SOL     hw 7918   2.259   3.787   6.923 -0.9913  2.2766  2.4368
 1980SOL     hw 7919   2.374   3.792   7.022  0.3974  1.0584  0.9539
 1980SOL     vw 7920   2.341   3.811   6.944  0.1864  0.0904  0.7982
 1981SOL     ow 7921   0.427   4.274   7.278 -0.2582  0.1603 -0.0866
 1981SOL     hw 7922   0.349   4.220   7.286 -1.5895  2.0293  0.2426
 1981SOL     hw 7923   0.459   4.258   7.189 -2.2099  0.8372 -0.9649
 1981SOL     vw 7924   0.421   4.265   7.267 -0.6914  0.4959 -0.1590
 1982SOL     ow 7925   0.989   3.096   3.532 -0.2031  0.3012  0.5168
 1982SOL     hw 7926   1.069   3.046   3.547 -0.0638  0.3505 -0.0617
 1982SOL     hw 7927   0.994   3.123   3.441 -0.6268  0.7541  0.6236
 1982SOL     vw 7928   1.000   3.093   3.522 -0.2406  0.3675  0.4547
 1983SOL     ow 7929   5.045   4.396   3.220  0.1919  0.8649  0.0378
 1983SOL     hw 7930   5.038   4.303   3.199  0.0241  1.3048 -2.0175
 1983SOL     hw 7931   4.964   4.435   3.186  0.9179  1.9874 -0.4497
 1983SOL     vw 7932   5.033   4.389   3.213  0.2656  1.0710 -0.2978
 1984SOL     ow 7933   3.254   1.774   7.309 -0.2681 -0.3229 -0.0318
 1984SOL     hw 7934   3.274   1.818   7.227 -1.8489  0.8864  0.1896
 1984SOL     hw 7935   3.206   1.696   7.283 -1.7567  0.6278 -0.2549
 1984SOL     vw 7936   3.250   1.770   7.295 -0.6732 -0.0379 -0.0322
 1985SOL     ow 7937   0.458   2.319   2.739  0.2432  0.2989  0.7101
 1985SOL     hw 7938   0.405   2.394   2.712 -0.2143 -0.3428 -0.2137
 1985SOL     hw 7939   0.543   2.357   2.763  1.2728  0.8435 -3.1794
 1985SOL     vw 7940   0.462   2.334   2.739  0.3186  0.2861  0.0750
 1986SOL     ow 7941   4.775   0.417   7.327 -0.2525 -0.1035 -0.4338
 1986SOL     hw 7942   4.862   0.456   7.336  0.4547 -1.6468 -0.1420
 1986SOL     hw 7943   4.784   0.331   7.368 -1.3495 -1.0971 -2.1474
 1986SOL     vw 7944   4.788   0.411   7.333 -0.3042 -0.4382 -0.6213
 1987SOL     ow 7945   0.891   3.902   1.126  0.0175  0.2922  1.4193
 1987SOL     hw 7946   0.891   3.881   1.219 -2.2372 -2.6945  0.9202
 1987SOL     hw 7947   0.897   3.817   1.083  0.2513  1.5293 -1.1753
 1987SOL     vw 7948   0.892   3.888   1.133 -0.2491  0.0614  1.0111
 1988SOL     ow 7949   0.248   7.109   3.658 -0.1338  0.2352  0.5471
 1988SOL     hw 7950   0.325   7.155   3.690 -1.0870  0.6903  2.3253
 1988SOL     hw 7951   0.219   7.056   3.733  0.1470 -2.2844 -1.0133
 1988SOL     vw 7952   0.254   7.108   3.672 -0.2225 -0.0372  0.5759
 1989SOL     ow 7953   4.827   6.576   6.286  0.0921  0.0860 -0.1130
 1989SOL     hw 7954   4.878   6.538   6.214  2.1628  1.2964  0.6091
 1989SOL     hw 7955   4.830   6.510   6.355 -0.9146 -0.6049 -0.7137
 1989SOL     vw 7956   4.834   6.563   6.285  0.2325  0.1545 -0.0973
 1990SOL     ow 7957   6.821   4.530   3.704 -0.2519 -0.3738 -1.1076
 1990SOL     hw 7958   6.867   4.592   3.760  0.7312 -2.9613  1.1466
 1990SOL     hw 7959   6.728   4.548   3.720  0.0123  0.5901 -0.5878
 1990SOL     vw 7960   6.815   4.540   3.713 -0.0875 -0.5879 -0.7416
 1991SOL     ow 7961   0.393   6.339   5.558  0.2564 -0.2356 -0.3904
 1991SOL     hw 7962   0.444   6.414   5.529 -0.8416  0.9416  0.5826
 1991SOL     hw 7963   0.342   6.312   5.482  0.0268  0.5649 -0.5247
 1991SOL     vw 7964   0.393   6.345   5.544  0.0813  0.0253 -0.2799
 1992SOL     ow 7965   0.992   2.295   2.520  0.1855 -0.6553 -0.0847
 1992SOL     hw 7966   1.065   2.314   2.579  0.9515  0.0796 -1.2274
 1992SOL     hw 7967   0.930   2.366   2.536  1.1589  0.5361 -1.3313
 1992SOL     vw 7968   0.993   2.307   2.530  0.4150 -0.4013 -0.3999
 1993SOL     ow 7969   0.781   5.773   5.080  0.3117  0.2753  0.1321
 1993SOL     hw 7970   0.819   5.748   5.164  0.5148  2.1451  0.6455
 1993SOL     hw 7971   0.853   5.764   5.018 -0.3887 -3.2977 -0.3866
 1993SOL     vw 7972   0.796   5.768   5.083  0.2461  0.0505  0.1314
 1994SOL     ow 7973   7.471   4.948   5.039  0.1632 -0.1677  0.2989
 1994SOL     hw 7974   7.433   4.879   4.985 -1.0202 -0.0388  0.9327
 1994SOL     hw 7975   7.447   4.925   5.129  3.3243 -1.1459  0.9881
 1994SOL     vw 7976   7.463   4.936   5.044  0.4246 -0.2794  0.4733
 1995SOL     ow 7977   2.960   3.964   5.304 -0.0788  0.4393 -0.3587
 1995SOL     hw 7978   2.995   3.878   5.327 -0.1684  0.2261 -0.9974
 1995SOL     hw 7979   2.870   3.964   5.338  0.0430  0.4255 -0.0324
 1995SOL     vw 7980   2.953   3.953   5.311 -0.0745  0.4094 -0.3998
 1996SOL     ow 7981   5.983   5.225   1.389  0.2311  1.1213  0.0227
 1996SOL     hw 7982   6.044   5.286   1.430  0.0552  0.8607  0.6944
 1996SOL     hw 7983   5.960   5.164   1.459  0.2624  0.3935 -0.5879
 1996SOL     vw 7984   5.988   5.225   1.404  0.2122  0.9911  0.0308
 1997SOL     ow 7985   4.084   2.993   4.477  0.6335  0.1859 -0.6474
 1997SOL     hw 7986   4.109   2.992   4.569 -1.7145  0.2847  0.0663
 1997SOL     hw 7987   4.089   2.902   4.449  3.9600  0.4460 -1.2913
 1997SOL     vw 7988   4.088   2.981   4.485  0.7625  0.2333 -0.6382
 1998SOL     ow 7989   5.045   6.613   2.249 -0.1085  0.4598 -0.5964
 1998SOL     hw 7990   5.027   6.707   2.256 -1.4472  0.4076 -2.5291
 1998SOL     hw 7991   5.113   6.607   2.182 -0.1488  0.0243 -0.5963
 1998SOL     vw 7992   5.052   6.625   2.241 -0.2902  0.3953 -0.8514
 1999SOL     ow 7993   1.202   0.275   6.543  0.6110  0.1646  0.4812
 1999SOL     hw 7994   1.274   0.260   6.482 -0.6227 -0.1874 -0.9399
 1999SOL     hw 7995   1.179   0.188   6.576 -0.3791  0.0164 -0.5367
 1999SOL     vw 7996   1.208   0.262   6.540  0.3176  0.0986  0.1593
 2000SOL     ow 7997   1.995   6.953   2.790 -0.4278  0.0184  0.4288
 2000SOL     hw 7998   2.013   6.859   2.788 -1.0117 -0.0866 -1.1985
 2000SOL     hw 7999   1.908   6.962   2.752 -0.5344  1.1894  0.9175
 2000SOL     vw 8000   1.986   6.942   2.784 -0.5189  0.1590  0.2786
 2001SOL     ow 8001   5.503   2.601   2.280 -0.6212  0.4601  0.3173
 2001SOL     hw 8002   5.462   2.675   2.234  0.1820 -0.9519 -2.9989
 2001SOL     hw 8003   5.451   2.525   2.253 -0.0639 -0.4796  1.8052
 2001SOL     vw 8004   5.491   2.601   2.270 -0.4420  0.1498  0.0761
 2002SOL     ow 8005   3.508   7.334   1.980 -0.2087 -0.2828  0.0509
 2002SOL     hw 8006   3.430   7.330   1.925 -2.5303  2.4811  2.7763
 2002SOL     hw 8007   3.482   7.290   2.061  2.2567 -2.0297  0.0233
 2002SOL     vw 8008   3.495   7.327   1.983 -0.1897 -0.1485  0.4069
 2003SOL     ow 8009   0.467   1.594   2.302 -0.3403 -0.1757  0.3446
 2003SOL     hw 8010   0.543   1.625   2.351 -0.1082 -0.8813  0.4361
 2003SOL     hw 8011   0.398   1.658   2.321  1.1726  2.5916 -2.5772
 2003SOL     vw 8012   0.468   1.607   2.311 -0.1101  0.0963 -0.0287
 2004SOL     ow 8013   0.731   7.473   7.401  0.0278 -0.4804  0.6857
 2004SOL     hw 8014   0.700   7.506   7.485  0.3048  1.0199  0.2374
 2004SOL     hw 8015   0.708   7.542   7.338  0.8607 -1.0437 -0.2777
 2004SOL     vw 8016   0.724   7.486   7.404  0.1742 -0.3567  0.4992
 2005SOL     ow 8017   3.523   6.053   5.436 -0.6014 -0.1899 -0.0324
 2005SOL     hw 8018   3.467   6.006   5.375  1.3640  2.0630 -3.9327
 2005SOL     hw 8019   3.477   6.135   5.454 -0.1496  0.1424 -0.3774
 2005SOL     vw 8020   3.510   6.057   5.431 -0.2823  0.1512 -0.5925
 2006SOL     ow 8021   5.104   7.498   4.922  0.6713  0.1928  0.4467
 2006SOL     hw 8022   5.080   7.415   4.963  1.0019  0.7491  1.8202
 2006SOL     hw 8023   5.105   7.561   4.994  4.1778  0.6425  0.1386
 2006SOL     vw 8024   5.101   7.495   4.937  1.1773  0.3254  0.5872
 2007SOL     ow 8025   2.447   1.673   0.986 -0.1563 -0.5115 -0.0811
 2007SOL     hw 8026   2.509   1.725   1.037  1.3135 -1.3007 -1.0013
 2007SOL     hw 8027   2.396   1.626   1.052  0.3989 -0.0484  0.6998
 2007SOL     vw 8028   2.449   1.673   1.002  0.1109 -0.5546 -0.0994
 2008SOL     ow 8029   4.366   5.959   3.099  0.2561 -0.0974  0.5861
 2008SOL     hw 8030   4.407   5.987   3.181  1.5742 -0.5920  0.1311
 2008SOL     hw 8031   4.438   5.959   3.035 -0.7622  0.3735 -0.6014
 2008SOL     vw 8032   4.381   5.963   3.101  0.2954 -0.1006  0.3693
 2009SOL     ow 8033   0.627   4.481   4.918  0.8772  0.1483 -0.1477
 2009SOL     hw 8034   0.651   4.481   4.825 -1.7716 -1.3481 -0.9085
 2009SOL     hw 8035   0.673   4.406   4.955 -0.4908 -1.1606 -1.0106
 2009SOL     vw 8036   0.636   4.471   4.911  0.3472 -0.2220 -0.3619
 2010SOL     ow 8037   1.871   3.012   4.948 -0.0847 -0.1253 -0.2286
 2010SOL     hw 8038   1.882   3.092   4.999  0.0750  0.5811 -1.3383
 2010SOL     hw 8039   1.776   3.003   4.937 -0.2666 -1.3428  1.7783
 2010SOL     vw 8040   1.860   3.021   4.953 -0.0877 -0.1928 -0.1104
 2011SOL     ow 8041   2.262   4.842   5.092 -0.3777  0.0491  0.6096
 2011SOL     hw 8042   2.354   4.823   5.076 -0.6087 -0.6226  0.0631
 2011SOL     hw 8043   2.222   4.841   5.005 -1.0618 -0.5705  0.9228
 2011SOL     vw 8044   2.269   4.839   5.079 -0.4984 -0.1214  0.5789
 2012SOL     ow 8045   0.864   0.164   7.212 -0.5403  0.0040 -0.0603
 2012SOL     hw 8046   0.807   0.198   7.143 -0.4443  1.0345  0.3541
 2012SOL     hw 8047   0.853   0.226   7.285 -0.5443 -0.9877  0.8028
 2012SOL     vw 8048   0.855   0.177   7.213 -0.5282  0.0091  0.1082
 2013SOL     ow 8049   6.143   2.569   0.646  0.1987 -0.6167 -0.4803
 2013SOL     hw 8050   6.130   2.600   0.736 -1.3089 -0.5755 -0.6878
 2013SOL     hw 8051   6.059   2.529   0.622 -0.3080  1.5276 -2.6914
 2013SOL     vw 8052   6.130   2.568   0.655 -0.0675 -0.3284 -0.7994
 2014SOL     ow 8053   1.893   4.016   5.655  0.3222 -0.5135  0.0171
 2014SOL     hw 8054   1.980   4.055   5.658  0.6409 -1.0942 -1.1808
 2014SOL     hw 8055   1.903   3.931   5.698  0.0470 -0.0631  0.9945
 2014SOL     vw 8056   1.906   4.010   5.661  0.3280 -0.5305 -0.0119
 2015SOL     ow 8057   3.697   7.573   2.170  0.3509 -0.1367 -0.6179
 2015SOL     hw 8058   3.670   7.566   2.261  0.2469  0.5670 -0.5830
 2015SOL     hw 8059   3.704   7.668   2.155  0.5459 -0.2521 -1.2852
 2015SOL     vw 8060   3.695   7.585   2.180  0.3629 -0.0591 -0.7014
 2016SOL     ow 8061   5.834   6.653   4.597 -0.2814 -0.0953  0.1434
 2016SOL     hw 8062   5.879   6.661   4.513 -1.8374 -1.2082 -0.8487
 2016SOL     hw 8063   5.826   6.743   4.630  0.1748  0.3712 -0.9968
 2016SOL     vw 8064   5.839   6.666   4.591 -0.4265 -0.1807 -0.1378
 2017SOL     ow 8065   4.473   6.528   4.651  0.0168  0.1956  0.6354
 2017SOL     hw 8066   4.538   6.545   4.719 -1.0055  2.5909  1.1053
 2017SOL     hw 8067   4.406   6.595   4.664 -0.9164 -0.1369 -1.8843
 2017SOL     vw 8068   4.473   6.539   4.662 -0.2410  0.4680  0.3650
 2018SOL     ow 8069   2.730   6.862   4.008  0.0792  0.0445 -0.6700
 2018SOL     hw 8070   2.684   6.832   4.085  1.0448 -0.4123 -0.2481
 2018SOL     hw 8071   2.822   6.839   4.024  0.3597  0.3030 -1.7681
 2018SOL     vw 8072   2.736   6.855   4.020  0.2434  0.0184 -0.7594
 2019SOL     ow 8073   6.848   6.365   6.579  0.0373 -0.4221  0.2735
 2019SOL     hw 8074   6.760   6.327   6.578 -0.8272  1.4839  0.5573
 2019SOL     hw 8075   6.877   6.356   6.670 -1.7275  2.8625  1.2993
 2019SOL     vw 8076   6.841   6.359   6.591 -0.3097  0.2627  0.4463
 2020SOL     ow 8077   7.281   6.345   2.617  0.4440 -0.0680 -0.5164
 2020SOL     hw 8078   7.247   6.256   2.625  2.5137 -0.7791  1.2804
 2020SOL     hw 8079   7.375   6.337   2.631  0.3848  2.6907  2.8136
 2020SOL     vw 8080   7.289   6.332   2.620  0.7093  0.2022  0.1600
 2021SOL     ow 8081   1.678   3.917   5.219 -0.6061 -0.2703  0.4716
 2021SOL     hw 8082   1.669   3.877   5.133  3.3841  0.0026 -0.2887
 2021SOL     hw 8083   1.741   3.862   5.265 -1.3949  0.5183  2.6334
 2021SOL     vw 8084   1.685   3.905   5.213 -0.1838 -0.1303  0.6564
 2022SOL     ow 8085   3.411   0.369   1.018  0.0844 -0.6117  0.0457
 2022SOL     hw 8086   3.318   0.389   1.030 -0.1776 -2.4873  1.6655
 2022SOL     hw 8087   3.424   0.286   1.064  2.1496 -1.4488 -1.8855
 2022SOL     vw 8088   3.401   0.361   1.026  0.3223 -0.9696  0.0046
 2023SOL     ow 8089   1.855   4.090   6.213 -0.4255 -0.1622  0.1702
 2023SOL     hw 8090   1.790   4.029   6.247  0.5122 -1.3342 -0.1041
 2023SOL     hw 8091   1.817   4.177   6.230 -1.7868 -0.8017  0.5316
 2023SOL     vw 8092   1.841   4.094   6.220 -0.4814 -0.4013  0.1819
 2024SOL     ow 8093   3.496   2.641   1.122  0.2197 -0.4127  0.3582
 2024SOL     hw 8094   3.551   2.563   1.134  0.2079 -0.5357 -0.3524
 2024SOL     hw 8095   3.513   2.694   1.200  1.2066 -0.5329  0.2379
 2024SOL     vw 8096   3.505   2.637   1.134  0.3483 -0.4448  0.2486
 2025SOL     ow 8097   2.725   3.831   2.172 -0.2966  0.0866 -0.0307
 2025SOL     hw 8098   2.820   3.846   2.176 -0.5341  1.4664  1.1111
 2025SOL     hw 8099   2.688   3.916   2.149 -1.2084 -0.7440 -1.9036
 2025SOL     vw 8100   2.733   3.844   2.169 -0.4483  0.1589 -0.1272
 2026SOL     ow 8101   1.125   3.214   7.184  0.8495  0.5554 -0.3992
 2026SOL     hw 8102   1.043   3.165   7.197  0.9259  0.5023 -0.0989
 2026SOL     hw 8103   1.111   3.297   7.229  1.1718  0.3115  0.1779
 2026SOL     vw 8104   1.112   3.218   7.192  0.9021  0.5162 -0.2832
 2027SOL     ow 8105   3.905   6.613   6.953  0.6554 -0.0476 -0.1879
 2027SOL     hw 8106   3.953   6.694   6.966 -0.6304  0.3275  2.9933
 2027SOL     hw 8107   3.862   6.624   6.868 -0.0525  2.9239  0.4692
 2027SOL     vw 8108   3.906   6.625   6.943  0.3924  0.3941  0.3185
 2028SOL     ow 8109   0.933   5.945   7.162 -0.2225 -0.3947  0.0446
 2028SOL     hw 8110   0.904   5.974   7.248  0.5873  0.1808  0.1370
 2028SOL     hw 8111   1.029   5.951   7.166 -0.1396 -1.0383 -0.6607
 2028SOL     vw 8112   0.942   5.949   7.174 -0.1047 -0.4036 -0.0362
 2029SOL     ow 8113   3.657   0.498   4.201 -0.2953  0.0399 -0.5786
 2029SOL     hw 8114   3.642   0.591   4.214 -2.6755 -0.3117 -0.3836
 2029SOL     hw 8115   3.654   0.460   4.289 -1.7382 -0.4750 -0.8117
 2029SOL     vw 8116   3.655   0.505   4.214 -0.7998 -0.0744 -0.5836
 2030SOL     ow 8117   3.025   6.941   4.981 -0.2546  0.0781 -0.1977
 2030SOL     hw 8118   3.046   6.937   5.074 -0.8669 -1.2068 -0.0979
 2030SOL     hw 8119   2.946   6.888   4.971  0.4403 -0.7682 -1.6145
 2030SOL     vw 8120   3.017   6.934   4.992 -0.2437 -0.2034 -0.3712
 2031SOL     ow 8121   4.650   1.022   0.126  0.1827  0.5050  0.5745
 2031SOL     hw 8122   4.657   1.108   0.084  0.4686  1.1861  1.9635
 2031SOL     hw 8123   4.734   1.011   0.173 -0.3552  0.0522  1.4625
 2031SOL     vw 8124   4.662   1.032   0.127  0.1495  0.5351  0.8749
 2032SOL     ow 8125   1.129   6.847   3.176 -0.1341  0.3410  0.0335
 2032SOL     hw 8126   1.135   6.869   3.269 -0.9688 -1.9155  0.6670
 2032SOL     hw 8127   1.060   6.905   3.143  0.2988  1.3017  0.7344
 2032SOL     vw 8128   1.121   6.858   3.184 -0.1871  0.1698  0.2097
 2033SOL     ow 8129   3.514   2.867   5.895 -0.0196  0.1873 -0.0648
 2033SOL     hw 8130   3.458   2.887   5.820 -1.0667  0.4140  0.7577
 2033SOL     hw 8131   3.454   2.863   5.969  1.4773  4.8335  1.7033
 2033SOL     vw 8132   3.499   2.869   5.895  0.0398  0.8303  0.2770
 2034SOL     ow 8133   0.695   5.429   0.661  0.9524  0.0997 -0.4095
 2034SOL     hw 8134   0.674   5.506   0.609  1.6904  0.8358  0.3646
 2034SOL     hw 8135   0.789   5.416   0.649  0.5104 -2.0397 -2.3297
 2034SOL     vw 8136   0.705   5.437   0.653  0.9914 -0.0854 -0.5607
 2035SOL     ow 8137   0.421   2.554   6.500 -0.1807 -0.5958  0.3198
 2035SOL     hw 8138   0.402   2.461   6.490 -0.6227 -0.5747  0.8836
 2035SOL     hw 8139   0.488   2.572   6.435  0.4921 -1.4890  0.7433
 2035SOL     vw 8140   0.427   2.544   6.490 -0.1503 -0.7108  0.4499
 2036SOL     ow 8141   7.588   5.588   5.697 -0.0973 -0.2595 -0.3883
 2036SOL     hw 8142   7.502   5.560   5.728 -0.5297  1.3643 -0.0084
 2036SOL     hw 8143   7.570   5.650   5.627  0.7201  0.5753  0.1006
 2036SOL     vw 8144   7.574   5.592   5.692 -0.0465  0.0651 -0.2739
 2037SOL     ow 8145   3.037   5.371   6.394  0.1876 -0.1114 -0.4011
 2037SOL     hw 8146   3.033   5.418   6.311  0.4355 -1.5187 -1.2471
 2037SOL     hw 8147   2.951   5.329   6.401  0.4495 -0.6475 -0.3577
 2037SOL     vw 8148   3.025   5.371   6.384  0.2548 -0.3679 -0.5069
 2038SOL     ow 8149   3.086   0.574   1.832 -0.4372 -0.1333 -0.2668
 2038SOL     hw 8150   2.998   0.595   1.799 -0.9584 -0.4797  0.8693
 2038SOL     hw 8151   3.103   0.486   1.799  0.0904  0.4532 -1.6617
 2038SOL     vw 8152   3.076   0.565   1.823 -0.4364 -0.1017 -0.3009
 2039SOL     ow 8153   2.641   2.729   1.923  0.5958  0.1654 -0.7601
 2039SOL     hw 8154   2.621   2.821   1.942 -1.5966 -0.2463 -0.7781
 2039SOL     hw 8155   2.697   2.732   1.846  2.4517  1.5323  0.5549
 2039SOL     vw 8156   2.646   2.741   1.915  0.5513  0.2916 -0.5890
 2040SOL     ow 8157   3.915   3.520   6.554 -0.1930  0.0433 -0.1470
 2040SOL     hw 8158   3.991   3.573   6.531 -0.7326  0.9265  0.0761
 2040SOL     hw 8159   3.847   3.583   6.578 -1.3397 -0.6770 -1.3340
 2040SOL     vw 8160   3.916   3.535   6.554 -0.4156  0.0647 -0.2737
 2041SOL     ow 8161   7.089   2.174   1.067  0.3702 -0.2269  0.3155
 2041SOL     hw 8162   7.043   2.202   1.146  0.1002  0.5579 -0.1039
 2041SOL     hw 8163   7.046   2.093   1.041 -1.9768  1.3384 -1.0165
 2041SOL     vw 8164   7.078   2.167   1.074  0.0250  0.0831  0.0844
 2042SOL     ow 8165   1.240   3.429   1.844  0.2122  0.3209 -0.2332
 2042SOL     hw 8166   1.330   3.406   1.820  0.4971  0.5295  0.6040
 2042SOL     hw 8167   1.236   3.524   1.835  0.2339  0.3694  0.2249
 2042SOL     vw 8168   1.251   3.439   1.840  0.2527  0.3548 -0.0623
 2043SOL     ow 8169   0.613   0.013   4.087 -0.6694 -0.7606  0.2662
 2043SOL     hw 8170   0.632  -0.004   3.995  0.3169 -1.2995  0.5514
 2043SOL     hw 8171   0.520  -0.009   4.097 -0.8740 -0.3877 -0.6542
 2043SOL     vw 8172   0.603   0.008   4.076 -0.5663 -0.7825  0.1824
 2044SOL     ow 8173   0.391   4.721   4.993  0.1775 -0.2852 -0.1698
 2044SOL     hw 8174   0.382   4.734   5.087  2.3022  0.2250  0.0052
 2044SOL     hw 8175   0.378   4.808   4.955 -0.5720 -0.4712 -0.3524
 2044SOL     vw 8176   0.388   4.734   5.000  0.3589 -0.2425 -0.1707
 2045SOL     ow 8177   5.167   6.317   4.985  0.8707  0.6235  0.0136
 2045SOL     hw 8178   5.101   6.303   5.053  2.5247  0.0488  1.5782
 2045SOL     hw 8179   5.148   6.405   4.952 -1.4678 -0.0115 -0.5697
 2045SOL     vw 8180   5.155   6.327   4.990  0.7806  0.4640  0.1433
 2046SOL     ow 8181   0.034   3.350   1.765 -0.0853  0.1861 -0.4712
 2046SOL     hw 8182   0.059   3.441   1.751  0.6358 -0.2729 -2.6523
 2046SOL     hw 8183   0.117   3.303   1.774 -0.4409 -0.2973  0.3994
 2046SOL     vw 8184   0.048   3.356   1.764 -0.0371  0.0618 -0.6441
 2047SOL     ow 8185   1.988   5.072   4.444 -0.2883 -0.0850  0.1041
 2047SOL     hw 8186   1.933   5.051   4.520  1.2614 -1.0636  1.0038
 2047SOL     hw 8187   1.966   5.005   4.379  0.0446 -0.6474  0.5675
 2047SOL     vw 8188   1.978   5.060   4.445 -0.0399 -0.2885  0.2840
 2048SOL     ow 8189   0.261   5.852   5.486  0.1943 -0.0912 -0.0936
 2048SOL     hw 8190   0.239   5.943   5.505 -0.6963 -0.2146 -0.5090
 2048SOL     hw 8191   0.293   5.817   5.570  0.2427  0.5124  0.1423
 2048SOL     vw 8192   0.263   5.859   5.500  0.0832 -0.0281 -0.1173
 2049SOL     ow 8193   0.832   2.861   3.877  0.2139 -0.2442 -0.0065
 2049SOL     hw 8194   0.858   2.812   3.954 -1.1037 -0.8575  0.0798
 2049SOL     hw 8195   0.809   2.948   3.911  1.1013 -0.0280  0.0580
 2049SOL     vw 8196   0.832   2.866   3.892  0.1571 -0.2966  0.0134
 2050SOL     ow 8197   1.795   5.045   3.506 -0.3128 -0.3652 -0.0494
 2050SOL     hw 8198   1.793   5.094   3.588  0.4019 -0.2373 -0.0980
 2050SOL     hw 8199   1.791   5.112   3.438 -1.2966 -0.4920 -0.1318
 2050SOL     vw 8200   1.794   5.061   3.508 -0.3482 -0.3650 -0.0665
 2051SOL     ow 8201   6.509   6.342   3.427  0.3947  0.2656 -0.5905
 2051SOL     hw 8202   6.476   6.431   3.445  1.3050  0.6763 -0.8969
 2051SOL     hw 8203   6.603   6.354   3.412  0.3964 -0.6444 -1.4004
 2051SOL     vw 8204   6.517   6.356   3.427  0.5150  0.1998 -0.7378
 2052SOL     ow 8205   0.854   4.438   3.823  0.0315 -0.1694 -0.1813
 2052SOL     hw 8206   0.772   4.402   3.858 -1.5704  3.1456 -0.1148
 2052SOL     hw 8207   0.881   4.375   3.757 -0.1087 -3.5956  2.6965
 2052SOL     vw 8208   0.847   4.425   3.819 -0.1984 -0.1838  0.2071
 2053SOL     ow 8209   0.458   0.362   6.340 -0.4084  0.4562 -0.1881
 2053SOL     hw 8210   0.374   0.382   6.298  0.1117  1.8470 -0.6255
 2053SOL     hw 8211   0.522   0.411   6.289  0.4066  1.1752  1.4560
 2053SOL     vw 8212   0.455   0.371   6.327 -0.2322  0.7346 -0.0288
 2054SOL     ow 8213   0.343   2.309   3.043 -0.0078 -0.3245 -0.1360
 2054SOL     hw 8214   0.405   2.241   3.015  2.2658  0.7390  1.9649
 2054SOL     hw 8215   0.299   2.272   3.120 -0.3540 -0.2129 -0.2767
 2054SOL     vw 8216   0.345   2.295   3.049  0.2465 -0.1695  0.1227
 2055SOL     ow 8217   7.533   3.747   7.172 -1.1275  0.3112  0.3438
 2055SOL     hw 8218   7.477   3.809   7.126 -2.6037 -0.5383  0.9206
 2055SOL     hw 8219   7.494   3.739   7.259  0.3759  0.3013  1.0546
 2055SOL     vw 8220   7.520   3.754   7.177 -1.1241  0.1976  0.5136
 2056SOL     ow 8221   3.293   4.364   7.060 -0.1616 -0.0626  0.1648
 2056SOL     hw 8222   3.246   4.286   7.027  0.5683 -0.6806  0.5534
 2056SOL     hw 8223   3.384   4.335   7.066  0.4257  1.3450 -1.3033
 2056SOL     vw 8224   3.299   4.350   7.056  0.0123  0.0417  0.0224
 2057SOL     ow 8225   0.376   0.321   2.923  0.3350  0.6094 -0.2553
 2057SOL     hw 8226   0.379   0.307   3.017 -0.3658  1.1485 -0.1384
 2057SOL     hw 8227   0.310   0.390   2.911 -0.8743 -0.6738 -1.2712
 2057SOL     vw 8228   0.367   0.328   2.934  0.0830  0.5112 -0.3738
 2058SOL     ow 8229   1.645   1.631   0.229  0.1201  0.3157  0.5011
 2058SOL     hw 8230   1.657   1.545   0.268  0.8412 -0.1002 -0.6057
 2058SOL     hw 8231   1.714   1.638   0.163 -1.3544  0.7549 -1.0812
 2058SOL     vw 8232   1.655   1.621   0.225  0.0207  0.3188  0.1463
 2059SOL     ow 8233   6.753   7.162   2.249 -0.5346 -0.6307 -0.5742
 2059SOL     hw 8234   6.838   7.176   2.206 -0.7197  0.3459 -0.6328
 2059SOL     hw 8235   6.714   7.089   2.200 -0.2284 -0.3186 -1.3046
 2059SOL     vw 8236   6.759   7.154   2.237 -0.5186 -0.4606 -0.6782
 2060SOL     ow 8237   2.234   7.588   1.304 -0.6025 -0.0821  0.7349
 2060SOL     hw 8238   2.173   7.642   1.353 -1.7083 -2.4272  2.1016
 2060SOL     hw 8239   2.204   7.593   1.213 -1.8096  0.1509  1.1320
 2060SOL     vw 8240   2.222   7.596   1.298 -0.9075 -0.3607  0.9676
 2061SOL     ow 8241   5.570   2.373   3.175 -0.0212  0.3331 -0.4578
 2061SOL     hw 8242   5.515   2.421   3.238 -0.4975  2.2639 -2.2594
 2061SOL     hw 8243   5.656   2.412   3.184 -0.2191  0.9904 -1.3653
 2061SOL     vw 8244   5.574   2.385   3.185 -0.1101  0.6745 -0.8153
 2062SOL     ow 8245   2.768   6.404   6.833  0.1590  0.4188  0.1141
 2062SOL     hw 8246   2.753   6.314   6.861 -2.6891  0.5358 -0.6692
 2062SOL     hw 8247   2.823   6.396   6.755  0.6793 -0.5496  0.5658
 2062SOL     vw 8248   2.773   6.391   6.826 -0.1481  0.3064  0.0701
 2063SOL     ow 8249   6.273   4.546   4.777 -0.5252 -0.0384 -0.5610
 2063SOL     hw 8250   6.313   4.579   4.858 -2.0882  0.8325 -0.0985
 2063SOL     hw 8251   6.337   4.567   4.709  1.0866 -1.3109  0.4896
 2063SOL     vw 8252   6.286   4.553   4.779 -0.5188 -0.0916 -0.3617
 2064SOL     ow 8253   0.530   2.647   2.896 -0.1474 -0.1387 -0.0998
 2064SOL     hw 8254   0.534   2.611   2.985  0.7371  2.4903  1.0284
 2064SOL     hw 8255   0.615   2.688   2.883 -0.1486 -0.7309 -2.3473
 2064SOL     vw 8256   0.542   2.648   2.906 -0.0308  0.1302 -0.2475
 2065SOL     ow 8257   1.953   0.274   7.116 -0.4397 -0.0480 -0.8680
 2065SOL     hw 8258   1.975   0.340   7.050  0.9403 -0.8260 -1.2268
 2065SOL     hw 8259   2.028   0.215   7.117 -0.4115 -0.0669  1.4126
 2065SOL     vw 8260   1.966   0.275   7.107 -0.2539 -0.1532 -0.6146
 2066SOL     ow 8261   2.569   6.219   5.442  0.1232  0.0638  0.4057
 2066SOL     hw 8262   2.560   6.179   5.356 -0.5863 -1.0998  0.9855
 2066SOL     hw 8263   2.622   6.157   5.492  0.5639  0.7451  0.7915
 2066SOL     vw 8264   2.574   6.206   5.438  0.0879  0.0002  0.5331
 2067SOL     ow 8265   0.602   1.252   0.260  0.5452 -0.5222  0.1375
 2067SOL     hw 8266   0.615   1.345   0.239 -0.0365 -0.7363 -1.3124
 2067SOL     hw 8267   0.675   1.207   0.218  0.5777 -0.7611  0.4479
 2067SOL     vw 8268   0.613   1.258   0.252  0.4728 -0.5819 -0.0129
 2068SOL     ow 8269   4.533   0.967   5.193  0.7191  0.4292 -0.0718
 2068SOL     hw 8270   4.552   0.892   5.249  1.3566  1.7957  1.6470
 2068SOL     hw 8271   4.439   0.960   5.175  0.9138 -1.1713 -0.6064
 2068SOL     vw 8272   4.523   0.956   5.198  0.8292  0.3983  0.0844
 2069SOL     ow 8273   3.838   2.935   6.174  0.0052 -0.5919 -0.4562
 2069SOL     hw 8274   3.860   3.003   6.237  0.0754  1.3431 -2.4146
 2069SOL     hw 8275   3.918   2.884   6.165  1.0186  1.0214 -1.1601
 2069SOL     vw 8276   3.852   2.938   6.181  0.1482 -0.1237 -0.8073
 2070SOL     ow 8277   2.335   3.594   3.679  0.3715  0.1252 -0.0321
 2070SOL     hw 8278   2.417   3.561   3.714  0.4551  0.0145 -0.3315
 2070SOL     hw 8279   2.361   3.669   3.624  0.1952  0.6303  0.5581
 2070SOL     vw 8280   2.349   3.600   3.676  0.3593  0.1771  0.0062
 2071SOL     ow 8281   0.641   3.251   4.164 -1.0860  0.3926 -0.2250
 2071SOL     hw 8282   0.704   3.321   4.179 -1.6234  0.9133 -0.3659
 2071SOL     hw 8283   0.559   3.296   4.146 -1.3509 -0.2717 -0.7077
 2071SOL     vw 8284   0.639   3.266   4.164 -1.1919  0.3737 -0.3073
 2072SOL     ow 8285   6.076   6.323   1.945  0.0836  0.0231  0.0525
 2072SOL     hw 8286   6.085   6.314   1.850 -1.5361  2.4561 -0.4368
 2072SOL     hw 8287   6.159   6.291   1.980  0.5323 -1.4125 -2.1168
 2072SOL     vw 8288   6.088   6.318   1.937 -0.0708  0.1545 -0.2983
 2073SOL     ow 8289   6.879   2.997   5.737  0.2075  0.5622  0.1971
 2073SOL     hw 8290   6.867   3.091   5.753 -0.2290  0.9329 -1.9221
 2073SOL     hw 8291   6.811   2.955   5.790 -0.4901  1.5606  0.1311
 2073SOL     vw 8292   6.868   3.004   5.746  0.0577  0.7429 -0.0911
 2074SOL     ow 8293   0.958   2.936   5.149  0.1556 -0.4105  0.4735
 2074SOL     hw 8294   1.048   2.962   5.167  1.5619 -1.9919 -3.2118
 2074SOL     hw 8295   0.966   2.857   5.095 -3.4184 -0.2882 -0.5046
 2074SOL     vw 8296   0.971   2.929   5.144 -0.1304 -0.6030 -0.1419
 2075SOL     ow 8297   5.722   6.324   0.930  0.1841  0.2992  0.3411
 2075SOL     hw 8298   5.757   6.319   0.841  0.5313 -2.7361  0.5241
 2075SOL     hw 8299   5.646   6.265   0.929  1.2390 -1.2128  2.4073
 2075SOL     vw 8300   5.717   6.316   0.918  0.3691 -0.3006  0.6379
 2076SOL     ow 8301   0.916   1.907   4.737  0.6533 -0.1969 -0.5353
 2076SOL     hw 8302   0.960   1.873   4.815  0.4581  1.5953  0.4153
 2076SOL     hw 8303   0.856   1.973   4.771 -2.5804 -2.2553 -1.7849
 2076SOL     vw 8304   0.914   1.911   4.752  0.2009 -0.2322 -0.5746
 2077SOL     ow 8305   0.415   2.163   2.540 -0.0160 -0.1748 -0.7930
 2077SOL     hw 8306   0.414   2.210   2.624  0.2693 -0.0148 -0.8794
 2077SOL     hw 8307   0.327   2.126   2.533  0.4213 -1.5297  0.3385
 2077SOL     vw 8308   0.403   2.164   2.550  0.0793 -0.3325 -0.6552
 2078SOL     ow 8309   4.946   5.261   1.357  0.3955 -0.2317 -0.3808
 2078SOL     hw 8310   5.010   5.211   1.408 -0.3226  0.0268  0.7979
 2078SOL     hw 8311   4.941   5.214   1.273 -0.1279 -2.0617  0.6118
 2078SOL     vw 8312   4.954   5.248   1.352  0.2317 -0.4392 -0.0944
 2079SOL     ow 8313   3.976   6.292   3.318 -0.2799  0.3311 -0.1433
 2079SOL     hw 8314   3.956   6.368   3.263  0.5346  0.0213 -0.9106
 2079SOL     hw 8315   3.899   6.281   3.373 -0.8506  1.0640 -0.7652
 2079SOL     vw 8316   3.963   6.301   3.318 -0.2475  0.3872 -0.3266
 2080SOL     ow 8317   2.214   3.146   5.484  1.1383 -0.2713  0.1901
 2080SOL     hw 8318   2.266   3.115   5.410 -0.3326 -0.0246 -1.0002
 2080SOL     hw 8319   2.274   3.199   5.535  1.7488  1.2353 -1.9322
 2080SOL     vw 8320   2.229   3.149   5.481  1.0247 -0.0399 -0.2470
 2081SOL     ow 8321   0.473   6.546   6.457 -0.1801  0.5656  0.2231
 2081SOL     hw 8322   0.466   6.540   6.552  1.0404 -0.0428  0.2884
 2081SOL     hw 8323   0.392   6.507   6.424  1.3461 -3.7717  0.9375
 2081SOL     vw 8324   0.461   6.540   6.465  0.1823 -0.0868  0.3259
 2082SOL     ow 8325   1.523   6.063   5.301 -0.2365  0.1394 -0.0723
 2082SOL     hw 8326   1.522   5.996   5.369 -0.2833  0.8519  0.6498
 2082SOL     hw 8327   1.431   6.089   5.292  0.1147  3.2028  2.8678
 2082SOL     vw 8328   1.510   6.058   5.309 -0.1964  0.6373  0.4108
 2083SOL     ow 8329   4.055   3.485   3.647  0.0377 -0.3666  0.5942
 2083SOL     hw 8330   4.132   3.501   3.701  1.1639  0.3817 -1.1482
 2083SOL     hw 8331   4.028   3.571   3.617  0.9966 -0.8714 -2.0241
 2083SOL     vw 8332   4.062   3.498   3.650  0.3130 -0.3345  0.0188
 2084SOL     ow 8333   5.154   3.724   1.456  0.2236  0.1390  0.2521
 2084SOL     hw 8334   5.235   3.673   1.459 -0.5504 -1.1439  0.2778
 2084SOL     hw 8335   5.085   3.659   1.469 -0.8644  1.0412 -0.8202
 2084SOL     vw 8336   5.156   3.709   1.458 -0.0219  0.0887  0.1140
 2085SOL     ow 8337   4.346   7.361   0.205  0.0481 -0.5372  0.0906
 2085SOL     hw 8338   4.356   7.269   0.181 -0.6091 -0.8595  1.0218
 2085SOL     hw 8339   4.433   7.399   0.191  0.1846 -1.1613 -0.8356
 2085SOL     vw 8340   4.359   7.354   0.200 -0.0205 -0.6618  0.0913
 2086SOL     ow 8341   3.251   2.446   0.813  0.6328  0.2475  0.1753
 2086SOL     hw 8342   3.341   2.420   0.831  0.8883  0.0757 -1.2499
 2086SOL     hw 8343   3.255   2.495   0.731 -0.7808 -1.2938 -0.8868
 2086SOL     vw 8344   3.263   2.449   0.805  0.4799  0.0215 -0.1529
 2087SOL     ow 8345   4.253   0.453   0.618  0.0739  0.1053  0.3630
 2087SOL     hw 8346   4.260   0.429   0.526 -0.9857 -2.2155  0.8403
 2087SOL     hw 8347   4.217   0.542   0.617 -3.2322 -1.0972 -1.4741
 2087SOL     vw 8348   4.249   0.462   0.606 -0.5021 -0.3596  0.1836
 2088SOL     ow 8349   0.711   2.351   3.761  0.0038 -0.1184  0.1786
 2088SOL     hw 8350   0.756   2.428   3.795 -1.4649  0.4796  0.8621
 2088SOL     hw 8351   0.756   2.276   3.802 -0.5413  0.5144  2.0247
 2088SOL     vw 8352   0.723   2.351   3.771 -0.2619  0.0439  0.5122
 2089SOL     ow 8353   0.463   6.341   2.819  0.0223  0.1252  0.3788
 2089SOL     hw 8354   0.443   6.254   2.853  2.0014 -1.0227 -1.2378
 2089SOL     hw 8355   0.459   6.332   2.724 -0.5892  2.0500  0.1651
 2089SOL     vw 8356   0.460   6.329   2.811  0.2027  0.2279  0.1374
 2090SOL     ow 8357   1.931   6.186   3.193 -0.2669  0.5232 -0.2095
 2090SOL     hw 8358   1.871   6.186   3.267  1.1874  1.1637  1.0444
 2090SOL     hw 8359   1.951   6.094   3.178 -0.2359  0.4091  0.5031
 2090SOL     vw 8360   1.926   6.174   3.201 -0.0709  0.5927  0.0499
 2091SOL     ow 8361   6.427   2.785   4.728 -0.5838  0.2369  0.1611
 2091SOL     hw 8362   6.483   2.736   4.668  1.6050  0.9186  1.5489
 2091SOL     hw 8363   6.341   2.787   4.685 -0.0426 -2.3452 -1.2415
 2091SOL     vw 8364   6.423   2.779   4.715 -0.2236 -0.0139  0.1590
 2092SOL     ow 8365   5.808   1.632   5.351  0.1153 -0.4822  0.9777
 2092SOL     hw 8366   5.726   1.626   5.304  0.4702  3.1780 -0.4692
 2092SOL     hw 8367   5.870   1.579   5.301 -0.5110 -0.0752 -0.2551
 2092SOL     vw 8368   5.806   1.624   5.338  0.0796  0.0544  0.6242
 2093SOL     ow 8369   6.037   3.669   2.634  0.4725 -0.1135 -0.0906
 2093SOL     hw 8370   6.059   3.576   2.634  1.5820  0.1418 -0.0705
 2093SOL     hw 8371   5.941   3.671   2.626  0.1272 -1.3309  2.6018
 2093SOL     vw 8372   6.027   3.657   2.633  0.5732 -0.2404  0.2674
 2094SOL     ow 8373   6.291   6.100   3.934 -0.1222 -0.3068 -0.2104
 2094SOL     hw 8374   6.197   6.088   3.922  0.2391 -1.5626 -2.1336
 2094SOL     hw 8375   6.307   6.191   3.909 -0.6178 -0.5213 -1.3457
 2094SOL     vw 8376   6.281   6.111   3.929 -0.1400 -0.5007 -0.6140
 2095SOL     ow 8377   0.836   6.413   3.514  0.1582 -0.1020 -0.5823
 2095SOL     hw 8378   0.825   6.343   3.578 -0.1171  0.0896 -0.4117
 2095SOL     hw 8379   0.781   6.387   3.440 -1.5268  0.8526  0.2701
 2095SOL     vw 8380   0.827   6.401   3.513 -0.1004  0.0494 -0.4474
 2096SOL     ow 8381   0.169   0.002   7.151 -0.0527  0.4523 -0.1601
 2096SOL     hw 8382   0.179   0.091   7.184  1.2095 -0.1477  1.2010
 2096SOL     hw 8383   0.223  -0.052   7.209 -2.1465 -1.4739  0.1585
 2096SOL     vw 8384   0.177   0.006   7.163 -0.1624  0.1190  0.0618
 2097SOL     ow 8385   2.478   7.426   6.398 -0.6456 -0.3878 -0.3644
 2097SOL     hw 8386   2.520   7.358   6.345  1.1472  0.6548 -0.3314
 2097SOL     hw 8387   2.480   7.504   6.343 -2.1759 -0.1814 -0.1777
 2097SOL     vw 8388   2.484   7.427   6.383 -0.6108 -0.2232 -0.3357
 2098SOL     ow 8389   7.482   3.236   7.448  0.7770 -0.4220  0.5450
 2098SOL     hw 8390   7.487   3.144   7.476  0.7213 -0.3129  0.9234
 2098SOL     hw 8391   7.572   3.268   7.453  1.1633 -1.0344 -1.6337
 2098SOL     vw 8392   7.495   3.228   7.452  0.8209 -0.4884  0.3073
 2099SOL     ow 8393   4.071   6.788   5.538 -0.0898 -0.2044  0.7606
 2099SOL     hw 8394   4.041   6.712   5.588  1.0572  0.2482  2.2136
 2099SOL     hw 8395   4.166   6.788   5.549  0.1993 -0.0127 -1.3793
 2099SOL     vw 8396   4.080   6.778   5.546  0.0994 -0.1194  0.6702
 2100SOL     ow 8397   1.965   3.771   5.821 -0.2551 -0.2905  0.1754
 2100SOL     hw 8398   2.051   3.745   5.787 -0.3291  0.3374 -0.5167
 2100SOL     hw 8399   1.963   3.736   5.910 -1.3430 -4.8663 -1.3890
 2100SOL     vw 8400   1.976   3.763   5.828 -0.4084 -0.8115 -0.1223
 2101SOL     ow 8401   1.862   2.337   1.944 -0.3952  0.1148  0.1202
 2101SOL     hw 8402   1.777   2.381   1.935 -0.9448 -0.9583 -0.2226
 2101SOL     hw 8403   1.923   2.392   1.896 -0.8654  0.9693  0.4728
 2101SOL     vw 8404   1.859   2.350   1.937 -0.5296  0.0858  0.1215
 2102SOL     ow 8405   1.422   3.979   5.896  0.0720  0.4027 -0.5000
 2102SOL     hw 8406   1.397   3.887   5.909  1.9352 -0.1403 -0.4382
 2102SOL     hw 8407   1.408   4.019   5.982  0.5609 -0.1647 -0.1469
 2102SOL     vw 8408   1.417   3.972   5.909  0.3823  0.2562 -0.4454
 2103SOL     ow 8409   3.592   4.120   6.218 -1.0681  0.1445  0.1855
 2103SOL     hw 8410   3.601   4.194   6.278 -0.9057 -2.2525  3.3962
 2103SOL     hw 8411   3.562   4.159   6.136 -4.0642  3.4947  2.5394
 2103SOL     vw 8412   3.589   4.134   6.215 -1.4418  0.2701  0.9198
 2104SOL     ow 8413   3.230   2.798   1.619 -0.0593 -0.0019  0.5485
 2104SOL     hw 8414   3.282   2.809   1.699 -1.9844 -2.3585  2.2773
 2104SOL     hw 8415   3.264   2.718   1.580 -0.2636  0.2079 -0.0575
 2104SOL     vw 8416   3.241   2.789   1.625 -0.3403 -0.2850  0.6967
 2105SOL     ow 8417   2.379   4.452   5.372  0.4025  0.0754 -0.6764
 2105SOL     hw 8418   2.464   4.424   5.336 -1.0976  0.2505 -4.9071
 2105SOL     hw 8419   2.345   4.375   5.417  2.3688 -0.2738  0.3145
 2105SOL     vw 8420   2.386   4.438   5.373  0.4640  0.0525 -1.1039
 2106SOL     ow 8421   1.892   1.059   3.804  0.5446 -0.3251 -0.4054
 2106SOL     hw 8422   1.913   1.137   3.856  1.3474  0.4870 -1.8995
 2106SOL     hw 8423   1.964   1.050   3.743 -1.3156  0.0148 -2.8139
 2106SOL     vw 8424   1.904   1.068   3.803  0.4051 -0.1731 -0.9203
 2107SOL     ow 8425   3.055   6.007   3.039  0.0090  0.1553  0.4108
 2107SOL     hw 8426   3.041   5.998   2.944  0.9686 -2.6553  0.4503
 2107SOL     hw 8427   3.128   6.068   3.047  0.7874 -0.5745 -0.7631
 2107SOL     vw 8428   3.062   6.014   3.027  0.2383 -0.3116  0.2613
 2108SOL     ow 8429   6.354   0.592   5.965 -0.0278  0.2152  0.3417
 2108SOL     hw 8430   6.349   0.653   5.891 -1.4408  1.6611  1.5333
 2108SOL     hw 8431   6.287   0.527   5.947  1.2377 -0.8380 -0.7598
 2108SOL     vw 8432   6.344   0.592   5.953 -0.0474  0.2670  0.3536
 2109SOL     ow 8433   3.884   5.984   2.633  0.6190  0.2242 -0.1722
 2109SOL     hw 8434   3.825   6.044   2.679  1.8595 -0.3709  2.3765
 2109SOL     hw 8435   3.967   5.990   2.680  1.5189 -1.6572 -1.3866
 2109SOL     vw 8436   3.887   5.992   2.645  0.9015 -0.1030  0.0038
 2110SOL     ow 8437   1.462   2.409   5.022 -0.4759 -0.2089 -0.2783
 2110SOL     hw 8438   1.460   2.505   5.024 -2.3886 -0.2193  1.0313
 2110SOL     hw 8439   1.524   2.385   5.090 -1.6829  0.1261  0.9830
 2110SOL     vw 8440   1.470   2.418   5.031 -0.8875 -0.1661  0.0610
 2111SOL     ow 8441   3.049   5.121   4.573  0.3578  0.2693 -0.3890
 2111SOL     hw 8442   3.031   5.103   4.481  0.0943  1.3713 -0.5731
 2111SOL     hw 8443   3.117   5.188   4.571  0.0364  0.6240  0.2053
 2111SOL     vw 8444   3.055   5.128   4.560  0.2806  0.4616 -0.3347
 2112SOL     ow 8445   0.509   5.904   4.881 -0.3110 -0.5317  0.1591
 2112SOL     hw 8446   0.424   5.869   4.905 -0.3876  0.0687  0.7898
 2112SOL     hw 8447   0.507   5.995   4.911 -0.6289  0.4820 -2.6039
 2112SOL     vw 8448   0.498   5.911   4.888 -0.3631 -0.3190 -0.1221
 2113SOL     ow 8449   0.425   1.612   1.919 -0.1341 -0.8082  1.0127
 2113SOL     hw 8450   0.493   1.679   1.924  1.3291 -2.2154  0.7890
 2113SOL     hw 8451   0.380   1.630   1.836 -0.1620  0.2445  1.2483
 2113SOL     vw 8452   0.428   1.623   1.909  0.0553 -0.8550  1.0143
 2114SOL     ow 8453   0.975   2.680   3.152 -0.6106 -1.0451 -0.2340
 2114SOL     hw 8454   0.937   2.710   3.235  0.3395  0.7614 -0.3952
 2114SOL     hw 8455   0.928   2.599   3.131 -0.7345 -1.6593  2.1540
 2114SOL     vw 8456   0.964   2.673   3.160 -0.5016 -0.8879  0.0598
 2115SOL     ow 8457   4.628   0.583   0.059  0.6246  0.2760  0.1564
 2115SOL     hw 8458   4.672   0.504   0.092 -1.3227 -0.3563  1.4314
 2115SOL     hw 8459   4.610   0.564  -0.033  0.7560 -0.5001  0.2831
 2115SOL     vw 8460   4.631   0.570   0.051  0.3853  0.0902  0.3413
 2116SOL     ow 8461   3.836   0.955   7.354  0.2499 -0.4544 -0.3161
 2116SOL     hw 8462   3.832   0.971   7.448  0.9429  2.3857 -0.6683
 2116SOL     hw 8463   3.745   0.960   7.325  0.1216 -0.4638  0.0808
 2116SOL     vw 8464   3.823   0.958   7.362  0.3244 -0.0809 -0.3102
 2117SOL     ow 8465   2.131   3.650   5.650 -0.1916  0.2035 -0.6122
 2117SOL     hw 8466   2.184   3.578   5.685  0.6854  0.7351 -0.8202
 2117SOL     hw 8467   2.067   3.607   5.593 -0.5012 -0.5178  0.2495
 2117SOL     vw 8468   2.130   3.635   5.647 -0.1167  0.1786 -0.5260
 2118SOL     ow 8469   5.547   1.499   7.453  0.1353 -0.2111 -0.1633
 2118SOL     hw 8470   5.522   1.448   7.376  1.3887  0.4684 -1.0560
 2118SOL     hw 8471   5.484   1.474   7.520 -2.0569  0.4381 -1.8772
 2118SOL     vw 8472   5.536   1.489   7.452  0.0114 -0.0357 -0.5076
 2119SOL     ow 8473   4.991   5.866   5.413  0.3774 -0.0793  0.5075
 2119SOL     hw 8474   4.904   5.899   5.436  0.4990 -0.9488  2.4965
 2119SOL     hw 8475   4.975   5.799   5.347 -0.1668  1.5983 -1.1414
 2119SOL     vw 8476   4.978   5.862   5.408  0.3219  0.0274  0.5524
 2120SOL     ow 8477   2.104   4.065   5.320 -0.4227  0.1455 -0.1786
 2120SOL     hw 8478   2.119   3.970   5.330 -0.5507  0.2853  1.7745
 2120SOL     hw 8479   2.112   4.081   5.226  1.0311 -1.5688 -0.3948
 2120SOL     vw 8480   2.107   4.054   5.309 -0.2477 -0.0622  0.0505
 2121SOL     ow 8481   3.395   6.716   0.934  0.4188  0.0319  0.1386
 2121SOL     hw 8482   3.461   6.721   1.004  1.8212 -3.9270 -0.6519
 2121SOL     hw 8483   3.312   6.707   0.981  0.8025  1.5114  1.1870
 2121SOL     vw 8484   3.393   6.716   0.950  0.6546 -0.2952  0.1727
 2122SOL     ow 8485   6.206   7.066   5.213  0.3669 -0.0570 -0.4733
 2122SOL     hw 8486   6.128   7.042   5.263  0.0533 -0.3567 -1.0856
 2122SOL     hw 8487   6.278   7.058   5.276  0.0543 -0.9844 -0.2164
 2122SOL     vw 8488   6.205   7.062   5.228  0.2842 -0.2189 -0.5202
 2123SOL     ow 8489   7.110   5.090   0.859  0.0916  0.3916  0.2664
 2123SOL     hw 8490   7.164   5.167   0.839  0.5222  0.1849  0.6051
 2123SOL     hw 8491   7.033   5.127   0.903  0.0426  0.6756 -0.0569
 2123SOL     vw 8492   7.107   5.105   0.862  0.1421  0.4017  0.2684
 2124SOL     ow 8493   1.968   7.458   6.601 -0.1342  0.2623  0.5935
 2124SOL     hw 8494   1.873   7.473   6.599  0.0062  1.2396 -0.3630
 2124SOL     hw 8495   1.999   7.508   6.676 -0.2696  0.7488  0.3303
 2124SOL     vw 8496   1.960   7.467   6.610 -0.1335  0.4556  0.4327
 2125SOL     ow 8497   3.208   0.536   4.531  0.2388  0.7879 -0.2541
 2125SOL     hw 8498   3.281   0.593   4.507  0.5619  0.6324  0.3455
 2125SOL     hw 8499   3.209   0.466   4.467  0.6049  0.7990 -0.2601
 2125SOL     vw 8500   3.218   0.535   4.520  0.3297  0.7688 -0.1757
 2126SOL     ow 8501   3.011   5.223   1.231 -0.3937  0.5443  0.7298
 2126SOL     hw 8502   3.107   5.224   1.232 -0.3925  0.2194  1.3159
 2126SOL     hw 8503   2.986   5.170   1.307 -0.9886 -2.0469 -1.1308
 2126SOL     vw 8504   3.020   5.216   1.241 -0.4719  0.1595  0.5617
 2127SOL     ow 8505   0.970   3.624   0.346 -0.4711  0.8384 -0.2480
 2127SOL     hw 8506   1.052   3.619   0.396 -0.9898  0.4641  0.5899
 2127SOL     hw 8507   0.951   3.718   0.341 -0.6786  0.8623  0.7270
 2127SOL     vw 8508   0.978   3.636   0.352 -0.5669  0.7921 -0.0088
 2128SOL     ow 8509   1.680   7.576   4.767  0.1206  0.3683 -0.0680
 2128SOL     hw 8510   1.587   7.580   4.788  0.2777  2.2542  0.4666
 2128SOL     hw 8511   1.708   7.490   4.799 -1.5281 -0.4739 -0.7697
 2128SOL     vw 8512   1.672   7.565   4.774 -0.0762  0.5059 -0.0901
 2129SOL     ow 8513   5.453   5.713   5.301  0.1499  0.1392 -0.4024
 2129SOL     hw 8514   5.460   5.669   5.216 -0.4198  1.3584 -1.1066
 2129SOL     hw 8515   5.464   5.643   5.365  0.0081 -0.9025 -1.4801
 2129SOL     vw 8516   5.456   5.698   5.298  0.0563  0.1628 -0.6375
 2130SOL     ow 8517   5.664   5.098   4.165 -0.3087  0.4108 -0.2637
 2130SOL     hw 8518   5.640   5.048   4.243  0.2379 -1.2480 -1.1140
 2130SOL     hw 8519   5.696   5.182   4.199 -0.6664 -0.0443  1.2458
 2130SOL     vw 8520   5.665   5.103   4.180 -0.2842  0.1318 -0.1767
 2131SOL     ow 8521   0.671   5.194   7.274 -0.5038  0.0674  0.2196
 2131SOL     hw 8522   0.731   5.190   7.348 -2.7268 -2.6513  2.0992
 2131SOL     hw 8523   0.668   5.104   7.241  0.9921  1.2723 -3.8744
 2131SOL     vw 8524   0.678   5.181   7.280 -0.5997 -0.1323 -0.0727
 2132SOL     ow 8525   7.553   4.827   0.753  0.4291  0.6875 -0.1458
 2132SOL     hw 8526   7.591   4.841   0.667  0.4529  1.1178 -0.0648
 2132SOL     hw 8527   7.592   4.895   0.808  0.1061  0.6661  0.1103
 2132SOL     vw 8528   7.563   4.838   0.749  0.3896  0.7415 -0.1013
 2133SOL     ow 8529   1.434   2.239   1.638 -0.3013  0.2584 -0.5082
 2133SOL     hw 8530   1.362   2.193   1.681 -1.4246  0.8184 -1.7227
 2133SOL     hw 8531   1.507   2.177   1.640 -0.2606  0.2724  2.1789
 2133SOL     vw 8532   1.434   2.225   1.644 -0.4442  0.3341 -0.3139
 2134SOL     ow 8533   5.563   2.774   3.612  0.3327  0.1702 -0.8346
 2134SOL     hw 8534   5.544   2.683   3.635 -2.2126  0.3525 -1.7932
 2134SOL     hw 8535   5.600   2.812   3.691  3.4239 -2.1304 -1.0218
 2134SOL     vw 8536   5.565   2.767   3.625  0.4048 -0.1094 -0.9857
 2135SOL     ow 8537   0.688   3.358   5.887 -0.8990  0.6159 -0.2839
 2135SOL     hw 8538   0.603   3.318   5.870 -0.6588 -0.3217  0.6150
 2135SOL     hw 8539   0.738   3.290   5.932  0.0396  1.4398 -0.0413
 2135SOL     vw 8540   0.683   3.344   5.891 -0.7434  0.6011 -0.1333
 2136SOL     ow 8541   1.345   4.531   0.370  0.1394  0.1373 -0.0966
 2136SOL     hw 8542   1.400   4.569   0.439 -1.2443  2.5254 -0.1636
 2136SOL     hw 8543   1.302   4.456   0.412  1.1266  0.1033  0.8919
 2136SOL     vw 8544   1.346   4.526   0.385  0.0871  0.4478  0.0250
 2137SOL     ow 8545   5.991   2.238   6.649  0.1410 -0.1078  0.3163
 2137SOL     hw 8546   5.964   2.299   6.718 -0.7332  1.2853 -1.1709
 2137SOL     hw 8547   5.924   2.170   6.650 -0.0503  0.0792  0.6220
 2137SOL     vw 8548   5.978   2.237   6.658  0.0002  0.1007  0.1605
 2138SOL     ow 8549   7.179   7.069   3.686  0.3879  0.2860 -0.4004
 2138SOL     hw 8550   7.269   7.100   3.694  1.0339 -1.6356  0.5512
 2138SOL     hw 8551   7.181   7.007   3.614 -0.6196  1.5446 -1.5554
 2138SOL     vw 8552   7.191   7.065   3.678  0.3402  0.1988 -0.4272
 2139SOL     ow 8553   2.176   7.575   3.853  0.2535  0.4782 -0.6370
 2139SOL     hw 8554   2.161   7.482   3.834  0.2300  0.1588  0.8547
 2139SOL     hw 8555   2.161   7.619   3.769  0.6888 -0.9000 -1.4761
 2139SOL     vw 8556   2.172   7.569   3.839  0.3078  0.2542 -0.5510
 2140SOL     ow 8557   6.957   3.877   2.169 -0.0323  0.0358  0.4133
 2140SOL     hw 8558   6.988   3.790   2.145 -0.6634  0.1669 -0.9682
 2140SOL     hw 8559   6.936   3.870   2.263 -0.6815 -1.4832  0.1882
 2140SOL     vw 8560   6.958   3.864   2.179 -0.2010 -0.1473  0.2013
 2141SOL     ow 8561   6.973   1.216   6.488  1.0022 -0.0529 -0.0302
 2141SOL     hw 8562   6.953   1.150   6.554 -0.3783  1.3299  1.0095
 2141SOL     hw 8563   6.892   1.224   6.437  0.5599  1.8703  0.8485
 2141SOL     vw 8564   6.959   1.209   6.490  0.7615  0.3833  0.2229
 2142SOL     ow 8565   4.736   2.721   2.162 -0.6284 -0.0359  0.0140
 2142SOL     hw 8566   4.801   2.785   2.133 -1.7845  0.6126 -1.2474
 2142SOL     hw 8567   4.666   2.727   2.098 -1.8156 -0.9366  1.1677
 2142SOL     vw 8568   4.736   2.730   2.150 -0.9375 -0.0691 -0.0001
 2143SOL     ow 8569   0.841   1.449   1.986 -0.9861 -0.2191  0.6265
 2143SOL     hw 8570   0.841   1.545   1.980  0.8246 -0.2878 -2.1994
 2143SOL     hw 8571   0.762   1.423   1.939  0.8778 -0.0961 -2.8832
 2143SOL     vw 8572   0.831   1.459   1.979 -0.5012 -0.2120 -0.2094
 2144SOL     ow 8573   2.607   6.770   2.094 -0.2636  0.1445 -0.2369
 2144SOL     hw 8574   2.687   6.743   2.140 -0.5547 -0.6069 -0.1650
 2144SOL     hw 8575   2.613   6.726   2.009  0.4085  1.7444 -1.0620
 2144SOL     vw 8576   2.619   6.761   2.089 -0.2133  0.2568 -0.3363
 2145SOL     ow 8577   5.086   0.747   1.618  0.4317  0.1410 -0.3357
 2145SOL     hw 8578   5.130   0.821   1.659 -3.3677  0.7287  3.3107
 2145SOL     hw 8579   5.012   0.786   1.571  0.9773 -1.0978 -2.3377
 2145SOL     vw 8580   5.082   0.762   1.617  0.0026  0.0551 -0.1187
 2146SOL     ow 8581   3.655   4.484   1.453 -0.0142 -0.4817 -0.7803
 2146SOL     hw 8582   3.673   4.419   1.385 -1.7293 -2.9195  0.9167
 2146SOL     hw 8583   3.559   4.488   1.457 -0.0602 -1.7395  2.5072
 2146SOL     vw 8584   3.644   4.476   1.444 -0.2465 -0.9692 -0.1227
 2147SOL     ow 8585   4.520   1.922   2.733 -0.1548  0.1713  0.1093
 2147SOL     hw 8586   4.484   1.978   2.802 -0.8603 -0.9682  0.6975
 2147SOL     hw 8587   4.572   1.857   2.780 -1.1357 -0.9863 -0.3717
 2147SOL     vw 8588   4.522   1.921   2.748 -0.3772 -0.1317  0.1235
 2148SOL     ow 8589   2.378   0.240   6.752 -0.2195 -0.1306 -0.5110
 2148SOL     hw 8590   2.413   0.249   6.663 -1.6111  2.9067 -0.8745
 2148SOL     hw 8591   2.298   0.188   6.741  1.0578 -2.2330 -0.5030
 2148SOL     vw 8592   2.372   0.234   6.739 -0.2345 -0.0073 -0.5579
 2149SOL     ow 8593   4.805   5.652   1.513 -0.2933 -0.1902  0.0377
 2149SOL     hw 8594   4.759   5.577   1.477 -1.0602 -0.3248  1.2347
 2149SOL     hw 8595   4.865   5.615   1.578  0.0884  0.1427 -0.1228
 2149SOL     vw 8596   4.806   5.637   1.517 -0.3440 -0.1640  0.1744
 2150SOL     ow 8597   2.218   2.069   0.931 -1.0405  0.4395 -0.5080
 2150SOL     hw 8598   2.284   2.126   0.971 -0.2529 -0.3838 -0.5997
 2150SOL     hw 8599   2.234   1.983   0.971 -1.5089  0.0408 -1.1671
 2150SOL     vw 8600   2.229   2.065   0.942 -0.9985  0.2782 -0.6070
 2151SOL     ow 8601   7.020   6.258   6.317  0.3390  0.7041 -0.4178
 2151SOL     hw 8602   7.019   6.176   6.367 -0.0441  1.3464  0.6755
 2151SOL     hw 8603   7.035   6.231   6.227  1.9012 -0.4530  0.1370
 2151SOL     vw 8604   7.021   6.244   6.312  0.4947  0.6359 -0.2005
 2152SOL     ow 8605   2.318   2.191   5.398  0.0488  0.0889  0.4456
 2152SOL     hw 8606   2.295   2.278   5.366 -1.4276  0.1847  1.6826
 2152SOL     hw 8607   2.258   2.175   5.471 -0.6482 -2.4979 -0.5702
 2152SOL     vw 8608   2.307   2.200   5.403 -0.2381 -0.2398  0.4747
 2153SOL     ow 8609   0.245   6.517   4.426  0.4011 -0.0826  0.1583
 2153SOL     hw 8610   0.225   6.513   4.332  0.1370  3.4471 -0.0746
 2153SOL     hw 8611   0.340   6.527   4.430  0.2287  2.2146  0.0078
 2153SOL     vw 8612   0.255   6.518   4.414  0.3435  0.6862  0.1075
 2154SOL     ow 8613   4.382   0.576   0.167 -0.6146  0.2369  0.0768
 2154SOL     hw 8614   4.379   0.507   0.234 -1.1795  1.4554  1.3684
 2154SOL     hw 8615   4.474   0.577   0.139 -0.2347  0.0374  1.2211
 2154SOL     vw 8616   4.394   0.567   0.172 -0.6392  0.3713  0.3982
 2155SOL     ow 8617   2.531   1.310   6.987  0.0575 -0.2734  0.0247
 2155SOL     hw 8618   2.443   1.344   7.002 -0.1177 -1.0597  0.8794
 2155SOL     hw 8619   2.568   1.299   7.075  1.2235  0.5748 -0.3433
 2155SOL     vw 8620   2.524   1.313   7.001  0.1884 -0.2652  0.0889
 2156SOL     ow 8621   0.398   5.549   4.856 -0.0518 -0.6987  0.0279
 2156SOL     hw 8622   0.339   5.487   4.899 -0.6261  0.0083  0.2969
 2156SOL     hw 8623   0.458   5.577   4.925  0.4676 -1.2586 -0.1939
 2156SOL     vw 8624   0.398   5.545   4.871 -0.0591 -0.6793  0.0341
 2157SOL     ow 8625   2.780   5.226   2.833 -0.5340  0.7166 -0.1591
 2157SOL     hw 8626   2.736   5.304   2.865 -0.2516  0.7937  0.0390
 2157SOL     hw 8627   2.780   5.236   2.738 -1.1418  0.6092 -0.1784
 2157SOL     vw 8628   2.774   5.237   2.825 -0.5767  0.7126 -0.1354
 2158SOL     ow 8629   1.480   4.552   0.093  0.1920 -0.2059 -0.1691
 2158SOL     hw 8630   1.454   4.508   0.012  3.0351 -1.1804 -0.6750
 2158SOL     hw 8631   1.562   4.596   0.071  1.3103 -0.9104  2.2390
 2158SOL     vw 8632   1.487   4.552   0.079  0.7147 -0.4275  0.0819
 2159SOL     ow 8633   3.638   7.357   5.599  0.1832  0.4800 -0.0682
 2159SOL     hw 8634   3.583   7.299   5.547  0.0425 -0.3241  0.9358
 2159SOL     hw 8635   3.667   7.302   5.672  2.3470  0.8733 -0.5789
 2159SOL     vw 8636   3.634   7.342   5.602  0.4501  0.4258 -0.0033
 2160SOL     ow 8637   3.629   3.219   2.315 -0.1721 -0.7670 -0.2972
 2160SOL     hw 8638   3.676   3.301   2.301  1.3914 -1.6578 -0.5369
 2160SOL     hw 8639   3.586   3.230   2.400 -0.2483  0.3864 -0.4620
 2160SOL     vw 8640   3.629   3.231   2.324  0.0242 -0.7323 -0.3506
 2161SOL     ow 8641   4.700   6.012   4.262  0.2444 -0.2293 -0.2199
 2161SOL     hw 8642   4.687   6.106   4.252  1.0932 -0.1563 -0.7113
 2161SOL     hw 8643   4.612   5.975   4.263 -0.0747  0.5184 -0.5394
 2161SOL     vw 8644   4.687   6.019   4.261  0.3145 -0.1209 -0.3269
 2162SOL     ow 8645   0.726   2.291   2.253  0.0709 -0.3379  0.0433
 2162SOL     hw 8646   0.651   2.327   2.300 -1.2736 -0.8899 -1.5486
 2162SOL     hw 8647   0.773   2.367   2.221  0.1588  0.0172  0.9862
 2162SOL     vw 8648   0.722   2.306   2.255 -0.0949 -0.3639 -0.0423
 2163SOL     ow 8649   7.131   6.332   1.042  0.1602  0.2147  0.0536
 2163SOL     hw 8650   7.037   6.323   1.058  0.1651  0.3178  0.1403
 2163SOL     hw 8651   7.137   6.404   0.978  0.1030 -0.5650 -0.8556
 2163SOL     vw 8652   7.119   6.340   1.035  0.1535  0.1254 -0.0549
 2164SOL     ow 8653   6.905   5.531   2.143  0.1147 -0.2457 -0.0066
 2164SOL     hw 8654   6.963   5.535   2.219  1.5259  0.9302 -1.1010
 2164SOL     hw 8655   6.963   5.535   2.068 -1.3226 -0.3782 -1.1660
 2164SOL     vw 8656   6.920   5.532   2.143  0.1111 -0.1082 -0.3039
 2165SOL     ow 8657   3.867   2.698   5.109 -0.0831  0.0258  0.1362
 2165SOL     hw 8658   3.915   2.687   5.027 -0.4366  0.7327 -0.1761
 2165SOL     hw 8659   3.800   2.629   5.107  0.3612 -0.4121  0.1702
 2165SOL     vw 8660   3.865   2.687   5.098 -0.0712  0.0614  0.0997
 2166SOL     ow 8661   7.014   4.778   5.136 -0.0873 -0.3731  0.0445
 2166SOL     hw 8662   6.966   4.723   5.199  0.2884  0.6863  1.2844
 2166SOL     hw 8663   6.977   4.753   5.051 -1.8020 -0.6579  0.8192
 2166SOL     vw 8664   7.002   4.767   5.133 -0.2639 -0.2708  0.3104
 2167SOL     ow 8665   2.374   6.589   0.345 -0.7024 -0.3195  0.3914
 2167SOL     hw 8666   2.428   6.535   0.403 -0.3719  1.6517  2.0178
 2167SOL     hw 8667   2.369   6.539   0.264  0.6926 -2.1476  1.3575
 2167SOL     vw 8668   2.380   6.575   0.342 -0.4748 -0.3004  0.7335
 2168SOL     ow 8669   6.263   7.425   4.883  0.8336  1.1442 -0.1423
 2168SOL     hw 8670   6.245   7.451   4.974 -0.5795 -0.7972  0.1984
 2168SOL     hw 8671   6.179   7.436   4.838  1.4141  1.6718 -1.1507
 2168SOL     vw 8672   6.249   7.430   4.889  0.7238  0.9577 -0.2303
 2169SOL     ow 8673   4.080   7.209   4.536  0.3015  0.1022  0.2330
 2169SOL     hw 8674   4.079   7.276   4.604 -3.7914  1.6333 -1.0077
 2169SOL     hw 8675   4.133   7.246   4.466 -0.5094  1.3393  0.2406
 2169SOL     vw 8676   4.087   7.223   4.536 -0.3457  0.4675  0.0703
 2170SOL     ow 8677   5.768   1.853   0.708 -0.0016 -0.6474 -0.3574
 2170SOL     hw 8678   5.828   1.926   0.725 -1.5757  1.3342 -2.5436
 2170SOL     hw 8679   5.758   1.810   0.793  1.3728  1.4133  0.9509
 2170SOL     vw 8680   5.775   1.857   0.721 -0.0279 -0.1141 -0.4732
 2171SOL     ow 8681   7.426   7.164   0.398  0.1935  0.6361  0.6609
 2171SOL     hw 8682   7.499   7.104   0.411 -1.5192 -1.7008 -0.0158
 2171SOL     hw 8683   7.450   7.213   0.319  0.6603 -0.7141 -0.0663
 2171SOL     vw 8684   7.439   7.163   0.389  0.0291  0.1495  0.4757
 2172SOL     ow 8685   7.486   1.125   6.993  0.4916  0.2986  0.1181
 2172SOL     hw 8686   7.566   1.076   7.011  1.1257  1.0900 -0.4505
 2172SOL     hw 8687   7.415   1.065   7.015  1.2086  0.2818  2.6580
 2172SOL     vw 8688   7.487   1.111   6.998  0.6700  0.4008  0.3781
 2173SOL     ow 8689   0.543   1.027   3.727 -0.2477 -0.6931 -0.8211
 2173SOL     hw 8690   0.456   1.028   3.687  0.2356  2.2217 -2.0142
 2173SOL     hw 8691   0.602   1.059   3.658  1.9791 -3.3159 -0.3185
 2173SOL     vw 8692   0.540   1.031   3.713  0.1099 -0.6546 -0.9121
 2174SOL     ow 8693   3.483   4.043   5.477 -0.0119 -0.4798  0.1491
 2174SOL     hw 8694   3.490   4.119   5.535  0.9385  0.3574 -1.0162
 2174SOL     hw 8695   3.565   3.996   5.491  0.1365 -0.3753 -0.3598
 2174SOL     vw 8696   3.495   4.047   5.487  0.1329 -0.3555 -0.0718
 2175SOL     ow 8697   7.394   3.763   2.189  0.2310  0.2003 -0.0565
 2175SOL     hw 8698   7.483   3.767   2.153  1.1548 -1.8051  1.7699
 2175SOL     hw 8699   7.406   3.779   2.283 -1.2143 -1.0074  0.3628
 2175SOL     vw 8700   7.408   3.766   2.197  0.1624 -0.2238  0.2398
 2176SOL     ow 8701   7.534   2.717   6.332  0.5280  0.3477  0.1353
 2176SOL     hw 8702   7.527   2.760   6.417 -1.9711 -0.8207  0.6381
 2176SOL     hw 8703   7.509   2.626   6.350  0.2268  0.0082 -1.7943
 2176SOL     vw 8704   7.530   2.710   6.346  0.1585  0.1488 -0.0532
 2177SOL     ow 8705   1.946   0.325   2.195  0.5328 -0.8217  0.2192
 2177SOL     hw 8706   2.007   0.386   2.237  1.2010 -1.4513  0.1751
 2177SOL     hw 8707   1.898   0.285   2.268  0.7878 -0.9718  0.3038
 2177SOL     vw 8708   1.948   0.328   2.210  0.6546 -0.9246  0.2245
 2178SOL     ow 8709   2.604   7.081   1.377 -0.4433 -0.3773 -0.2441
 2178SOL     hw 8710   2.554   7.102   1.297 -0.8816  2.0222  0.5768
 2178SOL     hw 8711   2.684   7.133   1.368  0.4202 -1.6323  0.0044
 2178SOL     vw 8712   2.608   7.091   1.365 -0.3872 -0.2263 -0.1029
 2179SOL     ow 8713   1.323   6.432   6.194  0.1211  0.7719  0.3040
 2179SOL     hw 8714   1.417   6.441   6.212 -0.0297  0.7315  1.1187
 2179SOL     hw 8715   1.313   6.344   6.159  0.5781  1.2394 -1.0976
 2179SOL     vw 8716   1.334   6.422   6.192  0.1615  0.8283  0.2263
 2180SOL     ow 8717   0.411   4.122   0.028 -0.0093  0.6182  1.0986
 2180SOL     hw 8718   0.387   4.053   0.088  1.1066 -2.7102 -1.9178
 2180SOL     hw 8719   0.328   4.157  -0.004 -0.5999  0.2695  2.2069
 2180SOL     vw 8720   0.397   4.118   0.032  0.0600  0.1328  0.8471
 2181SOL     ow 8721   1.462   0.684   3.522 -0.2131  0.2621 -0.4364
 2181SOL     hw 8722   1.472   0.589   3.525  0.6983  0.3156 -1.2206
 2181SOL     hw 8723   1.368   0.699   3.513 -0.3168 -0.5790 -0.7630
 2181SOL     vw 8724   1.451   0.674   3.521 -0.1065  0.1582 -0.5831
 2182SOL     ow 8725   5.978   2.844   5.279 -0.7177 -0.3515  0.4696
 2182SOL     hw 8726   5.963   2.920   5.222  1.5452 -0.5099 -0.4251
 2182SOL     hw 8727   5.964   2.768   5.223 -3.2809 -0.7065  1.4410
 2182SOL     vw 8728   5.974   2.844   5.264 -0.7572 -0.4194  0.4797
 2183SOL     ow 8729   7.573   6.615   4.453  0.0438  0.2447 -0.6577
 2183SOL     hw 8730   7.507   6.625   4.384  0.0575 -0.8385 -0.8490
 2183SOL     hw 8731   7.537   6.662   4.528 -0.8027 -0.0479 -0.8656
 2183SOL     vw 8732   7.559   6.622   4.454 -0.0660  0.0632 -0.7105
 2184SOL     ow 8733   6.763   2.521   2.081 -0.3091 -0.1240 -0.1045
 2184SOL     hw 8734   6.819   2.490   2.152  0.1579  1.7247  0.3865
 2184SOL     hw 8735   6.815   2.590   2.038 -0.8980 -0.6616 -1.7567
 2184SOL     vw 8736   6.778   2.526   2.085 -0.3252  0.0490 -0.2576
 2185SOL     ow 8737   5.498   4.286   6.229 -0.9345  0.0098 -0.5409
 2185SOL     hw 8738   5.517   4.363   6.175 -0.1100  0.6707  0.6356
 2185SOL     hw 8739   5.488   4.321   6.318  0.5653 -1.3303  0.2170
 2185SOL     vw 8740   5.499   4.301   6.234 -0.6280 -0.0799 -0.2856
 2186SOL     ow 8741   2.910   0.505   4.691  0.2039  0.3210  0.0387
 2186SOL     hw 8742   2.828   0.473   4.654  0.7986 -0.5155 -0.6188
 2186SOL     hw 8743   2.904   0.487   4.784 -0.2844  0.1069 -0.0337
 2186SOL     vw 8744   2.899   0.499   4.698  0.2179  0.1824 -0.0575
 2187SOL     ow 8745   2.873   1.100   6.159 -0.4414 -0.3785 -0.2816
 2187SOL     hw 8746   2.948   1.140   6.115  0.2477 -1.4594 -0.1291
 2187SOL     hw 8747   2.808   1.087   6.090 -0.3941  0.3342 -0.4619
 2187SOL     vw 8748   2.874   1.104   6.144 -0.3443 -0.4272 -0.2856
 2188SOL     ow 8749   5.291   2.932   6.342 -0.1503 -0.3871  1.1311
 2188SOL     hw 8750   5.358   2.938   6.273 -2.8656 -1.2031 -1.8310
 2188SOL     hw 8751   5.235   3.008   6.326 -1.6390 -1.3825  1.4853
 2188SOL     vw 8752   5.293   2.943   6.331 -0.7052 -0.6262  0.7870
 2189SOL     ow 8753   7.160   5.867   3.769  0.2794  0.1020 -0.1197
 2189SOL     hw 8754   7.097   5.876   3.697  2.0927 -1.1045 -1.9712
 2189SOL     hw 8755   7.212   5.947   3.765  0.2985  0.0925 -0.0632
 2189SOL     vw 8756   7.159   5.879   3.759  0.5212 -0.0587 -0.3566
 2190SOL     ow 8757   0.204   5.277   4.013  0.4087 -0.2466 -0.6627
 2190SOL     hw 8758   0.131   5.267   3.953  0.8036 -0.8787 -1.0431
 2190SOL     hw 8759   0.171   5.247   4.098  0.1924 -0.4117 -0.8071
 2190SOL     vw 8760   0.190   5.272   4.017  0.4323 -0.3519 -0.7319
 2191SOL     ow 8761   3.703   1.491   6.817  0.2165 -0.3269  0.2851
 2191SOL     hw 8762   3.677   1.478   6.908  1.7196  0.2243  0.8440
 2191SOL     hw 8763   3.742   1.408   6.791  0.0598 -0.3890  0.2502
 2191SOL     vw 8764   3.705   1.479   6.826  0.3942 -0.2623  0.3543
 2192SOL     ow 8765   0.092   6.053   6.945  0.1182  0.5645 -0.0719
 2192SOL     hw 8766   0.082   6.144   6.918  0.9863  0.6486 -0.1235
 2192SOL     hw 8767   0.071   6.003   6.866 -0.6802  0.7011  0.0438
 2192SOL     vw 8768   0.088   6.059   6.931  0.1274  0.5937 -0.0634
 2193SOL     ow 8769   0.361   1.414   4.895  1.0413  0.1362  0.4319
 2193SOL     hw 8770   0.411   1.468   4.833  2.0906  0.8339  1.8094
 2193SOL     hw 8771   0.347   1.331   4.849  1.1785  0.8626 -0.9800
 2193SOL     vw 8772   0.366   1.410   4.881  1.1978  0.3242  0.4275
 2194SOL     ow 8773   5.987   4.586   4.751  0.2965 -0.2470 -0.1215
 2194SOL     hw 8774   5.894   4.573   4.730  0.2171  2.5701 -2.2109
 2194SOL     hw 8775   6.032   4.571   4.668  1.5727 -0.4542  0.5928
 2194SOL     vw 8776   5.980   4.582   4.737  0.4544  0.0973 -0.3030
 2195SOL     ow 8777   7.336   3.411   0.741  0.4419  0.4072  0.8149
 2195SOL     hw 8778   7.348   3.378   0.652 -0.4228  0.7282  0.5682
 2195SOL     hw 8779   7.414   3.382   0.789  0.5631 -0.3940  0.1398
 2195SOL     vw 8780   7.348   3.403   0.736  0.3438  0.3438  0.6933
 2196SOL     ow 8781   1.522   7.050   0.052 -0.0623  0.2347  0.1545
 2196SOL     hw 8782   1.582   7.079  -0.016 -0.4603 -1.4547 -0.9740
 2196SOL     hw 8783   1.578   7.007   0.117  0.1027 -0.3102 -0.3324
 2196SOL     vw 8784   1.537   7.048   0.052 -0.0930 -0.0601 -0.0586
 2197SOL     ow 8785   1.097   2.200   1.968  0.1336 -0.1981 -0.2956
 2197SOL     hw 8786   1.154   2.163   1.900 -0.0292 -0.5345 -0.2487
 2197SOL     hw 8787   1.011   2.207   1.927  0.4649  1.4283 -0.7507
 2197SOL     vw 8788   1.094   2.196   1.954  0.1558 -0.0278 -0.3494
 2198SOL     ow 8789   4.126   3.467   6.917 -0.2825  0.0206  0.1189
 2198SOL     hw 8790   4.182   3.544   6.913  0.4588 -0.5619 -1.3963
 2198SOL     hw 8791   4.037   3.502   6.930  0.2012  1.0392  0.7871
 2198SOL     vw 8792   4.121   3.482   6.918 -0.1209  0.0780  0.0072
 2199SOL     ow 8793   3.859   4.974   4.049  0.3045  0.8543 -0.7527
 2199SOL     hw 8794   3.954   4.985   4.052  0.3355  0.4541 -0.2772
 2199SOL     hw 8795   3.843   4.890   4.092 -0.3513  1.3922  0.0839
 2199SOL     vw 8796   3.869   4.965   4.055  0.2221  0.8724 -0.5796
 2200SOL     ow 8797   6.922   3.325   5.831 -0.3079 -0.0403  0.3967
 2200SOL     hw 8798   6.874   3.378   5.895  0.7630 -0.7298  1.8141
 2200SOL     hw 8799   6.992   3.382   5.800  1.1686 -0.7107  2.3126
 2200SOL     vw 8800   6.925   3.340   5.835  0.0281 -0.2197  0.8366
 2201SOL     ow 8801   3.923   0.836   1.745  0.0717  0.5335 -0.6500
 2201SOL     hw 8802   3.994   0.886   1.705 -0.1581  1.6777  0.3225
 2201SOL     hw 8803   3.955   0.746   1.746  1.0388  0.8544 -1.2475
 2201SOL     vw 8804   3.936   0.831   1.740  0.1689  0.7268 -0.6006
 2202SOL     ow 8805   1.839   7.185   3.303  0.3143  0.4087  0.3071
 2202SOL     hw 8806   1.895   7.137   3.363 -0.8637 -1.5035 -0.0478
 2202SOL     hw 8807   1.751   7.153   3.321 -0.0951 -0.3104 -2.4447
 2202SOL     vw 8808   1.835   7.175   3.313  0.1048  0.0613 -0.1029
 2203SOL     ow 8809   0.133   5.626   5.042  0.5075 -0.2668 -0.2434
 2203SOL     hw 8810   0.061   5.578   5.084  0.7695  0.3513  0.9494
 2203SOL     hw 8811   0.212   5.578   5.068  0.7908  0.9137  1.1500
 2203SOL     vw 8812   0.134   5.613   5.051  0.5794 -0.0293  0.0978
 2204SOL     ow 8813   6.380   2.402   0.748  0.8804  0.0420  0.1296
 2204SOL     hw 8814   6.293   2.369   0.770  0.2392  0.6515 -1.3727
 2204SOL     hw 8815   6.421   2.420   0.833 -0.8426  0.7522  0.8516
 2204SOL     vw 8816   6.374   2.400   0.762  0.5686  0.2162  0.0267
 2205SOL     ow 8817   3.690   0.734   5.605  0.2249  1.0096 -0.1877
 2205SOL     hw 8818   3.640   0.655   5.585  0.0781  0.7764  1.0410
 2205SOL     hw 8819   3.661   0.798   5.541  0.6289 -0.0366 -1.4576
 2205SOL     vw 8820   3.680   0.732   5.594  0.2589  0.8408 -0.1929
 2206SOL     ow 8821   6.395   0.207   1.532 -0.5637  0.1283  0.4268
 2206SOL     hw 8822   6.314   0.252   1.556 -0.1820 -0.1860  2.5290
 2206SOL     hw 8823   6.369   0.148   1.461 -1.5696  1.8720 -0.7374
 2206SOL     vw 8824   6.381   0.205   1.526 -0.6459  0.3169  0.5506
 2207SOL     ow 8825   6.703   0.987   1.912  0.4302 -1.2082  0.5633
 2207SOL     hw 8826   6.737   1.019   1.995 -2.5755  0.2145  1.3631
 2207SOL     hw 8827   6.781   0.973   1.858  2.4113 -1.3087  3.2713
 2207SOL     vw 8828   6.718   0.989   1.916  0.2949 -1.0338  1.0262
 2208SOL     ow 8829   0.192   4.244   3.954 -0.2387 -0.5407  0.7989
 2208SOL     hw 8830   0.139   4.265   3.877 -0.0649  0.8903  1.0477
 2208SOL     hw 8831   0.173   4.151   3.971  1.1931 -1.5149 -2.1070
 2208SOL     vw 8832   0.182   4.234   3.946 -0.0268 -0.4804  0.4483
 2209SOL     ow 8833   6.818   5.215   0.356  0.5904 -0.1425 -0.3308
 2209SOL     hw 8834   6.726   5.187   0.351  0.1379  1.3155 -0.9841
 2209SOL     hw 8835   6.853   5.196   0.269  0.6023  0.2220 -0.4092
 2209SOL     vw 8836   6.810   5.209   0.344  0.5319  0.0978 -0.4274
 2210SOL     ow 8837   2.197   4.617   5.280 -0.4103 -0.8974  0.1663
 2210SOL     hw 8838   2.267   4.554   5.296  0.2178  0.2962  2.7227
 2210SOL     hw 8839   2.142   4.576   5.213  0.7060 -3.5040  0.7281
 2210SOL     vw 8840   2.199   4.603   5.273 -0.1804 -1.0839  0.5774
 2211SOL     ow 8841   0.745   7.544   2.167  0.1475 -0.5855 -0.1745
 2211SOL     hw 8842   0.751   7.507   2.079 -0.4467 -0.3819 -0.3052
 2211SOL     hw 8843   0.656   7.580   2.172  0.4047  0.0075  0.2716
 2211SOL     vw 8844   0.734   7.544   2.156  0.1030 -0.4807 -0.1329
 2212SOL     ow 8845   2.634   2.290   1.074 -0.2185  0.3639 -0.5275
 2212SOL     hw 8846   2.680   2.374   1.068  0.8850 -0.2029 -0.2305
 2212SOL     hw 8847   2.656   2.245   0.992  0.5583 -0.3038  0.0391
 2212SOL     vw 8848   2.643   2.295   1.062  0.0296  0.2010 -0.4136
 2213SOL     ow 8849   6.407   6.551   3.152  0.7609 -0.3862 -0.0104
 2213SOL     hw 8850   6.376   6.623   3.098 -0.9647  0.0329  1.4403
 2213SOL     hw 8851   6.494   6.531   3.118  0.0086  0.2473 -2.4784
 2213SOL     vw 8852   6.415   6.558   3.141  0.4344 -0.2472 -0.1446
 2214SOL     ow 8853   4.347   4.571   1.459  0.0371  0.0532  0.1372
 2214SOL     hw 8854   4.387   4.524   1.532  0.0534 -0.2129 -0.0437
 2214SOL     hw 8855   4.414   4.574   1.391 -0.2600 -0.4388 -0.1851
 2214SOL     vw 8856   4.361   4.565   1.460  0.0000 -0.0470  0.0708
 2215SOL     ow 8857   4.955   5.803   7.504  0.6279  0.2245  0.5041
 2215SOL     hw 8858   5.037   5.825   7.461  0.9170 -0.7912  0.5156
 2215SOL     hw 8859   4.967   5.713   7.535 -1.4111 -0.9939 -1.8205
 2215SOL     vw 8860   4.967   5.794   7.502  0.3970 -0.0703  0.1988
 2216SOL     ow 8861   3.021   2.029   1.068  0.7345  0.2554  0.2411
 2216SOL     hw 8862   3.067   1.954   1.106 -1.5762 -2.0145 -1.0816
 2216SOL     hw 8863   2.959   2.056   1.136  1.5274  1.0018  0.6956
 2216SOL     vw 8864   3.019   2.022   1.082  0.5342  0.0544  0.1266
 2217SOL     ow 8865   3.538   5.779   1.797  0.2524  0.5064  0.1829
 2217SOL     hw 8866   3.542   5.827   1.714 -0.8434  1.9290  0.8983
 2217SOL     hw 8867   3.625   5.788   1.835 -0.6907  5.2336  1.9683
 2217SOL     vw 8868   3.550   5.786   1.791 -0.0168  1.3180  0.5128
 2218SOL     ow 8869   5.884   2.973   3.321 -0.2804  0.2879  0.2635
 2218SOL     hw 8870   5.980   2.972   3.325 -0.2551  1.5416  0.4002
 2218SOL     hw 8871   5.863   3.062   3.292 -1.4740  0.7204  2.3000
 2218SOL     vw 8872   5.894   2.985   3.318 -0.4346  0.5105  0.5503
 2219SOL     ow 8873   3.381   5.281   7.548  0.2159  0.9431  0.3740
 2219SOL     hw 8874   3.373   5.281   7.643  2.7492  1.9888  0.6507
 2219SOL     hw 8875   3.338   5.200   7.520  1.1702 -0.4077  2.5780
 2219SOL     vw 8876   3.374   5.270   7.557  0.6760  0.9029  0.7017
 2220SOL     ow 8877   3.935   1.552   3.324 -0.2469 -0.3303 -0.7817
 2220SOL     hw 8878   3.954   1.599   3.405 -0.1688 -2.0306  0.2562
 2220SOL     hw 8879   3.850   1.584   3.297 -0.8000 -0.5184  0.6274
 2220SOL     vw 8880   3.927   1.562   3.331 -0.3095 -0.5795 -0.4588
 2221SOL     ow 8881   4.966   7.179   6.281  0.2605  0.1128  0.7066
 2221SOL     hw 8882   4.906   7.111   6.248 -1.0903  0.8156  1.6014
 2221SOL     hw 8883   5.041   7.175   6.222 -0.1899 -1.5270  0.1728
 2221SOL     vw 8884   4.968   7.169   6.269  0.0229 -0.0107  0.7541
 2222SOL     ow 8885   5.135   4.455   1.192  0.1121  0.8511  0.5222
 2222SOL     hw 8886   5.181   4.472   1.275  0.2725  1.2497  0.3585
 2222SOL     hw 8887   5.163   4.527   1.136  0.0145  0.5709  0.1165
 2222SOL     vw 8888   5.145   4.467   1.196  0.1202  0.8664  0.4470
 2223SOL     ow 8889   4.383   0.897   1.367  0.5053  0.5211  0.6141
 2223SOL     hw 8890   4.403   0.866   1.279 -0.3638 -0.0910  0.6226
 2223SOL     hw 8891   4.425   0.983   1.372  1.7613 -0.0362  0.1080
 2223SOL     vw 8892   4.391   0.904   1.356  0.5562  0.3668  0.5485
 2224SOL     ow 8893   4.992   2.088   1.834  0.1410  0.5277 -0.4799
 2224SOL     hw 8894   4.961   2.076   1.744  2.8861  0.0895 -1.4781
 2224SOL     hw 8895   5.039   2.172   1.832  0.6538  0.2772  0.4192
 2224SOL     vw 8896   4.995   2.098   1.822  0.5708  0.4369 -0.4930
 2225SOL     ow 8897   5.625   0.927   0.724 -0.3731 -0.4863 -0.9156
 2225SOL     hw 8898   5.600   1.014   0.692 -1.1478  0.1642  1.2520
 2225SOL     hw 8899   5.671   0.944   0.806  0.8034 -2.0872 -1.1920
 2225SOL     vw 8900   5.627   0.941   0.730 -0.3204 -0.6117 -0.6661
 2226SOL     ow 8901   5.051   2.916   0.705 -0.6104  0.0292  0.5910
 2226SOL     hw 8902   5.126   2.863   0.734 -0.1714  1.3735  2.1064
 2226SOL     hw 8903   5.007   2.941   0.786  0.7940  4.2130  0.3304
 2226SOL     vw 8904   5.055   2.913   0.720 -0.3672  0.7585  0.7565
 2227SOL     ow 8905   0.530   3.021   4.885  0.2905  0.0742 -0.8974
 2227SOL     hw 8906   0.455   3.054   4.835  1.0154  1.6569 -1.0043
 2227SOL     hw 8907   0.492   2.965   4.952 -1.0853  1.6116 -0.3367
 2227SOL     vw 8908   0.515   3.018   4.887  0.2046  0.4858 -0.8373
 2228SOL     ow 8909   7.017   2.064   4.313  0.2879 -0.4494  0.2297
 2228SOL     hw 8910   7.011   2.159   4.307  0.4120 -0.4629 -0.1965
 2228SOL     hw 8911   6.939   2.037   4.363  0.7880 -0.0505  1.2464
 2228SOL     vw 8912   7.006   2.073   4.319  0.3703 -0.3988  0.3076
 2229SOL     ow 8913   5.893   6.670   1.637 -0.1296 -0.7196  0.0045
 2229SOL     hw 8914   5.840   6.642   1.563 -0.2922 -3.4897  1.0678
 2229SOL     hw 8915   5.982   6.643   1.614  0.2823  0.8094 -0.2858
 2229SOL     vw 8916   5.898   6.663   1.624 -0.0968 -0.8836  0.1065
 2230SOL     ow 8917   1.474   4.950   0.011  0.6450 -0.2780 -0.3926
 2230SOL     hw 8918   1.501   5.012   0.078 -1.4405 -0.5847  0.7934
 2230SOL     hw 8919   1.543   4.884   0.011  1.1677  0.2376  0.7368
 2230SOL     vw 8920   1.487   4.950   0.020  0.4389 -0.2503 -0.0872
 2231SOL     ow 8921   7.501   2.986   0.008  0.8095  0.1825 -0.1507
 2231SOL     hw 8922   7.579   2.933   0.020  2.7037  2.9716  0.8247
 2231SOL     hw 8923   7.460   2.988   0.095  1.0191  0.6737 -0.0590
 2231SOL     vw 8924   7.506   2.980   0.021  1.0867  0.6155 -0.0098
 2232SOL     ow 8925   0.098   3.863   2.506  0.5207 -0.4472 -0.3052
 2232SOL     hw 8926   0.018   3.811   2.504  0.0062  0.1557  2.0101
 2232SOL     hw 8927   0.164   3.808   2.464 -0.6033 -1.8685 -0.2515
 2232SOL     vw 8928   0.096   3.849   2.500  0.3045 -0.5552  0.0074
 2233SOL     ow 8929   4.443   0.749   5.728  0.1075 -0.5789 -0.1065
 2233SOL     hw 8930   4.522   0.767   5.778 -0.4137  0.3088  0.4199
 2233SOL     hw 8931   4.387   0.699   5.788 -1.5218  2.5126  1.1878
 2233SOL     vw 8932   4.446   0.745   5.743 -0.1762 -0.0539  0.1335
 2234SOL     ow 8933   5.508   3.099   1.513  0.1031  0.2721 -0.0765
 2234SOL     hw 8934   5.598   3.066   1.513  0.4235  1.1179 -0.8788
 2234SOL     hw 8935   5.517   3.193   1.531 -0.7782  0.0180  1.9771
 2234SOL     vw 8936   5.521   3.107   1.515  0.0291  0.3501  0.0886
 2235SOL     ow 8937   6.038   5.112   6.806 -0.1565  0.5071 -0.1924
 2235SOL     hw 8938   6.092   5.041   6.841 -0.2154  0.3761 -0.3707
 2235SOL     hw 8939   5.957   5.069   6.780 -0.5741  0.7857  0.5967
 2235SOL     vw 8940   6.035   5.097   6.807 -0.2196  0.5264 -0.1118
 2236SOL     ow 8941   4.767   1.424   2.386  0.7195  0.1430  0.2817
 2236SOL     hw 8942   4.699   1.482   2.352  1.7163  0.7694 -0.6710
 2236SOL     hw 8943   4.724   1.377   2.458 -0.4460  1.1904  0.2994
 2236SOL     vw 8944   4.752   1.425   2.391  0.6974  0.3638  0.1585
 2237SOL     ow 8945   7.461   4.040   4.276 -0.2183  0.2091  0.4692
 2237SOL     hw 8946   7.437   4.049   4.368  0.3590 -1.6484  0.8492
 2237SOL     hw 8947   7.541   4.092   4.267 -2.2072  3.4699  0.0452
 2237SOL     vw 8948   7.468   4.048   4.287 -0.4046  0.3941  0.4635
 2238SOL     ow 8949   2.159   0.792   2.277  0.1622  0.9334 -0.5208
 2238SOL     hw 8950   2.208   0.710   2.287  1.8508  1.8508 -0.8532
 2238SOL     hw 8951   2.089   0.770   2.216 -1.3133 -0.9918  1.6987
 2238SOL     vw 8952   2.157   0.778   2.270  0.1903  0.8004 -0.2717
 2239SOL     ow 8953   7.586   1.141   4.119 -0.2929 -0.2103 -0.1830
 2239SOL     hw 8954   7.543   1.178   4.041 -2.1014  0.7847  1.1834
 2239SOL     hw 8955   7.678   1.133   4.094 -0.7251  0.5027 -2.2594
 2239SOL     vw 8956   7.592   1.145   4.105 -0.5884  0.0150 -0.2766
 2240SOL     ow 8957   2.456   1.306   4.586  0.7255 -0.4539  0.1510
 2240SOL     hw 8958   2.397   1.328   4.659  2.4023  0.2693  1.3580
 2240SOL     hw 8959   2.441   1.213   4.571  0.8946 -0.8177  1.9910
 2240SOL     vw 8960   2.446   1.297   4.594  0.9691 -0.4065  0.5531
 2241SOL     ow 8961   7.563   4.169   2.039 -0.7030  0.0970  0.4171
 2241SOL     hw 8962   7.561   4.108   1.965  1.6970 -0.2634  0.5691
 2241SOL     hw 8963   7.555   4.256   1.999  0.6794 -0.0839 -0.3135
 2241SOL     vw 8964   7.561   4.172   2.024 -0.2041  0.0257  0.3408
 2242SOL     ow 8965   4.814   0.955   5.165  0.5438  0.4061 -0.7018
 2242SOL     hw 8966   4.886   0.892   5.171  0.2093 -0.2292 -2.6945
 2242SOL     hw 8967   4.855   1.035   5.135  0.4253 -0.0053 -2.0071
 2242SOL     vw 8968   4.829   0.957   5.162  0.4840  0.2680 -1.1370
 2243SOL     ow 8969   6.093   4.396   0.270 -0.2342  0.3546 -0.1635
 2243SOL     hw 8970   6.002   4.371   0.258  0.2510 -0.5247 -2.3879
 2243SOL     hw 8971   6.142   4.342   0.208  1.9230  0.1848  1.5494
 2243SOL     vw 8972   6.088   4.386   0.261  0.1144  0.2160 -0.2310
 2244SOL     ow 8973   6.288   0.879   1.347 -0.2901  0.0569  0.8588
 2244SOL     hw 8974   6.294   0.786   1.371 -1.8124  0.0066  1.1024
 2244SOL     hw 8975   6.205   0.886   1.299  1.6644  0.4992 -2.8722
 2244SOL     vw 8976   6.278   0.867   1.344 -0.2334  0.1087  0.3986
 2245SOL     ow 8977   0.570   6.540   3.329 -0.7906 -0.8797  0.5581
 2245SOL     hw 8978   0.501   6.588   3.284  0.2556  0.7990  0.6463
 2245SOL     hw 8979   0.588   6.591   3.408  1.5565 -0.4071 -0.2111
 2245SOL     vw 8980   0.564   6.553   3.333 -0.3429 -0.5960  0.4683
 2246SOL     ow 8981   6.841   6.990   4.127 -0.3184  0.4180  1.0796
 2246SOL     hw 8982   6.833   6.977   4.222 -1.3832 -0.1018  0.9321
 2246SOL     hw 8983   6.759   6.956   4.091  0.3508 -0.0024 -0.0948
 2246SOL     vw 8984   6.829   6.984   4.135 -0.3705  0.2937  0.9053
 2247SOL     ow 8985   0.354   1.980   0.565  0.4737 -0.0083 -0.2388
 2247SOL     hw 8986   0.422   1.945   0.507 -0.2261 -0.8859 -0.5631
 2247SOL     hw 8987   0.293   2.024   0.506 -1.3681 -2.6890 -0.5504
 2247SOL     vw 8988   0.355   1.981   0.549  0.1383 -0.4779 -0.3227
 2248SOL     ow 8989   6.089   7.014   4.116  0.1698  0.4818  0.1336
 2248SOL     hw 8990   6.177   7.043   4.141 -0.2356  1.6849  0.2267
 2248SOL     hw 8991   6.030   7.066   4.171 -0.5966 -0.9549  0.7271
 2248SOL     vw 8992   6.093   7.025   4.127  0.0155  0.4508  0.2241
 2249SOL     ow 8993   6.993   3.402   4.956  0.3332 -0.3430 -0.3313
 2249SOL     hw 8994   7.043   3.455   4.894  0.1121  0.0266 -0.1977
 2249SOL     hw 8995   7.060   3.350   5.002  1.0529  2.4877  2.1442
 2249SOL     vw 8996   7.009   3.402   4.954  0.3991  0.0793  0.0129
 2250SOL     ow 8997   4.245   0.689   1.492  0.0541 -0.4161 -0.2103
 2250SOL     hw 8998   4.299   0.747   1.438  0.8300 -1.7555 -0.9333
 2250SOL     hw 8999   4.226   0.615   1.435  0.8406 -1.8488  1.3186
 2250SOL     vw 9000   4.250   0.687   1.477  0.2599 -0.7819 -0.1040
 2251SOL     ow 9001   0.865   1.781   4.996  0.3744 -0.1210 -0.1818
 2251SOL     hw 9002   0.813   1.847   5.040  0.2587 -0.4257  0.1404
 2251SOL     hw 9003   0.836   1.698   5.033  0.0895 -0.4062 -1.0092
 2251SOL     vw 9004   0.855   1.779   5.007  0.3216 -0.1989 -0.2487
 2252SOL     ow 9005   5.021   2.727   2.913  0.1127  0.0029  0.4151
 2252SOL     hw 9006   5.016   2.819   2.886 -1.4678  0.0986  0.9566
 2252SOL     hw 9007   5.112   2.716   2.943  0.2724  1.4447  0.5259
 2252SOL     vw 9008   5.032   2.738   2.914 -0.0751  0.2056  0.5012
 2253SOL     ow 9009   5.428   3.308   4.511  0.4229  0.4527 -0.1312
 2253SOL     hw 9010   5.339   3.340   4.502  0.4452  0.7917  0.8142
 2253SOL     hw 9011   5.459   3.343   4.594  1.7813  1.1740 -0.8923
 2253SOL     vw 9012   5.420   3.317   4.521  0.6051  0.5927 -0.1066
 2254SOL     ow 9013   2.512   6.366   4.694 -0.1179 -0.1318  0.7285
 2254SOL     hw 9014   2.597   6.410   4.694 -1.3082  2.9235 -3.7818
 2254SOL     hw 9015   2.461   6.413   4.761  1.2645 -1.2044  2.6292
 2254SOL     vw 9016   2.517   6.378   4.703 -0.0925  0.1297  0.3841
 2255SOL     ow 9017   5.343   7.266   5.278  0.1142 -0.8390 -0.6955
 2255SOL     hw 9018   5.288   7.243   5.353  1.0883 -1.9545 -0.3046
 2255SOL     hw 9019   5.432   7.249   5.307  0.4789 -1.7762 -2.2550
 2255SOL     vw 9020   5.347   7.261   5.291  0.2906 -1.1098 -0.8497
 2256SOL     ow 9021   2.344   6.070   4.492 -0.3265  0.4886 -0.3508
 2256SOL     hw 9022   2.300   5.988   4.510  1.4761 -0.6940 -1.0426
 2256SOL     hw 9023   2.394   6.089   4.571 -0.2609  0.5899 -0.4160
 2256SOL     vw 9024   2.345   6.062   4.505 -0.0800  0.3462 -0.4508
 2257SOL     ow 9025   3.079   0.134   5.922  0.3197  0.2589 -0.1954
 2257SOL     hw 9026   3.045   0.147   6.010 -0.0683  2.1710 -0.5731
 2257SOL     hw 9027   3.002   0.134   5.866  0.6927  2.4121 -0.8310
 2257SOL     vw 9028   3.065   0.136   5.926  0.3178  0.7953 -0.3293
 2258SOL     ow 9029   6.081   0.934   7.344 -0.1709 -0.1356 -0.2329
 2258SOL     hw 9030   6.068   1.016   7.297  1.5873 -0.6319 -1.7106
 2258SOL     hw 9031   6.016   0.936   7.414 -0.3107  2.4117 -0.3352
 2258SOL     vw 9032   6.071   0.945   7.347  0.0427  0.1350 -0.4416
 2259SOL     ow 9033   5.735   6.574   1.021 -0.6782 -0.1207 -0.7573
 2259SOL     hw 9034   5.741   6.480   1.004 -1.7138 -0.6003  1.1201
 2259SOL     hw 9035   5.643   6.588   1.044 -0.4167  1.2349 -0.4252
 2259SOL     vw 9036   5.723   6.564   1.022 -0.7806 -0.0048 -0.4658
 2260SOL     ow 9037   0.764   4.812   4.153 -0.1827 -0.2224 -0.3615
 2260SOL     hw 9038   0.855   4.828   4.177 -0.7840  1.2769  1.1552
 2260SOL     hw 9039   0.743   4.881   4.091 -0.7391  0.5253  0.6238
 2260SOL     vw 9040   0.773   4.823   4.148 -0.3355  0.0739 -0.0315
 2261SOL     ow 9041   1.442   7.281   4.805  0.0872  0.5585 -0.4976
 2261SOL     hw 9042   1.375   7.224   4.768 -0.2044  0.4138  0.2341
 2261SOL     hw 9043   1.445   7.258   4.898 -1.4543  3.0582  0.2794
 2261SOL     vw 9044   1.434   7.270   4.812 -0.1547  0.8693 -0.2985
 2262SOL     ow 9045   4.070   3.671   3.928  0.1281 -0.0054  0.3176
 2262SOL     hw 9046   4.086   3.764   3.914  0.6068 -0.1148  0.1116
 2262SOL     hw 9047   3.988   3.653   3.881  0.2195  0.2393  0.0657
 2262SOL     vw 9048   4.061   3.681   3.920  0.2034  0.0123  0.2571
 2263SOL     ow 9049   1.463   3.075   0.635  0.4515  0.1968  0.0458
 2263SOL     hw 9050   1.369   3.073   0.649  0.6190  1.2574  1.4565
 2263SOL     hw 9051   1.486   2.984   0.616 -0.5291 -0.5341  2.0572
 2263SOL     vw 9052   1.454   3.063   0.634  0.3442  0.2403  0.4973
 2264SOL     ow 9053   0.546   2.489   3.119 -0.0799  0.3597  0.4316
 2264SOL     hw 9054   0.507   2.433   3.052 -0.3634  3.4919 -2.2743
 2264SOL     hw 9055   0.640   2.477   3.108 -0.1332  0.5377 -0.2695
 2264SOL     vw 9056   0.553   2.480   3.109 -0.1244  0.7964 -0.0180
 2265SOL     ow 9057   2.797   2.713   0.221 -0.2960 -0.3096  0.1089
 2265SOL     hw 9058   2.716   2.756   0.247  0.5772  1.7691 -0.3694
 2265SOL     hw 9059   2.769   2.636   0.170 -1.9614  0.6353 -0.4619
 2265SOL     vw 9060   2.783   2.708   0.218 -0.4007  0.0894 -0.0295
 2266SOL     ow 9061   5.335   4.040   7.542  0.4173  0.1783  0.1114
 2266SOL     hw 9062   5.346   3.946   7.554 -3.2964 -0.2672  1.2713
 2266SOL     hw 9063   5.321   4.051   7.448 -2.5518 -1.0147  0.3312
 2266SOL     vw 9064   5.335   4.029   7.531 -0.4644 -0.0377  0.2933
 2267SOL     ow 9065   0.190   4.854   4.140 -0.0472  0.4174 -0.3126
 2267SOL     hw 9066   0.111   4.801   4.133  0.4870 -0.7440  1.5314
 2267SOL     hw 9067   0.164   4.928   4.195 -0.2916  1.0496 -1.2531
 2267SOL     vw 9068   0.176   4.857   4.147 -0.0089  0.3476 -0.1934
 2268SOL     ow 9069   2.451   2.030   5.236  0.1154 -0.0969  0.4495
 2268SOL     hw 9070   2.424   2.102   5.293 -0.2612 -1.6397  2.3358
 2268SOL     hw 9071   2.421   1.951   5.281  2.0127 -1.5511 -0.6691
 2268SOL     vw 9072   2.444   2.029   5.249  0.3160 -0.4923  0.5507
 2269SOL     ow 9073   7.457   1.764   4.048  0.1447  0.2511 -0.1161
 2269SOL     hw 9074   7.481   1.846   4.091  0.6761  0.3876 -0.6531
 2269SOL     hw 9075   7.528   1.704   4.072 -1.9303 -1.1345  3.1554
 2269SOL     vw 9076   7.470   1.767   4.057 -0.0591  0.0862  0.2446
 2270SOL     ow 9077   1.806   4.874   2.149  1.1483  0.3617 -0.2430
 2270SOL     hw 9078   1.810   4.861   2.054  4.4721  2.5074 -0.5416
 2270SOL     hw 9079   1.815   4.785   2.185  0.2926 -0.4450 -1.8830
 2270SOL     vw 9080   1.807   4.860   2.142  1.4739  0.5383 -0.4988
 2271SOL     ow 9081   5.847   3.053   5.049 -0.4733 -0.1109  0.1376
 2271SOL     hw 9082   5.778   3.109   5.014  1.4742  1.8024 -0.8499
 2271SOL     hw 9083   5.918   3.113   5.071  0.6774 -1.9332  1.7042
 2271SOL     vw 9084   5.847   3.068   5.047 -0.0648 -0.0991  0.2139
 2272SOL     ow 9085   6.585   0.380   3.493  0.3721  0.5259 -0.0602
 2272SOL     hw 9086   6.603   0.365   3.586  2.6125  2.6387 -0.0613
 2272SOL     hw 9087   6.557   0.294   3.461 -0.2138 -0.3304  2.4829
 2272SOL     vw 9088   6.584   0.367   3.501  0.5903  0.6917  0.2753
 2273SOL     ow 9089   0.917   2.259   4.201  0.2799 -0.7864  0.5482
 2273SOL     hw 9090   0.831   2.301   4.199 -0.0643 -1.2268  2.9187
 2273SOL     hw 9091   0.972   2.320   4.250  1.2702 -0.6210 -0.7358
 2273SOL     vw 9092   0.913   2.273   4.207  0.3651 -0.8227  0.6917
 2274SOL     ow 9093   6.316   1.204   4.717 -0.1469 -0.1779  0.8363
 2274SOL     hw 9094   6.328   1.116   4.683  0.6034 -0.1998  1.1366
 2274SOL     hw 9095   6.351   1.200   4.806 -1.4596  0.0445  1.3859
 2274SOL     vw 9096   6.322   1.192   4.725 -0.2215 -0.1515  0.9484
 2275SOL     ow 9097   4.405   2.170   2.158  0.6345 -0.0305 -0.0745
 2275SOL     hw 9098   4.396   2.266   2.154  0.5696 -0.0538 -0.5140
 2275SOL     hw 9099   4.500   2.156   2.164  0.6228  0.0725  0.4340
 2275SOL     vw 9100   4.416   2.181   2.158  0.6242 -0.0200 -0.0654
 2276SOL     ow 9101   2.223   1.009   2.535 -0.3010  0.2772 -0.1007
 2276SOL     hw 9102   2.130   0.994   2.550 -0.5869  3.1106  1.7881
 2276SOL     hw 9103   2.256   1.039   2.620  2.4040 -0.7247 -0.6878
 2276SOL     vw 9104   2.215   1.011   2.548  0.0182  0.5188  0.0709
 2277SOL     ow 9105   5.959   2.400   1.884  0.1506 -0.6073 -0.5541
 2277SOL     hw 9106   6.001   2.341   1.948 -1.1499 -0.7117  0.2397
 2277SOL     hw 9107   6.025   2.413   1.817  1.4817 -0.7036  0.6875
 2277SOL     vw 9108   5.973   2.394   1.884  0.1545 -0.6338 -0.2856
 2278SOL     ow 9109   4.938   4.541   6.275 -0.9736 -0.0888 -0.9577
 2278SOL     hw 9110   4.843   4.546   6.266 -1.0829 -1.0344 -0.4512
 2278SOL     hw 9111   4.957   4.574   6.363 -0.8741 -0.2567 -0.9146
 2278SOL     vw 9112   4.928   4.546   6.285 -0.9749 -0.2358 -0.8850
 2279SOL     ow 9113   4.918   4.540   4.227 -0.0459 -0.9271  0.0424
 2279SOL     hw 9114   4.949   4.451   4.209  0.0855 -0.6264 -1.3434
 2279SOL     hw 9115   4.986   4.597   4.191  0.9241 -0.1955  2.7745
 2279SOL     vw 9116   4.931   4.536   4.220  0.0994 -0.7908  0.2201
 2280SOL     ow 9117   3.148   3.473   1.203  0.1218  0.0900 -0.5321
 2280SOL     hw 9118   3.098   3.456   1.283 -2.0516 -0.6296 -1.9401
 2280SOL     hw 9119   3.216   3.405   1.201 -1.4515 -1.5622 -0.5483
 2280SOL     vw 9120   3.150   3.462   1.213 -0.3724 -0.2229 -0.7200
 2281SOL     ow 9121   3.369   1.847   6.154  0.2967 -0.7527  0.0893
 2281SOL     hw 9122   3.379   1.841   6.249  3.1395 -0.0923 -0.0800
 2281SOL     hw 9123   3.381   1.757   6.123  1.1364 -0.6992  0.2496
 2281SOL     vw 9124   3.372   1.834   6.163  0.7826 -0.6585  0.0882
 2282SOL     ow 9125   5.762   3.008   1.525 -0.1211 -0.3645  0.2176
 2282SOL     hw 9126   5.810   2.947   1.469  0.2563  0.6423 -0.5889
 2282SOL     hw 9127   5.804   3.093   1.510 -1.1506  0.2498  0.6940
 2282SOL     vw 9128   5.774   3.011   1.515 -0.2072 -0.1506  0.1740
 2283SOL     ow 9129   6.607   6.955   2.152  0.1500  0.8524 -0.7435
 2283SOL     hw 9130   6.655   6.874   2.132  0.2828  0.9764 -0.9339
 2283SOL     hw 9131   6.551   6.932   2.226  2.9272  1.5826  1.7717
 2283SOL     vw 9132   6.606   6.941   2.159  0.5338  0.9651 -0.4367
 2284SOL     ow 9133   5.071   7.291   5.064 -0.4440  0.6090  0.1656
 2284SOL     hw 9134   5.070   7.196   5.051  0.0507  0.6389 -0.1042
 2284SOL     hw 9135   5.034   7.304   5.152 -2.6303  0.3108 -0.6411
 2284SOL     vw 9136   5.066   7.280   5.074 -0.6671  0.5736  0.0231
 2285SOL     ow 9137   5.449   6.323   0.913  0.2751 -0.0190  0.1414
 2285SOL     hw 9138   5.430   6.407   0.954 -1.2299 -1.0266  1.6636
 2285SOL     hw 9139   5.365   6.276   0.914  1.1411 -1.6718 -0.3350
 2285SOL     vw 9140   5.435   6.328   0.919  0.1910 -0.3698  0.2794
 2286SOL     ow 9141   4.363   6.924   3.687  1.1845 -0.5927 -0.1674
 2286SOL     hw 9142   4.335   7.016   3.686 -0.9625 -1.1860 -2.0323
 2286SOL     hw 9143   4.304   6.882   3.750  1.4042 -0.9058 -0.1716
 2286SOL     vw 9144   4.352   6.931   3.696  0.9303 -0.7122 -0.4139
 2287SOL     ow 9145   2.542   2.193   5.533 -0.2244 -0.4432  0.0071
 2287SOL     hw 9146   2.570   2.276   5.494 -1.0349  0.7111  1.7614
 2287SOL     hw 9147   2.454   2.178   5.500 -0.0997 -0.5837 -0.2644
 2287SOL     vw 9148   2.534   2.202   5.524 -0.3147 -0.3093  0.2029
 2288SOL     ow 9149   4.984   5.869   0.720 -0.6112 -0.4939  0.0622
 2288SOL     hw 9150   5.013   5.945   0.770 -0.5496  0.9395 -2.0449
 2288SOL     hw 9151   5.062   5.813   0.714 -0.2064  0.0454  0.2459
 2288SOL     vw 9152   4.998   5.871   0.726 -0.5498 -0.2337 -0.1916
 2289SOL     ow 9153   5.806   7.332   2.028 -0.0663  0.2759  0.3378
 2289SOL     hw 9154   5.733   7.274   2.005  0.2053  0.3515 -0.7712
 2289SOL     hw 9155   5.854   7.284   2.095 -0.0952 -0.5931 -0.2430
 2289SOL     vw 9156   5.802   7.318   2.033 -0.0343  0.1712  0.1148
 2290SOL     ow 9157   2.121   0.002   4.757 -1.0116 -0.0497 -0.6034
 2290SOL     hw 9158   2.061  -0.072   4.768 -0.1268 -1.0949 -2.3250
 2290SOL     hw 9159   2.084   0.072   4.812 -3.9103 -0.5652 -1.7290
 2290SOL     vw 9160   2.108   0.002   4.766 -1.2773 -0.2556 -0.9792
 2291SOL     ow 9161   3.712   4.275   1.289 -0.4379 -0.0708 -0.2227
 2291SOL     hw 9162   3.704   4.216   1.364  1.9946  1.0510  1.0325
 2291SOL     hw 9163   3.801   4.261   1.256  0.2806  2.8468  0.1805
 2291SOL     vw 9164   3.723   4.266   1.295 -0.0222  0.4621 -0.0038
 2292SOL     ow 9165   1.331   0.123   5.605  0.4510 -0.4486 -0.1453
 2292SOL     hw 9166   1.404   0.086   5.654  0.9281 -2.5523 -2.2403
 2292SOL     hw 9167   1.356   0.214   5.591  1.7643 -0.6346  0.8078
 2292SOL     vw 9168   1.344   0.130   5.609  0.6872 -0.7507 -0.2964
 2293SOL     ow 9169   2.113   6.031   3.509  0.0701  0.2260 -0.1623
 2293SOL     hw 9170   2.208   6.045   3.513 -0.1783  1.9575  0.9204
 2293SOL     hw 9171   2.096   5.962   3.573  0.6483 -0.5414 -0.8155
 2293SOL     vw 9172   2.124   6.024   3.518  0.1137  0.3533 -0.1055
 2294SOL     ow 9173   5.550   2.451   2.919 -0.4222  0.1407  0.4636
 2294SOL     hw 9174   5.560   2.423   3.010  1.8780 -0.5404  0.0576
 2294SOL     hw 9175   5.461   2.425   2.895 -0.4121 -1.3781  1.9418
 2294SOL     vw 9176   5.539   2.444   2.928 -0.1175 -0.1496  0.6051
 2295SOL     ow 9177   3.776   5.366   1.584 -0.3283 -0.0977 -0.2312
 2295SOL     hw 9178   3.784   5.371   1.489 -0.8489  0.6079 -0.2475
 2295SOL     hw 9179   3.690   5.328   1.599 -1.1666  1.7808 -0.0537
 2295SOL     vw 9180   3.766   5.362   1.574 -0.5075  0.2432 -0.2099
 2296SOL     ow 9181   1.074   3.756   5.612  0.7388  0.3332  0.3278
 2296SOL     hw 9182   1.095   3.843   5.647  2.1194  0.0342  0.2953
 2296SOL     hw 9183   0.993   3.732   5.657 -0.8349  2.4758 -1.1665
 2296SOL     vw 9184   1.066   3.764   5.623  0.7133  0.5765  0.1264
 2297SOL     ow 9185   1.291   0.392   3.358 -0.2699  0.4706 -0.0829
 2297SOL     hw 9186   1.231   0.442   3.302  1.7967  1.3776 -1.6214
 2297SOL     hw 9187   1.272   0.301   3.337 -0.3290  0.7738 -1.4577
 2297SOL     vw 9188   1.281   0.387   3.348 -0.0051  0.6302 -0.4672
 2298SOL     ow 9189   2.660   1.382   6.043  0.5723  0.0402 -0.8165
 2298SOL     hw 9190   2.672   1.287   6.040 -1.0121 -0.3313  1.7258
 2298SOL     hw 9191   2.566   1.394   6.029  0.6024  1.1631 -0.1079
 2298SOL     vw 9192   2.649   1.371   6.040  0.3670  0.1394 -0.3877
 2299SOL     ow 9193   5.778   5.372   0.844  0.4032 -0.6574 -0.3439
 2299SOL     hw 9194   5.831   5.388   0.766 -1.2670  0.6845 -1.2819
 2299SOL     hw 9195   5.813   5.431   0.910 -0.1921  0.6288 -1.1255
 2299SOL     vw 9196   5.789   5.382   0.842  0.1042 -0.3109 -0.5708
 2300SOL     ow 9197   1.191   7.309   3.886  0.2773  0.4392  0.0925
 2300SOL     hw 9198   1.252   7.296   3.814  0.0199 -1.9488  0.2374
 2300SOL     hw 9199   1.141   7.388   3.861  1.4387  0.7467 -1.4030
 2300SOL     vw 9200   1.192   7.318   3.873  0.3965  0.1645 -0.0856
 2301SOL     ow 9201   4.153   2.592   2.995  0.3696 -0.0656 -0.3733
 2301SOL     hw 9202   4.150   2.655   2.923  1.3645 -0.7414 -1.0338
 2301SOL     hw 9203   4.241   2.555   2.991  1.1588  1.3100  2.4708
 2301SOL     vw 9204   4.164   2.595   2.985  0.6051  0.0267 -0.0854
 2302SOL     ow 9205   5.587   2.656   5.621 -0.0511  0.3787 -0.0701
 2302SOL     hw 9206   5.570   2.564   5.639  1.1012  0.7876  3.8696
 2302SOL     hw 9207   5.659   2.655   5.557  0.0888 -1.4096  0.0564
 2302SOL     vw 9208   5.594   2.644   5.615  0.1194  0.1968  0.4663
 2303SOL     ow 9209   3.155   2.451   1.633 -0.1560  0.1210  0.0911
 2303SOL     hw 9210   3.155   2.397   1.712 -0.8436 -0.9130 -0.5834
 2303SOL     hw 9211   3.237   2.429   1.589  2.2471  3.6726  2.3928
 2303SOL     vw 9212   3.166   2.441   1.638  0.0705  0.4532  0.3058
 2304SOL     ow 9213   3.466   6.569   0.700 -0.2419 -0.2346  0.2700
 2304SOL     hw 9214   3.458   6.619   0.781 -0.1937  0.8067 -0.3440
 2304SOL     hw 9215   3.391   6.596   0.648 -0.0896 -0.6414 -0.1651
 2304SOL     vw 9216   3.455   6.580   0.704 -0.2154 -0.1509  0.1316
 2305SOL     ow 9217   0.009   4.779   4.558 -0.1721  0.2126  0.6338
 2305SOL     hw 9218  -0.071   4.810   4.517 -1.3185 -3.1348  0.0135
 2305SOL     hw 9219   0.071   4.769   4.485 -0.6230 -1.1205  0.3962
 2305SOL     vw 9220   0.007   4.782   4.543 -0.3828 -0.4053  0.5205
 2306SOL     ow 9221   5.771   4.349   5.267  0.3148 -0.1019 -0.5305
 2306SOL     hw 9222   5.749   4.318   5.179 -0.4961 -0.1988 -0.3049
 2306SOL     hw 9223   5.691   4.392   5.298  0.8444  0.6061 -0.1317
 2306SOL     vw 9224   5.757   4.350   5.260  0.2780 -0.0215 -0.4480
 2307SOL     ow 9225   2.550   3.763   1.989 -0.4463  0.0935 -0.3653
 2307SOL     hw 9226   2.597   3.781   2.070 -0.7717  0.9516 -0.3558
 2307SOL     hw 9227   2.562   3.842   1.935  0.4011 -0.7567 -1.4680
 2307SOL     vw 9228   2.558   3.776   1.992 -0.3774  0.0945 -0.5095
 2308SOL     ow 9229   7.018   6.912   7.454  0.0611  0.1957  0.7764
 2308SOL     hw 9230   7.104   6.877   7.434 -0.6870 -1.3464  0.0898
 2308SOL     hw 9231   7.016   6.998   7.411  0.5303 -0.6477 -1.0077
 2308SOL     vw 9232   7.029   6.919   7.446  0.0243 -0.1190  0.4504
 2309SOL     ow 9233   4.670   0.709   5.154 -0.2751 -0.3890  0.2943
 2309SOL     hw 9234   4.709   0.634   5.199  0.0993  0.4442  1.4158
 2309SOL     hw 9235   4.605   0.671   5.095  1.3468 -1.7233 -0.7137
 2309SOL     vw 9236   4.666   0.694   5.152 -0.0117 -0.4551  0.3090
 2310SOL     ow 9237   0.436   6.055   2.173  0.1889 -0.4276 -0.1404
 2310SOL     hw 9238   0.363   6.015   2.221  0.2080  0.4937  0.6875
 2310SOL     hw 9239   0.435   6.011   2.088 -0.0707 -1.8460  0.5676
 2310SOL     vw 9240   0.426   6.044   2.168  0.1572 -0.4933  0.0622
 2311SOL     ow 9241   0.454   6.008   7.274 -0.0847 -0.2397 -0.2645
 2311SOL     hw 9242   0.376   5.990   7.220 -0.9236  1.5854  0.2786
 2311SOL     hw 9243   0.419   6.023   7.361  1.1496 -1.8592  0.5766
 2311SOL     vw 9244   0.439   6.007   7.278 -0.0325 -0.2127 -0.0820
 2312SOL     ow 9245   3.973   1.136   5.336  0.2937 -0.8562  0.6165
 2312SOL     hw 9246   3.949   1.168   5.423 -1.6332 -2.5831  0.7885
 2312SOL     hw 9247   4.050   1.081   5.352  0.1619 -0.8935  1.1685
 2312SOL     vw 9248   3.980   1.133   5.350  0.0219 -1.0890  0.7119
 2313SOL     ow 9249   6.030   1.883   6.435  0.1134 -0.0469  0.6589
 2313SOL     hw 9250   6.085   1.834   6.374  0.4336 -0.0125  0.9232
 2313SOL     hw 9251   5.979   1.941   6.379  2.0453  1.6499  0.5582
 2313SOL     vw 9252   6.030   1.884   6.419  0.4106  0.1815  0.6804
 2314SOL     ow 9253   2.180   1.641   0.819 -0.0975 -0.0885  0.3489
 2314SOL     hw 9254   2.186   1.695   0.741  0.9246  0.2329  0.6425
 2314SOL     hw 9255   2.105   1.584   0.803 -2.4678  2.6742  0.8440
 2314SOL     vw 9256   2.171   1.640   0.807 -0.2754  0.3185  0.4530
 2315SOL     ow 9257   2.017   0.154   5.005  0.6570  0.0817 -0.2300
 2315SOL     hw 9258   2.077   0.227   4.990 -0.9508  2.0906  2.3030
 2315SOL     hw 9259   1.933   0.184   4.973  0.2874 -1.3874 -0.7223
 2315SOL     vw 9260   2.014   0.167   4.999  0.3960  0.1529  0.0393
 2316SOL     ow 9261   3.547   6.769   0.583 -0.1285  0.9958 -0.4330
 2316SOL     hw 9262   3.503   6.840   0.628 -2.2838  1.1191 -2.5560
 2316SOL     hw 9263   3.523   6.690   0.632  0.5148  1.4549  0.6595
 2316SOL     vw 9264   3.538   6.768   0.595 -0.3279  1.0726 -0.5690
 2317SOL     ow 9265   4.107   2.883   6.785  0.3093  0.4826 -0.1428
 2317SOL     hw 9266   4.182   2.916   6.835 -0.2543 -0.0104  1.0822
 2317SOL     hw 9267   4.144   2.850   6.704  1.4449  0.0829  0.5168
 2317SOL     vw 9268   4.121   2.883   6.781  0.3850  0.3648  0.1059
 2318SOL     ow 9269   0.428   4.237   4.740 -0.1612 -0.5542 -0.5326
 2318SOL     hw 9270   0.350   4.191   4.772 -0.6149  0.3578 -0.2965
 2318SOL     hw 9271   0.497   4.211   4.801 -0.2881 -1.2946 -0.6890
 2318SOL     vw 9272   0.427   4.227   4.752 -0.2378 -0.5317 -0.5219
 2319SOL     ow 9273   0.844   3.240   1.850  0.3916 -0.3657  0.0887
 2319SOL     hw 9274   0.781   3.237   1.921  0.1438 -0.2978 -0.1273
 2319SOL     hw 9275   0.796   3.278   1.776  0.6522 -0.4125 -0.1083
 2319SOL     vw 9276   0.829   3.245   1.850  0.3933 -0.3629  0.0342
 2320SOL     ow 9277   3.902   1.977   0.174 -0.2165  0.1172  0.1662
 2320SOL     hw 9278   3.886   2.004   0.083  1.8570  1.2371  0.0878
 2320SOL     hw 9279   3.983   1.926   0.170 -0.7394 -0.8368  1.2445
 2320SOL     vw 9280   3.910   1.974   0.161 -0.0119  0.1391  0.2981
 2321SOL     ow 9281   0.415   6.970   4.972  0.3323 -0.5964 -0.2417
 2321SOL     hw 9282   0.355   6.897   4.985  0.0411 -0.0307  1.9777
 2321SOL     hw 9283   0.455   6.953   4.886  0.1163 -3.2320  0.0868
 2321SOL     vw 9284   0.412   6.958   4.962  0.2654 -0.8695  0.0947
 2322SOL     ow 9285   4.973   1.531   4.181 -0.2695  0.5503 -0.1509
 2322SOL     hw 9286   5.025   1.602   4.218  0.7726 -0.3969  0.2884
 2322SOL     hw 9287   5.007   1.452   4.223 -1.4220 -0.2104 -0.5877
 2322SOL     vw 9288   4.984   1.530   4.191 -0.2840  0.3250 -0.1507
 2323SOL     ow 9289   4.618   2.306   3.233 -0.6681 -0.5006  0.2656
 2323SOL     hw 9290   4.562   2.238   3.272  1.7521 -1.4084  2.4395
 2323SOL     hw 9291   4.633   2.367   3.305  0.5932  0.0733 -0.4674
 2323SOL     vw 9292   4.612   2.305   3.248 -0.1826 -0.5445  0.4559
 2324SOL     ow 9293   1.435   3.717   5.905  0.2722 -0.1433 -0.5192
 2324SOL     hw 9294   1.351   3.670   5.904  0.0663  0.0963  1.6313
 2324SOL     hw 9295   1.453   3.734   5.813 -1.3283 -1.4529 -1.1373
 2324SOL     vw 9296   1.426   3.713   5.893  0.0339 -0.2844 -0.3169
 2325SOL     ow 9297   4.337   3.536   3.748  0.0539 -0.1897 -0.4934
 2325SOL     hw 9298   4.286   3.565   3.824  3.1687  1.0359  1.2937
 2325SOL     hw 9299   4.337   3.611   3.690 -0.4357 -0.3358 -0.6946
 2325SOL     vw 9300   4.330   3.549   3.751  0.4003 -0.0473 -0.2842
 2326SOL     ow 9301   3.771   2.543   2.962  0.1446 -0.2477  0.3767
 2326SOL     hw 9302   3.680   2.561   2.939  0.1844  0.4155  0.7255
 2326SOL     hw 9303   3.811   2.510   2.881 -0.1189  0.5384 -0.0797
 2326SOL     vw 9304   3.764   2.541   2.948  0.1150 -0.0566  0.3626
 2327SOL     ow 9305   5.181   6.435   4.608 -0.2383 -0.0186  1.0159
 2327SOL     hw 9306   5.200   6.520   4.570 -1.0012 -0.9119 -1.5444
 2327SOL     hw 9307   5.245   6.426   4.679  1.2762  1.7764 -0.0178
 2327SOL     vw 9308   5.192   6.445   4.612 -0.1392  0.1006  0.5414
 2328SOL     ow 9309   5.614   7.177   0.441 -0.1572  0.8611 -0.0548
 2328SOL     hw 9310   5.570   7.104   0.484  1.0883 -0.7426 -1.3961
 2328SOL     hw 9311   5.550   7.248   0.444 -2.1588 -0.8199 -0.3529
 2328SOL     vw 9312   5.600   7.177   0.447 -0.2570  0.4277 -0.2711
 2329SOL     ow 9313   2.639   2.300   5.805  0.4491  0.2369 -0.0282
 2329SOL     hw 9314   2.563   2.356   5.788 -0.4973 -0.7948  0.6171
 2329SOL     hw 9315   2.604   2.229   5.860  2.0699  0.1910  0.9971
 2329SOL     vw 9316   2.624   2.298   5.810  0.5380  0.0948  0.1922
 2330SOL     ow 9317   1.528   2.121   4.082 -0.0899 -0.0156  0.1010
 2330SOL     hw 9318   1.476   2.143   4.159 -1.0305 -0.4240 -0.4119
 2330SOL     hw 9319   1.465   2.114   4.011  0.4349 -2.0487 -0.2240
 2330SOL     vw 9320   1.513   2.123   4.083 -0.1448 -0.3378 -0.0098
 2331SOL     ow 9321   2.818   3.300   1.387  0.6482  0.2848  0.0224
 2331SOL     hw 9322   2.741   3.343   1.423  1.2250  1.3236  0.0674
 2331SOL     hw 9323   2.822   3.329   1.296 -0.5787 -2.0118 -0.8514
 2331SOL     vw 9324   2.808   3.309   1.380  0.5625  0.1189 -0.0869
 2332SOL     ow 9325   1.370   4.248   0.661 -0.0055 -0.2873 -0.9703
 2332SOL     hw 9326   1.365   4.157   0.689 -0.4059 -0.3365 -1.1985
 2332SOL     hw 9327   1.425   4.290   0.727  1.9276 -1.1123 -1.9626
 2332SOL     vw 9328   1.377   4.242   0.674  0.1967 -0.4027 -1.1314
 2333SOL     ow 9329   3.562   1.555   3.753  0.7102  0.6510 -0.1213
 2333SOL     hw 9330   3.572   1.485   3.818 -2.4010 -0.9968 -1.2123
 2333SOL     hw 9331   3.646   1.557   3.707  1.5583 -0.9816  1.2280
 2333SOL     vw 9332   3.574   1.546   3.756  0.4116  0.2182 -0.0873
 2334SOL     ow 9333   0.115   5.056   5.472  0.5952 -0.7890 -0.3859
 2334SOL     hw 9334   0.117   4.969   5.510  2.6293 -0.2854  0.8031
 2334SOL     hw 9335   0.109   5.116   5.547  2.0884  0.1366 -0.9406
 2334SOL     vw 9336   0.115   5.053   5.487  1.0606 -0.6003 -0.3021
 2335SOL     ow 9337   2.992   2.111   5.764 -0.0452  0.3875  0.5136
 2335SOL     hw 9338   3.067   2.056   5.786 -1.6075 -1.4700  1.5747
 2335SOL     hw 9339   2.988   2.110   5.669  2.3979  2.2126  0.3057
 2335SOL     vw 9340   3.001   2.104   5.755  0.0709  0.3833  0.6261
 2336SOL     ow 9341   6.108   0.482   4.574  0.7789 -0.4760 -0.8948
 2336SOL     hw 9342   6.125   0.430   4.653 -0.7422  0.3779  0.0422
 2336SOL     hw 9343   6.195   0.506   4.542  1.4596  0.5477  1.4661
 2336SOL     vw 9344   6.122   0.478   4.580  0.6683 -0.2283 -0.4597
 2337SOL     ow 9345   1.795   5.370   0.594  0.5328 -0.8120 -0.2611
 2337SOL     hw 9346   1.807   5.278   0.620 -1.0450 -0.7466  0.8361
 2337SOL     hw 9347   1.842   5.420   0.660  0.4508 -0.7818 -0.2269
 2337SOL     vw 9348   1.803   5.364   0.606  0.3138 -0.7997 -0.1119
 2338SOL     ow 9349   0.883   5.618   3.877 -0.2491 -0.1875 -0.0177
 2338SOL     hw 9350   0.803   5.595   3.829  1.2216  0.0748 -2.7596
 2338SOL     hw 9351   0.915   5.534   3.910 -0.1720 -0.7102 -1.3666
 2338SOL     vw 9352   0.876   5.604   3.875 -0.0449 -0.2220 -0.5574
 2339SOL     ow 9353   3.794   4.388   5.000 -0.0006  0.1658  0.7071
 2339SOL     hw 9354   3.860   4.457   4.992 -1.4127  1.5841  0.6928
 2339SOL     hw 9355   3.775   4.385   5.094  0.4057 -0.5642  0.7699
 2339SOL     vw 9356   3.800   4.397   5.012 -0.1333  0.2568  0.7131
 2340SOL     ow 9357   3.872   7.059   4.468 -0.1854 -1.1193  0.3659
 2340SOL     hw 9358   3.885   6.976   4.422  0.8358 -0.6642 -0.2047
 2340SOL     hw 9359   3.961   7.086   4.494 -0.4887 -0.1580  0.4461
 2340SOL     vw 9360   3.886   7.052   4.465 -0.0908 -0.9327  0.3014
 2341SOL     ow 9361   7.533   7.532   5.943 -0.6755 -0.1262  0.7881
 2341SOL     hw 9362   7.455   7.587   5.953 -0.8797 -0.3959  0.6948
 2341SOL     hw 9363   7.593   7.563   6.010 -1.6683 -1.2986  2.2970
 2341SOL     vw 9364   7.531   7.543   5.953 -0.8333 -0.3166  0.9751
 2342SOL     ow 9365   7.139   3.628   0.763 -0.5320 -0.5357  0.0741
 2342SOL     hw 9366   7.051   3.614   0.726 -1.0552 -2.4664  1.9107
 2342SOL     hw 9367   7.186   3.547   0.745  0.7153  0.2385 -0.3037
 2342SOL     vw 9368   7.133   3.616   0.756 -0.4363 -0.6882  0.2666
 2343SOL     ow 9369   5.064   1.666   1.962 -0.0937  0.3381  0.0820
 2343SOL     hw 9370   5.151   1.635   1.990 -0.3070  0.3017  0.7312
 2343SOL     hw 9371   5.082   1.726   1.890  0.5233  0.7690  0.5768
 2343SOL     vw 9372   5.078   1.670   1.956 -0.0405  0.3901  0.2329
 2344SOL     ow 9373   6.400   1.557   4.836  0.3844  0.2736 -0.1068
 2344SOL     hw 9374   6.461   1.493   4.800 -1.1885 -0.0484 -2.4548
 2344SOL     hw 9375   6.334   1.505   4.882 -0.7597  0.1541 -1.8044
 2344SOL     vw 9376   6.399   1.542   4.838  0.0260  0.2154 -0.6402
 2345SOL     ow 9377   5.633   6.397   1.264 -0.2409 -0.2025  0.3631
 2345SOL     hw 9378   5.684   6.327   1.224 -0.4031  0.3704 -0.8710
 2345SOL     hw 9379   5.545   6.361   1.274 -1.1367  0.7145 -3.0130
 2345SOL     vw 9380   5.628   6.383   1.260 -0.3805 -0.0057 -0.2452
 2346SOL     ow 9381   0.610   1.194   4.013  0.8898  1.0723 -0.0294
 2346SOL     hw 9382   0.579   1.246   3.939  0.9791 -1.1938 -1.7765
 2346SOL     hw 9383   0.535   1.189   4.073  0.3627  1.8207 -0.6120
 2346SOL     vw 9384   0.596   1.200   4.011  0.8321  0.8720 -0.3366
 2347SOL     ow 9385   4.330   7.080   0.187  0.0616 -0.2638  0.1461
 2347SOL     hw 9386   4.351   7.054   0.097 -0.5423 -0.1704 -0.0254
 2347SOL     hw 9387   4.379   7.018   0.242  0.5335 -0.2380 -0.2428
 2347SOL     vw 9388   4.339   7.068   0.183  0.0441 -0.2484  0.0722
 2348SOL     ow 9389   4.288   0.545   6.396  0.7431  0.1216  0.3687
 2348SOL     hw 9390   4.272   0.554   6.302 -0.3022  0.6512  0.5843
 2348SOL     hw 9391   4.358   0.481   6.402  0.9636  0.2244 -0.7834
 2348SOL     vw 9392   4.295   0.538   6.384  0.6344  0.2050  0.2449
 2349SOL     ow 9393   4.128   5.878   2.988 -0.1510 -0.5924  0.0744
 2349SOL     hw 9394   4.126   5.911   2.898  1.8268 -1.4315 -0.3386
 2349SOL     hw 9395   4.213   5.907   3.022 -1.4039  0.8426  2.1649
 2349SOL     vw 9396   4.139   5.886   2.981 -0.0551 -0.5140  0.2956
 2350SOL     ow 9397   5.894   4.081   5.338  0.6942 -0.7305  0.0380
 2350SOL     hw 9398   5.945   4.006   5.369 -0.7924 -1.6859  0.3035
 2350SOL     hw 9399   5.894   4.073   5.242  2.7770  0.5120 -0.1277
 2350SOL     vw 9400   5.901   4.070   5.329  0.7730 -0.6928  0.0510
 2351SOL     ow 9401   3.726   3.598   6.326  0.7235  0.1394  0.1667
 2351SOL     hw 9402   3.650   3.618   6.382  0.9422 -1.5839  1.1524
 2351SOL     hw 9403   3.688   3.581   6.240  0.0270 -0.2323  0.5358
 2351SOL     vw 9404   3.711   3.598   6.322  0.6603 -0.1371  0.3452
 2352SOL     ow 9405   7.220   5.633   3.436 -0.0377 -0.8887  0.2927
 2352SOL     hw 9406   7.127   5.640   3.416  0.6885  1.8246 -3.1493
 2352SOL     hw 9407   7.243   5.543   3.412 -1.3714 -0.8976 -1.1780
 2352SOL     vw 9408   7.211   5.622   3.430 -0.1180 -0.5319 -0.3555
 2353SOL     ow 9409   6.186   1.348   2.762 -0.0537  0.8683  0.2405
 2353SOL     hw 9410   6.279   1.329   2.750  0.0256  1.8221 -0.7293
 2353SOL     hw 9411   6.145   1.261   2.768  0.7869  0.4280 -0.1975
 2353SOL     vw 9412   6.192   1.334   2.761  0.0675  0.9360  0.0548
 2354SOL     ow 9413   4.523   6.793   3.452  0.4572  0.3623 -0.0794
 2354SOL     hw 9414   4.471   6.720   3.417  0.6871 -0.7982  1.8453
 2354SOL     hw 9415   4.613   6.773   3.426  0.2760  1.0855 -1.3250
 2354SOL     vw 9416   4.528   6.780   3.444  0.4637  0.3045  0.0100
 2355SOL     ow 9417   4.364   4.230   3.525 -0.4733 -0.3310  0.2925
 2355SOL     hw 9418   4.284   4.204   3.481  0.3337 -1.5361 -0.5054
 2355SOL     hw 9419   4.425   4.158   3.509  1.1419  1.0658 -0.1096
 2355SOL     vw 9420   4.362   4.217   3.517 -0.1535 -0.3057  0.1342
 2356SOL     ow 9421   6.170   2.103   5.407  0.4332  0.0149  0.3914
 2356SOL     hw 9422   6.245   2.133   5.355  0.5106 -3.7432 -2.1198
 2356SOL     hw 9423   6.101   2.088   5.342 -0.3078 -2.5076  1.6396
 2356SOL     vw 9424   6.171   2.105   5.391  0.3457 -0.8137  0.2248
 2357SOL     ow 9425   6.923   4.596   1.803  0.0825  0.1361  0.2746
 2357SOL     hw 9426   6.989   4.661   1.780  2.8044 -2.3635  0.5514
 2357SOL     hw 9427   6.901   4.554   1.720  1.1827 -1.0540  0.5516
 2357SOL     vw 9428   6.929   4.599   1.789  0.5870 -0.3507  0.3477
 2358SOL     ow 9429   4.720   1.442   4.335  0.0013  0.0558  0.0383
 2358SOL     hw 9430   4.693   1.477   4.420  0.6949 -1.9999  1.1673
 2358SOL     hw 9431   4.789   1.378   4.356  2.1464  1.4011 -2.2901
 2358SOL     vw 9432   4.726   1.438   4.349  0.3760 -0.0379 -0.1197
 2359SOL     ow 9433   0.834   5.270   5.501 -0.3228 -0.4704 -0.0049
 2359SOL     hw 9434   0.844   5.243   5.593 -2.9101 -1.2017  0.1240
 2359SOL     hw 9435   0.821   5.365   5.506 -0.1582 -0.4618  0.3491
 2359SOL     vw 9436   0.834   5.279   5.514 -0.6424 -0.5658  0.0589
 2360SOL     ow 9437   2.928   5.759   6.613  0.2983  0.0583  0.0374
 2360SOL     hw 9438   2.942   5.783   6.704 -1.8637  2.6458 -0.1913
 2360SOL     hw 9439   2.848   5.705   6.614  0.1519  0.2647 -0.3333
 2360SOL     vw 9440   2.919   5.755   6.625 -0.0063  0.4270 -0.0417
 2361SOL     ow 9441   4.755   1.734   7.575 -0.1595  0.4676 -0.3457
 2361SOL     hw 9442   4.822   1.678   7.613 -0.7505  0.1107  0.2003
 2361SOL     hw 9443   4.738   1.696   7.489 -1.5975 -1.1441  0.5696
 2361SOL     vw 9444   4.761   1.722   7.569 -0.4272  0.2079 -0.1529
 2362SOL     ow 9445   4.256   7.587   2.897  0.1667 -0.2460 -1.0891
 2362SOL     hw 9446   4.250   7.591   2.992  2.7789 -0.1234 -0.8637
 2362SOL     hw 9447   4.288   7.498   2.878 -0.4466 -0.3142 -1.8780
 2362SOL     vw 9448   4.259   7.576   2.907  0.4308 -0.2389 -1.1635
 2363SOL     ow 9449   3.024   2.689   5.535  0.1028 -0.2160  0.1599
 2363SOL     hw 9450   3.097   2.748   5.516  3.1093 -2.5614  3.2523
 2363SOL     hw 9451   2.987   2.722   5.617  1.0567 -1.7996  1.2870
 2363SOL     vw 9452   3.029   2.701   5.543  0.6254 -0.7344  0.7164
 2364SOL     ow 9453   2.891   3.384   2.599 -0.8992  0.0215 -0.7355
 2364SOL     hw 9454   2.847   3.300   2.584 -1.1556 -0.5417  2.4905
 2364SOL     hw 9455   2.983   3.360   2.611 -0.6704  0.4669 -1.5068
 2364SOL     vw 9456   2.897   3.370   2.598 -0.9028  0.0060 -0.4116
 2365SOL     ow 9457   5.102   0.238   4.415  0.0597 -0.4204  0.0640
 2365SOL     hw 9458   5.132   0.176   4.481  1.9700 -3.0016 -2.9617
 2365SOL     hw 9459   5.146   0.320   4.439  0.6388 -1.2263  1.9990
 2365SOL     vw 9460   5.112   0.241   4.427  0.3884 -0.8673 -0.0799
 2366SOL     ow 9461   1.161   1.235   3.699  0.4973 -0.1976 -0.1873
 2366SOL     hw 9462   1.178   1.174   3.627 -0.5167  0.5582 -1.1151
 2366SOL     hw 9463   1.151   1.320   3.656 -0.1867  0.2648  0.8428
 2366SOL     vw 9464   1.162   1.239   3.684  0.2733 -0.0368 -0.1737
 2367SOL     ow 9465   6.625   6.706   7.551  0.2855  1.0151  0.1176
 2367SOL     hw 9466   6.600   6.616   7.532  0.6578  1.1888 -1.3554
 2367SOL     hw 9467   6.552   6.759   7.517  0.8456  1.3410 -0.5854
 2367SOL     vw 9468   6.612   6.701   7.544  0.4084  1.0808 -0.1695
 2368SOL     ow 9469   5.535   4.022   5.843 -0.1063  0.6652  0.3312
 2368SOL     hw 9470   5.574   4.099   5.802  2.3017 -0.8867 -0.4876
 2368SOL     hw 9471   5.520   3.961   5.770 -0.9285 -0.0681  1.0904
 2368SOL     vw 9472   5.538   4.024   5.828  0.1028  0.3636  0.3231
 2369SOL     ow 9473   1.257   7.538   1.714  0.5918  0.2164  0.2725
 2369SOL     hw 9474   1.232   7.628   1.693 -0.1863 -0.5918 -2.6025
 2369SOL     hw 9475   1.256   7.492   1.630 -0.6276 -2.8903  1.8257
 2369SOL     vw 9476   1.254   7.544   1.700  0.3283 -0.3004  0.0981
 2370SOL     ow 9477   0.677   4.357   0.640 -0.3583 -0.0940 -0.5332
 2370SOL     hw 9478   0.583   4.342   0.646 -0.0611 -2.1446 -0.2909
 2370SOL     hw 9479   0.712   4.277   0.602  1.5748 -0.3989  1.6744
 2370SOL     vw 9480   0.669   4.345   0.635 -0.0641 -0.4051 -0.2100
 2371SOL     ow 9481   4.548   6.689   3.771  0.4676 -0.2217 -0.4874
 2371SOL     hw 9482   4.622   6.693   3.832  0.4654 -0.3284 -0.4769
 2371SOL     hw 9483   4.520   6.597   3.774 -1.5568  0.3494  1.7826
 2371SOL     vw 9484   4.554   6.677   3.780  0.2003 -0.1605 -0.1866
 2372SOL     ow 9485   2.441   3.068   3.632  0.9092  0.1053 -0.1491
 2372SOL     hw 9486   2.496   3.017   3.692  0.7356  0.1757  0.0682
 2372SOL     hw 9487   2.416   3.005   3.564 -2.1979 -1.0877  1.9089
 2372SOL     vw 9488   2.445   3.053   3.631  0.4764 -0.0429  0.1512
 2373SOL     ow 9489   5.077   0.556   6.128  0.1787 -0.2477 -0.0285
 2373SOL     hw 9490   5.137   0.501   6.177  1.6634 -0.6451 -2.1513
 2373SOL     hw 9491   5.057   0.629   6.187 -0.1994 -1.9519  2.0588
 2373SOL     vw 9492   5.082   0.559   6.142  0.3250 -0.5250 -0.0331
 2374SOL     ow 9493   1.263   4.775   0.980  0.1998  0.5309  0.8413
 2374SOL     hw 9494   1.306   4.861   0.975  1.4569 -0.1502 -1.4123
 2374SOL     hw 9495   1.317   4.726   1.043 -0.5587  1.3507  2.1895
 2374SOL     vw 9496   1.276   4.780   0.988  0.2656  0.5493  0.7218
 2375SOL     ow 9497   6.470   5.697   1.107  0.5068  0.0272 -0.4904
 2375SOL     hw 9498   6.401   5.732   1.163  0.7152  1.7537 -1.2470
 2375SOL     hw 9499   6.521   5.641   1.165  0.5245  1.4954  1.0042
 2375SOL     vw 9500   6.468   5.694   1.122  0.5367  0.4487 -0.3931
 2376SOL     ow 9501   4.172   4.906   0.958  0.0872 -0.0227 -0.3345
 2376SOL     hw 9502   4.235   4.843   0.922  0.9126  2.4179 -3.6687
 2376SOL     hw 9503   4.214   4.941   1.036  1.2109 -1.0598 -0.4553
 2376SOL     vw 9504   4.186   4.902   0.963  0.3445  0.1624 -0.7904
 2377SOL     ow 9505   3.694   0.920   1.621 -0.0455  0.1567  0.0837
 2377SOL     hw 9506   3.780   0.886   1.647  1.2783  2.7807 -0.5997
 2377SOL     hw 9507   3.690   0.907   1.527 -0.0944  0.6709  0.0120
 2377SOL     vw 9508   3.704   0.913   1.612  0.1227  0.5707 -0.0159
 2378SOL     ow 9509   3.848   4.488   3.111  0.2141 -0.0575  0.5715
 2378SOL     hw 9510   3.863   4.412   3.167  0.0466 -1.6071 -1.3605
 2378SOL     hw 9511   3.759   4.516   3.132  0.4826 -0.0089  1.7075
 2378SOL     vw 9512   3.838   4.481   3.121  0.2275 -0.2553  0.4667
 2379SOL     ow 9513   0.232   3.168   1.791 -0.5388 -0.4391  0.3778
 2379SOL     hw 9514   0.233   3.162   1.887 -1.7878 -2.1682  0.3346
 2379SOL     hw 9515   0.320   3.196   1.768  0.6046 -2.4140  1.9284
 2379SOL     vw 9516   0.243   3.171   1.801 -0.5528 -0.9277  0.5767
 2380SOL     ow 9517   1.555   2.258   4.443 -0.0278 -0.3959 -1.0793
 2380SOL     hw 9518   1.533   2.340   4.398  1.2327  1.1980  1.0586
 2380SOL     hw 9519   1.506   2.261   4.525 -0.7459 -2.3061 -1.3799
 2380SOL     vw 9520   1.546   2.269   4.448  0.0437 -0.4376 -0.8371
 2381SOL     ow 9521   3.629   0.501   3.898  0.1742  0.2432  0.2392
 2381SOL     hw 9522   3.687   0.505   3.822  0.3356  0.5895  0.3786
 2381SOL     hw 9523   3.546   0.466   3.863 -0.0361  1.2086 -0.2736
 2381SOL     vw 9524   3.625   0.497   3.883  0.1677  0.4163  0.1899
 2382SOL     ow 9525   2.432   4.530   0.720  0.3758 -0.4542  0.1243
 2382SOL     hw 9526   2.485   4.481   0.782 -0.4096 -0.7809  0.5528
 2382SOL     hw 9527   2.345   4.534   0.760 -0.3815 -1.3782 -1.2967
 2382SOL     vw 9528   2.427   4.524   0.733  0.1724 -0.6194 -0.0066
 2383SOL     ow 9529   6.265   0.259   0.101  0.4875 -0.3870  0.3380
 2383SOL     hw 9530   6.246   0.333   0.158  2.7574 -1.3285  2.4922
 2383SOL     hw 9531   6.178   0.224   0.078 -0.7925 -1.5467  5.5319
 2383SOL     vw 9532   6.251   0.264   0.105  0.6180 -0.6642  1.3075
 2384SOL     ow 9533   6.984   4.367   6.675  0.0165 -0.7739 -0.0009
 2384SOL     hw 9534   6.990   4.423   6.753  1.0973  2.5011 -2.2520
 2384SOL     hw 9535   7.070   4.327   6.668  0.4310  0.1374 -0.2915
 2384SOL     vw 9536   6.996   4.369   6.685  0.2136 -0.2215 -0.3364
 2385SOL     ow 9537   6.513   4.372   1.353 -0.2047 -0.2111 -0.1261
 2385SOL     hw 9538   6.596   4.419   1.357 -0.1037 -0.3672 -0.3331
 2385SOL     hw 9539   6.473   4.386   1.439 -1.1687  2.0281 -0.8735
 2385SOL     vw 9540   6.519   4.380   1.365 -0.3185  0.0639 -0.2520
 2386SOL     ow 9541   1.207   6.080   5.686  0.2125  0.2871 -0.2638
 2386SOL     hw 9542   1.258   5.999   5.684 -1.1961 -0.6629  0.4670
 2386SOL     hw 9543   1.116   6.051   5.686 -0.4106  1.6556  3.3440
 2386SOL     vw 9544   1.202   6.065   5.686 -0.0557  0.3424  0.3088
 2387SOL     ow 9545   6.114   2.687   0.873 -0.0439 -0.3713 -0.8572
 2387SOL     hw 9546   6.076   2.756   0.819 -0.2539 -0.1925 -0.4819
 2387SOL     hw 9547   6.202   2.718   0.893 -0.9089  0.9386  1.2990
 2387SOL     vw 9548   6.120   2.700   0.868 -0.1860 -0.1749 -0.5232
 2388SOL     ow 9549   3.683   5.827   2.518 -0.6334 -0.6894 -0.1692
 2388SOL     hw 9550   3.729   5.748   2.489 -1.6303 -1.6687  0.8244
 2388SOL     hw 9551   3.594   5.816   2.485 -0.3069  1.0339 -1.7941
 2388SOL     vw 9552   3.677   5.815   2.510 -0.7218 -0.5910 -0.2525
 2389SOL     ow 9553   6.915   1.929   1.393  0.0488  0.0306 -0.3358
 2389SOL     hw 9554   6.958   1.863   1.338 -0.3246  0.4081 -1.1066
 2389SOL     hw 9555   6.911   1.890   1.480  0.7642 -0.5366 -0.5545
 2389SOL     vw 9556   6.920   1.915   1.397  0.0939  0.0056 -0.4663
 2390SOL     ow 9557   7.263   2.581   0.375  0.2927  0.8097 -0.3261
 2390SOL     hw 9558   7.257   2.674   0.399  1.0750  0.9701 -0.7177
 2390SOL     hw 9559   7.326   2.579   0.303  0.6392 -0.0849 -0.0046
 2390SOL     vw 9560   7.270   2.593   0.369  0.4418  0.7129 -0.3353
 2391SOL     ow 9561   5.648   1.557   2.815 -0.1204  0.3761 -0.0157
 2391SOL     hw 9562   5.587   1.609   2.764 -0.6180  0.4623  0.6590
 2391SOL     hw 9563   5.660   1.477   2.764 -2.3905 -0.5482  0.8101
 2391SOL     vw 9564   5.642   1.553   2.801 -0.4854  0.2655  0.1823
 2392SOL     ow 9565   5.706   6.398   4.737 -0.5910  0.2763  1.0267
 2392SOL     hw 9566   5.759   6.390   4.816  2.0562 -0.8585 -0.6938
 2392SOL     hw 9567   5.626   6.349   4.756 -1.3193  2.3648  3.8726
 2392SOL     vw 9568   5.702   6.390   4.750 -0.3378  0.4020  1.1752
 2393SOL     ow 9569   6.625   0.980   5.594  0.5344  0.0048  0.2384
 2393SOL     hw 9570   6.609   1.056   5.650  0.0561 -0.4412  0.7205
 2393SOL     hw 9571   6.634   1.016   5.506 -0.4559  0.5459  0.3494
 2393SOL     vw 9572   6.624   0.994   5.590  0.3405  0.0174  0.3169
 2394SOL     ow 9573   0.901   7.336   0.173 -0.1216 -0.4376  0.2965
 2394SOL     hw 9574   0.828   7.393   0.197 -0.9901 -1.7567  0.8646
 2394SOL     hw 9575   0.860   7.253   0.149  1.0724 -0.6657 -1.0975
 2394SOL     vw 9576   0.886   7.332   0.173 -0.0786 -0.6418  0.1875
 2395SOL     ow 9577   4.714   5.407   1.461  0.5503 -0.3891  1.1073
 2395SOL     hw 9578   4.783   5.349   1.429 -0.1843 -0.4733 -0.4234
 2395SOL     hw 9579   4.632   5.365   1.433 -0.0126  1.0720  0.4487
 2395SOL     vw 9580   4.712   5.394   1.453  0.3788 -0.2077  0.8184
 2396SOL     ow 9581   2.423   0.603   0.609 -0.0118 -0.2037  0.2626
 2396SOL     hw 9582   2.436   0.674   0.672  0.8781  0.7383 -0.9409
 2396SOL     hw 9583   2.508   0.560   0.603 -0.2791 -0.7430  0.2138
 2396SOL     vw 9584   2.436   0.607   0.617  0.0705 -0.1506  0.0974
 2397SOL     ow 9585   4.973   3.384   1.915  0.3389 -0.2914 -0.3348
 2397SOL     hw 9586   5.062   3.368   1.883  0.3669 -1.1524  0.1696
 2397SOL     hw 9587   4.920   3.387   1.835  0.1325 -4.0844 -0.5029
 2397SOL     vw 9588   4.978   3.382   1.900  0.3152 -0.9054 -0.2904
 2398SOL     ow 9589   3.920   1.693   2.386 -0.3077  0.4426 -0.1840
 2398SOL     hw 9590   3.916   1.715   2.479  2.7533 -0.0498  0.1744
 2398SOL     hw 9591   3.829   1.690   2.358 -1.3118  1.0409  2.6778
 2398SOL     vw 9592   3.908   1.696   2.395 -0.0364  0.4566  0.2408
 2399SOL     ow 9593   2.127   0.146   0.765  0.1513 -0.9671 -0.2024
 2399SOL     hw 9594   2.047   0.154   0.817 -0.3369 -1.7242 -0.8257
 2399SOL     hw 9595   2.161   0.236   0.760 -1.5658 -0.3237 -1.3384
 2399SOL     vw 9596   2.121   0.159   0.771 -0.1396 -0.9821 -0.4345
 2400SOL     ow 9597   0.057   3.734   2.058 -0.0816  0.3091 -0.1223
 2400SOL     hw 9598   0.111   3.813   2.058  2.1062 -1.0908 -0.1842
 2400SOL     hw 9599   0.013   3.734   1.973 -0.2334  1.5044 -0.0572
 2400SOL     vw 9600   0.058   3.744   2.047  0.1870  0.2820 -0.1218
 2401SOL     ow 9601   7.006   0.485   2.253  0.2859  0.3512 -0.9978
 2401SOL     hw 9602   7.046   0.558   2.301  0.7383 -1.0295  0.8583
 2401SOL     hw 9603   6.939   0.525   2.198  0.4753  2.1505  0.0145
 2401SOL     vw 9604   7.003   0.500   2.253  0.3703  0.4064 -0.6193
 2402SOL     ow 9605   5.961   1.758   2.427 -0.5442 -0.3197 -0.4912
 2402SOL     hw 9606   6.025   1.827   2.443  0.4984 -0.9224 -1.8714
 2402SOL     hw 9607   5.890   1.801   2.379  1.2182 -0.5822 -3.5911
 2402SOL     vw 9608   5.960   1.773   2.423 -0.1743 -0.4339 -1.0822
 2403SOL     ow 9609   2.682   7.400   3.080  0.3972  0.4037  0.1274
 2403SOL     hw 9610   2.769   7.426   3.111  0.1240  1.8417 -0.2435
 2403SOL     hw 9611   2.640   7.362   3.158  1.2744 -0.1480  0.3562
 2403SOL     vw 9612   2.688   7.398   3.095  0.4770  0.5205  0.1088
 2404SOL     ow 9613   7.512   3.733   1.836 -0.0294 -0.7253 -0.1934
 2404SOL     hw 9614   7.588   3.725   1.778 -1.2479  0.1965 -2.0043
 2404SOL     hw 9615   7.478   3.644   1.843  1.1922 -1.1511  0.6498
 2404SOL     vw 9616   7.518   3.720   1.829 -0.0291 -0.6598 -0.3211
 2405SOL     ow 9617   3.914   5.155   3.563 -0.1276 -0.0677  0.0317
 2405SOL     hw 9618   3.874   5.109   3.489  2.4056 -1.0175 -0.8776
 2405SOL     hw 9619   3.954   5.233   3.524 -1.1222  0.9292  0.9282
 2405SOL     vw 9620   3.914   5.159   3.548  0.0753 -0.0615  0.0302
 2406SOL     ow 9621   4.985   6.278   0.307 -0.2294 -0.3178 -0.0430
 2406SOL     hw 9622   4.930   6.275   0.229  1.0246 -0.1505 -0.9589
 2406SOL     hw 9623   5.073   6.292   0.274  0.6015 -2.0831  1.2842
 2406SOL     vw 9624   4.989   6.279   0.292  0.0455 -0.5283  0.0113
 2407SOL     ow 9625   4.132   3.220   7.039 -0.4851 -0.0769 -0.0953
 2407SOL     hw 9626   4.078   3.265   7.105  0.8268  1.4018  0.0349
 2407SOL     hw 9627   4.154   3.288   6.976 -1.8576 -1.5010 -2.2447
 2407SOL     vw 9628   4.128   3.235   7.040 -0.4930 -0.0697 -0.3617
 2408SOL     ow 9629   1.122   0.769   6.759  0.9885  0.0286  0.1487
 2408SOL     hw 9630   1.129   0.857   6.723  0.5827  0.2615  0.6289
 2408SOL     hw 9631   1.028   0.751   6.760  1.0931 -0.6180 -0.4336
 2408SOL     vw 9632   1.111   0.778   6.754  0.9487 -0.0260  0.1352
 2409SOL     ow 9633   4.280   2.949   7.537  0.0002  0.0028  0.0190
 2409SOL     hw 9634   4.351   2.887   7.519  0.2737  0.5646 -0.8873
 2409SOL     hw 9635   4.228   2.906   7.606  0.6290 -0.8726 -0.0312
 2409SOL     vw 9636   4.282   2.935   7.544  0.1190 -0.0386 -0.1075
 2410SOL     ow 9637   6.597   5.764   2.066  0.5030 -0.5843 -0.0331
 2410SOL     hw 9638   6.650   5.834   2.103  0.3574  0.1563 -1.1792
 2410SOL     hw 9639   6.580   5.792   1.976 -0.7103 -1.4441 -0.0894
 2410SOL     vw 9640   6.602   5.777   2.059  0.3238 -0.6001 -0.1916
 2411SOL     ow 9641   1.755   4.926   1.863 -0.3517  0.1824 -0.5255
 2411SOL     hw 9642   1.757   4.843   1.815 -1.1448  1.3324 -2.6658
 2411SOL     hw 9643   1.731   4.992   1.798  0.7785  2.2157  0.9747
 2411SOL     vw 9644   1.752   4.924   1.848 -0.3072  0.6022 -0.6099
 2412SOL     ow 9645   7.510   2.829   6.583 -0.4448  0.8809  0.5437
 2412SOL     hw 9646   7.592   2.836   6.632 -0.4659  0.9290  0.5719
 2412SOL     hw 9647   7.461   2.907   6.608 -0.1234  1.3158 -0.1733
 2412SOL     vw 9648   7.515   2.840   6.593 -0.4051  0.9446  0.4528
 2413SOL     ow 9649   1.778   0.214   7.371  0.4758  0.4407 -0.0639
 2413SOL     hw 9650   1.804   0.304   7.391 -1.0654  1.0739 -0.6989
 2413SOL     hw 9651   1.696   0.202   7.420 -0.3884  0.1014 -1.5339
 2413SOL     vw 9652   1.771   0.224   7.381  0.1584  0.4795 -0.3414
 2414SOL     ow 9653   6.549   5.247   7.191 -0.1955  0.1334  0.1313
 2414SOL     hw 9654   6.472   5.192   7.178 -0.1256  0.0941 -0.1149
 2414SOL     hw 9655   6.574   5.276   7.103  2.1598 -2.6747 -0.3039
 2414SOL     vw 9656   6.542   5.243   7.178  0.1247 -0.2422  0.0410
 2415SOL     ow 9657   6.407   2.722   5.009  0.1298  0.1627  0.1128
 2415SOL     hw 9658   6.402   2.626   5.014 -0.0773  0.1189 -0.7944
 2415SOL     hw 9659   6.438   2.739   4.920 -1.0715  0.9765 -0.1631
 2415SOL     vw 9660   6.410   2.711   4.998 -0.0560  0.2642 -0.0432
 2416SOL     ow 9661   6.224   1.647   5.749  0.1865  0.0006  0.8556
 2416SOL     hw 9662   6.235   1.556   5.722 -1.7257 -0.9101  2.9086
 2416SOL     hw 9663   6.294   1.662   5.813  1.2384  0.4005 -0.3469
 2416SOL     vw 9664   6.235   1.637   5.754  0.0730 -0.0668  0.9680
 2417SOL     ow 9665   6.657   7.576   6.530  0.0026  0.0323 -0.2542
 2417SOL     hw 9666   6.595   7.504   6.521  0.8128 -0.4495 -2.9164
 2417SOL     hw 9667   6.627   7.641   6.465  0.9751  0.7792  0.0296
 2417SOL     vw 9668   6.644   7.575   6.520  0.2379  0.0672 -0.5679
 2418SOL     ow 9669   5.178   2.663   0.973  0.1863  0.1493 -0.5527
 2418SOL     hw 9670   5.184   2.648   0.878  0.0910  1.5048 -0.7931
 2418SOL     hw 9671   5.086   2.644   0.994 -0.3777  1.9817 -1.1672
 2418SOL     vw 9672   5.167   2.659   0.963  0.0997  0.5698 -0.6655
 2419SOL     ow 9673   0.358   4.689   6.450  0.2869 -0.2413  0.2268
 2419SOL     hw 9674   0.308   4.645   6.381 -0.2874  0.7966 -0.0382
 2419SOL     hw 9675   0.305   4.678   6.529 -0.3670  0.8138 -0.0435
 2419SOL     vw 9676   0.344   4.682   6.452  0.1249  0.0350  0.1562
 2420SOL     ow 9677   2.952   6.166   0.934  0.6903 -0.4645  0.4727
 2420SOL     hw 9678   2.894   6.219   0.989 -0.2110  0.4283 -1.2471
 2420SOL     hw 9679   2.928   6.076   0.954 -0.2193 -0.1355  0.9263
 2420SOL     vw 9680   2.941   6.161   0.944  0.4514 -0.3033  0.3057
 2421SOL     ow 9681   2.709   4.719   6.334 -0.3263  0.4932  0.2855
 2421SOL     hw 9682   2.740   4.784   6.397 -1.4806  1.2311  0.1274
 2421SOL     hw 9683   2.680   4.646   6.388  0.1227  0.4835  0.5200
 2421SOL     vw 9684   2.709   4.718   6.349 -0.4194  0.5889  0.2956
 2422SOL     ow 9685   2.222   3.162   1.332 -0.2854  0.4505  0.0801
 2422SOL     hw 9686   2.198   3.157   1.424 -0.7512  0.3448 -0.0467
 2422SOL     hw 9687   2.140   3.176   1.285 -0.0739  0.3591 -0.3318
 2422SOL     vw 9688   2.208   3.163   1.338 -0.3189  0.4244  0.0091
 2423SOL     ow 9689   3.897   4.204   7.488 -0.5606 -0.9300 -0.1236
 2423SOL     hw 9690   3.936   4.222   7.402  0.0047 -0.5454  0.2022
 2423SOL     hw 9691   3.812   4.248   7.486 -0.4466 -0.7198 -0.4017
 2423SOL     vw 9692   3.891   4.212   7.476 -0.4710 -0.8514 -0.1171
 2424SOL     ow 9693   1.986   0.050   0.518  0.0824  0.3357 -0.1549
 2424SOL     hw 9694   1.989   0.074   0.425 -2.4587  2.0352  0.0919
 2424SOL     hw 9695   1.893   0.048   0.539  0.6012  0.5900  2.5050
 2424SOL     vw 9696   1.975   0.053   0.509 -0.1844  0.5935  0.2286
 2425SOL     ow 9697   1.199   4.905   0.585  0.1887  0.1744  0.4988
 2425SOL     hw 9698   1.131   4.845   0.617  0.8765 -0.5366  0.6682
 2425SOL     hw 9699   1.151   4.973   0.538 -0.5554 -1.3569 -1.0889
 2425SOL     vw 9700   1.184   4.906   0.583  0.1812 -0.1216  0.3117
 2426SOL     ow 9701   0.758   0.918   3.946  0.4073 -0.0828 -0.1606
 2426SOL     hw 9702   0.809   0.920   4.027 -0.2418 -2.6543  0.3957
 2426SOL     hw 9703   0.783   0.835   3.904 -2.7614 -1.1318 -0.1955
 2426SOL     vw 9704   0.768   0.907   3.951 -0.0964 -0.5604 -0.0918
 2427SOL     ow 9705   3.005   2.530   0.923 -0.0984  0.2282 -0.9373
 2427SOL     hw 9706   3.028   2.444   0.958  1.7044  1.1652  0.3396
 2427SOL     hw 9707   3.086   2.581   0.929 -1.5737  2.5849  0.0995
 2427SOL     vw 9708   3.019   2.526   0.928 -0.0553  0.6628 -0.6320
 2428SOL     ow 9709   2.405   6.423   0.150 -0.1034 -0.0427 -0.6779
 2428SOL     hw 9710   2.327   6.384   0.110  0.2733 -1.8269  0.1849
 2428SOL     hw 9711   2.467   6.350   0.156  0.0864  0.2328  2.5225
 2428SOL     vw 9712   2.403   6.408   0.145 -0.0286 -0.2418 -0.1418
 2429SOL     ow 9713   3.039   0.443   3.042  0.7923  0.2034  0.2770
 2429SOL     hw 9714   3.051   0.376   2.975 -0.5677 -0.8034  0.9748
 2429SOL     hw 9715   2.946   0.468   3.035  0.8198  0.6432  1.2561
 2429SOL     vw 9716   3.028   0.438   3.033  0.6164  0.1286  0.4983
 2430SOL     ow 9717   7.217   6.112   2.160  0.6295 -0.0699 -0.3705
 2430SOL     hw 9718   7.175   6.033   2.127  1.4494 -0.4919 -0.4524
 2430SOL     hw 9719   7.295   6.122   2.105 -1.5683  3.2658 -3.3620
 2430SOL     vw 9720   7.222   6.103   2.149  0.4478  0.3145 -0.7761
 2431SOL     ow 9721   4.709   7.043   6.772  0.9023 -1.0365  0.4829
 2431SOL     hw 9722   4.632   7.079   6.816  0.1393 -1.9457 -0.0855
 2431SOL     hw 9723   4.760   7.002   6.842 -0.1418 -2.1943  0.5930
 2431SOL     vw 9724   4.706   7.043   6.787  0.6640 -1.3094  0.4227
 2432SOL     ow 9725   4.599   4.618   6.704 -0.1295 -0.3797  0.0378
 2432SOL     hw 9726   4.582   4.656   6.790  0.2246  0.6820 -0.3454
 2432SOL     hw 9727   4.611   4.694   6.646  2.4441 -0.9971 -0.3829
 2432SOL     vw 9728   4.598   4.633   6.708  0.2568 -0.3209 -0.0682
 2433SOL     ow 9729   5.391   2.761   3.268 -0.4199 -0.4005 -0.2848
 2433SOL     hw 9730   5.405   2.666   3.272  2.7697 -0.1652 -1.8872
 2433SOL     hw 9731   5.441   2.796   3.342  0.8676  0.1110 -1.3472
 2433SOL     vw 9732   5.400   2.753   3.278  0.1707 -0.3021 -0.6363
 2434SOL     ow 9733   1.513   4.820   6.495 -0.6255  0.2695 -0.6128
 2434SOL     hw 9734   1.440   4.878   6.517 -0.1358  0.4251  0.6533
 2434SOL     hw 9735   1.477   4.762   6.428 -1.4724  1.2636 -1.0532
 2434SOL     vw 9736   1.499   4.820   6.489 -0.6726  0.4213 -0.5040
 2435SOL     ow 9737   0.661   7.579   0.053  0.8360 -0.4462 -0.2131
 2435SOL     hw 9738   0.658   7.674   0.059  3.4742 -0.3870  1.6165
 2435SOL     hw 9739   0.569   7.552   0.048  0.0418  2.1732 -1.3890
 2435SOL     vw 9740   0.648   7.588   0.053  1.0794 -0.0927 -0.1268
 2436SOL     ow 9741   6.356   1.992   1.498  0.9570 -0.4085  0.0526
 2436SOL     hw 9742   6.374   1.943   1.578  0.4422  0.6435  0.8453
 2436SOL     hw 9743   6.331   2.079   1.529  0.3458 -0.1010 -1.2457
 2436SOL     vw 9744   6.355   1.997   1.513  0.8085 -0.2291 -0.0141
 2437SOL     ow 9745   1.053   2.343   2.269  0.5077  0.4169  0.0228
 2437SOL     hw 9746   1.031   2.320   2.359  2.2467 -0.2299  0.3088
 2437SOL     hw 9747   1.028   2.435   2.261 -1.4142 -0.0187  0.5540
 2437SOL     vw 9748   1.047   2.352   2.280  0.4835  0.2741  0.1307
 2438SOL     ow 9749   5.840   0.634   7.362 -0.2555  0.0326  0.1507
 2438SOL     hw 9750   5.776   0.632   7.290 -1.0202  0.4037  0.8070
 2438SOL     hw 9751   5.820   0.715   7.409  0.1390 -0.2849  0.8787
 2438SOL     vw 9752   5.829   0.645   7.358 -0.3042  0.0397  0.3335
 2439SOL     ow 9753   2.887   3.148   3.551 -0.5829 -0.3488 -0.2372
 2439SOL     hw 9754   2.800   3.152   3.510 -0.6098 -0.8955 -0.2404
 2439SOL     hw 9755   2.874   3.096   3.630 -0.7129  1.4193  0.9548
 2439SOL     vw 9756   2.874   3.142   3.556 -0.6036 -0.1878 -0.0803
 2440SOL     ow 9757   4.307   5.856   2.573  0.0432  0.4101  0.3210
 2440SOL     hw 9758   4.396   5.889   2.587  0.4408 -0.7501  0.6874
 2440SOL     hw 9759   4.289   5.873   2.481  1.7731 -1.8570 -0.5297
 2440SOL     vw 9760   4.316   5.863   2.563  0.3242 -0.0422  0.2570
 2441SOL     ow 9761   2.165   0.570   0.574 -0.8316  0.4182 -0.0886
 2441SOL     hw 9762   2.259   0.569   0.592 -0.8370  2.1821  0.2771
 2441SOL     hw 9763   2.140   0.478   0.567  0.9313 -0.0816 -0.2770
 2441SOL     vw 9764   2.174   0.558   0.575 -0.5997  0.5850 -0.0652
 2442SOL     ow 9765   0.645   1.591   3.841  0.1585  0.0638 -0.3197
 2442SOL     hw 9766   0.569   1.571   3.786  1.8168 -0.5630 -2.5323
 2442SOL     hw 9767   0.704   1.516   3.828  2.1688  1.6318 -0.6344
 2442SOL     vw 9768   0.643   1.578   3.832  0.6425  0.1879 -0.6533
 2443SOL     ow 9769   0.149   3.831   6.134  0.0695 -0.0900  0.3557
 2443SOL     hw 9770   0.194   3.798   6.056  3.0577  1.6367  1.1971
 2443SOL     hw 9771   0.088   3.896   6.101 -2.0474 -2.4986 -0.8300
 2443SOL     vw 9772   0.147   3.835   6.119  0.1845 -0.1800  0.3104
 2444SOL     ow 9773   4.902   2.747   6.470 -0.0084 -0.4383 -0.4465
 2444SOL     hw 9774   4.914   2.825   6.523 -0.2464 -1.1819  0.7273
 2444SOL     hw 9775   4.811   2.751   6.441 -0.2313 -0.6623  0.2292
 2444SOL     vw 9776   4.892   2.758   6.473 -0.0691 -0.5659 -0.2027
 2445SOL     ow 9777   2.026   5.962   2.137  0.2262  0.3122 -0.0800
 2445SOL     hw 9778   1.934   5.988   2.137 -0.0606 -0.6716 -0.3382
 2445SOL     hw 9779   2.065   6.012   2.208 -0.8626 -0.4203  1.0795
 2445SOL     vw 9780   2.019   5.972   2.146  0.0447  0.0856  0.0389
 2446SOL     ow 9781   5.616   6.278   2.276 -0.0579  0.5161  0.6753
 2446SOL     hw 9782   5.623   6.246   2.366  0.0998 -0.2702  0.3918
 2446SOL     hw 9783   5.652   6.208   2.223 -0.3365  0.8920 -0.0246
 2446SOL     vw 9784   5.622   6.265   2.281 -0.0739  0.4621  0.5454
 2447SOL     ow 9785   2.160   2.545   4.916 -0.0018 -0.6262  0.0946
 2447SOL     hw 9786   2.210   2.581   4.990 -0.0690 -1.9623  0.8248
 2447SOL     hw 9787   2.156   2.451   4.934 -0.7473 -0.8577 -1.1911
 2447SOL     vw 9788   2.166   2.537   4.928 -0.1090 -0.8330  0.0212
 2448SOL     ow 9789   3.537   0.117   7.051  0.1266  0.2052 -0.0055
 2448SOL     hw 9790   3.466   0.053   7.051  1.3221 -1.2251  1.1461
 2448SOL     hw 9791   3.584   0.101   6.969  0.6055 -0.6670  0.4178
 2448SOL     vw 9792   3.534   0.106   7.040  0.3475 -0.0986  0.2024
 2449SOL     ow 9793   2.449   2.638   2.129 -0.5245  0.1441 -0.6626
 2449SOL     hw 9794   2.376   2.661   2.070 -0.3582  1.2397 -0.4718
 2449SOL     hw 9795   2.429   2.685   2.210  0.2264  0.1838 -0.4977
 2449SOL     vw 9796   2.437   2.648   2.132 -0.4035  0.2940 -0.6158
 2450SOL     ow 9797   3.602   0.982   6.199  0.3745 -0.1744  0.4777
 2450SOL     hw 9798   3.647   0.962   6.116 -1.4653  1.4149 -0.9865
 2450SOL     hw 9799   3.619   1.074   6.214 -1.6352  0.2804  0.2923
 2450SOL     vw 9800   3.610   0.991   6.190 -0.1334  0.0953  0.2601
 2451SOL     ow 9801   1.462   0.373   3.161 -0.2525 -0.4391  0.5567
 2451SOL     hw 9802   1.437   0.355   3.070  0.0845 -1.0891  0.5860
 2451SOL     hw 9803   1.379   0.383   3.207 -0.4711 -1.9232  0.5277
 2451SOL     vw 9804   1.448   0.372   3.155 -0.2368 -0.7207  0.5568
 2452SOL     ow 9805   0.260   1.438   2.080  0.0790 -0.0793 -0.0941
 2452SOL     hw 9806   0.166   1.433   2.096  0.1889 -2.2275  0.0574
 2452SOL     hw 9807   0.268   1.465   1.988 -0.6361  0.9627  0.1276
 2452SOL     vw 9808   0.249   1.441   2.070 -0.0009 -0.2252 -0.0448
 2453SOL     ow 9809   3.106   3.280   3.433 -0.2506 -0.0766  0.3651
 2453SOL     hw 9810   3.128   3.282   3.340 -0.9063  2.9205  0.1722
 2453SOL     hw 9811   3.156   3.353   3.471 -0.0842 -1.1527  2.3760
 2453SOL     vw 9812   3.116   3.290   3.426 -0.3152  0.1769  0.6050
 2454SOL     ow 9813   2.907   2.703   6.903  0.1075 -0.2702 -0.2075
 2454SOL     hw 9814   2.877   2.704   6.812  2.5920  1.5343 -1.1204
 2454SOL     hw 9815   2.982   2.644   6.902 -0.4752 -1.0701  0.9608
 2454SOL     vw 9816   2.913   2.695   6.891  0.3585 -0.1376 -0.1736
 2455SOL     ow 9817   1.047   2.857   4.788  0.7977  0.4279  0.5396
 2455SOL     hw 9818   1.086   2.823   4.708  0.4642  0.6991  0.2548
 2455SOL     hw 9819   1.045   2.782   4.848 -0.3767 -0.2024 -0.2401
 2455SOL     vw 9820   1.052   2.843   4.786  0.5988  0.3806  0.3991
 2456SOL     ow 9821   7.449   0.667   5.244 -0.1085  0.0078 -0.0064
 2456SOL     hw 9822   7.473   0.618   5.165 -1.3617 -0.0948 -0.3449
 2456SOL     hw 9823   7.370   0.624   5.275 -2.0326  2.5495 -1.0392
 2456SOL     vw 9824   7.442   0.655   5.238 -0.5276  0.3296 -0.1872
 2457SOL     ow 9825   2.404   2.237   1.844 -0.4518  0.2266 -0.2903
 2457SOL     hw 9826   2.472   2.177   1.812 -0.2817  0.8808 -1.1822
 2457SOL     hw 9827   2.337   2.179   1.881 -0.0764 -0.4906 -0.7082
 2457SOL     vw 9828   2.404   2.221   1.845 -0.3799  0.2182 -0.4631
 2458SOL     ow 9829   1.589   5.211   1.459  0.4066  0.5077 -0.0610
 2458SOL     hw 9830   1.555   5.276   1.398 -0.2188 -1.0523 -1.4685
 2458SOL     hw 9831   1.673   5.185   1.421  0.7194  0.5931  0.5675
 2458SOL     vw 9832   1.596   5.216   1.446  0.3653  0.3128 -0.1637
 2459SOL     ow 9833   6.600   7.289   1.858  0.4447  0.4031 -0.6244
 2459SOL     hw 9834   6.577   7.369   1.813  0.6782  0.2266 -1.0604
 2459SOL     hw 9835   6.686   7.307   1.897 -0.4541  1.1088  1.1168
 2459SOL     vw 9836   6.608   7.302   1.858  0.3569  0.4728 -0.4523
 2460SOL     ow 9837   2.424   6.169   2.932  0.1621 -0.1982  0.3095
 2460SOL     hw 9838   2.494   6.225   2.899 -0.1575 -0.2947 -0.5616
 2460SOL     hw 9839   2.414   6.101   2.865 -1.1627  0.1563  0.1243
 2460SOL     vw 9840   2.432   6.167   2.918 -0.0547 -0.1643  0.1700
 2461SOL     ow 9841   4.905   5.961   4.065 -0.1160 -0.4611  0.1832
 2461SOL     hw 9842   4.843   5.959   4.138  0.6858  0.0628  0.8953
 2461SOL     hw 9843   4.860   6.008   3.995 -0.5472 -0.1506  0.6711
 2461SOL     vw 9844   4.891   5.967   4.065 -0.0672 -0.3510  0.3417
 2462SOL     ow 9845   5.180   5.366   1.066  0.1406  0.3328 -0.3209
 2462SOL     hw 9846   5.256   5.332   1.115 -1.0188  0.5020  1.7234
 2462SOL     hw 9847   5.136   5.288   1.033  0.4633  0.1575 -0.3381
 2462SOL     vw 9848   5.184   5.351   1.068  0.0303  0.3321 -0.0535
 2463SOL     ow 9849   5.647   4.534   4.970  0.2815 -0.1091  0.3329
 2463SOL     hw 9850   5.717   4.471   4.979  1.3207  0.7305 -1.3009
 2463SOL     hw 9851   5.675   4.609   5.022 -0.2167 -0.3944  1.0255
 2463SOL     vw 9852   5.660   4.536   4.978  0.3529 -0.0360  0.2089
 2464SOL     ow 9853   4.450   0.668   4.370  0.4369  0.0066  0.1913
 2464SOL     hw 9854   4.540   0.684   4.398  0.5916 -0.2774 -0.1373
 2464SOL     hw 9855   4.459   0.610   4.294 -0.1049 -2.1344  1.6670
 2464SOL     vw 9856   4.463   0.662   4.363  0.3858 -0.3134  0.3428
 2465SOL     ow 9857   1.627   2.847   5.434  0.2156 -0.4740 -0.2617
 2465SOL     hw 9858   1.662   2.923   5.480  1.8694 -0.2404 -1.8211
 2465SOL     hw 9859   1.629   2.777   5.499 -0.6214  0.6040  0.9680
 2465SOL     vw 9860   1.632   2.848   5.449  0.3234 -0.3010 -0.3052
 2466SOL     ow 9861   5.578   7.314   1.758 -0.5999  0.2946  0.3922
 2466SOL     hw 9862   5.669   7.294   1.783 -0.8970  0.2005  1.4360
 2466SOL     hw 9863   5.570   7.408   1.775  0.0581  0.9114 -2.1854
 2466SOL     vw 9864   5.589   7.324   1.764 -0.5522  0.3636  0.1898
 2467SOL     ow 9865   3.522   6.002   2.148  0.0490  0.4931  0.0014
 2467SOL     hw 9866   3.464   5.949   2.203 -0.3990  0.2497 -0.6999
 2467SOL     hw 9867   3.497   6.092   2.166 -1.0720  0.3753 -0.8406
 2467SOL     vw 9868   3.511   6.007   2.158 -0.1581  0.4454 -0.2022
 2468SOL     ow 9869   7.300   6.135   1.072 -0.3093 -0.2556  0.0945
 2468SOL     hw 9870   7.242   6.203   1.038 -1.3634 -0.7707  0.7947
 2468SOL     hw 9871   7.305   6.152   1.166  1.9904  0.7174 -0.1486
 2468SOL     vw 9872   7.293   6.146   1.080 -0.1445 -0.1953  0.1549
 2469SOL     ow 9873   7.041   3.289   2.159 -0.4298 -0.6814 -0.2381
 2469SOL     hw 9874   7.003   3.206   2.132 -0.8731 -0.5957  0.1262
 2469SOL     hw 9875   7.136   3.275   2.154 -0.4856 -1.5365  0.8175
 2469SOL     vw 9876   7.049   3.276   2.154 -0.4957 -0.7830 -0.0508
 2470SOL     ow 9877   0.145   1.341   0.176 -0.2212 -0.3975 -0.0497
 2470SOL     hw 9878   0.051   1.346   0.193 -0.0253  1.7011  0.6027
 2470SOL     hw 9879   0.153   1.356   0.082 -0.4136  2.3223  0.2958
 2470SOL     vw 9880   0.134   1.343   0.166 -0.2208  0.2381  0.0819
 2471SOL     ow 9881   2.149   6.315   3.048  0.1674 -0.0084 -0.8025
 2471SOL     hw 9882   2.126   6.358   2.966  1.3412 -0.1528 -1.2246
 2471SOL     hw 9883   2.068   6.271   3.075  0.2853 -1.6715 -2.9322
 2471SOL     vw 9884   2.135   6.315   3.041  0.3380 -0.2468 -1.1394
 2472SOL     ow 9885   2.329   5.956   3.672 -0.1595 -0.2997  0.2611
 2472SOL     hw 9886   2.421   5.932   3.661  0.1726  1.3809 -1.1995
 2472SOL     hw 9887   2.283   5.873   3.673  1.2715 -1.1518 -0.2698
 2472SOL     vw 9888   2.335   5.942   3.670  0.0732 -0.1903 -0.0015
 2473SOL     ow 9889   2.439   6.559   6.176 -0.1189  0.1854 -0.2600
 2473SOL     hw 9890   2.385   6.529   6.249  2.1004 -1.2519  0.8913
 2473SOL     hw 9891   2.458   6.650   6.196  2.0231 -0.6819  2.0769
 2473SOL     vw 9892   2.434   6.567   6.188  0.4565 -0.1185  0.2003
 2474SOL     ow 9893   7.042   0.864   5.478 -0.3920  1.0898  0.4558
 2474SOL     hw 9894   7.128   0.895   5.449 -0.8476  1.3113 -0.6779
 2474SOL     hw 9895   6.990   0.857   5.398 -0.5318 -1.9794  0.6839
 2474SOL     vw 9896   7.047   0.867   5.464 -0.4706  0.7141  0.3364
 2475SOL     ow 9897   0.536   3.190   6.461  0.0128 -0.4987  0.2803
 2475SOL     hw 9898   0.458   3.217   6.413 -1.6129 -0.6212  2.6336
 2475SOL     hw 9899   0.609   3.206   6.401 -1.6024  1.5683 -1.2822
 2475SOL     vw 9900   0.535   3.195   6.447 -0.4148 -0.2421  0.3848
 2476SOL     ow 9901   2.617   1.412   0.911 -0.2001  0.1369 -0.3401
 2476SOL     hw 9902   2.589   1.334   0.959 -0.9152  0.4646 -0.2179
 2476SOL     hw 9903   2.709   1.422   0.934  1.2036 -3.0971 -3.5836
 2476SOL     vw 9904   2.625   1.403   0.920 -0.1093 -0.2465 -0.7519
 2477SOL     ow 9905   1.078   6.535   1.742  0.7150  0.1766  0.4999
 2477SOL     hw 9906   1.138   6.480   1.692  0.2898  0.5476 -0.4650
 2477SOL     hw 9907   1.116   6.542   1.829  2.7289  1.4058 -0.4099
 2477SOL     vw 9908   1.091   6.529   1.747  0.9246  0.3874  0.2525
 2478SOL     ow 9909   5.782   2.530   3.222  0.1170  0.6697  0.5176
 2478SOL     hw 9910   5.873   2.503   3.212 -0.6142 -1.5760 -0.5958
 2478SOL     hw 9911   5.776   2.612   3.172  1.2287  0.1802 -0.4593
 2478SOL     vw 9912   5.793   2.538   3.214  0.1671  0.3088  0.2419
 2479SOL     ow 9913   0.400   7.497   7.276  0.2398 -0.3439 -0.0544
 2479SOL     hw 9914   0.429   7.407   7.259 -1.4298 -0.6558 -1.6002
 2479SOL     hw 9915   0.430   7.546   7.200  0.3484  0.2351  0.3548
 2479SOL     vw 9916   0.408   7.492   7.264  0.0339 -0.3088 -0.2043
 2480SOL     ow 9917   4.039   4.713   1.213 -0.1655 -0.5461  0.1927
 2480SOL     hw 9918   3.991   4.780   1.162 -0.3481  0.4896  1.6594
 2480SOL     hw 9919   4.123   4.706   1.169  1.0908  2.9530  1.6604
 2480SOL     vw 9920   4.044   4.721   1.200 -0.0238  0.0522  0.5799
 2481SOL     ow 9921   6.503   0.747   1.269 -0.4194 -0.1247 -0.0100
 2481SOL     hw 9922   6.583   0.790   1.300  0.6202 -2.4369  0.7201
 2481SOL     hw 9923   6.436   0.815   1.274  0.9367  1.1758  1.8733
 2481SOL     vw 9924   6.505   0.762   1.274 -0.1035 -0.2582  0.3347
 2482SOL     ow 9925   1.233   6.536   7.432  0.0675  0.4392  0.2414
 2482SOL     hw 9926   1.142   6.550   7.460  0.0568 -0.1297  0.4952
 2482SOL     hw 9927   1.283   6.534   7.513  0.2459  0.2971  0.1272
 2482SOL     vw 9928   1.227   6.538   7.446  0.0896  0.3455  0.2599
 2483SOL     ow 9929   1.079   7.057   4.432  0.1303  0.4877  0.0506
 2483SOL     hw 9930   0.995   7.023   4.400 -0.6123 -0.0287  2.3544
 2483SOL     hw 9931   1.129   6.979   4.456  0.4314  0.8531  0.6256
 2483SOL     vw 9932   1.074   7.042   4.431  0.0720  0.4678  0.4303
 2484SOL     ow 9933   4.861   5.492   1.140 -0.1057  0.4285 -0.2176
 2484SOL     hw 9934   4.804   5.516   1.067 -3.3249 -2.7122  0.9762
 2484SOL     hw 9935   4.868   5.397   1.135  2.7580  0.4506  1.4330
 2484SOL     vw 9936   4.854   5.483   1.130 -0.1528  0.0167  0.1576
 2485SOL     ow 9937   1.612   0.092   5.168  0.2239 -0.2273  0.1820
 2485SOL     hw 9938   1.663   0.127   5.096  0.7599 -0.3156  0.5170
 2485SOL     hw 9939   1.674   0.040   5.219 -0.3541 -0.9087  0.2038
 2485SOL     vw 9940   1.627   0.090   5.165  0.2183 -0.3289  0.2289
 2486SOL     ow 9941   1.358   7.188   0.214 -0.8081  0.3142  0.0582
 2486SOL     hw 9942   1.411   7.141   0.149  0.8236  0.3642  1.2766
 2486SOL     hw 9943   1.360   7.132   0.291 -2.0567  0.6260  0.3372
 2486SOL     vw 9944   1.365   7.174   0.215 -0.7576  0.3622  0.2558
 2487SOL     ow 9945   6.755   2.255   2.006  0.3759 -0.3839 -0.1647
 2487SOL     hw 9946   6.750   2.349   2.022  1.5091 -0.3935  0.3979
 2487SOL     hw 9947   6.813   2.246   1.930 -0.1060 -0.6099 -0.5100
 2487SOL     vw 9948   6.762   2.266   1.998  0.4616 -0.4148 -0.1361
 2488SOL     ow 9949   5.362   5.559   3.576 -0.4389 -0.0333 -1.0427
 2488SOL     hw 9950   5.424   5.521   3.638  0.9629  1.6972 -1.3071
 2488SOL     hw 9951   5.321   5.484   3.534  0.5059 -1.2304  0.0951
 2488SOL     vw 9952   5.365   5.545   3.579 -0.1292  0.0372 -0.9276
 2489SOL     ow 9953   1.902   4.255   0.910 -0.0741  0.2901 -0.2262
 2489SOL     hw 9954   1.894   4.223   0.820  2.7642 -0.3637 -0.3578
 2489SOL     hw 9955   1.862   4.341   0.909  0.9148  0.7967 -2.4532
 2489SOL     vw 9956   1.896   4.262   0.898  0.4309  0.2708 -0.5373
 2490SOL     ow 9957   0.435   4.939   4.487 -0.5847 -0.3864 -0.4194
 2490SOL     hw 9958   0.490   4.890   4.425  0.4022 -0.9968  0.8970
 2490SOL     hw 9959   0.491   5.009   4.520 -0.3661 -1.3190  1.3181
 2490SOL     vw 9960   0.450   4.941   4.483 -0.4256 -0.5901 -0.0167
 2491SOL     ow 9961   5.553   3.583   2.799 -0.2385 -0.0539 -0.1864
 2491SOL     hw 9962   5.606   3.644   2.850  1.9662 -0.5572 -1.7802
 2491SOL     hw 9963   5.604   3.565   2.721 -2.1176 -1.7423 -1.1213
 2491SOL     vw 9964   5.566   3.588   2.796 -0.1957 -0.3431 -0.5201
 2492SOL     ow 9965   6.734   2.649   7.549 -0.0704 -0.6754 -0.6029
 2492SOL     hw 9966   6.666   2.642   7.481 -2.0050 -1.4299  1.2814
 2492SOL     hw 9967   6.815   2.663   7.501 -1.6722  1.2928 -2.9652
 2492SOL     vw 9968   6.735   2.650   7.534 -0.5369 -0.5151 -0.6659
 2493SOL     ow 9969   2.506   0.521   2.977 -0.3855  0.4661  0.3111
 2493SOL     hw 9970   2.600   0.528   2.995  0.0639 -2.1377 -0.6074
 2493SOL     hw 9971   2.466   0.507   3.063 -0.1647  2.7311  0.8645
 2493SOL     vw 9972   2.514   0.520   2.991 -0.2970  0.4214  0.2630
 2494SOL     ow 9973   1.647   2.355   3.981 -0.1207  0.9988 -0.3883
 2494SOL     hw 9974   1.592   2.289   4.024  0.1148  1.1702  0.1835
 2494SOL     hw 9975   1.597   2.436   3.988  0.3352  1.2154  0.3997
 2494SOL     vw 9976   1.633   2.357   3.988 -0.0295  1.0500 -0.2089
 2495SOL     ow 9977   6.792   7.066   5.390  0.0689 -0.0622 -0.5296
 2495SOL     hw 9978   6.845   7.030   5.462  0.8177  2.4640  0.3078
 2495SOL     hw 9979   6.721   7.113   5.434  0.3333  1.2346 -1.4261
 2495SOL     vw 9980   6.790   7.067   5.406  0.2027  0.4423 -0.5374
 2496SOL     ow 9981   2.233   6.768   1.028  0.3510  0.3333 -0.5342
 2496SOL     hw 9982   2.158   6.816   1.063 -0.8985 -2.4197  0.9857
 2496SOL     hw 9983   2.197   6.719   0.954  1.5973  1.7304 -2.1040
 2496SOL     vw 9984   2.218   6.768   1.023  0.3507  0.1543 -0.5409
 2497SOL     ow 9985   4.498   4.802   1.138 -0.3019 -0.4539 -0.3067
 2497SOL     hw 9986   4.477   4.858   1.213 -2.7722 -0.2355 -1.0850
 2497SOL     hw 9987   4.552   4.858   1.082 -1.5798  0.7211 -0.4250
 2497SOL     vw 9988   4.502   4.817   1.141 -0.7966 -0.2697 -0.4250
 2498SOL     ow 9989   2.717   6.482   6.143 -0.4035 -0.3183  0.1800
 2498SOL     hw 9990   2.624   6.506   6.149 -0.0117  1.3328  0.0549
 2498SOL     hw 9991   2.716   6.389   6.119 -2.0714  0.3618 -2.9119
 2498SOL     vw 9992   2.704   6.473   6.141 -0.5717 -0.0110 -0.2444
 2499SOL     ow 9993   7.433   4.267   5.150 -0.2186 -0.3319  0.0551
 2499SOL     hw 9994   7.412   4.187   5.101  0.5468  1.5698 -3.7856
 2499SOL     hw 9995   7.525   4.257   5.173 -0.5578 -1.2065  1.1520
 2499SOL     vw 9996   7.442   4.255   5.146 -0.1624 -0.1965 -0.3071
 2500SOL     ow 9997   1.096   2.437   1.549 -0.1275  0.3875 -0.0618
 2500SOL     hw 9998   1.152   2.371   1.508 -0.3440 -0.6847  1.3026
 2500SOL     hw 9999   1.007   2.412   1.524 -0.2626 -0.2830  1.0195
 2500SOL     vw10000   1.092   2.425   1.540 -0.1739  0.1576  0.2609
 2501SOL     ow10001   4.417   0.496   4.160  0.5519  0.6349 -0.1561
 2501SOL     hw10002   4.353   0.428   4.181  2.9287 -1.5569  0.5156
 2501SOL     hw10003   4.388   0.531   4.076 -1.5050 -0.2601  0.1319
 2501SOL     vw10004   4.405   0.492   4.151  0.5941  0.2276 -0.0296
 2502SOL     ow10005   4.968   5.909   0.184  0.1263  0.0170 -0.0034
 2502SOL     hw10006   5.047   5.856   0.196  2.4691  3.2526  0.2466
 2502SOL     hw10007   4.952   5.907   0.090  0.8207 -0.2780 -0.1214
 2502SOL     vw10008   4.977   5.902   0.174  0.5269  0.4046  0.0140
 2503SOL     ow10009   5.511   6.254   3.263  0.3981 -0.2432  0.1438
 2503SOL     hw10010   5.574   6.182   3.258  0.8105  0.0543  0.8554
 2503SOL     hw10011   5.518   6.285   3.353 -2.7099 -1.9645  1.1540
 2503SOL     vw10012   5.520   6.248   3.274  0.0424 -0.4313  0.3710
 2504SOL     ow10013   1.336   4.935   7.369  0.5734  0.5608 -0.1285
 2504SOL     hw10014   1.367   4.956   7.457  0.5770 -0.1047  0.0308
 2504SOL     hw10015   1.241   4.930   7.377  0.7085 -2.3051  0.4828
 2504SOL     vw10016   1.328   4.937   7.381  0.5917  0.0947 -0.0267
 2505SOL     ow10017   6.458   1.635   4.220  0.9821 -0.3808  0.0844
 2505SOL     hw10018   6.412   1.552   4.233  2.5969 -1.2502  0.4933
 2505SOL     hw10019   6.477   1.639   4.126  1.3136 -0.7120  0.1358
 2505SOL     vw10020   6.455   1.625   4.210  1.2388 -0.5393  0.1452
 2506SOL     ow10021   0.599   2.337   6.196 -0.4253 -0.1567  0.0931
 2506SOL     hw10022   0.578   2.287   6.117 -2.9733  1.3795 -0.3447
 2506SOL     hw10023   0.683   2.302   6.225 -1.0224 -3.1674 -1.3315
 2506SOL     vw10024   0.607   2.326   6.189 -0.8403 -0.3512 -0.1526
 2507SOL     ow10025   1.220   5.432   1.106  0.3006  1.0073  0.3218
 2507SOL     hw10026   1.212   5.523   1.133  3.3574  1.1751  0.9774
 2507SOL     hw10027   1.305   5.427   1.062 -0.4778 -1.2238 -1.1205
 2507SOL     vw10028   1.230   5.443   1.103  0.6012  0.7353  0.2180
 2508SOL     ow10029   3.428   7.037   0.101 -0.8526  0.0325 -0.0556
 2508SOL     hw10030   3.414   6.987   0.021 -1.5952  1.5688 -0.9280
 2508SOL     hw10031   3.517   7.016   0.127 -0.6826 -0.6707 -1.1472
 2508SOL     vw10032   3.438   7.028   0.094 -0.9282  0.1426 -0.3147
 2509SOL     ow10033   7.077   3.773   1.215 -0.6155 -0.2828 -0.3439
 2509SOL     hw10034   7.063   3.851   1.268 -0.8872  0.1592 -1.0471
 2509SOL     hw10035   7.085   3.702   1.278 -0.3937  0.3085  0.3015
 2509SOL     vw10036   7.076   3.774   1.230 -0.6220 -0.1466 -0.3516
 2510SOL     ow10037   0.610   1.523   2.825  0.3535  0.1093  0.2856
 2510SOL     hw10038   0.683   1.478   2.783  1.3402  1.8439  0.0522
 2510SOL     hw10039   0.560   1.561   2.752  0.5409  0.8556  0.5348
 2510SOL     vw10040   0.613   1.522   2.810  0.5085  0.4367  0.2878
 2511SOL     ow10041   1.110   6.598   7.161  0.6435  0.6411  0.2478
 2511SOL     hw10042   1.068   6.585   7.076 -0.1103 -0.2945  0.7473
 2511SOL     hw10043   1.062   6.671   7.200 -0.4092 -0.2663  0.7142
 2511SOL     vw10044   1.098   6.606   7.155  0.4051  0.3979  0.3750
 2512SOL     ow10045   7.047   5.025   4.914  0.3108 -0.2315 -0.1180
 2512SOL     hw10046   7.062   4.990   5.002  1.5662 -0.6425 -0.4809
 2512SOL     hw10047   7.103   4.973   4.857  0.1327  0.5660 -1.0560
 2512SOL     vw10048   7.056   5.014   4.918  0.4528 -0.1805 -0.2894
 2513SOL     ow10049   2.985   2.896   1.698  0.4714  0.1065 -0.4330
 2513SOL     hw10050   3.002   2.922   1.788  1.2002  2.1335 -1.1058
 2513SOL     hw10051   3.066   2.854   1.670  0.6274  0.4195 -0.4565
 2513SOL     vw10052   2.998   2.894   1.706  0.5882  0.4152 -0.5249
 2514SOL     ow10053   4.638   0.707   6.796 -0.0505 -0.0345 -0.0939
 2514SOL     hw10054   4.665   0.711   6.888  1.5659  1.7843 -0.5612
 2514SOL     hw10055   4.687   0.634   6.760 -0.1457 -0.3118  0.3306
 2514SOL     vw10056   4.648   0.698   6.804  0.1502  0.1689 -0.0997
 2515SOL     ow10057   1.398   0.978   6.940 -0.3443  0.0565 -0.5952
 2515SOL     hw10058   1.417   0.884   6.939  4.6301  0.7126  0.8681
 2515SOL     hw10059   1.365   0.998   6.853 -0.9513 -2.8924 -1.1418
 2515SOL     vw10060   1.396   0.968   6.929  0.2319 -0.2460 -0.4740
 2516SOL     ow10061   5.707   4.360   3.900  0.3306  0.2745  0.7668
 2516SOL     hw10062   5.651   4.288   3.870  0.3304  0.6642 -0.2122
 2516SOL     hw10063   5.713   4.347   3.994 -0.1124 -0.6944  0.6831
 2516SOL     vw10064   5.700   4.349   3.908  0.2720  0.1981  0.6266
 2517SOL     ow10065   6.031   3.183   0.208 -0.7204  0.4199 -0.3740
 2517SOL     hw10066   6.099   3.211   0.146 -1.1060 -1.0208 -1.5052
 2517SOL     hw10067   6.026   3.254   0.271  1.9950  0.4777 -0.1007
 2517SOL     vw10068   6.039   3.196   0.208 -0.4132  0.2373 -0.4872
 2518SOL     ow10069   1.213   1.701   7.161 -0.0665  0.4349 -0.2115
 2518SOL     hw10070   1.226   1.766   7.091  1.0902  0.2478 -0.1934
 2518SOL     hw10071   1.291   1.646   7.156 -1.3397 -1.4052 -0.6905
 2518SOL     vw10072   1.225   1.703   7.151 -0.0818  0.1674 -0.2723
 2519SOL     ow10073   0.668   0.199   6.503  0.6767 -0.0646  0.0682
 2519SOL     hw10074   0.709   0.233   6.583 -1.3398  4.4888 -0.5081
 2519SOL     hw10075   0.734   0.213   6.435  0.5135  1.1967  0.1434
 2519SOL     vw10076   0.682   0.205   6.505  0.3891  0.7026  0.0021
 2520SOL     ow10077   0.347   1.453   3.431  0.0069  0.3282 -0.3729
 2520SOL     hw10078   0.337   1.359   3.414  0.5387 -0.1245  1.6371
 2520SOL     hw10079   0.264   1.492   3.402 -1.4337 -1.1750  1.5308
 2520SOL     vw10080   0.335   1.446   3.425 -0.1130  0.0702  0.1435
 2521SOL     ow10081   5.639   3.307   4.020  0.1791 -0.5042 -0.5063
 2521SOL     hw10082   5.734   3.302   4.007  0.0547 -0.7037 -1.3771
 2521SOL     hw10083   5.621   3.401   4.026  0.5535 -0.4861  0.7383
 2521SOL     vw10084   5.649   3.319   4.019  0.2124 -0.5282 -0.4570
 2522SOL     ow10085   1.898   2.683   4.242  0.2343  0.1791  0.1638
 2522SOL     hw10086   1.928   2.770   4.265  1.0441  0.3698 -1.5093
 2522SOL     hw10087   1.951   2.624   4.296 -0.3443  0.6978  1.3280
 2522SOL     vw10088   1.909   2.686   4.252  0.2649  0.2728  0.0966
 2523SOL     ow10089   1.228   7.535   4.356  0.5508  0.2552 -0.4209
 2523SOL     hw10090   1.279   7.545   4.276 -0.7119  0.1902 -1.2583
 2523SOL     hw10091   1.160   7.603   4.350 -0.1905 -0.4210  0.0754
 2523SOL     vw10092   1.226   7.545   4.345  0.2863  0.1574 -0.4659
 2524SOL     ow10093   2.418   3.129   1.678  0.7106  0.9034 -0.3524
 2524SOL     hw10094   2.327   3.145   1.656  0.3096  1.3257  1.4890
 2524SOL     hw10095   2.421   3.131   1.773  2.5022  0.0833 -0.3485
 2524SOL     vw10096   2.407   3.131   1.687  0.8941  0.8508 -0.1089
 2525SOL     ow10097   1.722   6.182   3.369  0.3386  0.1985 -0.1743
 2525SOL     hw10098   1.747   6.182   3.462  0.1206 -2.2011 -0.0570
 2525SOL     hw10099   1.645   6.125   3.364  0.3315  0.2943 -1.8162
 2525SOL     vw10100   1.715   6.174   3.381  0.3088 -0.1054 -0.3755
 2526SOL     ow10101   0.361   7.366   2.319 -0.3513 -0.5000 -0.5500
 2526SOL     hw10102   0.287   7.338   2.265 -1.2631 -0.1942  0.5036
 2526SOL     hw10103   0.385   7.452   2.285 -1.7833  0.2888  0.3284
 2526SOL     vw10104   0.354   7.373   2.308 -0.6606 -0.3557 -0.2950
 2527SOL     ow10105   1.584   6.419   3.386  0.5316 -0.8197 -0.3542
 2527SOL     hw10106   1.531   6.406   3.464  2.4880 -1.5198  0.9411
 2527SOL     hw10107   1.620   6.333   3.366  0.3175 -0.5865 -1.8630
 2527SOL     vw10108   1.582   6.406   3.394  0.7615 -0.8814 -0.3823
 2528SOL     ow10109   4.424   6.781   4.125  0.1604  0.2054 -0.1013
 2528SOL     hw10110   4.345   6.734   4.099  0.8385 -2.7602  2.6041
 2528SOL     hw10111   4.494   6.740   4.074  0.4949 -0.3538  0.7865
 2528SOL     vw10112   4.423   6.769   4.114  0.2940 -0.2596  0.3726
 2529SOL     ow10113   3.902   3.769   0.097  0.1343  0.0987  0.7207
 2529SOL     hw10114   3.843   3.699   0.125  1.5092 -0.8388  1.3547
 2529SOL     hw10115   3.973   3.724   0.052 -1.1472  1.4335 -2.9479
 2529SOL     vw10116   3.903   3.754   0.095  0.1465  0.1510  0.3203
 2530SOL     ow10117   0.491   6.254   5.833 -0.0353 -0.2515 -0.6028
 2530SOL     hw10118   0.486   6.219   5.922  0.1670 -2.2028 -1.3217
 2530SOL     hw10119   0.573   6.221   5.798  0.0064  0.6999 -1.4563
 2530SOL     vw10120   0.501   6.245   5.841 -0.0031 -0.3831 -0.8101
 2531SOL     ow10121   3.665   1.134   6.511 -0.5665  0.0214 -0.7366
 2531SOL     hw10122   3.631   1.171   6.429 -1.8637  0.7068  0.0698
 2531SOL     hw10123   3.604   1.165   6.578 -0.3021 -1.6414  0.3184
 2531SOL     vw10124   3.653   1.143   6.509 -0.7027 -0.1075 -0.4911
 2532SOL     ow10125   4.493   0.574   5.339 -0.7202 -0.0852 -0.3236
 2532SOL     hw10126   4.450   0.523   5.270  0.2759 -1.5973  0.1474
 2532SOL     hw10127   4.586   0.568   5.319 -0.5160  0.7093  0.3299
 2532SOL     vw10128   4.500   0.567   5.327 -0.5620 -0.1799 -0.1752
 2533SOL     ow10129   5.199   2.796   3.446 -0.3167  0.0319  0.2699
 2533SOL     hw10130   5.218   2.887   3.465 -0.4684 -0.1418  1.3054
 2533SOL     hw10131   5.268   2.768   3.386  0.4811  0.4590  0.9845
 2533SOL     vw10132   5.210   2.804   3.440 -0.2313  0.0654  0.5008
 2534SOL     ow10133   6.587   6.004   2.221  0.4802 -0.2844 -0.0392
 2534SOL     hw10134   6.534   5.940   2.268  1.1510  1.1754  2.9663
 2534SOL     hw10135   6.660   6.022   2.281  1.4556  1.6985 -1.7160
 2534SOL     vw10136   6.590   5.998   2.235  0.6976  0.1698  0.1361
 2535SOL     ow10137   3.162   4.610   1.463 -0.4504 -0.5537  0.6141
 2535SOL     hw10138   3.130   4.658   1.539  0.5925  1.5441 -0.1994
 2535SOL     hw10139   3.084   4.569   1.426 -0.8554 -2.4613  3.2834
 2535SOL     vw10140   3.147   4.611   1.468 -0.3661 -0.5288  0.8590
 2536SOL     ow10141   4.238   5.433   1.836  0.7735  0.6697 -0.3040
 2536SOL     hw10142   4.148   5.411   1.812  0.4433  2.2102 -0.6178
 2536SOL     hw10143   4.229   5.510   1.892  1.8848  0.6320 -0.0545
 2536SOL     vw10144   4.225   5.441   1.840  0.8767  0.8678 -0.3124
 2537SOL     ow10145   6.214   0.362   2.891  0.1449 -0.0003  0.2407
 2537SOL     hw10146   6.134   0.363   2.944  0.3309 -1.0001  0.5632
 2537SOL     hw10147   6.225   0.270   2.865  1.9220 -0.1634  1.3642
 2537SOL     vw10148   6.205   0.350   2.895  0.4041 -0.1537  0.4314
 2538SOL     ow10149   2.425   3.354   5.217  0.4360  1.0706 -0.6856
 2538SOL     hw10150   2.461   3.302   5.289 -0.3816  1.5703  0.1046
 2538SOL     hw10151   2.501   3.394   5.176  1.1107 -0.8919 -1.4562
 2538SOL     vw10152   2.440   3.353   5.221  0.4171  0.8776 -0.6833
 2539SOL     ow10153   1.094   2.878   3.751 -0.5515  0.3668 -0.2143
 2539SOL     hw10154   1.169   2.930   3.781  1.1927 -1.9147 -0.3486
 2539SOL     hw10155   1.018   2.934   3.767  1.2061  3.0410 -0.6471
 2539SOL     vw10156   1.094   2.892   3.757 -0.0895  0.4185 -0.2891
 2540SOL     ow10157   5.427   0.487   0.906  0.2807 -0.2581 -0.0073
 2540SOL     hw10158   5.367   0.551   0.869  1.1699  0.3300 -0.4803
 2540SOL     hw10159   5.377   0.405   0.908 -0.7813  0.3826  0.3615
 2540SOL     vw10160   5.413   0.485   0.902  0.2580 -0.0960 -0.0210
 2541SOL     ow10161   3.131   4.895   3.048  0.2262  0.0644 -0.4527
 2541SOL     hw10162   3.097   4.933   3.129 -0.5929  0.9099 -1.1710
 2541SOL     hw10163   3.207   4.843   3.076 -0.7438 -0.6430  0.9997
 2541SOL     vw10164   3.137   4.893   3.062 -0.0098  0.0825 -0.3560
 2542SOL     ow10165   5.627   4.279   5.759 -0.5779  0.4508  0.0561
 2542SOL     hw10166   5.538   4.309   5.743 -0.1209  0.6661 -2.3904
 2542SOL     hw10167   5.661   4.339   5.826 -0.9258  3.1059 -1.9924
 2542SOL     vw10168   5.620   4.291   5.766 -0.5631  0.8297 -0.5372
 2543SOL     ow10169   5.206   0.146   0.310 -0.9259  0.4223 -0.0248
 2543SOL     hw10170   5.156   0.098   0.243 -2.4253  2.4984 -0.4873
 2543SOL     hw10171   5.139   0.181   0.369 -0.1778  3.7104 -0.9432
 2543SOL     vw10172   5.190   0.144   0.309 -1.0250  1.1300 -0.2070
 2544SOL     ow10173   4.315   0.459   2.904 -0.0344  0.5631  0.2861
 2544SOL     hw10174   4.339   0.448   2.813 -0.3192 -2.9227  0.4894
 2544SOL     hw10175   4.266   0.541   2.906 -1.0934  0.1511 -2.9400
 2544SOL     vw10176   4.311   0.468   2.893 -0.2117  0.0488 -0.1129
 2545SOL     ow10177   7.208   6.467   3.110 -0.2058 -0.0109  0.7502
 2545SOL     hw10178   7.303   6.459   3.116 -0.3742 -1.8636  1.5370
 2545SOL     hw10179   7.181   6.391   3.059 -1.1717  1.3436 -0.8821
 2545SOL     vw10180   7.217   6.456   3.104 -0.3555 -0.0768  0.6386
 2546SOL     ow10181   4.017   0.305   0.559  0.3072 -0.1648 -0.1742
 2546SOL     hw10182   3.932   0.322   0.600  0.1330 -1.1255 -0.1123
 2546SOL     hw10183   4.081   0.334   0.624  0.0273  0.8523 -0.3493
 2546SOL     vw10184   4.014   0.311   0.573  0.2470 -0.1573 -0.1891
 2547SOL     ow10185   1.916   2.571   1.251 -0.2603 -0.3023 -0.1974
 2547SOL     hw10186   2.011   2.572   1.256 -0.2832  1.2606  0.5242
 2547SOL     hw10187   1.891   2.484   1.282  0.9841 -1.7412 -2.8670
 2547SOL     vw10188   1.925   2.559   1.255 -0.0992 -0.2857 -0.4544
 2548SOL     ow10189   0.035   4.617   4.810 -0.4741 -0.1380  0.0909
 2548SOL     hw10190   0.055   4.561   4.886 -0.4563 -1.6246 -0.9694
 2548SOL     hw10191  -0.059   4.631   4.815 -0.5017 -0.3759  0.2883
 2548SOL     vw10192   0.025   4.611   4.821 -0.4754 -0.3653 -0.0224
 2549SOL     ow10193   7.106   2.980   5.879 -0.1000 -0.0060 -0.3223
 2549SOL     hw10194   7.145   2.909   5.829 -1.5322 -3.4034  2.8782
 2549SOL     hw10195   7.014   2.982   5.852 -0.1637  0.3153 -0.0955
 2549SOL     vw10196   7.099   2.971   5.869 -0.2973 -0.4120  0.1297
 2550SOL     ow10197   6.486   0.409   6.158 -0.5464  0.2055 -0.1115
 2550SOL     hw10198   6.461   0.321   6.187 -0.8963  0.4842  0.4474
 2550SOL     hw10199   6.582   0.405   6.150 -0.6377 -0.4734 -0.9351
 2550SOL     vw10200   6.496   0.397   6.161 -0.6044  0.1527 -0.1462
 2551SOL     ow10201   0.855   3.176   6.035  0.2577  0.0413 -0.3918
 2551SOL     hw10202   0.938   3.223   6.036  1.3915 -1.8645  0.7221
 2551SOL     hw10203   0.825   3.179   6.126 -0.2681 -0.3618 -0.5469
 2551SOL     vw10204   0.862   3.182   6.047  0.3380 -0.2632 -0.2651
 2552SOL     ow10205   0.756   4.011   0.149  0.7600 -0.4111 -0.0716
 2552SOL     hw10206   0.792   4.052   0.071 -1.5289  0.3882 -0.7762
 2552SOL     hw10207   0.702   3.939   0.115  0.3904 -0.5622  0.8085
 2552SOL     vw10208   0.753   4.007   0.134  0.4092 -0.3254 -0.0485
 2553SOL     ow10209   6.965   7.038   3.855 -0.4073 -0.0319 -0.1579
 2553SOL     hw10210   7.028   7.059   3.786 -0.4420 -1.4664 -0.6496
 2553SOL     hw10211   6.888   7.091   3.834  0.5610  1.7125  0.4250
 2553SOL     vw10212   6.964   7.048   3.843 -0.2842  0.0088 -0.1458
 2554SOL     ow10213   0.185   6.558   6.668  0.0071 -0.0118 -0.2010
 2554SOL     hw10214   0.196   6.533   6.760  1.3861 -0.8211 -0.5493
 2554SOL     hw10215   0.127   6.633   6.670 -0.8560 -0.6789  1.2474
 2554SOL     vw10216   0.179   6.564   6.681  0.0752 -0.2065 -0.0560
 2555SOL     ow10217   0.688   4.092   0.875 -0.0383 -0.2478  0.3016
 2555SOL     hw10218   0.605   4.056   0.844  1.1652 -0.4729 -3.0724
 2555SOL     hw10219   0.752   4.023   0.856  1.3659  1.1776 -0.3133
 2555SOL     vw10220   0.686   4.078   0.868  0.3057 -0.0892 -0.2247
 2556SOL     ow10221   3.807   0.950   1.078 -0.8061 -0.2034  0.1483
 2556SOL     hw10222   3.814   0.882   1.011 -1.1248 -1.4127  1.2896
 2556SOL     hw10223   3.897   0.965   1.107 -0.7655 -0.4139  0.1365
 2556SOL     vw10224   3.820   0.943   1.073 -0.8428 -0.3907  0.2973
 2557SOL     ow10225   6.576   2.000   2.120 -0.3037  0.0199 -0.1906
 2557SOL     hw10226   6.572   1.904   2.128 -1.5659 -0.1664 -2.3343
 2557SOL     hw10227   6.565   2.032   2.210  1.0594 -1.8372  0.6938
 2557SOL     vw10228   6.574   1.991   2.133 -0.2906 -0.2496 -0.3566
 2558SOL     ow10229   5.829   0.568   1.451  1.2188  0.1736  0.6340
 2558SOL     hw10230   5.761   0.507   1.423  0.0939  1.5631  0.2013
 2558SOL     hw10231   5.789   0.619   1.521  0.8135  2.7113 -1.2628
 2558SOL     vw10232   5.815   0.567   1.457  1.0171  0.6917  0.3267
 2559SOL     ow10233   0.868   2.203   3.926 -0.0565  0.2051 -0.0415
 2559SOL     hw10234   0.847   2.139   3.993 -1.3774  1.3309  0.6736
 2559SOL     hw10235   0.900   2.279   3.974 -2.8223  1.7525 -0.4240
 2559SOL     vw10236   0.870   2.204   3.941 -0.5957  0.5578  0.0024
 2560SOL     ow10237   6.030   5.380   6.845 -0.4222 -0.3376 -0.3700
 2560SOL     hw10238   5.955   5.348   6.795 -1.7209  0.2745  1.1087
 2560SOL     hw10239   6.097   5.313   6.831 -1.3232 -1.0710 -1.4701
 2560SOL     vw10240   6.029   5.367   6.836 -0.7124 -0.3538 -0.3200
 2561SOL     ow10241   3.382   0.552   7.413  0.0924  0.1155 -0.3479
 2561SOL     hw10242   3.369   0.647   7.408 -3.1249 -0.2600 -1.1145
 2561SOL     hw10243   3.344   0.526   7.497  3.1917 -0.3204  1.0575
 2561SOL     vw10244   3.375   0.561   7.423  0.0768  0.0084 -0.2637
 2562SOL     ow10245   0.506   7.204   7.499 -0.2280  0.1218 -0.1886
 2562SOL     hw10246   0.528   7.250   7.417 -1.8435  1.1031 -0.1033
 2562SOL     hw10247   0.532   7.113   7.483  2.2111  0.8315 -0.6968
 2562SOL     vw10248   0.513   7.198   7.486 -0.1194  0.3450 -0.2446
 2563SOL     ow10249   5.947   6.631   6.336  0.4425 -0.9008 -0.0894
 2563SOL     hw10250   5.995   6.705   6.299 -0.3097  0.3176  1.2639
 2563SOL     hw10251   5.989   6.614   6.421 -1.3462  0.1027  1.0587
 2563SOL     vw10252   5.959   6.638   6.342  0.1073 -0.6080  0.2406
 2564SOL     ow10253   2.100   2.575   4.388  0.0783 -0.1851  0.1188
 2564SOL     hw10254   2.117   2.665   4.416  0.6541 -0.1861 -0.2176
 2564SOL     hw10255   2.158   2.562   4.313 -2.3199  0.2412 -1.9450
 2564SOL     vw10256   2.110   2.585   4.382 -0.1621 -0.1290 -0.1984
 2565SOL     ow10257   1.033   1.223   7.183  0.0474 -0.2199  0.5800
 2565SOL     hw10258   0.951   1.244   7.137 -0.3944 -0.3156  1.3105
 2565SOL     hw10259   1.061   1.305   7.222  0.3282 -0.1795  0.3018
 2565SOL     vw10260   1.026   1.236   7.182  0.0262 -0.2272  0.6397
 2566SOL     ow10261   1.171   6.443   6.936 -0.8968 -0.2091 -0.4045
 2566SOL     hw10262   1.162   6.530   6.898  0.0140  0.2968  0.4792
 2566SOL     hw10263   1.261   6.417   6.917 -0.6410 -0.2364  0.7509
 2566SOL     vw10264   1.182   6.451   6.929 -0.7429 -0.1459 -0.1357
 2567SOL     ow10265   0.066   1.362   6.977  0.9213  0.2349  0.2469
 2567SOL     hw10266   0.087   1.453   6.957  0.7823  0.2751  0.2826
 2567SOL     hw10267   0.063   1.359   7.072  1.3941  0.0866  0.2589
 2567SOL     vw10268   0.069   1.374   6.987  0.9653  0.2207  0.2530
 2568SOL     ow10269   2.958   6.758   7.469 -0.1659  0.5907  0.1187
 2568SOL     hw10270   2.955   6.724   7.559 -2.8540 -3.7415 -1.2888
 2568SOL     hw10271   3.052   6.763   7.449  0.5297 -2.0282  2.0725
 2568SOL     vw10272   2.970   6.754   7.479 -0.4288 -0.3266  0.1907
 2569SOL     ow10273   0.116   2.420   2.473  0.2088  0.0484  0.0671
 2569SOL     hw10274   0.166   2.419   2.391  0.2978 -1.1643  0.1186
 2569SOL     hw10275   0.052   2.350   2.463  0.4431 -0.3542  1.1593
 2569SOL     vw10276   0.114   2.411   2.461  0.2515 -0.1647  0.2180
 2570SOL     ow10277   7.107   4.720   5.483  0.4354  0.1223  0.2069
 2570SOL     hw10278   7.043   4.675   5.427  0.4139  0.6286 -0.1757
 2570SOL     hw10279   7.192   4.689   5.453  0.4817  1.1919 -0.8250
 2570SOL     vw10280   7.110   4.710   5.472  0.4385  0.3302  0.0205
 2571SOL     ow10281   4.055   2.122   6.972 -0.1766 -0.3172  0.7037
 2571SOL     hw10282   4.111   2.180   7.023 -1.4388  0.6412  1.0570
 2571SOL     hw10283   3.985   2.179   6.939  0.0737 -1.0841 -1.3167
 2571SOL     vw10284   4.053   2.137   6.974 -0.3102 -0.2918  0.4838
 2572SOL     ow10285   0.504   6.313   4.901 -0.0122 -0.1506 -0.3485
 2572SOL     hw10286   0.584   6.312   4.954 -0.7622  1.9970  0.9298
 2572SOL     hw10287   0.524   6.372   4.828  0.1049 -0.9775 -1.0092
 2572SOL     vw10288   0.517   6.320   4.898 -0.0957  0.0238 -0.2668
 2573SOL     ow10289   5.745   3.184   0.262 -0.9189  0.0535 -0.2311
 2573SOL     hw10290   5.736   3.280   0.257  2.6762  0.5050 -1.0043
 2573SOL     hw10291   5.758   3.167   0.356  0.4721  0.6604 -0.2802
 2573SOL     vw10292   5.746   3.195   0.274 -0.2611  0.1932 -0.3396
 2574SOL     ow10293   2.768   0.496   5.895 -0.4741 -0.7901 -0.7644
 2574SOL     hw10294   2.831   0.449   5.840 -0.3235 -0.1424 -1.1473
 2574SOL     hw10295   2.822   0.549   5.954 -0.6504 -0.8162 -0.5780
 2574SOL     vw10296   2.784   0.496   5.896 -0.4777 -0.7081 -0.7904
 2575SOL     ow10297   5.968   2.433   6.857 -0.1249  0.2115  0.3618
 2575SOL     hw10298   6.008   2.455   6.941  1.5769  0.6618 -0.5363
 2575SOL     hw10299   6.020   2.480   6.792 -0.6218 -1.1178 -1.0523
 2575SOL     vw10300   5.980   2.442   6.860  0.0341  0.0956  0.0567
 2576SOL     ow10301   0.166   4.131   2.690  0.0464  0.4242  0.3948
 2576SOL     hw10302   0.183   4.114   2.783  1.8296  0.2144  0.0731
 2576SOL     hw10303   0.207   4.217   2.674 -1.9061  1.3660  0.2026
 2576SOL     vw10304   0.174   4.140   2.700  0.0241  0.5207  0.3271
 2577SOL     ow10305   7.187   0.639   5.263 -0.6158  0.1880 -0.0075
 2577SOL     hw10306   7.156   0.652   5.353 -1.7813  0.2237 -0.3974
 2577SOL     hw10307   7.124   0.579   5.224  1.9092 -2.8498  0.2465
 2577SOL     vw10308   7.174   0.633   5.269 -0.4365 -0.2081 -0.0255
 2578SOL     ow10309   4.507   2.889   1.203  0.0881  0.3147 -0.4751
 2578SOL     hw10310   4.586   2.938   1.227 -0.3619  1.1600 -0.6436
 2578SOL     hw10311   4.531   2.797   1.212  0.3161  0.5389  2.0655
 2578SOL     vw10312   4.520   2.884   1.208  0.0589  0.4559 -0.1622
 2579SOL     ow10313   5.745   5.852   1.856  0.3532 -1.0885 -1.0626
 2579SOL     hw10314   5.832   5.815   1.871  1.7995  1.4213 -2.4869
 2579SOL     hw10315   5.759   5.947   1.860 -3.0631 -0.4772  2.3923
 2579SOL     vw10316   5.758   5.860   1.858  0.0935 -0.6771 -0.7947
 2580SOL     ow10317   0.507   2.337   3.601 -0.4337  0.2349 -0.6666
 2580SOL     hw10318   0.436   2.388   3.640 -0.4921 -0.6578  0.4299
 2580SOL     hw10319   0.577   2.340   3.667 -0.7116 -1.7060 -0.2223
 2580SOL     vw10320   0.507   2.344   3.615 -0.4781 -0.1389 -0.4634
 2581SOL     ow10321   5.297   1.053   4.502  0.2397 -1.0007  0.7723
 2581SOL     hw10322   5.205   1.026   4.497 -0.3040  0.5501  1.7428
 2581SOL     hw10323   5.333   1.004   4.576  0.7879 -3.1257 -0.8208
 2581SOL     vw10324   5.290   1.043   4.511  0.2403 -1.0764  0.6900
 2582SOL     ow10325   4.961   0.970   5.880  0.4315 -0.0954 -0.0586
 2582SOL     hw10326   4.979   1.045   5.936  0.1098 -1.5252  2.0695
 2582SOL     hw10327   4.873   0.942   5.905  0.1989 -0.6865 -1.4380
 2582SOL     vw10328   4.952   0.976   5.891  0.3583 -0.3620  0.0405
 2583SOL     ow10329   4.031   0.344   0.267  0.3985 -0.6380  0.0883
 2583SOL     hw10330   3.986   0.302   0.339  2.3746  0.3367  2.0096
 2583SOL     hw10331   3.989   0.430   0.259  0.9451 -0.2887  0.9009
 2583SOL     vw10332   4.020   0.350   0.275  0.7312 -0.4633  0.4490
 2584SOL     ow10333   4.143   4.524   1.623  0.1819 -0.5497  0.0381
 2584SOL     hw10334   4.152   4.434   1.655  2.7872 -0.4473 -0.1844
 2584SOL     hw10335   4.197   4.527   1.543  0.1277  1.1882  0.0259
 2584SOL     vw10336   4.151   4.513   1.617  0.5186 -0.3068  0.0071
 2585SOL     ow10337   0.811   1.972   3.524  0.0043 -0.1156 -0.0009
 2585SOL     hw10338   0.723   2.002   3.545  0.1467 -0.3639  1.0104
 2585SOL     hw10339   0.868   2.024   3.580  0.1986 -2.8424  2.6428
 2585SOL     vw10340   0.807   1.983   3.534  0.0487 -0.5082  0.4814
 2586SOL     ow10341   2.556   2.402   1.992  0.3761 -0.8888  0.6216
 2586SOL     hw10342   2.559   2.352   2.074 -0.7211 -0.1511  1.1239
 2586SOL     hw10343   2.485   2.363   1.943 -1.8283  1.3384  1.8380
 2586SOL     vw10344   2.547   2.390   1.997 -0.0595 -0.4976  0.8484
 2587SOL     ow10345   0.712   2.353   2.804 -0.0929 -0.0564 -0.4068
 2587SOL     hw10346   0.768   2.393   2.738  0.3134  1.5666  0.8462
 2587SOL     hw10347   0.767   2.286   2.845  0.5780  0.7527  0.0509
 2587SOL     vw10348   0.727   2.350   2.801  0.0493  0.2645 -0.1811
 2588SOL     ow10349   0.398   1.432   6.504 -0.4708  0.2509  0.0606
 2588SOL     hw10350   0.421   1.468   6.419 -0.0061  2.6717  1.1483
 2588SOL     hw10351   0.481   1.400   6.540 -0.4467  0.3618  0.1045
 2588SOL     vw10352   0.412   1.432   6.498 -0.4063  0.5849  0.2100
 2589SOL     ow10353   1.549   1.989   7.503 -0.0886 -0.1259 -0.6281
 2589SOL     hw10354   1.581   2.074   7.474  2.7916 -0.6211  0.6937
 2589SOL     hw10355   1.530   2.001   7.597  0.6389 -0.9735 -0.3589
 2589SOL     vw10356   1.551   2.002   7.512  0.3874 -0.3031 -0.4182
 2590SOL     ow10357   0.429   1.540   6.938 -0.3085 -0.7394 -0.2493
 2590SOL     hw10358   0.457   1.622   6.979  2.9417 -1.6330 -0.3977
 2590SOL     hw10359   0.398   1.565   6.851  0.3535  0.3530 -0.1775
 2590SOL     vw10360   0.428   1.554   6.932  0.2076 -0.7132 -0.2594
 2591SOL     ow10361   5.825   4.735   5.039  0.3989 -0.7257 -0.3101
 2591SOL     hw10362   5.760   4.777   5.095  2.1476  0.6459  0.8038
 2591SOL     hw10363   5.883   4.690   5.100  2.1403  0.5028 -0.9708
 2591SOL     vw10364   5.824   4.735   5.055  0.8595 -0.3829 -0.2501
 2592SOL     ow10365   1.889   2.702   5.434  0.1496  0.1915 -0.1893
 2592SOL     hw10366   1.954   2.762   5.469 -1.7521  1.5171  1.2781
 2592SOL     hw10367   1.904   2.620   5.482 -0.0050  0.8495  1.0108
 2592SOL     vw10368   1.900   2.699   5.445 -0.1218  0.4534  0.1628
 2593SOL     ow10369   3.457   2.053   5.935  0.2988  0.4899  0.1027
 2593SOL     hw10370   3.420   2.017   5.854  0.7862 -1.7089  0.7961
 2593SOL     hw10371   3.404   2.131   5.953 -0.6981  0.2508 -1.5973
 2593SOL     vw10372   3.445   2.058   5.927  0.2314  0.1682 -0.0303
 2594SOL     ow10373   1.433   7.527   6.423  0.0074 -0.2482  0.6586
 2594SOL     hw10374   1.345   7.530   6.462 -0.5858  1.0299 -0.6867
 2594SOL     hw10375   1.436   7.443   6.377 -0.0248 -0.8663  1.7558
 2594SOL     vw10376   1.421   7.516   6.422 -0.0751 -0.1612  0.6258
 2595SOL     ow10377   3.646   7.107   3.720  0.4524  0.6183 -0.7569
 2595SOL     hw10378   3.562   7.150   3.736  0.9080  1.2913 -0.1240
 2595SOL     hw10379   3.644   7.029   3.775 -0.8528 -0.8697 -2.7655
 2595SOL     vw10380   3.635   7.102   3.729  0.3402  0.5109 -0.9385
 2596SOL     ow10381   2.447   6.351   6.493  0.5059  0.6810 -0.1125
 2596SOL     hw10382   2.498   6.387   6.566 -1.6873 -0.8903  2.3655
 2596SOL     hw10383   2.360   6.389   6.502  0.0328  0.0794 -1.6813
 2596SOL     vw10384   2.443   6.360   6.504  0.1541  0.3943  0.0074
 2597SOL     ow10385   3.670   3.791   3.749  0.1928 -0.5353  0.0852
 2597SOL     hw10386   3.694   3.830   3.664 -2.4990 -0.8132 -0.8946
 2597SOL     hw10387   3.733   3.720   3.761  0.0870 -1.0892 -2.1846
 2597SOL     vw10388   3.681   3.787   3.739 -0.1763 -0.6450 -0.3434
 2598SOL     ow10389   6.022   6.322   2.218 -0.2326  0.4795 -0.8799
 2598SOL     hw10390   6.100   6.375   2.235 -0.1577  0.4027 -0.9838
 2598SOL     hw10391   6.016   6.319   2.123 -1.7842  2.6030 -0.9244
 2598SOL     vw10392   6.032   6.329   2.208 -0.4270  0.7496 -0.8996
 2599SOL     ow10393   6.404   6.571   7.332  0.3705 -0.1339  0.6517
 2599SOL     hw10394   6.493   6.534   7.330 -1.0743 -4.2676  2.4392
 2599SOL     hw10395   6.369   6.554   7.245  1.0127  0.8560  0.1739
 2599SOL     vw10396   6.411   6.564   7.320  0.2646 -0.5484  0.8245
 2600SOL     ow10397   4.343   0.958   4.415 -0.4394 -0.3234 -0.6094
 2600SOL     hw10398   4.319   1.028   4.355  1.1649  0.3124 -0.5791
 2600SOL     hw10399   4.315   0.989   4.501  1.4774  0.9713 -0.3943
 2600SOL     vw10400   4.336   0.971   4.418  0.0253 -0.0687 -0.5772
 2601SOL     ow10401   0.298   4.798   4.686 -0.4278 -0.4276  0.3170
 2601SOL     hw10402   0.376   4.760   4.727 -0.7705  2.7612  4.7534
 2601SOL     hw10403   0.332   4.852   4.614  1.5594  0.6537  1.9555
 2601SOL     vw10404   0.313   4.800   4.682 -0.2108  0.1359  1.1184
 2602SOL     ow10405   5.756   4.210   6.857  0.3066 -0.2146  0.5862
 2602SOL     hw10406   5.829   4.227   6.918  0.9100 -0.5332 -0.0441
 2602SOL     hw10407   5.793   4.152   6.791 -0.1806  0.5979 -0.4143
 2602SOL     vw10408   5.770   4.205   6.857  0.3221 -0.1497  0.3710
 2603SOL     ow10409   4.675   0.814   5.868  0.2052 -0.5749 -0.4945
 2603SOL     hw10410   4.625   0.831   5.948  0.7314 -3.4031  0.5707
 2603SOL     hw10411   4.732   0.741   5.891 -1.0537 -2.9182 -4.0341
 2603SOL     vw10412   4.676   0.807   5.882  0.1082 -1.2572 -0.8211
 2604SOL     ow10413   6.338   2.994   4.928 -0.4721 -0.0898 -0.0250
 2604SOL     hw10414   6.311   3.078   4.964 -0.9285 -0.3755  0.3096
 2604SOL     hw10415   6.270   2.971   4.865 -0.3774 -0.2271 -0.0797
 2604SOL     vw10416   6.326   3.002   4.924 -0.5202 -0.1456  0.0117
 2605SOL     ow10417   0.341   2.830   4.040  0.0413 -0.7153 -0.8949
 2605SOL     hw10418   0.300   2.746   4.062  0.5360 -1.6170 -3.1651
 2605SOL     hw10419   0.287   2.865   3.969  1.1748 -0.2200 -1.5266
 2605SOL     vw10420   0.328   2.823   4.034  0.2562 -0.7689 -1.2779
 2606SOL     ow10421   3.506   0.557   5.621 -0.6251  0.1514  0.0154
 2606SOL     hw10422   3.429   0.581   5.570  0.3702  0.0473 -1.5900
 2606SOL     hw10423   3.472   0.540   5.709 -2.2571  1.2039 -0.3689
 2606SOL     vw10424   3.491   0.558   5.626 -0.7091  0.2766 -0.2468
 2607SOL     ow10425   0.720   0.913   0.391 -0.0321 -0.4581 -0.0009
 2607SOL     hw10426   0.626   0.924   0.403 -0.0543  0.2103 -0.7302
 2607SOL     hw10427   0.751   0.882   0.476 -0.3193  3.1131  1.6226
 2607SOL     vw10428   0.712   0.911   0.404 -0.0729  0.1012  0.1171
 2608SOL     ow10429   6.077   4.778   4.902  0.1626  0.5430 -0.0183
 2608SOL     hw10430   6.164   4.804   4.870  1.2142 -1.4245  1.0645
 2608SOL     hw10431   6.052   4.705   4.846 -2.2352  2.8741 -2.2764
 2608SOL     vw10432   6.085   4.772   4.890 -0.0150  0.5910 -0.1733
 2609SOL     ow10433   1.445   3.289   0.893  0.1931 -0.7736  0.4551
 2609SOL     hw10434   1.415   3.287   0.983 -2.6444 -1.9586 -0.3986
 2609SOL     hw10435   1.385   3.348   0.848  2.4086  0.9293 -0.4727
 2609SOL     vw10436   1.433   3.297   0.899  0.1110 -0.7052  0.2200
 2610SOL     ow10437   7.202   5.320   0.721  0.3813 -0.4582  0.6902
 2610SOL     hw10438   7.295   5.316   0.742  0.0933 -0.0441  2.1250
 2610SOL     hw10439   7.188   5.409   0.690 -0.2288  0.8455  4.2689
 2610SOL     vw10440   7.212   5.331   0.720  0.2627 -0.2313  1.3516
 2611SOL     ow10441   6.189   5.535   2.964  0.5914 -1.0651 -0.3235
 2611SOL     hw10442   6.181   5.600   3.034  0.7765  0.8078 -1.9534
 2611SOL     hw10443   6.247   5.468   3.000  0.1050 -0.5481  1.5497
 2611SOL     vw10444   6.195   5.535   2.978  0.5515 -0.7498 -0.2913
 2612SOL     ow10445   5.066   6.719   6.360  0.3647  0.1058 -0.0543
 2612SOL     hw10446   4.980   6.679   6.345  1.2842 -2.4095  0.7346
 2612SOL     hw10447   5.125   6.671   6.302  1.5469  0.3808  0.8854
 2612SOL     vw10448   5.062   6.707   6.351  0.6423 -0.1895  0.1738
 2613SOL     ow10449   3.866   4.768   6.899  0.1999  0.8026  0.5907
 2613SOL     hw10450   3.937   4.831   6.913  0.5856  0.6813 -0.7200
 2613SOL     hw10451   3.861   4.758   6.804  2.0345 -3.1993  0.6928
 2613SOL     vw10452   3.875   4.775   6.889  0.4928  0.2584  0.4311
 2614SOL     ow10453   4.138   6.291   4.663  0.4009 -0.0868 -0.1550
 2614SOL     hw10454   4.045   6.280   4.682  0.5162  0.6378  0.9399
 2614SOL     hw10455   4.141   6.357   4.594  0.1329  0.5855  0.4644
 2614SOL     vw10456   4.126   6.298   4.657  0.3810  0.0975  0.0713
 2615SOL     ow10457   3.072   7.000   2.488  0.1796 -0.1633 -0.4608
 2615SOL     hw10458   3.111   7.046   2.413 -2.1667  0.5193 -1.3420
 2615SOL     hw10459   3.147   6.957   2.531  1.7926  0.5647 -2.3719
 2615SOL     vw10460   3.087   7.000   2.484  0.0831  0.0229 -0.8292
 2616SOL     ow10461   6.848   3.914   3.992 -0.1466 -0.8343 -0.7801
 2616SOL     hw10462   6.930   3.901   3.944 -0.2751 -1.0791 -0.9321
 2616SOL     hw10463   6.799   3.978   3.939  0.3148 -0.0116 -0.2369
 2616SOL     vw10464   6.852   3.921   3.979 -0.1028 -0.7579 -0.7284
 2617SOL     ow10465   0.468   5.375   7.235  0.4516 -0.3198 -0.8329
 2617SOL     hw10466   0.496   5.456   7.193  0.8213 -0.4931 -0.9218
 2617SOL     hw10467   0.545   5.319   7.233  0.6036 -0.1930  0.4343
 2617SOL     vw10468   0.482   5.378   7.229  0.5204 -0.3259 -0.6778
 2618SOL     ow10469   2.618   1.861   3.778 -0.1184  0.3475 -0.2219
 2618SOL     hw10470   2.661   1.932   3.825 -0.4972  1.5839 -1.6651
 2618SOL     hw10471   2.576   1.809   3.847  2.8132 -0.3740  1.1486
 2618SOL     vw10472   2.618   1.864   3.793  0.2184  0.4154 -0.2315
 2619SOL     ow10473   5.740   2.327   2.036 -0.3087  0.6019  0.2129
 2619SOL     hw10474   5.691   2.255   1.995 -1.5401  1.0633  0.8271
 2619SOL     hw10475   5.770   2.381   1.962 -0.0026 -0.1298 -0.2118
 2619SOL     vw10476   5.738   2.325   2.020 -0.4306  0.5662  0.2379
 2620SOL     ow10477   3.681   2.467   3.200  0.9328 -0.2657  0.3283
 2620SOL     hw10478   3.651   2.507   3.282  2.1638 -1.1180  1.2173
 2620SOL     hw10479   3.751   2.407   3.226  0.9333 -1.0144 -1.2846
 2620SOL     vw10480   3.686   2.464   3.214  1.0954 -0.4770  0.2328
 2621SOL     ow10481   4.052   0.659   6.505  0.2027 -0.6473 -0.2922
 2621SOL     hw10482   3.988   0.617   6.448  0.0342 -1.1818  0.2838
 2621SOL     hw10483   4.136   0.642   6.463 -0.0729  0.9653 -1.6295
 2621SOL     vw10484   4.055   0.652   6.492  0.1442 -0.5050 -0.3927
 2622SOL     ow10485   0.823   2.408   1.399 -0.4104  0.2193 -0.5360
 2622SOL     hw10486   0.885   2.378   1.333  1.5310  0.8398  0.9104
 2622SOL     hw10487   0.804   2.330   1.451 -0.0140  0.2453 -0.3512
 2622SOL     vw10488   0.828   2.393   1.397 -0.1020  0.3047 -0.3208
 2623SOL     ow10489   1.031   3.520   6.929 -0.0945 -0.1185  0.0403
 2623SOL     hw10490   1.105   3.566   6.890 -0.8350  1.1058  0.0338
 2623SOL     hw10491   1.043   3.429   6.902  1.2666  0.0969 -0.1554
 2623SOL     vw10492   1.042   3.514   6.920 -0.0127  0.0714  0.0136
 2624SOL     ow10493   6.082   0.850   1.168 -0.2917  0.0235  0.0286
 2624SOL     hw10494   6.020   0.919   1.145 -0.3759 -0.0400  0.0628
 2624SOL     hw10495   6.103   0.808   1.084 -1.6910 -1.1241  0.2242
 2624SOL     vw10496   6.077   0.853   1.154 -0.4873 -0.1363  0.0589
 2625SOL     ow10497   7.466   5.260   0.767  0.0995 -0.2469  0.5797
 2625SOL     hw10498   7.517   5.261   0.685 -0.6213 -0.1614  0.1223
 2625SOL     hw10499   7.530   5.282   0.835  1.0144 -1.6663  0.2302
 2625SOL     vw10500   7.481   5.263   0.765  0.1249 -0.4227  0.4733
 2626SOL     ow10501   6.455   5.184   2.481 -0.0434 -0.1024 -0.0347
 2626SOL     hw10502   6.389   5.247   2.511 -0.6804 -0.9613  0.4669
 2626SOL     hw10503   6.503   5.160   2.561  0.0497 -0.3991 -0.1767
 2626SOL     vw10504   6.452   5.189   2.496 -0.1152 -0.2549  0.0128
 2627SOL     ow10505   6.127   6.294   2.740 -0.5230 -0.1933 -0.3854
 2627SOL     hw10506   6.075   6.365   2.703 -2.4329 -0.3128  1.8525
 2627SOL     hw10507   6.154   6.242   2.664 -2.6701  0.5622 -1.7537
 2627SOL     vw10508   6.123   6.297   2.725 -1.0583 -0.1094 -0.2708
 2628SOL     ow10509   1.263   4.287   0.424  0.4821  0.1589 -0.5494
 2628SOL     hw10510   1.296   4.253   0.340  2.1416  1.1706 -0.3554
 2628SOL     hw10511   1.329   4.261   0.488 -1.6102 -2.1725  0.8678
 2628SOL     vw10512   1.276   4.279   0.421  0.4249 -0.0150 -0.3368
 2629SOL     ow10513   4.501   1.798   3.960 -0.5653  0.5183  0.9696
 2629SOL     hw10514   4.490   1.892   3.943 -1.8921  0.2100 -0.0251
 2629SOL     hw10515   4.416   1.769   3.993 -0.2522 -0.3895  1.0028
 2629SOL     vw10516   4.489   1.807   3.962 -0.6990  0.3579  0.8428
 2630SOL     ow10517   0.907   7.032   0.701 -0.3714  0.0724 -0.2344
 2630SOL     hw10518   0.971   6.964   0.719  1.0804  1.5571  0.4247
 2630SOL     hw10519   0.885   7.069   0.787 -1.0319  0.5485 -0.5915
 2630SOL     vw10520   0.912   7.028   0.715 -0.2670  0.3309 -0.1945
 2631SOL     ow10521   5.409   7.339   0.412  0.4515  0.1415  0.0529
 2631SOL     hw10522   5.439   7.382   0.331  1.3446  3.5593  2.0019
 2631SOL     hw10523   5.318   7.317   0.395 -0.6059  4.2692 -0.7814
 2631SOL     vw10524   5.401   7.342   0.399  0.4299  1.1373  0.2000
 2632SOL     ow10525   5.051   5.768   6.563  0.2613 -0.1138 -0.6019
 2632SOL     hw10526   5.087   5.681   6.580  1.1240  0.1445 -1.0406
 2632SOL     hw10527   5.047   5.774   6.468  0.6903  0.5108 -0.5855
 2632SOL     vw10528   5.055   5.757   6.553  0.4320  0.0029 -0.6576
 2633SOL     ow10529   2.521   6.873   0.407  0.2652 -0.6734  0.5964
 2633SOL     hw10530   2.609   6.855   0.375  0.7188  2.4010 -0.2692
 2633SOL     hw10531   2.532   6.887   0.501  1.2279  1.7440  0.2184
 2633SOL     vw10532   2.534   6.873   0.415  0.4520  0.0515  0.4323
 2634SOL     ow10533   2.843   1.452   4.281 -0.1407 -0.4963 -0.7747
 2634SOL     hw10534   2.894   1.400   4.219 -3.1067 -1.6723 -2.4772
 2634SOL     hw10535   2.753   1.443   4.250 -1.4677  1.0901  2.2229
 2634SOL     vw10536   2.838   1.444   4.268 -0.7073 -0.4421 -0.6039
 2635SOL     ow10537   4.322   6.698   6.792 -0.4365  0.2167  0.1730
 2635SOL     hw10538   4.274   6.628   6.835  0.5171 -0.9594 -0.6087
 2635SOL     hw10539   4.348   6.757   6.864 -2.0158  0.2739  0.7235
 2635SOL     vw10540   4.319   6.697   6.807 -0.5188  0.0691  0.1426
 2636SOL     ow10541   6.508   6.747   2.958 -0.1573 -0.4604 -0.2818
 2636SOL     hw10542   6.566   6.768   3.031  0.0919  0.6464 -0.7740
 2636SOL     hw10543   6.420   6.760   2.993 -0.1726 -2.5835  0.6014
 2636SOL     vw10544   6.504   6.752   2.972 -0.1264 -0.5944 -0.2301
 2637SOL     ow10545   2.888   6.968   7.214  0.2642  0.1906 -1.1698
 2637SOL     hw10546   2.843   7.037   7.165  1.4042  0.6427 -1.6118
 2637SOL     hw10547   2.822   6.934   7.274 -0.3292  1.6497 -0.9693
 2637SOL     vw10548   2.873   6.972   7.215  0.3364  0.4430 -1.2016
 2638SOL     ow10549   6.908   1.091   2.652 -0.1576  0.2485  0.1719
 2638SOL     hw10550   6.900   1.135   2.736 -0.6389  1.3608 -0.4381
 2638SOL     hw10551   6.818   1.067   2.629 -0.0085 -0.1994  0.0479
 2638SOL     vw10552   6.895   1.093   2.660 -0.2015  0.3362  0.0751
 2639SOL     ow10553   0.592   2.909   6.820 -0.0094 -0.0143 -0.8575
 2639SOL     hw10554   0.507   2.926   6.778 -0.9080 -0.0647  0.8327
 2639SOL     hw10555   0.616   2.821   6.791 -2.7199 -1.8806  1.8672
 2639SOL     vw10556   0.584   2.900   6.811 -0.4856 -0.2671 -0.2749
 2640SOL     ow10557   4.501   2.819   2.337  0.3067 -0.6430 -0.0196
 2640SOL     hw10558   4.473   2.906   2.307  0.4234 -1.1709 -1.7712
 2640SOL     hw10559   4.458   2.809   2.422  0.9592  1.4556  0.6330
 2640SOL     vw10560   4.491   2.829   2.345  0.4082 -0.4357 -0.1646
 2641SOL     ow10561   6.583   4.709   5.720  0.6229  0.0897 -0.3177
 2641SOL     hw10562   6.547   4.676   5.802  0.6524  2.4233  0.7122
 2641SOL     hw10563   6.579   4.634   5.660  0.4586 -1.6435  1.7344
 2641SOL     vw10564   6.578   4.695   5.723  0.6049  0.1690  0.0887
 2642SOL     ow10565   5.306   7.561   0.546 -0.0873  0.2623 -0.0661
 2642SOL     hw10566   5.340   7.482   0.503 -1.2680 -0.6645  0.6639
 2642SOL     hw10567   5.251   7.602   0.479  0.1521  0.2217 -0.2908
 2642SOL     vw10568   5.303   7.556   0.531 -0.2115  0.1347  0.0006
 2643SOL     ow10569   3.314   5.651   2.701 -0.0385  0.4046 -0.4326
 2643SOL     hw10570   3.361   5.586   2.753 -0.4024 -0.6957 -1.4267
 2643SOL     hw10571   3.289   5.718   2.763 -1.0741 -1.1962  0.9690
 2643SOL     vw10572   3.317   5.651   2.716 -0.2232  0.0484 -0.3788
 2644SOL     ow10573   0.807   1.304   7.055 -0.0935  0.2308  0.3564
 2644SOL     hw10574   0.772   1.340   7.137 -0.1599  1.4120 -0.1653
 2644SOL     hw10575   0.813   1.380   6.996  1.4863 -0.2930 -0.2096
 2644SOL     vw10576   0.803   1.319   7.058  0.1062  0.3175  0.2129
 2645SOL     ow10577   6.305   4.901   2.349  0.0724 -1.0313 -0.5881
 2645SOL     hw10578   6.271   4.812   2.356  0.0865 -1.2128 -2.3623
 2645SOL     hw10579   6.390   4.898   2.392  0.8659 -2.3564 -2.1416
 2645SOL     vw10580   6.311   4.889   2.356  0.1791 -1.2305 -1.0272
 2646SOL     ow10581   3.868   5.261   3.119  0.2587  0.3943  0.1302
 2646SOL     hw10582   3.897   5.214   3.197 -0.0915 -0.1922 -0.0774
 2646SOL     hw10583   3.947   5.273   3.066  0.4014  0.3011  0.3238
 2646SOL     vw10584   3.882   5.256   3.122  0.2313  0.3049  0.1283
 2647SOL     ow10585   4.584   4.672   3.817  0.2464  0.4737 -0.5423
 2647SOL     hw10586   4.628   4.641   3.897  3.1636 -1.3235 -2.6320
 2647SOL     hw10587   4.552   4.592   3.775 -1.6524  1.4308 -1.0166
 2647SOL     vw10588   4.586   4.657   3.822  0.3808  0.3629 -0.8806
 2648SOL     ow10589   4.871   6.017   6.712 -0.4796  0.4912  0.2831
 2648SOL     hw10590   4.802   6.053   6.655 -1.0323  1.8085  1.7095
 2648SOL     hw10591   4.905   5.941   6.664 -2.0597  0.5616 -1.0301
 2648SOL     vw10592   4.866   6.012   6.698 -0.7610  0.6742  0.2980
 2649SOL     ow10593   4.446   6.980   6.534 -0.5099 -0.1343  0.1290
 2649SOL     hw10594   4.369   6.942   6.492  1.2425 -0.3879 -3.2243
 2649SOL     hw10595   4.444   7.073   6.509 -1.5430  0.7689  3.1376
 2649SOL     vw10596   4.436   6.987   6.525 -0.4151 -0.0486  0.0834
 2650SOL     ow10597   1.381   6.301   6.599  0.3654  0.1314  0.1276
 2650SOL     hw10598   1.325   6.370   6.562 -1.3494 -1.0970  0.3276
 2650SOL     hw10599   1.386   6.235   6.530  2.6559  0.7303 -0.3687
 2650SOL     vw10600   1.375   6.302   6.585  0.4413  0.0482  0.0885
 2651SOL     ow10601   3.904   6.521   1.223 -0.0721  0.3079  0.1413
 2651SOL     hw10602   3.904   6.609   1.261 -0.0359  1.4667 -2.3610
 2651SOL     hw10603   3.993   6.489   1.236 -0.5610 -0.2181  2.7594
 2651SOL     vw10604   3.916   6.529   1.230 -0.1316  0.3912  0.1566
 2652SOL     ow10605   3.598   4.007   4.001  0.8415 -0.0372 -0.4528
 2652SOL     hw10606   3.536   4.013   4.073  0.7218 -2.3316 -0.3116
 2652SOL     hw10607   3.580   4.084   3.947 -0.4883  0.5936  0.8445
 2652SOL     vw10608   3.587   4.018   4.003  0.6502 -0.2568 -0.2630
 2653SOL     ow10609   6.904   2.977   1.500 -0.7583 -0.0694  0.0411
 2653SOL     hw10610   6.841   2.905   1.508 -1.2691  0.4056  0.3738
 2653SOL     hw10611   6.853   3.049   1.462 -0.1671  0.0181 -0.6095
 2653SOL     vw10612   6.889   2.977   1.496 -0.7477  0.0049 -0.0008
 2654SOL     ow10613   0.088   3.976   6.952 -0.3049  0.0901 -0.0239
 2654SOL     hw10614   0.017   4.016   7.001  1.0948  2.3289  0.3306
 2654SOL     hw10615   0.066   3.989   6.860  0.2026  1.9806  0.0806
 2654SOL     vw10616   0.076   3.983   6.947 -0.0533  0.6349  0.0370
 2655SOL     ow10617   3.953   2.194   0.802  0.5782 -0.0961  0.6298
 2655SOL     hw10618   3.911   2.248   0.868  2.8590 -1.7421  3.6621
 2655SOL     hw10619   4.022   2.250   0.766 -1.2080  1.0972 -1.1521
 2655SOL     vw10620   3.957   2.209   0.806  0.6434 -0.1558  0.7948
 2656SOL     ow10621   3.003   1.660   1.007  0.2109 -0.8760  0.4389
 2656SOL     hw10622   3.097   1.680   1.004  0.0058  0.5266  1.9630
 2656SOL     hw10623   2.993   1.582   0.952  1.6166  1.2213 -3.0798
 2656SOL     vw10624   3.014   1.652   1.000  0.3693 -0.4143  0.1757
 2657SOL     ow10625   0.872   6.393   2.443 -0.0132  0.4465 -0.3999
 2657SOL     hw10626   0.912   6.370   2.358 -0.1353 -0.4523 -0.2240
 2657SOL     hw10627   0.945   6.428   2.494  0.9491 -2.3774  0.3768
 2657SOL     vw10628   0.887   6.394   2.438  0.0976 -0.0446 -0.2742
 2658SOL     ow10629   4.308   3.756   1.680  0.0580  0.0234  0.0408
 2658SOL     hw10630   4.272   3.691   1.620  1.2876 -1.1045  0.4942
 2658SOL     hw10631   4.280   3.840   1.643 -3.5970 -0.7281  0.7219
 2658SOL     vw10632   4.300   3.759   1.667 -0.2623 -0.2246  0.1904
 2659SOL     ow10633   3.315   1.479   3.589  0.2934 -0.4436  0.1865
 2659SOL     hw10634   3.279   1.527   3.514  2.0428  1.6068  0.5313
 2659SOL     hw10635   3.311   1.387   3.563  0.7991  0.1735 -2.4477
 2659SOL     vw10636   3.310   1.474   3.575  0.5910 -0.0917 -0.1156
 2660SOL     ow10637   5.373   3.194   3.973  0.2706 -0.3871  0.4099
 2660SOL     hw10638   5.325   3.265   4.015  0.2055 -1.0183  1.4436
 2660SOL     hw10639   5.465   3.215   3.988  0.3054  0.2537 -0.6154
 2660SOL     vw10640   5.379   3.206   3.981  0.2668 -0.3859  0.4112
 2661SOL     ow10641   0.281   2.551   2.604 -0.0720  0.1488  0.7438
 2661SOL     hw10642   0.207   2.511   2.559 -1.3572  0.5210  2.4055
 2661SOL     hw10643   0.328   2.599   2.536 -1.2976 -0.1809 -0.3659
 2661SOL     vw10644   0.278   2.552   2.589 -0.4033  0.1544  0.8166
 2662SOL     ow10645   4.771   3.240   7.004 -0.4476  0.1278 -0.6525
 2662SOL     hw10646   4.738   3.208   7.088 -1.3397  1.7103 -0.3645
 2662SOL     hw10647   4.711   3.203   6.939 -1.8217  1.5974 -0.2753
 2662SOL     vw10648   4.759   3.231   7.007 -0.7463  0.5305 -0.5648
 2663SOL     ow10649   7.275   2.971   1.179 -0.8113 -0.2760 -0.7087
 2663SOL     hw10650   7.265   2.879   1.155 -0.8829 -1.4515  3.1366
 2663SOL     hw10651   7.185   3.004   1.185 -0.7850  0.1010 -2.1146
 2663SOL     vw10652   7.262   2.963   1.177 -0.8173 -0.3815 -0.3868
 2664SOL     ow10653   1.306   1.910   7.020 -0.0859  0.1848  0.2356
 2664SOL     hw10654   1.336   1.991   7.059  0.2964 -0.1196  0.5804
 2664SOL     hw10655   1.376   1.884   6.960  0.1241 -0.2657  0.6706
 2664SOL     vw10656   1.319   1.917   7.017 -0.0077  0.0852  0.3386
 2665SOL     ow10657   2.081   2.764   4.787  0.2717  0.0779 -0.0558
 2665SOL     hw10658   2.129   2.686   4.814  0.5515 -1.0293 -3.2741
 2665SOL     hw10659   2.107   2.777   4.696  0.2906  4.0283  0.3493
 2665SOL     vw10660   2.091   2.756   4.778  0.3111  0.4531 -0.4268
 2666SOL     ow10661   2.222   3.437   3.447  0.1786  0.3350  0.0899
 2666SOL     hw10662   2.277   3.462   3.373 -0.1290  1.7351  0.3096
 2666SOL     hw10663   2.163   3.369   3.413  1.2305 -0.3314 -0.4523
 2666SOL     vw10664   2.222   3.431   3.433  0.2768  0.4319  0.0473
 2667SOL     ow10665   6.015   6.489   7.511 -0.1848 -0.1870 -0.3381
 2667SOL     hw10666   6.030   6.408   7.462 -3.1520 -0.7172 -0.5237
 2667SOL     hw10667   5.980   6.459   7.595  1.4650  0.8533  0.7669
 2667SOL     vw10668   6.012   6.474   7.516 -0.3588 -0.1197 -0.2170
 2668SOL     ow10669   7.562   6.304   6.826 -0.0368  0.5896 -0.4291
 2668SOL     hw10670   7.601   6.384   6.862  2.6371 -1.2543  1.1796
 2668SOL     hw10671   7.468   6.322   6.825  0.1606  2.7260  2.7395
 2668SOL     vw10672   7.555   6.317   6.831  0.3419  0.6280  0.2015
 2669SOL     ow10673   1.691   0.349   6.109 -0.2412 -0.0029 -0.1167
 2669SOL     hw10674   1.785   0.355   6.096 -0.3612 -1.4180 -2.4399
 2669SOL     hw10675   1.676   0.256   6.129 -1.1518  0.0811 -0.3607
 2669SOL     vw10676   1.701   0.337   6.110 -0.3772 -0.1785 -0.4556
 2670SOL     ow10677   3.726   6.241   3.108  0.1707  0.8193 -0.2094
 2670SOL     hw10678   3.711   6.262   3.201 -0.3537  0.4052 -0.1956
 2670SOL     hw10679   3.745   6.325   3.067 -1.9344  1.3658 -0.1645
 2670SOL     vw10680   3.727   6.255   3.115 -0.1762  0.8368 -0.2017
 2671SOL     ow10681   2.437   2.257   0.693 -0.2325 -0.2834 -0.8484
 2671SOL     hw10682   2.396   2.236   0.609  0.6743 -1.5954 -0.9932
 2671SOL     hw10683   2.403   2.343   0.715 -2.0988 -0.7840 -1.5544
 2671SOL     vw10684   2.427   2.265   0.684 -0.3592 -0.5226 -0.9606
 2672SOL     ow10685   2.853   7.469   6.444 -0.6716 -0.2270  0.2702
 2672SOL     hw10686   2.787   7.399   6.445  0.0476 -0.9169  1.5723
 2672SOL     hw10687   2.843   7.512   6.528  2.4707 -2.2490  1.8443
 2672SOL     vw10688   2.843   7.465   6.455 -0.1621 -0.5851  0.6497
 2673SOL     ow10689   3.426   4.630   1.117  0.0960  1.2622 -0.2734
 2673SOL     hw10690   3.362   4.629   1.046 -1.2722 -0.7430  0.8884
 2673SOL     hw10691   3.462   4.541   1.118  1.8601  1.9274  0.0631
 2673SOL     vw10692   3.422   4.618   1.108  0.1482  1.0850 -0.0757
 2674SOL     ow10693   4.826   3.251   0.920  0.7273 -0.2235  0.0703
 2674SOL     hw10694   4.856   3.282   0.835 -0.7555 -0.9925 -0.7638
 2674SOL     hw10695   4.818   3.331   0.973 -0.1029  0.4804 -1.0823
 2674SOL     vw10696   4.829   3.266   0.916  0.4220 -0.2320 -0.1919
 2675SOL     ow10697   1.338   0.737   6.584 -0.2875  0.9321  0.1701
 2675SOL     hw10698   1.355   0.830   6.600  0.0721  0.9119 -0.0781
 2675SOL     hw10699   1.321   0.732   6.490 -3.1151  1.1677  0.5769
 2675SOL     vw10700   1.338   0.749   6.574 -0.6131  0.9605  0.1912
 2676SOL     ow10701   1.131   0.515   6.588  0.0834  0.3005 -0.0452
 2676SOL     hw10702   1.058   0.540   6.532 -0.3023  2.5674  1.3423
 2676SOL     hw10703   1.156   0.428   6.557 -0.1311  1.3535 -3.6406
 2676SOL     vw10704   1.125   0.507   6.576  0.0041  0.7386 -0.3366
 2677SOL     ow10705   0.592   2.423   2.434 -0.0845 -0.1136 -0.2139
 2677SOL     hw10706   0.540   2.502   2.425 -0.2004 -0.2352 -0.6745
 2677SOL     hw10707   0.530   2.357   2.466  0.4512  0.4565  2.2213
 2677SOL     vw10708   0.577   2.424   2.437 -0.0292 -0.0544  0.0465
 2678SOL     ow10709   1.073   5.412   6.519  0.5292 -0.4467 -0.5737
 2678SOL     hw10710   1.102   5.324   6.542 -0.4413 -0.5629  0.2723
 2678SOL     hw10711   1.116   5.469   6.583 -1.1462 -0.6365  0.7899
 2678SOL     vw10712   1.083   5.408   6.531  0.1801 -0.4871 -0.2820
 2679SOL     ow10713   6.934   5.987   1.411  0.7439  0.7788  0.2600
 2679SOL     hw10714   6.925   6.054   1.478 -3.2744  1.1474 -0.4191
 2679SOL     hw10715   6.948   6.036   1.330 -1.5706  0.9010 -0.1387
 2679SOL     vw10716   6.935   6.002   1.409 -0.0916  0.8433  0.1178
 2680SOL     ow10717   4.287   6.671   7.421  0.3117 -0.3348 -0.0425
 2680SOL     hw10718   4.325   6.582   7.420 -0.6325 -0.7755  1.2229
 2680SOL     hw10719   4.198   6.659   7.453  0.0898  1.0644 -0.0719
 2680SOL     vw10720   4.281   6.657   7.425  0.1581 -0.2081  0.1206
 2681SOL     ow10721   6.944   7.169   5.174  1.1179  0.0624  0.5539
 2681SOL     hw10722   7.024   7.122   5.150 -0.1729 -3.3707  2.4288
 2681SOL     hw10723   6.919   7.133   5.258 -2.0148  1.6316  0.4203
 2681SOL     vw10724   6.951   7.158   5.182  0.5341 -0.1833  0.7837
 2682SOL     ow10725   5.492   2.509   3.588 -0.2123 -0.1479 -0.1361
 2682SOL     hw10726   5.413   2.515   3.642  1.0019  1.9943  1.5876
 2682SOL     hw10727   5.541   2.436   3.625 -0.1443  0.2849  0.6675
 2682SOL     vw10728   5.488   2.500   3.600 -0.0434  0.1918  0.1974
 2683SOL     ow10729   4.697   6.402   7.198  0.5548 -0.8253 -0.3248
 2683SOL     hw10730   4.618   6.352   7.217  1.5683 -2.2290  0.4061
 2683SOL     hw10731   4.769   6.341   7.216  1.8046  0.2591 -1.3869
 2683SOL     vw10732   4.696   6.387   7.203  0.8533 -0.8674 -0.3684
 2684SOL     ow10733   4.008   6.551   5.667 -0.0336  0.5112  0.2223
 2684SOL     hw10734   3.937   6.488   5.655 -0.8354  1.5651 -0.8395
 2684SOL     hw10735   3.987   6.597   5.747 -1.0184  1.3816 -0.5204
 2684SOL     vw10736   3.996   6.548   5.676 -0.2694  0.7648 -0.0160
 2685SOL     ow10737   2.683   1.669   5.806  0.0880  0.6761  0.0782
 2685SOL     hw10738   2.707   1.604   5.741 -0.4586 -0.9774  1.4388
 2685SOL     hw10739   2.590   1.652   5.823 -0.4211  2.6960 -0.4650
 2685SOL     vw10740   2.674   1.658   5.800 -0.0513  0.7244  0.1860
 2686SOL     ow10741   3.510   2.305   4.167  0.0491  1.0415  0.5541
 2686SOL     hw10742   3.499   2.217   4.131  1.5637  1.7374 -1.7791
 2686SOL     hw10743   3.424   2.346   4.158 -0.5353 -0.0059  1.1909
 2686SOL     vw10744   3.497   2.299   4.161  0.1718  0.9952  0.3302
 2687SOL     ow10745   5.646   4.202   5.493  0.2688 -0.0595 -0.7696
 2687SOL     hw10746   5.561   4.222   5.454  1.2697  0.9575 -2.5210
 2687SOL     hw10747   5.639   4.236   5.583 -0.4329  2.0787 -1.5729
 2687SOL     vw10748   5.634   4.209   5.500  0.3083  0.3569 -1.1067
 2688SOL     ow10749   2.810   5.708   5.404  0.2854 -0.0543 -0.7025
 2688SOL     hw10750   2.808   5.738   5.313 -1.6266 -0.1133 -0.7103
 2688SOL     hw10751   2.784   5.785   5.454  0.6492 -0.2239 -0.2471
 2688SOL     vw10752   2.806   5.722   5.398  0.0811 -0.0844 -0.6433
 2689SOL     ow10753   6.913   4.317   3.834  0.2552 -0.3283 -0.0789
 2689SOL     hw10754   6.903   4.376   3.759  3.9539  0.3597 -0.1954
 2689SOL     hw10755   6.861   4.358   3.903 -1.4025  0.2273 -1.5593
 2689SOL     vw10756   6.905   4.330   3.833  0.5245 -0.1640 -0.2896
 2690SOL     ow10757   4.171   5.317   4.220  0.1756  0.3618  0.3682
 2690SOL     hw10758   4.126   5.267   4.152  0.8041  1.5345 -0.9389
 2690SOL     hw10759   4.217   5.250   4.272 -0.1561 -0.5277 -0.4555
 2690SOL     vw10760   4.171   5.301   4.218  0.2148  0.3994  0.0870
 2691SOL     ow10761   4.388   3.309   3.409  0.3223  0.4259 -0.1653
 2691SOL     hw10762   4.421   3.399   3.403 -1.9565  1.4554  1.1937
 2691SOL     hw10763   4.294   3.320   3.426  0.1462 -2.2070  0.9853
 2691SOL     vw10764   4.380   3.322   3.410 -0.0014  0.2143  0.1658
 2692SOL     ow10765   3.026   2.222   1.458  0.2521  0.5091  0.1354
 2692SOL     hw10766   3.098   2.166   1.429 -1.5211 -1.4494 -0.7486
 2692SOL     hw10767   3.051   2.310   1.430  2.5726  0.0012  0.4637
 2692SOL     vw10768   3.039   2.227   1.450  0.3242  0.1838  0.0622
 2693SOL     ow10769   1.384   4.804   0.284 -0.6080 -0.0003 -0.6383
 2693SOL     hw10770   1.455   4.856   0.247 -0.0622 -0.5125 -0.3248
 2693SOL     hw10771   1.366   4.845   0.369 -0.8524  0.2725 -0.8189
 2693SOL     vw10772   1.391   4.816   0.290 -0.5682 -0.0319 -0.6208
 2694SOL     ow10773   0.968   1.461   4.507  0.3101 -0.3934 -0.6806
 2694SOL     hw10774   0.925   1.383   4.542 -0.0122  0.3661  0.6613
 2694SOL     hw10775   0.931   1.534   4.556 -0.0846  0.7452 -2.5464
 2694SOL     vw10776   0.958   1.460   4.518  0.2155 -0.1430 -0.7498
 2695SOL     ow10777   1.559   4.893   2.264  0.4227 -0.1790  0.5010
 2695SOL     hw10778   1.652   4.897   2.243  0.2647  1.4280 -0.0237
 2695SOL     hw10779   1.555   4.896   2.359  0.8762  1.5849  0.4890
 2695SOL     vw10780   1.571   4.894   2.274  0.4618  0.2661  0.4301
 2696SOL     ow10781   2.461   2.242   7.010  0.1188  0.1388 -0.3439
 2696SOL     hw10782   2.456   2.334   7.034  3.3059  0.1157  1.0302
 2696SOL     hw10783   2.410   2.197   7.078  0.7274  0.7595  0.5488
 2696SOL     vw10784   2.454   2.248   7.022  0.6196  0.2176 -0.0446
 2697SOL     ow10785   2.036   3.160   6.221  0.1550 -0.1459 -0.3703
 2697SOL     hw10786   2.052   3.225   6.290  0.1576 -0.0994 -0.4148
 2697SOL     hw10787   1.942   3.144   6.226 -0.2998  1.7250 -1.9997
 2697SOL     vw10788   2.026   3.167   6.231  0.0952  0.1070 -0.5910
 2698SOL     ow10789   2.340   4.194   5.887  0.7060 -0.1942 -0.1911
 2698SOL     hw10790   2.365   4.191   5.980 -0.5742  0.0493  0.1803
 2698SOL     hw10791   2.341   4.103   5.859 -1.3434 -0.5764  0.7818
 2698SOL     vw10792   2.343   4.182   5.896  0.2669 -0.2127 -0.0138
 2699SOL     ow10793   7.275   3.567   0.069 -0.3161 -0.4559  1.2084
 2699SOL     hw10794   7.212   3.639   0.058 -0.9566 -0.8748  2.0514
 2699SOL     hw10795   7.357   3.611   0.091 -0.7392  0.0207  1.8726
 2699SOL     vw10796   7.278   3.583   0.070 -0.4563 -0.4482  1.4072
 2700SOL     ow10797   5.317   6.696   4.559  0.0325 -0.2184 -0.4746
 2700SOL     hw10798   5.249   6.747   4.602 -2.6003 -3.1264 -0.8346
 2700SOL     hw10799   5.300   6.707   4.465 -0.2780 -1.3478 -0.5606
 2700SOL     vw10800   5.306   6.704   4.552 -0.3557 -0.7510 -0.5336
 2701SOL     ow10801   5.546   3.780   3.424 -0.0421  1.0172  0.8589
 2701SOL     hw10802   5.566   3.859   3.475  0.3063  1.6416 -0.2280
 2701SOL     hw10803   5.459   3.797   3.387  0.3742  1.2514 -0.0349
 2701SOL     vw10804   5.537   3.793   3.426  0.0589  1.1305  0.5976
 2702SOL     ow10805   5.446   3.092   4.275  0.4411 -0.0836  0.0297
 2702SOL     hw10806   5.380   3.034   4.237  1.0824 -0.6968 -0.1615
 2702SOL     hw10807   5.529   3.045   4.264  1.0960  1.2215 -0.8905
 2702SOL     vw10808   5.448   3.078   4.268  0.6123  0.0075 -0.1171
 2703SOL     ow10809   3.814   3.018   5.635 -0.1290 -0.0677  0.0140
 2703SOL     hw10810   3.758   2.943   5.615  0.3978 -0.9127  1.5538
 2703SOL     hw10811   3.758   3.094   5.622 -0.9676 -0.7740 -0.6206
 2703SOL     vw10812   3.799   3.018   5.630 -0.1701 -0.2724  0.1335
 2704SOL     ow10813   2.831   1.400   1.331  0.3681  0.1485  0.0536
 2704SOL     hw10814   2.738   1.411   1.310  0.2291  2.3327  1.5096
 2704SOL     hw10815   2.832   1.378   1.424  1.3382  4.1146  1.1501
 2704SOL     vw10816   2.819   1.398   1.341  0.4778  0.9601  0.3904
 2705SOL     ow10817   5.102   2.750   4.080 -0.1429 -0.1853 -0.1898
 2705SOL     hw10818   5.144   2.664   4.080  0.7033  0.2199  0.1358
 2705SOL     hw10819   5.073   2.762   3.989 -0.9986 -1.1457 -0.0712
 2705SOL     vw10820   5.103   2.740   4.068 -0.1442 -0.2586 -0.1309
 2706SOL     ow10821   4.609   7.071   7.254 -0.0723  0.0794  0.1787
 2706SOL     hw10822   4.680   7.043   7.311  0.2777 -0.9290 -0.7029
 2706SOL     hw10823   4.529   7.041   7.298  0.0562  0.9612  1.0282
 2706SOL     vw10824   4.608   7.063   7.267 -0.0091  0.0627  0.1745
 2707SOL     ow10825   6.349   2.495   6.606  0.4513  0.5510  0.0029
 2707SOL     hw10826   6.381   2.533   6.524  0.1415 -2.0067 -1.3962
 2707SOL     hw10827   6.258   2.524   6.612  0.1741 -0.0173 -1.1224
 2707SOL     vw10828   6.341   2.504   6.596  0.3738  0.1385 -0.3304
 2708SOL     ow10829   6.598   0.156   7.138  1.2322  0.1070 -0.2548
 2708SOL     hw10830   6.671   0.116   7.185  3.0895  0.2213 -2.7797
 2708SOL     hw10831   6.577   0.092   7.069 -1.7170 -0.3008  0.8733
 2708SOL     vw10832   6.605   0.142   7.135  1.0881  0.0683 -0.4392
 2709SOL     ow10833   1.750   2.870   4.559 -0.0494  0.5054 -0.0631
 2709SOL     hw10834   1.810   2.923   4.612  0.6913 -0.2131 -0.1792
 2709SOL     hw10835   1.734   2.923   4.481  1.5122  0.1347 -0.6634
 2709SOL     vw10836   1.756   2.884   4.556  0.2544  0.3616 -0.1578
 2710SOL     ow10837   3.943   3.695   4.205 -0.1385  0.0088  0.4828
 2710SOL     hw10838   3.899   3.769   4.162  0.8357  0.3002 -0.0616
 2710SOL     hw10839   3.964   3.727   4.292  3.8092  1.9525 -0.9393
 2710SOL     vw10840   3.940   3.709   4.211  0.5108  0.3036  0.2232
 2711SOL     ow10841   3.918   0.924   5.630  0.0896  0.0312  0.0885
 2711SOL     hw10842   3.919   0.956   5.720 -3.1801 -0.4953  0.4541
 2711SOL     hw10843   3.881   0.996   5.579 -1.8547 -1.0099 -0.0693
 2711SOL     vw10844   3.913   0.937   5.635 -0.5983 -0.1756  0.1159
 2712SOL     ow10845   3.864   1.261   6.810 -0.3442  0.1934 -0.1659
 2712SOL     hw10846   3.933   1.269   6.876  0.7756  0.9274 -1.3808
 2712SOL     hw10847   3.911   1.246   6.728 -1.6623  0.1849 -0.9413
 2712SOL     vw10848   3.879   1.260   6.808 -0.3703  0.2891 -0.4284
 2713SOL     ow10849   0.201   4.238   6.989  0.3682  0.1733  0.0196
 2713SOL     hw10850   0.116   4.217   6.951  0.6064 -2.3495  0.7368
 2713SOL     hw10851   0.213   4.331   6.971 -2.1435  0.3900 -0.8387
 2713SOL     vw10852   0.192   4.248   6.981  0.0683 -0.1309  0.0010
 2714SOL     ow10853   2.808   6.149   6.144  0.4057 -0.6926 -0.1498
 2714SOL     hw10854   2.840   6.060   6.160  1.8746 -0.5512 -1.9206
 2714SOL     hw10855   2.782   6.149   6.052  0.6706  0.7701 -0.2521
 2714SOL     vw10856   2.809   6.137   6.134  0.6344 -0.4809 -0.3967
 2715SOL     ow10857   6.844   4.419   1.617 -0.0828  0.5190 -0.5188
 2715SOL     hw10858   6.876   4.455   1.534 -0.0448  2.2038  0.1898
 2715SOL     hw10859   6.749   4.427   1.611 -0.0832  0.5838 -0.4141
 2715SOL     vw10860   6.835   4.425   1.605 -0.0777  0.7498 -0.4115
 2716SOL     ow10861   1.990   4.002   1.093  0.1704 -0.0541 -0.6527
 2716SOL     hw10862   1.931   4.014   1.168  0.9357 -0.2614  0.0038
 2716SOL     hw10863   2.000   3.907   1.085  1.7899 -0.0089  0.3833
 2716SOL     vw10864   1.984   3.991   1.102  0.4851 -0.0756 -0.4294
 2717SOL     ow10865   1.387   1.319   3.378 -0.4929 -0.4530 -0.2662
 2717SOL     hw10866   1.471   1.359   3.354 -0.3148 -0.7534 -0.1518
 2717SOL     hw10867   1.350   1.380   3.442 -1.6391  1.1080 -2.2932
 2717SOL     vw10868   1.393   1.333   3.384 -0.6206 -0.2866 -0.5184
 2718SOL     ow10869   2.318   7.523   4.532  0.5823  0.4275  0.5236
 2718SOL     hw10870   2.384   7.528   4.463  0.5148  0.9023  0.4910
 2718SOL     hw10871   2.360   7.475   4.603  1.2199  1.3684  0.7912
 2718SOL     vw10872   2.332   7.517   4.533  0.6576  0.6144  0.5548
 2719SOL     ow10873   5.273   1.543   5.440  0.0717  0.8014 -0.0891
 2719SOL     hw10874   5.306   1.566   5.354 -0.2407  0.3717 -0.3292
 2719SOL     hw10875   5.185   1.509   5.424  0.2069  0.2258  0.3355
 2719SOL     vw10876   5.266   1.542   5.427  0.0482  0.6688 -0.0648
 2720SOL     ow10877   6.304   3.986   5.237  0.1143 -0.8034  0.5660
 2720SOL     hw10878   6.285   4.072   5.274 -2.1542 -2.0201  2.5222
 2720SOL     hw10879   6.219   3.951   5.211  0.7183 -3.1084  1.4000
 2720SOL     vw10880   6.291   3.993   5.238 -0.1054 -1.2680  0.9339
 2721SOL     ow10881   2.273   2.529   0.992 -0.7708 -0.2444  0.4106
 2721SOL     hw10882   2.314   2.533   0.905  1.2173 -0.0469  1.2948
 2721SOL     hw10883   2.179   2.528   0.974 -0.5460  2.8242 -1.6454
 2721SOL     vw10884   2.266   2.529   0.978 -0.4789  0.1867  0.2560
 2722SOL     ow10885   3.958   1.174   2.211  0.2155  0.5522  0.4089
 2722SOL     hw10886   3.947   1.257   2.165 -3.1047  0.4172  0.6854
 2722SOL     hw10887   4.011   1.196   2.288  0.6799  2.0616 -0.3051
 2722SOL     vw10888   3.963   1.188   2.215 -0.1613  0.7336  0.3512
 2723SOL     ow10889   6.683   3.083   2.931 -0.4323  0.2177 -0.3157
 2723SOL     hw10890   6.606   3.121   2.891 -1.6695  0.2910  1.9602
 2723SOL     hw10891   6.668   2.989   2.930  0.8195 -0.0334 -2.3845
 2723SOL     vw10892   6.671   3.076   2.926 -0.4299  0.1942 -0.2884
 2724SOL     ow10893   2.578   7.284   7.532  0.4286 -0.3943 -0.6217
 2724SOL     hw10894   2.543   7.369   7.506 -0.8693 -0.8881 -0.5625
 2724SOL     hw10895   2.555   7.224   7.461  0.8400 -0.8114 -0.4141
 2724SOL     vw10896   2.571   7.287   7.519  0.3116 -0.5145 -0.5865
 2725SOL     ow10897   4.883   2.657   3.166 -0.6443 -0.5918  0.6560
 2725SOL     hw10898   4.922   2.680   3.082 -1.3851  0.7133  0.6354
 2725SOL     hw10899   4.951   2.608   3.212  0.5455  0.4841  0.1176
 2725SOL     vw10900   4.897   2.654   3.161 -0.5848 -0.2779  0.5821
 2726SOL     ow10901   1.256   1.002   3.161 -0.1934 -0.7203  0.3473
 2726SOL     hw10902   1.205   1.082   3.157 -0.3805 -0.8713 -0.7579
 2726SOL     hw10903   1.206   0.944   3.218 -0.7246 -0.4967  0.1138
 2726SOL     vw10904   1.243   1.005   3.168 -0.2882 -0.7107  0.1708
 2727SOL     ow10905   1.071   0.009   6.301 -0.0612  0.4637  0.4568
 2727SOL     hw10906   1.125   0.063   6.243  1.4187 -1.1667  0.2368
 2727SOL     hw10907   1.108   0.024   6.388 -0.3656  0.6334  0.5586
 2727SOL     vw10908   1.083   0.018   6.305  0.0939  0.2708  0.4411
 2728SOL     ow10909   1.630   5.595   0.460 -0.2596 -0.0727 -0.6204
 2728SOL     hw10910   1.578   5.627   0.534 -0.5099  0.5427 -1.0583
 2728SOL     hw10911   1.675   5.673   0.427 -0.1678 -0.3415 -1.1327
 2728SOL     vw10912   1.629   5.610   0.465 -0.2806 -0.0269 -0.7458
 2729SOL     ow10913   0.630   5.212   4.463  0.3313 -0.4403 -0.4978
 2729SOL     hw10914   0.573   5.288   4.467 -0.8559 -1.0147 -3.8295
 2729SOL     hw10915   0.708   5.238   4.513 -0.0183  2.9569 -1.4813
 2729SOL     vw10916   0.633   5.226   4.470  0.1286 -0.0679 -1.0674
 2730SOL     ow10917   1.145   0.222   4.655  0.2046 -0.2791 -0.1392
 2730SOL     hw10918   1.198   0.275   4.715  1.0557  0.8981 -1.8447
 2730SOL     hw10919   1.074   0.189   4.710 -0.1406  2.2833  1.1522
 2730SOL     vw10920   1.142   0.225   4.671  0.2713  0.2143 -0.1936
 2731SOL     ow10921   2.116   4.549   6.313 -0.4738 -0.5221  0.1751
 2731SOL     hw10922   2.179   4.482   6.341 -1.1213 -0.9305  0.6839
 2731SOL     hw10923   2.061   4.563   6.390 -0.1862  0.7944  0.1671
 2731SOL     vw10924   2.117   4.542   6.327 -0.5214 -0.4022  0.2413
 2732SOL     ow10925   6.174   5.834   2.429 -0.2212 -0.3330 -0.2642
 2732SOL     hw10926   6.119   5.874   2.361 -0.7847 -1.6555 -0.6237
 2732SOL     hw10927   6.262   5.832   2.391  0.1719  1.9302  0.3694
 2732SOL     vw10928   6.178   5.839   2.415 -0.2437 -0.2091 -0.2280
 2733SOL     ow10929   0.265   5.523   3.363  0.0235  0.1774  0.7000
 2733SOL     hw10930   0.245   5.583   3.435 -0.2894  0.1861  0.6065
 2733SOL     hw10931   0.338   5.564   3.317 -0.7597  0.9398  0.1031
 2733SOL     vw10932   0.272   5.536   3.366 -0.1211  0.2792  0.6089
 2734SOL     ow10933   6.251   0.662   7.346 -0.5738  0.1255 -0.4061
 2734SOL     hw10934   6.340   0.694   7.329 -0.8673  0.9528 -0.4201
 2734SOL     hw10935   6.264   0.575   7.382  0.3727  1.0818  1.7682
 2734SOL     vw10936   6.265   0.655   7.349 -0.4878  0.3608 -0.1211
 2735SOL     ow10937   5.094   4.739   6.098  0.0016  0.5247 -0.6591
 2735SOL     hw10938   5.060   4.825   6.075 -0.9014  0.2820 -0.2873
 2735SOL     hw10939   5.021   4.695   6.142  0.4695 -0.4012 -0.7712
 2735SOL     vw10940   5.080   4.745   6.101 -0.0558  0.3705 -0.6249
 2736SOL     ow10941   6.221   7.500   0.192  0.1868  0.5261 -0.6735
 2736SOL     hw10942   6.247   7.421   0.145 -1.5893 -0.6484  0.2104
 2736SOL     hw10943   6.197   7.562   0.123  0.9456  0.0894 -1.3597
 2736SOL     vw10944   6.221   7.498   0.177  0.0527  0.3135 -0.6474
 2737SOL     ow10945   3.879   6.756   1.378 -0.2781  0.1438  0.4497
 2737SOL     hw10946   3.818   6.825   1.400  2.3971  2.2013  2.0131
 2737SOL     hw10947   3.904   6.717   1.462  0.7241 -0.4852 -0.1124
 2737SOL     vw10948   3.874   6.760   1.392  0.2071  0.3324  0.5817
 2738SOL     ow10949   0.819   2.701   0.775  0.0710 -0.2806  1.0381
 2738SOL     hw10950   0.863   2.764   0.831 -0.0029  0.0727  0.7056
 2738SOL     hw10951   0.890   2.651   0.735  0.2542  1.0610 -0.4020
 2738SOL     vw10952   0.834   2.703   0.777  0.0854 -0.0570  0.8042
 2739SOL     ow10953   4.173   1.760   2.116 -0.3782  0.4890  0.1112
 2739SOL     hw10954   4.158   1.671   2.146  0.3617  0.4265  0.3009
 2739SOL     hw10955   4.261   1.759   2.080 -0.5139  1.0489 -0.2528
 2739SOL     vw10956   4.182   1.748   2.115 -0.2985  0.5546  0.0881
 2740SOL     ow10957   6.098   6.726   2.839 -0.2573  0.0886  0.4338
 2740SOL     hw10958   6.147   6.764   2.911  0.2487 -0.2507  0.2803
 2740SOL     hw10959   6.129   6.772   2.761  0.5087 -0.7494  0.2209
 2740SOL     vw10960   6.109   6.737   2.838 -0.0896 -0.0665  0.3854
 2741SOL     ow10961   1.985   2.124   4.756 -0.0154 -0.5947  0.4742
 2741SOL     hw10962   1.972   2.051   4.816 -1.5672 -1.6148 -1.0224
 2741SOL     hw10963   1.986   2.084   4.669  2.9254  0.7276 -0.2468
 2741SOL     vw10964   1.984   2.109   4.753  0.1678 -0.5548  0.1817
 2742SOL     ow10965   7.432   2.435   6.337 -0.3825 -0.3400  0.2146
 2742SOL     hw10966   7.340   2.409   6.336 -0.4735 -0.0167 -0.4081
 2742SOL     hw10967   7.477   2.366   6.290 -0.7482  0.9884 -2.2612
 2742SOL     vw10968   7.426   2.423   6.331 -0.4430 -0.1220 -0.1938
 2743SOL     ow10969   0.258   0.885   4.534  0.2542 -0.1640  0.2472
 2743SOL     hw10970   0.270   0.871   4.440 -0.1948 -0.0803  0.1743
 2743SOL     hw10971   0.347   0.896   4.568  0.4512 -0.6570 -0.0913
 2743SOL     vw10972   0.271   0.885   4.526  0.2210 -0.2181  0.1926
 2744SOL     ow10973   5.317   2.922   3.833 -0.3646  0.0786 -0.3767
 2744SOL     hw10974   5.328   2.883   3.920 -0.6213  0.7383 -0.0455
 2744SOL     hw10975   5.298   2.847   3.775 -0.2838 -0.3500  0.1457
 2744SOL     vw10976   5.316   2.907   3.837 -0.3879  0.1092 -0.2640
 2745SOL     ow10977   0.516   2.876   3.629 -0.6667  0.5781 -0.2400
 2745SOL     hw10978   0.583   2.809   3.641 -2.8105 -1.9235 -1.1088
 2745SOL     hw10979   0.459   2.867   3.705 -1.1075  1.2644 -0.4773
 2745SOL     vw10980   0.517   2.866   3.640 -1.0077  0.3386 -0.3860
 2746SOL     ow10981   2.597   1.625   6.700 -0.0074  0.5125 -0.2334
 2746SOL     hw10982   2.672   1.677   6.672 -0.3094  1.4253  0.6097
 2746SOL     hw10983   2.634   1.539   6.723  0.7877  0.9727  0.2377
 2746SOL     vw10984   2.611   1.620   6.699  0.0577  0.6936 -0.0598
 2747SOL     ow10985   6.740   6.364   1.650  0.2435 -0.3192  0.2141
 2747SOL     hw10986   6.753   6.317   1.732  1.1202  2.1235  1.5898
 2747SOL     hw10987   6.664   6.420   1.666 -1.0068 -1.4274 -1.4904
 2747SOL     vw10988   6.731   6.365   1.663  0.1943 -0.1433  0.1707
 2748SOL     ow10989   0.216   2.907   7.411  0.4058  0.3814 -0.2851
 2748SOL     hw10990   0.129   2.899   7.373  0.3878  0.3786 -0.2437
 2748SOL     hw10991   0.257   2.822   7.396 -1.1963 -1.3381  3.6910
 2748SOL     vw10992   0.210   2.895   7.404  0.1920  0.1541  0.2449
 2749SOL     ow10993   4.912   1.427   1.932 -0.0642 -0.2678  0.6844
 2749SOL     hw10994   4.970   1.357   1.960  0.6946  0.3331  0.6570
 2749SOL     hw10995   4.957   1.507   1.959 -0.0946  0.2677 -0.7769
 2749SOL     vw10996   4.926   1.428   1.939  0.0319 -0.1179  0.4880
 2750SOL     ow10997   0.564   5.630   5.071 -0.2844 -0.2158 -0.1496
 2750SOL     hw10998   0.653   5.662   5.061  0.0009 -1.1680 -0.8169
 2750SOL     hw10999   0.510   5.709   5.071  0.5444  0.3674  0.1945
 2750SOL     vw11000   0.568   5.645   5.069 -0.1374 -0.2644 -0.1919
 2751SOL     ow11001   4.045   3.045   5.466  0.2715  0.8919  0.9208
 2751SOL     hw11002   3.973   3.013   5.521 -0.9941 -1.0962 -1.6383
 2751SOL     hw11003   4.001   3.093   5.396  1.5196  0.5294 -0.1356
 2751SOL     vw11004   4.029   3.047   5.464  0.2689  0.5819  0.4439
 2752SOL     ow11005   6.507   4.474   1.637 -0.0413  0.5055  0.4105
 2752SOL     hw11006   6.421   4.515   1.648  0.4537  1.4289  1.0788
 2752SOL     hw11007   6.557   4.538   1.586  0.6363  0.5634  1.1348
 2752SOL     vw11008   6.502   4.488   1.632  0.1137  0.6349  0.5941
 2753SOL     ow11009   0.514   6.107   2.486 -0.0108  0.4558  0.1491
 2753SOL     hw11010   0.505   6.202   2.494 -0.4232  0.8055 -3.1153
 2753SOL     hw11011   0.600   6.095   2.445 -0.9097 -0.3393 -1.6207
 2753SOL     vw11012   0.525   6.118   2.482 -0.1838  0.3972 -0.5151
 2754SOL     ow11013   3.274   7.071   7.236  0.0468  0.1047  0.2218
 2754SOL     hw11014   3.221   7.016   7.178  1.3339  0.2088 -1.1067
 2754SOL     hw11015   3.299   7.013   7.307 -0.9435 -0.2282  0.3198
 2754SOL     vw11016   3.270   7.056   7.238  0.0859  0.0746  0.0594
 2755SOL     ow11017   4.571   2.513   2.332  0.0682  0.3495 -0.2904
 2755SOL     hw11018   4.507   2.478   2.270 -0.0839  0.9996 -0.5103
 2755SOL     hw11019   4.601   2.437   2.382 -0.9897  0.0570 -0.0769
 2755SOL     vw11020   4.567   2.498   2.331 -0.0913  0.3966 -0.2911
 2756SOL     ow11021   2.427   6.552   5.399  0.7370 -0.2351 -0.5530
 2756SOL     hw11022   2.449   6.460   5.383  0.4898 -0.1600 -1.3275
 2756SOL     hw11023   2.434   6.594   5.314 -0.8590  0.1203 -0.5320
 2756SOL     vw11024   2.431   6.545   5.386  0.4939 -0.1783 -0.6526
 2757SOL     ow11025   3.712   2.790   5.540  0.4739 -0.1695  0.0496
 2757SOL     hw11026   3.776   2.762   5.475 -0.3149 -0.9725 -0.4225
 2757SOL     hw11027   3.633   2.809   5.489  0.5145  1.4819  0.5370
 2757SOL     vw11028   3.710   2.789   5.525  0.3752 -0.0575  0.0517
 2758SOL     ow11029   5.459   6.336   4.118 -0.0297 -0.1025 -0.7728
 2758SOL     hw11030   5.534   6.280   4.136  0.0914  0.6618  1.5087
 2758SOL     hw11031   5.476   6.373   4.032  1.9212 -0.3791 -0.5439
 2758SOL     vw11032   5.471   6.333   4.109  0.2437 -0.0379 -0.4418
 2759SOL     ow11033   6.407   0.530   1.871 -0.4752 -0.4615  0.0996
 2759SOL     hw11034   6.433   0.441   1.849  3.1387  1.0982 -3.2370
 2759SOL     hw11035   6.342   0.553   1.804 -0.1566 -0.0964 -0.0882
 2759SOL     vw11036   6.402   0.521   1.859  0.0439 -0.2075 -0.3654
 2760SOL     ow11037   4.208   1.104   2.073  0.2070  0.0463  0.8440
 2760SOL     hw11038   4.271   1.156   2.023 -0.6372  2.3011  1.9818
 2760SOL     hw11039   4.256   1.075   2.150  0.5779 -0.5403  0.3967
 2760SOL     vw11040   4.222   1.107   2.076  0.1447  0.2664  0.9351
 2761SOL     ow11041   0.243   7.409   2.643  0.1296  0.0653  0.4984
 2761SOL     hw11042   0.152   7.413   2.613  0.8558  1.4974 -1.7990
 2761SOL     hw11043   0.240   7.437   2.734 -1.8903 -1.5390  0.9839
 2761SOL     vw11044   0.231   7.414   2.651 -0.0411  0.0424  0.2594
 2762SOL     ow11045   5.536   6.982   0.584  0.4249 -0.0357 -0.3742
 2762SOL     hw11046   5.615   6.929   0.581 -0.4353 -1.3154 -3.3960
 2762SOL     hw11047   5.542   7.029   0.668  3.8445 -0.8168 -0.0535
 2762SOL     vw11048   5.547   6.982   0.595  0.7625 -0.3076 -0.7306
 2763SOL     ow11049   3.975   4.692   0.517 -1.1823 -0.4995 -0.6106
 2763SOL     hw11050   4.006   4.774   0.554  0.9592 -0.1668 -2.8628
 2763SOL     hw11051   3.885   4.711   0.489 -1.5993  0.2517  1.0929
 2763SOL     vw11052   3.967   4.705   0.518 -0.9547 -0.3564 -0.6829
 2764SOL     ow11053   5.609   7.499   3.110  0.4462 -0.4237  0.0820
 2764SOL     hw11054   5.591   7.592   3.116 -1.8478 -0.9094  2.6099
 2764SOL     hw11055   5.701   7.491   3.138  0.5893  1.0508  0.1012
 2764SOL     vw11056   5.619   7.510   3.115  0.1626 -0.2933  0.4179
 2765SOL     ow11057   3.838   4.564   1.636  0.1105 -0.7102 -0.5750
 2765SOL     hw11058   3.780   4.541   1.564  1.3590  0.0921 -1.8939
 2765SOL     hw11059   3.884   4.483   1.657  0.3026 -0.7795 -1.2351
 2765SOL     vw11060   3.837   4.550   1.630  0.3004 -0.6135 -0.8360
 2766SOL     ow11061   0.787   5.912   1.934 -0.3251 -0.1869 -0.9290
 2766SOL     hw11062   0.762   5.827   1.898  1.7392 -0.3162 -2.2047
 2766SOL     hw11063   0.760   5.908   2.026 -0.5495 -2.0999 -1.0275
 2766SOL     vw11064   0.780   5.900   1.941 -0.0824 -0.4563 -1.1103
 2767SOL     ow11065   0.865   6.227   7.173  0.1189  0.3194 -0.1719
 2767SOL     hw11066   0.834   6.314   7.149 -1.4019 -0.1532 -0.0165
 2767SOL     hw11067   0.820   6.206   7.254 -0.6896 -1.2022 -0.9653
 2767SOL     vw11068   0.855   6.235   7.181 -0.1884  0.0563 -0.2558
 2768SOL     ow11069   3.880   7.507   4.049  0.6937  0.0409 -0.0030
 2768SOL     hw11070   3.941   7.550   3.990  2.2870 -1.9764  0.0386
 2768SOL     hw11071   3.834   7.443   3.994  1.6626 -1.3413  0.7210
 2768SOL     vw11072   3.882   7.504   4.034  1.0318 -0.4075  0.0980
 2769SOL     ow11073   0.803   1.992   4.079  0.2964 -0.4782  0.2703
 2769SOL     hw11074   0.729   1.934   4.061  1.1235 -1.8103  1.0091
 2769SOL     hw11075   0.804   2.000   4.174  2.3045 -2.1990  0.4720
 2769SOL     vw11076   0.794   1.985   4.089  0.6705 -0.8810  0.3946
 2770SOL     ow11077   0.181   1.608   0.216 -1.0587 -0.3377  0.2481
 2770SOL     hw11078   0.165   1.518   0.188  0.7580 -0.2202 -1.4726
 2770SOL     hw11079   0.139   1.662   0.149  0.5885  0.0013 -0.5762
 2770SOL     vw11080   0.173   1.603   0.203 -0.6017 -0.2775 -0.0876
 2771SOL     ow11081   2.837   1.880   0.885  0.4174  0.3788 -0.1195
 2771SOL     hw11082   2.870   1.811   0.943  0.3703  0.3717 -0.1016
 2771SOL     hw11083   2.867   1.962   0.926  0.2395  0.3818  0.0060
 2771SOL     vw11084   2.846   1.882   0.898  0.3878  0.3783 -0.1006
 2772SOL     ow11085   4.105   3.320   3.431  0.2532  0.0040 -0.2573
 2772SOL     hw11086   4.109   3.398   3.376  0.4550  0.3262  0.2160
 2772SOL     hw11087   4.057   3.348   3.509  0.1351 -0.4046 -0.1789
 2772SOL     vw11088   4.099   3.334   3.434  0.2644 -0.0075 -0.1844
 2773SOL     ow11089   6.712   4.204   6.672  0.1447  0.2111  0.1669
 2773SOL     hw11090   6.778   4.138   6.692 -1.1991 -1.3860 -0.3939
 2773SOL     hw11091   6.631   4.169   6.710 -0.6245  1.4806 -0.2489
 2773SOL     vw11092   6.710   4.190   6.679 -0.1338  0.1678  0.0379
 2774SOL     ow11093   4.535   1.905   6.477 -0.4656 -0.0004  0.1302
 2774SOL     hw11094   4.587   1.874   6.402  0.6229 -0.4885  1.0613
 2774SOL     hw11095   4.488   1.827   6.507 -0.5008  0.0770  0.2729
 2774SOL     vw11096   4.536   1.890   6.471 -0.3266 -0.0547  0.2718
 2775SOL     ow11097   1.274   2.215   6.847 -0.5069 -0.5516  0.1068
 2775SOL     hw11098   1.222   2.273   6.903 -0.5676 -0.9362  0.4611
 2775SOL     hw11099   1.253   2.127   6.879 -0.2400 -0.7519 -0.2690
 2775SOL     vw11100   1.265   2.211   6.859 -0.4797 -0.6287  0.1037
 2776SOL     ow11101   4.111   6.733   0.987 -0.7883 -0.8566  0.3136
 2776SOL     hw11102   4.049   6.696   0.924 -0.9424  1.0035 -0.6722
 2776SOL     hw11103   4.197   6.712   0.951 -0.8721 -0.3181 -0.2011
 2776SOL     vw11104   4.114   6.725   0.974 -0.8197 -0.5403  0.1157
 2777SOL     ow11105   1.401   1.499   4.723 -0.0720  0.0500 -0.0056
 2777SOL     hw11106   1.447   1.497   4.639  0.0175 -1.9256  0.0532
 2777SOL     hw11107   1.468   1.525   4.786  0.0860  0.6229 -0.4002
 2777SOL     vw11108   1.416   1.502   4.720 -0.0393 -0.1351 -0.0496
 2778SOL     ow11109   1.845   1.790   3.570 -0.3268 -0.2394  0.6277
 2778SOL     hw11110   1.819   1.876   3.537  0.1075  0.4711  2.0304
 2778SOL     hw11111   1.813   1.728   3.505 -1.1063  0.9500 -0.1558
 2778SOL     vw11112   1.838   1.794   3.557 -0.3724  0.0112  0.7093
 2779SOL     ow11113   2.777   3.427   5.449 -0.2593  0.1892 -0.2727
 2779SOL     hw11114   2.840   3.413   5.519  1.1262 -0.3841 -1.5786
 2779SOL     hw11115   2.747   3.340   5.425 -1.2547  0.4279  0.0441
 2779SOL     vw11116   2.781   3.414   5.455 -0.2077  0.1451 -0.4032
 2780SOL     ow11117   6.721   1.261   5.123  0.4595  0.2887 -0.1047
 2780SOL     hw11118   6.636   1.285   5.086  0.4641  0.1534 -0.2022
 2780SOL     hw11119   6.785   1.306   5.068  0.6072 -1.9756 -1.9154
 2780SOL     vw11120   6.718   1.270   5.111  0.4797 -0.0280 -0.3564
 2781SOL     ow11121   4.642   4.822   1.397  0.6694  0.2705  0.2866
 2781SOL     hw11122   4.663   4.851   1.308 -0.5527  0.1175 -0.0770
 2781SOL     hw11123   4.677   4.733   1.402  0.3671  0.1171 -0.2017
 2781SOL     vw11124   4.649   4.814   1.386  0.4683  0.2301  0.1742
 2782SOL     ow11125   1.123   3.118   4.780 -0.0934  0.0579 -0.2641
 2782SOL     hw11126   1.219   3.126   4.777  0.0949 -0.4923  2.1065
 2782SOL     hw11127   1.108   3.024   4.789 -0.7089  0.3006  1.6096
 2782SOL     vw11128   1.134   3.107   4.781 -0.1498  0.0173  0.2956
 2783SOL     ow11129   6.955   0.616   3.383  0.4546  0.0341 -0.0104
 2783SOL     hw11130   6.895   0.687   3.405  0.1012 -0.6260  1.2730
 2783SOL     hw11131   7.034   0.635   3.434  1.1328  0.5653 -1.2182
 2783SOL     vw11132   6.958   0.628   3.393  0.4976  0.0170 -0.0006
 2784SOL     ow11133   0.149   6.561   1.500  0.0840  0.7116 -0.1255
 2784SOL     hw11134   0.235   6.555   1.459  0.0234 -2.3860 -0.0219
 2784SOL     hw11135   0.088   6.560   1.426  0.0933  0.0458 -0.1306
 2784SOL     vw11136   0.152   6.560   1.485  0.0772  0.2148 -0.1125
 2785SOL     ow11137   7.381   5.675   3.655 -0.9099  0.1371 -0.0136
 2785SOL     hw11138   7.330   5.652   3.577 -2.1116 -1.1826  1.1145
 2785SOL     hw11139   7.467   5.699   3.620 -1.2503 -0.9079 -1.7114
 2785SOL     vw11140   7.386   5.675   3.640 -1.1134 -0.1748 -0.0888
 2786SOL     ow11141   7.409   1.090   2.322  1.0720 -0.4018  0.5112
 2786SOL     hw11142   7.388   1.143   2.399  1.1169  0.0954  0.1861
 2786SOL     hw11143   7.399   1.150   2.248  0.3943 -1.0471  0.0675
 2786SOL     vw11144   7.405   1.105   2.322  0.9882 -0.4213  0.4097
 2787SOL     ow11145   3.421   5.244   3.842  0.3118  0.2526  0.0025
 2787SOL     hw11146   3.398   5.166   3.893  0.5420 -0.2092 -0.5944
 2787SOL     hw11147   3.338   5.288   3.826  0.1807  0.1270  0.3210
 2787SOL     vw11148   3.407   5.240   3.847  0.3250  0.1752 -0.0343
 2788SOL     ow11149   5.524   1.079   6.206  0.4132  0.1463  0.8283
 2788SOL     hw11150   5.521   1.115   6.295 -0.6498  0.7524  0.5532
 2788SOL     hw11151   5.476   0.996   6.212  0.5134  0.0882  0.8485
 2788SOL     vw11152   5.517   1.073   6.219  0.2861  0.2186  0.7949
 2789SOL     ow11153   0.905   4.964   4.467  0.5403  0.0130 -0.2657
 2789SOL     hw11154   0.828   5.010   4.499  1.4200  1.5153 -0.2393
 2789SOL     hw11155   0.921   5.001   4.380  2.2947  1.1013  0.4635
 2789SOL     vw11156   0.897   4.975   4.460  0.8878  0.3545 -0.1662
 2790SOL     ow11157   6.419   3.787   1.476  0.1566  0.4294  0.1584
 2790SOL     hw11158   6.401   3.849   1.547 -0.0507  0.9193 -0.3171
 2790SOL     hw11159   6.430   3.702   1.520  1.9181  1.0409  0.9868
 2790SOL     vw11160   6.418   3.784   1.491  0.3617  0.5748  0.2050
 2791SOL     ow11161   7.134   5.167   5.345  0.3776  0.5198  0.2215
 2791SOL     hw11162   7.121   5.124   5.430  0.4076 -0.3772 -0.2282
 2791SOL     hw11163   7.226   5.192   5.346  0.8529 -1.0860 -0.2574
 2791SOL     vw11164   7.145   5.165   5.357  0.4444  0.1898  0.0989
 2792SOL     ow11165   3.358   3.305   2.078  0.3058 -0.7983 -0.2205
 2792SOL     hw11166   3.357   3.214   2.107 -0.7034 -1.4929 -2.2522
 2792SOL     hw11167   3.415   3.305   2.000  1.0294  0.4990  0.2748
 2792SOL     vw11168   3.366   3.293   2.071  0.2682 -0.7187 -0.4232
 2793SOL     ow11169   7.216   6.477   2.319  0.3962 -0.1974 -0.4343
 2793SOL     hw11170   7.296   6.440   2.280 -0.1209 -1.1226 -0.6457
 2793SOL     hw11171   7.169   6.515   2.244  0.0078 -0.8489 -0.5306
 2793SOL     vw11172   7.220   6.477   2.304  0.2766 -0.4053 -0.4749
 2794SOL     ow11173   3.600   1.242   6.266 -0.1230  0.0539 -0.1329
 2794SOL     hw11174   3.668   1.308   6.254 -0.0407 -0.1556 -0.8691
 2794SOL     hw11175   3.531   1.267   6.205 -0.6233  0.1414  0.4559
 2794SOL     vw11176   3.600   1.254   6.257 -0.1781  0.0378 -0.1526
 2795SOL     ow11177   2.516   0.077   3.975 -0.1083  0.3884 -0.1231
 2795SOL     hw11178   2.504   0.170   3.954  0.6795  0.0807 -2.1640
 2795SOL     hw11179   2.611   0.065   3.976 -0.1575 -0.1150  1.6802
 2795SOL     vw11180   2.527   0.088   3.972 -0.0108  0.2814 -0.1545
 2796SOL     ow11181   0.905   2.739   3.417  0.2877  0.1040  0.3171
 2796SOL     hw11182   0.853   2.660   3.433 -2.3891  1.3388 -1.5743
 2796SOL     hw11183   0.992   2.717   3.450 -0.1704 -3.8091 -0.5657
 2796SOL     vw11184   0.910   2.726   3.424 -0.1259 -0.2493 -0.0489
 2797SOL     ow11185   4.046   3.579   0.490  1.1475  0.2772 -0.9678
 2797SOL     hw11186   3.966   3.574   0.438 -1.3242 -0.9283  2.5428
 2797SOL     hw11187   4.054   3.671   0.513 -0.1049  0.2296 -0.2473
 2797SOL     vw11188   4.037   3.590   0.486  0.6561  0.1119 -0.4096
 2798SOL     ow11189   2.895   0.054   6.671 -0.1756 -0.2101 -0.2811
 2798SOL     hw11190   2.844   0.047   6.751  0.2541 -1.3279 -0.0814
 2798SOL     hw11191   2.980   0.089   6.700  0.3612 -1.6322 -0.0471
 2798SOL     vw11192   2.900   0.058   6.685 -0.0482 -0.5452 -0.2236
 2799SOL     ow11193   0.785   2.535   2.133  0.0257  0.6845  0.2350
 2799SOL     hw11194   0.778   2.607   2.195 -1.1484  0.5235  0.3151
 2799SOL     hw11195   0.720   2.555   2.065  0.2377  0.1071 -0.1473
 2799SOL     vw11196   0.775   2.547   2.132 -0.1012  0.5871  0.1951
 2800SOL     ow11197   6.341   0.635   1.048  0.2153  0.5578  0.0086
 2800SOL     hw11198   6.276   0.583   1.096 -0.4901  0.9821 -0.4651
 2800SOL     hw11199   6.289   0.697   0.998  1.0346  1.5597  0.3625
 2800SOL     vw11200   6.325   0.636   1.048  0.2303  0.7460 -0.0071
 2801SOL     ow11201   5.799   0.202   7.404 -0.1076 -0.1969  0.0896
 2801SOL     hw11202   5.834   0.287   7.378 -1.1831 -0.0179 -0.8587
 2801SOL     hw11203   5.706   0.220   7.421  0.1393 -0.7071  2.2298
 2801SOL     vw11204   5.791   0.216   7.403 -0.2170 -0.2406  0.2472
 2802SOL     ow11205   5.211   2.354   3.105  0.1373  0.5014  0.5307
 2802SOL     hw11206   5.270   2.376   3.033  1.0434  1.6489  1.5794
 2802SOL     hw11207   5.228   2.262   3.124  1.4321  0.7562  0.6563
 2802SOL     vw11208   5.221   2.345   3.098  0.4275  0.6864  0.6858
 2803SOL     ow11209   6.880   4.509   1.384 -0.3606 -0.6848  0.0552
 2803SOL     hw11210   6.943   4.565   1.339 -1.4843  0.2504 -0.4322
 2803SOL     hw11211   6.831   4.466   1.314 -1.8070  0.4161  0.3361
 2803SOL     vw11212   6.882   4.511   1.369 -0.6998 -0.4163  0.0280
 2804SOL     ow11213   2.098   0.393   4.356  0.2918  0.2072 -0.2956
 2804SOL     hw11214   2.145   0.455   4.412  1.0796 -0.6150 -0.0281
 2804SOL     hw11215   2.019   0.441   4.329  1.0882  1.4949 -0.4622
 2804SOL     vw11216   2.094   0.408   4.360  0.5008  0.2686 -0.2823
 2805SOL     ow11217   4.120   0.876   0.795 -0.2467  0.4539  0.0410
 2805SOL     hw11218   4.156   0.964   0.790  0.0067  0.4779  1.6368
 2805SOL     hw11219   4.196   0.820   0.812 -0.6427  0.1876  0.9919
 2805SOL     vw11220   4.135   0.880   0.796 -0.2658  0.4219  0.3770
 2806SOL     ow11221   2.102   2.650   0.800  0.4489  0.3943 -0.3861
 2806SOL     hw11222   2.026   2.630   0.746  1.0164  0.8621 -1.3928
 2806SOL     hw11223   2.086   2.737   0.835 -0.0193  0.0016  0.3884
 2806SOL     vw11224   2.090   2.659   0.798  0.4621  0.4041 -0.4167
 2807SOL     ow11225   1.671   2.524   2.004 -0.3711 -0.1360 -0.0314
 2807SOL     hw11226   1.691   2.610   2.042  5.7760 -0.5786 -1.2691
 2807SOL     hw11227   1.681   2.463   2.077 -0.1945 -0.1076 -0.0302
 2807SOL     vw11228   1.675   2.527   2.019  0.4633 -0.1906 -0.1944
 2808SOL     ow11229   1.314   4.847   5.510  0.1746  0.4364 -0.8857
 2808SOL     hw11230   1.248   4.818   5.572 -0.2903 -1.6625 -2.2660
 2808SOL     hw11231   1.365   4.912   5.558 -2.1675  1.3222  0.5917
 2808SOL     vw11232   1.312   4.852   5.524 -0.1957  0.2766 -0.8729
 2809SOL     ow11233   4.090   1.990   2.756  0.2662  0.3845  0.1414
 2809SOL     hw11234   4.169   1.955   2.715  1.0579  3.0223 -0.8055
 2809SOL     hw11235   4.058   1.919   2.812  4.7788  0.0316  2.7134
 2809SOL     vw11236   4.096   1.976   2.758  0.9663  0.6860  0.3557
 2810SOL     ow11237   4.739   7.310   2.761 -0.4894  0.1227  0.3811
 2810SOL     hw11238   4.719   7.364   2.838  1.0619  1.8149 -0.3287
 2810SOL     hw11239   4.802   7.245   2.793  1.3702  1.7822  0.3008
 2810SOL     vw11240   4.745   7.309   2.776 -0.0393  0.5648  0.2769
 2811SOL     ow11241   5.211   5.790   0.178  0.0749  0.7708 -0.1897
 2811SOL     hw11242   5.286   5.823   0.129  0.7764 -0.2499  0.1742
 2811SOL     hw11243   5.183   5.713   0.128 -0.2512  0.6995  0.1037
 2811SOL     vw11244   5.217   5.784   0.165  0.1242  0.6268 -0.1030
 2812SOL     ow11245   2.391   1.491   0.736  0.4132  0.4472  0.2442
 2812SOL     hw11246   2.322   1.551   0.765  0.6683  0.3729  1.0214
 2812SOL     hw11247   2.354   1.403   0.749  0.9869  0.3793  1.5690
 2812SOL     vw11248   2.377   1.487   0.742  0.5226  0.4285  0.5215
 2813SOL     ow11249   1.288   3.593   5.531 -0.3180 -0.1889  0.5975
 2813SOL     hw11250   1.306   3.605   5.438  1.8346  0.4918  1.0400
 2813SOL     hw11251   1.206   3.640   5.546 -0.1389  0.6072 -0.7324
 2813SOL     vw11252   1.280   3.601   5.521 -0.0104  0.0061  0.4804
 2814SOL     ow11253   5.664   5.023   3.403 -0.1589 -0.0125 -0.4925
 2814SOL     hw11254   5.592   5.079   3.375 -0.0447  1.3016  1.6632
 2814SOL     hw11255   5.622   4.950   3.448 -0.1970  0.5057  0.3372
 2814SOL     vw11256   5.649   5.021   3.405 -0.1488  0.2291 -0.0986
 2815SOL     ow11257   0.157   5.073   3.013 -0.0553  0.2676 -0.9223
 2815SOL     hw11258   0.192   4.997   3.058 -0.4151  0.9326  0.5229
 2815SOL     hw11259   0.078   5.041   2.968 -0.9146  0.0201  0.6896
 2815SOL     vw11260   0.151   5.059   3.013 -0.2162  0.3226 -0.5190
 2816SOL     ow11261   5.608   7.053   0.179 -0.2669  0.1877  0.2361
 2816SOL     hw11262   5.657   6.971   0.191 -0.3949 -0.4867 -2.8286
 2816SOL     hw11263   5.608   7.095   0.265  2.5263 -1.5222  1.1833
 2816SOL     vw11264   5.614   7.048   0.192  0.0849 -0.1268 -0.0433
 2817SOL     ow11265   3.922   1.969   5.192  0.2425  0.3922  0.2873
 2817SOL     hw11266   3.979   1.895   5.171  0.0068  0.3114 -0.0897
 2817SOL     hw11267   3.836   1.929   5.207 -0.0654  0.6496 -0.6796
 2817SOL     vw11268   3.918   1.954   5.191  0.1708  0.4155  0.1101
 2818SOL     ow11269   2.136   5.675   0.930 -0.1370 -0.6797 -0.1382
 2818SOL     hw11270   2.212   5.734   0.936 -1.0225  0.6527 -1.3387
 2818SOL     hw11271   2.064   5.725   0.968 -0.5502 -1.7106  0.4769
 2818SOL     vw11272   2.136   5.690   0.936 -0.3083 -0.6399 -0.2154
 2819SOL     ow11273   4.047   6.698   1.574 -0.3667 -0.0207  0.2437
 2819SOL     hw11274   4.093   6.781   1.586  1.4767 -0.9245 -0.1138
 2819SOL     hw11275   4.117   6.632   1.570 -1.8389 -1.8636  2.4674
 2819SOL     vw11276   4.063   6.700   1.575 -0.3176 -0.3829  0.4900
 2820SOL     ow11277   4.298   6.519   0.215  0.2715  0.0672  0.5763
 2820SOL     hw11278   4.350   6.513   0.135  1.4671  3.1163  0.9651
 2820SOL     hw11279   4.334   6.451   0.272  0.4048 -1.1677 -0.9324
 2820SOL     vw11280   4.310   6.510   0.212  0.4470  0.3068  0.4286
 2821SOL     ow11281   2.421   6.247   5.192  0.1110 -0.1168 -0.2550
 2821SOL     hw11282   2.343   6.300   5.174 -2.6839 -3.6484  0.2198
 2821SOL     hw11283   2.420   6.180   5.123  1.4875 -1.5056  1.0096
 2821SOL     vw11284   2.410   6.245   5.180 -0.0762 -0.7660 -0.0253
 2822SOL     ow11285   6.491   2.480   0.973 -0.0594 -0.7320  0.3801
 2822SOL     hw11286   6.539   2.413   1.022  0.0194  0.1912  1.6346
 2822SOL     hw11287   6.558   2.542   0.946 -0.2801 -0.5269  0.3031
 2822SOL     vw11288   6.506   2.479   0.976 -0.0780 -0.5832  0.5355
 2823SOL     ow11289   5.117   0.427   5.874 -0.3602  0.4758 -0.0281
 2823SOL     hw11290   5.052   0.376   5.825 -1.5194  0.7205  1.1835
 2823SOL     hw11291   5.143   0.369   5.946  0.9728  0.2944 -0.6298
 2823SOL     vw11292   5.112   0.413   5.877 -0.3374  0.4841  0.0525
 2824SOL     ow11293   6.909   5.059   2.073  0.0746 -0.0683 -0.8014
 2824SOL     hw11294   6.984   5.043   2.130  0.2641 -1.6289 -1.4468
 2824SOL     hw11295   6.834   5.026   2.123  0.3442 -2.2517 -1.7280
 2824SOL     vw11296   6.909   5.053   2.087  0.1352 -0.5622 -1.0089
 2825SOL     ow11297   5.893   2.728   2.916  0.0062  0.4087 -0.0195
 2825SOL     hw11298   5.854   2.744   2.830 -1.3807 -1.2501  0.2444
 2825SOL     hw11299   5.824   2.752   2.979  0.9714  1.5221  0.6488
 2825SOL     vw11300   5.878   2.733   2.913 -0.0496  0.3366  0.1036
 2826SOL     ow11301   3.976   3.406   6.268 -0.2570 -0.3350 -0.0989
 2826SOL     hw11302   3.948   3.399   6.177  1.2027 -0.4402 -0.5690
 2826SOL     hw11303   4.032   3.330   6.282  1.8611  1.1515 -0.0295
 2826SOL     vw11304   3.980   3.395   6.258  0.2152 -0.1526 -0.1519
 2827SOL     ow11305   6.082   6.645   4.883 -0.3127 -0.2414 -0.2773
 2827SOL     hw11306   6.085   6.658   4.978  1.6572 -1.6764 -0.0774
 2827SOL     hw11307   6.029   6.565   4.872  2.3161 -2.1581 -0.0098
 2827SOL     vw11308   6.075   6.636   4.894  0.2942 -0.6838 -0.2158
 2828SOL     ow11309   5.536   0.493   7.472 -0.6091  0.4673 -0.4737
 2828SOL     hw11310   5.588   0.506   7.552 -1.0297  1.1402 -0.2975
 2828SOL     hw11311   5.540   0.399   7.456  1.3341  0.5806 -0.9310
 2828SOL     vw11312   5.543   0.483   7.481 -0.4082  0.5710 -0.5107
 2829SOL     ow11313   2.036   2.849   6.273  0.7590 -0.4568 -0.2816
 2829SOL     hw11314   1.942   2.831   6.276  0.6994 -0.1912 -0.5327
 2829SOL     hw11315   2.077   2.763   6.281  0.4998 -0.5470  0.1207
 2829SOL     vw11316   2.029   2.835   6.274  0.7170 -0.4337 -0.2613
 2830SOL     ow11317   4.509   0.496   7.414  0.8154  0.2030  0.1710
 2830SOL     hw11318   4.582   0.486   7.354  1.6834 -0.5477  1.3142
 2830SOL     hw11319   4.494   0.407   7.448 -2.5353 -0.3308 -2.1539
 2830SOL     vw11320   4.516   0.483   7.410  0.4878  0.0335  0.0153
 2831SOL     ow11321   4.869   4.418   1.859  0.3774  0.0020 -0.2649
 2831SOL     hw11322   4.835   4.340   1.903  0.2037  1.4500  2.4390
 2831SOL     hw11323   4.804   4.440   1.792 -0.2467 -1.3920 -0.1332
 2831SOL     vw11324   4.856   4.411   1.856  0.2720  0.0095  0.1093
 2832SOL     ow11325   4.658   1.371   3.628  0.2284  0.2080  0.3999
 2832SOL     hw11326   4.740   1.321   3.631  0.5833  0.7629  0.0269
 2832SOL     hw11327   4.631   1.377   3.720  1.2483  1.0679  0.6517
 2832SOL     vw11328   4.665   1.365   3.641  0.4096  0.3947  0.3839
 2833SOL     ow11329   0.782   3.438   0.408  0.4906 -0.1673  0.3778
 2833SOL     hw11330   0.704   3.494   0.404  0.8441  0.4304  1.6196
 2833SOL     hw11331   0.852   3.491   0.370  0.2896 -0.7650 -0.8924
 2833SOL     vw11332   0.781   3.452   0.402  0.5107 -0.1673  0.3741
 2834SOL     ow11333   3.361   1.783   3.608 -0.0482  0.3978  0.1654
 2834SOL     hw11334   3.406   1.837   3.543 -4.3791  5.1801  0.4045
 2834SOL     hw11335   3.274   1.768   3.570 -1.4722  0.0626  3.2509
 2834SOL     vw11336   3.355   1.788   3.595 -0.8074  0.9846  0.6039
 2835SOL     ow11337   5.544   2.883   2.756  0.1546  0.0982 -0.8809
 2835SOL     hw11338   5.462   2.884   2.706 -1.0602  0.1175  1.0017
 2835SOL     hw11339   5.526   2.825   2.830  1.6509  0.5602 -0.1200
 2835SOL     vw11340   5.531   2.875   2.760  0.1917  0.1616 -0.5320
 2836SOL     ow11341   2.131   5.340   2.280 -0.0753  0.3971  0.2752
 2836SOL     hw11342   2.220   5.306   2.280 -0.2213 -0.0838  1.8083
 2836SOL     hw11343   2.138   5.428   2.317 -0.1851  0.5372 -0.0310
 2836SOL     vw11344   2.143   5.347   2.285 -0.1091  0.3521  0.4370
 2837SOL     ow11345   4.854   7.028   2.782  0.4556 -0.5223 -0.5131
 2837SOL     hw11346   4.775   6.997   2.737  0.3427 -0.1602 -0.5733
 2837SOL     hw11347   4.926   6.987   2.735  0.3308 -0.2638 -0.9319
 2837SOL     vw11348   4.853   7.019   2.770  0.4241 -0.4404 -0.5763
 2838SOL     ow11349   6.421   4.552   1.140  0.5348  0.5682  0.0354
 2838SOL     hw11350   6.409   4.633   1.191 -1.2356 -0.9381  2.2413
 2838SOL     hw11351   6.461   4.491   1.203 -1.0623 -1.1713 -0.5788
 2838SOL     vw11352   6.425   4.554   1.155  0.0906  0.1402  0.2454
 2839SOL     ow11353   2.801   2.066   1.209  0.6861 -0.6990 -0.0132
 2839SOL     hw11354   2.760   1.984   1.181  0.9758 -1.1399  0.8112
 2839SOL     hw11355   2.727   2.125   1.224  0.5019 -0.5799 -1.2335
 2839SOL     vw11356   2.785   2.063   1.207  0.7001 -0.7415 -0.0654
 2840SOL     ow11357   1.844   3.237   4.692  0.0276  0.1487  0.3321
 2840SOL     hw11358   1.769   3.279   4.650 -0.6484 -0.5558  0.8018
 2840SOL     hw11359   1.862   3.291   4.769 -0.3208  0.0316  0.4947
 2840SOL     vw11360   1.837   3.250   4.697 -0.1076  0.0401  0.4156
 2841SOL     ow11361   4.440   1.479   3.428  0.2897  0.0775 -0.3179
 2841SOL     hw11362   4.401   1.473   3.515 -0.7185  0.1799 -0.7492
 2841SOL     hw11363   4.441   1.572   3.408  0.8713  0.0887 -0.2754
 2841SOL     vw11364   4.435   1.490   3.437  0.2334  0.0924 -0.3691
 2842SOL     ow11365   0.472   5.824   2.418  0.0894 -0.0970  0.3023
 2842SOL     hw11366   0.544   5.772   2.451 -0.8161 -0.6822  1.4260
 2842SOL     hw11367   0.415   5.762   2.374 -1.5963 -0.3620  2.6660
 2842SOL     vw11368   0.474   5.809   2.416 -0.2525 -0.2093  0.7625
 2843SOL     ow11369   1.699   1.498   4.431  0.4656 -0.5795 -0.6846
 2843SOL     hw11370   1.739   1.416   4.457  0.8055 -0.2773 -0.2630
 2843SOL     hw11371   1.768   1.546   4.385  0.5671 -0.1021 -0.0454
 2843SOL     vw11372   1.713   1.494   4.428  0.5239 -0.4766 -0.5445
 2844SOL     ow11373   0.334   1.534   0.419 -0.5392 -0.1655  0.2830
 2844SOL     hw11374   0.266   1.568   0.361 -0.1036 -0.1729 -0.2345
 2844SOL     hw11375   0.341   1.599   0.489 -0.8557 -0.0114  0.1744
 2844SOL     vw11376   0.326   1.547   0.421 -0.5235 -0.1462  0.2004
 2845SOL     ow11377   4.808   0.076   3.448  0.7209 -0.3151 -0.6649
 2845SOL     hw11378   4.865   0.106   3.378 -0.2015  1.4444 -0.7213
 2845SOL     hw11379   4.828  -0.017   3.458  4.0962  0.3489 -0.1736
 2845SOL     vw11380   4.818   0.068   3.440  1.0445  0.0047 -0.6076
 2846SOL     ow11381   4.746   6.430   3.973  0.7332 -0.1606 -0.2465
 2846SOL     hw11382   4.668   6.422   3.918  0.4100 -1.4035  0.3567
 2846SOL     hw11383   4.819   6.408   3.915  0.4131 -1.2790 -0.2382
 2846SOL     vw11384   4.745   6.426   3.958  0.6483 -0.4721 -0.1658
 2847SOL     ow11385   0.566   2.945   7.479 -0.7526  0.2326 -1.2105
 2847SOL     hw11386   0.645   2.894   7.456  0.8180  0.9266  2.1181
 2847SOL     hw11387   0.542   2.914   7.566 -3.3893  1.0926 -1.5459
 2847SOL     vw11388   0.573   2.934   7.487 -0.8932  0.4377 -0.8156
 2848SOL     ow11389   5.016   5.284   5.892 -0.4352 -0.2043  0.3272
 2848SOL     hw11390   5.049   5.354   5.836 -1.8775 -0.5354 -1.0040
 2848SOL     hw11391   5.072   5.287   5.969  1.2180  0.6981 -0.8306
 2848SOL     vw11392   5.028   5.294   5.895 -0.4072 -0.1285 -0.0010
 2849SOL     ow11393   6.534   6.163   0.243  0.2429  0.0846 -0.0485
 2849SOL     hw11394   6.445   6.136   0.221 -0.0174  1.0979 -0.3089
 2849SOL     hw11395   6.590   6.097   0.203 -0.4008 -0.9165  0.6605
 2849SOL     vw11396   6.530   6.151   0.235  0.1237  0.0861  0.0107
 2850SOL     ow11397   0.473   1.695   5.034 -0.3412  0.2730 -0.2112
 2850SOL     hw11398   0.542   1.759   5.054  0.6222 -0.5372 -0.8387
 2850SOL     hw11399   0.443   1.719   4.947  0.8905 -0.8425 -0.9721
 2850SOL     vw11400   0.479   1.707   5.025 -0.0516  0.0190 -0.3943
 2851SOL     ow11401   5.910   1.386   2.354  0.2114 -0.0210 -0.4006
 2851SOL     hw11402   5.982   1.439   2.321 -0.0850  0.0434 -0.9676
 2851SOL     hw11403   5.930   1.372   2.446  2.3851 -2.3121 -1.1074
 2851SOL     vw11404   5.922   1.391   2.361  0.4590 -0.3148 -0.5686
 2852SOL     ow11405   2.485   0.579   6.452 -0.1398  0.3986  0.2816
 2852SOL     hw11406   2.418   0.566   6.519 -0.6258  1.2225 -0.0288
 2852SOL     hw11407   2.505   0.491   6.421 -0.2729  0.0539  1.1575
 2852SOL     vw11408   2.479   0.566   6.456 -0.2215  0.4618  0.3567
 2853SOL     ow11409   6.210   5.701   0.914  0.1495  0.3210  0.0220
 2853SOL     hw11410   6.184   5.782   0.871 -1.5190 -1.8606 -3.5764
 2853SOL     hw11411   6.130   5.668   0.954  0.4027 -0.3513 -0.0066
 2853SOL     vw11412   6.196   5.707   0.913 -0.0374 -0.0553 -0.4565
 2854SOL     ow11413   2.399   4.457   5.828 -0.2392 -0.4072 -0.4409
 2854SOL     hw11414   2.390   4.362   5.834  0.9885 -0.5852 -1.2311
 2854SOL     hw11415   2.433   4.473   5.740 -0.9565  0.8108 -0.5211
 2854SOL     vw11416   2.402   4.447   5.817 -0.1719 -0.2699 -0.5558
 2855SOL     ow11417   7.094   0.901   4.116 -0.9918  0.2667 -0.4653
 2855SOL     hw11418   7.153   0.832   4.085  0.6913  1.3277  0.2351
 2855SOL     hw11419   7.010   0.880   4.075 -0.6838 -2.4197  0.0626
 2855SOL     vw11420   7.090   0.889   4.106 -0.7291  0.0523 -0.3030
 2856SOL     ow11421   6.840   5.034   5.294  0.1439  0.2288 -1.0345
 2856SOL     hw11422   6.747   5.044   5.315 -0.0787 -0.5161 -1.6179
 2856SOL     hw11423   6.881   5.006   5.376 -0.5042 -1.4519 -1.2476
 2856SOL     vw11424   6.833   5.032   5.308  0.0293 -0.0913 -1.1396
 2857SOL     ow11425   5.313   4.521   6.328  0.1645 -0.2890  0.5544
 2857SOL     hw11426   5.254   4.454   6.293 -0.6729  0.5407  0.3499
 2857SOL     hw11427   5.268   4.555   6.406  0.9128 -0.4548  1.0657
 2857SOL     vw11428   5.299   4.517   6.333  0.1528 -0.2017  0.5949
 2858SOL     ow11429   3.795   5.427   6.281  0.0598  0.5140 -0.4708
 2858SOL     hw11430   3.801   5.341   6.238  0.4455 -0.0458  0.6696
 2858SOL     hw11431   3.719   5.420   6.338 -0.2732  1.1557 -0.8254
 2858SOL     vw11432   3.786   5.415   6.283  0.0666  0.5248 -0.3669
 2859SOL     ow11433   1.593   3.028   3.114  0.4192  0.4957 -0.0029
 2859SOL     hw11434   1.629   3.005   3.199  2.3011 -0.5387 -1.0034
 2859SOL     hw11435   1.598   3.123   3.110  1.4648  0.4759  0.5812
 2859SOL     vw11436   1.598   3.037   3.124  0.8054  0.3567 -0.0578
 2860SOL     ow11437   5.359   2.945   7.064  0.0189 -0.1223  0.0186
 2860SOL     hw11438   5.382   3.028   7.105 -2.1885  2.3959 -3.3262
 2860SOL     hw11439   5.263   2.945   7.060  0.0313 -1.6261 -2.2182
 2860SOL     vw11440   5.349   2.956   7.069 -0.2704  0.0114 -0.7176
 2861SOL     ow11441   6.879   2.690   1.112 -0.2951 -0.2584 -0.3972
 2861SOL     hw11442   6.888   2.781   1.139  1.8071 -0.0578 -1.5747
 2861SOL     hw11443   6.862   2.643   1.193 -2.3043  1.2213  0.1352
 2861SOL     vw11444   6.878   2.696   1.126 -0.2828 -0.0368 -0.4823
 2862SOL     ow11445   2.606   3.620   5.577  0.3730  0.0613  0.7863
 2862SOL     hw11446   2.671   3.688   5.593  0.9914 -0.6602  1.3897
 2862SOL     hw11447   2.656   3.547   5.542 -0.1787 -0.3524  0.8470
 2862SOL     vw11448   2.621   3.619   5.574  0.3818 -0.0887  0.8738
 2863SOL     ow11449   2.118   5.263   6.327  0.0682  0.3136 -0.1377
 2863SOL     hw11450   2.091   5.173   6.343  1.2436  0.0562  0.5036
 2863SOL     hw11451   2.189   5.257   6.264 -1.5260  1.0126 -2.0928
 2863SOL     vw11452   2.124   5.251   6.321  0.0130  0.3719 -0.3111
 2864SOL     ow11453   6.854   3.329   5.578 -0.7956  0.3986 -0.5264
 2864SOL     hw11454   6.865   3.330   5.673 -1.3040  2.5421 -0.4345
 2864SOL     hw11455   6.932   3.375   5.545  0.0556 -1.4894 -1.2852
 2864SOL     vw11456   6.866   3.335   5.586 -0.7505  0.4323 -0.6144
 2865SOL     ow11457   2.372   6.441   3.626  0.4674  0.5142 -0.3380
 2865SOL     hw11458   2.399   6.352   3.602  0.7318 -0.2421  2.3730
 2865SOL     hw11459   2.434   6.498   3.581  1.2362 -0.7522 -0.9548
 2865SOL     vw11460   2.383   6.437   3.617  0.6039  0.2475 -0.0616
 2866SOL     ow11461   4.154   4.337   2.746 -0.0844  0.3258  0.4136
 2866SOL     hw11462   4.108   4.394   2.808 -0.4093 -0.5904  1.0553
 2866SOL     hw11463   4.187   4.265   2.801  1.3150  0.4847 -0.1867
 2866SOL     vw11464   4.152   4.335   2.762  0.0572  0.2260  0.4190
 2867SOL     ow11465   3.088   5.023   4.872 -0.8856 -0.0070 -0.7823
 2867SOL     hw11466   3.146   5.096   4.889 -1.7187  0.0239  2.6635
 2867SOL     hw11467   3.126   4.949   4.920 -1.5454 -1.1188 -1.8783
 2867SOL     vw11468   3.100   5.023   4.880 -1.0825 -0.1495 -0.4721
 2868SOL     ow11469   0.307   1.168   4.738 -0.3922  0.4444  0.0930
 2868SOL     hw11470   0.269   1.200   4.656  1.8968  1.0836 -0.8261
 2868SOL     hw11471   0.363   1.095   4.711 -1.1962 -0.7125  1.4162
 2868SOL     vw11472   0.310   1.163   4.723 -0.1963  0.3761  0.1464
 2869SOL     ow11473   6.176   6.699   7.467 -0.2419 -0.0221  0.4270
 2869SOL     hw11474   6.260   6.679   7.426 -0.5860 -0.3680 -0.1231
 2869SOL     hw11475   6.129   6.616   7.467 -0.2465 -0.0355  1.5502
 2869SOL     vw11476   6.181   6.686   7.462 -0.2880 -0.0694  0.5026
 2870SOL     ow11477   7.232   5.684   0.999  0.2200 -0.2734  0.2794
 2870SOL     hw11478   7.197   5.605   0.958 -1.0862  0.7565 -0.7218
 2870SOL     hw11479   7.327   5.676   0.991  0.1945 -2.3116  1.3802
 2870SOL     vw11480   7.240   5.673   0.993  0.0441 -0.4065  0.2925
 2871SOL     ow11481   2.890   2.016   1.745 -0.1573 -0.4674  0.6742
 2871SOL     hw11482   2.935   2.058   1.818 -0.8923 -0.5431  1.1788
 2871SOL     hw11483   2.930   1.929   1.738  1.5020  0.3295 -0.4911
 2871SOL     vw11484   2.901   2.010   1.754 -0.0355 -0.3724  0.5870
 2872SOL     ow11485   5.312   4.301   5.986 -0.5845  0.0448  0.3248
 2872SOL     hw11486   5.260   4.334   6.060 -1.8365 -2.3638  0.6011
 2872SOL     hw11487   5.256   4.235   5.945  1.0397 -0.3717 -1.3337
 2872SOL     vw11488   5.298   4.297   5.991 -0.5355 -0.3281  0.1426
 2873SOL     ow11489   3.885   3.149   0.359 -0.1642 -0.2115  0.5426
 2873SOL     hw11490   3.885   3.091   0.284 -0.2140  1.5212 -0.8739
 2873SOL     hw11491   3.808   3.205   0.347 -0.7504 -0.5269  2.4328
 2873SOL     vw11492   3.875   3.149   0.348 -0.2481 -0.0246  0.6051
 2874SOL     ow11493   3.134   5.483   4.307  0.3782 -0.0374  0.5871
 2874SOL     hw11494   3.060   5.464   4.365  1.2402 -0.9640  1.4356
 2874SOL     hw11495   3.166   5.568   4.336 -0.7014  0.6341 -0.1703
 2874SOL     vw11496   3.129   5.491   4.319  0.3495 -0.0713  0.5991
 2875SOL     ow11497   7.174   2.372   0.907  0.2037 -0.0396 -0.0228
 2875SOL     hw11498   7.133   2.308   0.965 -0.3480  1.0448  0.8248
 2875SOL     hw11499   7.203   2.442   0.965  0.2460  0.7631 -0.9821
 2875SOL     vw11500   7.173   2.373   0.922  0.1366  0.2092 -0.0375
 2876SOL     ow11501   0.249   5.599   4.339 -0.1685 -0.4257 -0.1912
 2876SOL     hw11502   0.265   5.660   4.268 -1.7533 -1.1837 -1.2540
 2876SOL     hw11503   0.199   5.528   4.300 -0.0123 -1.4928  1.4180
 2876SOL     vw11504   0.245   5.597   4.325 -0.3570 -0.6664 -0.1190
 2877SOL     ow11505   3.851   2.823   6.978 -0.4196 -0.0886  0.3076
 2877SOL     hw11506   3.766   2.795   6.945 -1.3477  0.0751  2.3968
 2877SOL     hw11507   3.831   2.878   7.054  1.4732  2.5608 -0.9468
 2877SOL     vw11508   3.837   2.826   6.984 -0.2923  0.2825  0.4179
 2878SOL     ow11509   3.300   7.498   5.973 -0.0006  0.4577  0.1364
 2878SOL     hw11510   3.274   7.416   5.931  2.0311  0.8337 -2.0266
 2878SOL     hw11511   3.304   7.476   6.067 -2.0281 -1.1507 -0.0731
 2878SOL     vw11512   3.297   7.484   5.980  0.0000  0.2949 -0.1767
 2879SOL     ow11513   0.129   2.014   2.807 -0.2526 -0.1744  0.1097
 2879SOL     hw11514   0.201   1.951   2.806 -1.3030 -1.4188  0.1212
 2879SOL     hw11515   0.051   1.961   2.787 -0.7728  1.6686 -3.7687
 2879SOL     vw11516   0.128   1.998   2.804 -0.4598 -0.0954 -0.4005
 2880SOL     ow11517   2.445   1.126   5.122  0.5116 -0.1434 -0.5515
 2880SOL     hw11518   2.402   1.107   5.206  1.7624 -0.5660  0.0181
 2880SOL     hw11519   2.538   1.109   5.139  0.7793 -0.2234 -2.0300
 2880SOL     vw11520   2.452   1.121   5.135  0.7120 -0.2097 -0.6716
 2881SOL     ow11521   5.730   0.915   6.233  0.1804 -0.1436  0.5009
 2881SOL     hw11522   5.705   0.826   6.210 -0.8737  0.5869 -1.4280
 2881SOL     hw11523   5.648   0.964   6.235  0.8796  1.1168 -0.0940
 2881SOL     vw11524   5.716   0.910   6.230  0.1335  0.1191  0.1676
 2882SOL     ow11525   3.634   0.515   0.520  0.5206 -0.8757 -0.0266
 2882SOL     hw11526   3.702   0.579   0.539 -0.0502  0.4925 -2.2036
 2882SOL     hw11527   3.561   0.566   0.487 -0.6384 -2.5265 -0.1763
 2882SOL     vw11528   3.634   0.530   0.518  0.2923 -0.9130 -0.3335
 2883SOL     ow11529   6.005   6.624   1.185  0.3652 -0.4413  0.1119
 2883SOL     hw11530   5.964   6.690   1.241  1.4477  2.5390 -2.3598
 2883SOL     hw11531   6.094   6.656   1.171  0.1120 -0.8557 -3.4005
 2883SOL     vw11532   6.011   6.637   1.191  0.4745 -0.1030 -0.6776
 2884SOL     ow11533   5.220   6.021   2.951 -0.2490 -0.0862 -0.0286
 2884SOL     hw11534   5.263   6.093   2.905 -1.2468  0.1093 -0.6823
 2884SOL     hw11535   5.127   6.042   2.947 -0.6726 -1.9073 -1.1351
 2884SOL     vw11536   5.213   6.033   2.944 -0.4365 -0.3006 -0.2608
 2885SOL     ow11537   6.004   0.258   0.340  0.1590  0.2745  0.4573
 2885SOL     hw11538   6.007   0.260   0.244  2.4547 -0.3701  0.4551
 2885SOL     hw11539   6.004   0.350   0.365 -1.1405  0.4678 -0.1188
 2885SOL     vw11540   6.004   0.270   0.330  0.2906  0.2149  0.3810
 2886SOL     ow11541   1.977   4.713   3.107 -0.2439  0.4143  0.4740
 2886SOL     hw11542   1.974   4.632   3.157 -1.3661  0.5464  0.6339
 2886SOL     hw11543   2.058   4.706   3.055  0.1903 -0.3522  1.2236
 2886SOL     vw11544   1.987   4.702   3.107 -0.3347  0.3307  0.5940
 2887SOL     ow11545   3.631   5.515   5.751 -1.0286 -0.3433  0.3526
 2887SOL     hw11546   3.549   5.526   5.703 -1.3417 -1.1951  0.6733
 2887SOL     hw11547   3.611   5.450   5.818 -0.5646  0.7117  1.5634
 2887SOL     vw11548   3.618   5.508   5.753 -1.0087 -0.3164  0.5546
 2888SOL     ow11549   1.028   7.442   5.155 -0.2110 -0.8998 -0.3982
 2888SOL     hw11550   0.944   7.481   5.135 -0.6090 -2.1717 -1.3259
 2888SOL     hw11551   1.090   7.486   5.097 -0.1736  0.2142  0.4649
 2888SOL     vw11552   1.025   7.453   5.145 -0.2586 -0.9205 -0.4067
 2889SOL     ow11553   0.466   2.690   4.302  0.0087 -0.3728 -0.0540
 2889SOL     hw11554   0.533   2.623   4.286 -0.3938 -0.3994 -1.9143
 2889SOL     hw11555   0.385   2.651   4.269  0.0652  1.6377 -2.9417
 2889SOL     vw11556   0.464   2.676   4.295 -0.0369 -0.1109 -0.6802
 2890SOL     ow11557   1.708   0.859   6.780  0.1990 -0.4322 -0.1239
 2890SOL     hw11558   1.792   0.903   6.766 -1.4127  2.4125 -1.6354
 2890SOL     hw11559   1.696   0.860   6.875  1.7469 -0.7938  0.1164
 2890SOL     vw11560   1.718   0.865   6.791  0.1906 -0.1046 -0.2918
 2891SOL     ow11561   5.579   3.049   3.787 -0.5084 -0.2055  1.3683
 2891SOL     hw11562   5.650   2.999   3.828 -0.2156 -0.0127  1.0930
 2891SOL     hw11563   5.618   3.087   3.708 -0.3205  1.5804  2.2578
 2891SOL     vw11564   5.594   3.048   3.782 -0.4449  0.0554  1.4492
 2892SOL     ow11565   0.575   2.082   3.512  0.6517 -0.5593 -0.0918
 2892SOL     hw11566   0.575   2.171   3.548 -0.4444  0.1945 -1.8036
 2892SOL     hw11567   0.500   2.039   3.553  0.1893 -0.1383 -0.4874
 2892SOL     vw11568   0.565   2.088   3.522  0.4461 -0.4041 -0.3698
 2893SOL     ow11569   6.398   2.732   0.585 -0.1071  0.7798 -0.1304
 2893SOL     hw11570   6.441   2.781   0.655  1.6399 -0.7405 -0.0806
 2893SOL     hw11571   6.368   2.800   0.523  1.0750  1.9717  0.5571
 2893SOL     vw11572   6.399   2.747   0.586  0.2794  0.7365 -0.0331
 2894SOL     ow11573   3.522   0.245   5.557  0.5652 -0.1338  0.5613
 2894SOL     hw11574   3.457   0.217   5.493 -0.7015 -0.6421  2.0101
 2894SOL     hw11575   3.518   0.340   5.556 -0.5349 -0.1709  0.9527
 2894SOL     vw11576   3.513   0.253   5.549  0.2528 -0.2057  0.8042
 2895SOL     ow11577   4.458   3.061   0.240 -0.0280 -0.1830  0.1883
 2895SOL     hw11578   4.486   3.071   0.149  1.0855 -1.2669  0.3819
 2895SOL     hw11579   4.538   3.074   0.291 -0.7419  0.9763  1.0759
 2895SOL     vw11580   4.473   3.064   0.234  0.0250 -0.1730  0.3309
 2896SOL     ow11581   2.847   0.720   6.572  0.6286  0.3643  0.1186
 2896SOL     hw11582   2.899   0.768   6.637 -2.2421  0.8076  2.3108
 2896SOL     hw11583   2.803   0.652   6.623  2.1542 -2.7495 -2.3714
 2896SOL     vw11584   2.848   0.718   6.588  0.4511  0.0120  0.0794
 2897SOL     ow11585   5.939   5.555   2.723  0.7508 -0.3650 -0.3302
 2897SOL     hw11586   5.851   5.533   2.691  0.6582 -1.5545  0.6402
 2897SOL     hw11587   5.987   5.582   2.646 -0.6069  0.7727 -0.8169
 2897SOL     vw11588   5.933   5.555   2.709  0.5593 -0.3717 -0.2666
 2898SOL     ow11589   7.556   3.622   6.182  0.3894 -0.1392  0.1809
 2898SOL     hw11590   7.600   3.552   6.230  1.8987  0.2804 -0.5289
 2898SOL     hw11591   7.618   3.695   6.185 -0.8014  0.8856  0.1960
 2898SOL     vw11592   7.570   3.622   6.189  0.4315  0.0515  0.0892
 2899SOL     ow11593   0.877   3.452   0.702 -0.6403  0.2785  0.4129
 2899SOL     hw11594   0.830   3.419   0.626  0.6708  2.6443 -1.6071
 2899SOL     hw11595   0.918   3.375   0.742 -1.3776 -1.0344 -1.2914
 2899SOL     vw11596   0.876   3.438   0.697 -0.5646  0.4175 -0.0784
 2900SOL     ow11597   1.377   1.059   7.226 -0.1595  0.1275 -0.5186
 2900SOL     hw11598   1.455   1.004   7.239  1.2596  2.7367  3.9353
 2900SOL     hw11599   1.308   1.016   7.276 -0.0122  0.5697  0.0770
 2900SOL     vw11600   1.378   1.046   7.234  0.0472  0.5301  0.1476
 2901SOL     ow11601   3.722   5.165   6.521 -0.0105  0.2399  0.3982
 2901SOL     hw11602   3.735   5.126   6.435 -0.1279  1.6339 -0.2763
 2901SOL     hw11603   3.810   5.188   6.551  0.1966 -1.5422  1.3342
 2901SOL     vw11604   3.735   5.163   6.514  0.0013  0.1888  0.4327
 2902SOL     ow11605   4.727   2.370   4.566 -0.0355 -1.0323 -0.3504
 2902SOL     hw11606   4.665   2.417   4.623  1.5359 -0.4157  0.9635
 2902SOL     hw11607   4.704   2.398   4.478 -1.9529 -1.2530  0.0341
 2902SOL     vw11608   4.716   2.380   4.562 -0.0813 -0.9801 -0.1261
 2903SOL     ow11609   6.663   3.664   2.443 -0.4367  0.6044  0.8876
 2903SOL     hw11610   6.709   3.690   2.523  0.3210 -1.1584  1.0688
 2903SOL     hw11611   6.716   3.594   2.406 -2.0366 -0.2840  0.1495
 2903SOL     vw11612   6.676   3.658   2.449 -0.5481  0.2545  0.8142
 2904SOL     ow11613   3.842   2.816   0.662  0.1585  0.5778 -0.7197
 2904SOL     hw11614   3.889   2.851   0.586 -0.4672  0.3857 -1.2034
 2904SOL     hw11615   3.792   2.890   0.696  0.3647  0.6395 -0.5455
 2904SOL     vw11616   3.841   2.831   0.656  0.1031  0.5606 -0.7605
 2905SOL     ow11617   4.212   6.255   2.806  1.0114  0.2982 -0.0514
 2905SOL     hw11618   4.297   6.233   2.844  0.3552 -1.7407  0.3582
 2905SOL     hw11619   4.233   6.302   2.725  2.4905  0.5647  0.4563
 2905SOL     vw11620   4.226   6.258   2.801  1.1201  0.0641  0.0696
 2906SOL     ow11621   1.972   5.946   5.285  0.2681  0.2592 -0.3305
 2906SOL     hw11622   1.982   5.862   5.241 -2.6163 -1.7116  2.2998
 2906SOL     hw11623   2.054   5.992   5.268  1.0094 -1.9763 -3.9842
 2906SOL     vw11624   1.984   5.941   5.277 -0.0147 -0.2959 -0.4654
 2907SOL     ow11625   0.215   2.694   1.132 -0.2505  0.8820  0.3816
 2907SOL     hw11626   0.305   2.665   1.116 -0.1522 -0.9276  3.4180
 2907SOL     hw11627   0.189   2.736   1.051  1.9731 -2.0190 -2.0673
 2907SOL     vw11628   0.224   2.696   1.119  0.0559  0.2605  0.4591
 2908SOL     ow11629   4.412   4.481   0.342  0.2787  0.5869  0.6775
 2908SOL     hw11630   4.486   4.473   0.402 -1.0437 -0.2976  2.2742
 2908SOL     hw11631   4.452   4.497   0.256  2.4687 -2.6575  0.9383
 2908SOL     vw11632   4.427   4.482   0.338  0.3932  0.0422  0.9226
 2909SOL     ow11633   3.836   2.048   0.608 -0.0465  0.4520  0.2331
 2909SOL     hw11634   3.900   2.072   0.676  0.3139  0.1654 -0.0059
 2909SOL     hw11635   3.866   1.963   0.576  0.2428  0.9546 -0.8535
 2909SOL     vw11636   3.848   2.040   0.613  0.0392  0.4804  0.0582
 2910SOL     ow11637   1.555   2.275   4.789  0.0088  0.1657 -0.0905
 2910SOL     hw11638   1.512   2.355   4.821 -3.3073 -0.2235 -2.9394
 2910SOL     hw11639   1.530   2.208   4.853  0.0282  0.7784  0.5763
 2910SOL     vw11640   1.546   2.277   4.802 -0.4262  0.1953 -0.3786
 2911SOL     ow11641   1.355   3.931   1.842  0.6667  0.3734 -0.2042
 2911SOL     hw11642   1.303   3.852   1.830 -0.6814  1.5821 -3.3164
 2911SOL     hw11643   1.446   3.903   1.829  0.1419 -0.5832 -2.0452
 2911SOL     vw11644   1.360   3.917   1.839  0.4197  0.4065 -0.8577
 2912SOL     ow11645   0.087   1.377   5.129 -0.0777 -0.1759  0.0401
 2912SOL     hw11646   0.126   1.317   5.066  2.0192  0.6021  0.5125
 2912SOL     hw11647   0.006   1.407   5.088  1.0620  0.0525 -2.1418
 2912SOL     vw11648   0.081   1.373   5.116  0.3493 -0.0431 -0.1857
 2913SOL     ow11649   1.293   1.875   7.353 -0.2204  0.0108 -0.6179
 2913SOL     hw11650   1.259   1.824   7.279 -2.2013  0.1828  0.1245
 2913SOL     hw11651   1.294   1.965   7.321  2.2211 -0.2738 -1.5497
 2913SOL     vw11652   1.289   1.880   7.339 -0.1596 -0.0041 -0.6428
 2914SOL     ow11653   4.674   6.284   4.774 -0.2415 -0.1456  0.1699
 2914SOL     hw11654   4.686   6.379   4.776 -2.3922  0.1695  0.3765
 2914SOL     hw11655   4.583   6.272   4.746  0.1944 -2.1739 -0.5584
 2914SOL     vw11656   4.664   6.295   4.770 -0.4678 -0.3715  0.1011
 2915SOL     ow11657   4.156   4.583   5.923  0.0978  0.2240 -0.0289
 2915SOL     hw11658   4.089   4.641   5.887 -0.5011  0.4073  1.3528
 2915SOL     hw11659   4.190   4.629   5.999  0.5264 -0.6689  0.3389
 2915SOL     vw11660   4.152   4.597   5.928  0.0753  0.1307  0.2022
 2916SOL     ow11661   3.867   7.233   0.464 -0.2467  0.0395  0.2335
 2916SOL     hw11662   3.833   7.305   0.411  0.9061  0.4394 -0.0002
 2916SOL     hw11663   3.790   7.194   0.505 -1.4819 -1.6564 -3.3383
 2916SOL     vw11664   3.852   7.238   0.463 -0.2576 -0.1316 -0.2686
 2917SOL     ow11665   7.589   0.774   0.846 -0.0671  0.0311  0.3116
 2917SOL     hw11666   7.519   0.837   0.828 -0.0110  0.2824  0.9214
 2917SOL     hw11667   7.606   0.732   0.762  0.6454  1.5887 -0.3779
 2917SOL     vw11668   7.582   0.777   0.833  0.0346  0.2698  0.3011
 2918SOL     ow11669   3.931   2.657   0.863 -0.0187  0.5733 -0.2212
 2918SOL     hw11670   3.909   2.718   0.934  0.6880 -0.7714  1.2002
 2918SOL     hw11671   3.931   2.711   0.784  0.6877  2.4477  0.9975
 2918SOL     vw11672   3.928   2.672   0.862  0.1677  0.6433  0.1271
 2919SOL     ow11673   5.984   0.433   7.433 -0.4946  0.8349 -0.2918
 2919SOL     hw11674   6.077   0.450   7.419 -0.2611  0.9037  1.1798
 2919SOL     hw11675   5.942   0.519   7.422 -0.2172  1.0472  0.2834
 2919SOL     vw11676   5.990   0.447   7.430 -0.4275  0.8720 -0.0217
 2920SOL     ow11677   1.840   6.576   6.989  0.4088 -0.3832 -0.7948
 2920SOL     hw11678   1.780   6.632   7.039  1.1066 -0.5510  0.2721
 2920SOL     hw11679   1.798   6.567   6.903 -1.7050 -1.4224  0.2535
 2920SOL     vw11680   1.826   6.582   6.984  0.2220 -0.5426 -0.5159
 2921SOL     ow11681   1.718   7.324   4.858  0.6094 -0.0555 -0.8122
 2921SOL     hw11682   1.695   7.317   4.950  1.3640  2.2787 -0.3807
 2921SOL     hw11683   1.637   7.306   4.811  0.0610 -0.6202  0.3168
 2921SOL     vw11684   1.704   7.321   4.864  0.6366  0.1783 -0.6061
 2922SOL     ow11685   4.172   2.299   7.161 -0.0404  0.0776  0.3494
 2922SOL     hw11686   4.185   2.385   7.121 -1.3800  1.2207  2.2400
 2922SOL     hw11687   4.244   2.291   7.223 -1.7778  1.4943  2.7316
 2922SOL     vw11688   4.183   2.309   7.164 -0.4463  0.4153  0.9131
 2923SOL     ow11689   5.641   7.131   1.950  0.5003  0.1608  0.5769
 2923SOL     hw11690   5.630   7.072   2.025  0.0256  4.4064  4.2559
 2923SOL     hw11691   5.553   7.159   1.928  0.7922  0.3015 -0.4927
 2923SOL     vw11692   5.628   7.127   1.957  0.4761  0.7393  0.9211
 2924SOL     ow11693   2.272   4.129   5.511 -0.5262 -0.2209  0.3694
 2924SOL     hw11694   2.265   4.042   5.550 -2.5736 -0.5697 -0.6281
 2924SOL     hw11695   2.222   4.123   5.430 -0.5262  1.8355  0.1610
 2924SOL     vw11696   2.265   4.117   5.505 -0.7963  0.0043  0.2103
 2925SOL     ow11697   1.912   1.958   0.869  0.4668  0.3000  0.7009
 2925SOL     hw11698   1.915   1.863   0.859 -0.0989  0.4751 -2.2362
 2925SOL     hw11699   1.844   1.974   0.935 -1.1326 -1.3240 -0.4525
 2925SOL     vw11700   1.903   1.948   0.876  0.1812  0.1089  0.1612
 2926SOL     ow11701   3.497   1.148   3.481  0.4505 -0.4363 -0.2869
 2926SOL     hw11702   3.530   1.230   3.518 -0.3030 -0.2313 -0.0491
 2926SOL     hw11703   3.557   1.128   3.410  1.4619 -0.4292  0.5500
 2926SOL     vw11704   3.509   1.156   3.476  0.4847 -0.4083 -0.1451
 2927SOL     ow11705   4.681   6.564   4.832 -0.1428  0.0655 -1.0239
 2927SOL     hw11706   4.749   6.610   4.782 -0.6477  1.4560 -0.4757
 2927SOL     hw11707   4.648   6.629   4.893 -1.0011 -1.0027 -0.3128
 2927SOL     vw11708   4.686   6.578   4.833 -0.3228  0.1078 -0.8578
 2928SOL     ow11709   0.929   2.718   1.862  0.2036  0.1046  0.1839
 2928SOL     hw11710   0.982   2.795   1.880 -1.1907  0.5728  2.6100
 2928SOL     hw11711   0.968   2.649   1.916  1.8633 -1.2217 -2.4511
 2928SOL     vw11712   0.942   2.719   1.871  0.2386 -0.0087  0.1563
 2929SOL     ow11713   1.173   1.160   6.958 -0.5515 -0.0503  0.4241
 2929SOL     hw11714   1.152   1.222   6.889 -2.6369 -0.8298  0.2855
 2929SOL     hw11715   1.108   1.177   7.026  1.5740  0.8405  2.3569
 2929SOL     vw11716   1.161   1.170   6.958 -0.5463 -0.0356  0.6611
 2930SOL     ow11717   6.649   4.678   1.489 -0.5453 -0.1477 -0.4872
 2930SOL     hw11718   6.744   4.674   1.475 -0.5834 -0.0371 -0.7873
 2930SOL     hw11719   6.636   4.755   1.545 -0.0633 -2.4221  3.0806
 2930SOL     vw11720   6.660   4.688   1.495 -0.4869 -0.4330 -0.0561
 2931SOL     ow11721   5.132   2.713   7.379  0.0417 -0.0884  0.0482
 2931SOL     hw11722   5.082   2.772   7.435 -0.8922 -2.2811  1.6615
 2931SOL     hw11723   5.144   2.762   7.297 -0.5914  2.3140  1.3050
 2931SOL     vw11724   5.127   2.727   7.376 -0.1650 -0.0608  0.4268
 2932SOL     ow11725   6.498   6.901   5.068  0.2170 -0.3360  0.2623
 2932SOL     hw11726   6.554   6.903   5.146 -0.2379 -2.5681  0.7350
 2932SOL     hw11727   6.558   6.880   4.996  0.7034  2.1144 -0.1374
 2932SOL     vw11728   6.513   6.898   5.069  0.2215 -0.3073  0.2720
 2933SOL     ow11729   5.619   7.248   5.271 -0.0534 -0.3020 -0.0958
 2933SOL     hw11730   5.709   7.223   5.253 -0.4081 -2.4357  0.8037
 2933SOL     hw11731   5.608   7.333   5.228  1.3973 -1.4583 -2.9794
 2933SOL     vw11732   5.629   7.256   5.263  0.0911 -0.7358 -0.3576
 2934SOL     ow11733   0.402   2.345   3.337  0.2923 -0.3525  0.2782
 2934SOL     hw11734   0.435   2.333   3.425 -0.9045  2.2805  1.1932
 2934SOL     hw11735   0.467   2.402   3.294 -0.4904  0.7019  0.4422
 2934SOL     vw11736   0.415   2.351   3.343  0.0311  0.1340  0.4206
 2935SOL     ow11737   0.093   1.603   6.894  0.3042  0.0458 -0.3847
 2935SOL     hw11738   0.011   1.645   6.868  0.1502  1.2036  1.7172
 2935SOL     hw11739   0.112   1.640   6.980  1.8988 -1.8359  0.1419
 2935SOL     vw11740   0.085   1.613   6.902  0.4942 -0.0497 -0.0379
 2936SOL     ow11741   2.230   2.135   3.308  0.1726 -0.0265 -0.0100
 2936SOL     hw11742   2.270   2.115   3.392 -1.8331  0.1120  1.0153
 2936SOL     hw11743   2.256   2.225   3.289  1.0758 -0.2410  0.1645
 2936SOL     vw11744   2.239   2.144   3.316  0.0271 -0.0366  0.1484
 2937SOL     ow11745   1.448   1.183   2.307 -0.1586 -0.2202  0.3939
 2937SOL     hw11746   1.525   1.169   2.363  0.1663 -1.9368 -0.4046
 2937SOL     hw11747   1.434   1.278   2.308  1.6955  0.0881  0.9221
 2937SOL     vw11748   1.456   1.194   2.315  0.1289 -0.4060  0.3582
 2938SOL     ow11749   7.189   5.457   4.159  0.4593  0.2140 -0.2735
 2938SOL     hw11750   7.121   5.399   4.194 -0.2949  0.7909 -0.7501
 2938SOL     hw11751   7.246   5.399   4.109 -1.1181  0.0376 -1.9875
 2938SOL     vw11752   7.187   5.441   4.157  0.1514  0.2668 -0.5624
 2939SOL     ow11753   2.271   7.229   2.593  0.3759  0.3237 -0.6550
 2939SOL     hw11754   2.198   7.285   2.564 -2.7538 -2.5787  0.8884
 2939SOL     hw11755   2.292   7.260   2.681 -1.0252 -0.5172  0.0115
 2939SOL     vw11756   2.264   7.241   2.600 -0.2220 -0.1702 -0.3635
 2940SOL     ow11757   2.894   6.380   6.609 -0.1417  0.0049  0.1011
 2940SOL     hw11758   2.846   6.323   6.548 -2.3871  0.0676  1.6884
 2940SOL     hw11759   2.976   6.333   6.625 -1.2579 -2.0823  0.1579
 2940SOL     vw11760   2.898   6.366   6.603 -0.5853 -0.2620  0.3181
 2941SOL     ow11761   5.680   2.761   3.099 -0.0144  0.4708 -0.3119
 2941SOL     hw11762   5.598   2.726   3.063 -0.7357  2.2215 -0.4817
 2941SOL     hw11763   5.665   2.763   3.194  0.9791 -1.9111 -0.0472
 2941SOL     vw11764   5.667   2.757   3.107  0.0212  0.3875 -0.2993
 2942SOL     ow11765   2.481   1.642   3.579  0.3604  0.1321  0.4100
 2942SOL     hw11766   2.450   1.602   3.660  0.6365  0.7337  0.8262
 2942SOL     hw11767   2.508   1.568   3.524 -0.2224 -0.3020  0.6977
 2942SOL     vw11768   2.481   1.627   3.582  0.3200  0.1542  0.5028
 2943SOL     ow11769   2.810   2.017   1.495  0.6187  0.8691 -0.5538
 2943SOL     hw11770   2.769   1.937   1.528 -1.2150  2.4313  1.2353
 2943SOL     hw11771   2.779   2.023   1.404 -0.0859  0.0932 -0.3804
 2943SOL     vw11772   2.800   2.007   1.487  0.2836  0.9729 -0.2949
 2944SOL     ow11773   0.772   3.266   5.573 -0.5569 -0.0447  0.3158
 2944SOL     hw11774   0.689   3.222   5.555  0.1388 -1.7237  1.0641
 2944SOL     hw11775   0.836   3.220   5.520  0.0948  0.4509  0.6602
 2944SOL     vw11776   0.769   3.254   5.564 -0.3791 -0.2009  0.4599
 2945SOL     ow11777   7.504   4.515   2.807  0.2339  0.0913  0.1689
 2945SOL     hw11778   7.588   4.555   2.785  0.9370  0.0704  2.5924
 2945SOL     hw11779   7.520   4.467   2.888 -2.2961  0.6839  1.1074
 2945SOL     vw11780   7.517   4.514   2.814 -0.0072  0.1669  0.6125
 2946SOL     ow11781   3.994   0.541   7.401 -0.3480  0.3988 -0.1841
 2946SOL     hw11782   3.922   0.541   7.465 -0.4813  0.4791 -0.3328
 2946SOL     hw11783   3.967   0.478   7.335  0.6525 -1.1018  0.7843
 2946SOL     vw11784   3.981   0.533   7.401 -0.2337  0.2114 -0.0761
 2947SOL     ow11785   5.283   1.845   4.383  0.8867  0.1186  0.7486
 2947SOL     hw11786   5.369   1.844   4.341  1.5590 -0.5639  2.0984
 2947SOL     hw11787   5.290   1.784   4.456 -0.8351 -0.1530  0.7447
 2947SOL     vw11788   5.295   1.837   4.387  0.7484 -0.0072  0.9260
 2948SOL     ow11789   3.637   1.597   7.071 -0.1464 -0.1313 -0.1640
 2948SOL     hw11790   3.634   1.561   7.160 -0.0076 -1.6982 -0.7765
 2948SOL     hw11791   3.547   1.625   7.054  0.3370  2.9142  1.4989
 2948SOL     vw11792   3.625   1.596   7.081 -0.0644  0.0637 -0.0255
 2949SOL     ow11793   1.584   0.589   6.573 -0.0824 -0.1049  0.4134
 2949SOL     hw11794   1.507   0.647   6.572 -0.4513 -0.5920  0.1839
 2949SOL     hw11795   1.567   0.525   6.504  1.1519  0.5595 -0.5457
 2949SOL     vw11796   1.571   0.588   6.564  0.0318 -0.0815  0.2570
 2950SOL     ow11797   5.214   6.724   2.552 -0.1657 -0.4784  0.2232
 2950SOL     hw11798   5.173   6.810   2.563  0.1979 -0.2277 -0.3163
 2950SOL     hw11799   5.301   6.744   2.518 -0.0259 -1.0569  0.2373
 2950SOL     vw11800   5.220   6.738   2.549 -0.0994 -0.5217  0.1540
 2951SOL     ow11801   6.573   4.008   5.083 -0.2786 -0.3305 -0.1647
 2951SOL     hw11802   6.518   4.016   5.004  0.5827 -1.1325 -0.8778
 2951SOL     hw11803   6.634   4.081   5.076 -2.0877  1.4381  1.3767
 2951SOL     vw11804   6.574   4.019   5.071 -0.4036 -0.2029 -0.0556
 2952SOL     ow11805   4.129   0.758   4.408  0.5329 -0.2311  0.7763
 2952SOL     hw11806   4.110   0.849   4.385 -0.4359 -0.1086  1.9761
 2952SOL     hw11807   4.110   0.709   4.328  0.4548  0.5470  0.3080
 2952SOL     vw11808   4.124   0.763   4.394  0.3951 -0.1123  0.8729
 2953SOL     ow11809   6.201   1.841   6.656 -0.1683 -0.3214  0.0052
 2953SOL     hw11810   6.194   1.914   6.718  2.0642 -0.0300 -0.0111
 2953SOL     hw11811   6.122   1.848   6.603 -1.5953  0.0932  2.0813
 2953SOL     vw11812   6.190   1.852   6.657 -0.0622 -0.2282  0.2770
 2954SOL     ow11813   7.221   3.809   0.967 -0.1891  0.0952  0.1325
 2954SOL     hw11814   7.311   3.833   0.987 -0.0364  0.2015 -0.6420
 2954SOL     hw11815   7.176   3.811   1.051  0.6552 -0.5187  0.6182
 2954SOL     vw11816   7.227   3.812   0.981 -0.0572  0.0281  0.0944
 2955SOL     ow11817   1.516   5.217   0.743 -0.8656 -0.3836 -0.0863
 2955SOL     hw11818   1.452   5.209   0.672 -1.0133 -0.9650  0.1031
 2955SOL     hw11819   1.591   5.165   0.714 -0.8881 -0.5415  0.1369
 2955SOL     vw11820   1.517   5.209   0.730 -0.8880 -0.4811 -0.0318
 2956SOL     ow11821   1.627   0.931   3.388  0.1445 -0.0174  0.5825
 2956SOL     hw11822   1.695   0.994   3.363 -0.8349  1.0032  0.4390
 2956SOL     hw11823   1.549   0.983   3.402 -0.5862 -1.1565  0.9175
 2956SOL     vw11824   1.626   0.946   3.386 -0.0812 -0.0330  0.6076
 2957SOL     ow11825   1.526   7.282   2.896  0.0785 -0.3722 -0.0619
 2957SOL     hw11826   1.443   7.235   2.900  0.5542 -1.1910  0.6087
 2957SOL     hw11827   1.503   7.371   2.870 -1.0599 -0.4489  0.6406
 2957SOL     vw11828   1.512   7.287   2.893 -0.0089 -0.4904  0.1193
 2958SOL     ow11829   1.958   4.560   6.528  0.0701  0.4216  0.1511
 2958SOL     hw11830   1.933   4.469   6.539 -2.2391  0.7046 -1.8530
 2958SOL     hw11831   1.999   4.585   6.611 -1.2118 -1.8182  1.5342
 2958SOL     vw11832   1.960   4.551   6.540 -0.4038  0.1633  0.0691
 2959SOL     ow11833   5.158   6.595   6.577 -0.0801  0.0402 -0.6527
 2959SOL     hw11834   5.150   6.659   6.647  4.0944 -0.0908  0.1976
 2959SOL     hw11835   5.135   6.644   6.498  0.9379  2.0060  0.1959
 2959SOL     vw11836   5.154   6.610   6.576  0.6049  0.2823 -0.4284
 2960SOL     ow11837   5.067   4.144   1.256  0.4061  0.5205 -0.1026
 2960SOL     hw11838   5.140   4.195   1.290 -0.3100  0.3859  1.7440
 2960SOL     hw11839   4.990   4.199   1.271  0.1467  1.1291 -2.9867
 2960SOL     vw11840   5.066   4.158   1.262  0.2773  0.5829 -0.2394
 2961SOL     ow11841   1.779   1.175   3.363  0.4130 -0.2328 -0.1131
 2961SOL     hw11842   1.857   1.146   3.316  0.7961 -0.8661  0.8811
 2961SOL     hw11843   1.756   1.259   3.322  1.5688 -0.0751 -0.4721
 2961SOL     vw11844   1.786   1.183   3.351  0.6161 -0.2956 -0.0293
 2962SOL     ow11845   1.176   1.435   4.253  0.5880  0.3601 -0.6169
 2962SOL     hw11846   1.134   1.466   4.173 -0.0690 -1.0584 -0.8559
 2962SOL     hw11847   1.265   1.410   4.225  0.7152  0.8650 -0.6715
 2962SOL     vw11848   1.183   1.436   4.238  0.5181  0.2396 -0.6557
 2963SOL     ow11849   4.254   5.075   4.440  0.3413 -0.7197  0.5700
 2963SOL     hw11850   4.175   5.049   4.393  1.7027  0.2522 -2.5324
 2963SOL     hw11851   4.225   5.143   4.500 -1.0633  0.4185 -1.2900
 2963SOL     vw11852   4.240   5.080   4.442  0.3357 -0.4411 -0.0849
 2964SOL     ow11853   2.542   5.402   3.596  0.1108 -0.1327 -0.5763
 2964SOL     hw11854   2.509   5.467   3.657 -1.0702 -2.0097  0.9010
 2964SOL     hw11855   2.486   5.411   3.518  0.0563  0.6956 -0.4425
 2964SOL     vw11856   2.530   5.412   3.594 -0.0522 -0.2711 -0.3637
 2965SOL     ow11857   6.330   1.013   0.699 -0.2659  0.0167  1.1203
 2965SOL     hw11858   6.406   1.052   0.741 -0.4862  0.9804  0.6433
 2965SOL     hw11859   6.258   1.073   0.718 -0.7274 -0.4237  0.8143
 2965SOL     vw11860   6.331   1.026   0.707 -0.3555  0.0858  1.0170
 2966SOL     ow11861   0.650   5.821   5.367  0.1226  0.8970  0.1678
 2966SOL     hw11862   0.743   5.803   5.354  0.9287  4.4039 -0.1693
 2966SOL     hw11863   0.634   5.801   5.459  0.7995 -1.1131 -0.1186
 2966SOL     vw11864   0.660   5.816   5.378  0.3183  1.0948  0.0854
 2967SOL     ow11865   3.582   4.113   2.811  0.2101  0.4997 -0.3240
 2967SOL     hw11866   3.556   4.185   2.754  0.2959 -0.5779 -1.7920
 2967SOL     hw11867   3.615   4.046   2.751  0.6014 -0.5646  1.0291
 2967SOL     vw11868   3.583   4.113   2.796  0.2731  0.2170 -0.3392
 2968SOL     ow11869   4.802   5.216   0.589 -0.5836  0.0451  0.0629
 2968SOL     hw11870   4.889   5.223   0.628 -0.5214 -1.3534  0.2323
 2968SOL     hw11871   4.742   5.210   0.663 -0.9183  1.5989 -0.0430
 2968SOL     vw11872   4.805   5.216   0.604 -0.6199  0.0653  0.0713
 2969SOL     ow11873   3.331   1.866   0.782  0.8091 -0.5706  0.0755
 2969SOL     hw11874   3.255   1.818   0.749  0.5021  0.1054 -0.2058
 2969SOL     hw11875   3.363   1.813   0.855 -0.6733 -0.2262  1.0166
 2969SOL     vw11876   3.326   1.852   0.787  0.5730 -0.4359  0.1626
 2970SOL     ow11877   6.562   4.422   7.414  0.8636  0.8615 -0.3692
 2970SOL     hw11878   6.623   4.377   7.472  0.1010 -1.0438 -0.9450
 2970SOL     hw11879   6.574   4.379   7.329 -1.6601 -0.0407 -0.3501
 2970SOL     vw11880   6.571   4.410   7.410  0.4299  0.4911 -0.4427
 2971SOL     ow11881   0.582   2.600   6.265 -0.4490 -0.7240  0.0197
 2971SOL     hw11882   0.566   2.517   6.221 -0.8386 -2.8634  3.7587
 2971SOL     hw11883   0.676   2.612   6.261 -0.2315 -2.0857  0.5172
 2971SOL     vw11884   0.592   2.591   6.259 -0.4717 -1.1859  0.5786
 2972SOL     ow11885   3.492   6.346   0.901  0.0225 -0.7957 -0.0013
 2972SOL     hw11886   3.501   6.336   0.807 -0.7574 -0.8854 -0.0699
 2972SOL     hw11887   3.456   6.262   0.931 -2.0341  0.0376  0.0481
 2972SOL     vw11888   3.488   6.334   0.893 -0.3518 -0.6976 -0.0039
 2973SOL     ow11889   4.900   5.512   6.522 -0.2701  0.2892 -0.0637
 2973SOL     hw11890   4.911   5.588   6.465 -1.2348  0.2767 -0.2889
 2973SOL     hw11891   4.988   5.477   6.532  0.0683  0.9377 -0.6597
 2973SOL     vw11892   4.913   5.517   6.516 -0.3529  0.3731 -0.1721
 2974SOL     ow11893   2.694   2.618   7.414 -0.8712  0.0872  0.2549
 2974SOL     hw11894   2.641   2.574   7.347  0.6950  0.6626 -1.4577
 2974SOL     hw11895   2.630   2.663   7.469 -2.2356 -0.2809 -0.9579
 2974SOL     vw11896   2.679   2.618   7.412 -0.8447  0.1143 -0.1311
 2975SOL     ow11897   6.149   0.589   5.237 -0.2212 -0.0746 -0.3189
 2975SOL     hw11898   6.131   0.614   5.146 -0.3873  1.6243  0.1526
 2975SOL     hw11899   6.089   0.642   5.289 -0.0443 -0.9400  0.8030
 2975SOL     vw11900   6.139   0.599   5.232 -0.2198  0.0354 -0.1085
 2976SOL     ow11901   1.879   5.249   6.504 -0.2557 -0.4387 -0.0426
 2976SOL     hw11902   1.936   5.322   6.477 -2.4886  1.7960  0.8739
 2976SOL     hw11903   1.892   5.243   6.598 -0.4512 -0.9218 -0.0459
 2976SOL     vw11904   1.888   5.258   6.513 -0.5761 -0.2079  0.0780
 2977SOL     ow11905   0.993   6.289   6.594  0.0946  0.0602  0.2627
 2977SOL     hw11906   0.940   6.334   6.660 -0.3744 -0.2777  0.1212
 2977SOL     hw11907   0.972   6.196   6.606  1.7600 -0.2274  1.1795
 2977SOL     vw11908   0.983   6.283   6.604  0.2524 -0.0224  0.3650
 2978SOL     ow11909   4.294   5.591   3.595  0.1127 -0.3842  0.1911
 2978SOL     hw11910   4.296   5.559   3.505  0.1390  0.4533 -0.1105
 2978SOL     hw11911   4.201   5.596   3.617 -0.1632  2.9426 -1.1061
 2978SOL     vw11912   4.282   5.587   3.586  0.0796  0.1655 -0.0199
 2979SOL     ow11913   6.924   1.902   0.769  0.4419  0.1269  0.3445
 2979SOL     hw11914   6.880   1.828   0.727 -0.6808  0.3916  1.0176
 2979SOL     hw11915   6.965   1.949   0.697 -1.4109  0.5533 -0.5028
 2979SOL     vw11916   6.924   1.898   0.754  0.0491  0.2180  0.3215
 2980SOL     ow11917   7.390   4.743   4.865 -0.5206  0.0885  0.2608
 2980SOL     hw11918   7.337   4.736   4.785  0.9957  1.2467 -0.9011
 2980SOL     hw11919   7.327   4.734   4.936 -1.9011 -1.1243 -1.0472
 2980SOL     vw11920   7.375   4.741   4.864 -0.5028  0.0813 -0.0651
 2981SOL     ow11921   4.916   6.200   0.795  0.2184  0.3973 -0.3246
 2981SOL     hw11922   4.922   6.157   0.710 -1.4849  0.2445 -0.3938
 2981SOL     hw11923   4.828   6.237   0.797 -0.1207 -0.3990  1.7475
 2981SOL     vw11924   4.905   6.199   0.784 -0.0513  0.2718 -0.0604
 2982SOL     ow11925   1.484   1.176   3.608 -0.0293 -0.0646  0.7736
 2982SOL     hw11926   1.454   1.202   3.521  2.2124 -2.0126 -0.6881
 2982SOL     hw11927   1.421   1.109   3.636 -0.6808  0.4734  0.6383
 2982SOL     vw11928   1.471   1.171   3.601  0.1805 -0.2506  0.5629
 2983SOL     ow11929   3.114   2.254   4.662  0.0006  0.1695  0.0979
 2983SOL     hw11930   3.131   2.172   4.707  0.1797 -0.9757 -1.9501
 2983SOL     hw11931   3.063   2.306   4.725 -0.5019 -1.6568  1.2602
 2983SOL     vw11932   3.110   2.250   4.677 -0.0421 -0.2224 -0.0188
 2984SOL     ow11933   6.220   7.505   1.619 -0.0058 -0.0721 -0.3284
 2984SOL     hw11934   6.203   7.410   1.619  0.4562 -0.2401  2.4619
 2984SOL     hw11935   6.288   7.517   1.686  2.5105  1.8875 -2.9839
 2984SOL     vw11936   6.227   7.494   1.628  0.3874  0.1640 -0.3106
 2985SOL     ow11937   7.317   4.404   1.725 -0.0491 -0.4307 -0.1860
 2985SOL     hw11938   7.340   4.364   1.641  2.0492 -2.6504  1.3188
 2985SOL     hw11939   7.394   4.389   1.780 -0.8172  2.1843  1.7593
 2985SOL     vw11940   7.330   4.396   1.721  0.1266 -0.3786  0.2693
 2986SOL     ow11941   0.471   0.453   4.955 -0.7341 -0.6903 -0.4209
 2986SOL     hw11942   0.521   0.434   4.875 -0.3477 -1.3803 -0.0245
 2986SOL     hw11943   0.496   0.541   4.980 -1.1395 -0.3208 -1.2668
 2986SOL     vw11944   0.481   0.462   4.947 -0.7366 -0.7326 -0.4802
 2987SOL     ow11945   1.892   1.862   3.177 -0.1025 -0.0696 -0.1109
 2987SOL     hw11946   1.945   1.941   3.180  2.4104 -1.6288  3.1939
 2987SOL     hw11947   1.927   1.813   3.103 -0.1564  0.9342 -0.8175
 2987SOL     vw11948   1.904   1.866   3.168  0.2220 -0.1429  0.2317
 2988SOL     ow11949   4.752   0.531   5.310  0.1887  0.1204  0.0275
 2988SOL     hw11950   4.815   0.464   5.285  0.1311  0.7975 -2.1162
 2988SOL     hw11951   4.799   0.586   5.373  1.7131  0.5276 -1.4054
 2988SOL     vw11952   4.766   0.529   5.315  0.3822  0.2634 -0.4442
 2989SOL     ow11953   2.567   0.319   6.338  0.1154 -0.3492 -1.1175
 2989SOL     hw11954   2.546   0.318   6.244  1.2704 -0.7957 -1.4012
 2989SOL     hw11955   2.523   0.242   6.373 -1.3228  0.4789 -1.0321
 2989SOL     vw11956   2.559   0.309   6.330  0.0780 -0.2988 -1.1437
 2990SOL     ow11957   2.266   1.815   5.300 -0.4164  0.3211  0.2918
 2990SOL     hw11958   2.292   1.756   5.230  0.5184 -0.7856  1.5275
 2990SOL     hw11959   2.171   1.809   5.303 -0.3818 -0.4732 -0.1476
 2990SOL     vw11960   2.257   1.807   5.291 -0.2886  0.0703  0.3965
 2991SOL     ow11961   2.278   4.526   6.100 -0.6587  0.2315  0.0425
 2991SOL     hw11962   2.217   4.547   6.171 -2.9283 -1.1825 -1.3578
 2991SOL     hw11963   2.304   4.435   6.118  0.9371  0.7441  0.4971
 2991SOL     vw11964   2.274   4.517   6.112 -0.7477  0.1125 -0.0823
 2992SOL     ow11965   1.376   3.116   7.311  0.0215  0.8413  0.9139
 2992SOL     hw11966   1.288   3.143   7.286  0.3674  2.3268  1.1831
 2992SOL     hw11967   1.364   3.060   7.387 -0.9486 -2.5672 -1.4934
 2992SOL     vw11968   1.363   3.113   7.318 -0.0609  0.5877  0.6318
 2993SOL     ow11969   4.980   7.432   5.600  0.1619 -0.3009 -1.0285
 2993SOL     hw11970   4.968   7.524   5.576  2.2500  0.2169 -0.3389
 2993SOL     hw11971   4.901   7.388   5.569 -0.6606  1.6329 -1.8233
 2993SOL     vw11972   4.968   7.439   5.593  0.3288  0.0224 -1.0419
 2994SOL     ow11973   5.835   2.506   3.513 -0.1477  0.2211 -0.1154
 2994SOL     hw11974   5.922   2.493   3.476  0.7200 -3.7106  2.6879
 2994SOL     hw11975   5.786   2.549   3.443  3.3400  0.4767 -2.7075
 2994SOL     vw11976   5.840   2.510   3.499  0.4270 -0.2640 -0.0876
 2995SOL     ow11977   5.318   3.737   2.796  0.0634  0.1521 -0.3119
 2995SOL     hw11978   5.364   3.805   2.747  0.4120 -0.9869 -1.6150
 2995SOL     hw11979   5.386   3.675   2.820 -0.5996 -1.0022 -1.3159
 2995SOL     vw11980   5.333   3.738   2.793  0.0222 -0.1503 -0.6163
 2996SOL     ow11981   5.756   3.189   3.224  0.2845 -0.3180 -0.4432
 2996SOL     hw11982   5.691   3.130   3.185  0.4656  0.3866 -1.8856
 2996SOL     hw11983   5.815   3.210   3.152  2.8245 -1.7973  1.0887
 2996SOL     vw11984   5.755   3.184   3.209  0.6433 -0.4203 -0.4315
 2997SOL     ow11985   5.799   7.513   0.451  0.3214  0.2475  0.7251
 2997SOL     hw11986   5.811   7.419   0.467 -0.2031  0.1625  0.6379
 2997SOL     hw11987   5.801   7.522   0.356  0.1345  0.2890  0.7240
 2997SOL     vw11988   5.801   7.502   0.441  0.2277  0.2420  0.7134
 2998SOL     ow11989   3.676   5.819   2.988 -0.5614  0.6850 -0.1270
 2998SOL     hw11990   3.585   5.788   2.988 -0.2458 -0.2687  0.0399
 2998SOL     hw11991   3.670   5.911   2.963 -1.3592 -0.0186 -2.8184
 2998SOL     vw11992   3.663   5.827   2.985 -0.6249  0.4663 -0.4600
 2999SOL     ow11993   5.057   7.096   3.754 -0.1693 -0.2522  0.2194
 2999SOL     hw11994   5.007   7.117   3.675 -0.1299 -1.6057 -0.1787
 2999SOL     hw11995   5.077   7.182   3.793 -1.8831  0.3530 -0.1707
 2999SOL     vw11996   5.053   7.110   3.749 -0.3905 -0.3510  0.1155
 3000SOL     ow11997   3.730   2.941   4.086  0.0157  0.2681  0.1616
 3000SOL     hw11998   3.796   2.872   4.085 -2.3766 -2.2672  2.3047
 3000SOL     hw11999   3.665   2.913   4.021 -1.2751  0.1056  1.4797
 3000SOL     vw12000   3.730   2.928   4.077 -0.4703 -0.0879  0.6185
 3001SOL     ow12001   6.799   5.262   2.294 -0.0139  0.4649  0.3100
 3001SOL     hw12002   6.861   5.189   2.287  1.3533  1.2711  2.7549
 3001SOL     hw12003   6.713   5.221   2.289  0.7163 -1.3084  1.3268
 3001SOL     vw12004   6.796   5.247   2.293  0.2625  0.3374  0.7666
 3002SOL     ow12005   5.533   2.220   4.930  0.0266  0.7901  0.7647
 3002SOL     hw12006   5.616   2.185   4.897 -0.3076 -0.5370  1.2821
 3002SOL     hw12007   5.469   2.153   4.909 -1.0543  2.0642 -0.1619
 3002SOL     vw12008   5.536   2.207   4.923 -0.1602  0.7831  0.7105
 3003SOL     ow12009   5.706   5.448   7.296 -0.3172  0.4875  0.4972
 3003SOL     hw12010   5.629   5.452   7.239  0.5303  0.9969 -0.6711
 3003SOL     hw12011   5.727   5.355   7.302 -0.6153  0.4014  0.2467
 3003SOL     vw12012   5.698   5.437   7.289 -0.2446  0.5434  0.3097
 3004SOL     ow12013   1.873   6.522   3.457  1.0906  0.4374  0.3469
 3004SOL     hw12014   1.942   6.485   3.403  0.0494  0.3608 -0.9774
 3004SOL     hw12015   1.866   6.463   3.532  0.1443 -1.5166 -1.2109
 3004SOL     vw12016   1.881   6.510   3.460  0.8283  0.1698 -0.0334
 3005SOL     ow12017   4.908   2.777   4.766  0.5004 -0.7514 -0.3903
 3005SOL     hw12018   4.833   2.823   4.805  2.0414  1.0689  0.6346
 3005SOL     hw12019   4.903   2.798   4.673 -0.2275 -0.6127 -0.3283
 3005SOL     vw12020   4.897   2.786   4.759  0.6075 -0.4929 -0.2470
 3006SOL     ow12021   4.937   0.270   5.763  0.2139 -0.1351 -0.3593
 3006SOL     hw12022   4.860   0.326   5.763  0.3110  0.0161  0.6085
 3006SOL     hw12023   4.919   0.204   5.830 -0.3190 -1.8856 -2.1375
 3006SOL     vw12024   4.925   0.269   5.772  0.1564 -0.3461 -0.4661
 3007SOL     ow12025   5.390   2.506   3.336 -0.0720  0.2116  0.1680
 3007SOL     hw12026   5.438   2.516   3.418 -0.4091 -1.1984  0.5739
 3007SOL     hw12027   5.311   2.457   3.360  0.8705 -2.1991 -1.3129
 3007SOL     vw12028   5.386   2.501   3.350  0.0076 -0.2925  0.0262
 3008SOL     ow12029   5.895   6.269   2.448  0.5538  0.2020 -0.4947
 3008SOL     hw12030   5.923   6.333   2.513 -1.6015 -0.3205  1.0796
 3008SOL     hw12031   5.927   6.304   2.365  2.0931  1.6905  0.6542
 3008SOL     vw12032   5.903   6.282   2.445  0.4725  0.3295 -0.1353
 3009SOL     ow12033   5.012   2.459   2.847  0.0390  0.0901  0.1753
 3009SOL     hw12034   4.997   2.553   2.860  0.3091  0.1582  0.0058
 3009SOL     hw12035   5.020   2.450   2.752  3.0068  0.3610  0.3343
 3009SOL     vw12036   5.011   2.470   2.836  0.4661  0.1348  0.1738
 3010SOL     ow12037   0.110   6.523   4.721 -0.3747 -0.1162 -0.4207
 3010SOL     hw12038   0.015   6.530   4.728 -0.3586 -0.2864 -0.0098
 3010SOL     hw12039   0.142   6.613   4.734 -0.5113  0.0519 -1.1935
 3010SOL     vw12040   0.102   6.536   4.724 -0.3905 -0.1166 -0.4683
 3011SOL     ow12041   2.634   2.406   5.388  0.0617  0.2745  0.1613
 3011SOL     hw12042   2.650   2.329   5.334 -0.8686  0.2563 -0.1035
 3011SOL     hw12043   2.649   2.480   5.328  2.2187  0.3727  0.7429
 3011SOL     vw12044   2.638   2.406   5.373  0.2234  0.2849  0.2031
 3012SOL     ow12045   4.265   6.231   3.216 -0.1003  0.0951  0.2037
 3012SOL     hw12046   4.251   6.325   3.209  1.4068  0.4245  1.2480
 3012SOL     hw12047   4.326   6.210   3.146  0.8160  0.1915  0.9620
 3012SOL     vw12048   4.271   6.241   3.206  0.2196  0.1512  0.4413
 3013SOL     ow12049   6.523   0.650   3.309 -0.1922 -0.0107 -0.7131
 3013SOL     hw12050   6.569   0.619   3.230  1.9006  0.8602  0.1039
 3013SOL     hw12051   6.522   0.745   3.301 -1.0021  0.0299 -0.2245
 3013SOL     vw12052   6.529   0.658   3.297 -0.0229  0.1096 -0.5406
 3014SOL     ow12053   3.369   5.322   3.223 -0.7289 -0.5628 -0.1646
 3014SOL     hw12054   3.286   5.369   3.213 -0.5483  0.6131  2.8038
 3014SOL     hw12055   3.375   5.304   3.317  2.2719 -0.8174 -0.3084
 3014SOL     vw12056   3.359   5.326   3.234 -0.3092 -0.4411  0.2081
 3015SOL     ow12057   3.818   5.538   3.718 -0.3724 -0.2442  0.4690
 3015SOL     hw12058   3.742   5.485   3.695 -0.5159 -0.9227  2.3377
 3015SOL     hw12059   3.782   5.610   3.770 -0.1033  1.3769 -1.4857
 3015SOL     vw12060   3.803   5.541   3.722 -0.3558 -0.1197  0.4576
 3016SOL     ow12061   7.167   5.557   5.072  0.0419 -0.6568  0.6384
 3016SOL     hw12062   7.114   5.610   5.013  0.4196 -0.4404  0.4920
 3016SOL     hw12063   7.107   5.532   5.142 -0.6236 -1.5805 -0.2316
 3016SOL     vw12064   7.152   5.561   5.074  0.0038 -0.7503  0.5045
 3017SOL     ow12065   0.041   2.229   5.611 -0.0325  0.0794  0.2917
 3017SOL     hw12066  -0.006   2.284   5.549 -0.0995 -1.5611 -1.1976
 3017SOL     hw12067   0.131   2.262   5.609  0.0858 -0.2597 -1.1158
 3017SOL     vw12068   0.047   2.241   5.602 -0.0257 -0.1818 -0.0906
 3018SOL     ow12069   6.356   4.388   0.793 -0.0130  0.4317 -0.5626
 3018SOL     hw12070   6.322   4.449   0.728 -2.7864 -0.5431 -0.1445
 3018SOL     hw12071   6.349   4.302   0.751  0.9521  0.0643 -0.0147
 3018SOL     vw12072   6.351   4.384   0.779 -0.2518  0.2546 -0.4351
 3019SOL     ow12073   0.730   1.574   0.401  0.0987  0.6988 -0.1107
 3019SOL     hw12074   0.809   1.560   0.350 -0.2448  0.3011 -0.5495
 3019SOL     hw12075   0.724   1.498   0.459 -0.0481  0.6470 -0.1929
 3019SOL     vw12076   0.739   1.562   0.402  0.0340  0.6395 -0.1795
 3020SOL     ow12077   4.308   1.224   5.161 -0.7246 -0.6428 -0.1905
 3020SOL     hw12078   4.282   1.132   5.156 -2.5575 -0.1094 -1.7736
 3020SOL     hw12079   4.227   1.273   5.147  0.1509  1.2438  0.8986
 3020SOL     vw12080   4.294   1.219   5.158 -0.8509 -0.3235 -0.2556
 3021SOL     ow12081   2.535   5.135   3.485 -0.5620  0.4538 -0.0687
 3021SOL     hw12082   2.567   5.047   3.464 -0.7195  0.2644  0.4745
 3021SOL     hw12083   2.517   5.174   3.400  2.3759  1.0753 -0.5274
 3021SOL     vw12084   2.537   5.128   3.471 -0.1951  0.5112 -0.0576
 3022SOL     ow12085   5.999   0.099   6.967  0.9265  0.2128 -0.0271
 3022SOL     hw12086   6.087   0.136   6.973  0.1958  1.9189  0.8497
 3022SOL     hw12087   5.963   0.136   6.886  0.7758  0.0710 -0.0255
 3022SOL     vw12088   6.006   0.109   6.957  0.8104  0.4192  0.0889
 3023SOL     ow12089   7.440   5.265   4.768 -0.3867  0.0015 -0.1248
 3023SOL     hw12090   7.351   5.297   4.787 -1.3712 -2.5254 -0.1131
 3023SOL     hw12091   7.485   5.265   4.852 -1.0535 -0.5633  0.2413
 3023SOL     vw12092   7.434   5.269   4.781 -0.6046 -0.4065 -0.0749
 3024SOL     ow12093   6.568   7.083   1.279 -0.1091 -0.4110 -0.0439
 3024SOL     hw12094   6.605   7.042   1.201 -1.6298 -1.0711 -0.4564
 3024SOL     hw12095   6.595   7.174   1.274 -0.6052 -0.3282 -1.6343
 3024SOL     vw12096   6.576   7.090   1.268 -0.3753 -0.4871 -0.3082
 3025SOL     ow12097   4.298   6.052   4.822 -0.4888  0.3559 -0.5087
 3025SOL     hw12098   4.232   5.983   4.812 -0.2000  0.1735 -1.2373
 3025SOL     hw12099   4.377   6.015   4.782  0.9929 -0.6804  2.9592
 3025SOL     vw12100   4.300   6.038   4.816 -0.2551  0.1953 -0.1473
 3026SOL     ow12101   5.805   0.326   1.043  0.0046 -0.0333 -0.2571
 3026SOL     hw12102   5.767   0.263   0.981  2.4209 -1.5975 -0.3045
 3026SOL     hw12103   5.893   0.343   1.008  0.4570  1.1180  1.3559
 3026SOL     vw12104   5.812   0.320   1.030  0.3829 -0.0878 -0.0505
 3027SOL     ow12105   0.019   2.929   1.815 -0.2375 -0.6586 -0.1623
 3027SOL     hw12106   0.048   2.858   1.758  5.1047  0.6472  0.3856
 3027SOL     hw12107   0.042   2.900   1.903  1.5757  1.3932  0.1186
 3027SOL     vw12108   0.026   2.916   1.819  0.7067 -0.2155 -0.0529
 3028SOL     ow12109   4.811   0.446   4.043 -0.1687 -0.2581  0.0192
 3028SOL     hw12110   4.886   0.426   3.988 -0.0183 -1.0470  0.5008
 3028SOL     hw12111   4.784   0.534   4.015  1.0763  0.1383  0.0131
 3028SOL     vw12112   4.817   0.455   4.032  0.0155 -0.3099  0.0818
 3029SOL     ow12113   4.035   6.439   0.106 -0.2614 -0.3186  0.8027
 3029SOL     hw12114   4.125   6.445   0.140  0.8912  2.2091 -2.1661
 3029SOL     hw12115   4.034   6.358   0.055  0.9583  0.4257 -0.4801
 3029SOL     vw12116   4.047   6.429   0.104  0.0515  0.1130  0.2418
 3030SOL     ow12117   0.086   0.023   0.053 -0.5028 -0.7179 -0.2179
 3030SOL     hw12118   0.078   0.108   0.096 -0.7621  1.2567 -3.7713
 3030SOL     hw12119   0.146  -0.027   0.109  1.8381  2.7802  0.7084
 3030SOL     vw12120   0.093   0.027   0.066 -0.2281  0.0041 -0.5645
 3031SOL     ow12121   6.166   5.281   2.792 -0.1240 -0.1798 -0.4655
 3031SOL     hw12122   6.199   5.211   2.848  1.6106  0.7647 -0.2469
 3031SOL     hw12123   6.096   5.240   2.741  0.7221 -2.0143 -0.2270
 3031SOL     vw12124   6.161   5.267   2.793  0.2165 -0.2971 -0.4052
 3032SOL     ow12125   1.735   0.209   3.595 -0.4704  0.2649 -0.3593
 3032SOL     hw12126   1.675   0.230   3.667  0.3186  3.3034 -0.4720
 3032SOL     hw12127   1.816   0.255   3.618  0.9083 -1.4375 -1.6068
 3032SOL     vw12128   1.738   0.218   3.608 -0.1844  0.4412 -0.5387
 3033SOL     ow12129   2.913   2.729   7.221  0.1855  0.1097 -0.0010
 3033SOL     hw12130   2.896   2.758   7.310  1.6015  0.5610  0.1435
 3033SOL     hw12131   3.006   2.707   7.220  0.9975  3.0557 -2.1097
 3033SOL     vw12132   2.923   2.730   7.232  0.4795  0.5579 -0.2601
 3034SOL     ow12133   4.879   5.805   0.496 -0.3493  0.3171  0.6547
 3034SOL     hw12134   4.928   5.830   0.574  1.3000  0.8872 -0.5184
 3034SOL     hw12135   4.849   5.716   0.514  1.1268 -0.0486  1.4194
 3034SOL     vw12136   4.881   5.797   0.509  0.0632  0.3440  0.6008
 3035SOL     ow12137   0.629   1.342   2.461  0.1031  0.2094 -0.1479
 3035SOL     hw12138   0.682   1.354   2.383  0.2830  2.1125  0.2330
 3035SOL     hw12139   0.692   1.325   2.531 -0.0656 -1.6727 -0.3908
 3035SOL     vw12140   0.644   1.341   2.460  0.1046  0.2121 -0.1296
 3036SOL     ow12141   0.989   1.440   2.806 -0.1274 -0.3753  0.5856
 3036SOL     hw12142   1.075   1.400   2.795  0.1527  0.2790  0.3797
 3036SOL     hw12143   0.997   1.492   2.886  1.1337  3.3755 -1.7493
 3036SOL     vw12144   1.001   1.441   2.815  0.0759  0.2059  0.2505
 3037SOL     ow12145   5.342   1.619   1.081  0.2481  0.5392  0.1923
 3037SOL     hw12146   5.267   1.568   1.112 -0.1665  0.5412 -0.7794
 3037SOL     hw12147   5.411   1.555   1.070 -0.4927  0.0135 -1.7619
 3037SOL     vw12148   5.341   1.604   1.084  0.0956  0.4701 -0.1937
 3038SOL     ow12149   0.684   3.248   7.406  0.5632  0.0397  0.0622
 3038SOL     hw12150   0.763   3.195   7.404 -0.0012 -0.8826 -2.8605
 3038SOL     hw12151   0.709   3.328   7.453  2.1811 -1.6267  2.2362
 3038SOL     vw12152   0.698   3.252   7.412  0.7022 -0.3018 -0.0365
 3039SOL     ow12153   0.568   1.579   1.619 -0.5089 -1.1102 -0.2512
 3039SOL     hw12154   0.629   1.652   1.623 -0.6421 -0.9993 -0.2199
 3039SOL     hw12155   0.481   1.620   1.622 -0.6039 -1.2014 -1.3553
 3039SOL     vw12156   0.564   1.594   1.620 -0.5390 -1.1076 -0.3928
 3040SOL     ow12157   0.545   1.525   0.216  0.3636 -0.0753 -0.5070
 3040SOL     hw12158   0.612   1.559   0.275  1.2783 -0.8640 -1.0434
 3040SOL     hw12159   0.465   1.521   0.268  0.8908  0.2706  0.3432
 3040SOL     vw12160   0.543   1.529   0.230  0.5538 -0.1337 -0.4656
 3041SOL     ow12161   6.572   1.656   1.182 -0.3424  0.3457  0.3623
 3041SOL     hw12162   6.654   1.630   1.224  0.4814  0.5531 -1.0657
 3041SOL     hw12163   6.599   1.711   1.108 -1.8139  1.1849  0.4040
 3041SOL     vw12164   6.587   1.660   1.178 -0.4280  0.4838  0.1795
 3042SOL     ow12165   6.948   2.084   0.519  0.1517 -0.1190 -0.2597
 3042SOL     hw12166   6.968   2.084   0.426 -0.4243 -0.1363 -0.3838
 3042SOL     hw12167   6.863   2.041   0.526  0.6474 -1.0456  0.3678
 3042SOL     vw12168   6.940   2.078   0.508  0.1409 -0.2434 -0.1933
 3043SOL     ow12169   3.702   6.066   2.905  1.0346  0.7308 -0.3102
 3043SOL     hw12170   3.715   6.131   2.974  0.2848  2.2859 -1.5624
 3043SOL     hw12171   3.720   6.114   2.824 -3.3988  0.6694 -1.5994
 3043SOL     vw12172   3.706   6.081   2.904  0.3508  0.9279 -0.6455
 3044SOL     ow12173   6.324   1.596   1.326  0.3695 -0.2767 -0.1525
 3044SOL     hw12174   6.297   1.534   1.394 -0.5683 -1.6461 -1.6851
 3044SOL     hw12175   6.262   1.668   1.332  0.0216 -0.5996  0.1912
 3044SOL     vw12176   6.312   1.597   1.335  0.1998 -0.5000 -0.3094
 3045SOL     ow12177   5.893   3.722   5.084 -0.0120 -0.0602  0.0979
 3045SOL     hw12178   5.897   3.644   5.030  1.3683  0.8235 -1.1527
 3045SOL     hw12179   5.834   3.781   5.037 -0.8108 -0.1883  0.8844
 3045SOL     vw12180   5.886   3.720   5.071  0.0646  0.0396  0.0370
 3046SOL     ow12181   6.404   1.864   1.733 -0.0420 -0.6248  0.0797
 3046SOL     hw12182   6.343   1.791   1.741 -0.4450 -0.4410 -1.0900
 3046SOL     hw12183   6.387   1.918   1.810 -2.3116  0.1091 -0.8517
 3046SOL     vw12184   6.393   1.861   1.744 -0.3946 -0.5037 -0.1975
 3047SOL     ow12185   5.883   5.335   1.145 -0.4702 -0.3692 -1.0879
 3047SOL     hw12186   5.793   5.318   1.173 -1.1551 -0.1798 -3.0728
 3047SOL     hw12187   5.935   5.272   1.194 -1.7380 -0.8929 -0.3635
 3047SOL     vw12188   5.878   5.325   1.155 -0.7279 -0.4129 -1.2541
 3048SOL     ow12189   6.808   1.856   2.976 -0.0591  0.2695 -0.5239
 3048SOL     hw12190   6.893   1.816   2.992 -0.6345 -0.5406  0.6207
 3048SOL     hw12191   6.753   1.825   3.047 -2.0329 -1.3398 -2.5822
 3048SOL     vw12192   6.812   1.847   2.987 -0.3955 -0.0498 -0.6447
 3049SOL     ow12193   2.146   6.016   5.748  0.2849 -0.8516  0.0849
 3049SOL     hw12194   2.112   6.052   5.666 -1.2760  1.2212  1.5497
 3049SOL     hw12195   2.233   6.055   5.758  1.8699 -3.4503 -1.9306
 3049SOL     vw12196   2.153   6.026   5.738  0.2880 -0.9210  0.0124
 3050SOL     ow12197   3.963   5.771   3.352 -0.8232  0.5365  0.2766
 3050SOL     hw12198   3.878   5.729   3.340 -0.3093 -0.5513  0.3820
 3050SOL     hw12199   3.999   5.731   3.431  0.7117 -0.6128 -0.9436
 3050SOL     vw12200   3.956   5.760   3.361 -0.5529  0.2415  0.1293
 3051SOL     ow12201   2.559   7.092   7.360 -1.5589 -0.4381  0.2982
 3051SOL     hw12202   2.590   7.002   7.360 -0.7059 -0.1590  0.6767
 3051SOL     hw12203   2.581   7.126   7.273  0.2273  0.0791  0.9140
 3051SOL     vw12204   2.566   7.085   7.349 -1.2108 -0.3331  0.4292
 3052SOL     ow12205   7.235   1.959   4.880  0.1886  1.0175 -0.5046
 3052SOL     hw12206   7.228   1.990   4.970  1.9970  0.7657 -0.2263
 3052SOL     hw12207   7.296   1.885   4.885  0.5990  1.2204 -1.9714
 3052SOL     vw12208   7.242   1.953   4.893  0.4814  1.0111 -0.6614
 3053SOL     ow12209   3.350   1.555   6.204  0.0253 -1.3002  0.0849
 3053SOL     hw12210   3.430   1.563   6.255 -0.8647 -0.2527  1.3910
 3053SOL     hw12211   3.288   1.614   6.247 -0.5165  0.4380 -2.7715
 3053SOL     vw12212   3.352   1.564   6.216 -0.1636 -0.9327 -0.1199
 3054SOL     ow12213   6.839   3.165   1.253 -1.1597 -0.5858 -0.3024
 3054SOL     hw12214   6.749   3.196   1.259 -0.5330  1.4476 -0.5120
 3054SOL     hw12215   6.892   3.242   1.274  0.5421 -2.1594  1.6448
 3054SOL     vw12216   6.834   3.179   1.257 -0.8526 -0.5251 -0.0731
 3055SOL     ow12217   0.275   2.665   1.841  0.2982  0.0992 -0.5271
 3055SOL     hw12218   0.240   2.578   1.863 -0.9281  0.2830 -1.6292
 3055SOL     hw12219   0.216   2.726   1.884 -0.4748  0.4063 -1.9575
 3055SOL     vw12220   0.263   2.661   1.850  0.0344  0.1639 -0.8612
 3056SOL     ow12221   4.026   5.656   3.584  0.1298 -0.0121 -0.3947
 3056SOL     hw12222   4.058   5.720   3.647  3.5876 -2.2751  0.4197
 3056SOL     hw12223   3.963   5.603   3.633  0.7395 -0.0637  0.3415
 3056SOL     vw12224   4.022   5.657   3.598  0.6664 -0.3176 -0.1900
 3057SOL     ow12225   5.408   4.993   3.707  0.1388  0.4229  0.3992
 3057SOL     hw12226   5.322   5.003   3.666  0.3341  0.7079  0.0580
 3057SOL     hw12227   5.458   5.069   3.678  0.6848 -0.0234  0.1534
 3057SOL     vw12228   5.403   5.004   3.698  0.2367  0.4017  0.3217
 3058SOL     ow12229   0.365   1.627   6.676 -0.9724  0.0746  0.0992
 3058SOL     hw12230   0.356   1.552   6.617 -0.4169  1.3961 -1.7423
 3058SOL     hw12231   0.321   1.699   6.631  0.7717  1.5035  0.5690
 3058SOL     vw12232   0.358   1.627   6.662 -0.6690  0.4374 -0.0818
 3059SOL     ow12233   6.478   1.818   4.781  0.2958  0.7585 -0.7758
 3059SOL     hw12234   6.395   1.860   4.762  0.2064  1.7729  1.6001
 3059SOL     hw12235   6.455   1.739   4.829  0.6816  0.8984 -0.3515
 3059SOL     vw12236   6.464   1.813   4.785  0.3345  0.9108 -0.4065
 3060SOL     ow12237   2.172   1.118   2.277  0.0134 -0.5027 -0.7672
 3060SOL     hw12238   2.247   1.173   2.251 -0.7017 -0.4307 -2.9042
 3060SOL     hw12239   2.101   1.180   2.292  0.0773 -0.6490  0.2107
 3060SOL     vw12240   2.173   1.134   2.275 -0.0725 -0.5125 -0.9201
 3061SOL     ow12241   6.760   3.483   2.271 -0.1859  0.4056  0.1313
 3061SOL     hw12242   6.791   3.392   2.271 -1.0838  0.0943 -0.1269
 3061SOL     hw12243   6.693   3.486   2.203 -0.8802  1.0155  0.8277
 3061SOL     vw12244   6.756   3.471   2.262 -0.3960  0.4451  0.1891
 3062SOL     ow12245   1.074   0.147   4.399 -0.0391 -0.9667 -0.7855
 3062SOL     hw12246   1.093   0.220   4.340 -2.4409  0.3151 -0.0864
 3062SOL     hw12247   1.115   0.173   4.482  1.3050 -1.6652 -1.2015
 3062SOL     vw12248   1.082   0.160   4.402 -0.1786 -0.8897 -0.7484
 3063SOL     ow12249   5.959   2.100   5.235  0.3555 -0.6280 -0.1827
 3063SOL     hw12250   5.925   2.022   5.281  1.7592  0.1075  2.2739
 3063SOL     hw12251   5.912   2.173   5.275  1.9534  0.0798  0.4593
 3063SOL     vw12252   5.948   2.099   5.246  0.7515 -0.4374  0.2260
 3064SOL     ow12253   7.274   3.485   2.790  0.6869  0.0801 -0.2111
 3064SOL     hw12254   7.333   3.546   2.747 -0.6573 -0.1255 -2.5097
 3064SOL     hw12255   7.309   3.399   2.767  1.0720 -0.0437  0.8031
 3064SOL     vw12256   7.286   3.482   2.781  0.5605  0.0367 -0.3806
 3065SOL     ow12257   4.077   1.368   5.172 -0.1755  0.3943 -0.3318
 3065SOL     hw12258   4.031   1.309   5.232  0.1479  0.2342 -0.2369
 3065SOL     hw12259   4.025   1.448   5.172  0.0043  0.5142  0.4219
 3065SOL     vw12260   4.064   1.371   5.180 -0.1092  0.3890 -0.2198
 3066SOL     ow12261   4.858   2.534   4.950  0.2036 -0.0689 -0.2646
 3066SOL     hw12262   4.859   2.485   5.032  0.5735 -1.6914 -1.1959
 3066SOL     hw12263   4.773   2.515   4.912  0.0516  0.6450 -0.2871
 3066SOL     vw12264   4.847   2.525   4.956  0.2325 -0.1888 -0.3901
 3067SOL     ow12265   7.580   5.718   0.339 -0.2337 -0.0862 -0.3486
 3067SOL     hw12266   7.649   5.702   0.403 -1.3894  0.5508  1.1186
 3067SOL     hw12267   7.617   5.781   0.278  0.0720  1.2572  1.1666
 3067SOL     vw12268   7.594   5.724   0.339 -0.3459  0.1752  0.0449
 3068SOL     ow12269   3.223   1.465   5.602  0.3071  0.0024 -0.3868
 3068SOL     hw12270   3.185   1.378   5.613  1.4669 -0.5212 -0.3640
 3068SOL     hw12271   3.315   1.448   5.581  0.5315  1.2232 -0.4425
 3068SOL     vw12272   3.230   1.451   5.601  0.4898  0.0944 -0.3912
 3069SOL     ow12273   1.916   4.564   6.141  0.1636 -0.4603  0.1186
 3069SOL     hw12274   1.983   4.577   6.208 -0.7171  0.3642  0.8646
 3069SOL     hw12275   1.844   4.621   6.168 -0.5322 -0.7413 -1.0899
 3069SOL     vw12276   1.915   4.573   6.154 -0.0444 -0.3884  0.0577
 3070SOL     ow12277   0.787   3.863   0.580 -0.1400  0.4377  0.0507
 3070SOL     hw12278   0.829   3.945   0.608  0.8881 -0.4324  1.1816
 3070SOL     hw12279   0.825   3.844   0.495  0.0452  0.8255  0.0436
 3070SOL     vw12280   0.797   3.872   0.573  0.0201  0.3741  0.1990
 3071SOL     ow12281   5.663   1.411   6.312  0.5856  0.1331  0.4260
 3071SOL     hw12282   5.603   1.423   6.386 -0.5873  0.5708 -0.5655
 3071SOL     hw12283   5.714   1.492   6.309  0.5140  0.1869  0.6456
 3071SOL     vw12284   5.662   1.423   6.322  0.4215  0.1980  0.3242
 3072SOL     ow12285   4.307   6.945   1.031  0.0639  0.1107  0.5034
 3072SOL     hw12286   4.336   6.920   1.119  0.9070 -0.5778  0.0475
 3072SOL     hw12287   4.341   6.876   0.975 -2.8710 -1.0263 -0.0482
 3072SOL     vw12288   4.315   6.933   1.036 -0.2122 -0.1302  0.3705
 3073SOL     ow12289   2.447   7.535   7.440  0.3909  0.4840 -0.3540
 3073SOL     hw12290   2.408   7.496   7.362  1.1240  2.7275 -1.9538
 3073SOL     hw12291   2.512   7.597   7.406  0.9996  1.2847  2.0563
 3073SOL     vw12292   2.450   7.538   7.425  0.5679  0.8855 -0.2472
 3074SOL     ow12293   0.030   5.208   0.570  0.3194 -0.2253  0.2405
 3074SOL     hw12294  -0.008   5.263   0.501 -0.1739 -0.6127  0.1944
 3074SOL     hw12295   0.122   5.234   0.574  0.0792  0.6357  0.2543
 3074SOL     vw12296   0.037   5.219   0.561  0.2227 -0.1631  0.2362
 3075SOL     ow12297   0.181   6.268   5.354  0.2185 -0.6793  0.4585
 3075SOL     hw12298   0.234   6.273   5.275  1.2533 -0.6653  1.1447
 3075SOL     hw12299   0.148   6.357   5.366 -3.5086 -1.4300 -2.2850
 3075SOL     vw12300   0.183   6.281   5.346 -0.1367 -0.7765  0.1872
 3076SOL     ow12301   4.170   0.934   5.384 -0.0295  0.3454  0.3768
 3076SOL     hw12302   4.259   0.910   5.411  0.2518  1.1726  0.2187
 3076SOL     hw12303   4.117   0.920   5.463 -0.0421 -1.5172  0.0857
 3076SOL     vw12304   4.175   0.929   5.398  0.0062  0.2088  0.3176
 3077SOL     ow12305   5.368   7.481   4.848  0.6676  0.0891  0.1457
 3077SOL     hw12306   5.372   7.418   4.776 -1.1781  0.6001 -0.4588
 3077SOL     hw12307   5.274   7.493   4.865  1.0250  0.2566  2.4144
 3077SOL     vw12308   5.356   7.474   4.841  0.4711  0.1786  0.3653
 3078SOL     ow12309   6.380   1.673   6.781  0.0573  0.0620  0.4489
 3078SOL     hw12310   6.406   1.582   6.775  1.8452  0.4590  1.5625
 3078SOL     hw12311   6.292   1.675   6.743  0.8757 -1.6848 -1.7646
 3078SOL     vw12312   6.372   1.662   6.775  0.4015 -0.1161  0.3040
 3079SOL     ow12313   0.509   0.294   2.510  0.4741 -0.2636  0.2050
 3079SOL     hw12314   0.424   0.333   2.530  2.1163  2.5242  2.4298
 3079SOL     hw12315   0.540   0.341   2.433  1.2690  0.9547  1.2385
 3079SOL     vw12316   0.502   0.305   2.502  0.7956  0.2650  0.6349
 3080SOL     ow12317   3.752   4.754   7.479 -0.0276 -0.0598  0.4491
 3080SOL     hw12318   3.689   4.682   7.478  0.0168 -0.0988  0.3027
 3080SOL     hw12319   3.750   4.788   7.568  0.6835 -0.8923  0.7991
 3080SOL     vw12320   3.744   4.749   7.490  0.0721 -0.1748  0.4756
 3081SOL     ow12321   2.606   7.237   6.297 -0.0795 -0.4743 -0.1596
 3081SOL     hw12322   2.624   7.197   6.212 -0.1524  0.5059 -0.6583
 3081SOL     hw12323   2.575   7.166   6.352  1.7318 -1.5093 -0.3903
 3081SOL     vw12324   2.605   7.223   6.293  0.1498 -0.4816 -0.2558
 3082SOL     ow12325   5.509   6.566   4.684  0.2770 -0.1378  0.1457
 3082SOL     hw12326   5.450   6.506   4.729 -0.7788  0.7899  0.0404
 3082SOL     hw12327   5.454   6.612   4.620  1.4468 -0.3969 -1.1099
 3082SOL     vw12328   5.494   6.564   4.681  0.2921 -0.0496 -0.0341
 3083SOL     ow12329   3.386   6.921   7.463  0.1752 -0.1822  0.5106
 3083SOL     hw12330   3.358   6.832   7.484 -0.4206  0.2004  1.3893
 3083SOL     hw12331   3.476   6.911   7.433 -0.5362 -1.3241 -1.4355
 3083SOL     vw12332   3.394   6.908   7.462  0.0029 -0.2825  0.3698
 3084SOL     ow12333   3.965   0.669   5.464 -0.1314 -0.0658 -0.1008
 3084SOL     hw12334   4.018   0.711   5.397  0.5528  0.4737  0.7577
 3084SOL     hw12335   4.009   0.586   5.482  2.7637  1.9137  3.2673
 3084SOL     vw12336   3.977   0.663   5.458  0.3409  0.2666  0.4568
 3085SOL     ow12337   5.472   6.973   5.128 -1.0008  0.0260  0.3998
 3085SOL     hw12338   5.518   6.995   5.209 -1.3116  0.8928  0.3401
 3085SOL     hw12339   5.410   6.904   5.154  2.3579 -3.5749 -0.0664
 3085SOL     vw12340   5.470   6.967   5.143 -0.5987 -0.3350  0.3302
 3086SOL     ow12341   6.786   2.483   0.607 -0.3119  0.1176  0.4839
 3086SOL     hw12342   6.751   2.565   0.571 -3.2396 -0.5433  1.5566
 3086SOL     hw12343   6.777   2.420   0.535 -0.0747  0.2596  0.3301
 3086SOL     vw12344   6.780   2.486   0.592 -0.6669  0.0491  0.6052
 3087SOL     ow12345   6.746   3.658   4.227  0.0652 -0.2966 -0.0338
 3087SOL     hw12346   6.662   3.631   4.265 -0.4642  1.6031  0.2481
 3087SOL     hw12347   6.796   3.691   4.302  0.1649  0.7121 -0.5295
 3087SOL     vw12348   6.741   3.659   4.242  0.0086  0.0871 -0.0620
 3088SOL     ow12349   0.200   6.257   6.620 -0.3059  0.0866 -0.2901
 3088SOL     hw12350   0.242   6.343   6.617 -0.4066  0.1163 -0.9912
 3088SOL     hw12351   0.221   6.218   6.535 -0.2597 -0.5826  0.0277
 3088SOL     vw12352   0.209   6.263   6.608 -0.3131  0.0021 -0.3407
 3089SOL     ow12353   1.256   7.499   5.395  0.5680 -0.3258 -0.2059
 3089SOL     hw12354   1.254   7.437   5.322 -0.1412 -0.3811 -0.1427
 3089SOL     hw12355   1.192   7.465   5.458  1.6851 -0.6696  0.7708
 3089SOL     vw12356   1.247   7.486   5.394  0.6218 -0.3786 -0.0684
 3090SOL     ow12357   2.940   1.782   2.488  0.2440  0.2157 -0.1900
 3090SOL     hw12358   2.939   1.873   2.459 -0.7101 -0.2410 -1.7012
 3090SOL     hw12359   2.914   1.786   2.580 -2.6918  1.3116 -0.9483
 3090SOL     vw12360   2.936   1.795   2.496 -0.2693  0.3000 -0.4896
 3091SOL     ow12361   6.470   3.591   6.358  0.1791  0.4003  0.1508
 3091SOL     hw12362   6.397   3.541   6.396 -0.2844  1.2371  0.3937
 3091SOL     hw12363   6.513   3.530   6.299 -0.5499 -0.1999  0.2265
 3091SOL     vw12364   6.466   3.577   6.355  0.0219  0.4317  0.1926
 3092SOL     ow12365   0.413   1.221   1.790  0.2395 -0.0584  0.4612
 3092SOL     hw12366   0.372   1.139   1.817  1.6225 -1.0798 -0.4073
 3092SOL     hw12367   0.443   1.205   1.701  2.8488  0.4428  1.1542
 3092SOL     vw12368   0.412   1.208   1.782  0.7663 -0.1270  0.4380
 3093SOL     ow12369   1.412   0.726   7.029 -0.6216  0.0575 -0.0600
 3093SOL     hw12370   1.320   0.713   7.051 -1.1231  2.2585 -0.6499
 3093SOL     hw12371   1.455   0.742   7.114 -1.3069  1.7459 -0.0043
 3093SOL     vw12372   1.406   0.726   7.043 -0.7781  0.5707 -0.1307
 3094SOL     ow12373   4.786   7.302   1.518 -0.6757  0.6407 -0.2572
 3094SOL     hw12374   4.832   7.285   1.435 -2.1969  1.4966 -1.3127
 3094SOL     hw12375   4.767   7.215   1.553 -0.0987  0.2700 -0.8385
 3094SOL     vw12376   4.790   7.288   1.512 -0.8001  0.7048 -0.4731
 3095SOL     ow12377   0.708   3.465   0.962 -0.0579 -0.0946 -0.5655
 3095SOL     hw12378   0.651   3.389   0.970 -0.5559  0.2731 -0.5909
 3095SOL     hw12379   0.715   3.499   1.052  0.2825 -0.2502 -0.5297
 3095SOL     vw12380   0.702   3.459   0.975 -0.0787 -0.0666 -0.5641
 3096SOL     ow12381   0.915   5.534   3.171  0.1600  0.3066  0.0945
 3096SOL     hw12382   0.839   5.503   3.220 -1.8763  4.4605 -0.0629
 3096SOL     hw12383   0.958   5.597   3.228  1.4633  0.6059 -1.1455
 3096SOL     vw12384   0.911   5.538   3.185  0.0633  0.8943 -0.0898
 3097SOL     ow12385   6.528   1.007   0.247 -0.1115 -0.0505  0.3211
 3097SOL     hw12386   6.598   1.056   0.205 -0.0285  0.0900  0.6198
 3097SOL     hw12387   6.550   1.009   0.340 -1.2022  1.1529  0.5877
 3097SOL     vw12388   6.540   1.014   0.254 -0.2446  0.1268  0.3957
 3098SOL     ow12389   4.494   4.953   0.736  0.0783 -0.3069 -0.2731
 3098SOL     hw12390   4.537   5.022   0.786  1.6227  1.1119 -3.2878
 3098SOL     hw12391   4.409   4.989   0.712  0.1851 -0.1300 -0.3913
 3098SOL     vw12392   4.488   4.967   0.739  0.2961 -0.0963 -0.6865
 3099SOL     ow12393   4.208   2.978   0.364 -0.2454 -0.1253  0.2286
 3099SOL     hw12394   4.132   2.965   0.422 -0.6497  0.8348 -0.0690
 3099SOL     hw12395   4.182   3.049   0.306  0.7169 -0.0970 -0.1870
 3099SOL     vw12396   4.194   2.986   0.364 -0.1719  0.0050  0.1345
 3100SOL     ow12397   4.549   2.591   4.396  0.1111 -0.1875 -0.5326
 3100SOL     hw12398   4.515   2.649   4.464  0.4748 -0.1323 -0.3984
 3100SOL     hw12399   4.601   2.648   4.339 -0.3249 -0.2009 -0.9547
 3100SOL     vw12400   4.551   2.606   4.397  0.1013 -0.1819 -0.5705
 3101SOL     ow12401   1.420   7.170   5.052 -0.1028  0.2541  0.2118
 3101SOL     hw12402   1.407   7.080   5.023 -0.4353  0.7102 -1.1334
 3101SOL     hw12403   1.351   7.185   5.116 -0.8798 -0.0433 -0.5407
 3101SOL     vw12404   1.409   7.160   5.057 -0.2492  0.2749 -0.0646
 3102SOL     ow12405   4.455   6.215   5.111 -0.0497 -0.4724 -0.0264
 3102SOL     hw12406   4.511   6.260   5.175  0.9097 -2.1172  0.3445
 3102SOL     hw12407   4.387   6.173   5.164 -0.8014  0.3293 -0.3467
 3102SOL     vw12408   4.454   6.215   5.126 -0.0222 -0.5839 -0.0198
 3103SOL     ow12409   3.702   4.702   1.293 -0.3642 -0.2228  0.0725
 3103SOL     hw12410   3.675   4.623   1.339 -1.0164 -0.7478 -1.1781
 3103SOL     hw12411   3.712   4.768   1.363 -3.1570 -0.4598  0.8057
 3103SOL     vw12412   3.700   4.701   1.309 -0.8188 -0.3233  0.0042
 3104SOL     ow12413   0.079   3.697   6.924  0.0526  0.6391 -0.1985
 3104SOL     hw12414   0.068   3.685   6.829 -0.9831 -0.6459  0.0435
 3104SOL     hw12415   0.083   3.791   6.936 -0.5134  0.8502 -1.4566
 3104SOL     vw12416   0.078   3.708   6.913 -0.1587  0.4975 -0.3326
 3105SOL     ow12417   4.682   7.411   3.466 -0.3521  0.5760  0.4454
 3105SOL     hw12418   4.622   7.485   3.467 -2.5336 -1.0132 -1.3400
 3105SOL     hw12419   4.627   7.335   3.486  0.9731 -0.9873 -1.3783
 3105SOL     vw12420   4.667   7.411   3.469 -0.4652  0.1600 -0.0310
 3106SOL     ow12421   7.199   7.245   4.213  0.0458  0.7908  0.5036
 3106SOL     hw12422   7.208   7.159   4.172 -0.0149  0.4433  1.2151
 3106SOL     hw12423   7.289   7.280   4.214 -0.2259  1.9008 -2.1947
 3106SOL     vw12424   7.212   7.238   4.207  0.0021  0.8914  0.2415
 3107SOL     ow12425   6.676   2.032   0.552  0.4109  0.4629  0.1592
 3107SOL     hw12426   6.668   1.968   0.623  1.6533  0.6639  0.4879
 3107SOL     hw12427   6.641   2.113   0.589  3.4690  1.2950  1.5455
 3107SOL     vw12428   6.670   2.034   0.566  0.9780  0.5991  0.3855
 3108SOL     ow12429   4.347   2.444   5.245 -0.3684  0.0513  0.2716
 3108SOL     hw12430   4.404   2.485   5.181 -0.3404 -0.7922 -0.2648
 3108SOL     hw12431   4.405   2.391   5.299 -0.4352  0.4944  0.7784
 3108SOL     vw12432   4.362   2.442   5.244 -0.3736 -0.0015  0.2677
 3109SOL     ow12433   3.053   3.483   1.511  0.6577  0.3970 -0.5132
 3109SOL     hw12434   2.961   3.511   1.505  0.0059 -0.8415  2.1154
 3109SOL     hw12435   3.102   3.565   1.518 -0.2643  1.0666 -1.4878
 3109SOL     vw12436   3.047   3.497   1.511  0.4501  0.3217 -0.2949
 3110SOL     ow12437   3.945   5.485   4.199 -0.2191 -0.2937  0.1187
 3110SOL     hw12438   3.894   5.564   4.214  2.1075  0.7258  4.2511
 3110SOL     hw12439   3.898   5.417   4.247  0.1108 -0.3290  0.3951
 3110SOL     vw12440   3.932   5.486   4.207  0.1314 -0.1636  0.7002
 3111SOL     ow12441   1.646   0.286   3.336  0.3431  0.3283 -0.4090
 3111SOL     hw12442   1.614   0.318   3.420 -0.9756  0.0235 -0.7821
 3111SOL     hw12443   1.573   0.297   3.276  1.3106  0.6668 -1.5608
 3111SOL     vw12444   1.632   0.291   3.339  0.2969  0.3328 -0.6104
 3112SOL     ow12445   3.990   2.617   3.197  0.6604 -0.3778 -0.4922
 3112SOL     hw12446   4.052   2.593   3.128  0.2104  1.5836 -1.6452
 3112SOL     hw12447   4.011   2.558   3.269  1.3762 -2.2921 -2.1581
 3112SOL     vw12448   4.001   2.606   3.197  0.6955 -0.3717 -0.8640
 3113SOL     ow12449   2.631   1.391   2.298 -0.4092 -0.3694 -0.1480
 3113SOL     hw12450   2.641   1.354   2.386  1.0787  1.2360  0.4103
 3113SOL     hw12451   2.583   1.473   2.313 -0.0662 -0.0425 -0.8167
 3113SOL     vw12452   2.626   1.397   2.312 -0.1677 -0.1145 -0.1626
 3114SOL     ow12453   6.674   4.973   2.228 -0.3323  0.3017  0.4051
 3114SOL     hw12454   6.659   4.935   2.315  0.2910 -1.8976 -0.3711
 3114SOL     hw12455   6.649   4.903   2.167  0.8423  1.1681 -1.1460
 3114SOL     vw12456   6.669   4.959   2.232 -0.0951  0.1259  0.0980
 3115SOL     ow12457   3.715   1.174   1.287 -0.2267  0.0390 -0.2250
 3115SOL     hw12458   3.702   1.190   1.380 -1.0874 -0.4917 -0.2369
 3115SOL     hw12459   3.762   1.250   1.255  4.3604 -1.7495  1.5173
 3115SOL     vw12460   3.719   1.186   1.295  0.2650 -0.2671  0.0033
 3116SOL     ow12461   1.617   6.713   3.511  0.2526 -0.4303  0.0353
 3116SOL     hw12462   1.618   6.747   3.600  2.6073  2.3768 -0.9240
 3116SOL     hw12463   1.585   6.786   3.457  0.4463 -1.4996 -1.6139
 3116SOL     vw12464   1.613   6.727   3.516  0.5888 -0.2012 -0.3090
 3117SOL     ow12465   4.915   0.208   4.174  0.2774  0.3929 -0.5081
 3117SOL     hw12466   4.987   0.237   4.229 -0.5997  0.0129  0.8791
 3117SOL     hw12467   4.954   0.142   4.116  0.7464 -1.0249  1.3365
 3117SOL     vw12468   4.930   0.203   4.174  0.2239  0.1557 -0.0818
 3118SOL     ow12469   0.223   5.235   4.503 -0.4113  0.3262 -0.2546
 3118SOL     hw12470   0.284   5.303   4.473  2.2435 -0.8526  1.9456
 3118SOL     hw12471   0.153   5.283   4.547 -0.3928  1.7173 -1.6879
 3118SOL     vw12472   0.222   5.250   4.505 -0.0586  0.3541 -0.1535
 3119SOL     ow12473   6.358   2.789   0.968 -0.4357 -0.5318  0.1555
 3119SOL     hw12474   6.433   2.806   0.910 -0.7112 -0.6821 -0.2500
 3119SOL     hw12475   6.389   2.722   1.029 -0.3452 -0.8404 -0.2247
 3119SOL     vw12476   6.372   2.783   0.968 -0.4601 -0.5925  0.0518
 3120SOL     ow12477   2.028   0.149   1.400 -0.1889  0.2744 -0.0600
 3120SOL     hw12478   1.974   0.154   1.321 -0.6954  1.3305  0.3254
 3120SOL     hw12479   1.969   0.175   1.470 -0.1407 -1.9852  0.8914
 3120SOL     vw12480   2.013   0.154   1.399 -0.2494  0.1156  0.1164
 3121SOL     ow12481   4.439   5.065   1.456  0.0308 -0.2221  0.0234
 3121SOL     hw12482   4.431   4.997   1.523  1.2359 -0.1130  0.2908
 3121SOL     hw12483   4.451   5.146   1.506  1.4234 -0.2051 -0.3085
 3121SOL     vw12484   4.439   5.066   1.472  0.3736 -0.2055  0.0148
 3122SOL     ow12485   1.764   4.918   2.877 -0.2809  0.2159  0.2761
 3122SOL     hw12486   1.705   4.985   2.842  0.9367  1.5658  0.6742
 3122SOL     hw12487   1.838   4.968   2.913  2.1762 -1.4218 -2.0773
 3122SOL     vw12488   1.766   4.934   2.877  0.2039  0.1779  0.0182
 3123SOL     ow12489   2.752   4.933   3.053  0.3735  0.0653 -0.4298
 3123SOL     hw12490   2.779   4.878   3.126  0.3685 -2.6874 -2.3318
 3123SOL     hw12491   2.681   4.884   3.011 -1.1526  2.5932 -1.0655
 3123SOL     vw12492   2.746   4.919   3.057  0.1713  0.0353 -0.7646
 3124SOL     ow12493   4.425   2.431   2.111  0.3663  0.5799 -0.0618
 3124SOL     hw12494   4.352   2.450   2.051  1.5405  1.2348 -1.3532
 3124SOL     hw12495   4.500   2.417   2.053  1.0357 -1.3210  1.1758
 3124SOL     vw12496   4.425   2.432   2.095  0.6094  0.4156 -0.0689
 3125SOL     ow12497   1.169   1.137   6.612 -0.1973  0.8306 -0.2510
 3125SOL     hw12498   1.173   1.144   6.516 -0.7071 -2.0920 -0.5837
 3125SOL     hw12499   1.076   1.126   6.631 -0.2193  2.4289  0.7444
 3125SOL     vw12500   1.157   1.136   6.602 -0.2674  0.6559 -0.1638
 3126SOL     ow12501   3.778   6.117   2.367 -0.3704  0.2925  0.0757
 3126SOL     hw12502   3.695   6.156   2.338 -0.8936  0.0798  1.1979
 3126SOL     hw12503   3.846   6.172   2.328 -1.0720  1.3796  0.3392
 3126SOL     vw12504   3.776   6.130   2.358 -0.5319  0.4079  0.2583
 3127SOL     ow12505   5.380   4.441   5.771 -0.3624  0.2511  0.5068
 3127SOL     hw12506   5.340   4.404   5.850  0.1698  2.1393  1.7275
 3127SOL     hw12507   5.392   4.534   5.792 -0.4940  0.8742 -1.9327
 3127SOL     vw12508   5.376   4.448   5.784 -0.3092  0.5827  0.3462
 3128SOL     ow12509   0.141   4.620   2.702 -0.4875 -0.5228  0.2863
 3128SOL     hw12510   0.213   4.679   2.679 -0.8182 -0.4124 -0.5168
 3128SOL     hw12511   0.178   4.532   2.691 -0.6992 -0.4748 -0.9308
 3128SOL     vw12512   0.155   4.616   2.698 -0.5590 -0.5021  0.0198
 3129SOL     ow12513   5.439   5.478   0.809  0.2458  0.4111 -0.2669
 3129SOL     hw12514   5.446   5.534   0.887  1.1018 -1.6643  1.2366
 3129SOL     hw12515   5.398   5.534   0.743  0.0923  2.4640  1.4604
 3129SOL     vw12516   5.434   5.493   0.811  0.3386  0.4082  0.1594
 3130SOL     ow12517   6.662   2.718   0.502  0.0603  0.4222 -0.0003
 3130SOL     hw12518   6.572   2.744   0.520  0.0628  1.9720 -1.9033
 3130SOL     hw12519   6.699   2.792   0.454  1.4818 -1.3088 -1.7521
 3130SOL     vw12520   6.655   2.731   0.498  0.2482  0.3982 -0.4825
 3131SOL     ow12521   0.230   2.681   1.409 -0.2625  0.1656  0.4191
 3131SOL     hw12522   0.318   2.716   1.402 -0.4951  0.6983  0.1244
 3131SOL     hw12523   0.199   2.674   1.319 -0.4537 -0.2080  0.5088
 3131SOL     vw12524   0.237   2.685   1.396 -0.3184  0.1864  0.3921
 3132SOL     ow12525   0.754   4.257   5.009 -0.5315 -0.0981 -0.4477
 3132SOL     hw12526   0.825   4.311   4.974  1.0661 -1.7312  0.1180
 3132SOL     hw12527   0.793   4.209   5.082 -1.5632 -2.6638 -1.4382
 3132SOL     vw12528   0.768   4.257   5.014 -0.4568 -0.6523 -0.5038
 3133SOL     ow12529   4.730   6.072   6.979 -0.1699 -0.0089 -0.0470
 3133SOL     hw12530   4.702   6.137   6.915 -0.4665  0.4102  0.4962
 3133SOL     hw12531   4.746   6.122   7.059 -2.9754 -0.8689  1.1750
 3133SOL     vw12532   4.728   6.087   6.981 -0.5791 -0.0670  0.1860
 3134SOL     ow12533   7.313   5.325   4.413 -0.8390 -0.2857 -0.2157
 3134SOL     hw12534   7.288   5.345   4.323 -0.2726  0.7201 -0.1554
 3134SOL     hw12535   7.234   5.343   4.464 -1.4926 -1.8303 -0.5984
 3134SOL     vw12536   7.299   5.330   4.408 -0.8502 -0.3569 -0.2584
 3135SOL     ow12537   3.551   6.687   6.850  0.5100  0.7716 -0.5018
 3135SOL     hw12538   3.590   6.661   6.933 -3.0556 -3.1722  0.2694
 3135SOL     hw12539   3.590   6.628   6.785 -0.2801  0.4060 -0.6603
 3135SOL     vw12540   3.561   6.676   6.852 -0.0646  0.2029 -0.4210
 3136SOL     ow12541   6.914   0.349   3.443 -0.2496  0.9969  0.1819
 3136SOL     hw12542   6.822   0.368   3.461 -0.2631  0.2624  1.0087
 3136SOL     hw12543   6.952   0.433   3.419 -1.8716  0.7998 -3.7147
 3136SOL     vw12544   6.906   0.362   3.443 -0.4654  0.8740 -0.2232
 3137SOL     ow12545   2.833   5.834   0.319  0.0684 -0.8570  0.1983
 3137SOL     hw12546   2.833   5.901   0.387  2.5759  0.5450 -1.0022
 3137SOL     hw12547   2.752   5.850   0.270  0.1602  0.7267  0.4948
 3137SOL     vw12548   2.822   5.845   0.321  0.4114 -0.4632  0.0790
 3138SOL     ow12549   3.179   5.847   1.773  0.0628  0.1793 -0.0087
 3138SOL     hw12550   3.252   5.880   1.825  0.6073  1.7327 -1.6718
 3138SOL     hw12551   3.186   5.752   1.778  1.9164  0.3038  0.2487
 3138SOL     vw12552   3.189   5.839   1.781  0.3792  0.4005 -0.1942
 3139SOL     ow12553   3.907   5.385   3.953 -0.5218 -0.1280  0.4833
 3139SOL     hw12554   3.889   5.434   3.873 -2.7590 -1.9555 -0.2388
 3139SOL     hw12555   3.895   5.448   4.024 -0.2742  1.0875 -0.5365
 3139SOL     vw12556   3.903   5.399   3.952 -0.7843 -0.2089  0.2534
 3140SOL     ow12557   2.656   6.287   2.839 -0.2345 -0.0781  0.0912
 3140SOL     hw12558   2.646   6.232   2.761  0.1469 -1.0740  0.7248
 3140SOL     hw12559   2.641   6.376   2.807 -0.8466 -0.5325 -0.9692
 3140SOL     vw12560   2.653   6.291   2.824 -0.2649 -0.2697  0.0349
 3141SOL     ow12561   3.638   2.659   5.748 -0.1856 -0.0911  0.2712
 3141SOL     hw12562   3.682   2.696   5.671  0.3869 -2.7243 -0.7813
 3141SOL     hw12563   3.575   2.597   5.712 -1.5867  0.3259  1.9034
 3141SOL     vw12564   3.636   2.656   5.733 -0.2949 -0.3835  0.3479
 3142SOL     ow12565   4.451   3.603   1.882  0.1894  0.2618 -0.0317
 3142SOL     hw12566   4.458   3.540   1.954  1.3550 -1.1351 -1.3043
 3142SOL     hw12567   4.535   3.596   1.836 -0.0854  1.9565 -0.8792
 3142SOL     vw12568   4.463   3.594   1.886  0.3068  0.3011 -0.3115
 3143SOL     ow12569   7.530   6.188   2.929 -0.1776 -0.5887 -0.1750
 3143SOL     hw12570   7.466   6.117   2.930  0.4899 -1.2051 -0.6319
 3143SOL     hw12571   7.499   6.250   2.995  0.2663 -2.2017  1.6141
 3143SOL     vw12572   7.517   6.187   2.938 -0.0312 -0.8829  0.0010
 3144SOL     ow12573   7.174   4.980   5.143 -0.2332 -0.1848 -0.1905
 3144SOL     hw12574   7.184   5.048   5.210  1.6540  0.0531 -0.6352
 3144SOL     hw12575   7.105   4.923   5.176 -0.3359  0.7203  1.2591
 3144SOL     vw12576   7.166   4.982   5.156  0.0026 -0.0341 -0.0579
 3145SOL     ow12577   6.850   2.379   5.905 -0.0682 -0.1044 -0.2396
 3145SOL     hw12578   6.799   2.456   5.929 -0.6763 -0.3971 -0.5883
 3145SOL     hw12579   6.935   2.393   5.947 -1.2904 -0.9679  2.8007
 3145SOL     vw12580   6.855   2.391   5.913 -0.3097 -0.2570  0.1154
 3146SOL     ow12581   3.117   1.136   0.062  0.1826  0.1254  0.0244
 3146SOL     hw12582   3.106   1.042   0.051  0.2305 -0.0384  1.2868
 3146SOL     hw12583   3.105   1.172  -0.026  0.2371 -1.0590 -0.4803
 3146SOL     vw12584   3.114   1.129   0.049  0.1961 -0.0524  0.1244
 3147SOL     ow12585   4.245   5.021   4.908 -0.3658 -0.6737  0.5486
 3147SOL     hw12586   4.202   5.087   4.961 -3.3727  0.9724 -3.4542
 3147SOL     hw12587   4.303   5.070   4.850  1.5362 -2.2047  1.0421
 3147SOL     vw12588   4.247   5.036   4.907 -0.5119 -0.6588  0.0856
 3148SOL     ow12589   1.782   2.060   3.521  0.8303 -0.9301 -1.1831
 3148SOL     hw12590   1.858   2.096   3.475  1.7846 -2.6800 -1.0828
 3148SOL     hw12591   1.707   2.090   3.470  1.7532 -1.1921 -2.7829
 3148SOL     vw12592   1.782   2.069   3.508  1.0780 -1.1957 -1.3809
 3149SOL     ow12593   3.038   1.831   0.719 -0.1312  0.1504  0.0428
 3149SOL     hw12594   3.009   1.744   0.691 -2.5807  1.2264 -1.1059
 3149SOL     hw12595   2.974   1.858   0.785  0.7610  0.9672  0.6037
 3149SOL     vw12596   3.026   1.823   0.724 -0.3368  0.4001 -0.0347
 3150SOL     ow12597   5.650   7.513   5.181  0.0242 -0.5477 -0.1270
 3150SOL     hw12598   5.734   7.522   5.226 -1.1085  0.9613  1.8254
 3150SOL     hw12599   5.587   7.558   5.237 -1.9050 -0.5573 -2.1210
 3150SOL     vw12600   5.653   7.520   5.194 -0.3800 -0.3499 -0.1326
 3151SOL     ow12601   2.248   1.717   3.395  0.2432 -0.6242 -0.2764
 3151SOL     hw12602   2.243   1.650   3.327 -0.7884 -1.3432  0.4815
 3151SOL     hw12603   2.329   1.697   3.443 -0.8142 -2.3483  0.9270
 3151SOL     vw12604   2.258   1.706   3.392 -0.0323 -0.9466 -0.0176
 3152SOL     ow12605   3.109   1.675   3.510 -0.0271 -0.5982  0.1567
 3152SOL     hw12606   3.049   1.647   3.579 -1.6861 -0.8800 -1.3283
 3152SOL     hw12607   3.054   1.725   3.450  2.1661  3.1382  1.0081
 3152SOL     vw12608   3.094   1.678   3.511  0.0434 -0.1424  0.0731
 3153SOL     ow12609   0.303   7.136   2.471 -0.2282  0.5878  0.0692
 3153SOL     hw12610   0.349   7.080   2.408  0.9335  1.2192  0.3281
 3153SOL     hw12611   0.280   7.078   2.543 -0.0749  0.2043 -0.1858
 3153SOL     vw12612   0.306   7.121   2.472 -0.0547  0.6201  0.0695
 3154SOL     ow12613   6.001   1.484   3.568  0.3327 -0.0141  0.5072
 3154SOL     hw12614   6.053   1.419   3.614  0.5038 -0.1445  0.1306
 3154SOL     hw12615   6.048   1.567   3.581 -0.4552  0.2413  1.9058
 3154SOL     vw12616   6.014   1.487   3.576  0.2511  0.0023  0.6421
 3155SOL     ow12617   5.163   6.190   1.971  1.0522 -0.0374 -0.2132
 3155SOL     hw12618   5.172   6.095   1.970  2.6961  0.0845  0.3047
 3155SOL     hw12619   5.240   6.223   1.926  0.6404  1.0600 -0.1548
 3155SOL     vw12620   5.174   6.182   1.965  1.2147  0.1233 -0.1372
 3156SOL     ow12621   7.327   3.252   0.081 -0.0335  0.0339 -0.3691
 3156SOL     hw12622   7.399   3.251   0.018  0.8081 -1.0938  0.5643
 3156SOL     hw12623   7.312   3.159   0.100 -1.6290  0.2616 -0.4160
 3156SOL     vw12624   7.335   3.239   0.075 -0.1328 -0.0849 -0.2521
 3157SOL     ow12625   4.856   5.389   2.686  0.1629  0.0595  0.1705
 3157SOL     hw12626   4.871   5.419   2.596 -1.0703  3.5403  0.9852
 3157SOL     hw12627   4.928   5.428   2.736 -0.3897 -0.0032  1.0284
 3157SOL     vw12628   4.868   5.398   2.680 -0.0725  0.5105  0.3912
 3158SOL     ow12629   6.117   5.290   2.133 -0.6079  0.3606  0.3747
 3158SOL     hw12630   6.090   5.341   2.056  2.2093  1.8339  0.2294
 3158SOL     hw12631   6.107   5.351   2.206 -0.1025  0.0982  0.6640
 3158SOL     vw12632   6.112   5.305   2.132 -0.1693  0.5202  0.3937
 3159SOL     ow12633   3.755   0.066   6.570  0.4629 -0.0798  0.5266
 3159SOL     hw12634   3.685   0.114   6.525  0.4765 -0.0697  0.5165
 3159SOL     hw12635   3.826   0.130   6.578 -0.6168  0.9346  3.3335
 3159SOL     vw12636   3.755   0.081   6.565  0.3222  0.0553  0.8955
 3160SOL     ow12637   6.668   1.831   6.833 -0.2176  0.2133  0.1077
 3160SOL     hw12638   6.715   1.913   6.819  1.2912 -0.8626 -1.5508
 3160SOL     hw12639   6.734   1.763   6.825 -1.6401 -1.2591  0.1967
 3160SOL     vw12640   6.683   1.833   6.830 -0.2062 -0.1229 -0.0994
 3161SOL     ow12641   4.545   1.176   3.391 -0.3686 -0.2599 -0.0350
 3161SOL     hw12642   4.573   1.103   3.446  0.0687 -2.2007 -2.6014
 3161SOL     hw12643   4.563   1.146   3.302  3.1370  4.3211 -1.2309
 3161SOL     vw12644   4.551   1.162   3.386  0.1516  0.0885 -0.5314
 3162SOL     ow12645   2.771   3.132   7.226  0.5602 -0.2429  0.2663
 3162SOL     hw12646   2.685   3.116   7.187  0.4278  1.4288 -0.1747
 3162SOL     hw12647   2.751   3.157   7.317  0.5980 -0.0715  0.2269
 3162SOL     vw12648   2.757   3.133   7.233  0.5478  0.0004  0.2029
 3163SOL     ow12649   4.835   6.075   2.078  0.8296  0.3192  0.3402
 3163SOL     hw12650   4.882   6.103   2.156 -0.9282  0.8638  1.2439
 3163SOL     hw12651   4.774   6.008   2.110 -0.0117  0.6550 -0.5370
 3163SOL     vw12652   4.833   6.070   2.093  0.4866  0.4356  0.3437
 3164SOL     ow12653   7.200   6.921   0.385  0.4720  0.0978 -0.0256
 3164SOL     hw12654   7.262   6.848   0.381  0.9749  0.3480  2.1713
 3164SOL     hw12655   7.130   6.890   0.442  1.2498  1.6544  1.8860
 3164SOL     vw12656   7.199   6.907   0.392  0.6406  0.3364  0.5165
 3165SOL     ow12657   5.574   0.284   2.308 -0.9395 -0.4194  0.4484
 3165SOL     hw12658   5.659   0.313   2.275 -0.2509 -1.5231  1.1963
 3165SOL     hw12659   5.518   0.280   2.230  0.2069 -1.4576 -0.3495
 3165SOL     vw12660   5.578   0.287   2.294 -0.6976 -0.7020  0.4418
 3166SOL     ow12661   3.957   6.810   1.872 -0.0066 -0.4460 -0.0523
 3166SOL     hw12662   3.885   6.856   1.830 -0.8917 -0.3810  1.4825
 3166SOL     hw12663   4.026   6.876   1.881 -0.6517  0.1456  0.6311
 3166SOL     vw12664   3.957   6.825   1.868 -0.2083 -0.3595  0.2403
 3167SOL     ow12665   1.449   1.558   7.129  0.9655 -0.9168  0.9462
 3167SOL     hw12666   1.517   1.549   7.196  1.2525 -1.1836  0.6232
 3167SOL     hw12667   1.444   1.472   7.089  1.6007 -0.4702 -0.1381
 3167SOL     vw12668   1.457   1.546   7.133  1.0872 -0.8930  0.7606
 3168SOL     ow12669   3.680   2.541   0.674 -0.4178 -0.2309  0.3571
 3168SOL     hw12670   3.714   2.464   0.627  0.4471 -0.1725  0.8831
 3168SOL     hw12671   3.754   2.600   0.680 -1.0169  0.5465  0.1935
 3168SOL     vw12672   3.694   2.538   0.668 -0.3828 -0.1209  0.4049
 3169SOL     ow12673   6.604   4.835   3.513 -0.5170 -0.0960  0.2009
 3169SOL     hw12674   6.651   4.892   3.451  0.0435  0.2760  0.9477
 3169SOL     hw12675   6.651   4.752   3.508  0.3617  0.3258  1.0701
 3169SOL     vw12676   6.617   4.832   3.504 -0.3271  0.0088  0.4141
 3170SOL     ow12677   2.495   2.400   0.132 -0.1453  0.7943 -0.2179
 3170SOL     hw12678   2.435   2.471   0.108  1.1523  1.3228 -2.0854
 3170SOL     hw12679   2.581   2.431   0.103  0.4125 -1.6972 -1.4813
 3170SOL     vw12680   2.498   2.414   0.125  0.0994  0.5354 -0.6310
 3171SOL     ow12681   3.543   4.742   2.287 -0.0644  0.0099 -0.3195
 3171SOL     hw12682   3.523   4.700   2.204  3.4877 -1.2625 -0.6912
 3171SOL     hw12683   3.596   4.818   2.264  0.2424  0.1297  0.7371
 3171SOL     vw12684   3.547   4.746   2.273  0.4448 -0.1423 -0.2291
 3172SOL     ow12685   0.610   2.983   3.384  0.5687 -0.5707  0.4547
 3172SOL     hw12686   0.635   2.898   3.346 -1.1253 -0.3123 -1.3841
 3172SOL     hw12687   0.590   3.038   3.308 -0.2647  0.8590  1.6727
 3172SOL     vw12688   0.611   2.979   3.369  0.2353 -0.3480  0.3729
 3173SOL     ow12689   1.425   0.176   5.324  0.2277 -0.4710  0.4479
 3173SOL     hw12690   1.400   0.267   5.335  0.5533 -0.4502  1.0333
 3173SOL     hw12691   1.504   0.179   5.271 -0.3278 -0.4732 -0.3968
 3173SOL     vw12692   1.432   0.188   5.318  0.1973 -0.4685  0.4134
 3174SOL     ow12693   1.128   5.158   1.753 -0.0576  0.3142 -0.6959
 3174SOL     hw12694   1.139   5.230   1.815 -0.8178  0.7927 -1.0963
 3174SOL     hw12695   1.066   5.191   1.689 -2.3294 -1.5237  0.3951
 3174SOL     vw12696   1.121   5.172   1.753 -0.4576  0.1349 -0.6048
 3175SOL     ow12697   0.576   4.365   7.560  0.1267  0.2992  0.5613
 3175SOL     hw12698   0.481   4.368   7.569 -0.0081 -0.7830 -0.2521
 3175SOL     hw12699   0.606   4.325   7.642 -0.1800  0.0863  0.5741
 3175SOL     vw12700   0.567   4.360   7.572  0.0685  0.1283  0.4559
 3176SOL     ow12701   0.853   2.209   1.833  0.4666 -0.0588  0.5621
 3176SOL     hw12702   0.767   2.240   1.862  0.5807  0.7493  0.0674
 3176SOL     hw12703   0.842   2.194   1.739  0.8739  0.0606  0.4952
 3176SOL     vw12704   0.840   2.211   1.824  0.5354  0.0637  0.4880
 3177SOL     ow12705   2.477   7.247   2.070 -0.4804  0.3600 -0.2962
 3177SOL     hw12706   2.404   7.241   2.008 -0.9219  0.0298  0.2494
 3177SOL     hw12707   2.535   7.175   2.046 -1.2984 -0.5852  0.4900
 3177SOL     vw12708   2.475   7.237   2.058 -0.6465  0.1917 -0.1205
 3178SOL     ow12709   0.370   6.864   3.460 -0.0689  0.3430  0.1408
 3178SOL     hw12710   0.438   6.872   3.393 -0.1838 -1.8474 -0.3075
 3178SOL     hw12711   0.418   6.848   3.541 -0.0126  0.8165  0.2081
 3178SOL     vw12712   0.385   6.863   3.462 -0.0767  0.1163  0.0905
 3179SOL     ow12713   1.920   5.307   1.739 -0.1424 -0.1019  0.2490
 3179SOL     hw12714   1.874   5.225   1.721 -0.0355  0.2327 -1.7652
 3179SOL     hw12715   1.869   5.374   1.695  2.5811  0.1812 -2.8169
 3179SOL     vw12716   1.908   5.305   1.731  0.2311 -0.0203 -0.4212
 3180SOL     ow12717   0.558   3.061   7.194  0.1615  1.1326  0.1877
 3180SOL     hw12718   0.619   3.010   7.140 -1.7721 -0.0363 -0.9801
 3180SOL     hw12719   0.484   3.080   7.136 -2.1863 -0.4509  2.4393
 3180SOL     vw12720   0.556   3.057   7.179 -0.4034  0.7695  0.3309
 3181SOL     ow12721   5.017   3.591   4.541  0.3198  0.3815  0.0853
 3181SOL     hw12722   4.927   3.558   4.542  0.4932 -0.1272 -0.3134
 3181SOL     hw12723   5.023   3.641   4.459  0.2928  0.7300  0.2953
 3181SOL     vw12724   5.006   3.593   4.530  0.3390  0.3605  0.0603
 3182SOL     ow12725   0.521   6.326   2.153  0.3712 -0.2784  0.6634
 3182SOL     hw12726   0.533   6.402   2.210 -1.2235 -0.2828  1.0406
 3182SOL     hw12727   0.500   6.255   2.213  2.3169 -1.1694  0.3548
 3182SOL     vw12728   0.520   6.327   2.168  0.4175 -0.3965  0.6726
 3183SOL     ow12729   5.420   4.448   5.102 -0.0169  0.6766  0.1319
 3183SOL     hw12730   5.502   4.487   5.071 -0.9108  0.0728 -3.3591
 3183SOL     hw12731   5.418   4.362   5.061 -2.7152  0.9803 -0.5230
 3183SOL     vw12732   5.431   4.442   5.093 -0.4907  0.6371 -0.4151
 3184SOL     ow12733   6.422   0.534   2.753  0.1231 -0.8125  0.2724
 3184SOL     hw12734   6.425   0.506   2.661  2.7965  1.7347 -0.5648
 3184SOL     hw12735   6.500   0.495   2.792  1.2909  1.3847  0.2845
 3184SOL     vw12736   6.433   0.525   2.746  0.6301 -0.1865  0.1636
 3185SOL     ow12737   5.809   1.902   5.399  0.9731  0.9294 -0.6745
 3185SOL     hw12738   5.797   1.915   5.493 -0.2054  1.8494 -0.9208
 3185SOL     hw12739   5.809   1.807   5.387 -1.0516  0.7930  0.0361
 3185SOL     vw12740   5.807   1.891   5.410  0.5505  1.0329 -0.6135
 3186SOL     ow12741   5.285   4.886   6.553  0.2687  0.0080  0.3112
 3186SOL     hw12742   5.319   4.893   6.464  1.7163 -0.9954  0.7524
 3186SOL     hw12743   5.362   4.890   6.609 -0.2206 -2.5790  1.3438
 3186SOL     vw12744   5.299   4.887   6.549  0.3951 -0.4656  0.5057
 3187SOL     ow12745   3.314   4.835   4.371 -0.3129 -0.3079 -0.0253
 3187SOL     hw12746   3.363   4.755   4.353 -0.9867 -0.9209  0.7858
 3187SOL     hw12747   3.224   4.815   4.346 -0.9400 -0.6147  2.2273
 3187SOL     vw12748   3.309   4.822   4.366 -0.4846 -0.4292  0.3786
 3188SOL     ow12749   6.369   7.513   0.448 -0.0851  0.0992  0.1936
 3188SOL     hw12750   6.413   7.433   0.478 -3.3787 -1.1871  2.1101
 3188SOL     hw12751   6.427   7.584   0.475  1.3955 -1.4938  1.4292
 3188SOL     vw12752   6.383   7.512   0.455 -0.3242 -0.2806  0.6095
 3189SOL     ow12753   4.065   2.727   4.347  0.2973  0.2686  0.3170
 3189SOL     hw12754   4.032   2.693   4.431 -1.3394  1.2889  0.1330
 3189SOL     hw12755   3.987   2.761   4.303  1.3884  1.3234 -0.8742
 3189SOL     vw12756   4.051   2.727   4.353  0.2251  0.5423  0.1357
 3190SOL     ow12757   0.546   2.732   3.901  0.4283 -0.1240 -0.0845
 3190SOL     hw12758   0.555   2.666   3.833  1.1736  0.8478 -0.9528
 3190SOL     hw12759   0.453   2.732   3.923  0.5392 -2.0056  0.5115
 3190SOL     vw12760   0.535   2.723   3.895  0.5412 -0.2441 -0.1204
 3191SOL     ow12761   3.207   6.245   0.719 -0.0784 -0.4575  0.7484
 3191SOL     hw12762   3.229   6.152   0.722  1.8622 -0.0913 -0.6187
 3191SOL     hw12763   3.288   6.289   0.693 -1.5452  1.3745 -1.1001
 3191SOL     vw12764   3.221   6.239   0.716 -0.0159 -0.1676  0.3241
 3192SOL     ow12765   4.507   3.575   3.393  0.0708  0.5228  0.3119
 3192SOL     hw12766   4.580   3.619   3.350  1.9411  0.5529  3.3101
 3192SOL     hw12767   4.439   3.643   3.399  2.1680  2.5656  3.0598
 3192SOL     vw12768   4.507   3.590   3.388  0.5946  0.7962  1.0700
 3193SOL     ow12769   2.296   0.596   4.797  0.0367 -0.2790 -0.0160
 3193SOL     hw12770   2.337   0.548   4.726  0.1948  0.8448 -0.7168
 3193SOL     hw12771   2.367   0.647   4.836 -0.7685  2.5688 -1.9732
 3193SOL     vw12772   2.311   0.597   4.793 -0.0485  0.2450 -0.3667
 3194SOL     ow12773   5.910   1.156   6.298  0.0151  0.1796 -0.0258
 3194SOL     hw12774   5.855   1.227   6.331  1.2834  1.5326 -0.7477
 3194SOL     hw12775   5.897   1.157   6.203  2.5286  1.6736 -0.4272
 3194SOL     vw12776   5.901   1.165   6.290  0.5140  0.5552 -0.1743
 3195SOL     ow12777   3.120   2.474   5.327  0.1304 -0.5242  0.4236
 3195SOL     hw12778   3.119   2.439   5.238 -0.1866 -1.0788  0.6365
 3195SOL     hw12779   3.200   2.526   5.332 -1.1334  1.6916 -1.0042
 3195SOL     vw12780   3.130   2.476   5.316 -0.0782 -0.3049  0.2635
 3196SOL     ow12781   2.798   4.046   2.755  0.0029 -0.6292 -0.1156
 3196SOL     hw12782   2.854   3.997   2.695 -1.1325 -1.7154 -0.3551
 3196SOL     hw12783   2.858   4.095   2.810  1.1220 -0.6941 -1.2268
 3196SOL     vw12784   2.813   4.046   2.754  0.0006 -0.7813 -0.2937
 3197SOL     ow12785   4.737   7.317   3.762  0.3347 -0.2300 -0.2528
 3197SOL     hw12786   4.823   7.323   3.802  0.3103  1.5933 -0.4046
 3197SOL     hw12787   4.754   7.293   3.671  0.8302  1.6163 -0.6842
 3197SOL     vw12788   4.750   7.314   3.755  0.3970  0.2544 -0.3299
 3198SOL     ow12789   4.134   6.525   2.104 -0.3057 -0.3945 -0.2702
 3198SOL     hw12790   4.210   6.476   2.136 -0.7133 -1.9813 -1.6124
 3198SOL     hw12791   4.141   6.521   2.008 -0.8605  1.4264 -0.4242
 3198SOL     vw12792   4.145   6.518   2.095 -0.4323 -0.3633 -0.4675
 3199SOL     ow12793   4.779   6.222   6.529 -0.0589 -0.0817  0.8163
 3199SOL     hw12794   4.803   6.156   6.464  0.4962  1.1847 -0.3170
 3199SOL     hw12795   4.861   6.268   6.547 -0.7233  1.2957  0.4035
 3199SOL     vw12796   4.793   6.219   6.522 -0.0737  0.2673  0.6123
 3200SOL     ow12797   0.452   4.587   4.739 -0.3261  0.6322 -0.3042
 3200SOL     hw12798   0.530   4.558   4.693 -2.1279 -1.7178 -2.1656
 3200SOL     hw12799   0.380   4.566   4.679 -2.3465  3.9414  0.6862
 3200SOL     vw12800   0.453   4.580   4.725 -0.8304  0.7589 -0.4189
 3201SOL     ow12801   0.680   3.805   7.556  0.2315  0.4841  0.2568
 3201SOL     hw12802   0.616   3.783   7.488  1.8124 -0.5712 -0.9586
 3201SOL     hw12803   0.757   3.752   7.535  1.9039  2.4593  1.0494
 3201SOL     vw12804   0.682   3.795   7.544  0.6607  0.6055  0.2007
 3202SOL     ow12805   2.753   3.519   2.785  0.5486  0.1386  0.1268
 3202SOL     hw12806   2.785   3.535   2.874  0.1436 -2.0292  0.7401
 3202SOL     hw12807   2.827   3.480   2.739  0.1114 -0.8997  0.2565
 3202SOL     vw12808   2.767   3.516   2.791  0.4374 -0.2843  0.2248
 3203SOL     ow12809   3.989   4.199   0.149  0.8327 -0.1281  0.1628
 3203SOL     hw12810   3.962   4.123   0.200  1.0178  0.1215  0.6407
 3203SOL     hw12811   3.975   4.173   0.058 -0.7302 -0.1265  0.3741
 3203SOL     vw12812   3.983   4.186   0.144  0.6511 -0.0949  0.2537
 3204SOL     ow12813   1.175   2.449   1.803  0.4337  0.1191 -0.3592
 3204SOL     hw12814   1.106   2.405   1.852  0.2992  0.5815 -0.1298
 3204SOL     hw12815   1.148   2.444   1.712  0.6229 -0.6359 -0.3833
 3204SOL     vw12816   1.163   2.442   1.798  0.4409  0.0805 -0.3321
 3205SOL     ow12817   5.813   2.220   6.915  0.1670  0.4573 -0.2908
 3205SOL     hw12818   5.740   2.258   6.865 -0.5910  0.0862  0.5005
 3205SOL     hw12819   5.881   2.287   6.912 -1.4408  2.3347  1.7838
 3205SOL     vw12820   5.812   2.234   6.908 -0.1450  0.6561  0.0875
 3206SOL     ow12821   6.567   2.800   0.792  0.2073 -0.4036 -0.3537
 3206SOL     hw12822   6.611   2.880   0.766 -0.0251  0.1005  0.7376
 3206SOL     hw12823   6.638   2.738   0.811  0.5819  0.6785  2.2698
 3206SOL     vw12824   6.582   2.802   0.791  0.2258 -0.1943  0.1365
 3207SOL     ow12825   2.601   2.107   1.717  0.0846 -0.3267  0.2998
 3207SOL     hw12826   2.656   2.174   1.675 -0.7950  0.8414  0.9572
 3207SOL     hw12827   2.659   2.032   1.727  1.3421  0.5950  0.2540
 3207SOL     vw12828   2.616   2.106   1.712  0.1343 -0.0510  0.3805
 3208SOL     ow12829   4.728   7.533   2.271  0.6270 -0.1481 -0.7425
 3208SOL     hw12830   4.818   7.507   2.289  0.3382  0.3475  1.8311
 3208SOL     hw12831   4.735   7.607   2.211  2.0224  0.5439  0.2194
 3208SOL     vw12832   4.741   7.539   2.265  0.7730  0.0086 -0.2760
 3209SOL     ow12833   3.938   2.095   1.252 -0.6615  0.4921 -0.4900
 3209SOL     hw12834   3.881   2.062   1.321 -1.2772  2.0375 -0.2146
 3209SOL     hw12835   4.018   2.120   1.297  0.1807 -1.3994 -0.8342
 3209SOL     vw12836   3.941   2.094   1.267 -0.6316  0.4464 -0.4991
 3210SOL     ow12837   2.482   0.054   6.252 -0.3037  0.2021  0.3386
 3210SOL     hw12838   2.552   0.083   6.193 -1.3966  5.3629  1.0278
 3210SOL     hw12839   2.414   0.022   6.193  1.2994 -1.7627 -0.5545
 3210SOL     vw12840   2.482   0.054   6.236 -0.2363  0.6237  0.3119
 3211SOL     ow12841   2.392   0.955   6.298 -0.0534 -0.0372 -0.1834
 3211SOL     hw12842   2.310   0.931   6.341  0.6587 -0.1305  1.1805
 3211SOL     hw12843   2.367   0.978   6.208 -1.7662  1.3294  0.5920
 3211SOL     vw12844   2.378   0.955   6.292 -0.1855  0.1308  0.0989
 3212SOL     ow12845   0.268   1.700   3.795  0.2174  0.4426 -0.0779
 3212SOL     hw12846   0.236   1.781   3.755  0.8321  0.2544 -0.9997
 3212SOL     hw12847   0.251   1.710   3.888 -3.3946 -0.0620 -0.5707
 3212SOL     vw12848   0.262   1.712   3.802 -0.1781  0.3512 -0.2644
 3213SOL     ow12849   6.994   0.257   1.712 -0.4325 -0.1340  0.3438
 3213SOL     hw12850   7.049   0.294   1.643  1.4411 -0.7728  1.4315
 3213SOL     hw12851   7.039   0.177   1.738 -1.1589  0.0363  2.2313
 3213SOL     vw12852   7.007   0.251   1.706 -0.2813 -0.1958  0.7363
 3214SOL     ow12853   2.507   4.571   5.608  0.1850  0.8161  0.3585
 3214SOL     hw12854   2.454   4.551   5.531 -1.5645  1.3248  1.3794
 3214SOL     hw12855   2.522   4.665   5.603  0.3352  0.7975  0.4775
 3214SOL     vw12856   2.502   4.581   5.597 -0.0261  0.8807  0.5088
 3215SOL     ow12857   4.015   6.629   7.469  0.2879  0.2418 -0.6676
 3215SOL     hw12858   4.007   6.715   7.428  3.1912 -0.3101 -2.6572
 3215SOL     hw12859   3.999   6.566   7.399  1.8902 -0.7875 -0.1691
 3215SOL     vw12860   4.012   6.632   7.455  0.8821  0.0336 -0.8643
 3216SOL     ow12861   3.243   6.822   0.191  0.3103 -0.5946  0.3046
 3216SOL     hw12862   3.189   6.762   0.242  1.4136 -1.0153  1.0260
 3216SOL     hw12863   3.188   6.849   0.117 -1.3670  0.1104  1.7585
 3216SOL     vw12864   3.229   6.818   0.188  0.2344 -0.5572  0.5916
 3217SOL     ow12865   0.147   5.092   4.250  0.1862  0.0397  0.3538
 3217SOL     hw12866   0.185   5.137   4.326 -0.6350  3.0089 -0.8421
 3217SOL     hw12867   0.053   5.103   4.261  0.0638  0.6675 -1.1500
 3217SOL     vw12868   0.140   5.100   4.261  0.0617  0.5145 -0.0026
 3218SOL     ow12869   4.475   3.061   0.668 -0.5871 -1.3539 -0.1047
 3218SOL     hw12870   4.515   3.057   0.755  2.5918  2.3663 -1.1358
 3218SOL     hw12871   4.396   3.114   0.681  1.4305  1.8580  0.2948
 3218SOL     vw12872   4.469   3.068   0.681  0.0985 -0.4394 -0.1880
 3219SOL     ow12873   6.256   6.862   5.847 -0.8104 -0.3350  0.4160
 3219SOL     hw12874   6.248   6.939   5.903  1.2140  0.5373 -0.3898
 3219SOL     hw12875   6.169   6.850   5.810 -1.5718  0.5320  1.8342
 3219SOL     vw12876   6.244   6.870   5.849 -0.6440 -0.1056  0.4969
 3220SOL     ow12877   6.839   3.743   1.101  0.2287  0.2609 -0.8671
 3220SOL     hw12878   6.927   3.728   1.137 -1.0458 -1.4243  1.9506
 3220SOL     hw12879   6.832   3.838   1.095  1.9437  0.4634 -0.3262
 3220SOL     vw12880   6.850   3.753   1.105  0.2868  0.0652 -0.4240
 3221SOL     ow12881   2.812   5.916   6.459 -0.0374  0.5371 -0.2938
 3221SOL     hw12882   2.865   5.870   6.524  0.2706  2.0390  0.5693
 3221SOL     hw12883   2.772   5.846   6.406  3.1527 -0.6759 -1.3193
 3221SOL     vw12884   2.814   5.901   6.460  0.4241  0.5751 -0.3152
 3222SOL     ow12885   4.102   2.123   5.437  0.5360  0.0908 -0.6816
 3222SOL     hw12886   4.053   2.120   5.520  0.3715 -2.6325 -0.8001
 3222SOL     hw12887   4.193   2.131   5.464  0.2996  2.5074 -0.3876
 3222SOL     vw12888   4.107   2.124   5.452  0.4830  0.0503 -0.6585
 3223SOL     ow12889   7.548   6.233   5.158 -0.0064  0.0547  0.0100
 3223SOL     hw12890   7.617   6.278   5.206  0.0627  0.4051 -0.4106
 3223SOL     hw12891   7.470   6.286   5.172  0.0267  0.1922 -0.3085
 3223SOL     vw12892   7.547   6.246   5.166  0.0071  0.1192 -0.0875
 3224SOL     ow12893   6.396   6.616   3.423  0.0284 -0.1150 -0.5611
 3224SOL     hw12894   6.437   6.701   3.403 -1.0683  0.7354  0.6148
 3224SOL     hw12895   6.371   6.581   3.338  0.2870  0.8722 -1.0643
 3224SOL     vw12896   6.398   6.623   3.409 -0.0820  0.1273 -0.4724
 3225SOL     ow12897   6.466   3.958   2.676  0.6463  0.6027 -0.1515
 3225SOL     hw12898   6.462   4.025   2.744  0.6584 -0.5686  1.0468
 3225SOL     hw12899   6.538   3.901   2.702 -0.5610 -0.9732 -0.0597
 3225SOL     vw12900   6.475   3.959   2.688  0.4885  0.2401  0.0188
 3226SOL     ow12901   4.781   5.574   4.795 -0.4277 -0.1670 -0.1378
 3226SOL     hw12902   4.835   5.525   4.733 -0.5739  0.7200 -0.9830
 3226SOL     hw12903   4.811   5.544   4.881  1.9096  0.7776 -0.5438
 3226SOL     vw12904   4.792   5.564   4.798 -0.1390  0.0749 -0.3028
 3227SOL     ow12905   0.306   5.573   2.918 -0.0148  1.0281 -0.4507
 3227SOL     hw12906   0.351   5.657   2.924  0.9320  0.5371 -0.4511
 3227SOL     hw12907   0.355   5.525   2.851  2.7279 -1.4287  2.9604
 3227SOL     vw12908   0.318   5.578   2.910  0.4720  0.6392 -0.0007
 3228SOL     ow12909   6.066   2.896   1.686 -0.0294  0.3260 -0.1192
 3228SOL     hw12910   6.105   2.822   1.639 -0.4813  1.4259 -2.3418
 3228SOL     hw12911   5.979   2.906   1.648 -0.2520  1.5688  0.6524
 3228SOL     vw12912   6.059   2.887   1.675 -0.1183  0.6350 -0.3107
 3229SOL     ow12913   4.100   3.375   2.739  0.3355 -0.2040  0.3357
 3229SOL     hw12914   4.158   3.299   2.734 -0.8717 -1.0857 -2.2584
 3229SOL     hw12915   4.142   3.441   2.685  0.6967  0.5077  1.4632
 3229SOL     vw12916   4.113   3.374   2.732  0.2241 -0.2264  0.1421
 3230SOL     ow12917   0.870   1.611   7.399  0.2461  0.0810 -0.2813
 3230SOL     hw12918   0.825   1.566   7.471  2.2827 -0.7080  0.5656
 3230SOL     hw12919   0.838   1.701   7.404 -2.1318 -0.6911 -0.5270
 3230SOL     vw12920   0.860   1.617   7.409  0.2011 -0.1251 -0.2024
 3231SOL     ow12921   6.289   4.145   6.530 -0.4325  0.1445  0.8846
 3231SOL     hw12922   6.214   4.087   6.540 -0.3688 -0.2955 -0.8751
 3231SOL     hw12923   6.263   4.206   6.461 -0.1159  1.6368  2.0139
 3231SOL     vw12924   6.276   4.145   6.523 -0.3824  0.2835  0.8013
 3232SOL     ow12925   4.373   6.873   6.997  0.2738  0.2346 -0.0502
 3232SOL     hw12926   4.400   6.825   7.076 -1.6366 -2.0920 -0.6934
 3232SOL     hw12927   4.293   6.919   7.023 -1.5999 -2.2513 -1.0543
 3232SOL     vw12928   4.366   6.873   7.011 -0.2255 -0.4005 -0.2675
 3233SOL     ow12929   5.487   0.104   1.073  0.3692  0.8967  0.0343
 3233SOL     hw12930   5.556   0.110   1.007  1.5936 -0.1958  1.1544
 3233SOL     hw12931   5.484   0.191   1.113  1.7058  0.7529  0.5153
 3233SOL     vw12932   5.496   0.117   1.070  0.7071  0.7336  0.2456
 3234SOL     ow12933   1.367   2.866   3.253  0.4721 -0.3623  0.1478
 3234SOL     hw12934   1.328   2.918   3.183  0.3944 -0.8482 -0.1693
 3234SOL     hw12935   1.314   2.787   3.257  0.4112 -0.2969  0.8266
 3234SOL     vw12936   1.355   2.863   3.244  0.4538 -0.4178  0.1955
 3235SOL     ow12937   5.403   2.225   2.649 -0.1826  0.6484  0.2502
 3235SOL     hw12938   5.419   2.150   2.591  1.4839 -1.2215  2.9238
 3235SOL     hw12939   5.369   2.293   2.591 -1.1898 -1.9395 -2.4246
 3235SOL     vw12940   5.401   2.224   2.633 -0.0954  0.0602  0.2499
 3236SOL     ow12941   4.338   4.801   4.730  0.4413 -0.8245 -0.0079
 3236SOL     hw12942   4.423   4.765   4.756  0.3745 -0.0612  1.3878
 3236SOL     hw12943   4.318   4.865   4.798  0.5242  1.8332 -2.2886
 3236SOL     vw12944   4.347   4.804   4.743  0.4437 -0.3729 -0.1247
 3237SOL     ow12945   2.798   1.286   1.601 -0.5094 -0.0502  0.4508
 3237SOL     hw12946   2.840   1.244   1.676 -0.5299 -0.7490  0.0804
 3237SOL     hw12947   2.792   1.217   1.535 -0.5897  0.5270 -0.1580
 3237SOL     vw12948   2.803   1.272   1.602 -0.5227 -0.0663  0.3216
 3238SOL     ow12949   2.322   3.596   0.051  0.2505 -0.0927 -0.0316
 3238SOL     hw12950   2.333   3.586   0.146  0.1334  0.6135  0.0665
 3238SOL     hw12951   2.228   3.610   0.039  0.1361 -1.0965 -0.3496
 3238SOL     vw12952   2.311   3.597   0.062  0.2201 -0.1320 -0.0606
 3239SOL     ow12953   1.132   6.170   6.866 -0.0331 -0.0619  0.1442
 3239SOL     hw12954   1.120   6.261   6.894 -1.1358 -0.0445 -0.3175
 3239SOL     hw12955   1.163   6.177   6.776 -1.8769 -0.1054 -0.5518
 3239SOL     vw12956   1.134   6.183   6.858 -0.4218 -0.0653 -0.0088
 3240SOL     ow12957   0.002   1.173   4.375 -0.1660 -0.0704  0.8418
 3240SOL     hw12958  -0.014   1.163   4.281 -2.4002 -1.5057  1.3080
 3240SOL     hw12959   0.014   1.083   4.407 -0.2258  0.3313  2.0490
 3240SOL     vw12960   0.002   1.160   4.367 -0.4687 -0.2068  1.0626
 3241SOL     ow12961   1.096   0.148   5.744 -1.0497  1.3598 -0.4550
 3241SOL     hw12962   1.179   0.153   5.697 -1.7237  1.7677 -1.6294
 3241SOL     hw12963   1.030   0.141   5.676 -1.8738 -1.1055  0.4879
 3241SOL     vw12964   1.098   0.148   5.729 -1.2474  1.0884 -0.4854
 3242SOL     ow12965   6.555   1.850   1.361  0.0727 -0.5988 -0.3772
 3242SOL     hw12966   6.511   1.794   1.426 -1.4687  0.6788 -0.2432
 3242SOL     hw12967   6.568   1.793   1.285 -2.0568 -1.0150 -0.4954
 3242SOL     vw12968   6.551   1.835   1.360 -0.4117 -0.4851 -0.3752
 3243SOL     ow12969   6.858   1.963   2.003  0.2879  0.3564 -0.1435
 3243SOL     hw12970   6.871   2.009   1.920  0.5597  0.4826 -0.0343
 3243SOL     hw12971   6.925   1.895   2.004  2.3890  2.2994  1.3329
 3243SOL     vw12972   6.868   1.960   1.992  0.6011  0.6295  0.0657
 3244SOL     ow12973   3.426   3.774   3.937 -0.1459 -0.1580  0.2476
 3244SOL     hw12974   3.462   3.708   3.996 -2.6158 -3.2400 -1.3525
 3244SOL     hw12975   3.336   3.787   3.968 -0.9744 -0.6407 -1.8094
 3244SOL     vw12976   3.419   3.767   3.949 -0.5811 -0.6282 -0.2350
 3245SOL     ow12977   4.209   6.612   1.819  0.6790 -0.2119 -0.0613
 3245SOL     hw12978   4.184   6.538   1.764  0.1264 -1.2598  1.5146
 3245SOL     hw12979   4.128   6.663   1.828  0.4085 -0.7651  0.8079
 3245SOL     vw12980   4.195   6.609   1.813  0.5703 -0.4234  0.2612
 3246SOL     ow12981   3.833   2.955   6.669  0.8230 -0.1466  0.1151
 3246SOL     hw12982   3.748   2.999   6.668 -0.2768 -2.0965 -1.9714
 3246SOL     hw12983   3.884   3.000   6.602  1.3304  0.7009  1.0285
 3246SOL     vw12984   3.828   2.967   6.660  0.7448 -0.2921 -0.0396
 3247SOL     ow12985   6.401   1.393   6.781 -0.0481  0.1409  0.2207
 3247SOL     hw12986   6.441   1.334   6.844 -1.6358  1.2194  2.3464
 3247SOL     hw12987   6.350   1.336   6.723 -1.7091 -0.6676  2.3442
 3247SOL     vw12988   6.399   1.378   6.782 -0.4768  0.1765  0.7813
 3248SOL     ow12989   5.908   1.479   4.527 -0.2552  0.0886  0.0034
 3248SOL     hw12990   5.859   1.454   4.605 -0.1220 -1.1796 -0.2869
 3248SOL     hw12991   5.873   1.423   4.458 -0.1273  0.9413 -0.7779
 3248SOL     vw12992   5.897   1.468   4.528 -0.2203  0.0338 -0.1380
 3249SOL     ow12993   6.028   0.685   6.143 -0.2297  0.7718 -0.5668
 3249SOL     hw12994   6.007   0.592   6.130 -2.3559  1.2657 -0.9845
 3249SOL     hw12995   5.994   0.729   6.065  2.9308  1.6954 -1.5848
 3249SOL     vw12996   6.021   0.678   6.131 -0.0930  0.9588 -0.7560
 3250SOL     ow12997   7.140   2.719   5.745 -0.5179  0.3167 -0.2004
 3250SOL     hw12998   7.156   2.648   5.806 -2.8210 -0.0702  0.0437
 3250SOL     hw12999   7.223   2.731   5.699  1.6263  1.2084  3.4954
 3250SOL     vw13000   7.153   2.711   5.747 -0.5386  0.3831  0.3197
 3251SOL     ow13001   3.175   5.549   3.995 -0.8192  0.3752  0.1569
 3251SOL     hw13002   3.159   5.643   3.997 -0.7850  0.3708  1.1574
 3251SOL     hw13003   3.170   5.525   3.902 -2.2676  1.1056  0.0214
 3251SOL     vw13004   3.172   5.558   3.983 -1.0059  0.4706  0.2708
 3252SOL     ow13005   5.241   5.854   5.549 -0.7494 -0.1489 -0.5029
 3252SOL     hw13006   5.152   5.847   5.515 -0.3568  1.7624 -2.1031
 3252SOL     hw13007   5.230   5.888   5.638 -1.6116  0.3684 -0.7980
 3252SOL     vw13008   5.228   5.857   5.556 -0.8116  0.1712 -0.7529
 3253SOL     ow13009   2.630   3.177   7.537 -0.4287  0.4323 -0.4605
 3253SOL     hw13010   2.572   3.100   7.540  0.3288 -0.2823 -2.5086
 3253SOL     hw13011   2.571   3.250   7.520 -1.0045  0.1036  0.0516
 3253SOL     vw13012   2.615   3.176   7.535 -0.4047  0.2946 -0.6633
 3254SOL     ow13013   2.216   3.276   5.053 -0.2777 -0.2643  0.3219
 3254SOL     hw13014   2.288   3.279   5.115 -0.3112 -1.3964  0.4318
 3254SOL     hw13015   2.139   3.302   5.105 -0.1223 -0.0817  0.4624
 3254SOL     vw13016   2.215   3.280   5.068 -0.2617 -0.3897  0.3550
 3255SOL     ow13017   5.000   6.284   4.766 -0.2147 -0.1171 -0.2174
 3255SOL     hw13018   5.065   6.318   4.704  0.3337 -1.3542 -0.3592
 3255SOL     hw13019   5.047   6.279   4.849 -0.5919  0.4103  0.0313
 3255SOL     vw13020   5.015   6.288   4.769 -0.1919 -0.2108 -0.2031
 3256SOL     ow13021   1.097   3.226   1.944 -0.2864 -0.1162 -0.1458
 3256SOL     hw13022   1.144   3.306   1.920  0.0552 -0.0763  0.6055
 3256SOL     hw13023   1.006   3.244   1.923 -0.1310  0.2482 -0.5265
 3256SOL     vw13024   1.092   3.239   1.938 -0.2209 -0.0629 -0.0969
 3257SOL     ow13025   6.745   4.499   2.034  0.5898 -0.3011 -0.0738
 3257SOL     hw13026   6.772   4.408   2.044 -0.9705 -0.7877 -0.0065
 3257SOL     hw13027   6.802   4.534   1.965  0.7691 -1.5265 -0.5695
 3257SOL     vw13028   6.756   4.492   2.026  0.4077 -0.5267 -0.1304
 3258SOL     ow13029   4.732   0.726   7.088 -0.6657 -0.0908 -0.0277
 3258SOL     hw13030   4.648   0.757   7.121 -0.6442  0.9401 -0.8590
 3258SOL     hw13031   4.720   0.633   7.072 -0.9739 -0.3991  1.8801
 3258SOL     vw13032   4.719   0.718   7.090 -0.7033  0.0046  0.1144
 3259SOL     ow13033   1.105   3.982   5.755  0.3190 -0.2889 -0.0420
 3259SOL     hw13034   1.134   3.979   5.846 -1.0718  0.9277  0.4772
 3259SOL     hw13035   1.068   4.070   5.744 -3.0914 -1.6128 -0.6081
 3259SOL     vw13036   1.104   3.993   5.765 -0.3144 -0.3030 -0.0484
 3260SOL     ow13037   5.629   6.244   2.543  0.0721 -0.1715  0.7240
 3260SOL     hw13038   5.628   6.334   2.577 -0.2437 -0.3793  1.2849
 3260SOL     hw13039   5.722   6.222   2.539  0.1225 -0.5344  2.5909
 3260SOL     vw13040   5.642   6.253   2.547  0.0372 -0.2468  1.0443
 3261SOL     ow13041   6.961   6.748   3.994 -0.2014 -0.3351 -0.5858
 3261SOL     hw13042   7.010   6.676   3.956 -1.2276 -0.8481 -0.9876
 3261SOL     hw13043   6.912   6.709   4.066 -1.3892 -0.2388 -1.3099
 3261SOL     vw13044   6.961   6.733   3.999 -0.4933 -0.3901 -0.7343
 3262SOL     ow13045   4.854   7.104   3.082  0.4073  0.0584 -0.1541
 3262SOL     hw13046   4.836   7.089   2.989  1.9737 -0.9300 -0.3357
 3262SOL     hw13047   4.901   7.188   3.083  0.2897  0.1266 -0.2319
 3262SOL     vw13048   4.858   7.113   3.070  0.5984 -0.0629 -0.1882
 3263SOL     ow13049   5.889   0.280   4.590  0.0601  0.4434 -0.3052
 3263SOL     hw13050   5.931   0.195   4.578 -0.7728 -0.1520  0.8836
 3263SOL     hw13051   5.819   0.264   4.653 -0.0337  2.0403  0.0316
 3263SOL     vw13052   5.885   0.267   4.596 -0.0622  0.5756 -0.1037
 3264SOL     ow13053   4.392   1.835   6.840 -0.3842 -0.2624 -0.1772
 3264SOL     hw13054   4.364   1.832   6.932 -0.9433 -3.5914 -0.3198
 3264SOL     hw13055   4.480   1.797   6.841  1.4609  3.5724 -0.6260
 3264SOL     vw13056   4.400   1.830   6.853 -0.2146 -0.1957 -0.2551
 3265SOL     ow13057   3.048   3.711   1.244 -0.3781 -0.4005 -0.0647
 3265SOL     hw13058   3.074   3.724   1.335 -0.2571  0.4701 -0.2210
 3265SOL     hw13059   3.099   3.635   1.215  1.8627  1.0999 -0.2954
 3265SOL     vw13060   3.058   3.702   1.252 -0.0664 -0.0877 -0.1156
 3266SOL     ow13061   0.902   3.538   5.706  0.4918  0.1803 -0.1553
 3266SOL     hw13062   0.950   3.544   5.788 -1.1630  0.3039  0.8589
 3266SOL     hw13063   0.963   3.495   5.645  1.5198 -0.5408  1.3239
 3266SOL     vw13064   0.916   3.533   5.709  0.4091  0.1016  0.1736
 3267SOL     ow13065   5.568   2.989   1.259  0.7308 -0.4122  0.1540
 3267SOL     hw13066   5.641   3.043   1.227 -1.3592  1.2879 -2.1433
 3267SOL     hw13067   5.547   2.932   1.185 -0.7142 -0.3512  0.5003
 3267SOL     vw13068   5.575   2.989   1.245  0.2642 -0.1798 -0.1035
 3268SOL     ow13069   4.104   0.341   0.010 -0.3912  0.3207 -0.5135
 3268SOL     hw13070   4.035   0.276  -0.007 -0.9854  0.5055  1.0536
 3268SOL     hw13071   4.122   0.333   0.104  4.1148 -2.0881 -1.3014
 3268SOL     vw13072   4.098   0.331   0.020  0.1247  0.0273 -0.4107
 3269SOL     ow13073   1.310   2.725   2.809  0.7758 -0.4132 -0.3484
 3269SOL     hw13074   1.216   2.731   2.828  0.1196 -2.5509 -2.3595
 3269SOL     hw13075   1.331   2.806   2.764  0.2634  0.6890  1.3210
 3269SOL     vw13076   1.300   2.736   2.806  0.6217 -0.5499 -0.3935
 3270SOL     ow13077   0.872   0.228   6.295 -0.0914  0.3166 -0.0555
 3270SOL     hw13078   0.924   0.148   6.303 -0.4371  0.1446  0.5018
 3270SOL     hw13079   0.816   0.212   6.219  0.1799  0.2286 -0.2400
 3270SOL     vw13080   0.872   0.215   6.286 -0.1012  0.2823 -0.0062
 3271SOL     ow13081   2.545   7.097   3.884 -0.0236  0.2402  0.7024
 3271SOL     hw13082   2.469   7.137   3.926 -0.3739  0.4750 -0.1315
 3271SOL     hw13083   2.592   7.170   3.845  1.4991  0.2916  2.5100
 3271SOL     vw13084   2.541   7.112   3.884  0.1311  0.2780  0.8309
 3272SOL     ow13085   7.261   4.174   1.931 -0.8472  0.2155 -0.3613
 3272SOL     hw13086   7.218   4.118   1.995  1.6360  1.6198  2.8037
 3272SOL     hw13087   7.349   4.137   1.922 -1.1390 -0.0012 -3.1777
 3272SOL     vw13088   7.267   4.162   1.938 -0.5581  0.3722 -0.3153
 3273SOL     ow13089   3.473   1.209   6.708 -0.0721 -0.6120 -0.4182
 3273SOL     hw13090   3.385   1.171   6.714 -0.6776  0.7994  0.0983
 3273SOL     hw13091   3.491   1.242   6.796  0.3148  0.4905 -0.8889
 3273SOL     vw13092   3.464   1.208   6.720 -0.1009 -0.2803 -0.4122
 3274SOL     ow13093   3.655   3.285   6.181  0.2865  0.2921 -0.1817
 3274SOL     hw13094   3.656   3.375   6.148  0.2152  1.1389  1.9984
 3274SOL     hw13095   3.579   3.245   6.139  0.6495  1.0482 -1.6286
 3274SOL     vw13096   3.645   3.292   6.171  0.3250  0.5037 -0.0851
 3275SOL     ow13097   5.520   0.633   0.301 -0.4955  0.1727 -1.0262
 3275SOL     hw13098   5.448   0.661   0.244 -0.3983  0.2385 -1.1171
 3275SOL     hw13099   5.486   0.555   0.346 -1.2474  1.1946  0.2369
 3275SOL     vw13100   5.506   0.626   0.299 -0.5817  0.3162 -0.8715
 3276SOL     ow13101   6.276   6.815   5.193 -0.0639 -0.1449  0.1364
 3276SOL     hw13102   6.236   6.902   5.196 -0.4829 -0.3024 -0.6695
 3276SOL     hw13103   6.357   6.827   5.145 -0.6128 -0.3784 -0.8657
 3276SOL     vw13104   6.281   6.828   5.187 -0.1917 -0.1962 -0.1020
 3277SOL     ow13105   6.331   1.255   3.350 -0.5663  0.0897 -0.8152
 3277SOL     hw13106   6.383   1.309   3.410 -0.6870 -1.2629  0.5589
 3277SOL     hw13107   6.253   1.307   3.333  0.1506  1.1356 -1.0238
 3277SOL     vw13108   6.328   1.269   3.355 -0.4876  0.0492 -0.6614
 3278SOL     ow13109   7.026   5.704   4.897  0.0595 -0.0090 -0.4829
 3278SOL     hw13110   7.023   5.799   4.886  1.2151  0.2702  1.2445
 3278SOL     hw13111   6.944   5.683   4.941  0.9652  0.6349  1.6648
 3278SOL     vw13112   7.015   5.714   4.901  0.3314  0.1128  0.0286
 3279SOL     ow13113   4.992   6.394   2.016  0.3374  0.5255  0.2413
 3279SOL     hw13114   5.068   6.345   1.985 -0.3507 -1.1225  1.0394
 3279SOL     hw13115   4.975   6.359   2.103 -0.7300  1.5803  0.4754
 3279SOL     vw13116   5.000   6.383   2.023  0.1059  0.4470  0.3774
 3280SOL     ow13117   2.505   7.326   2.831 -0.4323  0.0815  0.0550
 3280SOL     hw13118   2.529   7.242   2.870  1.0797  0.4264 -0.0366
 3280SOL     hw13119   2.539   7.321   2.742 -2.3864 -0.0705 -0.7060
 3280SOL     vw13120   2.513   7.314   2.825 -0.4904  0.1070 -0.0576
 3281SOL     ow13121   2.724   5.203   3.705 -0.6130 -0.1896  0.9154
 3281SOL     hw13122   2.776   5.282   3.689 -0.8233  0.2052  2.0560
 3281SOL     hw13123   2.788   5.132   3.711 -0.3112  0.0893  1.0390
 3281SOL     vw13124   2.739   5.204   3.704 -0.6011 -0.1006  1.0823
 3282SOL     ow13125   6.119   2.053   6.808 -0.0491 -0.8223 -0.2157
 3282SOL     hw13126   6.049   2.096   6.759  1.2517  0.7632 -0.8070
 3282SOL     hw13127   6.081   2.033   6.893 -0.7938  1.4949  0.0702
 3282SOL     vw13128   6.105   2.056   6.812  0.0243 -0.3073 -0.2561
 3283SOL     ow13129   4.522   7.264   2.625 -0.1611 -0.0839 -0.2100
 3283SOL     hw13130   4.553   7.182   2.586 -1.3996 -0.3422 -0.6923
 3283SOL     hw13131   4.598   7.298   2.672  0.5595 -1.1838 -0.5357
 3283SOL     vw13132   4.536   7.257   2.626 -0.2294 -0.2630 -0.3167
 3284SOL     ow13133   1.661   5.882   2.673  0.2935 -0.0629  0.1031
 3284SOL     hw13134   1.741   5.915   2.713  0.0323 -0.1547  0.7074
 3284SOL     hw13135   1.649   5.795   2.711  1.8057 -1.5931 -2.5744
 3284SOL     vw13136   1.670   5.875   2.683  0.4587 -0.2768 -0.1704
 3285SOL     ow13137   4.110   5.274   1.227  0.4329  0.5541  0.2320
 3285SOL     hw13138   4.030   5.322   1.249  1.3453  2.1654  0.1605
 3285SOL     hw13139   4.162   5.336   1.177  0.4139 -1.5027 -2.5397
 3285SOL     vw13140   4.106   5.288   1.224  0.5510  0.4952 -0.1431
 3286SOL     ow13141   3.436   2.374   5.746 -0.0865 -0.1500 -0.0900
 3286SOL     hw13142   3.362   2.421   5.709  0.4644  1.3534  0.6149
 3286SOL     hw13143   3.430   2.285   5.710 -2.0374  0.0189 -0.2663
 3286SOL     vw13144   3.426   2.368   5.737 -0.2712  0.0708 -0.0203
 3287SOL     ow13145   6.720   3.509   1.064 -0.6032 -0.3478  0.4358
 3287SOL     hw13146   6.670   3.517   0.983 -0.9886 -0.1679  0.6915
 3287SOL     hw13147   6.773   3.588   1.068  1.3340 -1.4836 -0.9190
 3287SOL     vw13148   6.720   3.520   1.054 -0.3984 -0.4737  0.2908
 3288SOL     ow13149   1.904   5.840   6.272  0.0317 -0.0726 -0.8278
 3288SOL     hw13150   1.845   5.879   6.337  1.7864 -0.4129  1.0724
 3288SOL     hw13151   1.907   5.904   6.201 -2.0872  0.2407 -0.7164
 3288SOL     vw13152   1.896   5.853   6.271 -0.0163 -0.0761 -0.5624
 3289SOL     ow13153   1.440   5.174   2.022 -0.5383  0.2157  0.1149
 3289SOL     hw13154   1.486   5.257   2.031 -1.0901  0.7657 -1.7774
 3289SOL     hw13155   1.470   5.122   2.097 -1.4063  2.6647  2.3225
 3289SOL     vw13156   1.450   5.178   2.033 -0.7257  0.6113  0.1565
 3290SOL     ow13157   4.066   5.043   1.464  0.2555  0.4347 -0.6965
 3290SOL     hw13158   4.042   5.083   1.380  0.5677  0.1654 -0.9196
 3290SOL     hw13159   4.153   5.005   1.448 -0.2015 -0.6915 -0.6304
 3290SOL     vw13160   4.074   5.043   1.451  0.2363  0.2506 -0.7172
 3291SOL     ow13161   5.543   6.300   3.528  0.1465 -0.2208  0.1046
 3291SOL     hw13162   5.523   6.256   3.610 -3.1282  0.7919  0.0195
 3291SOL     hw13163   5.600   6.373   3.552 -0.3883 -0.2208  1.4129
 3291SOL     vw13164   5.548   6.304   3.542 -0.3562 -0.0873  0.2660
 3292SOL     ow13165   4.739   2.034   6.672  0.0408 -0.1356  0.0458
 3292SOL     hw13166   4.799   1.960   6.682 -0.3655 -0.6903 -1.4081
 3292SOL     hw13167   4.782   2.106   6.718  1.3347 -0.7834 -0.1091
 3292SOL     vw13168   4.753   2.033   6.680  0.1578 -0.2942 -0.1664
 3293SOL     ow13169   1.992   1.987   3.818 -0.2622  0.3862  0.2806
 3293SOL     hw13170   1.998   1.896   3.789  0.1939  0.2583  0.7631
 3293SOL     hw13171   2.077   2.025   3.798 -1.3290  1.5203 -2.5153
 3293SOL     vw13172   2.004   1.980   3.812 -0.3428  0.5189 -0.0244
 3294SOL     ow13173   0.632   6.001   7.089 -0.3529  0.1987 -0.2734
 3294SOL     hw13174   0.588   6.036   7.012 -0.0661 -0.7161 -0.8683
 3294SOL     hw13175   0.563   5.993   7.155 -1.2051 -1.6599 -1.3380
 3294SOL     vw13176   0.617   6.005   7.088 -0.4275 -0.1669 -0.4923
 3295SOL     ow13177   7.014   6.125   1.871  0.7522  0.2151 -0.0711
 3295SOL     hw13178   6.957   6.201   1.883  1.0953  0.6045 -0.8732
 3295SOL     hw13179   7.103   6.162   1.868  0.8149 -0.0146 -2.0881
 3295SOL     vw13180   7.018   6.140   1.872  0.8056  0.2360 -0.4430
 3296SOL     ow13181   5.727   3.113   5.271  0.2433 -0.1852 -0.2605
 3296SOL     hw13182   5.659   3.046   5.282  1.0495 -1.0085 -0.1356
 3296SOL     hw13183   5.772   3.089   5.190 -0.7738  1.4387 -1.3696
 3296SOL     vw13184   5.724   3.101   5.262  0.2155 -0.0796 -0.3903
 3297SOL     ow13185   2.145   5.781   0.682  0.2382 -0.3685 -1.1116
 3297SOL     hw13186   2.164   5.873   0.701 -1.7617  0.3682 -2.3010
 3297SOL     hw13187   2.149   5.738   0.767  2.1011  0.6210 -0.6579
 3297SOL     vw13188   2.148   5.787   0.696  0.2202 -0.1407 -1.2087
 3298SOL     ow13189   1.423   0.471   6.075  0.2056  0.2054  0.2242
 3298SOL     hw13190   1.446   0.444   5.986  1.5875  0.9312  0.3241
 3298SOL     hw13191   1.330   0.454   6.082  0.0333  0.2777 -1.4243
 3298SOL     vw13192   1.414   0.465   6.064  0.3652  0.3108  0.0198
 3299SOL     ow13193   2.572   4.803   0.286 -0.0143 -0.0528  0.1766
 3299SOL     hw13194   2.653   4.852   0.297 -0.3120  0.2514  1.0608
 3299SOL     hw13195   2.541   4.828   0.199  1.1220 -0.6124 -0.4135
 3299SOL     vw13196   2.578   4.812   0.276  0.0964 -0.0865  0.2154
 3300SOL     ow13197   2.193   0.138   7.118  0.7387 -0.1506  0.6570
 3300SOL     hw13198   2.283   0.168   7.112  1.0096 -0.9020  0.9045
 3300SOL     hw13199   2.198   0.043   7.116 -0.0207 -0.2139  1.0300
 3300SOL     vw13200   2.205   0.130   7.117  0.6741 -0.2581  0.7389
 3301SOL     ow13201   6.344   6.193   5.244  0.0431  0.3455  0.4501
 3301SOL     hw13202   6.403   6.248   5.295  0.9573 -1.4008  1.3942
 3301SOL     hw13203   6.331   6.115   5.299 -0.3573 -0.8236 -1.2162
 3301SOL     vw13204   6.350   6.190   5.258  0.1109 -0.0393  0.3545
 3302SOL     ow13205   4.272   4.216   2.465 -0.0899  0.4307  0.4412
 3302SOL     hw13206   4.215   4.210   2.388  2.3420  1.4620 -1.5982
 3302SOL     hw13207   4.312   4.130   2.472 -0.7488  0.1568  0.9579
 3302SOL     vw13208   4.270   4.204   2.455  0.1440  0.5307  0.2403
 3303SOL     ow13209   1.307   0.518   6.823  0.0901  0.0872  0.6096
 3303SOL     hw13210   1.377   0.452   6.818  1.2436  1.2463  0.9759
 3303SOL     hw13211   1.274   0.511   6.912  0.7045  0.4748  0.8759
 3303SOL     vw13212   1.312   0.508   6.834  0.3234  0.2913  0.6936
 3304SOL     ow13213   0.081   7.010   3.393 -0.1051 -0.1530 -0.1233
 3304SOL     hw13214   0.029   6.942   3.436 -1.0465  0.4776 -0.2441
 3304SOL     hw13215   0.016   7.071   3.357  0.7137  1.7558  1.4923
 3304SOL     vw13216   0.065   7.009   3.394 -0.1213  0.1819  0.0738
 3305SOL     ow13217   1.575   3.421   5.939 -0.4661 -0.2783 -0.3300
 3305SOL     hw13218   1.606   3.348   5.886 -0.7741 -1.4914  1.0869
 3305SOL     hw13219   1.540   3.380   6.018 -1.2513  1.3723  0.2220
 3305SOL     vw13220   1.575   3.406   5.943 -0.6103 -0.2207 -0.0706
 3306SOL     ow13221   6.333   1.225   0.347  0.5838 -0.4571  0.2459
 3306SOL     hw13222   6.388   1.233   0.424 -0.5060  1.5286  0.8879
 3306SOL     hw13223   6.360   1.298   0.291  0.0934 -0.7676 -0.4085
 3306SOL     vw13224   6.344   1.235   0.349  0.3753 -0.2361  0.2443
 3307SOL     ow13225   0.200   2.514   2.963  0.6251 -0.2460  0.8714
 3307SOL     hw13226   0.269   2.456   2.995  1.1983  0.1965  0.4519
 3307SOL     hw13227   0.243   2.599   2.951  0.0336  0.0136  0.5267
 3307SOL     vw13228   0.215   2.518   2.965  0.6227 -0.1534  0.7706
 3308SOL     ow13229   6.639   0.608   2.060  0.1651 -0.2714 -0.3398
 3308SOL     hw13230   6.682   0.635   1.979 -3.3486  2.4753 -1.6016
 3308SOL     hw13231   6.687   0.653   2.130  0.2621  1.4897 -1.4887
 3308SOL     vw13232   6.651   0.618   2.059 -0.2859  0.3234 -0.6579
 3309SOL     ow13233   4.763   2.427   2.994  0.0118 -0.3858  0.8034
 3309SOL     hw13234   4.769   2.505   3.049 -1.3975 -0.1626  0.6785
 3309SOL     hw13235   4.842   2.429   2.941 -0.4797  1.5468  0.0647
 3309SOL     vw13236   4.774   2.438   2.995 -0.2391 -0.1014  0.6894
 3310SOL     ow13237   6.981   3.238   2.824  0.3182 -0.8649 -0.2185
 3310SOL     hw13238   6.948   3.200   2.905  0.0124 -1.8232 -0.7698
 3310SOL     hw13239   7.029   3.316   2.851  0.6953 -1.4748  0.9330
 3310SOL     vw13240   6.983   3.243   2.838  0.3276 -1.0719 -0.1392
 3311SOL     ow13241   4.365   7.195   3.717  0.1026 -0.2319  0.6065
 3311SOL     hw13242   4.444   7.186   3.772 -1.3287 -0.1063  2.8154
 3311SOL     hw13243   4.341   7.287   3.726 -1.2654 -0.6476  1.4321
 3311SOL     vw13244   4.372   7.206   3.726 -0.2666 -0.2701  1.0068
 3312SOL     ow13245   0.793   6.124   2.480 -0.0127  0.0325  0.4178
 3312SOL     hw13246   0.838   6.060   2.536  1.5162  0.3972 -0.3301
 3312SOL     hw13247   0.828   6.208   2.507 -0.3321  0.3439 -0.1249
 3312SOL     vw13248   0.804   6.126   2.491  0.1469  0.1214  0.2475
 3313SOL     ow13249   3.947   1.897   6.993 -0.4045  0.7401 -0.5649
 3313SOL     hw13250   3.995   1.979   6.991  0.6652  0.1404 -0.4034
 3313SOL     hw13251   3.892   1.903   7.071 -0.5165  1.3885 -0.6890
 3313SOL     vw13252   3.946   1.908   7.003 -0.2782  0.7465 -0.5596
 3314SOL     ow13253   1.256   2.108   2.241 -0.6097 -0.0690  0.7656
 3314SOL     hw13254   1.243   2.020   2.204 -1.7634  0.2662  0.3286
 3314SOL     hw13255   1.264   2.093   2.335  4.1454 -1.1357  0.4093
 3314SOL     vw13256   1.255   2.095   2.248 -0.1345 -0.1656  0.6609
 3315SOL     ow13257   0.763   1.545   5.108 -0.8037 -0.2745 -0.4986
 3315SOL     hw13258   0.667   1.545   5.110 -0.8072 -1.3291  0.9460
 3315SOL     hw13259   0.787   1.454   5.091 -0.0447  0.1172 -1.5883
 3315SOL     vw13260   0.753   1.533   5.106 -0.7040 -0.3620 -0.4518
 3316SOL     ow13261   7.247   0.834   4.694 -0.0526 -0.4685 -0.3227
 3316SOL     hw13262   7.221   0.832   4.602 -4.5600 -1.8628  0.7501
 3316SOL     hw13263   7.213   0.917   4.727  3.7037  1.2323 -0.2402
 3316SOL     vw13264   7.239   0.844   4.686 -0.1516 -0.4281 -0.1702
 3317SOL     ow13265   2.270   2.978   1.006  0.0206  0.5012  0.0380
 3317SOL     hw13266   2.293   3.063   0.967  0.8891 -0.8025 -2.5358
 3317SOL     hw13267   2.198   2.946   0.951 -1.2470  0.1142  1.8349
 3317SOL     vw13268   2.264   2.985   0.993 -0.0321  0.2781 -0.0645
 3318SOL     ow13269   5.304   6.829   0.553  0.1164 -0.9802 -0.2060
 3318SOL     hw13270   5.354   6.748   0.549 -0.6632 -1.4323 -2.8436
 3318SOL     hw13271   5.367   6.896   0.577  1.8136 -1.6981 -2.3580
 3318SOL     vw13272   5.319   6.827   0.555  0.2375 -1.1344 -0.8379
 3319SOL     ow13273   2.931   5.376   3.642 -0.3482  0.1998  0.1056
 3319SOL     hw13274   2.976   5.302   3.603  0.8223  0.0839  1.5792
 3319SOL     hw13275   3.001   5.437   3.666 -1.1595  1.0247  0.4365
 3319SOL     vw13276   2.946   5.374   3.640 -0.3009  0.2935  0.3436
 3320SOL     ow13277   7.362   2.999   1.990 -0.1176  0.2984  0.4409
 3320SOL     hw13278   7.337   3.085   2.022  2.0580  0.6447  1.4053
 3320SOL     hw13279   7.283   2.946   1.997 -1.1343  1.8523  1.1188
 3320SOL     vw13280   7.349   3.003   1.995  0.0350  0.5492  0.6576
 3321SOL     ow13281   5.681   2.141   5.371  0.3830 -0.1459 -0.2284
 3321SOL     hw13282   5.643   2.127   5.457  0.5235  3.0286  0.4846
 3321SOL     hw13283   5.722   2.058   5.348 -0.6697 -1.4236  2.2154
 3321SOL     vw13284   5.681   2.128   5.379  0.2625  0.1045  0.1884
 3322SOL     ow13285   5.074   0.245   0.525 -0.3576 -0.2971 -0.6476
 3322SOL     hw13286   5.037   0.329   0.552  0.2255  0.0405 -0.8667
 3322SOL     hw13287   5.022   0.179   0.570  0.7715  0.2450  1.5744
 3322SOL     vw13288   5.063   0.247   0.534 -0.1316 -0.1810 -0.3833
 3323SOL     ow13289   4.922   0.103   5.444 -0.2760  0.5313 -0.5489
 3323SOL     hw13290   4.915   0.139   5.355 -0.4633  0.2290 -0.6572
 3323SOL     hw13291   4.845   0.137   5.490 -0.5828  0.0855 -0.7203
 3323SOL     vw13292   4.911   0.112   5.438 -0.3412  0.4326 -0.5860
 3324SOL     ow13293   2.235   2.071   2.036  0.5842 -0.3649  0.3686
 3324SOL     hw13294   2.197   1.984   2.050 -0.4898  0.2921  1.7068
 3324SOL     hw13295   2.199   2.125   2.106  1.4296  1.1128 -0.2879
 3324SOL     vw13296   2.225   2.066   2.047  0.5541 -0.0832  0.4586
 3325SOL     ow13297   1.512   4.402   5.221 -0.0697 -0.8271 -0.1120
 3325SOL     hw13298   1.565   4.332   5.185  0.7280  0.6697 -1.9963
 3325SOL     hw13299   1.519   4.473   5.158 -1.4506  0.7032  1.3455
 3325SOL     vw13300   1.520   4.402   5.208 -0.1466 -0.4277 -0.1681
 3326SOL     ow13301   1.454   2.064   4.940  0.3849  0.5598  0.2500
 3326SOL     hw13302   1.529   2.010   4.965 -0.4877 -1.4134 -1.0939
 3326SOL     hw13303   1.419   2.096   5.023  0.9923 -0.9108  1.1229
 3326SOL     vw13304   1.459   2.061   4.954  0.3499  0.1054  0.1879
 3327SOL     ow13305   7.490   4.658   0.099 -0.9274  0.3048  0.7316
 3327SOL     hw13306   7.532   4.740   0.126 -0.4249  0.1845  0.3348
 3327SOL     hw13307   7.551   4.590   0.127  1.6207  0.2712 -3.8939
 3327SOL     vw13308   7.504   4.660   0.106 -0.5248  0.2844  0.0690
 3328SOL     ow13309   0.136   0.442   2.996  0.5308  0.7199  0.5891
 3328SOL     hw13310   0.163   0.503   3.065  0.0348  0.7279  0.7831
 3328SOL     hw13311   0.066   0.488   2.950 -0.9681 -0.3086  1.7398
 3328SOL     vw13312   0.130   0.456   2.999  0.2676  0.5852  0.7665
 3329SOL     ow13313   7.318   2.911   1.694  0.2935 -0.0955  0.0244
 3329SOL     hw13314   7.349   2.868   1.614 -1.2398 -0.9645 -0.1349
 3329SOL     hw13315   7.243   2.963   1.666  0.7605  0.9227  0.6219
 3329SOL     vw13316   7.312   2.912   1.680  0.1531 -0.0757  0.0823
 3330SOL     ow13317   3.653   2.547   3.989  0.3455 -0.2984  0.6030
 3330SOL     hw13318   3.599   2.509   3.919 -1.4932  1.9109  0.6723
 3330SOL     hw13319   3.725   2.590   3.943  0.4503 -0.8548  0.2493
 3330SOL     vw13320   3.655   2.548   3.973  0.1167 -0.0803  0.5654
 3331SOL     ow13321   7.394   7.474   7.557  0.2759  0.3332 -0.0202
 3331SOL     hw13322   7.317   7.531   7.563  1.2028  1.4564  2.6164
 3331SOL     hw13323   7.448   7.515   7.489 -1.5801 -0.7863 -2.3270
 3331SOL     vw13324   7.391   7.487   7.549  0.1535  0.3335  0.0234
 3332SOL     ow13325   2.974   5.895   1.492 -0.2209  0.4332 -0.9276
 3332SOL     hw13326   3.010   5.923   1.408  1.9402  0.7203  0.0350
 3332SOL     hw13327   2.883   5.869   1.471  0.2995  0.2688 -3.3696
 3332SOL     vw13328   2.966   5.895   1.478  0.1328  0.4494 -1.1228
 3333SOL     ow13329   0.609   1.274   6.873  0.1468 -0.4122  0.3728
 3333SOL     hw13330   0.699   1.258   6.900  0.9627  2.6758 -0.0488
 3333SOL     hw13331   0.616   1.309   6.784 -1.4613 -0.0876  0.3436
 3333SOL     vw13332   0.622   1.277   6.865  0.0422  0.0380  0.3133
 3334SOL     ow13333   1.564   2.488   4.303 -0.2726  0.0961 -0.8377
 3334SOL     hw13334   1.541   2.533   4.222 -2.4458  0.3089 -0.1618
 3334SOL     hw13335   1.638   2.539   4.338 -0.0082  0.6441 -2.1252
 3334SOL     vw13336   1.571   2.501   4.297 -0.5244  0.1965 -0.9184
 3335SOL     ow13337   3.650   0.207   0.642  0.2923  1.2803  0.2543
 3335SOL     hw13338   3.649   0.156   0.561 -0.0206  1.4418  0.1567
 3335SOL     hw13339   3.743   0.210   0.666  0.0857 -2.5149  2.3030
 3335SOL     vw13340   3.662   0.201   0.634  0.2238  0.8009  0.5118
 3336SOL     ow13341   0.431   4.947   6.301 -0.5561  0.3824  0.2655
 3336SOL     hw13342   0.457   4.983   6.216 -0.2181 -1.0353 -0.2452
 3336SOL     hw13343   0.362   5.006   6.331 -0.0487  1.4373 -0.5602
 3336SOL     vw13344   0.425   4.960   6.294 -0.4445  0.3345  0.0896
 3337SOL     ow13345   1.942   3.567   5.481  0.1380 -0.3699  0.1191
 3337SOL     hw13346   2.007   3.504   5.451  1.4032  0.0047  1.8813
 3337SOL     hw13347   1.862   3.515   5.494 -0.4776 -0.5889 -3.4367
 3337SOL     vw13348   1.940   3.552   5.479  0.2237 -0.3494 -0.1175
 3338SOL     ow13349   5.501   5.192   0.838  0.5336  0.1722  0.0145
 3338SOL     hw13350   5.483   5.285   0.828  2.1229  0.7312  1.6564
 3338SOL     hw13351   5.468   5.152   0.758  1.7611  2.4399 -1.7581
 3338SOL     vw13352   5.494   5.199   0.826  0.9053  0.5453 -0.0028
 3339SOL     ow13353   6.798   2.237   0.904 -0.6152 -0.4579 -0.5644
 3339SOL     hw13354   6.730   2.224   0.838 -0.0271  2.2950 -1.8377
 3339SOL     hw13355   6.757   2.210   0.986 -2.6937 -0.4200 -1.5328
 3339SOL     vw13356   6.784   2.232   0.906 -0.8121 -0.0898 -0.8602
 3340SOL     ow13357   3.931   0.132   0.006 -0.3145 -0.0461 -0.3286
 3340SOL     hw13358   3.839   0.153   0.023 -0.0900  1.8226 -1.1577
 3340SOL     hw13359   3.929   0.079  -0.073 -0.6549  0.4468 -0.6588
 3340SOL     vw13360   3.918   0.128  -0.002 -0.3299  0.2655 -0.4816
 3341SOL     ow13361   7.056   6.921   0.166 -0.1876  0.6413 -0.2744
 3341SOL     hw13362   7.115   6.995   0.151  0.6436  0.4999  1.9166
 3341SOL     hw13363   7.076   6.892   0.255 -1.6250 -1.2169 -0.4952
 3341SOL     vw13364   7.066   6.927   0.176 -0.2677  0.3772 -0.0145
 3342SOL     ow13365   1.073   2.355   7.062 -0.2639  0.0928 -0.1236
 3342SOL     hw13366   1.138   2.390   7.122 -1.1862  1.3965  0.1602
 3342SOL     hw13367   1.016   2.301   7.118 -2.4529  3.0634  0.7442
 3342SOL     vw13368   1.074   2.352   7.077 -0.6744  0.6567  0.0286
 3343SOL     ow13369   6.065   6.868   6.258  0.3424  0.1142 -0.5377
 3343SOL     hw13370   6.136   6.918   6.298  0.6110  0.3810 -1.3282
 3343SOL     hw13371   5.996   6.932   6.242  0.4422  0.1157 -0.9750
 3343SOL     vw13372   6.065   6.883   6.261  0.3910  0.1493 -0.6998
 3344SOL     ow13373   4.279   4.505   0.629  0.4779 -0.0517 -0.0675
 3344SOL     hw13374   4.256   4.442   0.698  0.7126 -0.4197 -0.3211
 3344SOL     hw13375   4.314   4.580   0.677 -2.0026  0.9091  0.4043
 3344SOL     vw13376   4.280   4.506   0.645  0.1817  0.0267 -0.0387
 3345SOL     ow13377   1.031   4.867   1.078  0.9495 -0.4326  0.2121
 3345SOL     hw13378   0.972   4.840   1.008  2.7230  1.3182 -2.1150
 3345SOL     hw13379   1.113   4.821   1.060  1.4661  0.1188  1.0794
 3345SOL     vw13380   1.034   4.858   1.066  1.2517 -0.1287  0.0195
 3346SOL     ow13381   0.258   0.448   4.688  0.1548 -0.0634  0.4306
 3346SOL     hw13382   0.341   0.497   4.689 -0.4706  1.0246  0.5174
 3346SOL     hw13383   0.205   0.492   4.622 -1.2002  0.7510  1.9864
 3346SOL     vw13384   0.262   0.460   4.680 -0.1065  0.1876  0.6473
 3347SOL     ow13385   3.533   5.112   3.632  0.3368 -0.1036  0.1638
 3347SOL     hw13386   3.461   5.144   3.687 -0.0093 -2.0759  0.9374
 3347SOL     hw13387   3.495   5.038   3.583  1.7145 -0.9118  0.2776
 3347SOL     vw13388   3.518   5.106   3.633  0.4729 -0.4704  0.2809
 3348SOL     ow13389   1.909   4.288   5.025 -0.5294 -0.2734 -0.0166
 3348SOL     hw13390   1.964   4.214   5.000 -2.4901 -0.7961 -3.3514
 3348SOL     hw13391   1.963   4.365   5.006  0.4225 -0.7714  0.5734
 3348SOL     vw13392   1.923   4.289   5.020 -0.6624 -0.4079 -0.3786
 3349SOL     ow13393   3.158   2.615   5.938 -0.2294 -0.3600  0.0884
 3349SOL     hw13394   3.210   2.685   5.977 -0.6403 -0.1362  0.2456
 3349SOL     hw13395   3.071   2.652   5.929  0.0759 -0.0618 -2.0042
 3349SOL     vw13396   3.153   2.629   5.942 -0.2433 -0.2912 -0.1667
 3350SOL     ow13397   3.513   2.733   0.601 -0.6890  0.4512 -0.9843
 3350SOL     hw13398   3.548   2.764   0.517 -0.8814  2.6863 -0.3126
 3350SOL     hw13399   3.574   2.665   0.629  0.8727  1.4783 -1.7314
 3350SOL     vw13400   3.526   2.728   0.594 -0.5083  0.8817 -0.9943
 3351SOL     ow13401   3.284   2.553   0.578 -0.3163  0.0041 -0.2499
 3351SOL     hw13402   3.337   2.478   0.551 -1.5363 -1.1336  0.3630
 3351SOL     hw13403   3.216   2.558   0.511 -0.2967  0.4993 -0.2302
 3351SOL     vw13404   3.282   2.544   0.565 -0.4746 -0.0807 -0.1664
 3352SOL     ow13405   4.833   6.076   4.590  0.4839  0.2625  0.3343
 3352SOL     hw13406   4.869   6.094   4.503  1.4695  1.7470  1.0028
 3352SOL     hw13407   4.873   5.993   4.615  0.3918 -0.0537 -0.5305
 3352SOL     vw13408   4.843   6.068   4.582  0.6020  0.4168  0.3083
 3353SOL     ow13409   4.786   5.977   1.474 -0.5714  0.0373 -0.5893
 3353SOL     hw13410   4.799   6.031   1.396 -0.1172 -0.8309 -1.1332
 3353SOL     hw13411   4.837   6.020   1.542  0.9456 -0.4390 -1.3675
 3353SOL     vw13412   4.794   5.989   1.473 -0.3111 -0.1397 -0.7637
 3354SOL     ow13413   0.954   5.309   2.033 -0.0172 -0.6053 -0.8472
 3354SOL     hw13414   0.917   5.357   1.958  1.2004 -1.8061 -2.2920
 3354SOL     hw13415   1.048   5.314   2.020  0.1756 -2.1674 -0.2882
 3354SOL     vw13416   0.961   5.316   2.021  0.1689 -0.9701 -0.9640
 3355SOL     ow13417   6.158   1.799   1.356  0.0134 -0.0313  0.1800
 3355SOL     hw13418   6.213   1.842   1.422  0.1503 -0.4735  0.3522
 3355SOL     hw13419   6.141   1.868   1.292  1.1859 -0.0174 -0.1396
 3355SOL     vw13420   6.163   1.814   1.356  0.1860 -0.0877  0.1605
 3356SOL     ow13421   4.293   4.194   5.547  0.4392  0.1353 -0.3927
 3356SOL     hw13422   4.361   4.199   5.480 -1.1728  1.6068 -2.0077
 3356SOL     hw13423   4.232   4.128   5.514 -0.7380  1.3847 -0.7677
 3356SOL     vw13424   4.294   4.186   5.534  0.0710  0.4942 -0.6552
 3357SOL     ow13425   7.563   6.299   1.149 -0.4506  0.0177  0.2086
 3357SOL     hw13426   7.611   6.382   1.151  0.9168 -0.7305 -0.0391
 3357SOL     hw13427   7.550   6.277   1.241 -0.6838  0.4329  0.2768
 3357SOL     vw13428   7.568   6.307   1.161 -0.3009 -0.0262  0.1850
 3358SOL     ow13429   1.640   3.341   0.668  0.0546 -0.6837  0.5027
 3358SOL     hw13430   1.570   3.403   0.644  0.5145 -0.9769 -1.8699
 3358SOL     hw13431   1.721   3.385   0.641  0.9824 -0.0074  3.9277
 3358SOL     vw13432   1.641   3.355   0.661  0.2378 -0.6331  0.6415
 3359SOL     ow13433   1.023   7.389   5.896 -0.2824 -0.1321 -0.8690
 3359SOL     hw13434   1.029   7.366   5.803  1.7897  0.0692 -0.8446
 3359SOL     hw13435   1.097   7.449   5.910 -0.1920 -0.6395  1.0383
 3359SOL     vw13436   1.034   7.394   5.886  0.0030 -0.1724 -0.6144
 3360SOL     ow13437   4.157   4.370   4.061  0.1031 -0.1156 -0.8501
 3360SOL     hw13438   4.076   4.407   4.025  0.2900 -1.7762 -3.2120
 3360SOL     hw13439   4.127   4.304   4.123 -0.3865 -0.6042 -1.5886
 3360SOL     vw13440   4.142   4.366   4.065  0.0629 -0.3989 -1.2591
 3361SOL     ow13441   6.226   2.887   5.194  0.1301 -0.3663 -0.3045
 3361SOL     hw13442   6.263   2.902   5.280 -0.1663 -0.4191 -0.1666
 3361SOL     hw13443   6.136   2.859   5.211  0.2491 -0.9425 -0.6065
 3361SOL     vw13444   6.219   2.885   5.207  0.1068 -0.4494 -0.3262
 3362SOL     ow13445   3.810   2.907   5.875 -0.4524  0.1246  0.2011
 3362SOL     hw13446   3.808   2.974   5.806  0.9145  0.5702  0.5586
 3362SOL     hw13447   3.826   2.957   5.955 -3.4893 -0.2041  1.1410
 3362SOL     vw13448   3.811   2.923   5.876 -0.6727  0.1400  0.3722
 3363SOL     ow13449   0.965   2.227   1.252  0.0639  0.2584 -0.3039
 3363SOL     hw13450   0.917   2.183   1.181  2.4180 -0.3983 -1.6097
 3363SOL     hw13451   1.038   2.270   1.208  0.4610  1.5871  1.5380
 3363SOL     vw13452   0.968   2.227   1.237  0.4269  0.3470 -0.2332
 3364SOL     ow13453   3.379   6.423   4.693 -0.0888  0.6137  0.1686
 3364SOL     hw13454   3.362   6.424   4.787  0.8509 -1.4050  0.3997
 3364SOL     hw13455   3.475   6.425   4.686 -0.0738 -1.2966 -0.6559
 3364SOL     vw13456   3.389   6.424   4.704  0.0372  0.0951  0.0904
 3365SOL     ow13457   5.625   0.695   3.495 -0.1462  0.4085  0.0484
 3365SOL     hw13458   5.575   0.693   3.413  0.5507  0.6452 -0.3996
 3365SOL     hw13459   5.587   0.625   3.548 -0.3214 -0.0462 -0.6565
 3365SOL     vw13460   5.613   0.685   3.491 -0.0772  0.3797 -0.1037
 3366SOL     ow13461   5.591   1.521   2.441 -0.4553  0.0370 -0.2871
 3366SOL     hw13462   5.655   1.585   2.409 -0.7580 -0.2977 -1.6137
 3366SOL     hw13463   5.514   1.534   2.386 -0.0986 -2.2877 -1.5001
 3366SOL     vw13464   5.589   1.531   2.429 -0.4482 -0.3138 -0.6219
 3367SOL     ow13465   5.683   0.198   0.167  0.7955 -0.1231 -0.0853
 3367SOL     hw13466   5.611   0.197   0.105  0.4359 -1.0640  0.3312
 3367SOL     hw13467   5.715   0.288   0.166 -0.3182  0.2750 -0.3506
 3367SOL     vw13468   5.678   0.210   0.159  0.6011 -0.1947 -0.0653
 3368SOL     ow13469   0.449   2.863   4.582  0.2548  0.1333  0.0893
 3368SOL     hw13470   0.354   2.872   4.592  0.3327  0.0866  0.9219
 3368SOL     hw13471   0.473   2.789   4.639  0.8265  0.3205  0.1011
 3368SOL     vw13472   0.440   2.854   4.591  0.3405  0.1518  0.2005
 3369SOL     ow13473   6.058   2.477   3.140  0.4900 -0.5783 -0.7568
 3369SOL     hw13474   6.145   2.506   3.114  0.5151  0.2143  0.1358
 3369SOL     hw13475   6.005   2.486   3.061  0.7968  0.7259 -0.8442
 3369SOL     vw13476   6.062   2.482   3.126  0.5338 -0.3016 -0.6506
 3370SOL     ow13477   6.919   3.257   5.281 -0.4683 -0.4135 -0.0031
 3370SOL     hw13478   6.915   3.180   5.339 -0.2465  1.0645  2.0896
 3370SOL     hw13479   6.994   3.307   5.314 -1.6384  1.5473 -0.1775
 3370SOL     vw13480   6.929   3.253   5.293 -0.5932  0.0402  0.2499
 3371SOL     ow13481   3.481   4.928   7.254  0.3905 -0.0034  0.0798
 3371SOL     hw13482   3.431   4.891   7.326  0.7005 -1.0955 -0.2330
 3371SOL     hw13483   3.481   5.022   7.269 -1.1798 -0.0436  0.4412
 3371SOL     vw13484   3.474   4.936   7.265  0.2244 -0.1528  0.0863
 3372SOL     ow13485   0.253   5.558   5.422 -0.4632  0.7368 -0.0637
 3372SOL     hw13486   0.332   5.528   5.467 -0.4357  0.3246 -0.3766
 3372SOL     hw13487   0.247   5.651   5.442  1.1971  1.2228 -1.6247
 3372SOL     vw13488   0.262   5.566   5.431 -0.2405  0.7465 -0.3109
 3373SOL     ow13489   5.409   6.462   4.333  1.3572 -0.0044 -0.6570
 3373SOL     hw13490   5.376   6.551   4.322  0.2470 -0.6378 -3.0831
 3373SOL     hw13491   5.426   6.431   4.244  1.8811 -2.1751  0.1222
 3373SOL     vw13492   5.407   6.469   4.320  1.2801 -0.3743 -0.8743
 3374SOL     ow13493   4.684   3.139   0.350  0.2756  0.0252 -0.4601
 3374SOL     hw13494   4.715   3.211   0.295  1.8961  0.4203  0.9153
 3374SOL     hw13495   4.679   3.176   0.438 -1.2258 -0.9003 -0.1179
 3374SOL     vw13496   4.687   3.153   0.354  0.2913 -0.0447 -0.2335
 3375SOL     ow13497   0.082   6.177   2.701 -0.4640  0.1021 -0.8886
 3375SOL     hw13498   0.028   6.221   2.636 -1.3645 -1.0734 -0.9721
 3375SOL     hw13499   0.028   6.175   2.780  0.7094  1.7337  0.0237
 3375SOL     vw13500   0.068   6.183   2.703 -0.4280  0.1624 -0.7793
 3376SOL     ow13501   1.778   5.091   1.644 -0.5947  0.0709  0.6479
 3376SOL     hw13502   1.691   5.110   1.607 -0.3184  0.2732  0.0884
 3376SOL     hw13503   1.825   5.048   1.572 -0.1629  0.1491  0.8842
 3376SOL     vw13504   1.773   5.087   1.630 -0.5013  0.1078  0.6052
 3377SOL     ow13505   0.034   2.769   1.589 -0.4470  0.5963  0.7765
 3377SOL     hw13506   0.098   2.753   1.519  2.3337 -0.7840  3.4256
 3377SOL     hw13507  -0.049   2.783   1.542  0.9558 -1.4596 -2.7539
 3377SOL     vw13508   0.031   2.769   1.573  0.1049  0.1431  0.6602
 3378SOL     ow13509   4.777   4.575   1.405  0.0426 -0.2900  0.1289
 3378SOL     hw13510   4.768   4.533   1.490  2.4863  1.8528  1.6125
 3378SOL     hw13511   4.837   4.519   1.356  0.8149 -0.1542  0.8964
 3378SOL     vw13512   4.783   4.562   1.410  0.4671  0.0107  0.4259
 3379SOL     ow13513   0.616   4.237   0.225  0.2050 -0.1700  0.2570
 3379SOL     hw13514   0.651   4.151   0.201 -0.0855  0.0142 -0.9093
 3379SOL     hw13515   0.521   4.227   0.221  0.1697  0.2722 -0.1811
 3379SOL     vw13516   0.608   4.224   0.221  0.1620 -0.0873  0.0453
 3380SOL     ow13517   3.757   1.814   7.219  0.5595  0.1681  0.4018
 3380SOL     hw13518   3.744   1.751   7.148  1.1779 -0.8528  1.1782
 3380SOL     hw13519   3.810   1.768   7.284  1.2139  1.5529  0.9054
 3380SOL     vw13520   3.762   1.800   7.218  0.7274  0.2161  0.5708
 3381SOL     ow13521   3.085   1.419   1.332 -0.0102 -0.2666 -0.4442
 3381SOL     hw13522   3.134   1.501   1.346  0.3394 -0.6925  1.0071
 3381SOL     hw13523   2.993   1.444   1.343  0.1372 -0.1852  0.7454
 3381SOL     vw13524   3.079   1.433   1.335  0.0553 -0.3121 -0.0958
 3382SOL     ow13525   4.068   0.866   2.083 -0.2636  0.6340  0.0120
 3382SOL     hw13526   4.148   0.815   2.070  0.1610  0.1220  3.5139
 3382SOL     hw13527   4.001   0.800   2.106 -0.0717  1.3492  3.1094
 3382SOL     vw13528   4.069   0.850   2.084 -0.1822  0.6608  0.8827
 3383SOL     ow13529   5.438   3.344   2.876 -0.1665  0.6307  0.1989
 3383SOL     hw13530   5.493   3.405   2.827  1.0634  0.4132  1.2412
 3383SOL     hw13531   5.467   3.257   2.847 -1.8640  0.4862 -1.2346
 3383SOL     vw13532   5.449   3.340   2.866 -0.2284  0.5829  0.1473
 3384SOL     ow13533   3.906   4.879   1.029  0.1855 -0.1233  0.6624
 3384SOL     hw13534   3.989   4.908   0.992 -0.1504  1.3478  0.9845
 3384SOL     hw13535   3.869   4.958   1.070 -1.1682 -0.8383  0.8896
 3384SOL     vw13536   3.912   4.894   1.030 -0.0374 -0.0236  0.7349
 3385SOL     ow13537   1.092   6.507   2.607 -0.9175  0.0821 -0.0938
 3385SOL     hw13538   1.173   6.463   2.631 -0.6486  1.8808  2.7624
 3385SOL     hw13539   1.113   6.554   2.526  0.2993 -0.8902 -0.3793
 3385SOL     vw13540   1.105   6.507   2.599 -0.7215  0.1915  0.2453
 3386SOL     ow13541   1.180   2.086   4.832 -0.5361 -0.4297  0.4988
 3386SOL     hw13542   1.178   2.152   4.902 -2.2020 -1.6728  1.7262
 3386SOL     hw13543   1.097   2.098   4.785  0.6233  0.4790 -1.4294
 3386SOL     vw13544   1.168   2.096   4.835 -0.6030 -0.4740  0.4063
 3387SOL     ow13545   7.212   7.159   0.115  0.1383 -0.3576 -0.4374
 3387SOL     hw13546   7.307   7.148   0.120  0.1241 -0.0515  1.7188
 3387SOL     hw13547   7.198   7.202   0.031  2.1621  1.5300  0.0657
 3387SOL     vw13548   7.223   7.163   0.105  0.4032 -0.0682 -0.0865
 3388SOL     ow13549   0.377   4.941   2.800  0.2350 -0.0721 -0.8513
 3388SOL     hw13550   0.436   4.920   2.873  0.6648  0.1922 -1.1183
 3388SOL     hw13551   0.301   4.982   2.842  1.2308  1.6899 -0.6624
 3388SOL     vw13552   0.375   4.944   2.815  0.4231  0.1953 -0.8616
 3389SOL     ow13553   2.002   0.268   1.921  0.3346  0.5251  0.1634
 3389SOL     hw13554   1.995   0.316   2.003 -0.3853  3.2487 -1.3716
 3389SOL     hw13555   2.074   0.310   1.874 -0.2915  0.1162 -1.2330
 3389SOL     vw13556   2.010   0.280   1.925  0.1570  0.8305 -0.2234
 3390SOL     ow13557   6.686   3.928   4.275 -0.0973  0.3851  0.9144
 3390SOL     hw13558   6.713   4.009   4.320  3.6803 -1.3792  2.3225
 3390SOL     hw13559   6.683   3.862   4.345  0.9996 -1.4522 -0.6700
 3390SOL     vw13560   6.689   3.930   4.290  0.5457 -0.0901  0.8910
 3391SOL     ow13561   3.939   6.851   4.298  1.1523  0.1207 -0.0754
 3391SOL     hw13562   3.891   6.771   4.316 -0.7798  1.4050  0.7843
 3391SOL     hw13563   3.953   6.850   4.204  1.3856 -1.3194 -0.0495
 3391SOL     vw13564   3.935   6.840   4.288  0.9280  0.1001  0.0412
 3392SOL     ow13565   3.059   6.118   1.720  0.3826  0.0947  0.3718
 3392SOL     hw13566   3.046   6.140   1.813 -2.3338 -0.1011  0.1394
 3392SOL     hw13567   3.114   6.189   1.687 -1.5865  2.2897  1.4012
 3392SOL     vw13568   3.064   6.131   1.728 -0.2357  0.3586  0.4770
 3393SOL     ow13569   6.321   1.920   4.484 -0.3108  0.1354  0.0200
 3393SOL     hw13570   6.337   1.837   4.528 -2.7387 -1.1494 -1.3522
 3393SOL     hw13571   6.239   1.952   4.521  0.0419  1.4200 -0.2392
 3393SOL     vw13572   6.313   1.913   4.495 -0.5844  0.1354 -0.1953
 3394SOL     ow13573   4.254   1.937   2.350 -0.3573  0.2568  0.3283
 3394SOL     hw13574   4.239   1.926   2.444  0.9023 -0.3042  0.4808
 3394SOL     hw13575   4.293   2.024   2.342 -1.3385  0.7017  0.1998
 3394SOL     vw13576   4.257   1.947   2.361 -0.3207  0.2415  0.3315
 3395SOL     ow13577   3.104   4.747   6.626 -0.0252  0.2335  0.1259
 3395SOL     hw13578   3.039   4.802   6.669 -0.7352 -0.9553  0.6033
 3395SOL     hw13579   3.131   4.798   6.550 -2.2458  0.3529 -0.6535
 3395SOL     vw13580   3.099   4.761   6.622 -0.4119  0.0925  0.0861
 3396SOL     ow13581   6.116   5.603   2.524  0.5372  0.1613 -0.1631
 3396SOL     hw13582   6.196   5.566   2.562  0.4416 -0.2987 -0.4031
 3396SOL     hw13583   6.146   5.684   2.481  0.7026  0.4941  0.5687
 3396SOL     vw13584   6.131   5.609   2.523  0.5465  0.1442 -0.0983
 3397SOL     ow13585   3.056   6.642   6.659 -0.3250  0.0991  0.7593
 3397SOL     hw13586   3.029   6.734   6.655 -0.6406  0.1153  2.2572
 3397SOL     hw13587   3.148   6.645   6.683  0.2385  0.0120 -1.2375
 3397SOL     vw13588   3.064   6.655   6.662 -0.2924  0.0899  0.6936
 3398SOL     ow13589   1.693   3.111   1.124  0.1556 -0.3314  0.3607
 3398SOL     hw13590   1.690   3.098   1.029  1.8137  0.3100  0.1942
 3398SOL     hw13591   1.699   3.205   1.135 -1.0421 -0.3321  1.1654
 3398SOL     vw13592   1.694   3.121   1.113  0.2164 -0.2469  0.4449
 3399SOL     ow13593   5.455   0.874   5.512  0.4339  0.1428 -0.1233
 3399SOL     hw13594   5.395   0.925   5.458 -2.9816 -1.8389  1.4908
 3399SOL     hw13595   5.503   0.820   5.450 -1.3483 -0.0625 -1.4026
 3399SOL     vw13596   5.454   0.874   5.497 -0.2520 -0.1458 -0.0792
 3400SOL     ow13597   5.659   6.466   4.441 -0.4793 -0.1823  0.3296
 3400SOL     hw13598   5.575   6.494   4.405  0.2370  0.8155 -0.5895
 3400SOL     hw13599   5.663   6.372   4.422 -2.6437 -0.9412  2.9388
 3400SOL     vw13600   5.648   6.457   4.434 -0.6702 -0.1507  0.5522
 3401SOL     ow13601   2.342   0.202   4.744 -0.0836 -0.1670  0.2010
 3401SOL     hw13602   2.407   0.259   4.703  0.8226 -0.9387  0.5217
 3401SOL     hw13603   2.298   0.257   4.809  1.0194  0.0938  0.7520
 3401SOL     vw13604   2.344   0.217   4.747  0.1816 -0.2344  0.3159
 3402SOL     ow13605   5.523   1.053   6.518  0.0926  0.0424 -0.4277
 3402SOL     hw13606   5.558   1.071   6.605  1.1511 -2.1927 -0.3273
 3402SOL     hw13607   5.430   1.075   6.525  0.0749 -0.4384  1.3922
 3402SOL     vw13608   5.515   1.058   6.530  0.2298 -0.3159 -0.1745
 3403SOL     ow13609   0.332   6.079   2.898  0.1838 -0.4512 -0.2688
 3403SOL     hw13610   0.247   6.038   2.913 -0.0910 -0.3305 -1.3686
 3403SOL     hw13611   0.367   6.096   2.985 -1.5434  0.7875  0.2274
 3403SOL     vw13612   0.325   6.075   2.911 -0.0803 -0.2718 -0.3486
 3404SOL     ow13613   0.620   3.311   4.989 -0.1237 -0.1868  0.0194
 3404SOL     hw13614   0.620   3.298   5.084 -0.0536 -0.0656  0.0352
 3404SOL     hw13615   0.548   3.372   4.973  0.6725  0.8146  0.1309
 3404SOL     vw13616   0.610   3.317   5.000 -0.0094 -0.0385  0.0365
 3405SOL     ow13617   6.113   3.706   1.326  0.0484  0.0253 -0.0814
 3405SOL     hw13618   6.201   3.693   1.362  1.3310  0.6458 -2.7422
 3405SOL     hw13619   6.090   3.621   1.289 -0.6263 -0.2064  0.8316
 3405SOL     vw13620   6.121   3.693   1.326  0.1285  0.0768 -0.3120
 3406SOL     ow13621   0.637   7.177   4.943  0.4527 -0.2000  0.1536
 3406SOL     hw13622   0.686   7.184   4.861 -1.2799  0.5985 -0.8851
 3406SOL     hw13623   0.669   7.250   4.996 -0.2209  0.8949 -0.8855
 3406SOL     vw13624   0.648   7.188   4.939  0.1352  0.0498 -0.1206
 3407SOL     ow13625   1.417   1.293   7.008  0.0153 -0.0303 -0.5610
 3407SOL     hw13626   1.402   1.308   6.915  0.8414  1.2020 -0.5067
 3407SOL     hw13627   1.512   1.286   7.017 -0.1004 -1.0259  0.0756
 3407SOL     vw13628   1.427   1.294   6.997  0.1090  0.0010 -0.4697
 3408SOL     ow13629   4.484   4.067   5.720 -0.3043 -0.2936 -0.1225
 3408SOL     hw13630   4.574   4.072   5.688 -0.1601  0.1845  0.3602
 3408SOL     hw13631   4.433   4.119   5.657  0.0205  0.8662  0.5496
 3408SOL     vw13632   4.489   4.075   5.707 -0.2425 -0.0772  0.0298
 3409SOL     ow13633   3.279   7.086   4.815  0.3706  1.1735  0.0866
 3409SOL     hw13634   3.364   7.115   4.849  0.6607  0.2141  0.2005
 3409SOL     hw13635   3.289   7.085   4.720  1.0230 -0.4669  0.1428
 3409SOL     vw13636   3.291   7.090   4.807  0.4948  0.8304  0.1090
 3410SOL     ow13637   4.731   3.106   1.910 -0.1161  0.3738 -0.0581
 3410SOL     hw13638   4.732   3.043   1.838  1.4170 -0.3830  0.5703
 3410SOL     hw13639   4.662   3.168   1.887 -0.4185 -0.4847 -1.6156
 3410SOL     vw13640   4.722   3.106   1.897  0.0460  0.1607 -0.1808
 3411SOL     ow13641   0.671   3.636   0.735 -0.9653 -0.4925  0.2314
 3411SOL     hw13642   0.577   3.627   0.749 -0.8813  1.0254  2.2776
 3411SOL     hw13643   0.679   3.705   0.669 -1.2496 -2.3651 -1.8930
 3411SOL     vw13644   0.660   3.644   0.728 -0.9917 -0.5392  0.2211
 3412SOL     ow13645   3.098   6.488   4.521 -0.2032 -0.0566  0.4547
 3412SOL     hw13646   3.043   6.536   4.458 -1.9259  0.4472  2.2360
 3412SOL     hw13647   3.050   6.407   4.538 -0.7013  0.5736  2.3599
 3412SOL     vw13648   3.084   6.484   4.515 -0.4963  0.0932  0.9410
 3413SOL     ow13649   6.571   3.138   5.318 -0.4615  0.5440 -0.8341
 3413SOL     hw13650   6.517   3.188   5.380 -1.0804 -0.6602 -0.3733
 3413SOL     hw13651   6.580   3.196   5.242 -0.4352  1.6983  0.0143
 3413SOL     vw13652   6.565   3.153   5.316 -0.5395  0.5374 -0.6614
 3414SOL     ow13653   3.102   2.206   0.810 -0.3739  0.4281  0.9653
 3414SOL     hw13654   3.096   2.164   0.896 -0.4496  0.9269  1.2113
 3414SOL     hw13655   3.145   2.290   0.828 -1.8651  1.2648  0.7770
 3414SOL     vw13656   3.107   2.212   0.824 -0.5807  0.6044  0.9729
 3415SOL     ow13657   5.892   0.630   3.416 -0.4097 -0.4335 -0.0719
 3415SOL     hw13658   5.915   0.694   3.349 -1.6577 -0.2893 -0.3879
 3415SOL     hw13659   5.886   0.547   3.368 -1.2305 -0.3429 -0.1311
 3415SOL     vw13660   5.895   0.627   3.401 -0.6826 -0.4025 -0.1215
 3416SOL     ow13661   6.079   6.638   5.169  0.1490  0.0050 -0.2397
 3416SOL     hw13662   6.160   6.686   5.188  1.0263 -2.0835  1.7682
 3416SOL     hw13663   6.011   6.687   5.215  0.2818  1.4624 -1.4835
 3416SOL     vw13664   6.081   6.651   5.178  0.2823 -0.0782 -0.1388
 3417SOL     ow13665   0.696   6.955   0.503 -0.4171 -0.4206 -0.1781
 3417SOL     hw13666   0.694   7.050   0.495 -1.1744 -0.4808 -0.8629
 3417SOL     hw13667   0.764   6.937   0.568 -0.9365  0.6372  0.6932
 3417SOL     vw13668   0.705   6.965   0.511 -0.5855 -0.2890 -0.1535
 3418SOL     ow13669   6.984   2.161   0.256  0.3628 -1.0268 -0.4299
 3418SOL     hw13670   6.952   2.149   0.167 -0.9510 -0.5893 -0.0492
 3418SOL     hw13671   7.077   2.138   0.253 -0.0168 -2.5273 -1.5831
 3418SOL     vw13672   6.992   2.156   0.244  0.1395 -1.1671 -0.5318
 3419SOL     ow13673   0.365   7.291   4.981 -0.2935  0.3240 -0.4770
 3419SOL     hw13674   0.339   7.352   5.050 -0.7878  2.5842 -2.5180
 3419SOL     hw13675   0.288   7.284   4.925  0.4664 -0.4631 -1.4676
 3419SOL     vw13676   0.351   7.298   4.983 -0.2585  0.5183 -0.8767
 3420SOL     ow13677   4.617   3.195   7.584 -0.4450 -0.2078 -0.4445
 3420SOL     hw13678   4.534   3.235   7.559 -0.0414  1.3589  0.5828
 3420SOL     hw13679   4.660   3.261   7.639  0.5739 -1.7919  0.7383
 3420SOL     vw13680   4.612   3.209   7.588 -0.2573 -0.2100 -0.1528
 3421SOL     ow13681   2.209   2.137   3.772 -0.4552  0.0960  0.3967
 3421SOL     hw13682   2.283   2.132   3.832  0.0657 -3.6133 -0.3254
 3421SOL     hw13683   2.170   2.222   3.790  1.5665  0.5158  3.6867
 3421SOL     vw13684   2.213   2.147   3.782 -0.1197 -0.3380  0.7355
 3422SOL     ow13685   5.030   0.003   3.953 -0.2433  0.5248  0.1940
 3422SOL     hw13686   5.113  -0.001   3.905 -0.3370  0.0787  0.0663
 3422SOL     hw13687   4.968   0.037   3.888 -0.4560 -0.4524 -0.1296
 3422SOL     vw13688   5.033   0.007   3.938 -0.2837  0.3370  0.1343
 3423SOL     ow13689   4.858   4.623   2.069 -0.2118  0.1930 -0.1713
 3423SOL     hw13690   4.838   4.552   2.008 -2.4875  0.5219  0.0934
 3423SOL     hw13691   4.825   4.702   2.026 -2.0141  0.4139  1.4694
 3423SOL     vw13692   4.851   4.624   2.056 -0.7498  0.2654  0.0800
 3424SOL     ow13693   1.752   4.761   6.248 -0.5645  0.2209  0.1917
 3424SOL     hw13694   1.700   4.701   6.301 -0.0475 -1.0008 -0.6158
 3424SOL     hw13695   1.754   4.843   6.298 -1.4785 -0.3608  1.2248
 3424SOL     vw13696   1.746   4.764   6.262 -0.6168 -0.0172  0.2215
 3425SOL     ow13697   6.898   5.732   1.527  0.1664 -0.8627 -0.1914
 3425SOL     hw13698   6.849   5.679   1.465 -0.3002 -2.2315  1.2747
 3425SOL     hw13699   6.906   5.817   1.484  0.5277 -1.9476 -2.4129
 3425SOL     vw13700   6.892   5.736   1.513  0.1523 -1.1864 -0.2911
 3426SOL     ow13701   5.589   6.298   6.618 -0.3721 -0.3178  0.6304
 3426SOL     hw13702   5.636   6.300   6.701  0.6898  2.5970  0.0682
 3426SOL     hw13703   5.543   6.382   6.614 -0.0559 -0.1776 -1.8834
 3426SOL     vw13704   5.589   6.309   6.628 -0.1900  0.0851  0.2246
 3427SOL     ow13705   3.321   5.013   3.949  0.0241 -0.7843 -1.0795
 3427SOL     hw13706   3.265   4.961   4.006  1.6254 -2.4730 -0.9054
 3427SOL     hw13707   3.405   4.966   3.950  1.2983  1.3422 -1.6826
 3427SOL     vw13708   3.325   5.000   3.957  0.4035 -0.7262 -1.1362
 3428SOL     ow13709   7.478   5.221   5.829 -0.2636  0.5370 -0.0387
 3428SOL     hw13710   7.468   5.301   5.881  0.2044  0.8293 -0.3852
 3428SOL     hw13711   7.572   5.210   5.820 -0.3257 -0.1328  0.1134
 3428SOL     vw13712   7.489   5.230   5.834 -0.2103  0.4871 -0.0644
 3429SOL     ow13713   5.018   6.884   2.214  0.5900  0.7853 -0.5827
 3429SOL     hw13714   5.099   6.874   2.164  0.2208  1.4758 -1.3491
 3429SOL     hw13715   5.040   6.946   2.283  1.2411 -0.5612  0.4563
 3429SOL     vw13716   5.032   6.891   2.217  0.6270  0.6988 -0.5467
 3430SOL     ow13717   0.083   4.574   5.075 -0.2609 -0.1127  0.2173
 3430SOL     hw13718   0.112   4.500   5.128  0.7762 -0.7635 -1.1725
 3430SOL     hw13719   0.069   4.644   5.137 -0.0397 -1.1242  1.4493
 3430SOL     vw13720   0.085   4.573   5.090 -0.0949 -0.3321  0.1962
 3431SOL     ow13721   1.359   2.094   7.225  0.0879  0.5747 -0.0739
 3431SOL     hw13722   1.327   2.184   7.227 -0.6471  0.3166  0.6840
 3431SOL     hw13723   1.453   2.101   7.241  0.1598  1.2543 -0.7827
 3431SOL     vw13724   1.367   2.107   7.228  0.0004  0.6303 -0.0675
 3432SOL     ow13725   7.541   6.331   2.539  0.8602 -0.3580 -0.6044
 3432SOL     hw13726   7.615   6.358   2.484  0.8971 -0.3673 -0.5592
 3432SOL     hw13727   7.490   6.272   2.483  1.9716 -1.9839  0.0293
 3432SOL     vw13728   7.544   6.327   2.524  1.0121 -0.5734 -0.5149
 3433SOL     ow13729   1.524   4.844   3.256 -0.2837  0.3737  0.1499
 3433SOL     hw13730   1.540   4.896   3.335 -0.1190 -1.0652  1.0970
 3433SOL     hw13731   1.435   4.867   3.230 -0.0634  1.4527  0.2708
 3433SOL     vw13732   1.515   4.854   3.263 -0.2329  0.3264  0.2909
 3434SOL     ow13733   3.120   6.578   1.125 -0.7988  0.2032 -0.2736
 3434SOL     hw13734   3.171   6.611   1.200 -1.2242 -0.2496  0.2162
 3434SOL     hw13735   3.037   6.624   1.130 -0.3059  1.2880 -1.3414
 3434SOL     vw13736   3.116   6.589   1.135 -0.7899  0.2866 -0.3499
 3435SOL     ow13737   0.358   4.406   2.050  0.2741 -0.6329 -0.0249
 3435SOL     hw13738   0.434   4.463   2.061  0.0129 -0.3127  0.1443
 3435SOL     hw13739   0.330   4.422   1.960  0.2759 -0.5893 -0.0179
 3435SOL     vw13740   0.364   4.415   2.040  0.2399 -0.5848 -0.0018
 3436SOL     ow13741   0.163   2.078   2.534  0.0426  0.4146  0.0288
 3436SOL     hw13742   0.133   2.038   2.615 -0.2147  1.8429  0.6724
 3436SOL     hw13743   0.084   2.117   2.495  0.1513 -0.3097 -0.9505
 3436SOL     vw13744   0.149   2.078   2.539  0.0230  0.5075 -0.0155
 3437SOL     ow13745   0.128   4.240   5.490 -0.4693  0.3282  0.4644
 3437SOL     hw13746   0.217   4.248   5.523 -0.3392  0.6392  0.0488
 3437SOL     hw13747   0.135   4.175   5.420 -0.4824  0.6877  0.1277
 3437SOL     vw13748   0.141   4.232   5.485 -0.4538  0.4168  0.3650
 3438SOL     ow13749   7.333   1.314   4.376 -0.0977  0.5110 -0.0072
 3438SOL     hw13750   7.404   1.253   4.358 -1.1059 -0.6877 -0.0826
 3438SOL     hw13751   7.332   1.373   4.301 -0.9795 -1.2487 -1.4742
 3438SOL     vw13752   7.342   1.314   4.364 -0.3471  0.1207 -0.2105
 3439SOL     ow13753   4.039   4.437   0.095  0.4718  0.3936 -0.1907
 3439SOL     hw13754   4.085   4.466   0.174 -0.1509 -0.4748  0.5030
 3439SOL     hw13755   4.011   4.348   0.115  2.6836 -0.9187 -2.4123
 3439SOL     vw13756   4.042   4.429   0.108  0.6816  0.1061 -0.3923
 3440SOL     ow13757   2.607   3.267   4.555  0.5283  1.0907 -0.3098
 3440SOL     hw13758   2.605   3.289   4.462 -0.5880 -0.1887 -0.6197
 3440SOL     hw13759   2.556   3.336   4.598  1.4223  1.9303 -0.5706
 3440SOL     vw13760   2.600   3.279   4.549  0.4989  1.0327 -0.3850
 3441SOL     ow13761   6.987   6.801   0.475 -0.2895 -0.1219  0.3488
 3441SOL     hw13762   6.997   6.747   0.553 -1.2956 -1.9486 -0.7145
 3441SOL     hw13763   6.941   6.879   0.506  0.1354 -0.3825  1.7178
 3441SOL     vw13764   6.982   6.805   0.489 -0.3662 -0.3974  0.3891
 3442SOL     ow13765   4.508   1.140   4.952 -0.4414  0.5942 -0.0575
 3442SOL     hw13766   4.495   1.205   4.882 -2.7591  1.7589  1.3276
 3442SOL     hw13767   4.424   1.137   4.998  0.5609 -1.1630  1.8322
 3442SOL     vw13768   4.495   1.148   4.949 -0.6149  0.5159  0.3743
 3443SOL     ow13769   7.291   5.807   0.288 -0.0437  0.2048  0.9427
 3443SOL     hw13770   7.197   5.788   0.294 -0.3032  1.4725  1.0637
 3443SOL     hw13771   7.297   5.882   0.230  0.7352  1.2940  2.3718
 3443SOL     vw13772   7.279   5.814   0.281  0.0250  0.5157  1.1473
 3444SOL     ow13773   3.917   6.554   7.223 -0.1086  0.3653  0.4493
 3444SOL     hw13774   3.844   6.556   7.286 -0.5371 -2.3054  0.1643
 3444SOL     hw13775   3.878   6.583   7.140 -0.2824  1.0728  0.7760
 3444SOL     vw13776   3.902   6.558   7.220 -0.1881  0.1063  0.4549
 3445SOL     ow13777   2.100   3.239   0.579 -0.3963  0.0816  0.4341
 3445SOL     hw13778   2.152   3.271   0.652 -0.7455 -0.2264  0.8293
 3445SOL     hw13779   2.098   3.144   0.592  1.2764 -0.2147 -1.1482
 3445SOL     vw13780   2.106   3.230   0.590 -0.2217  0.0018  0.2775
 3446SOL     ow13781   2.899   5.914   6.852 -0.3914  0.0173 -0.2700
 3446SOL     hw13782   2.914   5.979   6.920 -0.8127 -0.0626 -0.0921
 3446SOL     hw13783   2.858   5.841   6.899  0.3104 -0.4792 -0.4185
 3446SOL     vw13784   2.895   5.913   6.867 -0.3544 -0.0589 -0.2661
 3447SOL     ow13785   2.549   7.265   1.614  0.1857  0.3926  0.6363
 3447SOL     hw13786   2.495   7.340   1.589  1.5355  1.3007  0.2953
 3447SOL     hw13787   2.628   7.305   1.650  1.1795 -0.8593 -0.0910
 3447SOL     vw13788   2.552   7.280   1.616  0.4948  0.3469  0.4954
 3448SOL     ow13789   7.042   6.310   2.430  0.6504 -0.2923  0.1905
 3448SOL     hw13790   7.040   6.303   2.334  1.4794 -0.1930  0.1634
 3448SOL     hw13791   6.950   6.298   2.456  0.1940  1.0181 -0.6958
 3448SOL     vw13792   7.029   6.307   2.420  0.6995 -0.1063  0.0700
 3449SOL     ow13793   2.419   3.448   4.657  0.4662  0.2568 -0.4073
 3449SOL     hw13794   2.365   3.436   4.734  0.3990 -0.1670 -0.5197
 3449SOL     hw13795   2.373   3.515   4.606  0.8338  0.9977  0.2103
 3449SOL     vw13796   2.406   3.456   4.660  0.5058  0.2985 -0.3405
 3450SOL     ow13797   1.760   2.010   4.027 -0.8303 -0.0818 -0.4437
 3450SOL     hw13798   1.683   2.062   4.051 -0.5869 -0.1044  0.4106
 3450SOL     hw13799   1.789   1.970   4.109 -0.8426 -1.3455 -1.0325
 3450SOL     vw13800   1.754   2.011   4.041 -0.7998 -0.2515 -0.4089
 3451SOL     ow13801   2.014   6.807   5.977  0.3251 -0.4807 -0.3452
 3451SOL     hw13802   1.970   6.884   5.940  3.1358  1.0273 -0.8592
 3451SOL     hw13803   2.009   6.820   6.071 -0.1740 -0.2484 -0.4002
 3451SOL     vw13804   2.008   6.819   5.984  0.6300 -0.2513 -0.4203
 3452SOL     ow13805   1.021   7.534   7.235 -0.5327 -0.0728  0.4959
 3452SOL     hw13806   0.971   7.612   7.212 -2.2545 -1.4712 -0.7217
 3452SOL     hw13807   1.103   7.543   7.186 -1.6593 -0.0713 -1.5205
 3452SOL     vw13808   1.025   7.546   7.225 -0.9084 -0.2573  0.0696
 3453SOL     ow13809   0.218   1.294   0.450 -0.1093  0.2181  0.4471
 3453SOL     hw13810   0.202   1.290   0.544 -0.3956  0.3249  0.4045
 3453SOL     hw13811   0.256   1.381   0.436  0.1341  0.1198  0.4926
 3453SOL     vw13812   0.221   1.305   0.460 -0.1150  0.2192  0.4475
 3454SOL     ow13813   4.976   3.743   5.059 -0.4854  0.1387  0.4774
 3454SOL     hw13814   5.015   3.784   5.136 -0.7825 -0.6470  1.0685
 3454SOL     hw13815   4.939   3.661   5.092 -0.1751 -0.4569 -0.5946
 3454SOL     vw13816   4.977   3.737   5.074 -0.4838 -0.0436  0.4141
 3455SOL     ow13817   6.053   5.305   5.956  0.2878  0.5927  0.4112
 3455SOL     hw13818   6.126   5.366   5.960  1.1720 -0.3424 -0.6848
 3455SOL     hw13819   6.043   5.285   5.862 -1.1313  0.4110  0.5727
 3455SOL     vw13820   6.061   5.310   5.944  0.2174  0.4456  0.2878
 3456SOL     ow13821   2.243   6.461   5.207  0.6525 -0.8223 -0.3652
 3456SOL     hw13822   2.178   6.492   5.143 -1.4796  1.4535  2.6439
 3456SOL     hw13823   2.193   6.448   5.287  3.4184 -2.2841  1.2412
 3456SOL     vw13824   2.228   6.464   5.209  0.7361 -0.7150  0.2439
 3457SOL     ow13825   5.841   1.982   5.674 -0.4183  0.5461 -0.1293
 3457SOL     hw13826   5.771   2.047   5.680 -1.1931 -0.2681 -0.2147
 3457SOL     hw13827   5.842   1.940   5.760 -0.7207 -0.1227 -0.4418
 3457SOL     vw13828   5.832   1.985   5.686 -0.5605  0.3504 -0.1817
 3458SOL     ow13829   0.825   1.263   0.055 -0.1319  0.5452 -0.2513
 3458SOL     hw13830   0.833   1.238  -0.037  1.6219  3.4076 -1.0060
 3458SOL     hw13831   0.881   1.200   0.102 -0.8122 -0.7564 -1.1297
 3458SOL     vw13832   0.833   1.251   0.049  0.0097  0.7511 -0.4668
 3459SOL     ow13833   4.453   6.380   6.910  0.3723  0.1305  0.3257
 3459SOL     hw13834   4.511   6.449   6.943 -0.3968  0.8399  0.2138
 3459SOL     hw13835   4.507   6.333   6.846  1.2964 -0.1401  1.2576
 3459SOL     vw13836   4.468   6.383   6.906  0.3927  0.1886  0.4337
 3460SOL     ow13837   3.997   0.214   0.834  0.4769 -0.3142  0.1420
 3460SOL     hw13838   3.939   0.138   0.842  0.9653 -0.5307  1.9893
 3460SOL     hw13839   3.941   0.289   0.854  0.1223 -0.2133 -1.1569
 3460SOL     vw13840   3.982   0.214   0.838  0.4946 -0.3295  0.2143
 3461SOL     ow13841   6.090   1.587   4.303 -0.5112 -0.0451 -0.1007
 3461SOL     hw13842   6.149   1.660   4.282 -1.1984  0.5122 -0.1299
 3461SOL     hw13843   6.039   1.574   4.224 -2.0026  1.0033  0.6276
 3461SOL     vw13844   6.091   1.595   4.290 -0.7987  0.1668 -0.0086
 3462SOL     ow13845   3.473   4.135   0.946  0.1119 -0.0198  0.3424
 3462SOL     hw13846   3.454   4.201   1.013  0.7778  0.4750  0.0517
 3462SOL     hw13847   3.398   4.076   0.950 -0.5672  0.8248  0.5144
 3462SOL     vw13848   3.460   4.136   0.955  0.1100  0.1571  0.3267
 3463SOL     ow13849   6.588   3.311   1.289 -0.0129 -0.6230 -0.0035
 3463SOL     hw13850   6.542   3.243   1.239 -3.1848  1.4945 -0.2718
 3463SOL     hw13851   6.584   3.281   1.379  0.4543 -1.7362 -0.3426
 3463SOL     vw13852   6.581   3.298   1.294 -0.3698 -0.4904 -0.0836
 3464SOL     ow13853   1.689   3.442   4.556  0.3637 -0.0523  0.2426
 3464SOL     hw13854   1.728   3.468   4.472 -1.4854 -2.0283 -1.3522
 3464SOL     hw13855   1.614   3.499   4.566  1.2768  1.0202  1.2483
 3464SOL     vw13856   1.684   3.453   4.546  0.2401 -0.1714  0.1650
 3465SOL     ow13857   4.061   2.469   1.011  0.5553 -0.2481 -0.0924
 3465SOL     hw13858   4.006   2.532   0.964  1.4178  0.2420 -0.4649
 3465SOL     hw13859   4.075   2.508   1.097 -1.8276 -1.5852  1.0196
 3465SOL     vw13860   4.056   2.482   1.016  0.3548 -0.3599  0.0052
 3466SOL     ow13861   5.680   3.304   4.339  0.2136 -0.2328 -0.1221
 3466SOL     hw13862   5.740   3.234   4.314  0.4342  0.1690 -0.7461
 3466SOL     hw13863   5.715   3.382   4.296 -0.5677  0.0730 -0.2238
 3466SOL     vw13864   5.692   3.305   4.330  0.1395 -0.1395 -0.2177
 3467SOL     ow13865   1.675   7.370   6.257  0.1669 -0.5521  0.0098
 3467SOL     hw13866   1.660   7.312   6.182  0.2000  0.9658 -1.2287
 3467SOL     hw13867   1.661   7.458   6.222 -0.0061  0.1966  1.8543
 3467SOL     vw13868   1.671   7.374   6.242  0.1484 -0.2532  0.0896
 3468SOL     ow13869   1.313   1.247   3.913 -0.2386  0.1590  0.3938
 3468SOL     hw13870   1.301   1.154   3.936  1.6348 -0.4149 -0.7260
 3468SOL     hw13871   1.244   1.264   3.849 -0.9447 -0.2963  1.0122
 3468SOL     vw13872   1.302   1.237   3.908 -0.0845  0.0232  0.3277
 3469SOL     ow13873   5.208   1.969   2.105 -0.0179  0.7416 -1.0428
 3469SOL     hw13874   5.251   2.053   2.090  0.9099  1.1284  2.8202
 3469SOL     hw13875   5.133   1.990   2.161  0.1418 -0.9268 -0.1386
 3469SOL     vw13876   5.203   1.983   2.110  0.1256  0.5726 -0.4139
 3470SOL     ow13877   4.960   2.493   4.662  0.3010  0.0852 -0.5082
 3470SOL     hw13878   4.887   2.455   4.614  0.6176  1.2396 -1.9437
 3470SOL     hw13879   5.038   2.468   4.612  0.5964  1.7502 -0.9467
 3470SOL     vw13880   4.961   2.485   4.649  0.3815  0.4572 -0.7553
 3471SOL     ow13881   6.679   3.823   2.187  0.5950 -0.4594  0.1576
 3471SOL     hw13882   6.676   3.774   2.105  1.1152  2.4510 -1.7686
 3471SOL     hw13883   6.770   3.854   2.192  0.1538  0.7759  0.9323
 3471SOL     vw13884   6.691   3.821   2.177  0.6053  0.0876  0.0057
 3472SOL     ow13885   5.962   6.406   4.849 -0.2810 -0.3769 -0.0310
 3472SOL     hw13886   5.962   6.375   4.758 -2.6981  0.1099 -0.2766
 3472SOL     hw13887   5.980   6.329   4.901 -2.4169 -1.4800 -0.8035
 3472SOL     vw13888   5.964   6.392   4.844 -0.8817 -0.4580 -0.1655
 3473SOL     ow13889   4.442   0.936   1.809  0.3638 -0.8832 -0.2077
 3473SOL     hw13890   4.371   0.998   1.793 -0.0021 -0.7102  1.7580
 3473SOL     hw13891   4.399   0.851   1.814  0.3544 -0.8435  0.4764
 3473SOL     vw13892   4.427   0.933   1.808  0.3145 -0.8552  0.1419
 3474SOL     ow13893   6.620   6.448   0.361 -0.0048 -0.2315 -0.6585
 3474SOL     hw13894   6.700   6.501   0.364 -0.4578  0.5577 -1.8800
 3474SOL     hw13895   6.570   6.483   0.287 -1.4594 -0.7646  0.0310
 3474SOL     vw13896   6.624   6.460   0.352 -0.2565 -0.1976 -0.7287
 3475SOL     ow13897   2.768   2.720   1.643 -0.1882  0.0681  0.7469
 3475SOL     hw13898   2.822   2.799   1.653  2.6587 -1.4206 -1.2163
 3475SOL     hw13899   2.708   2.741   1.571  0.2096  0.6272  0.5728
 3475SOL     vw13900   2.767   2.733   1.635  0.2397 -0.0547  0.4650
 3476SOL     ow13901   0.810   0.079   0.312  0.2194 -0.2244  0.7502
 3476SOL     hw13902   0.743   0.011   0.301 -1.3593  0.8686  2.8514
 3476SOL     hw13903   0.775   0.155   0.265 -0.1258  0.3748  1.9206
 3476SOL     vw13904   0.796   0.080   0.304 -0.0345 -0.0011  1.1819
 3477SOL     ow13905   4.337   0.690   1.754  0.2811  0.3709  0.1516
 3477SOL     hw13906   4.300   0.653   1.674  0.9242  0.7898 -0.3458
 3477SOL     hw13907   4.417   0.640   1.769  0.4931  0.7126  0.1755
 3477SOL     vw13908   4.342   0.679   1.746  0.3939  0.4712  0.0892
 3478SOL     ow13909   6.918   5.213   5.115  0.1546  0.5667  0.3772
 3478SOL     hw13910   6.887   5.295   5.153  0.1989  1.0117 -0.5159
 3478SOL     hw13911   6.902   5.148   5.183 -2.0335  0.9064  0.2741
 3478SOL     vw13912   6.912   5.215   5.129 -0.1283  0.6702  0.2456
 3479SOL     ow13913   5.997   5.566   1.051 -0.4819 -0.6872 -0.2727
 3479SOL     hw13914   5.951   5.619   1.117  0.3877 -1.9618  1.4271
 3479SOL     hw13915   5.972   5.476   1.071  1.6510 -1.3036 -0.1538
 3479SOL     vw13916   5.987   5.561   1.062 -0.0856 -0.9365 -0.0327
 3480SOL     ow13917   4.421   2.741   0.259 -0.3888 -0.0286 -0.2571
 3480SOL     hw13918   4.488   2.693   0.211 -0.2468  1.4855 -1.6292
 3480SOL     hw13919   4.354   2.675   0.279  0.2813 -1.0109 -1.1766
 3480SOL     vw13920   4.421   2.726   0.255 -0.2818  0.0416 -0.5595
 3481SOL     ow13921   6.208   0.357   5.980 -0.1772 -0.5655 -0.4881
 3481SOL     hw13922   6.267   0.323   6.047 -1.6618 -0.5805  0.8585
 3481SOL     hw13923   6.157   0.281   5.951  0.8109 -0.6735 -2.0693
 3481SOL     vw13924   6.209   0.342   5.985 -0.2427 -0.5817 -0.5193
 3482SOL     ow13925   6.659   5.495   7.216 -0.1201  0.0783  0.0700
 3482SOL     hw13926   6.622   5.515   7.130  0.2551  0.2473 -0.0514
 3482SOL     hw13927   6.748   5.465   7.198  0.3088  1.0749  0.4671
 3482SOL     vw13928   6.666   5.494   7.202 -0.0141  0.2327  0.1066
 3483SOL     ow13929   5.947   2.476   2.887  0.2314  0.2136  1.0987
 3483SOL     hw13930   5.919   2.568   2.892 -0.6078  0.1779 -1.4690
 3483SOL     hw13931   6.028   2.479   2.836 -0.4462 -0.5362 -0.0625
 3483SOL     vw13932   5.954   2.489   2.881  0.0312  0.1098  0.6068
 3484SOL     ow13933   2.547   4.841   5.695  0.3321 -0.0216 -0.3066
 3484SOL     hw13934   2.632   4.854   5.652  1.2235 -1.7314  0.8090
 3484SOL     hw13935   2.541   4.913   5.758  0.7343  0.3917 -0.7289
 3484SOL     vw13936   2.558   4.852   5.698  0.5027 -0.1929 -0.2151
 3485SOL     ow13937   2.739   6.858   3.742 -0.0960  0.6726  1.0766
 3485SOL     hw13938   2.802   6.815   3.798 -0.9092 -1.4431  0.4632
 3485SOL     hw13939   2.792   6.909   3.680  1.1447 -1.8435 -0.0739
 3485SOL     vw13940   2.754   6.859   3.741 -0.0396  0.0618  0.8439
 3486SOL     ow13941   5.028   1.186   6.023 -0.3365 -0.3431  0.3281
 3486SOL     hw13942   5.012   1.267   5.975 -0.0282 -1.4108 -1.6911
 3486SOL     hw13943   4.964   1.187   6.094 -0.3750  1.6169  0.3138
 3486SOL     vw13944   5.018   1.196   6.026 -0.3009 -0.2255  0.0598
 3487SOL     ow13945   2.485   0.982   6.559  0.3089  0.3313  0.2425
 3487SOL     hw13946   2.467   0.974   6.465 -0.1487 -1.0647  0.4243
 3487SOL     hw13947   2.484   0.892   6.591  0.4068  0.7955  1.6011
 3487SOL     vw13948   2.482   0.969   6.551  0.2614  0.2084  0.4458
 3488SOL     ow13949   0.312   4.446   4.094  0.3618 -0.0581 -0.6589
 3488SOL     hw13950   0.245   4.506   4.128  1.3887  1.6242 -1.4843
 3488SOL     hw13951   0.263   4.384   4.039 -0.4728  1.8073 -2.1547
 3488SOL     vw13952   0.297   4.446   4.091  0.3872  0.4098 -0.9651
 3489SOL     ow13953   3.175   0.639   3.262 -0.4372 -0.4489 -0.5545
 3489SOL     hw13954   3.103   0.699   3.285 -0.7226 -0.3477 -1.6639
 3489SOL     hw13955   3.248   0.697   3.241 -0.0441 -0.5511  0.4873
 3489SOL     vw13956   3.175   0.655   3.263 -0.4231 -0.4490 -0.5634
 3490SOL     ow13957   0.037   6.381   0.530  0.6222  0.2435 -0.2030
 3490SOL     hw13958  -0.048   6.391   0.488  0.4223  1.5009  0.4553
 3490SOL     hw13959   0.092   6.449   0.491  0.3797  1.5654  1.6341
 3490SOL     vw13960   0.033   6.391   0.519  0.5638  0.5839  0.1263
 3491SOL     ow13961   2.441   0.324   7.511 -0.5016 -0.0686  0.0289
 3491SOL     hw13962   2.485   0.278   7.439  2.4848  0.9874  1.0192
 3491SOL     hw13963   2.363   0.272   7.528  0.2693 -2.0644 -1.9867
 3491SOL     vw13964   2.437   0.311   7.504 -0.0057 -0.1926 -0.1066
 3492SOL     ow13965   0.152   5.801   7.335  0.0323 -0.3644 -0.3718
 3492SOL     hw13966   0.057   5.800   7.349  0.2422 -1.6443  1.2656
 3492SOL     hw13967   0.182   5.715   7.365  1.8790  0.5295  0.5458
 3492SOL     vw13968   0.143   5.790   7.341  0.3036 -0.4156 -0.0348
 3493SOL     ow13969   4.661   2.742   3.321 -0.1443  0.6136 -0.1423
 3493SOL     hw13970   4.654   2.659   3.368  0.1811  1.0064  0.6120
 3493SOL     hw13971   4.579   2.788   3.340 -0.4003  0.3974 -0.7026
 3493SOL     vw13972   4.649   2.737   3.330 -0.1352  0.6368 -0.1167
 3494SOL     ow13973   4.778   3.078   2.448  0.1026  0.4506  0.2381
 3494SOL     hw13974   4.851   3.058   2.506 -0.0030  0.2838  0.3157
 3494SOL     hw13975   4.702   3.040   2.491 -0.0268  0.6099  0.1491
 3494SOL     vw13976   4.778   3.070   2.461  0.0715  0.4494  0.2366
 3495SOL     ow13977   3.637   3.866   7.243 -0.8032 -0.3978 -0.3693
 3495SOL     hw13978   3.665   3.904   7.159  1.5849 -2.5452 -0.6596
 3495SOL     hw13979   3.544   3.888   7.249 -0.7181  1.0953 -2.8466
 3495SOL     vw13980   3.628   3.874   7.232 -0.4770 -0.4840 -0.7343
 3496SOL     ow13981   4.877   6.060   1.219  0.1243  0.2266  0.4436
 3496SOL     hw13982   4.800   6.104   1.184 -0.0638 -0.0544  0.5079
 3496SOL     hw13983   4.939   6.132   1.237 -0.3690  0.5132  1.0205
 3496SOL     vw13984   4.875   6.075   1.217  0.0343  0.2275  0.5282
 3497SOL     ow13985   5.005   0.692   7.156 -0.5177  0.2178 -0.7074
 3497SOL     hw13986   4.930   0.663   7.103 -0.5225 -0.6763 -0.2290
 3497SOL     hw13987   4.968   0.709   7.242 -0.2719  0.3530 -0.6277
 3497SOL     vw13988   4.990   0.690   7.160 -0.4857  0.1177 -0.6337
 3498SOL     ow13989   5.827   4.451   5.813 -0.5432 -0.3381 -0.0321
 3498SOL     hw13990   5.809   4.540   5.782  2.2266 -0.2995 -1.8901
 3498SOL     hw13991   5.896   4.462   5.878 -0.9144 -1.0888  0.5039
 3498SOL     vw13992   5.833   4.465   5.818 -0.2265 -0.4320 -0.2065
 3499SOL     ow13993   3.273   4.766   2.256  0.1101 -0.2195 -0.1066
 3499SOL     hw13994   3.365   4.792   2.262  0.2088 -0.1859 -1.4709
 3499SOL     hw13995   3.240   4.774   2.345  1.8988 -2.0226  0.8025
 3499SOL     vw13996   3.281   4.770   2.268  0.3592 -0.4528 -0.1667
 3500SOL     ow13997   5.050   1.452   5.939 -0.1232 -0.1147  0.1746
 3500SOL     hw13998   5.117   1.467   6.006 -0.3869  0.9916  0.2103
 3500SOL     hw13999   4.980   1.514   5.960 -0.5959 -0.3625 -0.6118
 3500SOL     vw14000   5.050   1.462   5.951 -0.2205 -0.0014  0.0753
 3501SOL     ow14001   6.226   5.990   2.143 -0.2551 -0.4287 -0.0629
 3501SOL     hw14002   6.145   6.004   2.191 -0.4180 -0.8386 -0.2091
 3501SOL     hw14003   6.200   5.986   2.051  0.1704  1.2234 -0.2764
 3501SOL     vw14004   6.212   5.991   2.137 -0.2208 -0.2649 -0.1104
 3502SOL     ow14005   7.074   7.088   3.394  0.1795 -0.1036 -0.6100
 3502SOL     hw14006   7.027   7.171   3.394  1.3226  0.5727 -1.8789
 3502SOL     hw14007   7.166   7.112   3.398  0.5584 -1.2824 -1.5899
 3502SOL     vw14008   7.080   7.102   3.394  0.3805 -0.1700 -0.9067
 3503SOL     ow14009   1.908   2.633   3.881  0.7454 -0.1769 -0.4752
 3503SOL     hw14010   1.838   2.581   3.842 -0.3573  0.5372  0.4938
 3503SOL     hw14011   1.895   2.624   3.975  0.5725  1.7322 -0.2735
 3503SOL     vw14012   1.897   2.625   3.888  0.5770  0.1692 -0.3208
 3504SOL     ow14013   1.763   3.117   1.430  0.6241 -0.2751  0.1557
 3504SOL     hw14014   1.838   3.172   1.407  0.1818  0.6618  0.8840
 3504SOL     hw14015   1.761   3.118   1.526 -0.0786 -0.6224  0.1527
 3504SOL     vw14016   1.773   3.124   1.440  0.4730 -0.1973  0.2514
 3505SOL     ow14017   1.342   3.962   5.577 -0.6086 -0.1774  0.0406
 3505SOL     hw14018   1.287   3.990   5.650 -2.6079 -0.7670 -1.1734
 3505SOL     hw14019   1.281   3.943   5.506  1.0780 -1.9306 -1.0454
 3505SOL     vw14020   1.327   3.963   5.577 -0.6499 -0.4866 -0.2627
 3506SOL     ow14021   4.858   3.947   5.324 -0.9003  0.0305  0.2514
 3506SOL     hw14022   4.880   3.996   5.245 -0.9292  0.1237  0.3009
 3506SOL     hw14023   4.942   3.917   5.359 -0.9855 -1.3467 -0.6691
 3506SOL     vw14024   4.872   3.949   5.318 -0.9155 -0.1389  0.1364
 3507SOL     ow14025   0.981   2.225   3.093  0.1323 -0.1524  0.1262
 3507SOL     hw14026   0.976   2.173   3.173 -2.0573  0.4777  0.4651
 3507SOL     hw14027   0.930   2.175   3.029  0.9591 -0.1172 -0.5752
 3507SOL     vw14028   0.973   2.211   3.095 -0.0475 -0.0646  0.0784
 3508SOL     ow14029   0.809   2.190   1.567 -0.4737 -0.1827  0.3235
 3508SOL     hw14030   0.893   2.147   1.557 -1.0409 -1.2919  0.2090
 3508SOL     hw14031   0.745   2.125   1.540 -1.3530  0.7721  0.0401
 3508SOL     vw14032   0.812   2.176   1.562 -0.6646 -0.2030  0.2711
 3509SOL     ow14033   1.956   3.288   5.116  0.3285 -0.3000  0.1697
 3509SOL     hw14034   1.904   3.330   5.048 -1.0266 -1.4762  0.4374
 3509SOL     hw14035   1.916   3.317   5.198  0.2694 -0.9858  0.3884
 3509SOL     vw14036   1.944   3.297   5.118  0.1419 -0.5456  0.2339
 3510SOL     ow14037   7.082   7.175   4.727  0.5283  0.2676  1.0735
 3510SOL     hw14038   7.054   7.083   4.719  1.1296  0.2329 -1.2938
 3510SOL     hw14039   7.132   7.177   4.809  0.3041 -1.4567  1.3054
 3510SOL     vw14040   7.085   7.163   4.737  0.5782  0.0353  0.7918
 3511SOL     ow14041   5.486   4.956   3.958 -0.0139 -0.6004 -0.3072
 3511SOL     hw14042   5.450   4.965   3.870 -0.2830 -1.5157 -0.3054
 3511SOL     hw14043   5.440   4.880   3.994  0.3662 -0.4579  0.4861
 3511SOL     vw14044   5.475   4.947   3.951  0.0007 -0.7026 -0.2023
 3512SOL     ow14045   1.694   2.419   2.233  0.0547 -0.0905 -0.1698
 3512SOL     hw14046   1.761   2.350   2.225 -0.6732 -1.0098  1.3277
 3512SOL     hw14047   1.647   2.398   2.313 -0.4901  1.9297  0.0973
 3512SOL     vw14048   1.697   2.407   2.242 -0.1131  0.0547  0.0631
 3513SOL     ow14049   7.062   7.180   7.362  0.4917 -0.5617 -0.8645
 3513SOL     hw14050   7.068   7.185   7.267  1.6037 -1.0168 -0.8283
 3513SOL     hw14051   7.146   7.213   7.394 -0.5411  1.3515  0.0444
 3513SOL     vw14052   7.074   7.185   7.354  0.5021 -0.3693 -0.7398
 3514SOL     ow14053   3.099   5.248   3.823  0.6795 -0.0939 -0.2315
 3514SOL     hw14054   3.040   5.264   3.750  1.2685 -0.2120 -0.7378
 3514SOL     hw14055   3.116   5.154   3.819  0.5477 -0.1385  0.1929
 3514SOL     vw14056   3.093   5.237   3.813  0.7398 -0.1154 -0.2425
 3515SOL     ow14057   0.070   1.738   7.115 -0.5278 -0.2558 -0.6456
 3515SOL     hw14058   0.118   1.820   7.103 -0.3074 -0.3172 -0.2121
 3515SOL     hw14059  -0.020   1.765   7.131 -0.5788 -0.1265 -1.1166
 3515SOL     vw14060   0.065   1.752   7.115 -0.5054 -0.2469 -0.6504
 3516SOL     ow14061   5.528   4.462   5.346 -0.2313  0.6047  0.2398
 3516SOL     hw14062   5.510   4.556   5.357  3.4530  2.0435 -3.4043
 3516SOL     hw14063   5.494   4.441   5.260  0.6780 -0.8959  0.2118
 3516SOL     vw14064   5.521   4.472   5.336  0.3748  0.5963 -0.2446
 3517SOL     ow14065   0.755   0.136   2.541  0.0999  0.1348 -0.3441
 3517SOL     hw14066   0.819   0.137   2.612 -1.9898 -1.7672  1.7738
 3517SOL     hw14067   0.778   0.059   2.489 -0.4950 -0.6471  0.5144
 3517SOL     vw14068   0.766   0.126   2.544 -0.2543 -0.2193  0.0486
 3518SOL     ow14069   1.095   0.199   3.031 -0.3475 -0.6045  0.3059
 3518SOL     hw14070   1.011   0.154   3.025 -0.3604 -0.5730  0.2557
 3518SOL     hw14071   1.133   0.166   3.113  0.2942 -1.8383 -0.4477
 3518SOL     vw14072   1.089   0.189   3.041 -0.2645 -0.7631  0.1999
 3519SOL     ow14073   5.184   1.379   2.422 -0.5031  0.6284  0.1916
 3519SOL     hw14074   5.121   1.417   2.360 -1.1568  0.8894  0.9899
 3519SOL     hw14075   5.138   1.304   2.460 -0.4068  0.9121  0.8941
 3519SOL     vw14076   5.170   1.374   2.419 -0.5767  0.7002  0.3898
 3520SOL     ow14077   3.496   4.310   2.150  0.3738  0.4997  0.3052
 3520SOL     hw14078   3.587   4.312   2.120  0.2043  0.7607 -0.2030
 3520SOL     hw14079   3.493   4.236   2.210  0.1062 -1.9144 -2.4194
 3520SOL     vw14080   3.508   4.300   2.154  0.3161  0.2155 -0.1215
 3521SOL     ow14081   7.017   6.198   6.061 -0.0484 -0.6573  0.3369
 3521SOL     hw14082   6.973   6.255   5.998  0.1320 -2.4741 -1.5560
 3521SOL     hw14083   7.110   6.213   6.045  0.1495  1.8819  3.1184
 3521SOL     vw14084   7.023   6.208   6.050  0.0017 -0.5620  0.4539
 3522SOL     ow14085   0.669   6.933   0.196  0.5262 -1.0080  0.0749
 3522SOL     hw14086   0.630   6.846   0.202 -0.8411 -0.3534  1.5739
 3522SOL     hw14087   0.712   6.946   0.280 -1.0165  0.4971  0.6863
 3522SOL     vw14088   0.669   6.923   0.208  0.1423 -0.7234  0.3533
 3523SOL     ow14089   4.426   7.293   7.419 -0.1781 -0.4812 -0.1721
 3523SOL     hw14090   4.516   7.277   7.449  0.4123 -0.2947 -1.7490
 3523SOL     hw14091   4.398   7.370   7.467  0.6243 -0.3514  0.1011
 3523SOL     vw14092   4.435   7.301   7.430  0.0055 -0.4392 -0.3440
 3524SOL     ow14093   5.282   3.460   3.970 -0.0291  0.1802 -0.6151
 3524SOL     hw14094   5.190   3.468   3.944 -0.0656  0.6227 -0.3680
 3524SOL     hw14095   5.331   3.494   3.896  0.1057 -2.9841 -2.0946
 3524SOL     vw14096   5.276   3.466   3.957 -0.0162 -0.1789 -0.7777
 3525SOL     ow14097   4.158   0.079   0.639  0.0704  0.1656  0.0899
 3525SOL     hw14098   4.111   0.159   0.618 -0.5665 -0.5512 -1.3411
 3525SOL     hw14099   4.110   0.042   0.713  0.7757  1.4007  1.2200
 3525SOL     vw14100   4.146   0.084   0.646  0.0794  0.2340  0.0502
 3526SOL     ow14101   0.941   3.257   4.646  0.2224  0.3712  0.6782
 3526SOL     hw14102   1.003   3.217   4.707 -0.8286 -1.0723  0.8542
 3526SOL     hw14103   0.994   3.284   4.572  1.1093 -0.6975  0.8949
 3526SOL     vw14104   0.956   3.255   4.645  0.2007  0.0398  0.7303
 3527SOL     ow14105   1.919   6.393   7.193 -0.0238  0.0410  1.0680
 3527SOL     hw14106   1.845   6.355   7.147  0.6547 -0.4049  0.3332
 3527SOL     hw14107   1.882   6.423   7.276 -1.2414  0.7539  0.3019
 3527SOL     vw14108   1.904   6.392   7.198 -0.0950  0.0765  0.8700
 3528SOL     ow14109   2.767   4.698   2.572 -0.0749  0.1013 -0.4692
 3528SOL     hw14110   2.691   4.756   2.568  1.5347  2.2746 -1.3832
 3528SOL     hw14111   2.763   4.660   2.660 -1.2662  1.4874  0.1096
 3528SOL     vw14112   2.757   4.700   2.583 -0.0197  0.5708 -0.5133
 3529SOL     ow14113   3.481   3.752   3.079 -0.0542  0.3477  0.1668
 3529SOL     hw14114   3.441   3.753   3.166  1.2824  0.6216  0.8147
 3529SOL     hw14115   3.468   3.663   3.047  4.2940 -1.7598  3.1005
 3529SOL     vw14116   3.474   3.741   3.087  0.6958  0.1059  0.6394
 3530SOL     ow14117   2.332   6.175   3.232 -0.8858 -0.6909  0.1899
 3530SOL     hw14118   2.394   6.187   3.303  0.2254  1.4938 -1.0430
 3530SOL     hw14119   2.355   6.090   3.194 -0.1026 -0.9021  1.1137
 3530SOL     vw14120   2.343   6.165   3.236 -0.6359 -0.4306  0.1491
 3531SOL     ow14121   4.148   1.178   3.326  0.4938  0.1014  0.0070
 3531SOL     hw14122   4.188   1.095   3.300  0.4457 -0.0520  0.4017
 3531SOL     hw14123   4.160   1.180   3.421  0.5952  0.6009 -0.0161
 3531SOL     vw14124   4.155   1.167   3.335  0.5007  0.1471  0.0559
 3532SOL     ow14125   0.769   0.895   1.688  0.0272 -0.4780 -0.0422
 3532SOL     hw14126   0.850   0.865   1.729  2.0064  1.5131 -2.1858
 3532SOL     hw14127   0.782   0.989   1.675 -2.2159 -0.2731 -1.3451
 3532SOL     vw14128   0.781   0.904   1.692 -0.0076 -0.1883 -0.4970
 3533SOL     ow14129   5.378   4.577   2.246  0.6033 -0.4373 -0.4875
 3533SOL     hw14130   5.332   4.641   2.301  1.4505 -0.3630  0.1521
 3533SOL     hw14131   5.375   4.496   2.297 -0.5208 -0.9391 -1.3246
 3533SOL     vw14132   5.371   4.575   2.260  0.5670 -0.4938 -0.5137
 3534SOL     ow14133   5.966   1.309   2.607  0.6604  0.0315  0.2311
 3534SOL     hw14134   6.012   1.225   2.614  0.0779 -0.3490 -0.3523
 3534SOL     hw14135   5.879   1.291   2.644 -0.4521 -0.4230 -2.3868
 3534SOL     vw14136   5.961   1.296   2.613  0.4370 -0.0786 -0.1913
 3535SOL     ow14137   3.110   0.784   2.258 -0.4775 -0.1014 -0.3809
 3535SOL     hw14138   3.079   0.873   2.242  1.0445  0.1505 -2.4762
 3535SOL     hw14139   3.075   0.760   2.344 -2.5988  1.7348 -0.6548
 3535SOL     vw14140   3.101   0.792   2.267 -0.5566  0.1741 -0.6936
 3536SOL     ow14141   0.064   5.783   3.595  0.1369  0.1060  0.6151
 3536SOL     hw14142  -0.007   5.840   3.567 -0.1280 -0.6958 -0.3934
 3536SOL     hw14143   0.138   5.808   3.540 -0.4782 -1.6966 -1.1553
 3536SOL     vw14144   0.064   5.794   3.584  0.0210 -0.2377  0.2486
 3537SOL     ow14145   0.844   4.000   4.890 -0.5258  0.0017 -0.7384
 3537SOL     hw14146   0.821   4.092   4.889  0.8678  0.3668 -0.6544
 3537SOL     hw14147   0.936   3.998   4.918 -0.4995 -1.3947 -0.8491
 3537SOL     vw14148   0.853   4.012   4.894 -0.3385 -0.1345 -0.7420
 3538SOL     ow14149   5.449   2.711   2.951  0.1110 -0.7636 -0.6647
 3538SOL     hw14150   5.470   2.620   2.928  0.1638 -0.5264 -1.5847
 3538SOL     hw14151   5.361   2.706   2.988 -0.0843 -1.1199 -1.1729
 3538SOL     vw14152   5.440   2.698   2.953  0.0923 -0.7794 -0.8529
 3539SOL     ow14153   1.896   2.238   3.953  0.0111 -0.1529 -0.4028
 3539SOL     hw14154   1.975   2.291   3.968  1.3902 -1.7617 -1.5120
 3539SOL     hw14155   1.831   2.273   4.014  1.8646  0.6582  1.2154
 3539SOL     vw14156   1.898   2.249   3.963  0.4376 -0.2582 -0.3356
 3540SOL     ow14157   3.909   3.568   7.002  0.2326  0.1137 -0.7543
 3540SOL     hw14158   3.924   3.653   7.043 -0.7892  0.2685 -0.6899
 3540SOL     hw14159   3.847   3.585   6.931 -0.8415 -0.7401 -0.0563
 3540SOL     vw14160   3.903   3.581   6.998 -0.0440  0.0216 -0.6540
 3541SOL     ow14161   1.845   7.298   2.412 -0.5642 -0.3436 -0.1850
 3541SOL     hw14162   1.885   7.229   2.359 -1.6382  0.4178 -2.0934
 3541SOL     hw14163   1.919   7.350   2.443  0.1096 -0.8947 -0.8345
 3541SOL     vw14164   1.860   7.296   2.409 -0.6170 -0.3159 -0.5225
 3542SOL     ow14165   1.117   4.420   0.656  0.4548 -0.3907  0.1436
 3542SOL     hw14166   1.182   4.360   0.621 -0.0725 -0.8631 -0.0384
 3542SOL     hw14167   1.112   4.398   0.749 -0.5757 -1.4423 -0.1352
 3542SOL     vw14168   1.125   4.409   0.664  0.2493 -0.5915  0.0828
 3543SOL     ow14169   1.489   5.174   1.763 -0.2425 -0.4542  0.2358
 3543SOL     hw14170   1.541   5.252   1.744  0.7088 -1.0030  0.5189
 3543SOL     hw14171   1.499   5.161   1.857 -1.5473 -0.1262  0.4405
 3543SOL     vw14172   1.497   5.182   1.773 -0.2891 -0.4833  0.3002
 3544SOL     ow14173   6.104   7.308   0.418  0.5528  0.3225  0.3041
 3544SOL     hw14174   6.172   7.249   0.451  1.2041  1.5725  1.2627
 3544SOL     hw14175   6.024   7.280   0.464  0.9591  0.4879  1.1303
 3544SOL     vw14176   6.102   7.296   0.429  0.6926  0.5093  0.5396
 3545SOL     ow14177   6.358   1.407   3.979  0.2246 -0.0233  0.0377
 3545SOL     hw14178   6.362   1.410   4.074 -0.2900  0.4952  0.0448
 3545SOL     hw14179   6.366   1.314   3.957  1.0105 -0.0838  0.5486
 3545SOL     vw14180   6.360   1.395   3.988  0.2606  0.0371  0.1061
 3546SOL     ow14181   6.885   1.006   2.133  0.3954  0.6136  0.2415
 3546SOL     hw14182   6.950   1.022   2.202  1.7419  1.0746 -1.0768
 3546SOL     hw14183   6.937   1.000   2.053 -0.9872 -1.2340 -0.5864
 3546SOL     vw14184   6.901   1.007   2.132  0.3905  0.4306 -0.0417
 3547SOL     ow14185   7.269   3.535   1.570  0.8900  0.0376 -1.0996
 3547SOL     hw14186   7.187   3.580   1.552  0.1642 -0.4717  0.6636
 3547SOL     hw14187   7.336   3.588   1.528 -0.4178 -0.2637 -3.7542
 3547SOL     vw14188   7.267   3.548   1.562  0.6216 -0.0693 -1.2172
 3548SOL     ow14189   2.523   2.871   3.372 -0.1862  0.0417 -0.1601
 3548SOL     hw14190   2.507   2.818   3.450 -0.6231 -0.9201 -0.8896
 3548SOL     hw14191   2.484   2.821   3.300  2.4494 -0.4091 -1.4036
 3548SOL     vw14192   2.516   2.857   3.373  0.1038 -0.1446 -0.4206
 3549SOL     ow14193   2.398   3.272   5.637  0.1882 -0.6578  0.5540
 3549SOL     hw14194   2.398   3.368   5.638 -0.8468 -0.6474  1.6994
 3549SOL     hw14195   2.475   3.249   5.584 -1.3492  0.8031 -2.5820
 3549SOL     vw14196   2.408   3.282   5.630 -0.1512 -0.4636  0.2916
 3550SOL     ow14197   6.916   6.873   1.201  0.2869 -0.8074 -0.0910
 3550SOL     hw14198   6.929   6.951   1.255 -0.8862  0.0134 -0.9445
 3550SOL     hw14199   6.833   6.889   1.155  0.7748 -1.8940 -1.4161
 3550SOL     vw14200   6.907   6.885   1.202  0.1965 -0.8426 -0.3784
 3551SOL     ow14201   6.915   7.463   3.104  0.0756 -0.0467  0.3706
 3551SOL     hw14202   6.905   7.516   3.183 -0.3760  0.1974  0.1534
 3551SOL     hw14203   6.835   7.479   3.054 -0.0737 -0.9558  0.3149
 3551SOL     vw14204   6.904   7.472   3.107 -0.0036 -0.1342  0.3346
 3552SOL     ow14205   2.145   2.379   3.888  0.1595 -0.6916 -0.2387
 3552SOL     hw14206   2.104   2.458   3.854  0.6918 -0.2560  0.1148
 3552SOL     hw14207   2.162   2.398   3.980 -0.1162 -1.3868 -0.0357
 3552SOL     vw14208   2.142   2.392   3.895  0.1935 -0.7260 -0.1652
 3553SOL     ow14209   5.674   1.763   0.972 -0.4884  0.2281 -0.1303
 3553SOL     hw14210   5.755   1.765   1.023  0.6952 -0.1771 -1.9120
 3553SOL     hw14211   5.613   1.819   1.021  0.0448 -1.2960  2.5098
 3553SOL     vw14212   5.676   1.771   0.985 -0.2620 -0.0265 -0.0170
 3554SOL     ow14213   7.378   6.710   0.386  0.2519 -0.6025  0.0953
 3554SOL     hw14214   7.349   6.682   0.472 -3.4055 -1.1522 -1.1326
 3554SOL     hw14215   7.364   6.634   0.330  1.6881  0.0244 -1.1930
 3554SOL     vw14216   7.373   6.697   0.390 -0.0410 -0.5922 -0.2367
 3555SOL     ow14217   2.821   3.159   0.232  0.1009  0.1743  0.1515
 3555SOL     hw14218   2.888   3.223   0.253  0.0498  0.4782 -0.6064
 3555SOL     hw14219   2.750   3.178   0.293  0.2183  0.6283  0.1495
 3555SOL     vw14220   2.820   3.170   0.243  0.1097  0.2743  0.0512
 3556SOL     ow14221   0.636   0.682   4.967 -0.6103 -0.2730 -0.3626
 3556SOL     hw14222   0.686   0.695   5.047 -2.1460  0.2129  0.5660
 3556SOL     hw14223   0.701   0.680   4.897  0.9768 -2.6296  1.0410
 3556SOL     vw14224   0.651   0.683   4.968 -0.6036 -0.5198 -0.0548
 3557SOL     ow14225   1.987   2.420   3.362  0.3238  0.4696  0.4680
 3557SOL     hw14226   2.071   2.466   3.351 -0.3158  1.4114 -0.6792
 3557SOL     hw14227   1.928   2.464   3.301 -1.3325  0.6080  2.1017
 3557SOL     vw14228   1.990   2.432   3.353  0.0208  0.6121  0.5323
 3558SOL     ow14229   4.953   3.014   0.384  0.1987  0.1860 -0.3568
 3558SOL     hw14230   4.995   3.100   0.390  0.4595 -0.0411  3.1484
 3558SOL     hw14231   4.861   3.034   0.368  0.7625  0.8662 -3.3744
 3558SOL     vw14232   4.947   3.028   0.383  0.3076  0.2459 -0.2925
 3559SOL     ow14233   5.580   2.217   6.763 -0.3467 -0.1295  0.2584
 3559SOL     hw14234   5.516   2.286   6.778 -1.4965 -0.8173 -1.1911
 3559SOL     hw14235   5.572   2.160   6.839 -0.2443  0.6643  0.8815
 3559SOL     vw14236   5.571   2.219   6.775 -0.4849 -0.1154  0.1493
 3560SOL     ow14237   1.578   1.826   7.236  0.6252  0.1465 -0.4636
 3560SOL     hw14238   1.544   1.811   7.148  1.5881 -3.5499 -0.3806
 3560SOL     hw14239   1.661   1.872   7.223  0.9262 -0.6739 -1.5184
 3560SOL     vw14240   1.584   1.830   7.223  0.7920 -0.4495 -0.5918
 3561SOL     ow14241   2.987   7.489   3.130 -0.4709  0.5050 -0.3996
 3561SOL     hw14242   3.008   7.546   3.056 -1.2432  1.0815 -0.1904
 3561SOL     hw14243   2.986   7.547   3.206 -3.2815  0.6712 -0.4611
 3561SOL     vw14244   2.990   7.504   3.130 -0.9437  0.6030 -0.3802
 3562SOL     ow14245   1.243   7.276   5.262  0.8611  0.0696  0.1522
 3562SOL     hw14246   1.149   7.282   5.249  0.8248 -0.0556  0.3402
 3562SOL     hw14247   1.254   7.271   5.357  1.0664  0.2297  0.1380
 3562SOL     vw14248   1.232   7.276   5.273  0.8834  0.0746  0.1752
 3563SOL     ow14249   5.832   7.423   7.000 -0.0383 -0.5372 -0.0786
 3563SOL     hw14250   5.831   7.328   6.995 -1.3176 -0.5184 -0.6063
 3563SOL     hw14251   5.745   7.446   7.034 -1.0294  0.5474 -2.9954
 3563SOL     vw14252   5.820   7.414   7.004 -0.3378 -0.3920 -0.5331
 3564SOL     ow14253   1.582   1.322   5.547  0.2462 -0.3927  0.4692
 3564SOL     hw14254   1.654   1.386   5.549 -0.9235  1.0083 -0.1658
 3564SOL     hw14255   1.556   1.319   5.455 -0.3429 -1.0683  0.6555
 3564SOL     vw14256   1.588   1.330   5.535  0.0141 -0.2970  0.4098
 3565SOL     ow14257   3.271   7.439   6.239  0.2266  0.1920 -0.4954
 3565SOL     hw14258   3.284   7.452   6.333 -0.7633  1.7365 -0.5401
 3565SOL     hw14259   3.178   7.455   6.225  0.0028 -1.7303 -1.5063
 3565SOL     vw14260   3.260   7.443   6.249  0.0664  0.1421 -0.6349
 3566SOL     ow14261   0.369   2.643   2.364 -0.4578 -0.0814 -0.2347
 3566SOL     hw14262   0.346   2.724   2.319  1.1786  0.7942  0.4136
 3566SOL     hw14263   0.362   2.576   2.296  0.5407  0.9834 -1.4541
 3566SOL     vw14264   0.365   2.645   2.349 -0.1102  0.1745 -0.3098
 3567SOL     ow14265   1.905   2.301   3.070  0.0246 -0.0034  0.0222
 3567SOL     hw14266   1.821   2.343   3.089  0.0030  1.1481 -2.2464
 3567SOL     hw14267   1.971   2.366   3.097  0.1773 -0.4735  0.8203
 3567SOL     vw14268   1.903   2.315   3.076  0.0418  0.0864 -0.1718
 3568SOL     ow14269   3.836   5.641   5.600  0.0936 -0.3412  0.2709
 3568SOL     hw14270   3.770   5.605   5.661  0.8361 -1.2144  0.5876
 3568SOL     hw14271   3.821   5.593   5.519 -2.1609  2.1490 -0.9369
 3568SOL     vw14272   3.825   5.630   5.598 -0.1059 -0.1278  0.1533
 3569SOL     ow14273   6.508   0.824   1.876 -0.4956 -0.4357  0.0341
 3569SOL     hw14274   6.483   0.837   1.785 -0.8657  0.3548  0.2403
 3569SOL     hw14275   6.577   0.888   1.891 -0.7497 -0.2514  0.4332
 3569SOL     vw14276   6.514   0.834   1.866 -0.5779 -0.3071  0.1139
 3570SOL     ow14277   0.541   5.671   1.996  0.2991  0.8215  0.0117
 3570SOL     hw14278   0.521   5.759   2.028  1.0723  0.9660  0.1231
 3570SOL     hw14279   0.469   5.649   1.938  0.5971  1.9339 -0.7942
 3570SOL     vw14280   0.529   5.679   1.993  0.4405  0.9871 -0.0800
 3571SOL     ow14281   2.027   2.150   0.676 -0.1228  0.1375 -0.6794
 3571SOL     hw14282   1.999   2.083   0.613 -2.6551  1.0401 -0.6157
 3571SOL     hw14283   2.039   2.229   0.624  0.6114  0.2011 -0.4219
 3571SOL     vw14284   2.025   2.151   0.661 -0.3599  0.2650 -0.6370
 3572SOL     ow14285   3.462   2.173   6.187 -0.4841  0.3295  0.4157
 3572SOL     hw14286   3.545   2.220   6.184  0.8245 -1.3291  4.2624
 3572SOL     hw14287   3.404   2.230   6.236 -0.3955 -0.0475  0.9674
 3572SOL     vw14288   3.466   2.186   6.193 -0.2998  0.0609  0.9959
 3573SOL     ow14289   6.585   4.874   2.474 -0.1788  0.4672 -0.3990
 3573SOL     hw14290   6.587   4.947   2.537 -2.0798  1.2062 -1.1179
 3573SOL     hw14291   6.641   4.807   2.513  1.1231  2.0643  0.5932
 3573SOL     vw14292   6.593   4.875   2.487 -0.2580  0.7756 -0.3630
 3574SOL     ow14293   1.609   5.030   0.271 -0.1765 -0.0660  0.1639
 3574SOL     hw14294   1.696   5.007   0.302  0.2714  1.9696  0.5967
 3574SOL     hw14295   1.554   5.026   0.349 -0.6439 -1.9475 -0.2235
 3574SOL     vw14296   1.613   5.026   0.286 -0.1791 -0.0460  0.1699
 3575SOL     ow14297   4.676   4.472   1.634  0.5480  0.6165 -0.5103
 3575SOL     hw14298   4.669   4.567   1.645 -1.0945  0.4445  0.1999
 3575SOL     hw14299   4.613   4.436   1.696  1.6185 -0.9795 -0.3078
 3575SOL     vw14300   4.667   4.480   1.643  0.4725  0.3831 -0.3899
 3576SOL     ow14301   1.724   4.898   6.982  0.4338 -0.7074 -0.1483
 3576SOL     hw14302   1.691   4.816   6.946  0.5647 -0.5033 -0.7308
 3576SOL     hw14303   1.808   4.875   7.021 -0.3502 -1.2301  1.3354
 3576SOL     vw14304   1.731   4.884   6.983  0.3476 -0.7493 -0.0291
 3577SOL     ow14305   6.019   4.956   2.149  0.0783 -0.2387 -0.7923
 3577SOL     hw14306   6.005   4.864   2.129  1.0752 -0.3762 -0.9019
 3577SOL     hw14307   6.033   4.998   2.064  0.5095 -0.1517 -0.6828
 3577SOL     vw14308   6.019   4.950   2.135  0.2670 -0.2453 -0.7923
 3578SOL     ow14309   4.019   3.531   3.276  0.4734  0.3676 -0.3587
 3578SOL     hw14310   3.947   3.511   3.337  2.0711 -0.5128  1.3340
 3578SOL     hw14311   4.003   3.622   3.249 -1.3704  0.1290 -0.2067
 3578SOL     vw14312   4.007   3.540   3.280  0.4411  0.2199 -0.1153
 3579SOL     ow14313   4.064   5.355   2.952  0.4111  0.4179 -0.0769
 3579SOL     hw14314   4.104   5.441   2.935 -0.1070  1.0124  1.5704
 3579SOL     hw14315   4.031   5.327   2.866  1.5938  1.3280 -0.8659
 3579SOL     vw14316   4.065   5.363   2.938  0.4988  0.6163  0.0364
 3580SOL     ow14317   3.627   7.065   4.584  0.0441 -0.8361 -0.5279
 3580SOL     hw14318   3.613   7.033   4.673 -0.2004 -0.1817 -0.3272
 3580SOL     hw14319   3.714   7.032   4.561  0.9075  0.4978  0.6416
 3580SOL     vw14320   3.637   7.056   4.593  0.1256 -0.5736 -0.3471
 3581SOL     ow14321   7.182   3.219   5.090 -0.3600 -0.3031 -0.9053
 3581SOL     hw14322   7.251   3.256   5.036 -2.2782  1.8359 -2.0824
 3581SOL     hw14323   7.205   3.243   5.179  0.2504  0.6501 -1.3054
 3581SOL     vw14324   7.194   3.227   5.094 -0.5324  0.1048 -1.1132
 3582SOL     ow14325   1.690   3.108   0.855 -0.2152  0.5695  0.0230
 3582SOL     hw14326   1.772   3.151   0.878 -0.4149  1.5961 -1.0858
 3582SOL     hw14327   1.713   3.015   0.850  0.9152  0.8491 -0.3971
 3582SOL     vw14328   1.704   3.101   0.857 -0.0924  0.7421 -0.1787
 3583SOL     ow14329   2.956   1.474   2.451  0.1523  0.0111 -0.1985
 3583SOL     hw14330   2.926   1.414   2.382 -0.2589 -0.9183  0.7448
 3583SOL     hw14331   2.909   1.445   2.529 -0.3118  1.8071  0.2299
 3583SOL     vw14332   2.946   1.462   2.452  0.0370  0.1255 -0.0175
 3584SOL     ow14333   1.889   2.946   1.821 -0.2026  0.4719 -0.4325
 3584SOL     hw14334   1.875   3.038   1.844 -0.8402  0.2308  0.1854
 3584SOL     hw14335   1.806   2.919   1.781 -0.2211  0.0192 -0.0980
 3584SOL     vw14336   1.876   2.955   1.819 -0.2891  0.3804 -0.3068
 3585SOL     ow14337   6.167   4.396   2.311 -0.0421 -0.0628  0.3992
 3585SOL     hw14338   6.184   4.393   2.217  0.5084 -3.4511  0.4904
 3585SOL     hw14339   6.200   4.481   2.339 -1.0683  1.4502 -2.5589
 3585SOL     vw14340   6.174   4.407   2.302 -0.1049 -0.3104  0.0210
 3586SOL     ow14341   0.239   2.379   5.576 -0.3075  0.1032  0.2839
 3586SOL     hw14342   0.298   2.353   5.647  0.9123 -2.7689 -1.5989
 3586SOL     hw14343   0.288   2.445   5.527  0.2155 -0.2576  0.3102
 3586SOL     vw14344   0.253   2.384   5.579 -0.0775 -0.3233  0.0391
 3587SOL     ow14345   7.024   0.731   2.339 -0.4217  0.2366 -0.4463
 3587SOL     hw14346   7.035   0.769   2.426 -0.3089  0.6174 -0.6246
 3587SOL     hw14347   6.930   0.736   2.323 -0.2641  1.7061 -1.0272
 3587SOL     vw14348   7.013   0.737   2.349 -0.3860  0.4807 -0.5463
 3588SOL     ow14349   4.753   2.883   0.584 -0.0474  0.8050 -0.2690
 3588SOL     hw14350   4.686   2.845   0.527  1.3338 -1.8214 -0.2768
 3588SOL     hw14351   4.707   2.902   0.666 -1.1474  0.6617 -0.8359
 3588SOL     vw14352   4.738   2.881   0.587 -0.0105  0.4395 -0.3449
 3589SOL     ow14353   2.797   5.571   5.639  0.0353 -0.3151  0.1707
 3589SOL     hw14354   2.827   5.659   5.662  1.7475 -0.4440 -1.3715
 3589SOL     hw14355   2.779   5.529   5.723  1.7359  0.6529  1.0775
 3589SOL     vw14356   2.798   5.577   5.653  0.4855 -0.2043  0.0868
 3590SOL     ow14357   2.776   1.319   7.115  0.2553  0.1979  0.0349
 3590SOL     hw14358   2.856   1.269   7.095 -0.3761 -1.2556  0.9718
 3590SOL     hw14359   2.808   1.402   7.150  1.4724 -1.1549  2.4556
 3590SOL     vw14360   2.791   1.323   7.117  0.3326 -0.1723  0.4778
 3591SOL     ow14361   0.865   1.394   5.718  0.0408 -0.2512 -0.1442
 3591SOL     hw14362   0.777   1.357   5.728 -0.1661 -1.0046 -3.4303
 3591SOL     hw14363   0.850   1.482   5.682  0.6340  0.2552  0.8238
 3591SOL     vw14364   0.851   1.401   5.715  0.0918 -0.2838 -0.4504
 3592SOL     ow14365   0.994   4.678   0.588 -0.8095 -0.0135 -0.6240
 3592SOL     hw14366   0.911   4.657   0.545 -0.6551 -1.6890 -0.1784
 3592SOL     hw14367   1.041   4.595   0.591  0.0045  0.4632  0.9820
 3592SOL     vw14368   0.989   4.664   0.583 -0.6818 -0.1717 -0.3533
 3593SOL     ow14369   0.176   1.339   4.548 -0.2233 -0.0196  0.1237
 3593SOL     hw14370   0.102   1.295   4.506 -0.2047 -0.1583  0.2344
 3593SOL     hw14371   0.137   1.413   4.594 -0.4548 -0.7798  1.1754
 3593SOL     vw14372   0.162   1.343   4.548 -0.2514 -0.1382  0.2770
 3594SOL     ow14373   5.773   2.465   2.271  0.4175  0.1439  0.0268
 3594SOL     hw14374   5.753   2.415   2.192 -0.5271  1.1983 -0.4281
 3594SOL     hw14375   5.861   2.436   2.296 -0.4606 -2.5080  0.4059
 3594SOL     vw14376   5.782   2.454   2.264  0.1769 -0.0669  0.0168
 3595SOL     ow14377   7.399   4.982   5.352 -0.0899 -0.2902 -0.4273
 3595SOL     hw14378   7.347   4.904   5.368  0.0400 -0.5539 -1.2413
 3595SOL     hw14379   7.437   5.004   5.437  1.4778 -2.2765 -0.5372
 3595SOL     vw14380   7.397   4.975   5.365  0.1340 -0.5870 -0.5491
 3596SOL     ow14381   3.183   2.801   0.462 -0.1048  0.3402  0.0958
 3596SOL     hw14382   3.165   2.737   0.393 -0.4214 -0.6924  1.1093
 3596SOL     hw14383   3.096   2.823   0.497 -0.1301  2.2383 -0.9875
 3596SOL     vw14384   3.169   2.796   0.457 -0.1498  0.4543  0.0866
 3597SOL     ow14385   6.381   6.959   2.267  0.3930 -0.5308  0.0752
 3597SOL     hw14386   6.371   6.970   2.172 -0.5128  3.4314  0.4733
 3597SOL     hw14387   6.311   6.899   2.291 -1.3801  0.7857 -1.4601
 3597SOL     vw14388   6.371   6.952   2.258  0.0396  0.1657 -0.0749
 3598SOL     ow14389   5.696   2.781   3.371  0.3396 -0.2482 -0.2617
 3598SOL     hw14390   5.780   2.828   3.363  2.8489 -4.2600 -0.2574
 3598SOL     hw14391   5.665   2.803   3.458  1.1796  1.6013 -0.3746
 3598SOL     vw14392   5.703   2.790   3.381  0.7813 -0.5336 -0.2759
 3599SOL     ow14393   4.127   5.994   2.750  0.2670 -0.7465  0.6434
 3599SOL     hw14394   4.171   6.079   2.754 -0.9450  0.0770 -1.6972
 3599SOL     hw14395   4.180   5.941   2.691  0.1890 -1.0739  0.8633
 3599SOL     vw14396   4.140   5.998   2.743  0.0968 -0.6812  0.3636
 3600SOL     ow14397   6.665   2.850   5.569 -0.4531  1.1315 -0.2286
 3600SOL     hw14398   6.641   2.787   5.636  1.1040  1.5005  0.7300
 3600SOL     hw14399   6.639   2.809   5.486  0.1977 -0.6092  0.4040
 3600SOL     vw14400   6.658   2.837   5.567 -0.1619  0.9505 -0.0186
 3601SOL     ow14401   0.122   1.007   6.348  0.6615 -0.5816  0.9314
 3601SOL     hw14402   0.152   0.952   6.276 -1.2029 -1.2256  0.5863
 3601SOL     hw14403   0.115   1.095   6.311  0.6583 -0.7160  0.6149
 3601SOL     vw14404   0.125   1.011   6.334  0.4151 -0.6843  0.8440
 3602SOL     ow14405   5.752   5.799   5.346  0.4564 -0.2748 -0.7494
 3602SOL     hw14406   5.751   5.703   5.338 -0.9931 -0.2021 -2.0354
 3602SOL     hw14407   5.825   5.827   5.292  2.3041 -0.7103  1.3793
 3602SOL     vw14408   5.761   5.790   5.338  0.5090 -0.3226 -0.6382
 3603SOL     ow14409   2.716   2.534   7.077 -0.6717 -0.1150  0.0510
 3603SOL     hw14410   2.680   2.534   6.988 -0.9876 -0.1624  0.1758
 3603SOL     hw14411   2.653   2.483   7.127 -0.3141 -0.3776  0.2310
 3603SOL     vw14412   2.703   2.527   7.072 -0.6661 -0.1559  0.0913
 3604SOL     ow14413   1.624   4.388   5.526 -0.4096 -0.5823 -0.5230
 3604SOL     hw14414   1.609   4.409   5.618 -0.6167  3.1085 -1.2420
 3604SOL     hw14415   1.718   4.400   5.514 -0.6611  1.1312 -1.1456
 3604SOL     vw14416   1.635   4.393   5.536 -0.4702  0.1309 -0.7002
 3605SOL     ow14417   1.000   1.143   0.271 -0.0076 -0.8490 -0.0109
 3605SOL     hw14418   0.965   1.166   0.357  0.3404 -1.3148  0.2610
 3605SOL     hw14419   0.955   1.062   0.247  1.0649 -1.6215  0.4761
 3605SOL     vw14420   0.990   1.135   0.279  0.1798 -1.0124  0.0892
 3606SOL     ow14421   3.280   0.899   2.419 -0.4725 -1.2424  0.4442
 3606SOL     hw14422   3.223   0.975   2.411  0.4571 -0.3891  1.5525
 3606SOL     hw14423   3.248   0.838   2.352 -1.9327 -0.3408  0.2719
 3606SOL     vw14424   3.269   0.901   2.409 -0.5424 -1.0109  0.5677
 3607SOL     ow14425   4.059   3.704   1.022 -0.2038  0.5716  0.1285
 3607SOL     hw14426   4.016   3.679   0.940 -2.7555 -0.3180  1.6074
 3607SOL     hw14427   4.105   3.785   1.002  1.1847 -0.7612 -2.6994
 3607SOL     vw14428   4.059   3.711   1.008 -0.3574  0.2784 -0.0495
 3608SOL     ow14429   6.674   1.256   5.666  0.0469  0.2442 -0.2866
 3608SOL     hw14430   6.719   1.333   5.700  0.4613 -0.2688  0.3617
 3608SOL     hw14431   6.689   1.259   5.571 -1.3143  1.8187 -0.5060
 3608SOL     vw14432   6.682   1.267   5.658 -0.0777  0.3842 -0.2301
 3609SOL     ow14433   2.882   4.745   2.037  0.5549  0.0696 -0.7740
 3609SOL     hw14434   2.839   4.774   1.956  0.1781  0.3666 -0.4746
 3609SOL     hw14435   2.934   4.670   2.011  1.8070  1.1926 -1.6496
 3609SOL     vw14436   2.883   4.739   2.023  0.6704  0.2570 -0.8501
 3610SOL     ow14437   5.273   6.850   2.072 -0.3841 -0.1931 -0.3940
 3610SOL     hw14438   5.249   6.838   1.980 -2.2666  0.4604 -0.0358
 3610SOL     hw14439   5.298   6.942   2.079  0.6781 -0.4597 -0.4044
 3610SOL     vw14440   5.273   6.861   2.061 -0.4921 -0.1419 -0.3481
 3611SOL     ow14441   7.488   4.105   1.086 -0.3911 -0.5975 -0.0271
 3611SOL     hw14442   7.511   4.015   1.112 -0.3682  0.1403  2.7769
 3611SOL     hw14443   7.572   4.149   1.075 -0.3825 -0.1644  1.6057
 3611SOL     vw14444   7.502   4.099   1.088 -0.3867 -0.4430  0.5584
 3612SOL     ow14445   7.247   3.095   6.075 -0.3095 -0.4285 -0.6047
 3612SOL     hw14446   7.228   3.186   6.096  1.5736 -0.3961  1.2284
 3612SOL     hw14447   7.173   3.067   6.020 -2.2902  1.4053  0.9429
 3612SOL     vw14448   7.235   3.103   6.070 -0.3223 -0.1823 -0.1588
 3613SOL     ow14449   4.954   2.530   6.229  0.1530 -0.1601 -0.7383
 3613SOL     hw14450   4.998   2.447   6.213 -0.3498 -0.2716 -1.5861
 3613SOL     hw14451   4.904   2.548   6.149 -1.8205 -0.3403  0.3663
 3613SOL     vw14452   4.953   2.522   6.217 -0.1738 -0.1986 -0.7043
 3614SOL     ow14453   2.490   6.098   4.706 -0.4495  0.3448 -0.3588
 3614SOL     hw14454   2.491   6.070   4.798  1.9378 -2.0142 -0.9712
 3614SOL     hw14455   2.513   6.191   4.710 -0.6264  0.3607  1.4276
 3614SOL     vw14456   2.493   6.107   4.719 -0.1578  0.0358 -0.2038
 3615SOL     ow14457   1.237   2.652   3.237 -0.5038 -0.3393 -0.5909
 3615SOL     hw14458   1.150   2.682   3.210 -1.0934 -1.6773 -0.2563
 3615SOL     hw14459   1.227   2.629   3.330 -0.3691 -2.5048 -1.0704
 3615SOL     vw14460   1.224   2.653   3.246 -0.5639 -0.8016 -0.6101
 3616SOL     ow14461   1.619   2.970   4.846  0.3133  0.2445  0.2415
 3616SOL     hw14462   1.608   2.885   4.890 -1.3043 -0.2353 -0.9808
 3616SOL     hw14463   1.658   2.948   4.761  2.7324  1.0805  1.0756
 3616SOL     vw14464   1.623   2.956   4.840  0.4190  0.2916  0.1903
 3617SOL     ow14465   2.911   4.709   2.355 -0.4322 -0.3009 -0.0399
 3617SOL     hw14466   2.895   4.719   2.449  0.6834  0.3213  0.1032
 3617SOL     hw14467   2.910   4.615   2.340  2.6819 -0.6568  1.2655
 3617SOL     vw14468   2.909   4.698   2.366  0.1259 -0.2656  0.1512
 3618SOL     ow14469   3.613   6.932   7.320  0.4959  0.1239 -0.8366
 3618SOL     hw14470   3.567   6.980   7.252  1.4562  1.0574 -0.8436
 3618SOL     hw14471   3.682   6.991   7.350  0.7458 -0.6633  0.2262
 3618SOL     vw14472   3.616   6.946   7.315  0.6557  0.1433 -0.6971
 3619SOL     ow14473   7.047   4.677   1.263  0.5270  0.9465 -0.3969
 3619SOL     hw14474   6.963   4.720   1.246  1.1494  2.5741  0.3717
 3619SOL     hw14475   7.059   4.617   1.190 -0.7650  1.5412 -1.1301
 3619SOL     vw14476   7.037   4.675   1.251  0.4385  1.2398 -0.3923
 3620SOL     ow14477   5.509   7.218   1.517 -0.4878 -0.1931  0.5168
 3620SOL     hw14478   5.526   7.279   1.589 -2.2488  1.0317 -0.0317
 3620SOL     hw14479   5.569   7.245   1.448 -0.0114 -0.2400  0.9127
 3620SOL     vw14480   5.519   7.230   1.517 -0.6568 -0.0379  0.4967
 3621SOL     ow14481   1.667   7.327   5.127  0.0440  0.1317 -0.0523
 3621SOL     hw14482   1.595   7.265   5.111 -0.8929  0.6591  1.8023
 3621SOL     hw14483   1.743   7.271   5.144 -0.4717 -0.4994  0.2487
 3621SOL     vw14484   1.667   7.311   5.127 -0.1476  0.1180  0.2317
 3622SOL     ow14485   2.220   2.524   4.142  0.5890  0.3361  0.4599
 3622SOL     hw14486   2.296   2.466   4.149 -0.5294 -1.3701 -0.6597
 3622SOL     hw14487   2.247   2.592   4.080  1.1319 -0.3930 -0.1186
 3622SOL     vw14488   2.234   2.525   4.135  0.5131  0.0150  0.2358
 3623SOL     ow14489   0.613   2.953   4.338 -0.1095  0.0488  0.4704
 3623SOL     hw14490   0.571   3.024   4.289 -3.3534 -1.0579  1.3759
 3623SOL     hw14491   0.699   2.943   4.297  0.4121  4.1928  0.0678
 3623SOL     vw14492   0.619   2.961   4.326 -0.4687  0.4495  0.5369
 3624SOL     ow14493   2.288   2.332   1.322 -0.3833  0.8541  0.0358
 3624SOL     hw14494   2.311   2.317   1.230 -0.5845  0.4575  0.0471
 3624SOL     hw14495   2.217   2.270   1.339  0.7291 -0.2296  0.9161
 3624SOL     vw14496   2.282   2.321   1.312 -0.2631  0.6588  0.1534
 3625SOL     ow14497   0.465   2.272   1.734  0.5116  0.0142 -0.1926
 3625SOL     hw14498   0.409   2.195   1.741  0.5863 -0.1139 -0.9196
 3625SOL     hw14499   0.501   2.284   1.822  0.6319 -0.8852 -0.1113
 3625SOL     vw14500   0.463   2.264   1.746  0.5373 -0.1214 -0.2778
 3626SOL     ow14501   3.744   3.297   6.434 -0.0813  0.1565 -0.0722
 3626SOL     hw14502   3.710   3.267   6.350  1.2403  0.5858 -0.7720
 3626SOL     hw14503   3.681   3.262   6.498  0.2002 -2.2785 -0.9993
 3626SOL     vw14504   3.731   3.288   6.432  0.1302 -0.1082 -0.2871
 3627SOL     ow14505   1.099   5.528   2.897 -0.5159  0.4638 -0.0897
 3627SOL     hw14506   1.090   5.482   2.814  1.4935 -0.9849  0.4269
 3627SOL     hw14507   1.136   5.613   2.874  0.2520 -0.0201 -0.6762
 3627SOL     vw14508   1.103   5.533   2.883 -0.1495  0.2089 -0.0988
 3628SOL     ow14509   3.612   2.005   0.737 -0.3134  0.8427 -0.2853
 3628SOL     hw14510   3.648   1.944   0.802 -0.4031  0.2689 -0.7651
 3628SOL     hw14511   3.687   2.028   0.682  0.1672  2.7400  1.0788
 3628SOL     vw14512   3.627   2.000   0.738 -0.2619  1.0174 -0.1686
 3629SOL     ow14513   4.484   6.755   7.241 -0.4592  0.5799  0.3877
 3629SOL     hw14514   4.411   6.742   7.302 -0.1731  1.3306  0.9179
 3629SOL     hw14515   4.561   6.757   7.298  0.1695 -1.7036 -0.3034
 3629SOL     vw14516   4.484   6.753   7.257 -0.3386  0.3779  0.3662
 3630SOL     ow14517   2.366   2.270   1.048 -0.6809 -0.0726  0.3775
 3630SOL     hw14518   2.460   2.255   1.055 -0.6859 -2.2111 -2.5492
 3630SOL     hw14519   2.358   2.358   1.011  0.1550  0.0805  0.5391
 3630SOL     vw14520   2.377   2.280   1.044 -0.5713 -0.3346  0.0126
 3631SOL     ow14521   2.129   6.403   2.779  0.1817 -0.3309 -0.5539
 3631SOL     hw14522   2.035   6.404   2.759 -0.1617 -1.1966  0.8774
 3631SOL     hw14523   2.150   6.495   2.798 -0.2261 -0.0407 -1.4238
 3631SOL     vw14524   2.119   6.415   2.779  0.0826 -0.4067 -0.4798
 3632SOL     ow14525   1.861   7.166   5.170  0.3479  0.1607 -0.0080
 3632SOL     hw14526   1.862   7.093   5.108  1.6330  0.1383  0.0017
 3632SOL     hw14527   1.860   7.124   5.256 -0.2156  0.1779 -0.0031
 3632SOL     vw14528   1.861   7.151   5.173  0.4431  0.1602 -0.0060
 3633SOL     ow14529   3.513   1.014   2.468  0.3559 -0.5424  0.3934
 3633SOL     hw14530   3.425   0.976   2.475  0.6920 -1.2801  0.7366
 3633SOL     hw14531   3.514   1.055   2.382 -0.8228  0.7656  0.9665
 3633SOL     vw14532   3.501   1.014   2.458  0.2449 -0.4672  0.5144
 3634SOL     ow14533   7.437   5.936   0.495 -0.9297 -0.3615 -0.4555
 3634SOL     hw14534   7.512   5.996   0.502  1.0499 -2.8670  2.3887
 3634SOL     hw14535   7.362   5.989   0.520  0.2648  1.6551 -0.9205
 3634SOL     vw14536   7.437   5.951   0.499 -0.5112 -0.4261 -0.1416
 3635SOL     ow14537   3.830   5.545   0.388 -0.3733 -0.5718 -0.2572
 3635SOL     hw14538   3.910   5.536   0.336 -1.3383  0.4952 -2.0211
 3635SOL     hw14539   3.771   5.478   0.353 -0.1714 -1.5843  1.2637
 3635SOL     vw14540   3.833   5.535   0.377 -0.4740 -0.5648 -0.2892
 3636SOL     ow14541   7.086   4.227   1.641  0.5294  0.5771 -0.0776
 3636SOL     hw14542   7.004   4.236   1.592  0.8357  2.4449 -0.3122
 3636SOL     hw14543   7.087   4.135   1.668 -1.3068  0.3382 -0.6433
 3636SOL     vw14544   7.075   4.216   1.638  0.3278  0.7923 -0.1832
 3637SOL     ow14545   0.462   5.606   3.186 -0.4176  0.3379 -0.3720
 3637SOL     hw14546   0.426   5.695   3.181 -0.8678  0.2728  1.1862
 3637SOL     hw14547   0.556   5.618   3.175 -0.3788  1.1337  0.6117
 3637SOL     vw14548   0.469   5.619   3.184 -0.4719  0.4344 -0.0366
 3638SOL     ow14549   2.708   5.591   6.623 -0.2316  0.3552 -0.0849
 3638SOL     hw14550   2.762   5.514   6.635 -0.4188  0.2469  0.0737
 3638SOL     hw14551   2.675   5.584   6.533  2.2771  1.8750 -1.2179
 3638SOL     vw14552   2.711   5.580   6.613  0.0747  0.5414 -0.2136
 3639SOL     ow14553   5.770   6.865   4.799 -0.2057  0.3789 -0.4517
 3639SOL     hw14554   5.722   6.790   4.835  0.2413  0.3169  0.0159
 3639SOL     hw14555   5.710   6.939   4.810  1.3405  1.2507  4.2573
 3639SOL     vw14556   5.756   6.865   4.805  0.0572  0.4859  0.2310
 3640SOL     ow14557   0.703   3.021   6.602 -0.6856 -0.4314 -0.5305
 3640SOL     hw14558   0.644   2.979   6.664  0.1903  0.5143  0.9928
 3640SOL     hw14559   0.658   3.101   6.576  0.1276  0.6284  1.1400
 3640SOL     vw14560   0.690   3.026   6.606 -0.4627 -0.1668 -0.1090
 3641SOL     ow14561   1.703   2.084   3.763 -0.0770  0.1926 -0.1797
 3641SOL     hw14562   1.662   1.997   3.759 -0.2213  0.1228  1.7393
 3641SOL     hw14563   1.745   2.095   3.678 -0.4109 -1.5909 -0.6136
 3641SOL     vw14564   1.703   2.074   3.751 -0.1401 -0.0520  0.0162
 3642SOL     ow14565   1.661   1.483   7.286  0.4668  0.1540 -0.3582
 3642SOL     hw14566   1.707   1.565   7.267 -1.3642  0.9194 -1.8173
 3642SOL     hw14567   1.662   1.477   7.382 -2.2223  3.7020  0.0930
 3642SOL     vw14568   1.667   1.493   7.296 -0.1295  0.7231 -0.4911
 3643SOL     ow14569   3.781   3.938   7.537 -0.1862 -1.2208 -0.2667
 3643SOL     hw14570   3.837   3.896   7.601 -0.1918 -0.0059  0.5670
 3643SOL     hw14571   3.833   4.012   7.504 -1.3523  0.1005  0.7291
 3643SOL     vw14572   3.795   3.942   7.541 -0.3409 -0.8863 -0.0255
 3644SOL     ow14573   5.025   6.367   6.556 -0.1261 -0.6468  0.2132
 3644SOL     hw14574   5.070   6.450   6.570 -2.1047  0.7654 -1.1799
 3644SOL     hw14575   5.041   6.317   6.636  0.5716  1.3541  1.3931
 3644SOL     vw14576   5.033   6.372   6.568 -0.2952 -0.1965  0.1850
 3645SOL     ow14577   4.835   6.192   7.465  0.5022 -0.0279  0.2135
 3645SOL     hw14578   4.744   6.220   7.480  0.1236 -0.1680 -1.5728
 3645SOL     hw14579   4.887   6.272   7.474 -0.0056  0.3737 -0.3687
 3645SOL     vw14580   4.830   6.206   7.468  0.3853  0.0067 -0.0989
 3646SOL     ow14581   7.159   6.991   4.097  0.2984 -0.4755 -0.0739
 3646SOL     hw14582   7.185   6.946   4.178 -0.5476 -0.1665  0.3760
 3646SOL     hw14583   7.234   6.979   4.038 -0.1586 -3.1260 -0.2398
 3646SOL     vw14584   7.173   6.983   4.100  0.1264 -0.7844 -0.0365
 3647SOL     ow14585   3.550   4.248   7.091 -0.2056  0.3123  0.5987
 3647SOL     hw14586   3.613   4.288   7.031 -1.8983  0.7090 -1.0204
 3647SOL     hw14587   3.563   4.154   7.080  0.6593  0.3820  0.9297
 3647SOL     vw14588   3.560   4.241   7.081 -0.3148  0.3738  0.4287
 3648SOL     ow14589   6.555   5.053   6.260  0.3905 -0.5421 -0.1548
 3648SOL     hw14590   6.651   5.059   6.253  0.7463 -2.6314  1.7059
 3648SOL     hw14591   6.531   5.123   6.320  0.2476  1.9798 -2.8850
 3648SOL     vw14592   6.565   5.063   6.267  0.4187 -0.4849 -0.2697
 3649SOL     ow14593   6.805   2.336   2.391 -0.3190 -0.2084  0.0139
 3649SOL     hw14594   6.741   2.406   2.398  0.9156  0.8028  1.9904
 3649SOL     hw14595   6.864   2.364   2.321 -0.7824 -0.1296 -0.3551
 3649SOL     vw14596   6.804   2.349   2.383 -0.2174 -0.0647  0.2259
 3650SOL     ow14597   6.541   7.237   5.394 -0.5334  0.3228 -0.5581
 3650SOL     hw14598   6.521   7.316   5.444 -0.3231 -0.2614  0.4808
 3650SOL     hw14599   6.515   7.259   5.304 -1.9477  1.0200 -0.0220
 3650SOL     vw14600   6.535   7.251   5.388 -0.6921  0.3374 -0.3502
 3651SOL     ow14601   0.338   7.564   4.074  0.0042  0.0474  0.2151
 3651SOL     hw14602   0.305   7.652   4.058 -1.4283 -0.7520 -1.6970
 3651SOL     hw14603   0.281   7.528   4.142  0.6783  0.5875  1.0987
 3651SOL     vw14604   0.326   7.571   4.081 -0.0959  0.0136  0.0794
 3652SOL     ow14605   4.029   4.979   4.343 -1.1646 -0.1115 -0.0839
 3652SOL     hw14606   3.933   4.975   4.336 -1.0589 -0.7027 -1.5858
 3652SOL     hw14607   4.057   4.888   4.340 -0.4275  0.1426 -2.3997
 3652SOL     vw14608   4.020   4.967   4.342 -1.0531 -0.1562 -0.5875
 3653SOL     ow14609   5.422   2.670   7.460 -0.1287 -0.0840 -0.3258
 3653SOL     hw14610   5.489   2.645   7.396 -0.7290 -0.2857 -0.8894
 3653SOL     hw14611   5.470   2.717   7.528  0.9448 -2.1233  0.4116
 3653SOL     vw14612   5.437   2.672   7.460 -0.0663 -0.3797 -0.3028
 3654SOL     ow14613   3.975   4.984   7.414 -0.9641  0.4445 -0.2469
 3654SOL     hw14614   4.028   5.035   7.352 -1.4016  0.3702 -0.6928
 3654SOL     hw14615   3.967   5.041   7.490  1.7695 -0.4790  0.8532
 3654SOL     vw14616   3.981   4.999   7.416 -0.6613  0.3128 -0.1605
 3655SOL     ow14617   5.999   1.644   5.567 -0.4433  0.1845  0.0093
 3655SOL     hw14618   6.021   1.557   5.600 -0.4541  0.6264  1.2637
 3655SOL     hw14619   5.941   1.628   5.493 -1.6346 -0.8863  1.1115
 3655SOL     vw14620   5.994   1.630   5.562 -0.6020  0.1015  0.3204
 3656SOL     ow14621   6.611   5.857   6.099  0.1071 -0.3117  0.4253
 3656SOL     hw14622   6.557   5.868   6.020  1.7873 -0.7367 -0.8609
 3656SOL     hw14623   6.568   5.786   6.147  0.4930 -1.9633 -1.5116
 3656SOL     vw14624   6.598   5.849   6.095  0.3796 -0.5858  0.0000
 3657SOL     ow14625   0.341   3.908   3.446  0.0936  0.8030  0.1417
 3657SOL     hw14626   0.332   3.913   3.351 -0.6449  0.0519  0.1621
 3657SOL     hw14627   0.252   3.921   3.479  0.2602  0.5342  0.7075
 3657SOL     vw14628   0.328   3.910   3.438  0.0182  0.6685  0.2190
 3658SOL     ow14629   6.536   2.714   7.360  0.2501  0.0034  0.0572
 3658SOL     hw14630   6.490   2.783   7.408 -2.0134 -0.8313 -0.7859
 3658SOL     hw14631   6.480   2.696   7.285  0.6027 -2.9136  0.3976
 3658SOL     vw14632   6.522   2.721   7.357 -0.0024 -0.4916 -0.0093
 3659SOL     ow14633   5.818   3.350   5.482 -0.6167  0.1350 -0.0188
 3659SOL     hw14634   5.891   3.324   5.538 -0.6088 -1.9114 -0.8966
 3659SOL     hw14635   5.858   3.404   5.414  0.2697 -1.5695 -0.9146
 3659SOL     vw14636   5.833   3.354   5.481 -0.4990 -0.3599 -0.2530
 3660SOL     ow14637   6.281   3.352   5.708  0.1900  0.9671  0.3409
 3660SOL     hw14638   6.326   3.412   5.768  1.1338 -0.1139  0.7562
 3660SOL     hw14639   6.326   3.363   5.625  2.0601 -0.9109  1.0220
 3660SOL     vw14640   6.293   3.361   5.705  0.5610  0.5769  0.4857
 3661SOL     ow14641   6.713   7.130   5.023 -0.5076 -0.9408  0.3049
 3661SOL     hw14642   6.724   7.052   4.968 -0.2855 -0.5061 -0.2740
 3661SOL     hw14643   6.779   7.120   5.092  0.0623 -0.8696 -0.2263
 3661SOL     vw14644   6.723   7.118   5.025 -0.4029 -0.8740  0.1583
 3662SOL     ow14645   3.431   7.474   6.749 -0.1024  0.2173  0.2285
 3662SOL     hw14646   3.353   7.475   6.803  0.3867 -0.0226  0.9548
 3662SOL     hw14647   3.399   7.456   6.661 -1.1425  2.7649  0.0258
 3662SOL     vw14648   3.417   7.471   6.745 -0.1750  0.5219  0.2975
 3663SOL     ow14649   4.089   0.596   1.805  0.3014  0.4708 -0.4463
 3663SOL     hw14650   4.172   0.643   1.803  0.1521  0.7797  0.2164
 3663SOL     hw14651   4.097   0.537   1.880  0.4595 -0.5285 -1.2232
 3663SOL     vw14652   4.101   0.594   1.815  0.3028  0.3797 -0.4615
 3664SOL     ow14653   1.349   0.008   0.371 -0.3979  0.0718 -0.3499
 3664SOL     hw14654   1.405  -0.060   0.405 -0.4044  0.4076  0.3364
 3664SOL     hw14655   1.391   0.036   0.290  1.0094  1.0580  0.6844
 3664SOL     vw14656   1.362   0.003   0.364 -0.2130  0.2463 -0.1229
 3665SOL     ow14657   4.724   5.388   6.700 -0.3146  0.2230  0.0456
 3665SOL     hw14658   4.786   5.458   6.680  0.5580 -0.6766 -0.4964
 3665SOL     hw14659   4.690   5.361   6.615 -0.2525 -0.3518  0.1977
 3665SOL     vw14660   4.728   5.394   6.686 -0.1915  0.0281 -0.0060
 3666SOL     ow14661   0.129   4.819   5.572 -0.6793 -0.0280 -0.2912
 3666SOL     hw14662   0.093   4.800   5.659  0.7461  1.4514  0.6777
 3666SOL     hw14663   0.206   4.763   5.564  0.3174  1.2010  0.2629
 3666SOL     vw14664   0.134   4.809   5.583 -0.3597  0.3295 -0.0904
 3667SOL     ow14665   6.794   6.710   6.107 -0.8163  0.4444  0.3852
 3667SOL     hw14666   6.771   6.637   6.165 -0.1784  0.3018  0.4633
 3667SOL     hw14667   6.796   6.787   6.165 -2.3424  0.6962  0.1543
 3667SOL     vw14668   6.791   6.711   6.122 -0.9336  0.4587  0.3653
 3668SOL     ow14669   5.034   4.788   2.186  0.2519 -0.1519  0.2397
 3668SOL     hw14670   5.034   4.788   2.282  1.6605 -1.0733  0.2733
 3668SOL     hw14671   4.958   4.736   2.161  0.7956 -1.2959  0.8998
 3668SOL     vw14672   5.024   4.781   2.195  0.5097 -0.4244  0.3313
 3669SOL     ow14673   6.655   6.145   1.441  0.1880 -0.0100 -0.3296
 3669SOL     hw14674   6.650   6.058   1.402  0.2538  0.2210 -0.8751
 3669SOL     hw14675   6.572   6.186   1.418  0.7415  0.5850 -1.3772
 3669SOL     vw14676   6.643   6.139   1.433  0.2699  0.0992 -0.5398
 3670SOL     ow14677   2.847   1.916   5.356  0.2113  0.3291 -0.4448
 3670SOL     hw14678   2.866   1.934   5.264  0.9190  1.9000 -0.0221
 3670SOL     hw14679   2.885   1.990   5.403  0.5843 -0.8560  1.1971
 3670SOL     vw14680   2.854   1.928   5.350  0.3537  0.3800 -0.1721
 3671SOL     ow14681   4.398   0.538   6.829 -0.0568 -0.1422  0.1671
 3671SOL     hw14682   4.308   0.527   6.862 -0.4358  0.1648 -0.7408
 3671SOL     hw14683   4.414   0.458   6.778  0.3292 -0.3642  0.6293
 3671SOL     vw14684   4.388   0.526   6.827 -0.0558 -0.1310  0.1082
 3672SOL     ow14685   2.462   5.804   5.571  0.2906  1.0294 -0.2889
 3672SOL     hw14686   2.435   5.894   5.557 -1.8920  1.1127  3.2589
 3672SOL     hw14687   2.541   5.811   5.624 -1.0142  0.9938  1.7673
 3672SOL     vw14688   2.469   5.817   5.576 -0.1694  1.0355  0.4506
 3673SOL     ow14689   5.147   4.344   6.193  0.0424  0.0707  0.1836
 3673SOL     hw14690   5.080   4.412   6.191  0.3416  0.3574 -1.7108
 3673SOL     hw14691   5.098   4.262   6.197 -0.4259  0.3030 -0.5344
 3673SOL     vw14692   5.132   4.342   6.193  0.0198  0.1390 -0.1614
 3674SOL     ow14693   7.292   4.248   5.373  0.9763  0.0806  0.1826
 3674SOL     hw14694   7.342   4.328   5.393  0.7051  0.5234 -0.8271
 3674SOL     hw14695   7.319   4.225   5.284 -0.8124  0.5023 -0.5021
 3674SOL     vw14696   7.302   4.256   5.364  0.7048  0.1945 -0.0408
 3675SOL     ow14697   1.209   7.540   4.969  0.2466  0.5856  0.0677
 3675SOL     hw14698   1.214   7.635   4.979 -0.0001  0.5049  1.0444
 3675SOL     hw14699   1.296   7.509   4.993 -0.0595  0.4646  1.0290
 3675SOL     vw14700   1.221   7.549   4.973  0.1736  0.5593  0.3233
 3676SOL     ow14701   2.409   1.525   6.549  0.6822  0.2162 -0.0256
 3676SOL     hw14702   2.470   1.588   6.588  0.0819  0.8162 -0.0418
 3676SOL     hw14703   2.322   1.558   6.572  0.1714  1.7800 -3.5660
 3676SOL     vw14704   2.406   1.538   6.557  0.5355  0.5017 -0.4947
 3677SOL     ow14705   3.725   3.956   7.008  0.4517  0.3236  0.1157
 3677SOL     hw14706   3.683   3.997   6.932  1.9599  1.0465 -0.3702
 3677SOL     hw14707   3.754   4.029   7.062  2.2695 -0.0717 -0.2499
 3677SOL     vw14708   3.724   3.971   7.005  0.8905  0.3668  0.0036
 3678SOL     ow14709   1.452   2.586   6.739 -0.2569  0.6167 -1.0215
 3678SOL     hw14710   1.419   2.671   6.709 -0.4693  1.0895  0.5011
 3678SOL     hw14711   1.430   2.583   6.832  1.7786 -0.1089 -0.5178
 3678SOL     vw14712   1.445   2.597   6.747 -0.0163  0.5833 -0.7541
 3679SOL     ow14713   2.703   1.406   4.610 -0.1418 -0.2232  0.3441
 3679SOL     hw14714   2.694   1.443   4.697 -0.0501  2.3493 -0.6613
 3679SOL     hw14715   2.615   1.376   4.588 -0.0568 -1.4028  1.4840
 3679SOL     vw14716   2.690   1.407   4.618 -0.1185 -0.0394  0.3619
 3680SOL     ow14717   6.714   7.430   2.296  0.0052 -0.1523  0.4530
 3680SOL     hw14718   6.678   7.494   2.357  0.5639 -1.3593  2.1677
 3680SOL     hw14719   6.656   7.432   2.220  0.6756  3.1808 -0.1144
 3680SOL     vw14720   6.702   7.439   2.294  0.1676  0.1280  0.6044
 3681SOL     ow14721   5.977   3.379   0.445 -0.0924  0.3803 -0.0000
 3681SOL     hw14722   6.018   3.379   0.531  0.9774 -0.7059 -0.4726
 3681SOL     hw14723   5.884   3.363   0.462  0.3797 -1.7263  0.8653
 3681SOL     vw14724   5.970   3.377   0.458  0.1111 -0.0410  0.0518
 3682SOL     ow14725   3.667   6.652   7.331 -0.6233  0.1578  0.2621
 3682SOL     hw14726   3.668   6.736   7.285 -1.1678 -0.0116 -0.0584
 3682SOL     hw14727   3.621   6.593   7.272  1.1239 -0.7818 -0.2239
 3682SOL     vw14728   3.661   6.655   7.317 -0.4646  0.0114  0.1557
 3683SOL     ow14729   0.846   5.312   5.778  0.5397  0.2368  0.1992
 3683SOL     hw14730   0.883   5.366   5.849  1.4002 -1.1134  0.8114
 3683SOL     hw14731   0.756   5.295   5.806  0.4901  0.7407  0.3590
 3683SOL     vw14732   0.839   5.317   5.791  0.6467  0.1249  0.3011
 3684SOL     ow14733   0.970   4.093   0.605 -0.3100  0.3479 -0.1396
 3684SOL     hw14734   0.961   4.171   0.550  4.0530  1.8072  0.7968
 3684SOL     hw14735   1.052   4.053   0.575  0.6333 -0.5147  3.1573
 3684SOL     vw14736   0.980   4.098   0.594  0.3901  0.4265  0.4189
 3685SOL     ow14737   0.487   1.405   7.175 -0.0965 -0.5184  0.1590
 3685SOL     hw14738   0.565   1.420   7.228  0.4131  0.8172 -0.9021
 3685SOL     hw14739   0.415   1.440   7.228 -0.1032 -2.3061  1.4052
 3685SOL     vw14740   0.488   1.412   7.189 -0.0302 -0.5781  0.1836
 3686SOL     ow14741   4.001   4.631   2.503  0.9013  0.0701 -0.4530
 3686SOL     hw14742   3.963   4.672   2.581  0.1529 -0.9626 -0.2475
 3686SOL     hw14743   3.929   4.628   2.440  0.9912 -0.7369 -0.5260
 3686SOL     vw14744   3.986   4.636   2.505  0.8143 -0.1726 -0.4356
 3687SOL     ow14745   3.602   5.092   4.067 -0.0724 -0.1608  0.2342
 3687SOL     hw14746   3.649   5.173   4.086 -0.9189  0.4290 -0.1054
 3687SOL     hw14747   3.554   5.074   4.148  1.2537 -1.1409  0.8215
 3687SOL     vw14748   3.602   5.101   4.080 -0.0091 -0.2122  0.2670
 3688SOL     ow14749   3.766   3.895   4.175  0.3434 -0.3442 -0.7037
 3688SOL     hw14750   3.721   3.915   4.257  1.0931 -0.4746 -0.2494
 3688SOL     hw14751   3.718   3.944   4.109  0.4519  0.7462 -0.0120
 3688SOL     vw14752   3.754   3.904   4.177  0.4567 -0.2177 -0.5527
 3689SOL     ow14753   4.751   6.573   2.190 -0.1430  0.8318 -0.3901
 3689SOL     hw14754   4.702   6.651   2.165  0.6500  1.5829  0.3034
 3689SOL     hw14755   4.842   6.602   2.192 -0.1030  0.8674  3.1622
 3689SOL     vw14756   4.757   6.587   2.187 -0.0329  0.9356  0.1701
 3690SOL     ow14757   4.126   6.025   3.388  0.5719 -0.1728  0.5998
 3690SOL     hw14758   4.142   6.040   3.481 -1.5420 -0.9529  1.1417
 3690SOL     hw14759   4.060   5.955   3.386  0.4534 -0.0586 -1.4843
 3690SOL     vw14760   4.119   6.017   3.400  0.2775 -0.2606  0.3963
 3691SOL     ow14761   2.353   5.852   0.993  0.1249 -0.2635  0.5420
 3691SOL     hw14762   2.326   5.888   1.078 -0.3019  3.4892 -0.9916
 3691SOL     hw14763   2.374   5.929   0.940 -1.5687 -2.2717 -3.4561
 3691SOL     vw14764   2.352   5.867   0.997 -0.1547 -0.0334 -0.1878
 3692SOL     ow14765   4.822   5.783   0.994 -0.5928  0.0591 -0.0883
 3692SOL     hw14766   4.905   5.740   1.015 -1.2057 -0.5223  1.2242
 3692SOL     hw14767   4.828   5.800   0.900  0.4120 -1.2916 -0.3060
 3692SOL     vw14768   4.834   5.780   0.984 -0.5412 -0.1957  0.0561
 3693SOL     ow14769   3.396   7.095   0.392  0.0400 -0.8252 -0.0810
 3693SOL     hw14770   3.338   7.135   0.456 -1.9193  0.7294 -2.6178
 3693SOL     hw14771   3.481   7.090   0.436 -1.4348 -0.9934  2.9746
 3693SOL     vw14772   3.400   7.100   0.406 -0.4132 -0.6423 -0.0126
 3694SOL     ow14773   4.610   4.950   0.478 -0.2248  0.3341  0.9079
 3694SOL     hw14774   4.576   4.934   0.567 -0.7293 -0.9671  0.4961
 3694SOL     hw14775   4.564   4.886   0.423 -1.3605  2.3400 -0.6307
 3694SOL     vw14776   4.599   4.940   0.483 -0.4413  0.4270  0.6505
 3695SOL     ow14777   4.601   7.418   0.272 -0.0476 -0.1601 -0.4863
 3695SOL     hw14778   4.649   7.336   0.283  1.6503  0.7014 -1.1393
 3695SOL     hw14779   4.642   7.460   0.197 -0.4152  1.5985  0.2484
 3695SOL     vw14780   4.613   7.413   0.264  0.1280  0.1855 -0.4755
 3696SOL     ow14781   4.167   1.217   2.385  1.2436  0.3759 -0.0140
 3696SOL     hw14782   4.207   1.196   2.469  1.8459  1.3624 -0.0454
 3696SOL     hw14783   4.238   1.254   2.333  0.1060  3.2559  0.3112
 3696SOL     vw14784   4.181   1.219   2.389  1.1725  0.8861  0.0248
 3697SOL     ow14785   5.327   0.796   5.956 -0.6701 -0.2898  0.0080
 3697SOL     hw14786   5.353   0.707   5.932 -1.0575 -0.7275  1.1397
 3697SOL     hw14787   5.368   0.851   5.889 -0.8280 -1.3423 -1.0042
 3697SOL     vw14788   5.336   0.791   5.944 -0.7420 -0.4864  0.0238
 3698SOL     ow14789   6.699   2.108   1.445  0.2777  0.9137 -0.0286
 3698SOL     hw14790   6.729   2.188   1.402  0.0271 -1.0425 -4.3927
 3698SOL     hw14791   6.762   2.041   1.417 -2.9443 -1.5760 -2.1260
 3698SOL     vw14792   6.711   2.110   1.436 -0.1805  0.3270 -0.8811
 3699SOL     ow14793   2.887   2.496   1.726  0.7470 -0.1199  0.2806
 3699SOL     hw14794   2.842   2.576   1.700  2.4859  0.9402  0.3822
 3699SOL     hw14795   2.980   2.517   1.718  1.2527 -2.0706  0.5195
 3699SOL     vw14796   2.893   2.509   1.721  1.0433 -0.2375  0.3256
 3700SOL     ow14797   0.339   5.727   5.711  0.4003 -0.0133 -0.3509
 3700SOL     hw14798   0.433   5.707   5.708  0.6387  0.1031  2.9000
 3700SOL     hw14799   0.303   5.661   5.770 -1.5198  0.2127 -1.2098
 3700SOL     vw14800   0.347   5.716   5.718  0.1784  0.0319 -0.0353
 3701SOL     ow14801   3.396   1.454   0.115  0.3461  0.0629 -0.6929
 3701SOL     hw14802   3.428   1.365   0.099  0.6340  0.0823 -0.2317
 3701SOL     hw14803   3.411   1.469   0.208 -0.7843  0.1559 -0.5017
 3701SOL     vw14804   3.402   1.444   0.125  0.2351  0.0777 -0.6068
 3702SOL     ow14805   0.995   2.462   5.094 -0.5249  0.1692  0.0035
 3702SOL     hw14806   0.969   2.406   5.168  0.4078 -1.6890 -1.0002
 3702SOL     hw14807   1.077   2.424   5.063 -0.7508  1.0584 -1.8219
 3702SOL     vw14808   1.002   2.449   5.100 -0.4316  0.0414 -0.3700
 3703SOL     ow14809   0.105   1.823   0.597 -0.6521  0.6048  0.0742
 3703SOL     hw14810   0.030   1.767   0.616 -0.2401  0.8041  2.7205
 3703SOL     hw14811   0.071   1.912   0.601 -0.3367  0.6909  1.1402
 3703SOL     vw14812   0.091   1.827   0.600 -0.5561  0.6425  0.5640
 3704SOL     ow14813   4.611   2.494   3.426 -0.5515 -0.6577  0.1400
 3704SOL     hw14814   4.661   2.444   3.491  0.1131 -0.3180 -0.0967
 3704SOL     hw14815   4.522   2.461   3.433 -1.1600  1.2875  3.1703
 3704SOL     vw14816   4.606   2.483   3.435 -0.5441 -0.3562  0.5085
 3705SOL     ow14817   1.263   6.406   1.594  0.6678  0.0589  0.0529
 3705SOL     hw14818   1.243   6.317   1.620 -2.4000  0.2733 -1.1270
 3705SOL     hw14819   1.353   6.421   1.624  0.0632 -2.1664  3.4657
 3705SOL     vw14820   1.272   6.396   1.601  0.1833 -0.2065  0.3475
 3706SOL     ow14821   0.451   5.961   1.911 -0.0030  1.1022  0.1355
 3706SOL     hw14822   0.369   5.966   1.862 -0.1659 -1.3355  0.0728
 3706SOL     hw14823   0.504   6.032   1.875 -1.6618  2.0395 -0.5774
 3706SOL     vw14824   0.447   5.971   1.900 -0.2434  0.9043  0.0332
 3707SOL     ow14825   4.162   0.663   7.121  0.1593  0.3425  0.0274
 3707SOL     hw14826   4.074   0.698   7.135 -0.2325 -0.4051 -0.5157
 3707SOL     hw14827   4.153   0.603   7.048  0.9710 -0.3363  0.4619
 3707SOL     vw14828   4.149   0.660   7.114  0.2143  0.1543  0.0131
 3708SOL     ow14829   2.560   6.572   7.358  0.4682 -0.0086  0.0143
 3708SOL     hw14830   2.593   6.513   7.427 -3.4015 -2.2571  0.2255
 3708SOL     hw14831   2.602   6.541   7.278  0.7271 -1.1764  0.5734
 3708SOL     vw14832   2.570   6.560   7.357 -0.0081 -0.4592  0.1161
 3709SOL     ow14833   0.471   2.985   2.000 -0.1348  1.0863  0.8323
 3709SOL     hw14834   0.519   2.922   1.947 -0.7628  0.1840  1.2977
 3709SOL     hw14835   0.536   3.050   2.026 -0.0709  2.3729 -2.1665
 3709SOL     vw14836   0.486   2.985   1.997 -0.2092  1.1370  0.4981
 3710SOL     ow14837   6.628   2.275   0.685  0.7747 -0.2144  0.1074
 3710SOL     hw14838   6.674   2.352   0.651  0.0390 -1.2727 -3.8600
 3710SOL     hw14839   6.549   2.311   0.726  0.8758  1.2420 -0.8865
 3710SOL     vw14840   6.623   2.290   0.686  0.6912 -0.1619 -0.5472
 3711SOL     ow14841   1.239   2.097   1.768  0.1519  0.6912  0.0341
 3711SOL     hw14842   1.179   2.069   1.699  1.3350  2.0922 -1.6867
 3711SOL     hw14843   1.261   2.017   1.815 -0.3244 -0.4374 -1.5648
 3711SOL     vw14844   1.234   2.083   1.765  0.2451  0.7271 -0.4039
 3712SOL     ow14845   2.263   0.049   5.270 -0.4661  0.0065 -0.0863
 3712SOL     hw14846   2.253   0.111   5.343 -1.3000  0.1838 -0.3413
 3712SOL     hw14847   2.173   0.028   5.244 -0.2183  1.3155 -2.2164
 3712SOL     vw14848   2.250   0.055   5.276 -0.5435  0.2026 -0.4010
 3713SOL     ow14849   0.695   2.131   2.490  0.0286 -1.0075 -0.0171
 3713SOL     hw14850   0.764   2.104   2.551 -0.0383 -1.6450 -0.2159
 3713SOL     hw14851   0.741   2.179   2.421  0.1768 -0.7884  0.2321
 3713SOL     vw14852   0.710   2.134   2.489  0.0393 -1.0626 -0.0104
 3714SOL     ow14853   4.389   0.807   6.920 -0.3884  0.0764  0.6282
 3714SOL     hw14854   4.444   0.797   6.998 -1.0185  0.6060  1.1557
 3714SOL     hw14855   4.317   0.863   6.949 -0.1817  1.0024 -0.5599
 3714SOL     vw14856   4.387   0.813   6.934 -0.4444  0.2684  0.5412
 3715SOL     ow14857   6.758   7.012   4.389 -0.2223  0.2788  1.0833
 3715SOL     hw14858   6.736   6.964   4.469  0.0906  0.4987  1.3018
 3715SOL     hw14859   6.677   7.056   4.364  0.0291  1.3021  2.0344
 3715SOL     vw14860   6.745   7.011   4.396 -0.1481  0.4430  1.2379
 3716SOL     ow14861   2.187   6.101   4.216 -0.2987 -0.1040  1.0933
 3716SOL     hw14862   2.127   6.136   4.150  0.9795  0.4978  0.2030
 3716SOL     hw14863   2.241   6.038   4.168  0.6153  0.3015  1.5586
 3716SOL     vw14864   2.186   6.097   4.201 -0.0095  0.0288  1.0371
 3717SOL     ow14865   5.581   3.154   3.482 -0.0057 -0.2710  0.3944
 3717SOL     hw14866   5.536   3.122   3.404 -0.6395  0.7873  0.3132
 3717SOL     hw14867   5.668   3.179   3.451 -0.0335 -0.4536  0.1609
 3717SOL     vw14868   5.586   3.153   3.468 -0.0930 -0.1554  0.3531
 3718SOL     ow14869   4.307   5.440   3.817 -0.4860  0.1600 -0.3360
 3718SOL     hw14870   4.248   5.365   3.804  1.3724 -1.3095 -0.7552
 3718SOL     hw14871   4.314   5.480   3.730 -0.1232 -0.2503 -0.4976
 3718SOL     vw14872   4.300   5.435   3.804 -0.1934 -0.0880 -0.4127
 3719SOL     ow14873   4.002   1.030   7.029  0.5286 -0.1429 -0.5180
 3719SOL     hw14874   4.010   1.020   7.123 -3.4664 -0.2738 -0.0215
 3719SOL     hw14875   4.086   1.067   7.001  1.5549  0.6727  3.1505
 3719SOL     vw14876   4.014   1.033   7.037  0.1371 -0.0525  0.0315
 3720SOL     ow14877   0.983   6.017   2.095  0.0221 -0.6590  0.0449
 3720SOL     hw14878   0.925   5.978   2.030 -0.6621  0.4456 -0.0373
 3720SOL     hw14879   1.059   5.958   2.099  0.2400 -0.5701 -1.9887
 3720SOL     vw14880   0.985   6.004   2.087 -0.0394 -0.5016 -0.2344
 3721SOL     ow14881   2.512   3.039   1.161  0.0063  1.0253 -0.2132
 3721SOL     hw14882   2.542   3.080   1.243  0.4239  0.8670 -0.2827
 3721SOL     hw14883   2.559   3.087   1.092  0.4748  0.4638 -0.2984
 3721SOL     vw14884   2.522   3.051   1.163  0.1233  0.9302 -0.2337
 3722SOL     ow14885   6.771   6.278   1.929 -1.2006 -0.0194 -0.7338
 3722SOL     hw14886   6.702   6.230   1.974 -1.0466  0.2041 -0.2511
 3722SOL     hw14887   6.749   6.370   1.942 -0.0583  0.0927  0.6766
 3722SOL     vw14888   6.759   6.284   1.936 -1.0297  0.0248 -0.4841
 3723SOL     ow14889   0.614   4.831   0.910 -0.0104 -0.3236  0.1798
 3723SOL     hw14890   0.618   4.858   1.002 -0.9038 -1.2448  0.5048
 3723SOL     hw14891   0.705   4.821   0.884  0.2302 -1.3002  1.3466
 3723SOL     vw14892   0.627   4.834   0.919 -0.0965 -0.5739  0.3767
 3724SOL     ow14893   4.471   5.801   3.492 -0.3296 -0.1571 -0.1479
 3724SOL     hw14894   4.402   5.760   3.545 -0.2525 -0.9360 -0.6362
 3724SOL     hw14895   4.438   5.889   3.475 -0.1149  0.3184  1.6361
 3724SOL     vw14896   4.457   5.807   3.497 -0.2909 -0.1969  0.0231
 3725SOL     ow14897   4.371   5.215   1.723 -0.0435  0.0296 -0.6444
 3725SOL     hw14898   4.288   5.175   1.750 -1.2634  1.1145 -2.5378
 3725SOL     hw14899   4.431   5.141   1.713 -1.1823 -0.9330 -0.5748
 3725SOL     vw14900   4.368   5.200   1.725 -0.3548  0.0455 -0.8850
 3726SOL     ow14901   5.544   3.311   5.427 -0.3052  0.0629 -0.3871
 3726SOL     hw14902   5.535   3.365   5.348  0.6400  3.0261  1.3715
 3726SOL     hw14903   5.456   3.276   5.441 -0.6701  0.0619 -2.3038
 3726SOL     vw14904   5.531   3.314   5.418 -0.2284  0.4538 -0.4079
 3727SOL     ow14905   6.088   1.380   3.337  0.0982 -0.2479 -0.5865
 3727SOL     hw14906   6.073   1.432   3.417 -1.7839  0.4550 -1.3424
 3727SOL     hw14907   6.023   1.310   3.341 -0.3098  0.0484 -1.6966
 3727SOL     vw14908   6.078   1.378   3.348 -0.2036 -0.1161 -0.8326
 3728SOL     ow14909   2.816   7.246   1.451 -0.3717  0.0452 -0.6716
 3728SOL     hw14910   2.907   7.255   1.423 -0.3602 -0.2762 -0.7511
 3728SOL     hw14911   2.782   7.335   1.455  0.7861  0.4322  2.2322
 3728SOL     vw14912   2.823   7.259   1.448 -0.2176  0.0539 -0.2989
 3729SOL     ow14913   6.407   6.807   5.622  0.0153 -0.1222 -0.3693
 3729SOL     hw14914   6.374   6.858   5.548 -0.4804  1.5074  0.9137
 3729SOL     hw14915   6.344   6.824   5.692 -0.2685 -2.7087  0.0797
 3729SOL     vw14916   6.394   6.816   5.621 -0.0877 -0.2484 -0.1407
 3730SOL     ow14917   5.908   3.757   1.520  0.5016 -0.1956  0.0320
 3730SOL     hw14918   5.928   3.814   1.595 -2.3772 -2.2841  2.6319
 3730SOL     hw14919   5.831   3.708   1.548  0.3545 -2.3907 -3.7028
 3730SOL     vw14920   5.900   3.758   1.534  0.1025 -0.7609 -0.1177
 3731SOL     ow14921   5.469   6.931   3.178  0.1966  1.0533 -0.5877
 3731SOL     hw14922   5.510   6.937   3.091  2.7086  0.4868  0.4893
 3731SOL     hw14923   5.460   6.837   3.193  4.3825  0.7967  1.6631
 3731SOL     vw14924   5.473   6.920   3.168  1.0803  0.9444 -0.1485
 3732SOL     ow14925   7.443   2.590   0.133  0.1991  0.2363  0.4394
 3732SOL     hw14926   7.440   2.600   0.038 -1.4615 -0.7425  0.3497
 3732SOL     hw14927   7.472   2.499   0.146 -1.3836 -0.2456  0.7950
 3732SOL     vw14928   7.446   2.579   0.122 -0.2286  0.0434  0.4745
 3733SOL     ow14929   4.366   0.653   3.949 -0.0699 -0.4548 -0.7364
 3733SOL     hw14930   4.341   0.687   3.863  0.6013 -0.9099 -1.1213
 3733SOL     hw14931   4.461   0.645   3.945 -0.1064 -1.2311 -0.2347
 3733SOL     vw14932   4.375   0.656   3.937  0.0141 -0.6172 -0.7210
 3734SOL     ow14933   2.936   6.443   0.786 -0.7272 -0.2151 -0.0699
 3734SOL     hw14934   2.944   6.524   0.735  0.6471  0.1383  0.6793
 3734SOL     hw14935   2.841   6.430   0.794 -1.0026 -0.1422 -2.4622
 3734SOL     vw14936   2.925   6.452   0.780 -0.5822 -0.1590 -0.2867
 3735SOL     ow14937   2.294   3.516   5.371 -0.6443  0.0621 -1.0860
 3735SOL     hw14938   2.313   3.606   5.346 -0.4034  0.5131  0.5774
 3735SOL     hw14939   2.349   3.463   5.314  1.6018  1.1164 -0.0142
 3735SOL     vw14940   2.304   3.521   5.360 -0.3163  0.2606 -0.7250
 3736SOL     ow14941   6.172   4.453   0.554  0.1527  0.1846 -0.6398
 3736SOL     hw14942   6.228   4.376   0.563 -0.0345 -0.0231 -1.2177
 3736SOL     hw14943   6.150   4.477   0.644 -2.0400 -2.0675 -0.4856
 3736SOL     vw14944   6.177   4.446   0.567 -0.1614 -0.1397 -0.6957
 3737SOL     ow14945   4.281   3.082   3.594 -0.4827  0.3945 -0.7353
 3737SOL     hw14946   4.243   3.061   3.508  0.2558  0.1309 -1.0031
 3737SOL     hw14947   4.290   2.998   3.638 -2.5806  0.6792  0.3636
 3737SOL     vw14948   4.277   3.068   3.588 -0.6623  0.3973 -0.6257
 3738SOL     ow14949   2.698   0.151   6.127 -0.5026  0.2436 -0.3467
 3738SOL     hw14950   2.720   0.076   6.072 -0.6798 -0.7963  0.9387
 3738SOL     hw14951   2.697   0.226   6.067 -2.7694 -1.1116 -2.1581
 3738SOL     vw14952   2.701   0.151   6.112 -0.8250 -0.0724 -0.4160
 3739SOL     ow14953   0.954   2.102   3.705 -0.5327 -0.0124 -0.8715
 3739SOL     hw14954   0.957   2.176   3.644 -0.4672  0.1337 -0.6921
 3739SOL     hw14955   0.920   2.139   3.787 -1.4269 -0.3841 -1.0645
 3739SOL     vw14956   0.950   2.116   3.708 -0.6421 -0.0424 -0.8733
 3740SOL     ow14957   1.997   6.362   5.378 -0.5134  0.3582  0.1508
 3740SOL     hw14958   1.982   6.430   5.443 -0.3755  0.0060  0.5583
 3740SOL     hw14959   1.993   6.407   5.294 -0.7724  0.8054  0.4001
 3740SOL     vw14960   1.994   6.377   5.375 -0.5293  0.3707  0.2375
 3741SOL     ow14961   4.255   0.463   7.326 -0.3391 -0.1721 -0.2481
 3741SOL     hw14962   4.349   0.478   7.335 -0.3819  0.4949 -0.8019
 3741SOL     hw14963   4.232   0.507   7.244 -1.7898  2.9084  1.6413
 3741SOL     vw14964   4.265   0.471   7.316 -0.5360  0.3224 -0.0718
 3742SOL     ow14965   3.500   1.045   1.128 -0.2834 -0.0644  0.2723
 3742SOL     hw14966   3.433   1.084   1.183 -0.0380 -0.6665  1.0119
 3742SOL     hw14967   3.452   0.984   1.071 -0.3808 -0.4563  0.7652
 3742SOL     vw14968   3.485   1.042   1.128 -0.2639 -0.1954  0.4349
 3743SOL     ow14969   2.362   1.477   1.730 -0.3701 -0.2589 -0.4069
 3743SOL     hw14970   2.345   1.434   1.646 -0.2535 -1.3182  0.0980
 3743SOL     hw14971   2.454   1.460   1.748 -0.0253  1.1749 -0.7237
 3743SOL     vw14972   2.372   1.469   1.721 -0.3093 -0.2095 -0.3821
 3744SOL     ow14973   0.614   6.496   3.017 -0.3166 -0.0632  0.4155
 3744SOL     hw14974   0.654   6.434   3.079 -0.5392  0.6153  1.2464
 3744SOL     hw14975   0.688   6.544   2.979 -0.3167  1.7049  2.4924
 3744SOL     vw14976   0.629   6.494   3.020 -0.3460  0.2599  0.7991
 3745SOL     ow14977   7.044   6.045   0.740 -0.3220 -0.6958 -0.3440
 3745SOL     hw14978   7.074   6.076   0.655  1.2666  1.6092  0.9347
 3745SOL     hw14979   6.979   6.109   0.768 -0.5844 -1.2456  0.3303
 3745SOL     vw14980   7.040   6.057   0.733 -0.1469 -0.4642 -0.0863
 3746SOL     ow14981   6.487   1.184   1.895 -0.0205  0.3852  0.0299
 3746SOL     hw14982   6.433   1.131   1.954 -1.6456 -1.2610 -2.6990
 3746SOL     hw14983   6.539   1.120   1.847  3.3753  1.8357  1.4250
 3746SOL     vw14984   6.487   1.168   1.897  0.2131  0.3594 -0.1460
 3747SOL     ow14985   1.233   5.359   1.891  0.0351  0.1526  0.4618
 3747SOL     hw14986   1.215   5.450   1.869 -0.6016 -0.0898 -0.0848
 3747SOL     hw14987   1.304   5.362   1.954  0.6654  0.9853 -0.2646
 3747SOL     vw14988   1.240   5.371   1.896  0.0342  0.2306  0.2939
 3748SOL     ow14989   1.424   6.902   3.866  0.2552 -0.4178 -0.0755
 3748SOL     hw14990   1.484   6.836   3.830  0.9909  1.1352 -1.8284
 3748SOL     hw14991   1.481   6.964   3.911 -0.3971 -0.7043  1.1984
 3748SOL     vw14992   1.440   6.901   3.868  0.2662 -0.2506 -0.1389
 3749SOL     ow14993   2.245   6.626   2.193 -0.2975  0.2114  0.4353
 3749SOL     hw14994   2.244   6.559   2.261  0.6626  0.0146  0.2764
 3749SOL     hw14995   2.242   6.577   2.111 -1.2574  0.4391  0.3210
 3749SOL     vw14996   2.245   6.611   2.191 -0.2977  0.2155  0.3994
 3750SOL     ow14997   0.619   2.923   6.213  0.0790  0.5839  0.6606
 3750SOL     hw14998   0.537   2.965   6.187 -1.4881 -1.3834  2.0931
 3750SOL     hw14999   0.611   2.833   6.180  0.9937 -0.0525  2.1012
 3750SOL     vw15000   0.607   2.916   6.205 -0.0071  0.2404  1.0397
 3751SOL     ow15001   1.964   2.516   1.797 -0.5582  0.1607 -0.2376
 3751SOL     hw15002   1.954   2.589   1.859 -0.6499  0.0046 -0.0692
 3751SOL     hw15003   2.043   2.538   1.748 -0.9677  0.7204 -0.6628
 3751SOL     vw15004   1.973   2.529   1.799 -0.6243  0.2139 -0.2714
 3752SOL     ow15005   4.549   0.158   2.400 -0.6227  0.7858 -0.7038
 3752SOL     hw15006   4.614   0.217   2.439 -1.0953 -0.2482  1.8782
 3752SOL     hw15007   4.487   0.216   2.356  1.3066  1.8756 -2.1243
 3752SOL     vw15008   4.550   0.173   2.400 -0.4306  0.7931 -0.5506
 3753SOL     ow15009   0.046   4.776   5.255 -0.3254 -0.2086  0.2621
 3753SOL     hw15010  -0.020   4.799   5.320 -0.1896  0.5596  0.1291
 3753SOL     hw15011   0.111   4.725   5.304 -0.8262 -0.6583  0.4684
 3753SOL     vw15012   0.046   4.772   5.270 -0.3736 -0.1664  0.2718
 3754SOL     ow15013   7.282   2.976   0.204 -0.9372  0.2073  0.3158
 3754SOL     hw15014   7.312   2.915   0.271 -0.8584  0.3026  0.3680
 3754SOL     hw15015   7.206   3.020   0.243 -1.7791 -0.7370 -0.1835
 3754SOL     vw15016   7.276   2.974   0.218 -1.0378  0.0954  0.2568
 3755SOL     ow15017   4.238   3.679   1.277 -0.1810  0.6289  0.3633
 3755SOL     hw15018   4.316   3.637   1.240  1.4854  3.2655  0.6615
 3755SOL     hw15019   4.233   3.645   1.366  1.3669  1.2997  0.7356
 3755SOL     vw15020   4.248   3.669   1.284  0.2429  1.0651  0.4519
 3756SOL     ow15021   2.271   6.554   5.953  0.1000 -0.3940  0.0970
 3756SOL     hw15022   2.328   6.532   6.026  1.3257 -0.7104 -0.9161
 3756SOL     hw15023   2.314   6.515   5.876 -1.2192 -0.2087 -0.7740
 3756SOL     vw15024   2.284   6.546   5.952  0.0875 -0.4113 -0.1514
 3757SOL     ow15025   2.975   4.556   6.207 -0.2482 -0.6786 -0.1785
 3757SOL     hw15026   2.999   4.465   6.227 -0.8144 -0.9677 -0.7574
 3757SOL     hw15027   3.059   4.603   6.204  0.0534 -1.1904  0.0889
 3757SOL     vw15028   2.989   4.550   6.209 -0.2832 -0.7842 -0.2196
 3758SOL     ow15029   3.069   5.996   1.253 -0.4633 -0.2773  0.2764
 3758SOL     hw15030   3.147   5.970   1.205  1.2044 -1.5601  3.3440
 3758SOL     hw15031   2.999   5.995   1.188  1.4410 -2.4664 -1.9615
 3758SOL     vw15032   3.070   5.993   1.238  0.0081 -0.7355  0.3859
 3759SOL     ow15033   7.420   2.810   1.423  0.5792  0.1358  0.1681
 3759SOL     hw15034   7.391   2.757   1.349  1.5524 -1.2199  0.7181
 3759SOL     hw15035   7.426   2.899   1.388  2.8117 -0.7293 -1.9484
 3759SOL     vw15036   7.417   2.815   1.409  1.0021 -0.1571 -0.0385
 3760SOL     ow15037   2.261   0.415   2.806  0.3140 -0.1403 -0.2278
 3760SOL     hw15038   2.297   0.346   2.751  0.1670 -0.2791 -0.1526
 3760SOL     hw15039   2.206   0.369   2.869 -0.0498  0.0717 -0.3836
 3760SOL     vw15040   2.258   0.400   2.807  0.2465 -0.1307 -0.2384
 3761SOL     ow15041   3.431   4.288   5.595 -0.0634  0.7516 -0.2850
 3761SOL     hw15042   3.343   4.300   5.631 -0.2231 -0.0025 -0.4092
 3761SOL     hw15043   3.487   4.344   5.650 -0.6324  1.3356 -0.2864
 3761SOL     vw15044   3.427   4.297   5.607 -0.1595  0.7291 -0.3018
 3762SOL     ow15045   6.820   0.647   1.843  0.1726 -0.4136 -0.8322
 3762SOL     hw15046   6.846   0.720   1.786 -1.4648  1.0419  0.1622
 3762SOL     hw15047   6.825   0.570   1.787 -0.2460  0.7832 -2.6162
 3762SOL     vw15048   6.824   0.647   1.828 -0.0987 -0.0637 -0.9364
 3763SOL     ow15049   4.566   4.902   3.654 -0.1711  0.0603  0.2572
 3763SOL     hw15050   4.498   4.891   3.588  0.4962 -0.0989 -0.4117
 3763SOL     hw15051   4.567   4.819   3.701  0.5124 -0.4463 -0.6436
 3763SOL     vw15052   4.557   4.890   3.652  0.0072 -0.0274  0.0502
 3764SOL     ow15053   4.364   5.338   6.973  0.0675  0.3173  0.2724
 3764SOL     hw15054   4.397   5.276   7.037 -1.8943  2.2726  3.4379
 3764SOL     hw15055   4.289   5.294   6.933  0.1045 -0.1671  0.7309
 3764SOL     vw15056   4.359   5.324   6.976 -0.1864  0.5114  0.7505
 3765SOL     ow15057   0.875   4.162   7.547 -0.1027 -0.0996 -1.0252
 3765SOL     hw15058   0.956   4.113   7.535 -0.9375 -1.3879 -1.5758
 3765SOL     hw15059   0.895   4.223   7.619  0.4931 -2.3155  0.8228
 3765SOL     vw15060   0.889   4.164   7.555 -0.1342 -0.5622 -0.8540
 3766SOL     ow15061   4.110   7.288   0.406 -0.0652 -0.1495 -0.0060
 3766SOL     hw15062   4.021   7.254   0.411 -0.4508 -0.1123 -3.7901
 3766SOL     hw15063   4.152   7.258   0.486 -2.5920 -2.8022  0.4772
 3766SOL     vw15064   4.104   7.280   0.417 -0.4497 -0.4942 -0.4415
 3767SOL     ow15065   2.938   0.380   1.277 -0.2971  0.0341 -0.2816
 3767SOL     hw15066   2.897   0.364   1.192  0.4073 -1.0805 -0.4265
 3767SOL     hw15067   2.988   0.301   1.295 -1.9965 -0.6284  2.0922
 3767SOL     vw15068   2.939   0.368   1.268 -0.4282 -0.2003  0.0125
 3768SOL     ow15069   1.511   1.008   5.690  0.5846 -0.1610  0.2311
 3768SOL     hw15070   1.435   0.961   5.723  0.7207 -0.0294  0.7371
 3768SOL     hw15071   1.534   0.963   5.609  0.0853 -0.3187  0.1753
 3768SOL     vw15072   1.504   0.996   5.684  0.5367 -0.1644  0.2906
 3769SOL     ow15073   2.124   2.748   3.684 -0.5136 -0.0070  0.4921
 3769SOL     hw15074   2.175   2.719   3.760  0.9639  1.7845  0.2433
 3769SOL     hw15075   2.157   2.694   3.612 -1.1031 -0.9134  0.8841
 3769SOL     vw15076   2.135   2.737   3.685 -0.3965  0.1098  0.5111
 3770SOL     ow15077   3.959   6.714   0.185  0.6470  0.4515 -0.5479
 3770SOL     hw15078   4.040   6.766   0.189  0.8977  0.0128  0.3583
 3770SOL     hw15079   3.897   6.762   0.240  0.1286  1.0307 -1.6078
 3770SOL     vw15080   3.962   6.727   0.192  0.6117  0.4699 -0.5682
 3771SOL     ow15081   0.906   3.060   7.302 -0.5593  0.3964 -0.4538
 3771SOL     hw15082   0.851   3.027   7.231 -0.7099 -0.5621  0.1019
 3771SOL     hw15083   0.921   2.985   7.359 -0.8494  1.2601  0.8076
 3771SOL     vw15084   0.901   3.046   7.300 -0.6174  0.3839 -0.2141
 3772SOL     ow15085   4.427   4.791   0.354  0.6466  0.3456 -0.1163
 3772SOL     hw15086   4.436   4.698   0.376 -0.4261  0.3841  0.5542
 3772SOL     hw15087   4.368   4.793   0.279  3.5989  0.2807 -2.6202
 3772SOL     vw15088   4.421   4.779   0.347  0.8948  0.3421 -0.3582
 3773SOL     ow15089   0.762   2.938   4.613 -0.1474  0.2035 -0.0108
 3773SOL     hw15090   0.844   2.961   4.657 -1.5609  1.3914  2.2057
 3773SOL     hw15091   0.780   2.951   4.520  2.1713  0.3921  0.3981
 3773SOL     vw15092   0.776   2.943   4.607 -0.0280  0.3853  0.3357
 3774SOL     ow15093   3.497   4.003   3.714  0.3132 -0.9049 -0.6510
 3774SOL     hw15094   3.520   4.096   3.715  1.0145 -1.0664 -1.4650
 3774SOL     hw15095   3.430   3.996   3.646 -1.6217 -0.5932  1.1018
 3774SOL     vw15096   3.491   4.015   3.705  0.1503 -0.8850 -0.5271
 3775SOL     ow15097   7.202   5.730   4.522  0.0764  0.6094 -0.3948
 3775SOL     hw15098   7.275   5.736   4.460  2.9812 -0.9033  2.5550
 3775SOL     hw15099   7.162   5.816   4.521  2.7222  1.9328 -1.3258
 3775SOL     vw15100   7.207   5.742   4.514  0.8087  0.5844 -0.1283
 3776SOL     ow15101   6.146   5.137   2.367 -0.3205  0.1524 -0.0579
 3776SOL     hw15102   6.106   5.222   2.347 -0.1758  0.3539  0.5210
 3776SOL     hw15103   6.167   5.141   2.460 -0.2898 -0.5097 -0.0321
 3776SOL     vw15104   6.143   5.148   2.376 -0.2973  0.0916  0.0217
 3777SOL     ow15105   5.880   7.216   7.495  0.1966  0.7415  0.2233
 3777SOL     hw15106   5.824   7.237   7.570 -0.4161  0.4578 -0.1503
 3777SOL     hw15107   5.819   7.194   7.425  0.7652 -1.8913  0.4590
 3777SOL     vw15108   5.865   7.216   7.496  0.1910  0.3567  0.2055
 3778SOL     ow15109   6.024   4.081   7.574 -0.0480  0.5759 -0.1922
 3778SOL     hw15110   6.032   4.172   7.548  0.4896  0.5003 -0.3016
 3778SOL     hw15111   6.046   4.031   7.495  0.8468  0.3528  0.1779
 3778SOL     vw15112   6.028   4.086   7.560  0.1409  0.5364 -0.1578
 3779SOL     ow15113   7.272   4.093   5.908 -0.6648 -0.3548 -0.0463
 3779SOL     hw15114   7.182   4.116   5.883 -1.2118 -1.0736  1.2003
 3779SOL     hw15115   7.306   4.173   5.948 -0.2506  0.3612 -1.7289
 3779SOL     vw15116   7.264   4.107   5.910 -0.6826 -0.3552 -0.1040
 3780SOL     ow15117   1.653   2.337   6.815  0.2436  0.1167  0.4917
 3780SOL     hw15118   1.742   2.308   6.795  0.4642  1.5759 -0.9089
 3780SOL     hw15119   1.644   2.325   6.909  2.7802  2.0615  1.0918
 3780SOL     vw15120   1.663   2.332   6.825  0.6074  0.5658  0.3862
 3781SOL     ow15121   0.763   5.644   1.810 -0.5409 -0.3560 -0.9129
 3781SOL     hw15122   0.680   5.634   1.856 -0.7430 -0.4080 -1.2880
 3781SOL     hw15123   0.757   5.583   1.736  0.0281 -0.7238 -0.6670
 3781SOL     vw15124   0.751   5.634   1.806 -0.4925 -0.4113 -0.9299
 3782SOL     ow15125   2.097   4.634   5.895 -0.0162 -0.0267  0.5169
 3782SOL     hw15126   2.066   4.724   5.888 -0.2287 -0.1348  0.0512
 3782SOL     hw15127   2.034   4.591   5.952 -0.1643  0.0082  0.3804
 3782SOL     vw15128   2.085   4.640   5.902 -0.0637 -0.0362  0.4377
 3783SOL     ow15129   6.661   6.893   1.102  0.7535 -0.5045  0.2400
 3783SOL     hw15130   6.587   6.841   1.133  0.7413 -0.8230 -0.3132
 3783SOL     hw15131   6.658   6.885   1.007  0.5950  0.7187  0.1241
 3783SOL     vw15132   6.651   6.885   1.094  0.7312 -0.3850  0.1517
 3784SOL     ow15133   6.142   0.508   1.191 -0.0354 -0.3246 -0.1406
 3784SOL     hw15134   6.139   0.413   1.182  1.6587 -0.4125 -0.0700
 3784SOL     hw15135   6.057   0.531   1.229  0.1376 -2.0098  1.4306
 3784SOL     vw15136   6.130   0.498   1.195  0.2108 -0.5585  0.0761
 3785SOL     ow15137   6.260   4.367   2.053  0.5262 -0.2941  0.0179
 3785SOL     hw15138   6.350   4.373   2.019  0.0108 -0.9824 -1.5298
 3785SOL     hw15139   6.207   4.342   1.978 -1.1871  1.3175  0.5955
 3785SOL     vw15140   6.265   4.365   2.039  0.2317 -0.1721 -0.1100
 3786SOL     ow15141   1.087   7.040   0.246  0.0668  0.0539  0.2137
 3786SOL     hw15142   1.136   7.088   0.179  1.9886  0.8725  2.0580
 3786SOL     hw15143   1.104   6.948   0.226  1.0488  0.2919 -0.1508
 3786SOL     vw15144   1.096   7.034   0.234  0.4500  0.1934  0.4089
 3787SOL     ow15145   3.148   4.600   4.931  0.2857  0.2472  0.7727
 3787SOL     hw15146   3.214   4.590   4.862  0.7203 -1.4376  1.3900
 3787SOL     hw15147   3.070   4.556   4.896  0.2537  0.0984  1.0330
 3787SOL     vw15148   3.146   4.593   4.917  0.3387  0.0052  0.8888
 3788SOL     ow15149   0.368   4.722   3.956 -0.0158  0.1148 -0.1527
 3788SOL     hw15150   0.349   4.795   4.015  1.6875 -0.8271  1.6566
 3788SOL     hw15151   0.375   4.762   3.869 -0.2133  1.9228  0.6287
 3788SOL     vw15152   0.366   4.737   3.952  0.1829  0.2289  0.1891
 3789SOL     ow15153   7.150   5.910   1.152 -0.3606 -1.0667 -0.5403
 3789SOL     hw15154   7.189   5.985   1.106  1.3178 -1.9047 -0.5420
 3789SOL     hw15155   7.116   5.854   1.083 -0.2658 -1.0188 -0.6262
 3789SOL     vw15156   7.151   5.913   1.137 -0.1266 -1.1711 -0.5518
 3790SOL     ow15157   0.358   1.853   2.888  0.0064 -1.0580 -0.3469
 3790SOL     hw15158   0.335   1.839   2.980  1.6652  1.2292  0.5118
 3790SOL     hw15159   0.379   1.766   2.855  0.1289 -1.8449  1.6790
 3790SOL     vw15160   0.358   1.840   2.896  0.2414 -0.8600  0.0336
 3791SOL     ow15161   5.025   3.995   2.865  0.1777 -0.2210 -0.9178
 3791SOL     hw15162   5.010   4.060   2.796  1.0665 -0.2596 -1.1492
 3791SOL     hw15163   4.939   3.984   2.906 -0.0687  0.7900 -1.1456
 3791SOL     vw15164   5.011   4.002   2.861  0.2625 -0.0927 -0.9784
 3792SOL     ow15165   7.137   6.707   1.548  0.3298  0.0844 -0.6939
 3792SOL     hw15166   7.143   6.706   1.453  0.5272  2.0079 -0.7317
 3792SOL     hw15167   7.139   6.800   1.572  0.8834 -0.3693  1.2229
 3792SOL     vw15168   7.138   6.719   1.539  0.4287  0.2785 -0.4460
 3793SOL     ow15169   3.831   4.141   4.784  0.6323  0.4751 -0.5540
 3793SOL     hw15170   3.913   4.098   4.810 -0.3880 -0.6660  0.9637
 3793SOL     hw15171   3.812   4.202   4.855  0.0548  0.5764 -0.7913
 3793SOL     vw15172   3.840   4.143   4.797  0.4215  0.3381 -0.3850
 3794SOL     ow15173   2.462   0.592   7.515  0.5131  0.3873  0.5380
 3794SOL     hw15174   2.446   0.501   7.487  1.1921  0.1627  0.8550
 3794SOL     hw15175   2.534   0.585   7.577  1.9519  1.3564 -0.9317
 3794SOL     vw15176   2.470   0.579   7.519  0.7926  0.4855  0.3860
 3795SOL     ow15177   0.815   5.269   2.304 -0.4916 -0.0572 -0.3648
 3795SOL     hw15178   0.872   5.202   2.342  0.1412  0.5014 -0.3210
 3795SOL     hw15179   0.800   5.331   2.376 -1.2115 -0.2356 -0.3558
 3795SOL     vw15180   0.820   5.269   2.319 -0.5031 -0.0067 -0.3580
 3796SOL     ow15181   4.201   2.162   6.718 -0.0632  0.5307  0.3020
 3796SOL     hw15182   4.137   2.196   6.655 -1.2489 -2.0439 -0.0311
 3796SOL     hw15183   4.151   2.144   6.797  0.8460  1.0123  1.0140
 3796SOL     vw15184   4.186   2.164   6.720 -0.0997  0.2546  0.3519
 3797SOL     ow15185   1.537   4.325   6.042 -0.1201  0.1366 -0.3835
 3797SOL     hw15186   1.626   4.319   6.076  0.2363  1.3219 -1.0356
 3797SOL     hw15187   1.487   4.260   6.091  0.1507  2.2971  3.0238
 3797SOL     vw15188   1.542   4.315   6.053 -0.0373  0.5779 -0.0200
 3798SOL     ow15189   7.266   3.246   1.034 -0.3684  0.0850  0.2830
 3798SOL     hw15190   7.233   3.335   1.047  0.7157  0.7259 -1.1003
 3798SOL     hw15191   7.223   3.216   0.954  0.5010 -0.0084 -0.1586
 3798SOL     vw15192   7.256   3.254   1.025 -0.1106  0.1571  0.0422
 3799SOL     ow15193   0.489   5.488   5.512  0.3700 -0.4661  0.5295
 3799SOL     hw15194   0.474   5.411   5.567 -1.0414 -0.3928  0.2904
 3799SOL     hw15195   0.521   5.452   5.429  4.6054 -0.4643  1.9666
 3799SOL     vw15196   0.491   5.473   5.508  0.7426 -0.4566  0.6876
 3800SOL     ow15197   7.239   7.588   2.282  0.4493 -0.4663 -0.2806
 3800SOL     hw15198   7.242   7.588   2.186  0.6618  2.9572 -0.4185
 3800SOL     hw15199   7.331   7.587   2.308  0.3856 -1.8206 -0.0631
 3800SOL     vw15200   7.252   7.588   2.273  0.4692 -0.1931 -0.2700
 3801SOL     ow15201   2.045   0.442   6.942  0.0496  0.7825 -0.3013
 3801SOL     hw15202   2.078   0.495   7.015 -1.7839  1.4008  0.1322
 3801SOL     hw15203   2.121   0.389   6.915  0.7628  0.4255  2.1227
 3801SOL     vw15204   2.060   0.442   6.948 -0.0983  0.8170  0.0756
 3802SOL     ow15205   0.368   5.480   5.188 -0.3604 -0.3847  0.6449
 3802SOL     hw15206   0.332   5.530   5.261  0.0994 -3.1408  2.9400
 3802SOL     hw15207   0.450   5.525   5.166 -0.3008  0.2762  2.1186
 3802SOL     vw15208   0.374   5.493   5.194 -0.2918 -0.6609  1.1423
 3803SOL     ow15209   0.799   2.492   2.596 -0.1730 -0.4352 -0.1010
 3803SOL     hw15210   0.815   2.586   2.596  1.9572 -0.6657 -2.3124
 3803SOL     hw15211   0.733   2.479   2.528  0.0483 -0.5810 -0.2903
 3803SOL     vw15212   0.792   2.503   2.587  0.1373 -0.4848 -0.4178
 3804SOL     ow15213   4.168   3.461   1.030 -0.2915  0.6337 -0.0167
 3804SOL     hw15214   4.174   3.457   0.934  0.4581  1.2828 -0.0100
 3804SOL     hw15215   4.251   3.425   1.061 -0.2357  1.0815  0.3695
 3804SOL     vw15216   4.180   3.456   1.021 -0.1853  0.7783  0.0351
 3805SOL     ow15217   1.691   3.652   5.781  0.4950  0.9586 -0.0578
 3805SOL     hw15218   1.773   3.694   5.755  0.3074  0.0037 -2.4123
 3805SOL     hw15219   1.634   3.662   5.706 -0.9192 -0.0233  0.8397
 3805SOL     vw15220   1.695   3.659   5.768  0.2837  0.7031 -0.2501
 3806SOL     ow15221   5.622   7.531   4.886 -0.8383  0.1761 -0.7007
 3806SOL     hw15222   5.629   7.526   4.981 -1.6744 -0.7802 -0.6690
 3806SOL     hw15223   5.530   7.515   4.868 -0.5514 -0.4260 -1.7142
 3806SOL     vw15224   5.611   7.528   4.896 -0.9108 -0.0296 -0.8302
 3807SOL     ow15225   6.261   0.988   3.278  0.1082  0.0848 -0.0533
 3807SOL     hw15226   6.313   1.068   3.285 -0.1313  0.2488 -0.1543
 3807SOL     hw15227   6.199   0.993   3.351 -0.2663  0.2515 -0.3842
 3807SOL     vw15228   6.259   0.999   3.289  0.0269  0.1285 -0.1103
 3808SOL     ow15229   1.029   3.993   6.955  0.5175  0.8189  0.2343
 3808SOL     hw15230   1.083   3.939   6.899  1.2575 -0.2121  1.8726
 3808SOL     hw15231   0.956   4.021   6.899  0.6503 -1.0378 -0.9223
 3808SOL     vw15232   1.026   3.990   6.940  0.6326  0.4379  0.2978
 3809SOL     ow15233   7.467   3.078   1.426  0.2801 -0.4360 -0.0152
 3809SOL     hw15234   7.557   3.093   1.456  0.9452  4.4708 -3.2735
 3809SOL     hw15235   7.417   3.149   1.467 -1.1619 -0.5899 -1.4510
 3809SOL     vw15236   7.472   3.090   1.436  0.1776  0.1911 -0.6346
 3810SOL     ow15237   5.970   4.200   2.446 -0.1841  0.0118  0.4102
 3810SOL     hw15238   5.969   4.183   2.540 -2.8005 -1.8241  0.1604
 3810SOL     hw15239   5.887   4.165   2.414  1.9096 -2.5735 -3.0864
 3810SOL     vw15240   5.959   4.193   2.454 -0.2532 -0.5715 -0.0840
 3811SOL     ow15241   2.257   7.546   0.523  0.0584  0.4128 -0.7129
 3811SOL     hw15242   2.333   7.487   0.523  0.3336  0.7642 -1.1358
 3811SOL     hw15243   2.216   7.534   0.438 -0.6564 -0.1403 -0.3017
 3811SOL     vw15244   2.262   7.537   0.512  0.0002  0.3862 -0.7145
 3812SOL     ow15245   0.933   4.340   4.822  0.6056  0.1593 -0.1223
 3812SOL     hw15246   0.913   4.358   4.730 -0.0470  1.0390  0.1694
 3812SOL     hw15247   1.012   4.287   4.820  0.5564  0.1073 -1.1938
 3812SOL     vw15248   0.940   4.336   4.810  0.5130  0.2687 -0.2251
 3813SOL     ow15249   0.230   5.285   7.299  0.4042  0.0467 -0.4540
 3813SOL     hw15250   0.263   5.241   7.220 -0.1295 -1.1653 -0.0147
 3813SOL     hw15251   0.145   5.245   7.315  0.8316 -0.2591  1.1804
 3813SOL     vw15252   0.223   5.274   7.290  0.3902 -0.1538 -0.1802
 3814SOL     ow15253   4.650   1.801   6.934 -0.4744 -0.0660  0.5111
 3814SOL     hw15254   4.676   1.836   7.019  1.7940 -2.3756  0.8738
 3814SOL     hw15255   4.731   1.798   6.883 -1.1889 -1.6625 -0.6071
 3814SOL     vw15256   4.664   1.805   6.938 -0.2694 -0.5814  0.4115
 3815SOL     ow15257   5.990   6.045   2.268  0.2347  0.4010 -0.2571
 3815SOL     hw15258   5.903   6.033   2.229 -0.2372 -0.2465  0.9414
 3815SOL     hw15259   5.990   6.135   2.301  0.3851  0.7231 -1.1199
 3815SOL     vw15260   5.979   6.055   2.267  0.1924  0.3581 -0.2127
 3816SOL     ow15261   0.107   5.502   4.123 -0.1964 -0.0479 -0.0912
 3816SOL     hw15262   0.148   5.428   4.078 -0.8345 -0.2321 -0.3890
 3816SOL     hw15263   0.084   5.563   4.054  0.8558  0.7140  0.2076
 3816SOL     vw15264   0.109   5.500   4.108 -0.1418  0.0284 -0.0911
 3817SOL     ow15265   6.314   0.003   1.387  0.0165 -0.5200  0.0456
 3817SOL     hw15266   6.274  -0.012   1.472 -1.6096 -1.2581 -0.7876
 3817SOL     hw15267   6.245  -0.018   1.324  1.4842 -1.0475 -1.4872
 3817SOL     vw15268   6.300  -0.001   1.390 -0.0043 -0.6870 -0.2665
 3818SOL     ow15269   4.367   0.796   5.476 -0.0789  0.4341  0.3074
 3818SOL     hw15270   4.390   0.713   5.436 -0.8759  0.6118 -0.5559
 3818SOL     hw15271   4.392   0.787   5.568 -2.3626 -1.6620  0.8248
 3818SOL     vw15272   4.373   0.784   5.483 -0.4854  0.1810  0.2615
 3819SOL     ow15273   6.229   7.076   2.999 -0.0637 -0.8090 -0.6028
 3819SOL     hw15274   6.255   7.127   3.076 -0.7787 -2.0348  0.4763
 3819SOL     hw15275   6.209   7.143   2.933  1.9741  0.2474 -0.2429
 3819SOL     vw15276   6.230   7.092   3.000  0.1106 -0.8311 -0.4129
 3820SOL     ow15277   3.753   7.376   6.685 -0.2195 -0.8944 -0.0187
 3820SOL     hw15278   3.787   7.398   6.598 -0.9827 -0.1691 -0.1578
 3820SOL     hw15279   3.826   7.335   6.730  1.1046  1.2643 -0.0393
 3820SOL     vw15280   3.767   7.374   6.679 -0.1453 -0.5138 -0.0396
 3821SOL     ow15281   1.071   4.955   7.328 -0.0540 -0.1379 -0.4074
 3821SOL     hw15282   1.084   5.046   7.357 -0.0856  0.3524 -1.8572
 3821SOL     hw15283   0.997   4.924   7.379  0.7366  0.2102  1.0272
 3821SOL     vw15284   1.063   4.963   7.339  0.0461 -0.0272 -0.4096
 3822SOL     ow15285   4.659   6.692   4.039  0.0430 -0.8848  0.6678
 3822SOL     hw15286   4.743   6.738   4.045 -0.4055  0.0373  0.1303
 3822SOL     hw15287   4.683   6.599   4.041  1.4598 -0.7897 -3.0408
 3822SOL     vw15288   4.674   6.686   4.040  0.1705 -0.7505  0.1078
 3823SOL     ow15289   0.053   2.036   7.555 -0.1609 -0.9052  0.5314
 3823SOL     hw15290  -0.032   2.075   7.578 -0.1428 -1.6220  1.9076
 3823SOL     hw15291   0.083   2.087   7.480 -1.7225 -0.5152  0.1345
 3823SOL     vw15292   0.045   2.048   7.548 -0.3646 -0.9482  0.6602
 3824SOL     ow15293   7.311   5.631   1.254  0.5138 -0.6837  0.6481
 3824SOL     hw15294   7.283   5.650   1.165 -0.2044  1.0011  1.2025
 3824SOL     hw15295   7.400   5.595   1.244  0.3801 -0.6656 -0.7346
 3824SOL     vw15296   7.319   5.628   1.241  0.4015 -0.4590  0.5389
 3825SOL     ow15297   1.748   4.481   0.921 -0.1029  0.2125  0.0340
 3825SOL     hw15298   1.743   4.574   0.941 -1.3865  0.7142 -2.3486
 3825SOL     hw15299   1.658   4.454   0.905  0.1608 -1.6443  1.3412
 3825SOL     vw15300   1.736   4.490   0.922 -0.2374  0.0336 -0.1079
 3826SOL     ow15301   1.110   6.635   2.357  0.5861 -0.5188 -0.4734
 3826SOL     hw15302   1.088   6.715   2.309  1.7083 -0.4979 -0.9732
 3826SOL     hw15303   1.205   6.636   2.364  0.4685 -0.4453  1.9095
 3826SOL     vw15304   1.120   6.646   2.351  0.7185 -0.5062 -0.2251
 3827SOL     ow15305   5.426   3.586   3.771  0.0889  0.4481  0.1825
 3827SOL     hw15306   5.454   3.668   3.813  1.8359  2.2649 -3.9160
 3827SOL     hw15307   5.500   3.562   3.714 -1.4962 -2.4746 -0.8435
 3827SOL     vw15308   5.440   3.594   3.769  0.1104  0.3021 -0.4936
 3828SOL     ow15309   6.683   4.593   6.039 -0.3012 -0.0835 -0.5037
 3828SOL     hw15310   6.599   4.638   6.037 -0.2573  0.0090 -0.2928
 3828SOL     hw15311   6.665   4.505   6.007 -0.2315  0.3396 -1.7908
 3828SOL     vw15312   6.670   4.587   6.034 -0.2863 -0.0155 -0.6456
 3829SOL     ow15313   3.168   3.653   4.551  0.1116  0.4075 -1.3054
 3829SOL     hw15314   3.162   3.728   4.492 -0.8584  0.0118 -1.7357
 3829SOL     hw15315   3.156   3.691   4.639 -1.8282  0.6175 -1.6093
 3829SOL     vw15316   3.166   3.668   4.555 -0.2723  0.3829 -1.4024
 3830SOL     ow15317   5.711   1.774   7.590 -0.2356  0.0334  0.4085
 3830SOL     hw15318   5.636   1.813   7.545 -0.7967 -0.6259  0.7513
 3830SOL     hw15319   5.755   1.848   7.632 -1.0471  0.3530  0.7126
 3830SOL     vw15320   5.707   1.789   7.589 -0.4165 -0.0114  0.4938
 3831SOL     ow15321   1.212   3.511   6.666  0.4410  0.0129 -0.5082
 3831SOL     hw15322   1.148   3.576   6.638  0.1311  0.4795  1.2030
 3831SOL     hw15323   1.269   3.499   6.590  1.8101  3.8591 -0.2682
 3831SOL     vw15324   1.211   3.518   6.652  0.5808  0.5819 -0.2506
 3832SOL     ow15325   4.442   2.123   3.350  0.3069  0.1543  0.1179
 3832SOL     hw15326   4.425   2.039   3.307  1.0998  0.3896 -0.7066
 3832SOL     hw15327   4.453   2.101   3.442  2.3707 -0.9624 -0.3199
 3832SOL     vw15328   4.441   2.109   3.356  0.6838  0.0380 -0.0485
 3833SOL     ow15329   4.900   2.211   1.544 -0.8506 -0.2370 -0.3294
 3833SOL     hw15330   4.982   2.219   1.495 -0.6038  4.0034  0.3493
 3833SOL     hw15331   4.837   2.261   1.492 -2.1634 -0.7180  0.7484
 3833SOL     vw15332   4.903   2.219   1.531 -0.9913  0.2592 -0.0976
 3834SOL     ow15333   6.137   1.596   2.320  0.5380  0.2380  0.4492
 3834SOL     hw15334   6.057   1.637   2.353  1.2687  1.6229  0.5747
 3834SOL     hw15335   6.148   1.634   2.233  0.1128 -1.3107 -0.3191
 3834SOL     vw15336   6.128   1.606   2.313  0.5782  0.2163  0.3643
 3835SOL     ow15337   1.356   1.319   6.762 -0.2065 -0.1330  0.1867
 3835SOL     hw15338   1.290   1.286   6.701  1.2183 -2.0759 -0.3932
 3835SOL     hw15339   1.439   1.291   6.726  0.7893 -0.2445  2.3756
 3835SOL     vw15340   1.358   1.311   6.749  0.1129 -0.4041  0.3994
 3836SOL     ow15341   6.746   5.972   5.814  1.2531  0.6446  0.4457
 3836SOL     hw15342   6.805   5.986   5.740  1.8208 -0.0258  0.7594
 3836SOL     hw15343   6.663   5.948   5.773  1.6494 -0.0342  0.0168
 3836SOL     vw15344   6.743   5.971   5.799  1.3804  0.4663  0.4306
 3837SOL     ow15345   3.092   2.059   0.583 -0.3287 -0.9236  0.0019
 3837SOL     hw15346   3.101   1.974   0.625  0.7177  0.0663  1.9501
 3837SOL     hw15347   3.069   2.119   0.655 -2.4664  0.2296 -1.5345
 3837SOL     vw15348   3.091   2.056   0.598 -0.4725 -0.6409  0.0562
 3838SOL     ow15349   6.147   2.805   1.933  0.1689 -0.3336 -0.0138
 3838SOL     hw15350   6.069   2.768   1.974  1.2155  0.2473  2.7206
 3838SOL     hw15351   6.116   2.845   1.852 -2.5235  0.5960  1.3810
 3838SOL     vw15352   6.133   2.805   1.927 -0.0484 -0.1343  0.5309
 3839SOL     ow15353   2.332   3.783   5.320 -0.2305  0.3889  1.1066
 3839SOL     hw15354   2.237   3.781   5.313 -0.1608  0.7255 -0.1811
 3839SOL     hw15355   2.349   3.827   5.403 -1.1961  1.1043  0.9419
 3839SOL     vw15356   2.322   3.789   5.330 -0.3488  0.5279  0.9148
 3840SOL     ow15357   7.127   3.132   3.694  0.2784  0.1988  0.6267
 3840SOL     hw15358   7.060   3.180   3.743  1.0812  0.6429  1.3290
 3840SOL     hw15359   7.209   3.174   3.720  0.7966 -0.0578 -0.5355
 3840SOL     vw15360   7.129   3.144   3.704  0.4528  0.2236  0.5660
 3841SOL     ow15361   5.310   4.721   5.828 -0.0843 -0.1573 -0.1094
 3841SOL     hw15362   5.308   4.817   5.818 -0.7299 -0.1072  0.4480
 3841SOL     hw15363   5.242   4.702   5.892 -0.2281 -1.0341 -0.5054
 3841SOL     vw15364   5.301   4.731   5.835 -0.1886 -0.2666 -0.0882
 3842SOL     ow15365   3.010   4.930   2.194  0.7539  0.8118 -0.0141
 3842SOL     hw15366   3.093   4.881   2.197  1.0599  1.3721  1.6727
 3842SOL     hw15367   3.036   5.020   2.175  0.3721  0.7194 -1.0294
 3842SOL     vw15368   3.024   4.935   2.192  0.7441  0.8733  0.0745
 3843SOL     ow15369   5.388   5.223   1.226 -0.1324 -0.0706  0.4281
 3843SOL     hw15370   5.405   5.133   1.200 -1.9809 -0.4969  0.5394
 3843SOL     hw15371   5.345   5.216   1.312 -2.5360  0.7070 -0.6305
 3843SOL     vw15372   5.384   5.210   1.234 -0.6933 -0.0243  0.3031
 3844SOL     ow15373   1.763   1.369   6.786 -0.2043 -0.2783 -0.0978
 3844SOL     hw15374   1.848   1.331   6.765 -0.0583 -0.0354  0.0509
 3844SOL     hw15375   1.746   1.341   6.876 -1.2379 -2.0689 -0.7939
 3844SOL     vw15376   1.772   1.360   6.795 -0.3213 -0.4826 -0.1702
 3845SOL     ow15377   1.193   1.121   2.141  0.1749  0.5220  0.8956
 3845SOL     hw15378   1.121   1.072   2.102  2.8827 -3.0597 -0.2353
 3845SOL     hw15379   1.223   1.179   2.071  0.3967 -0.4016  0.2122
 3845SOL     vw15380   1.188   1.122   2.127  0.5614 -0.0724  0.6562
 3846SOL     ow15381   1.231   0.153   3.270 -0.1520 -0.2102 -0.6876
 3846SOL     hw15382   1.297   0.083   3.271 -0.2870 -0.3294 -0.2659
 3846SOL     hw15383   1.160   0.121   3.325  0.4838  0.9434  0.8680
 3846SOL     vw15384   1.230   0.140   3.277 -0.0859 -0.0738 -0.4268
 3847SOL     ow15385   2.798   1.097   1.360  0.2592  0.0185  0.3634
 3847SOL     hw15386   2.823   1.004   1.355  0.9507  0.1340  1.3392
 3847SOL     hw15387   2.703   1.096   1.369  0.1531 -0.5466 -0.5884
 3847SOL     vw15388   2.789   1.085   1.360  0.3365 -0.0408  0.3664
 3848SOL     ow15389   0.256   0.142   2.758 -0.2995  0.1257 -0.9413
 3848SOL     hw15390   0.161   0.145   2.762 -0.2334  1.9972  0.5503
 3848SOL     hw15391   0.285   0.195   2.832  1.9547 -2.5273  0.2394
 3848SOL     vw15392   0.248   0.150   2.768  0.0066  0.0226 -0.5888
 3849SOL     ow15393   7.445   7.285   0.798  0.0697  0.0331 -0.6233
 3849SOL     hw15394   7.372   7.285   0.860  0.0503 -0.6448 -0.6452
 3849SOL     hw15395   7.517   7.246   0.847  0.7696  1.7396 -0.2032
 3849SOL     vw15396   7.445   7.280   0.813  0.1597  0.1686 -0.5708
 3850SOL     ow15397   0.710   4.105   1.188 -0.3356 -0.1680 -0.4305
 3850SOL     hw15398   0.746   4.024   1.150 -2.6567 -0.5483 -2.0957
 3850SOL     hw15399   0.622   4.080   1.217 -0.8933  1.6180 -0.4730
 3850SOL     vw15400   0.703   4.091   1.187 -0.7154  0.0176 -0.6558
 3851SOL     ow15401   7.196   3.975   2.127 -0.2801 -0.2271 -0.3838
 3851SOL     hw15402   7.239   3.889   2.134  0.4262  0.1947  0.7053
 3851SOL     hw15403   7.108   3.961   2.162  0.0658 -0.3577  0.4517
 3851SOL     vw15404   7.190   3.962   2.132 -0.1416 -0.1887 -0.1298
 3852SOL     ow15405   6.649   7.022   5.694 -0.6828 -0.4626 -0.3386
 3852SOL     hw15406   6.720   7.027   5.757 -0.1074 -1.5339 -0.8849
 3852SOL     hw15407   6.592   7.096   5.717  0.4881  0.3000  0.2189
 3852SOL     vw15408   6.651   7.033   5.706 -0.4525 -0.5035 -0.3371
 3853SOL     ow15409   4.772   5.791   6.840 -0.3729  0.1859  0.0972
 3853SOL     hw15410   4.687   5.757   6.812 -0.2846 -0.6744  0.8061
 3853SOL     hw15411   4.785   5.754   6.928  0.5038  0.7065  0.2028
 3853SOL     vw15412   4.763   5.781   6.848 -0.2456  0.1409  0.2048
 3854SOL     ow15413   5.309   5.002   6.083  0.1995  0.2421  0.0940
 3854SOL     hw15414   5.216   5.022   6.077  0.1698  0.1047  0.1099
 3854SOL     hw15415   5.314   4.920   6.131  0.4091  1.0594  1.5251
 3854SOL     vw15416   5.297   4.994   6.088  0.2229  0.3319  0.2849
 3855SOL     ow15417   0.379   0.519   5.335  0.6440  0.4385  0.4639
 3855SOL     hw15418   0.296   0.559   5.310  0.3316 -1.6264 -2.4488
 3855SOL     hw15419   0.438   0.592   5.350 -1.5076  1.9610  2.0793
 3855SOL     vw15420   0.376   0.534   5.334  0.3189  0.3670  0.2928
 3856SOL     ow15421   3.865   5.590   5.290  0.3561  0.0123 -0.3396
 3856SOL     hw15422   3.800   5.521   5.297 -0.9632  1.2750  0.4418
 3856SOL     hw15423   3.946   5.545   5.265 -0.7915 -1.6031 -1.3089
 3856SOL     vw15424   3.867   5.575   5.288  0.0306 -0.0341 -0.3643
 3857SOL     ow15425   2.870   2.929   1.384  0.3106  0.2175 -0.1297
 3857SOL     hw15426   2.868   2.955   1.292  0.8103  1.1402  0.1093
 3857SOL     hw15427   2.809   2.989   1.427  1.5232  1.0832  0.4401
 3857SOL     vw15428   2.861   2.940   1.378  0.5364  0.4535 -0.0229
 3858SOL     ow15429   2.382   3.569   2.130 -0.4484 -0.9924 -0.0066
 3858SOL     hw15430   2.362   3.475   2.126 -2.2974 -0.6113 -0.6400
 3858SOL     hw15431   2.325   3.602   2.199  0.3446 -0.3336  0.3530
 3858SOL     vw15432   2.372   3.561   2.138 -0.5878 -0.8551 -0.0427
 3859SOL     ow15433   6.150   3.919   2.702 -0.0126 -1.1081 -0.2774
 3859SOL     hw15434   6.104   4.001   2.717 -0.0391 -0.9838 -1.0192
 3859SOL     hw15435   6.209   3.910   2.777 -1.3119 -1.3272  0.7484
 3859SOL     vw15436   6.152   3.929   2.714 -0.1876 -1.1206 -0.2401
 3860SOL     ow15437   1.569   4.301   2.739 -0.1792  0.6017  0.1152
 3860SOL     hw15438   1.657   4.314   2.774  0.1964 -4.6044  1.9885
 3860SOL     hw15439   1.583   4.275   2.648  0.3780 -0.7777  0.5645
 3860SOL     vw15440   1.583   4.299   2.732 -0.0561 -0.2670  0.4218
 3861SOL     ow15441   1.176   7.408   0.216  0.5722 -0.2428 -0.5068
 3861SOL     hw15442   1.092   7.362   0.218  0.9628 -0.9517  0.0628
 3861SOL     hw15443   1.242   7.340   0.229  1.1673  0.4735  0.3909
 3861SOL     vw15444   1.174   7.393   0.218  0.7022 -0.2418 -0.3132
 3862SOL     ow15445   0.722   7.236   0.493 -0.2883  0.6770  0.6315
 3862SOL     hw15446   0.731   7.278   0.579  1.9711  1.5821  0.0375
 3862SOL     hw15447   0.811   7.234   0.459 -1.1473  0.4400 -1.7517
 3862SOL     vw15448   0.735   7.242   0.500 -0.1035  0.7651  0.2387
 3863SOL     ow15449   2.638   1.815   1.144  0.2996  0.2400  0.5039
 3863SOL     hw15450   2.716   1.776   1.184 -0.2736 -0.0440  1.3594
 3863SOL     hw15451   2.580   1.835   1.217 -0.9281 -0.6249 -0.1976
 3863SOL     vw15452   2.641   1.813   1.159  0.0619  0.0884  0.5243
 3864SOL     ow15453   4.532   2.831   0.894 -0.0257 -0.3218 -0.2409
 3864SOL     hw15454   4.526   2.917   0.935  1.1405 -0.0380 -0.6337
 3864SOL     hw15455   4.582   2.778   0.957 -1.5017 -0.9911  0.4101
 3864SOL     vw15456   4.538   2.835   0.908 -0.0665 -0.3726 -0.2068
 3865SOL     ow15457   1.891   4.286   5.833 -0.2520 -0.7575 -1.2192
 3865SOL     hw15458   1.879   4.380   5.845 -1.3576 -1.0340  0.0235
 3865SOL     hw15459   1.981   4.278   5.801 -0.2908  0.7431 -1.7798
 3865SOL     vw15460   1.902   4.297   5.830 -0.4030 -0.5960 -1.1289
 3866SOL     ow15461   0.271   1.065   3.737  0.2211 -0.2267  0.2017
 3866SOL     hw15462   0.247   0.975   3.757  0.7241 -0.9316 -2.0528
 3866SOL     hw15463   0.209   1.092   3.670 -0.4798  1.4560  1.4681
 3866SOL     vw15464   0.260   1.057   3.731  0.1950 -0.0977  0.0713
 3867SOL     ow15465   1.932   7.084   1.637  0.3381  0.3729  0.2155
 3867SOL     hw15466   1.893   7.166   1.605 -0.3381 -0.5985 -1.6150
 3867SOL     hw15467   1.897   7.074   1.726 -2.2090  0.4811 -0.6941
 3867SOL     vw15468   1.922   7.094   1.645 -0.0872  0.2592 -0.1459
 3868SOL     ow15469   0.526   4.291   4.266  0.3289  0.4803 -0.1780
 3868SOL     hw15470   0.599   4.353   4.266  0.8881 -0.1465 -1.1665
 3868SOL     hw15471   0.555   4.220   4.209 -1.0739  0.2392 -0.6300
 3868SOL     vw15472   0.539   4.290   4.258  0.2176  0.3660 -0.3681
 3869SOL     ow15473   6.193   7.050   4.502 -0.0576 -0.0794  0.2438
 3869SOL     hw15474   6.212   7.117   4.436  0.4868 -2.6790 -2.4402
 3869SOL     hw15475   6.278   7.029   4.540 -0.0991  0.1113  0.4451
 3869SOL     vw15476   6.206   7.056   4.498  0.0086 -0.3970 -0.0837
 3870SOL     ow15477   1.840   0.283   4.527  0.3324  0.3458  0.6634
 3870SOL     hw15478   1.791   0.291   4.609  0.7608  0.2095  0.9374
 3870SOL     hw15479   1.780   0.317   4.460 -1.7581 -3.4515  0.3489
 3870SOL     vw15480   1.826   0.289   4.529  0.1131 -0.1732  0.6580
 3871SOL     ow15481   1.186   0.724   3.008  1.1820  0.0824 -0.4912
 3871SOL     hw15482   1.251   0.744   2.940  1.3267  2.1080  0.1822
 3871SOL     hw15483   1.102   0.744   2.967  1.0864 -0.7896 -0.7545
 3871SOL     vw15484   1.184   0.729   2.993  1.1885  0.2346 -0.4370
 3872SOL     ow15485   5.628   6.483   6.324  0.4067 -0.2542  0.5503
 3872SOL     hw15486   5.620   6.390   6.304  0.1394  0.1689 -1.4389
 3872SOL     hw15487   5.544   6.508   6.362  0.9935 -1.1118  2.5477
 3872SOL     vw15488   5.616   6.474   6.327  0.4487 -0.3116  0.5515
 3873SOL     ow15489   1.672   4.213   5.129 -0.0932 -0.1065 -0.1912
 3873SOL     hw15490   1.620   4.164   5.066 -1.1531 -0.4249  0.8927
 3873SOL     hw15491   1.745   4.248   5.078  0.4573 -2.4158 -1.0805
 3873SOL     vw15492   1.674   4.211   5.114 -0.1605 -0.4532 -0.1655
 3874SOL     ow15493   6.058   6.890   4.783  0.2422  0.4673  1.1155
 3874SOL     hw15494   6.091   6.807   4.817  0.1014 -0.9571 -1.9230
 3874SOL     hw15495   5.963   6.879   4.779  0.3934 -0.3872 -1.8415
 3874SOL     vw15496   6.050   6.878   4.787  0.2434  0.1664  0.3245
 3875SOL     ow15497   4.693   1.244   1.958  0.6675 -0.4434 -0.3628
 3875SOL     hw15498   4.606   1.256   1.920  0.4364 -0.1000  0.2560
 3875SOL     hw15499   4.745   1.315   1.921  1.0570 -1.4436 -1.7838
 3875SOL     vw15500   4.688   1.255   1.948  0.6888 -0.5301 -0.4687
 3876SOL     ow15501   2.463   7.380   5.280  0.3988  0.2566  0.2578
 3876SOL     hw15502   2.432   7.339   5.361  0.4385 -0.3378 -0.0272
 3876SOL     hw15503   2.553   7.348   5.270  0.7752  1.1857  0.5505
 3876SOL     vw15504   2.471   7.370   5.290  0.4536  0.3006  0.2587
 3877SOL     ow15505   5.604   2.124   3.063  0.1600  0.7495 -0.0305
 3877SOL     hw15506   5.509   2.111   3.061  0.4302 -2.5215  1.6283
 3877SOL     hw15507   5.615   2.214   3.092 -2.4542  0.9232  0.6996
 3877SOL     vw15508   5.593   2.134   3.067 -0.1493  0.3408  0.2847
 3878SOL     ow15509   1.516   0.442   6.365  0.4665  0.0768 -0.0779
 3878SOL     hw15510   1.483   0.354   6.346  0.2849  0.4507 -1.6450
 3878SOL     hw15511   1.438   0.497   6.364  0.5747  0.2657  0.9403
 3878SOL     vw15512   1.502   0.438   6.362  0.4568  0.1510 -0.1502
 3879SOL     ow15513   3.669   0.683   0.898 -0.1480  0.5389 -0.5548
 3879SOL     hw15514   3.646   0.609   0.841  2.0156  0.9869 -2.1557
 3879SOL     hw15515   3.673   0.758   0.839 -0.6585  1.6243  0.7426
 3879SOL     vw15516   3.666   0.683   0.883  0.0700  0.7412 -0.5948
 3880SOL     ow15517   0.677   5.011   4.019 -0.3015  0.2647  0.3218
 3880SOL     hw15518   0.593   5.050   4.045 -0.8343  0.2939 -1.3493
 3880SOL     hw15519   0.681   5.023   3.924  0.1170 -2.5807 -0.0866
 3880SOL     vw15520   0.666   5.018   4.010 -0.3166 -0.1066  0.0474
 3881SOL     ow15521   6.197   1.857   5.129  0.2232  0.0769 -0.1765
 3881SOL     hw15522   6.221   1.948   5.146  1.4717 -0.0222 -1.2826
 3881SOL     hw15523   6.279   1.814   5.107 -0.5699 -0.9437 -1.2970
 3881SOL     vw15524   6.211   1.864   5.128  0.2832 -0.0708 -0.4702
 3882SOL     ow15525   2.686   4.784   4.526  0.2296  0.5636 -0.5170
 3882SOL     hw15526   2.695   4.869   4.483 -0.1605  1.6135  1.3676
 3882SOL     hw15527   2.715   4.720   4.460 -3.7165  1.6561 -3.6846
 3882SOL     vw15528   2.691   4.787   4.512 -0.3424  0.8464 -0.6862
 3883SOL     ow15529   4.987   0.080   4.687 -0.0146  0.2789 -0.6557
 3883SOL     hw15530   5.046   0.144   4.728 -0.7372  0.0860  0.7563
 3883SOL     hw15531   5.011  -0.003   4.729 -2.3635  0.4531  1.2576
 3883SOL     vw15532   4.998   0.078   4.698 -0.4199  0.2764 -0.2170
 3884SOL     ow15533   5.736   4.531   4.703 -1.1199 -0.0055  0.1823
 3884SOL     hw15534   5.675   4.558   4.771  1.2813 -0.6375  2.8235
 3884SOL     hw15535   5.736   4.435   4.707 -1.8520 -0.1153 -1.6533
 3884SOL     vw15536   5.728   4.522   4.713 -0.8998 -0.1035  0.2882
 3885SOL     ow15537   6.209   0.383   1.598  0.0412  0.0740  0.3059
 3885SOL     hw15538   6.188   0.409   1.688  2.9163 -0.1065  1.1573
 3885SOL     hw15539   6.126   0.357   1.560 -1.4051  0.9481  2.6525
 3885SOL     vw15540   6.195   0.383   1.605  0.2298  0.1655  0.7279
 3886SOL     ow15541   2.207   6.580   1.237 -0.2093  0.0559  1.1408
 3886SOL     hw15542   2.220   6.642   1.165  1.2175  1.1989  2.3381
 3886SOL     hw15543   2.295   6.555   1.263 -0.7391 -2.0248  1.1308
 3886SOL     vw15544   2.220   6.585   1.231 -0.0908 -0.0675  1.2974
 3887SOL     ow15545   0.625   0.612   1.730 -0.8516 -0.1328 -0.1371
 3887SOL     hw15546   0.592   0.553   1.662 -0.0459 -0.3541 -0.3422
 3887SOL     hw15547   0.708   0.574   1.757 -1.3384 -0.2721  1.2682
 3887SOL     vw15548   0.631   0.599   1.724 -0.8095 -0.1804  0.0213
 3888SOL     ow15549   6.697   7.530   4.950  0.3770 -0.2754  0.2300
 3888SOL     hw15550   6.720   7.575   5.032 -0.4645 -0.3510  0.5140
 3888SOL     hw15551   6.703   7.598   4.883  1.9455 -0.4063  0.1906
 3888SOL     vw15552   6.701   7.545   4.952  0.4730 -0.3026  0.2623
 3889SOL     ow15553   4.201   6.492   6.914 -0.3229  0.2001 -0.1104
 3889SOL     hw15554   4.190   6.485   7.009 -2.6345 -2.5529 -0.4363
 3889SOL     hw15555   4.286   6.451   6.897 -1.3185 -2.3518  0.6079
 3889SOL     vw15556   4.211   6.485   6.924 -0.7591 -0.5000 -0.0587
 3890SOL     ow15557   1.765   2.736   1.090  0.1005 -0.0855 -0.8268
 3890SOL     hw15558   1.724   2.666   1.039 -0.8275  0.4564 -0.8305
 3890SOL     hw15559   1.823   2.690   1.151 -0.5358 -0.8617 -0.7958
 3890SOL     vw15560   1.767   2.720   1.091 -0.1059 -0.1162 -0.8232
 3891SOL     ow15561   4.790   3.001   2.197 -0.0593 -0.1655  0.1120
 3891SOL     hw15562   4.791   3.025   2.290 -0.0992  2.3592 -0.4668
 3891SOL     hw15563   4.700   2.973   2.180 -0.3427  0.4135  0.6069
 3891SOL     vw15564   4.778   3.000   2.207 -0.1016  0.2440  0.1010
 3892SOL     ow15565   5.951   6.463   2.639 -0.0574  0.1178 -0.6913
 3892SOL     hw15566   5.952   6.556   2.616  2.4091  0.4826  0.5097
 3892SOL     hw15567   5.879   6.454   2.701 -0.3766  1.2124 -0.8762
 3892SOL     vw15568   5.942   6.474   2.644  0.2260  0.3102 -0.5573
 3893SOL     ow15569   1.530   7.428   1.907 -0.6395 -0.3625 -0.4789
 3893SOL     hw15570   1.581   7.472   1.838 -1.3272  2.5271  0.7056
 3893SOL     hw15571   1.585   7.435   1.985 -1.3588 -0.4027  0.0387
 3893SOL     vw15572   1.544   7.435   1.908 -0.8250  0.0134 -0.2543
 3894SOL     ow15573   4.349   2.447   3.273 -0.4440 -0.1034  0.2624
 3894SOL     hw15574   4.373   2.355   3.282 -2.1903 -0.6006  0.3130
 3894SOL     hw15575   4.382   2.472   3.187 -2.8116 -1.8158 -1.2753
 3894SOL     vw15576   4.356   2.438   3.263 -0.9866 -0.3948  0.0662
 3895SOL     ow15577   4.828   6.125   7.226  0.5170 -0.6622  0.0220
 3895SOL     hw15578   4.916   6.088   7.219  0.6613 -0.4656  0.7093
 3895SOL     hw15579   4.825   6.162   7.314  0.3386  0.8356 -0.5698
 3895SOL     vw15580   4.840   6.125   7.236  0.5126 -0.4387  0.0346
 3896SOL     ow15581   4.427   6.232   2.985 -0.0742 -0.1998 -0.1927
 3896SOL     hw15582   4.485   6.164   2.952 -0.7397  0.0559 -1.9843
 3896SOL     hw15583   4.467   6.314   2.956  0.2910  0.1546  1.2464
 3896SOL     vw15584   4.440   6.234   2.977 -0.1135 -0.1192 -0.2393
 3897SOL     ow15585   1.891   0.607   6.761  0.3620 -0.3167  0.1602
 3897SOL     hw15586   1.958   0.603   6.693 -0.4864 -1.9869 -0.6399
 3897SOL     hw15587   1.914   0.537   6.822  0.7417  0.7436  1.2518
 3897SOL     vw15588   1.903   0.597   6.760  0.3002 -0.3971  0.1986
 3898SOL     ow15589   3.864   2.284   1.078 -0.0536 -0.1239  0.3065
 3898SOL     hw15590   3.949   2.325   1.060 -0.7001  0.7029 -1.0377
 3898SOL     hw15591   3.880   2.226   1.152  0.7115  3.3005  3.0577
 3898SOL     vw15592   3.877   2.282   1.085 -0.0380  0.4370  0.4922
 3899SOL     ow15593   1.683   7.392   2.160 -0.1592 -0.3141 -0.0645
 3899SOL     hw15594   1.735   7.362   2.086  0.6314 -0.6502  0.6089
 3899SOL     hw15595   1.691   7.487   2.160 -1.5507 -0.1709 -1.4011
 3899SOL     vw15596   1.691   7.400   2.151 -0.2385 -0.3397 -0.1520
 3900SOL     ow15597   4.035   1.251   6.610  0.4092 -0.3279  0.2829
 3900SOL     hw15598   4.014   1.254   6.517  0.1737  2.3029  0.3482
 3900SOL     hw15599   4.083   1.169   6.621 -0.1851 -1.0565 -1.9946
 3900SOL     vw15600   4.039   1.241   6.599  0.2997 -0.0769 -0.0091
 3901SOL     ow15601   0.318   1.689   1.660 -0.0065  1.1502 -0.3343
 3901SOL     hw15602   0.270   1.609   1.642  3.8278 -1.0235 -2.1896
 3901SOL     hw15603   0.278   1.755   1.603 -1.0307 -0.3873 -1.4497
 3901SOL     vw15604   0.306   1.687   1.650  0.3642  0.6605 -0.7263
 3902SOL     ow15605   6.600   2.667   0.237  0.4882 -0.0206 -0.1992
 3902SOL     hw15606   6.630   2.755   0.215  1.2715 -0.1094  0.4640
 3902SOL     hw15607   6.602   2.665   0.332  1.7818 -1.1759 -0.2204
 3902SOL     vw15608   6.605   2.679   0.246  0.7622 -0.1849 -0.1145
 3903SOL     ow15609   3.745   6.237   2.708 -0.3183  0.5890 -0.1258
 3903SOL     hw15610   3.690   6.302   2.665 -1.4545  0.5099  1.1440
 3903SOL     hw15611   3.817   6.288   2.745 -0.2108  0.8694 -0.7106
 3903SOL     vw15612   3.747   6.252   2.708 -0.4541  0.6156 -0.0354
 3904SOL     ow15613   0.874   0.046   3.014 -0.1345  0.4516  0.3529
 3904SOL     hw15614   0.886  -0.008   2.936  2.8077  1.3659  0.0371
 3904SOL     hw15615   0.830  -0.010   3.077 -0.5319 -1.0518 -1.2051
 3904SOL     vw15616   0.870   0.032   3.012  0.2013  0.3739  0.1057
 3905SOL     ow15617   7.003   7.487   4.868 -0.6922 -0.7799 -0.0912
 3905SOL     hw15618   7.023   7.462   4.959  2.1606 -1.8240 -0.9079
 3905SOL     hw15619   6.920   7.442   4.850  0.1667 -3.0517  1.1169
 3905SOL     vw15620   6.995   7.478   4.878 -0.2024 -1.2174 -0.0393
 3906SOL     ow15621   4.724   3.997   5.591  0.4349 -0.2281 -0.2327
 3906SOL     hw15622   4.748   4.002   5.498 -0.8746  2.2306 -0.5305
 3906SOL     hw15623   4.807   4.002   5.637  1.0074  0.9793 -1.3006
 3906SOL     vw15624   4.738   3.999   5.585  0.3378  0.2556 -0.4129
 3907SOL     ow15625   3.988   4.744   7.203 -0.7333  0.1095 -0.7507
 3907SOL     hw15626   4.082   4.749   7.223 -1.3233  1.0158  2.3671
 3907SOL     hw15627   3.984   4.744   7.107  2.3906  0.8394 -1.0052
 3907SOL     vw15628   4.000   4.744   7.193 -0.3990  0.3254 -0.3731
 3908SOL     ow15629   0.833   1.845   3.796  0.2854 -0.5623  0.2993
 3908SOL     hw15630   0.877   1.894   3.726 -0.3559 -0.1464  0.1747
 3908SOL     hw15631   0.878   1.870   3.876  2.2410 -2.4130 -0.1099
 3908SOL     vw15632   0.844   1.854   3.797  0.4588 -0.7516  0.2289
 3909SOL     ow15633   1.629   6.745   3.781 -0.0966  0.1451  0.2187
 3909SOL     hw15634   1.710   6.796   3.779  0.7899 -1.2019  0.1589
 3909SOL     hw15635   1.652   6.667   3.833 -0.7134 -1.2810 -1.5548
 3909SOL     vw15636   1.643   6.741   3.788 -0.0610 -0.2213 -0.0231
 3910SOL     ow15637   2.135   0.466   1.052  0.2374 -0.0220  0.4121
 3910SOL     hw15638   2.161   0.460   0.961 -0.0839 -2.1001  0.4045
 3910SOL     hw15639   2.043   0.440   1.053  1.1443 -3.8616  1.6517
 3910SOL     vw15640   2.126   0.462   1.040  0.3146 -0.8028  0.5746
 3911SOL     ow15641   4.211   5.324   1.508  0.1798  0.2057 -0.5457
 3911SOL     hw15642   4.214   5.296   1.417 -2.6252  0.8755 -0.9414
 3911SOL     hw15643   4.301   5.315   1.539  1.3977  0.7029 -3.5842
 3911SOL     vw15644   4.223   5.319   1.500 -0.0296  0.3598 -0.9988
 3912SOL     ow15645   0.501   0.074   7.083  0.5434  0.2890 -0.5356
 3912SOL     hw15646   0.573   0.134   7.062  0.0255  0.1391 -2.9074
 3912SOL     hw15647   0.423   0.117   7.049  0.1587 -1.6735 -2.3421
 3912SOL     vw15648   0.500   0.088   7.076  0.4243  0.0103 -1.0870
 3913SOL     ow15649   3.744   4.923   7.213 -0.1145  0.6000 -0.4662
 3913SOL     hw15650   3.651   4.911   7.229  0.0597  2.1803  2.3044
 3913SOL     hw15651   3.749   4.968   7.129 -1.7005 -0.8992 -1.4151
 3913SOL     vw15652   3.733   4.927   7.204 -0.3006  0.6106 -0.2258
 3914SOL     ow15653   6.178   5.871   7.119 -0.1470 -0.3625  0.5065
 3914SOL     hw15654   6.105   5.926   7.148  0.5722  0.5481  0.6713
 3914SOL     hw15655   6.255   5.928   7.128  0.0969  0.4336 -4.0401
 3914SOL     vw15656   6.178   5.886   7.124 -0.0198 -0.1371 -0.0718
 3915SOL     ow15657   6.570   0.049   2.452 -0.0054 -0.0904  0.2080
 3915SOL     hw15658   6.475   0.055   2.438 -0.0107 -1.9901 -0.7768
 3915SOL     hw15659   6.594   0.135   2.487 -2.0323  0.5354  0.1839
 3915SOL     vw15660   6.560   0.061   2.455 -0.2735 -0.2585  0.0750
 3916SOL     ow15661   5.571   3.018   3.102  0.0385  0.1981  0.2298
 3916SOL     hw15662   5.607   3.070   3.031  0.0102  1.3111  1.0099
 3916SOL     hw15663   5.604   2.930   3.086  2.5408  1.0073  0.5282
 3916SOL     vw15664   5.580   3.013   3.090  0.3645  0.4517  0.3721
 3917SOL     ow15665   5.745   6.878   7.339 -0.3945  0.3571  0.7961
 3917SOL     hw15666   5.820   6.937   7.351  0.4577 -0.6064  0.3259
 3917SOL     hw15667   5.670   6.929   7.370  0.1088  2.1791 -0.8058
 3917SOL     vw15668   5.745   6.893   7.345 -0.2155  0.4704  0.5224
 3918SOL     ow15669   3.964   5.861   2.368 -0.4401 -0.2758  0.4031
 3918SOL     hw15670   3.954   5.766   2.373  0.0166 -0.3320  0.2769
 3918SOL     hw15671   4.026   5.875   2.297 -1.7093  0.1936 -0.6516
 3918SOL     vw15672   3.971   5.850   2.359 -0.5474 -0.2210  0.2474
 3919SOL     ow15673   7.177   5.479   4.783  0.0252  0.1191 -0.5384
 3919SOL     hw15674   7.121   5.554   4.803  0.8653  1.4679 -2.8642
 3919SOL     hw15675   7.259   5.517   4.754  0.2540 -1.6505 -2.4101
 3919SOL     vw15676   7.180   5.494   4.782  0.1659  0.0634 -1.0922
 3920SOL     ow15677   1.560   6.360   5.296  1.1549 -0.1396 -0.1253
 3920SOL     hw15678   1.554   6.447   5.335  0.6884  0.0550 -0.6208
 3920SOL     hw15679   1.534   6.373   5.205  1.8609 -0.6559 -0.4132
 3920SOL     vw15680   1.556   6.373   5.289  1.1865 -0.1822 -0.2289
 3921SOL     ow15681   5.304   1.890   3.340  0.2858  0.0833 -0.4539
 3921SOL     hw15682   5.388   1.871   3.382  0.8402  2.5918 -0.2863
 3921SOL     hw15683   5.320   1.877   3.246  1.7140  2.9238 -0.7199
 3921SOL     vw15684   5.317   1.886   3.333  0.5472  0.7890 -0.4671
 3922SOL     ow15685   5.053   2.893   1.286 -0.0529  0.1787 -0.4370
 3922SOL     hw15686   5.038   2.844   1.366 -0.1737  0.7547 -0.1051
 3922SOL     hw15687   5.107   2.836   1.232  1.2406  0.3710  0.6360
 3922SOL     vw15688   5.058   2.879   1.289  0.1018  0.2801 -0.2518
 3923SOL     ow15689   6.341   0.466   2.237 -0.1729  0.4049 -0.4917
 3923SOL     hw15690   6.269   0.404   2.248  0.1431  0.2081  0.6318
 3923SOL     hw15691   6.419   0.411   2.223  0.1800  0.4969  0.9296
 3923SOL     vw15692   6.342   0.450   2.237 -0.0849  0.3911 -0.1558
 3924SOL     ow15693   4.056   7.191   5.816  0.2348 -0.2743  0.8610
 3924SOL     hw15694   4.147   7.207   5.793  0.5129 -0.4912  1.7788
 3924SOL     hw15695   4.059   7.158   5.905 -0.5024 -3.1276 -0.0658
 3924SOL     vw15696   4.068   7.189   5.825  0.1745 -0.6793  0.8597
 3925SOL     ow15697   4.617   5.813   0.710  0.2064 -0.0618 -0.2314
 3925SOL     hw15698   4.626   5.886   0.649 -2.0356 -0.4016 -1.0510
 3925SOL     hw15699   4.546   5.838   0.768 -0.7009 -1.6287 -0.6029
 3925SOL     vw15700   4.609   5.826   0.710 -0.2091 -0.3135 -0.3885
 3926SOL     ow15701   3.929   4.859   3.406 -0.0234 -0.4455  0.5152
 3926SOL     hw15702   3.951   4.795   3.338 -0.0624 -1.8543  1.7742
 3926SOL     hw15703   3.851   4.823   3.448 -1.5870  1.7021 -0.3168
 3926SOL     vw15704   3.921   4.846   3.402 -0.2350 -0.3479  0.5715
 3927SOL     ow15705   7.014   4.989   5.554  0.1140  0.0453  0.0610
 3927SOL     hw15706   7.054   4.907   5.527  0.5757 -0.1310  1.2223
 3927SOL     hw15707   7.035   4.997   5.647  0.1670  1.5283 -0.0485
 3927SOL     vw15708   7.022   4.979   5.562  0.1819  0.2174  0.1996
 3928SOL     ow15709   3.481   4.369   1.175 -0.0169 -0.6405 -0.2187
 3928SOL     hw15710   3.535   4.313   1.231 -0.7344  0.3493  1.5441
 3928SOL     hw15711   3.413   4.403   1.234  0.3151  1.9939 -1.2413
 3928SOL     vw15712   3.479   4.366   1.191 -0.0677 -0.1624 -0.1210
 3929SOL     ow15713   2.820   1.692   5.573 -0.7083 -0.3937  0.1535
 3929SOL     hw15714   2.824   1.623   5.506  0.3551 -2.6541  2.3813
 3929SOL     hw15715   2.908   1.729   5.575 -0.5216 -0.8644  0.8080
 3929SOL     vw15716   2.832   1.688   5.564 -0.5435 -0.7541  0.5338
 3930SOL     ow15717   0.366   0.214   2.162  0.5995  0.8150  1.0113
 3930SOL     hw15718   0.419   0.271   2.106 -3.2441  2.1256 -1.6964
 3930SOL     hw15719   0.331   0.273   2.229 -1.5279  1.2482 -0.4050
 3930SOL     vw15720   0.368   0.229   2.164 -0.1883  1.0451  0.4671
 3931SOL     ow15721   3.929   3.023   6.427  0.9763 -0.0227  0.0514
 3931SOL     hw15722   4.007   3.079   6.423  1.5512 -0.7588  0.7293
 3931SOL     hw15723   3.957   2.941   6.386  0.3055 -0.0144 -0.4287
 3931SOL     vw15724   3.943   3.020   6.421  0.9636 -0.1187  0.0772
 3932SOL     ow15725   0.495   4.439   3.859 -0.5585 -0.0275 -0.0533
 3932SOL     hw15726   0.485   4.416   3.767  1.9703  0.8015 -0.6083
 3932SOL     hw15727   0.550   4.369   3.896 -2.0098 -0.6653  1.0274
 3932SOL     vw15728   0.501   4.427   3.852 -0.4163 -0.0024  0.0161
 3933SOL     ow15729   6.033   4.283   4.638  0.1668  0.8656  0.0406
 3933SOL     hw15730   6.026   4.272   4.543  0.2240  1.0375  0.0160
 3933SOL     hw15731   6.127   4.291   4.655  0.2315 -0.2077  0.2335
 3933SOL     vw15732   6.044   4.283   4.628  0.1829  0.7467  0.0627
 3934SOL     ow15733   0.212   6.281   4.831  0.1215  0.4104  0.2491
 3934SOL     hw15734   0.167   6.365   4.817  0.4714  0.4538 -0.6384
 3934SOL     hw15735   0.299   6.306   4.862  0.5819  0.4229 -0.9935
 3934SOL     vw15736   0.217   6.296   4.834  0.2284  0.4177 -0.0319
 3935SOL     ow15737   4.143   1.476   6.732  0.2332  0.3735  0.0281
 3935SOL     hw15738   4.111   1.415   6.665 -0.2352 -0.4430  0.9612
 3935SOL     hw15739   4.223   1.435   6.765  0.7663  1.0468 -0.3939
 3935SOL     vw15740   4.149   1.462   6.728  0.2418  0.3546  0.0958
 3936SOL     ow15741   0.351   4.755   2.593 -0.2412 -0.1387  0.0112
 3936SOL     hw15742   0.340   4.831   2.650  1.5782  0.8055 -0.7973
 3936SOL     hw15743   0.416   4.701   2.638  0.3217  0.0370 -0.5682
 3936SOL     vw15744   0.358   4.758   2.607  0.0731  0.0091 -0.1720
 3937SOL     ow15745   5.745   4.161   6.296  0.6518  0.5321  0.0856
 3937SOL     hw15746   5.810   4.222   6.262 -0.7052  2.8428  1.3893
 3937SOL     hw15747   5.661   4.203   6.278 -0.4876 -1.8223 -0.5384
 3937SOL     vw15748   5.743   4.174   6.289  0.3223  0.5262  0.1755
 3938SOL     ow15749   4.325   6.288   2.570 -0.0614  0.5763  0.0081
 3938SOL     hw15750   4.390   6.346   2.609  0.6602  2.4043 -3.5021
 3938SOL     hw15751   4.373   6.237   2.505 -1.2086 -2.1085  1.1112
 3938SOL     vw15752   4.340   6.289   2.566 -0.1178  0.4632 -0.3093
 3939SOL     ow15753   7.591   3.360   6.296 -0.1685  0.0622  0.4400
 3939SOL     hw15754   7.504   3.356   6.337 -0.7093  1.0867 -0.5649
 3939SOL     hw15755   7.576   3.333   6.205  0.9842 -1.9968  0.7940
 3939SOL     vw15756   7.577   3.356   6.289 -0.0878 -0.0744  0.3541
 3940SOL     ow15757   5.396   2.803   1.484  0.4377 -0.1499 -0.0661
 3940SOL     hw15758   5.327   2.744   1.454 -2.2281  2.1523  1.0322
 3940SOL     hw15759   5.455   2.749   1.535 -0.2878 -2.3079 -1.3933
 3940SOL     vw15760   5.395   2.788   1.486 -0.0095 -0.1309 -0.0963
 3941SOL     ow15761   7.100   7.019   3.143  0.6350 -0.6048  0.6757
 3941SOL     hw15762   7.107   7.042   3.236  1.2375  0.6109  0.3508
 3941SOL     hw15763   7.119   7.101   3.097 -0.0297 -1.1081 -0.5192
 3941SOL     vw15764   7.104   7.033   3.150  0.6270 -0.5109  0.4753
 3942SOL     ow15765   0.935   5.027   5.332  0.1452 -0.2619 -0.3579
 3942SOL     hw15766   0.895   4.949   5.370 -1.6243  0.3407 -0.8839
 3942SOL     hw15767   0.910   5.099   5.390 -0.0592  0.2211 -1.0281
 3942SOL     vw15768   0.927   5.026   5.344 -0.1152 -0.1185 -0.5157
 3943SOL     ow15769   1.305   3.031   3.046  0.0035  0.3957  0.2161
 3943SOL     hw15770   1.400   3.018   3.052 -0.4210 -3.1117  1.5253
 3943SOL     hw15771   1.290   3.116   3.088  2.6206  1.7697 -1.3591
 3943SOL     vw15772   1.316   3.040   3.052  0.2927  0.1143  0.1811
 3944SOL     ow15773   0.025   0.765   4.607  0.9421 -0.3646 -0.1545
 3944SOL     hw15774   0.021   0.676   4.571  0.2961 -1.1488  1.6976
 3944SOL     hw15775   0.106   0.801   4.572  0.6816 -1.2791 -1.8135
 3944SOL     vw15776   0.035   0.758   4.598  0.8225 -0.5887 -0.1290
 3945SOL     ow15777   4.033   6.961   5.219  0.1963 -0.3568 -0.6725
 3945SOL     hw15778   4.093   7.036   5.217 -1.0106  0.6263 -2.4147
 3945SOL     hw15779   4.046   6.919   5.134 -1.1706 -0.4436 -0.8493
 3945SOL     vw15780   4.043   6.965   5.207 -0.1435 -0.2387 -0.9255
 3946SOL     ow15781   0.396   2.278   1.433  0.6721  0.2041 -0.3468
 3946SOL     hw15782   0.322   2.224   1.460  0.6478  0.4851  0.1662
 3946SOL     hw15783   0.373   2.309   1.346  0.6880 -0.6081 -0.6413
 3946SOL     vw15784   0.383   2.275   1.425  0.6710  0.1340 -0.3179
 3947SOL     ow15785   3.548   3.720   7.496 -0.6736 -0.7188 -0.2340
 3947SOL     hw15786   3.540   3.653   7.564 -1.4902  0.9436  1.3822
 3947SOL     hw15787   3.475   3.703   7.437 -1.7157 -0.4508  0.9352
 3947SOL     vw15788   3.537   3.709   7.497 -0.9187 -0.4641  0.1333
 3948SOL     ow15789   5.234   2.430   7.394 -0.0735  0.0618  0.6319
 3948SOL     hw15790   5.228   2.347   7.442  2.8724 -1.8744 -1.9274
 3948SOL     hw15791   5.223   2.405   7.302 -1.7811  3.0177 -0.0919
 3948SOL     vw15792   5.232   2.416   7.388  0.0899  0.1963  0.1988
 3949SOL     ow15793   0.293   3.681   2.424 -0.3864  0.2416  0.0664
 3949SOL     hw15794   0.368   3.735   2.397  0.2585 -0.2411  0.8468
 3949SOL     hw15795   0.274   3.627   2.347 -0.5604  1.0347 -0.4681
 3949SOL     vw15796   0.300   3.681   2.410 -0.3243  0.2825  0.0986
 3950SOL     ow15797   2.096   2.159   2.808  0.6737 -0.0495  0.3885
 3950SOL     hw15798   2.167   2.101   2.836  0.2239 -0.8584 -0.1218
 3950SOL     hw15799   2.141   2.236   2.771  1.3870 -1.5570 -2.1497
 3950SOL     vw15800   2.111   2.162   2.807  0.7086 -0.3551 -0.0138
 3951SOL     ow15801   1.695   1.269   3.060  0.1541 -0.2888 -0.1043
 3951SOL     hw15802   1.729   1.288   2.973  2.2095  0.6897  0.8401
 3951SOL     hw15803   1.750   1.198   3.092  0.1751  0.1301  0.8173
 3951SOL     vw15804   1.707   1.262   3.053  0.4280 -0.1044  0.1417
 3952SOL     ow15805   2.143   4.069   6.280  0.3942  0.8019  0.3212
 3952SOL     hw15806   2.053   4.068   6.311  0.4202 -0.9396  0.4738
 3952SOL     hw15807   2.195   4.047   6.357  0.7047 -0.7187 -0.2859
 3952SOL     vw15808   2.138   4.066   6.294  0.4387  0.3717  0.2611
 3953SOL     ow15809   7.201   6.070   0.506 -0.4922 -0.4242 -0.6244
 3953SOL     hw15810   7.225   6.163   0.505  3.1099 -1.1859 -2.2299
 3953SOL     hw15811   7.162   6.055   0.420 -1.3679 -0.3727 -0.2459
 3953SOL     vw15812   7.199   6.080   0.494 -0.1326 -0.5176 -0.7863
 3954SOL     ow15813   4.420   0.712   6.580  0.2965  0.6263  0.7126
 3954SOL     hw15814   4.429   0.789   6.524 -1.8617 -0.3042 -1.0667
 3954SOL     hw15815   4.362   0.653   6.531  0.6042 -1.4754  2.7016
 3954SOL     vw15816   4.413   0.714   6.566  0.0525  0.2263  0.7401
 3955SOL     ow15817   2.742   6.093   6.688 -0.3520  0.2503  0.8817
 3955SOL     hw15818   2.771   6.022   6.746 -1.4260 -1.4043 -0.5062
 3955SOL     hw15819   2.653   6.113   6.718 -0.8230 -0.4496 -0.0119
 3955SOL     vw15820   2.734   6.087   6.700 -0.5559 -0.0601  0.5808
 3956SOL     ow15821   3.921   1.143   1.923 -0.5153 -0.6256 -0.2105
 3956SOL     hw15822   3.834   1.126   1.887 -0.4393  0.4560 -0.9635
 3956SOL     hw15823   3.959   1.209   1.864 -0.0878  0.6608  1.4274
 3956SOL     vw15824   3.915   1.150   1.910 -0.4489 -0.3132 -0.0938
 3957SOL     ow15825   3.985   6.089   3.094  0.3790 -0.2206  0.4631
 3957SOL     hw15826   4.003   5.997   3.075  0.9716  0.1857 -1.0902
 3957SOL     hw15827   3.895   6.089   3.128  0.1545 -1.3150 -0.0680
 3957SOL     vw15828   3.975   6.077   3.096  0.4276 -0.3114  0.1880
 3958SOL     ow15829   1.802   2.733   3.620 -0.1228 -1.3038  0.1500
 3958SOL     hw15830   1.754   2.794   3.564 -0.6712  0.0014  1.9307
 3958SOL     hw15831   1.747   2.655   3.624 -2.2011  0.1309  2.0766
 3958SOL     vw15832   1.788   2.731   3.613 -0.4693 -0.9423  0.6392
 3959SOL     ow15833   6.897   2.957   3.659  0.4688  0.4398 -0.6836
 3959SOL     hw15834   6.820   2.947   3.716  1.2281 -0.0369  0.2821
 3959SOL     hw15835   6.866   3.014   3.588 -0.7645  0.2849 -0.3014
 3959SOL     vw15836   6.883   2.963   3.657  0.4063  0.3563 -0.5058
 3960SOL     ow15837   6.535   7.460   5.556 -0.7393  0.5739  0.1689
 3960SOL     hw15838   6.483   7.462   5.636  0.4959  0.5824  1.0081
 3960SOL     hw15839   6.493   7.523   5.498 -2.4901 -0.4631  0.2478
 3960SOL     vw15840   6.523   7.468   5.559 -0.8073  0.4380  0.2899
 3961SOL     ow15841   4.874   5.181   6.804 -0.0942  0.0890 -0.1277
 3961SOL     hw15842   4.821   5.144   6.874 -0.7024  0.9596 -0.1190
 3961SOL     hw15843   4.817   5.244   6.761  1.3150  1.9977  0.6809
 3961SOL     vw15844   4.859   5.184   6.807  0.0119  0.4556 -0.0196
 3962SOL     ow15845   5.186   6.250   0.912  0.2780 -0.9533 -0.2867
 3962SOL     hw15846   5.142   6.191   0.974 -0.5874 -0.1882 -0.1559
 3962SOL     hw15847   5.123   6.261   0.841  1.6371 -2.6184 -1.8645
 3962SOL     vw15848   5.172   6.244   0.911  0.3433 -1.0719 -0.4776
 3963SOL     ow15849   0.840   1.207   7.400 -0.3719 -0.2038 -0.6280
 3963SOL     hw15850   0.921   1.192   7.352  0.9929 -3.9680  2.3092
 3963SOL     hw15851   0.780   1.140   7.367 -0.2235 -1.2254  1.0255
 3963SOL     vw15852   0.843   1.196   7.390 -0.1722 -0.8353 -0.0224
 3964SOL     ow15853   0.705   7.481   5.970 -0.2239 -0.1083  0.3561
 3964SOL     hw15854   0.676   7.418   5.904 -0.3808  0.5552 -0.2056
 3964SOL     hw15855   0.629   7.539   5.983  0.0985  0.2854  0.4891
 3964SOL     vw15856   0.691   7.480   5.963 -0.2020  0.0312  0.2997
 3965SOL     ow15857   1.229   7.580   4.702  0.0726 -0.0657 -0.3267
 3965SOL     hw15858   1.211   7.673   4.685 -1.5366 -0.2605  0.1461
 3965SOL     hw15859   1.213   7.569   4.795  2.7629 -0.3259  0.1773
 3965SOL     vw15860   1.225   7.591   4.712  0.2153 -0.1256 -0.1976
 3966SOL     ow15861   2.776   1.745   3.514 -0.3150  0.0613 -0.2662
 3966SOL     hw15862   2.805   1.730   3.424  0.3538 -0.6837  0.0519
 3966SOL     hw15863   2.813   1.830   3.537 -0.1690  0.0846 -0.5769
 3966SOL     vw15864   2.785   1.754   3.505 -0.2075 -0.0339 -0.2652
 3967SOL     ow15865   0.575   1.393   1.891 -1.1922  0.2851  0.3965
 3967SOL     hw15866   0.517   1.467   1.876 -1.8054 -0.4595 -1.1601
 3967SOL     hw15867   0.536   1.321   1.840 -0.0532 -0.8109  1.0185
 3967SOL     vw15868   0.562   1.393   1.882 -1.1229  0.0423  0.2732
 3968SOL     ow15869   0.047   4.922   0.517 -0.4356 -0.7166  0.1253
 3968SOL     hw15870   0.018   5.013   0.507  1.1712 -0.0189  1.3443
 3968SOL     hw15871   0.103   4.907   0.441 -1.0155 -0.8242 -0.2840
 3968SOL     vw15872   0.051   4.932   0.506 -0.3001 -0.6387  0.2321
 3969SOL     ow15873   4.610   0.961   2.020  0.5756 -0.4706  0.4953
 3969SOL     hw15874   4.559   0.967   1.939  2.0099 -2.7332 -0.6978
 3969SOL     hw15875   4.563   0.896   2.072  1.1707 -1.1422  0.2117
 3969SOL     vw15876   4.597   0.953   2.016  0.8435 -0.8577  0.3005
 3970SOL     ow15877   5.126   1.690   3.453 -0.4249 -0.1546  0.3624
 3970SOL     hw15878   5.195   1.738   3.407 -1.9653  4.2039  2.0479
 3970SOL     hw15879   5.068   1.658   3.384 -0.9931  3.4435 -1.0381
 3970SOL     vw15880   5.127   1.692   3.438 -0.7026  0.8952  0.3999
 3971SOL     ow15881   4.716   0.486   0.582 -0.5528 -0.3776  0.2221
 3971SOL     hw15882   4.681   0.411   0.535 -2.5461 -0.0802  1.1426
 3971SOL     hw15883   4.712   0.558   0.520  0.8378 -0.8674 -0.4807
 3971SOL     vw15884   4.711   0.485   0.568 -0.6323 -0.4030  0.2508
 3972SOL     ow15885   1.713   6.445   6.781  0.6539  0.1563  0.4315
 3972SOL     hw15886   1.789   6.448   6.722  0.4928 -1.2819  0.1295
 3972SOL     hw15887   1.732   6.373   6.841 -0.8031 -0.7262 -0.1216
 3972SOL     vw15888   1.726   6.436   6.781  0.4404 -0.1497  0.3185
 3973SOL     ow15889   4.454   7.430   2.416 -0.0908  0.0262 -0.2073
 3973SOL     hw15890   4.441   7.368   2.345 -0.2399  0.6485 -0.7321
 3973SOL     hw15891   4.450   7.377   2.495 -1.2232 -0.4992 -0.5940
 3973SOL     vw15892   4.451   7.415   2.417 -0.2599  0.0391 -0.3275
 3974SOL     ow15893   6.600   4.612   7.169 -0.1524 -0.1702 -0.3715
 3974SOL     hw15894   6.682   4.645   7.133 -1.2266  4.1073  0.5175
 3974SOL     hw15895   6.533   4.643   7.108 -1.2860 -1.1742  0.3244
 3974SOL     vw15896   6.602   4.621   7.156 -0.4435  0.2615 -0.1624
 3975SOL     ow15897   2.825   5.960   1.048 -0.2259 -0.4026 -0.2845
 3975SOL     hw15898   2.734   5.951   1.077 -0.0371 -0.7655  0.2020
 3975SOL     hw15899   2.848   5.874   1.013 -0.6723  0.2000 -2.2211
 3975SOL     vw15900   2.816   5.948   1.047 -0.2598 -0.3710 -0.4758
 3976SOL     ow15901   4.329   7.032   7.342 -0.1709  0.3955  0.1607
 3976SOL     hw15902   4.335   6.982   7.423 -0.8914  0.2309  0.1129
 3976SOL     hw15903   4.361   7.119   7.365 -0.6380  0.4304  0.6910
 3976SOL     vw15904   4.334   7.037   7.356 -0.3276  0.3784  0.2246
 3977SOL     ow15905   4.926   6.874   3.749  0.2800 -0.0285 -0.0881
 3977SOL     hw15906   4.966   6.834   3.671 -0.0807 -2.4815  0.9180
 3977SOL     hw15907   4.964   6.962   3.752  2.0240 -0.6428 -1.7744
 3977SOL     vw15908   4.936   6.880   3.739  0.4623 -0.4332 -0.1777
 3978SOL     ow15909   1.123   6.703   6.272 -0.2203 -0.5980 -0.0120
 3978SOL     hw15910   1.031   6.706   6.300  0.0743 -0.9730  1.0480
 3978SOL     hw15911   1.159   6.788   6.297 -0.0511 -0.7922  0.4118
 3978SOL     vw15912   1.116   6.715   6.279 -0.1591 -0.6733  0.1836
 3979SOL     ow15913   4.914   6.216   2.339 -0.1149 -0.4350  0.1190
 3979SOL     hw15914   4.946   6.182   2.422 -0.4647  0.3195  0.5786
 3979SOL     hw15915   4.846   6.279   2.364 -0.3064 -0.2866 -0.7432
 3979SOL     vw15916   4.909   6.220   2.353 -0.1862 -0.3157  0.0659
 3980SOL     ow15917   7.468   0.823   6.353 -0.2142  0.1273 -0.2874
 3980SOL     hw15918   7.470   0.730   6.330 -0.1486 -0.0159  0.2852
 3980SOL     hw15919   7.376   0.842   6.369 -0.8209  1.0623 -3.9178
 3980SOL     vw15920   7.456   0.814   6.352 -0.2856  0.2318 -0.6909
 3981SOL     ow15921   4.269   7.521   0.439 -0.1199  0.1064 -0.0393
 3981SOL     hw15922   4.225   7.538   0.523 -0.0701 -1.7357  0.4010
 3981SOL     hw15923   4.361   7.535   0.458 -0.1244 -0.1405  0.1691
 3981SOL     vw15924   4.275   7.525   0.453 -0.1140 -0.1693  0.0463
 3982SOL     ow15925   5.291   7.442   5.507 -0.0972 -0.4105 -0.3392
 3982SOL     hw15926   5.334   7.490   5.578 -0.3959  1.2605 -1.2565
 3982SOL     hw15927   5.224   7.389   5.552 -0.7338  1.1133  0.6015
 3982SOL     vw15928   5.288   7.441   5.522 -0.2205  0.0112 -0.3364
 3983SOL     ow15929   6.887   5.209   4.554 -0.7074  0.4318  0.0165
 3983SOL     hw15930   6.953   5.146   4.524 -0.6722  0.6091 -0.2780
 3983SOL     hw15931   6.859   5.255   4.474 -1.0736  0.4658  0.1602
 3983SOL     vw15932   6.892   5.207   4.539 -0.7510  0.4599 -0.0036
 3984SOL     ow15933   6.633   5.517   2.199  0.9621  0.1174 -0.2311
 3984SOL     hw15934   6.651   5.598   2.152  2.7692 -0.2328 -0.2330
 3984SOL     hw15935   6.645   5.540   2.292 -0.7265  0.3487 -0.0310
 3984SOL     vw15936   6.637   5.531   2.205  0.9775  0.1016 -0.2049
 3985SOL     ow15937   0.008   5.037   0.894 -0.2222  0.7061 -0.2036
 3985SOL     hw15938  -0.017   5.096   0.823  0.3557  0.3696 -0.6991
 3985SOL     hw15939   0.051   5.094   0.958 -0.6493  0.9944 -0.1693
 3985SOL     vw15940   0.010   5.053   0.893 -0.2023  0.6995 -0.2645
 3986SOL     ow15941   7.540   5.407   0.391  0.1464 -0.3625  0.6273
 3986SOL     hw15942   7.496   5.374   0.313 -0.1829 -0.6586  0.9389
 3986SOL     hw15943   7.609   5.465   0.357  0.7102 -1.3288  0.0763
 3986SOL     vw15944   7.544   5.410   0.376  0.1774 -0.5293  0.5957
 3987SOL     ow15945   0.646   1.892   5.163  0.0028 -0.0916 -0.0377
 3987SOL     hw15946   0.644   1.916   5.255 -1.3047 -1.8361  0.4604
 3987SOL     hw15947   0.589   1.956   5.120 -3.2154 -1.8797  1.2033
 3987SOL     vw15948   0.638   1.904   5.169 -0.5943 -0.5577  0.1917
 3988SOL     ow15949   1.306   5.015   0.805  0.2196  0.0768 -0.5110
 3988SOL     hw15950   1.265   5.003   0.720  1.6710 -1.2965 -1.0722
 3988SOL     hw15951   1.384   5.068   0.787  0.5995 -0.3206 -0.0811
 3988SOL     vw15952   1.311   5.020   0.792  0.4612 -0.1569 -0.5283
 3989SOL     ow15953   2.873   4.896   4.699  0.0646 -0.4804  0.3017
 3989SOL     hw15954   2.814   4.971   4.688 -1.5236 -1.8662 -1.2608
 3989SOL     hw15955   2.831   4.825   4.651  2.9340 -1.6368 -0.7275
 3989SOL     vw15956   2.859   4.897   4.691  0.2337 -0.8159 -0.0403
 3990SOL     ow15957   4.113   5.618   2.832  0.4679 -0.5697  0.0354
 3990SOL     hw15958   4.144   5.646   2.745 -0.4475  0.0135 -0.1177
 3990SOL     hw15959   4.038   5.675   2.850  0.5009 -0.8471  1.1106
 3990SOL     vw15960   4.107   5.629   2.823  0.3517 -0.5293  0.1572
 3991SOL     ow15961   0.270   0.328   5.080  0.1951  0.2331 -0.1498
 3991SOL     hw15962   0.345   0.373   5.043  0.6724 -1.0367 -0.8077
 3991SOL     hw15963   0.260   0.364   5.168 -0.1554  2.3894 -1.0269
 3991SOL     vw15964   0.278   0.339   5.087  0.2118  0.3501 -0.3519
 3992SOL     ow15965   6.535   6.174   2.013  0.0077  0.2854  0.4148
 3992SOL     hw15966   6.506   6.128   1.935 -1.2128  0.1459  0.9303
 3992SOL     hw15967   6.516   6.114   2.085  2.8366 -0.4065  0.7232
 3992SOL     vw15968   6.529   6.160   2.012  0.2201  0.1755  0.5234
 3993SOL     ow15969   2.927   6.078   4.753  0.3382 -0.3583 -0.6774
 3993SOL     hw15970   2.918   6.099   4.846  0.5037  0.2519 -0.7935
 3993SOL     hw15971   2.952   5.985   4.752 -0.2626 -0.5330 -0.1433
 3993SOL     vw15972   2.929   6.068   4.765  0.2807 -0.3009 -0.6225
 3994SOL     ow15973   3.760   6.542   0.039  0.2660 -0.2084  0.4857
 3994SOL     hw15974   3.699   6.575  -0.027  1.2139  0.6538 -0.0019
 3994SOL     hw15975   3.708   6.484   0.094 -0.5013 -1.1661 -1.1769
 3994SOL     vw15976   3.745   6.539   0.038  0.2897 -0.2208  0.2019
 3995SOL     ow15977   1.596   2.632   5.585  0.1121 -0.2979 -0.2431
 3995SOL     hw15978   1.550   2.608   5.665  0.2367 -0.0367 -0.0913
 3995SOL     hw15979   1.686   2.604   5.599  0.2955  0.3850  0.0011
 3995SOL     vw15980   1.601   2.625   5.597  0.1528 -0.1733 -0.1910
 3996SOL     ow15981   6.661   4.554   5.501 -0.2393 -0.5497 -0.1446
 3996SOL     hw15982   6.583   4.546   5.447 -0.2250 -0.8728 -0.1194
 3996SOL     hw15983   6.672   4.468   5.541 -0.1463 -0.3666  0.2322
 3996SOL     vw15984   6.652   4.542   5.499 -0.2253 -0.5682 -0.0916
 3997SOL     ow15985   4.664   5.099   1.283 -0.4499 -0.8063  0.6832
 3997SOL     hw15986   4.745   5.092   1.334 -0.7785 -2.9329  1.0024
 3997SOL     hw15987   4.596   5.109   1.350 -0.6341 -0.8641  0.5023
 3997SOL     vw15988   4.666   5.100   1.299 -0.5176 -1.0946  0.7014
 3998SOL     ow15989   1.001   4.615   3.655 -0.3301  0.0848 -0.4271
 3998SOL     hw15990   1.090   4.648   3.644  1.4177 -3.9559 -0.4581
 3998SOL     hw15991   0.965   4.615   3.566  0.3697  0.0963 -0.7225
 3998SOL     vw15992   1.008   4.619   3.642 -0.0072 -0.4468 -0.4700
 3999SOL     ow15993   4.150   4.586   0.352 -0.0435 -0.1325  0.3290
 3999SOL     hw15994   4.086   4.628   0.410  2.3547  0.5868  2.6797
 3999SOL     hw15995   4.175   4.654   0.290 -1.4344 -0.4126 -0.5985
 3999SOL     vw15996   4.144   4.600   0.352  0.0894 -0.0746  0.5168
 4000SOL     ow15997   5.636   6.653   4.916 -0.3063  0.1805 -0.0274
 4000SOL     hw15998   5.642   6.598   4.993  2.0710  1.1761  0.5894
 4000SOL     hw15999   5.576   6.606   4.857  1.5285 -3.0503  0.4482
 4000SOL     vw16000   5.629   6.640   4.918  0.2491 -0.1144  0.1171
 4001SOL     ow16001   0.711   1.487   7.566  0.2692  0.3803  0.1019
 4001SOL     hw16002   0.640   1.495   7.629 -0.5253 -0.7399 -0.5987
 4001SOL     hw16003   0.759   1.409   7.593 -0.8332 -0.8568 -1.3396
 4001SOL     vw16004   0.708   1.478   7.578  0.0189  0.0693 -0.1807
 4002SOL     ow16005   4.160   4.323   5.733  0.5559  0.4845  0.9751
 4002SOL     hw16006   4.074   4.320   5.690  0.5800 -2.6193  0.9336
 4002SOL     hw16007   4.222   4.303   5.664  1.2504  1.6753  1.2290
 4002SOL     vw16008   4.157   4.320   5.719  0.6506  0.2322  1.0033
 4003SOL     ow16009   0.661   2.522   4.274 -0.2909 -0.3907  0.3427
 4003SOL     hw16010   0.719   2.539   4.348 -0.3918 -4.3844  1.5558
 4003SOL     hw16011   0.624   2.436   4.291 -3.3277  0.1163 -2.5338
 4003SOL     vw16012   0.663   2.513   4.286 -0.7049 -0.8508  0.1233
 4004SOL     ow16013   6.908   0.685   7.204 -0.5746 -0.4433  0.1820
 4004SOL     hw16014   6.934   0.752   7.142 -2.6659  2.1979  1.9336
 4004SOL     hw16015   6.908   0.604   7.153  1.4194  0.9317 -2.2200
 4004SOL     vw16016   6.911   0.683   7.189 -0.5872  0.0866  0.0961
 4005SOL     ow16017   7.368   4.435   2.309 -0.4415 -0.5730 -0.1644
 4005SOL     hw16018   7.347   4.472   2.223  1.8858  0.9515 -0.1649
 4005SOL     hw16019   7.390   4.344   2.291  0.6891 -0.1000 -1.3420
 4005SOL     vw16020   7.368   4.428   2.295  0.0148 -0.3097 -0.3197
 4006SOL     ow16021   7.183   1.895   4.193 -0.4121 -0.7207 -0.4636
 4006SOL     hw16022   7.131   1.952   4.249 -0.1191 -0.9365  0.0325
 4006SOL     hw16023   7.180   1.809   4.236  3.6221  0.0584  1.8559
 4006SOL     vw16024   7.175   1.891   4.206  0.1588 -0.6464 -0.0923
 4007SOL     ow16025   3.910   3.097   6.945 -0.3990  0.6279 -0.1485
 4007SOL     hw16026   3.988   3.147   6.968 -1.2930  0.9538  2.4792
 4007SOL     hw16027   3.851   3.161   6.904  0.4690  0.4924 -1.6573
 4007SOL     vw16028   3.912   3.112   6.943 -0.4026  0.6531 -0.0010
 4008SOL     ow16029   4.340   5.475   6.699 -0.1504 -1.0736 -0.3784
 4008SOL     hw16030   4.419   5.470   6.645 -1.2511 -1.3721 -2.0418
 4008SOL     hw16031   4.283   5.405   6.665 -1.3625 -0.4907  0.3739
 4008SOL     vw16032   4.343   5.465   6.688 -0.4556 -1.0362 -0.4990
 4009SOL     ow16033   6.205   1.571   3.165 -0.3723  0.1353 -0.4823
 4009SOL     hw16034   6.191   1.487   3.210 -2.5452  1.0011  0.6385
 4009SOL     hw16035   6.233   1.547   3.077 -0.8080 -1.7739 -0.1497
 4009SOL     vw16036   6.207   1.557   3.159 -0.7164 -0.0023 -0.2906
 4010SOL     ow16037   1.815   4.170   0.675 -0.5803 -0.5803  1.0476
 4010SOL     hw16038   1.746   4.129   0.728 -1.1506 -2.2018 -0.8353
 4010SOL     hw16039   1.768   4.224   0.613 -0.1932 -1.5887 -0.1607
 4010SOL     vw16040   1.800   4.172   0.674 -0.6045 -0.9272  0.6397
 4011SOL     ow16041   2.208   2.747   2.012  0.1242 -0.1339  0.1499
 4011SOL     hw16042   2.188   2.830   2.055  1.5635  0.4694 -0.2778
 4011SOL     hw16043   2.126   2.723   1.969 -0.6583  0.4493  1.2462
 4011SOL     vw16044   2.194   2.755   2.012  0.2109  0.0228  0.2381
 4012SOL     ow16045   5.293   4.212   0.176  0.2468  0.5071  0.4111
 4012SOL     hw16046   5.259   4.209   0.266 -0.9104  0.6173 -0.0022
 4012SOL     hw16047   5.237   4.276   0.132 -0.2961 -0.7656 -0.8217
 4012SOL     vw16048   5.281   4.220   0.182  0.0226  0.3541  0.1939
 4013SOL     ow16049   1.667   0.553   3.192 -0.1845 -0.0801 -0.1658
 4013SOL     hw16050   1.600   0.489   3.166  0.6339 -0.5497 -1.2072
 4013SOL     hw16051   1.750   0.511   3.169  0.6169 -0.1915  2.5094
 4013SOL     vw16052   1.669   0.539   3.186  0.0293 -0.1568  0.0497
 4014SOL     ow16053   4.108   5.664   3.151  0.0536  0.2663 -0.1288
 4014SOL     hw16054   4.121   5.725   3.078  2.1172  0.9392  0.7368
 4014SOL     hw16055   4.067   5.717   3.219  1.2873  0.5735  0.4032
 4014SOL     vw16056   4.104   5.679   3.150  0.4883  0.3958  0.0556
 4015SOL     ow16057   7.529   2.986   6.213  0.2228  0.1045 -0.4817
 4015SOL     hw16058   7.580   2.905   6.207  1.3980  0.3643  3.5150
 4015SOL     hw16059   7.592   3.056   6.194 -0.6394  0.2569 -3.2635
 4015SOL     vw16060   7.544   2.985   6.209  0.2642  0.1588 -0.3214
 4016SOL     ow16061   4.635   5.207   0.800  0.5546 -0.5620 -0.2853
 4016SOL     hw16062   4.677   5.272   0.856  3.2348 -2.0616 -0.3347
 4016SOL     hw16063   4.549   5.243   0.780  0.5898  1.3399  2.4349
 4016SOL     vw16064   4.629   5.220   0.805  0.9129 -0.5088  0.0671
 4017SOL     ow16065   4.327   0.285   5.605 -0.4749 -0.0191  0.3954
 4017SOL     hw16066   4.350   0.194   5.626 -0.1678  0.0716  0.4528
 4017SOL     hw16067   4.389   0.338   5.655 -0.9049  0.2336  0.6694
 4017SOL     vw16068   4.338   0.280   5.614 -0.4911  0.0262  0.4389
 4018SOL     ow16069   2.013   3.026   4.685  0.3181 -0.1779  0.0602
 4018SOL     hw16070   1.947   3.095   4.701  0.6669  0.2818 -0.4555
 4018SOL     hw16071   2.069   3.062   4.616  2.9223  0.7234  2.4440
 4018SOL     vw16072   2.011   3.040   4.678  0.7077  0.0015  0.3066
 4019SOL     ow16073   5.895   6.804   0.038 -0.0026 -0.0938  0.6295
 4019SOL     hw16074   5.811   6.837   0.005  0.0434 -1.8382 -1.4425
 4019SOL     hw16075   5.872   6.725   0.087  0.3918 -0.2988  0.4837
 4019SOL     vw16076   5.881   6.798   0.040  0.0556 -0.3510  0.3369
 4020SOL     ow16077   4.238   1.623   2.660 -0.4273  0.7288 -0.0788
 4020SOL     hw16078   4.185   1.584   2.590 -0.3854  0.4705  0.0307
 4020SOL     hw16079   4.244   1.554   2.726 -0.1389  0.8360  0.0072
 4020SOL     vw16080   4.232   1.609   2.660 -0.3839  0.7089 -0.0530
 4021SOL     ow16081   3.533   2.378   0.868 -0.7651 -0.0206  0.1478
 4021SOL     hw16082   3.578   2.442   0.813 -0.2345 -0.8752 -0.4432
 4021SOL     hw16083   3.576   2.383   0.953 -0.2577 -0.0863 -0.1053
 4021SOL     vw16084   3.544   2.387   0.872 -0.6281 -0.1420  0.0364
 4022SOL     ow16085   0.752   6.282   5.005  0.3467 -0.0543 -0.0157
 4022SOL     hw16086   0.749   6.187   5.006 -1.9488 -0.0542 -1.1699
 4022SOL     hw16087   0.780   6.306   5.094  2.1278 -1.7581 -0.0524
 4022SOL     vw16088   0.756   6.273   5.017  0.2788 -0.2792 -0.1731
 4023SOL     ow16089   5.511   6.460   0.689  0.0207  0.1113 -0.5066
 4023SOL     hw16090   5.499   6.397   0.760  1.7151  0.2667 -0.0338
 4023SOL     hw16091   5.587   6.427   0.640  0.0849  1.0529 -1.0749
 4023SOL     vw16092   5.519   6.447   0.692  0.2527  0.2561 -0.5192
 4024SOL     ow16093   4.340   2.547   0.897 -0.3461 -0.1709  0.5148
 4024SOL     hw16094   4.396   2.579   0.967 -0.9309 -0.3946  1.1012
 4024SOL     hw16095   4.255   2.533   0.939 -0.6882 -0.3741 -0.2245
 4024SOL     vw16096   4.336   2.549   0.912 -0.4683 -0.2271  0.4947
 4025SOL     ow16097   3.172   3.406   4.512 -0.4269  0.2155 -0.0660
 4025SOL     hw16098   3.149   3.418   4.420 -1.8786  1.9506  0.4522
 4025SOL     hw16099   3.173   3.495   4.548 -0.3961 -0.4656  1.6937
 4025SOL     vw16100   3.169   3.419   4.504 -0.6144  0.3545  0.2346
 4026SOL     ow16101   3.170   0.340   1.712  0.1221  0.0844 -0.0487
 4026SOL     hw16102   3.081   0.323   1.682  0.2345 -1.7806  0.5848
 4026SOL     hw16103   3.226   0.321   1.637  0.0887 -0.3228  0.0263
 4026SOL     vw16104   3.166   0.336   1.698  0.1326 -0.2154  0.0448
 4027SOL     ow16105   1.506   0.381   3.525  0.0648  0.1350  0.4473
 4027SOL     hw16106   1.494   0.357   3.617  3.7601 -2.7755  0.4433
 4027SOL     hw16107   1.419   0.373   3.486 -1.0073 -2.2269  2.9978
 4027SOL     vw16108   1.493   0.377   3.532  0.4109 -0.5607  0.7831
 4028SOL     ow16109   7.187   1.952   3.941 -0.2027 -0.3072 -0.1286
 4028SOL     hw16110   7.112   2.002   3.909 -0.8191 -1.1121  0.0256
 4028SOL     hw16111   7.192   1.972   4.034  0.4896  0.6421 -0.3620
 4028SOL     vw16112   7.178   1.961   3.949 -0.1926 -0.2882 -0.1390
 4029SOL     ow16113   1.440   1.175   4.356 -0.2772 -0.9781 -0.1757
 4029SOL     hw16114   1.450   1.095   4.305  0.5971 -0.4481 -0.8847
 4029SOL     hw16115   1.530   1.205   4.371 -0.5928  0.1681 -0.4221
 4029SOL     vw16116   1.453   1.169   4.351 -0.2034 -0.7569 -0.3016
 4030SOL     ow16117   0.429   1.992   3.972  0.3711 -0.2236 -0.6669
 4030SOL     hw16118   0.443   2.077   3.930 -1.7824  0.2321 -0.5538
 4030SOL     hw16119   0.423   2.011   4.065 -1.1612 -0.3087 -0.7209
 4030SOL     vw16120   0.430   2.005   3.979 -0.1152 -0.1746 -0.6591
 4031SOL     ow16121   5.065   1.797   4.248  0.4987  0.1514  0.0351
 4031SOL     hw16122   5.034   1.865   4.189  0.9893 -2.1022 -3.0755
 4031SOL     hw16123   5.137   1.838   4.297  1.4193  1.6526 -2.4056
 4031SOL     vw16124   5.071   1.812   4.247  0.6847  0.0521 -0.6974
 4032SOL     ow16125   6.497   3.122   1.117  0.1538 -0.1496 -0.0987
 4032SOL     hw16126   6.406   3.099   1.098 -0.0085  1.2270 -1.0806
 4032SOL     hw16127   6.538   3.130   1.031  0.5910  1.6386  0.2545
 4032SOL     vw16128   6.491   3.120   1.103  0.1900  0.2679 -0.1817
 4033SOL     ow16129   5.999   0.354   1.444  0.9129 -0.5568 -0.1268
 4033SOL     hw16130   5.932   0.294   1.412  0.2597  0.0952 -0.0061
 4033SOL     hw16131   5.954   0.438   1.453  1.5996 -0.2438  0.5191
 4033SOL     vw16132   5.984   0.358   1.441  0.9174 -0.4295 -0.0256
 4034SOL     ow16133   3.121   0.998   6.344 -0.1937  0.4758  1.0171
 4034SOL     hw16134   3.175   1.075   6.327 -0.3964  0.4064  0.0095
 4034SOL     hw16135   3.174   0.924   6.315 -0.4728  0.3338  0.8640
 4034SOL     vw16136   3.135   0.998   6.338 -0.2571  0.4478  0.8638
 4035SOL     ow16137   2.577   6.942   2.591  0.3233  0.2373  0.3232
 4035SOL     hw16138   2.511   6.930   2.660 -0.2063  2.4189  0.2602
 4035SOL     hw16139   2.535   7.000   2.527  1.6016  0.0321 -0.7534
 4035SOL     vw16140   2.562   6.948   2.591  0.4221  0.4981  0.1727
 4036SOL     ow16141   2.819   3.683   2.995 -0.4496  0.4620  0.4983
 4036SOL     hw16142   2.910   3.711   2.983 -0.3169  0.2490  1.0029
 4036SOL     hw16143   2.796   3.710   3.084 -1.5453  2.3160 -0.2768
 4036SOL     vw16144   2.828   3.690   3.005 -0.5767  0.6784  0.4625
 4037SOL     ow16145   5.482   4.631   3.741 -0.3490 -0.6558  0.7813
 4037SOL     hw16146   5.404   4.670   3.701  1.9104  1.1782 -2.3109
 4037SOL     hw16147   5.468   4.641   3.835 -2.6928  2.0735  0.3000
 4037SOL     vw16148   5.470   4.638   3.748 -0.3600 -0.0539  0.3099
 4038SOL     ow16149   5.535   5.883   6.299  0.3399 -0.3880  0.0153
 4038SOL     hw16150   5.593   5.866   6.373 -1.1672  0.0084  1.3314
 4038SOL     hw16151   5.453   5.840   6.322 -0.6117  0.9405 -0.7553
 4038SOL     vw16152   5.532   5.875   6.312  0.0153 -0.1605  0.0868
 4039SOL     ow16153   6.043   1.095   2.806 -0.2719  0.2438 -0.0846
 4039SOL     hw16154   6.070   1.062   2.892  1.6653 -1.5742 -1.3004
 4039SOL     hw16155   5.959   1.052   2.789 -0.9790  1.0902  1.1134
 4039SOL     vw16156   6.036   1.085   2.815 -0.1097  0.1156 -0.0870
 4040SOL     ow16157   1.357   1.547   1.143  0.3820 -0.1718 -0.0369
 4040SOL     hw16158   1.447   1.580   1.135  0.5624 -0.6278  0.0808
 4040SOL     hw16159   1.355   1.502   1.227 -0.7760  2.3357  1.3770
 4040SOL     vw16160   1.369   1.545   1.153  0.2530  0.0988  0.1652
 4041SOL     ow16161   5.389   3.419   4.249 -0.8531 -0.0673  0.1154
 4041SOL     hw16162   5.320   3.407   4.314 -1.4785  1.2970 -0.2732
 4041SOL     hw16163   5.349   3.469   4.179 -0.2899 -1.8164 -1.5476
 4041SOL     vw16164   5.375   3.424   4.249 -0.8612 -0.1180 -0.1554
 4042SOL     ow16165   1.125   4.862   1.749  0.1563 -0.5765  0.1243
 4042SOL     hw16166   1.111   4.955   1.733  0.6941 -0.6860 -1.0405
 4042SOL     hw16167   1.127   4.822   1.662 -0.4603 -1.7445  0.6217
 4042SOL     vw16168   1.123   4.869   1.736  0.1459 -0.7448  0.0362
 4043SOL     ow16169   0.710   4.011   4.578 -0.0564  0.2459 -0.4374
 4043SOL     hw16170   0.703   4.105   4.563  0.9108  0.1761 -1.4737
 4043SOL     hw16171   0.744   3.976   4.496  2.0838 -0.6550  0.7271
 4043SOL     vw16172   0.714   4.018   4.565  0.3536  0.1180 -0.4208
 4044SOL     ow16173   3.794   3.486   3.415  0.3112 -0.9294  0.3128
 4044SOL     hw16174   3.732   3.454   3.481  0.6570 -1.4296  0.4071
 4044SOL     hw16175   3.740   3.510   3.340 -0.4326  2.4574  1.7732
 4044SOL     vw16176   3.779   3.485   3.414  0.2588 -0.5485  0.5180
 4045SOL     ow16177   1.037   1.891   4.502 -0.5853  0.0704 -0.1116
 4045SOL     hw16178   0.989   1.897   4.585 -0.5628 -1.4818  0.0398
 4045SOL     hw16179   0.969   1.900   4.435 -0.7768  0.0891  0.0831
 4045SOL     vw16180   1.021   1.893   4.504 -0.6075 -0.1319 -0.0658
 4046SOL     ow16181   5.265   6.312   0.365  0.0603 -0.6678  0.3712
 4046SOL     hw16182   5.316   6.233   0.348 -0.4841 -1.2004  1.1324
 4046SOL     hw16183   5.234   6.302   0.455  1.0397  1.0205  0.9280
 4046SOL     vw16184   5.267   6.300   0.375  0.1175 -0.5155  0.5451
 4047SOL     ow16185   5.141   5.354   6.738  0.2631  0.0079  0.3034
 4047SOL     hw16186   5.105   5.437   6.769 -0.7839 -0.0933 -0.6075
 4047SOL     hw16187   5.233   5.374   6.719 -0.1993  1.2031 -0.7967
 4047SOL     vw16188   5.148   5.368   6.740  0.0637  0.1521  0.0381
 4048SOL     ow16189   2.329   1.998   6.872 -0.0903 -0.7390 -0.1703
 4048SOL     hw16190   2.235   1.992   6.885  0.0074 -1.6407  0.2219
 4048SOL     hw16191   2.356   1.909   6.849  0.5191 -0.2834 -1.3416
 4048SOL     vw16192   2.320   1.985   6.870  0.0031 -0.7979 -0.2735
 4049SOL     ow16193   0.119   3.047   1.569 -0.6507 -0.2971  0.4125
 4049SOL     hw16194   0.122   2.952   1.578 -0.4417 -0.2818  0.5020
 4049SOL     hw16195   0.160   3.080   1.649 -1.6478 -0.1136  0.8676
 4049SOL     vw16196   0.125   3.039   1.581 -0.7547 -0.2708  0.4844
 4050SOL     ow16197   7.512   4.421   2.562  0.3010  0.3573 -0.2199
 4050SOL     hw16198   7.492   4.452   2.650  0.3015  0.1949 -0.1619
 4050SOL     hw16199   7.442   4.458   2.508  2.4663  3.9237 -0.9259
 4050SOL     vw16200   7.500   4.430   2.567  0.5867  0.8066 -0.3053
 4051SOL     ow16201   3.890   6.457   3.122  0.2973  0.3567 -0.5039
 4051SOL     hw16202   3.845   6.539   3.101  1.1802  0.5069 -1.9301
 4051SOL     hw16203   3.973   6.462   3.074  0.7807 -0.9560  0.1529
 4051SOL     vw16204   3.895   6.468   3.113  0.4774  0.2034 -0.6053
 4052SOL     ow16205   3.456   2.378   0.479 -0.2646  0.7627 -0.0342
 4052SOL     hw16206   3.479   2.421   0.396  0.4527  2.7375  1.1189
 4052SOL     hw16207   3.540   2.358   0.520 -0.6152  0.6912  0.6601
 4052SOL     vw16208   3.470   2.381   0.473 -0.2161  1.0139  0.2095
 4053SOL     ow16209   1.711   5.108   6.134 -0.6022 -0.4018 -0.1677
 4053SOL     hw16210   1.624   5.102   6.096  0.3186  0.0339 -2.5327
 4053SOL     hw16211   1.770   5.094   6.060  1.3553 -1.9698  1.5756
 4053SOL     vw16212   1.707   5.105   6.119 -0.2224 -0.5512 -0.2499
 4054SOL     ow16213   3.377   1.942   6.444  0.3976  0.5063  0.3241
 4054SOL     hw16214   3.294   1.957   6.399  1.4318  0.5460 -1.6618
 4054SOL     hw16215   3.352   1.893   6.523 -1.3162 -1.7700 -1.4708
 4054SOL     vw16216   3.362   1.937   6.448  0.3079  0.2112 -0.1748
 4055SOL     ow16217   6.892   4.697   5.661 -0.0570 -0.1163  0.1047
 4055SOL     hw16218   6.911   4.611   5.697 -1.8509 -0.2571  0.8466
 4055SOL     hw16219   6.976   4.731   5.633  0.8185 -1.7179  0.6667
 4055SOL     vw16220   6.905   4.690   5.662 -0.1779 -0.3462  0.2768
 4056SOL     ow16221   0.317   5.692   4.651  0.3858 -0.0063 -0.3413
 4056SOL     hw16222   0.339   5.633   4.722 -0.2369  0.3228  0.1351
 4056SOL     hw16223   0.226   5.672   4.630 -0.1347  1.3793  0.4450
 4056SOL     vw16224   0.308   5.682   4.657  0.2350  0.2198 -0.1745
 4057SOL     ow16225   6.174   6.130   4.992 -0.5503 -0.0383  0.2440
 4057SOL     hw16226   6.120   6.058   4.961  2.6270 -2.9956  0.9059
 4057SOL     hw16227   6.243   6.139   4.926 -0.7923  2.4259  0.2211
 4057SOL     vw16228   6.176   6.122   4.980 -0.1631 -0.1037  0.3285
 4058SOL     ow16229   3.728   5.960   5.617 -0.4022  0.1636 -0.0885
 4058SOL     hw16230   3.685   6.024   5.674  2.1565  2.3558 -0.3828
 4058SOL     hw16231   3.676   5.959   5.537 -0.1329  2.5734 -0.3783
 4058SOL     vw16232   3.716   5.968   5.614 -0.0290  0.7708 -0.1655
 4059SOL     ow16233   5.704   1.677   6.333  0.1223 -0.1222  0.0974
 4059SOL     hw16234   5.764   1.742   6.298 -0.6135 -0.8116 -2.6359
 4059SOL     hw16235   5.620   1.723   6.342  0.1753 -0.0929  0.4710
 4059SOL     vw16236   5.701   1.692   6.330  0.0322 -0.2093 -0.2141
 4060SOL     ow16237   3.464   4.412   1.707 -0.1607 -0.3693  0.0159
 4060SOL     hw16238   3.522   4.339   1.688  0.7157  0.3466 -0.1080
 4060SOL     hw16239   3.522   4.487   1.721 -1.0325  0.2944  0.2111
 4060SOL     vw16240   3.479   4.413   1.706 -0.1602 -0.1874  0.0253
 4061SOL     ow16241   1.734   2.410   5.973 -0.0424 -1.0175 -0.1478
 4061SOL     hw16242   1.822   2.423   5.938 -0.1155 -0.6969 -0.2165
 4061SOL     hw16243   1.702   2.332   5.929 -0.0930 -0.6735 -0.7342
 4061SOL     vw16244   1.742   2.402   5.962 -0.0587 -0.9298 -0.2344
 4062SOL     ow16245   0.279   2.723   2.811 -0.0751  0.0235  0.1081
 4062SOL     hw16246   0.260   2.652   2.750 -1.7334 -0.6638  1.3589
 4062SOL     hw16247   0.369   2.707   2.839 -0.3723 -1.5414  0.2675
 4062SOL     vw16248   0.288   2.712   2.807 -0.3331 -0.2738  0.2941
 4063SOL     ow16249   1.179   6.472   5.297 -0.1870 -0.4924 -0.1619
 4063SOL     hw16250   1.235   6.410   5.252  1.9516 -0.3820  2.0955
 4063SOL     hw16251   1.183   6.446   5.389 -1.4510  1.3543  0.4856
 4063SOL     vw16252   1.187   6.461   5.304 -0.0715 -0.2341  0.2213
 4064SOL     ow16253   0.534   2.123   2.988  0.0935 -0.2931  0.3488
 4064SOL     hw16254   0.534   2.042   2.936  2.9232 -0.9586  1.2045
 4064SOL     hw16255   0.590   2.183   2.939 -0.1572  0.3467  0.8386
 4064SOL     vw16256   0.542   2.120   2.974  0.4338 -0.2966  0.5264
 4065SOL     ow16257   6.617   1.138   3.200 -0.1025 -0.3031 -0.3986
 4065SOL     hw16258   6.687   1.157   3.262 -1.0945  0.2197  0.5939
 4065SOL     hw16259   6.565   1.070   3.242 -1.4728  0.9024 -0.0814
 4065SOL     vw16260   6.619   1.132   3.214 -0.4141 -0.0750 -0.2258
 4066SOL     ow16261   1.912   5.486   0.354  0.4046 -0.1738  0.1009
 4066SOL     hw16262   1.997   5.493   0.397 -0.0753 -1.1601  1.2796
 4066SOL     hw16263   1.914   5.553   0.286  1.3595  1.2062  1.4077
 4066SOL     vw16264   1.924   5.496   0.351  0.4673 -0.1221  0.4288
 4067SOL     ow16265   7.053   3.469   2.913 -0.0289 -0.5983 -0.0770
 4067SOL     hw16266   6.993   3.543   2.919  0.5843 -0.1968  1.9782
 4067SOL     hw16267   7.127   3.501   2.861 -0.5475 -0.3497 -0.6688
 4067SOL     vw16268   7.055   3.483   2.907 -0.0165 -0.5125  0.1161
 4068SOL     ow16269   4.803   0.095   4.433  0.1090  0.3526  0.0601
 4068SOL     hw16270   4.842   0.020   4.388 -0.5841  0.8183 -1.3597
 4068SOL     hw16271   4.851   0.170   4.401 -0.0591  0.6493  0.4914
 4068SOL     vw16272   4.814   0.095   4.423 -0.0048  0.4532 -0.0703
 4069SOL     ow16273   4.507   7.583   0.541  0.5456 -0.2128  1.0902
 4069SOL     hw16274   4.516   7.669   0.501  0.5207  0.0716  1.6919
 4069SOL     hw16275   4.554   7.524   0.482  2.0405  0.4719  1.5682
 4069SOL     vw16276   4.514   7.586   0.528  0.7396 -0.0846  1.2327
 4070SOL     ow16277   0.269   5.898   7.083  0.3942 -0.4620 -0.4885
 4070SOL     hw16278   0.207   5.867   7.148  0.6654 -0.4295 -0.2101
 4070SOL     hw16279   0.217   5.951   7.022  0.1842 -0.2776 -0.1492
 4070SOL     vw16280   0.254   5.901   7.083  0.4023 -0.4334 -0.4067
 4071SOL     ow16281   6.931   0.065   2.299 -0.4563 -0.2416  0.3551
 4071SOL     hw16282   6.893   0.020   2.224 -3.6882 -1.9173  2.7358
 4071SOL     hw16283   6.866   0.130   2.324  0.6488  0.4563  1.5722
 4071SOL     vw16284   6.918   0.067   2.293 -0.7370 -0.3706  0.8298
 4072SOL     ow16285   7.433   5.944   3.507 -0.2977 -0.0292  0.4461
 4072SOL     hw16286   7.486   5.993   3.444  0.3568 -0.3041  0.7698
 4072SOL     hw16287   7.355   5.918   3.459 -1.0184  1.9438  0.4558
 4072SOL     vw16288   7.430   5.947   3.493 -0.3064  0.1948  0.4901
 4073SOL     ow16289   2.594   5.946   1.205 -0.0884  0.2105  0.1849
 4073SOL     hw16290   2.618   5.876   1.265  0.6008  1.1140  0.9974
 4073SOL     hw16291   2.537   6.004   1.256 -0.4714  0.3622 -0.4009
 4073SOL     vw16292   2.590   5.945   1.219 -0.0479  0.3498  0.2147
 4074SOL     ow16293   4.772   5.062   1.559  0.9685 -0.0863  0.2266
 4074SOL     hw16294   4.796   5.143   1.605  1.5712 -0.2954  0.2941
 4074SOL     hw16295   4.852   5.009   1.562  0.4731 -0.8260  0.4892
 4074SOL     vw16296   4.786   5.065   1.566  0.9823 -0.2115  0.2701
 4075SOL     ow16297   1.679   2.306   5.201  0.6088  0.1860  0.3717
 4075SOL     hw16298   1.617   2.260   5.258 -1.3474  2.8852  0.6083
 4075SOL     hw16299   1.735   2.237   5.167 -1.4068 -2.1992  1.5411
 4075SOL     vw16300   1.678   2.291   5.204  0.0848  0.2275  0.5572
 4076SOL     ow16301   6.264   3.195   5.075 -0.3605  0.3408 -0.2440
 4076SOL     hw16302   6.177   3.233   5.063 -0.6898 -0.4288 -0.3423
 4076SOL     hw16303   6.319   3.268   5.103 -0.7917  1.0709 -1.2473
 4076SOL     vw16304   6.260   3.210   5.077 -0.4609  0.3355 -0.3891
 4077SOL     ow16305   0.777   4.890   1.185 -1.0450  0.1302  0.2761
 4077SOL     hw16306   0.870   4.884   1.163 -0.6562  0.2680  1.7699
 4077SOL     hw16307   0.752   4.979   1.159 -0.6578  0.2121  0.1782
 4077SOL     vw16308   0.786   4.901   1.179 -0.9426  0.1595  0.4602
 4078SOL     ow16309   4.670   6.939   3.679 -0.1631 -0.4094  0.3361
 4078SOL     hw16310   4.672   6.997   3.602 -0.5517  0.7201  1.1551
 4078SOL     hw16311   4.760   6.911   3.690  0.4102  1.5465  1.0202
 4078SOL     vw16312   4.682   6.943   3.670 -0.1388 -0.0026  0.5345
 4079SOL     ow16313   3.321   2.352   2.734 -0.9781 -0.0273  0.1653
 4079SOL     hw16314   3.333   2.431   2.681 -1.5494  0.0766  0.1873
 4079SOL     hw16315   3.385   2.290   2.700 -0.7533  0.3325 -0.0712
 4079SOL     vw16316   3.331   2.354   2.723 -1.0238  0.0339  0.1370
 4080SOL     ow16317   6.432   3.680   2.260 -0.4215  0.0406 -0.0429
 4080SOL     hw16318   6.428   3.588   2.287 -0.0280 -0.0039 -0.1290
 4080SOL     hw16319   6.380   3.685   2.180 -1.5131  0.1497  0.6392
 4080SOL     vw16320   6.425   3.669   2.253 -0.5133  0.0490  0.0359
 4081SOL     ow16321   7.145   5.814   0.763 -0.0531  0.3130 -0.7517
 4081SOL     hw16322   7.115   5.905   0.765  0.3164  0.4350 -0.6775
 4081SOL     hw16323   7.170   5.795   0.854 -0.4868  0.0165 -0.6931
 4081SOL     vw16324   7.145   5.824   0.775 -0.0618  0.2902 -0.7342
 4082SOL     ow16325   5.283   5.670   0.412  1.1123 -0.6627  0.3335
 4082SOL     hw16326   5.379   5.665   0.412  1.2001  0.6800  0.1806
 4082SOL     hw16327   5.262   5.732   0.342  0.0793 -1.5369 -0.1608
 4082SOL     vw16328   5.293   5.678   0.403  0.9878 -0.6008  0.2481
 4083SOL     ow16329   5.427   0.718   1.071  0.1980  0.1127  0.4279
 4083SOL     hw16330   5.378   0.743   1.149  0.8447  2.2137  0.2076
 4083SOL     hw16331   5.398   0.779   1.004  1.3597 -0.1702 -0.3556
 4083SOL     vw16332   5.416   0.729   1.072  0.4368  0.3526  0.2955
 4084SOL     ow16333   1.525   4.431   5.782 -0.7257  0.0681  0.1057
 4084SOL     hw16334   1.504   4.524   5.791  1.0365  0.5131  0.0378
 4084SOL     hw16335   1.516   4.396   5.870 -0.8287  0.4310  0.2436
 4084SOL     vw16336   1.521   4.439   5.795 -0.5068  0.1745  0.1147
 4085SOL     ow16337   6.863   0.754   1.125 -0.4623 -0.2909 -0.1933
 4085SOL     hw16338   6.877   0.811   1.201  2.6024  0.5272 -1.2147
 4085SOL     hw16339   6.920   0.679   1.142  0.2198 -0.1257 -1.5875
 4085SOL     vw16340   6.872   0.752   1.138  0.0319 -0.1612 -0.5120
 4086SOL     ow16341   0.708   1.722   3.551 -0.3239  0.4734  0.5744
 4086SOL     hw16342   0.772   1.791   3.533  1.3716 -0.7293  1.6682
 4086SOL     hw16343   0.684   1.688   3.464  2.0665 -0.3539  0.1733
 4086SOL     vw16344   0.713   1.726   3.537  0.2152  0.2056  0.6659
 4087SOL     ow16345   5.391   0.300   0.164 -0.2004 -0.2691 -0.4740
 4087SOL     hw16346   5.333   0.373   0.144  0.0675  0.0810  0.0190
 4087SOL     hw16347   5.335   0.236   0.208 -0.5068 -0.5030 -1.2016
 4087SOL     vw16348   5.376   0.301   0.167 -0.2053 -0.2538 -0.5050
 4088SOL     ow16349   1.350   1.653   0.323  0.0198  0.2618  0.5236
 4088SOL     hw16350   1.318   1.660   0.233  0.9198  0.2682  0.1984
 4088SOL     hw16351   1.289   1.592   0.365 -1.0098  1.0303  0.2045
 4088SOL     vw16352   1.338   1.646   0.317  0.0027  0.3640  0.4386
 4089SOL     ow16353   1.422   1.863   4.715  0.4493  0.3468 -0.4687
 4089SOL     hw16354   1.496   1.811   4.746 -2.3503 -2.8219  1.6999
 4089SOL     hw16355   1.442   1.883   4.624  4.0836  0.0877  0.1411
 4089SOL     vw16356   1.434   1.859   4.707  0.5594 -0.1054 -0.1020
 4090SOL     ow16357   7.503   3.025   0.946  0.2268  0.1672 -0.1242
 4090SOL     hw16358   7.497   2.933   0.918  0.2408 -0.0605  0.6099
 4090SOL     hw16359   7.542   3.070   0.871  0.5686 -0.4929 -0.3506
 4090SOL     vw16360   7.507   3.019   0.932  0.2738  0.0501 -0.0573
 4091SOL     ow16361   3.893   3.391   3.069 -0.2028 -0.5089  0.1282
 4091SOL     hw16362   3.943   3.435   3.137 -1.0553 -0.5136  0.7658
 4091SOL     hw16363   3.807   3.432   3.071 -0.9562 -2.0276  0.5954
 4091SOL     vw16364   3.889   3.402   3.078 -0.4146 -0.7100  0.2739
 4092SOL     ow16365   3.594   4.293   3.021  0.0078  0.2091  0.2774
 4092SOL     hw16366   3.547   4.345   3.087 -0.4479  0.6308 -0.3640
 4092SOL     hw16367   3.624   4.358   2.957 -0.9099 -0.3411 -0.7390
 4092SOL     vw16368   3.592   4.309   3.021 -0.1732  0.1922  0.0585
 4093SOL     ow16369   6.634   1.167   5.394  0.7160  0.4746 -0.0323
 4093SOL     hw16370   6.549   1.189   5.355  0.5768 -1.1204 -0.7197
 4093SOL     hw16371   6.697   1.184   5.324  0.8057  0.3290  0.0139
 4093SOL     vw16372   6.631   1.172   5.380  0.7095  0.2450 -0.1168
 4094SOL     ow16373   4.775   1.732   4.288  0.4670 -0.0418 -0.1842
 4094SOL     hw16374   4.863   1.770   4.292 -0.0002  1.3444 -1.9793
 4094SOL     hw16375   4.743   1.740   4.378  1.9965 -0.1995  0.4177
 4094SOL     vw16376   4.783   1.738   4.301  0.6070  0.1203 -0.3419
 4095SOL     ow16377   0.958   0.667   6.424 -0.4919 -0.3453 -0.1445
 4095SOL     hw16378   0.948   0.646   6.331 -1.3331 -0.9160  0.0627
 4095SOL     hw16379   0.919   0.754   6.433  0.8311  0.3206 -0.5618
 4095SOL     vw16380   0.951   0.675   6.413 -0.4283 -0.3327 -0.1721
 4096SOL     ow16381   2.313   1.485   6.950 -0.3934 -0.1480 -0.0138
 4096SOL     hw16382   2.339   1.482   6.858  0.8683  0.1104  0.3140
 4096SOL     hw16383   2.386   1.529   6.994 -0.3899 -1.3917  1.3054
 4096SOL     vw16384   2.326   1.490   6.944 -0.2264 -0.2779  0.2034
 4097SOL     ow16385   5.807   5.193   5.963  0.6078 -0.1100  0.0148
 4097SOL     hw16386   5.808   5.161   5.873 -0.1252  1.8902 -0.7549
 4097SOL     hw16387   5.893   5.233   5.975  0.3743  0.4490 -0.1351
 4097SOL     vw16388   5.819   5.194   5.953  0.4804  0.2275 -0.1066
 4098SOL     ow16389   3.248   1.882   5.440 -0.3634  0.3424  0.0510
 4098SOL     hw16390   3.272   1.793   5.415  2.7045  1.1761 -0.2997
 4098SOL     hw16391   3.230   1.925   5.356 -1.1920  0.2572  0.1756
 4098SOL     vw16392   3.249   1.876   5.426 -0.0679  0.4412  0.0212
 4099SOL     ow16393   0.506   1.819   3.729  0.0247  0.2213  0.3337
 4099SOL     hw16394   0.442   1.749   3.732  0.1529  0.1169  1.0369
 4099SOL     hw16395   0.547   1.812   3.643  0.9145 -1.3697  0.8536
 4099SOL     vw16396   0.503   1.809   3.718  0.1590 -0.0024  0.4951
 4100SOL     ow16397   7.234   0.915   6.331  0.6831  0.9469 -0.2144
 4100SOL     hw16398   7.247   1.001   6.370 -1.9701  0.4679  2.0377
 4100SOL     hw16399   7.146   0.889   6.357  1.0884 -2.1575 -1.4196
 4100SOL     vw16400   7.224   0.923   6.339  0.3867  0.4741 -0.0763
 4101SOL     ow16401   4.849   6.930   6.980  0.1775  0.3647 -0.1379
 4101SOL     hw16402   4.943   6.946   6.972  0.8517 -1.1064  3.2907
 4101SOL     hw16403   4.836   6.844   6.938 -0.2002  1.5966 -2.7539
 4101SOL     vw16404   4.860   6.920   6.973  0.2165  0.3333 -0.0310
 4102SOL     ow16405   1.463   0.768   3.128  0.2056 -0.0171 -0.3635
 4102SOL     hw16406   1.532   0.705   3.150 -0.6808 -0.7395  0.4471
 4102SOL     hw16407   1.384   0.715   3.125 -0.6228  1.1117  0.6862
 4102SOL     vw16408   1.462   0.753   3.131 -0.0206  0.0365 -0.1180
 4103SOL     ow16409   7.375   6.209   2.356  0.9364 -0.5506  0.7321
 4103SOL     hw16410   7.296   6.175   2.315  0.2485  0.8281  0.8926
 4103SOL     hw16411   7.435   6.223   2.283 -0.2800  1.8869  0.1194
 4103SOL     vw16412   7.373   6.206   2.341  0.6852 -0.0472  0.6725
 4104SOL     ow16413   6.265   0.618   6.233  0.4486  0.3115  0.0061
 4104SOL     hw16414   6.196   0.673   6.196  0.8991  2.2231  1.7750
 4104SOL     hw16415   6.238   0.603   6.323  1.6191 -0.1958  0.2903
 4104SOL     vw16416   6.252   0.623   6.240  0.6623  0.4968  0.2770
 4105SOL     ow16417   2.233   3.467   4.851 -0.2135  0.6310  0.1040
 4105SOL     hw16418   2.249   3.405   4.922  0.0460  2.2855  1.5360
 4105SOL     hw16419   2.241   3.553   4.891 -1.1733  1.6238 -1.6986
 4105SOL     vw16420   2.236   3.470   4.866 -0.3058  0.9803  0.0553
 4106SOL     ow16421   6.280   2.189   4.021  0.4491 -0.0489  0.1527
 4106SOL     hw16422   6.341   2.207   4.093  1.3099 -1.0033 -0.3096
 4106SOL     hw16423   6.331   2.135   3.960 -1.0130 -1.2483 -0.0413
 4106SOL     vw16424   6.295   2.184   4.022  0.3698 -0.3331  0.0663
 4107SOL     ow16425   5.806   1.791   6.633  0.0578 -0.1217 -0.4438
 4107SOL     hw16426   5.864   1.776   6.558 -0.5537  0.1502 -0.9758
 4107SOL     hw16427   5.799   1.886   6.640 -0.1443 -0.1490 -0.2412
 4107SOL     vw16428   5.813   1.802   6.624 -0.0494 -0.0895 -0.4871
 4108SOL     ow16429   1.885   6.159   3.591  0.0118  0.2666 -0.2097
 4108SOL     hw16430   1.949   6.117   3.534  1.6429  1.3795  0.7295
 4108SOL     hw16431   1.886   6.107   3.671  0.9747  1.1720  0.4067
 4108SOL     vw16432   1.894   6.147   3.594  0.3540  0.5329 -0.0044
 4109SOL     ow16433   2.585   4.000   6.951  0.0469 -0.7811 -0.3476
 4109SOL     hw16434   2.664   4.054   6.951  0.7938 -1.8405 -1.0195
 4109SOL     hw16435   2.551   4.007   7.040  0.4204  0.3545 -0.2792
 4109SOL     vw16436   2.591   4.008   6.962  0.1945 -0.7710 -0.4275
 4110SOL     ow16437   6.388   2.356   3.825  0.3346 -0.1747 -0.3875
 4110SOL     hw16438   6.455   2.419   3.853 -0.4090  0.6965 -0.5276
 4110SOL     hw16439   6.358   2.316   3.907  1.6091 -1.2048 -0.3879
 4110SOL     vw16440   6.393   2.359   3.840  0.4046 -0.1957 -0.4061
 4111SOL     ow16441   3.049   5.585   5.489 -0.1430 -0.0869 -0.2998
 4111SOL     hw16442   3.065   5.584   5.583 -1.4903  2.1060  0.0012
 4111SOL     hw16443   3.082   5.670   5.459 -0.4222 -0.4352 -1.6915
 4111SOL     vw16444   3.056   5.596   5.497 -0.3576  0.1562 -0.4435
 4112SOL     ow16445   0.013   0.280   4.626  0.7399  0.0536  0.3489
 4112SOL     hw16446  -0.063   0.265   4.681  1.0407  0.1322  0.7855
 4112SOL     hw16447   0.016   0.203   4.568 -0.5134  0.7271 -0.6716
 4112SOL     vw16448   0.004   0.268   4.625  0.6139  0.1528  0.2716
 4113SOL     ow16449   4.027   2.320   6.580  0.2868 -0.0794 -0.6656
 4113SOL     hw16450   4.053   2.412   6.580  1.7762 -0.4731  0.2095
 4113SOL     hw16451   3.970   2.312   6.656 -0.6537  0.2982 -1.3018
 4113SOL     vw16452   4.023   2.331   6.590  0.3593 -0.0814 -0.6344
 4114SOL     ow16453   6.621   0.993   0.503 -0.5001  0.2433  0.3479
 4114SOL     hw16454   6.598   1.044   0.581 -1.1124  0.1094  0.2593
 4114SOL     hw16455   6.594   0.903   0.524  1.2113 -0.2246  0.7882
 4114SOL     vw16456   6.615   0.988   0.516 -0.3552  0.1639  0.3943
 4115SOL     ow16457   7.127   1.984   4.628 -0.2183  0.5864 -0.1486
 4115SOL     hw16458   7.189   2.055   4.610 -0.8769  1.0312 -0.7429
 4115SOL     hw16459   7.164   1.908   4.582  1.2600  0.1185  1.7055
 4115SOL     vw16460   7.140   1.983   4.619 -0.1101  0.5834  0.0176
 4116SOL     ow16461   6.151   0.879   1.779  0.3030  0.3821  0.7682
 4116SOL     hw16462   6.073   0.846   1.823  0.0868 -1.9135 -1.1899
 4116SOL     hw16463   6.118   0.924   1.701  0.8872 -0.2488  0.1429
 4116SOL     vw16464   6.136   0.881   1.775  0.3514 -0.0040  0.4274
 4117SOL     ow16465   5.552   5.473   5.099 -0.0784  0.0951  0.1850
 4117SOL     hw16466   5.640   5.499   5.126 -0.1393 -0.8611  1.3806
 4117SOL     hw16467   5.545   5.503   5.008  1.3870  0.3965  0.1473
 4117SOL     vw16468   5.563   5.481   5.090  0.1068  0.0088  0.3376
 4118SOL     ow16469   6.771   0.769   2.229  0.1908  0.0495 -0.2132
 4118SOL     hw16470   6.710   0.825   2.277  0.0384  0.0148 -0.3668
 4118SOL     hw16471   6.816   0.828   2.169  0.2232  0.0543 -0.1840
 4118SOL     vw16472   6.769   0.784   2.228  0.1750  0.0455 -0.2296
 4119SOL     ow16473   3.245   1.955   5.770  0.0598 -0.0974  0.2914
 4119SOL     hw16474   3.299   2.014   5.718  0.2293 -0.6849 -0.2089
 4119SOL     hw16475   3.210   1.892   5.707 -0.8741  0.0183  0.6718
 4119SOL     vw16476   3.247   1.954   5.755 -0.0411 -0.1597  0.2756
 4120SOL     ow16477   0.097   6.039   0.463 -0.2496  0.2744  0.0137
 4120SOL     hw16478   0.099   6.086   0.546  2.4850  3.2268 -1.4448
 4120SOL     hw16479   0.186   6.007   0.451 -0.7877 -0.8237 -1.4156
 4120SOL     vw16480   0.109   6.041   0.472  0.0402  0.5190 -0.3673
 4121SOL     ow16481   3.049   4.535   5.255 -0.5769  0.3309 -0.2108
 4121SOL     hw16482   3.070   4.556   5.164  0.8708 -3.0213 -0.8154
 4121SOL     hw16483   3.128   4.556   5.303 -1.1173  1.4921  0.1946
 4121SOL     vw16484   3.062   4.540   5.249 -0.4573  0.0415 -0.2372
 4122SOL     ow16485   4.391   3.363   1.104 -0.2639 -0.3420 -0.4199
 4122SOL     hw16486   4.456   3.395   1.166  2.0051  0.9639 -3.2482
 4122SOL     hw16487   4.373   3.273   1.132 -1.5265  0.9536  3.6510
 4122SOL     vw16488   4.397   3.355   1.116 -0.1309  0.0013 -0.2560
 4123SOL     ow16489   3.471   6.301   0.628 -0.1471  0.4384  0.3785
 4123SOL     hw16490   3.536   6.279   0.562  3.6367  2.4801  3.0209
 4123SOL     hw16491   3.452   6.393   0.614  0.8956  0.9744  2.0729
 4123SOL     vw16492   3.477   6.310   0.618  0.4897  0.7784  0.9507
 4124SOL     ow16493   5.844   4.066   6.596 -0.1997 -0.5050 -0.3721
 4124SOL     hw16494   5.758   4.024   6.599 -0.5893  0.3107  0.2463
 4124SOL     hw16495   5.840   4.124   6.520 -0.9193  0.9876  0.7461
 4124SOL     vw16496   5.832   4.068   6.587 -0.3459 -0.2005 -0.1428
 4125SOL     ow16497   5.221   5.648   3.786 -0.4694 -0.2483  0.1192
 4125SOL     hw16498   5.250   5.609   3.868 -0.1909  1.3608  0.8350
 4125SOL     hw16499   5.288   5.622   3.722 -0.3832 -1.0445  0.5290
 4125SOL     vw16500   5.234   5.639   3.788 -0.4215 -0.1409  0.2677
 4126SOL     ow16501   0.733   2.703   3.647  0.1403  0.3449 -0.1767
 4126SOL     hw16502   0.786   2.765   3.597 -2.4191  1.5216 -1.6114
 4126SOL     hw16503   0.747   2.728   3.739 -0.0551  2.4473 -0.6695
 4126SOL     vw16504   0.742   2.714   3.653 -0.2232  0.7775 -0.4311
 4127SOL     ow16505   1.243   7.561   5.914  0.5787 -0.0154  0.7396
 4127SOL     hw16506   1.334   7.552   5.887  0.6051 -1.6798  1.2575
 4127SOL     hw16507   1.207   7.628   5.857  1.2751 -1.6167 -1.7295
 4127SOL     vw16508   1.250   7.569   5.903  0.6740 -0.4463  0.4826
 4128SOL     ow16509   5.614   6.958   7.099  0.2390 -0.5593 -0.4180
 4128SOL     hw16510   5.681   7.026   7.093 -0.3223  0.2102  1.3896
 4128SOL     hw16511   5.532   7.005   7.113 -0.1313 -1.5924  1.1502
 4128SOL     vw16512   5.612   6.973   7.100  0.1161 -0.5939  0.0274
 4129SOL     ow16513   4.736   5.602   3.830  0.1187 -0.1103 -0.2033
 4129SOL     hw16514   4.708   5.656   3.755 -0.1597 -1.9049 -1.4444
 4129SOL     hw16515   4.654   5.574   3.871  0.1746 -1.4518 -0.9647
 4129SOL     vw16516   4.722   5.606   3.826  0.0892 -0.5243 -0.4673
 4130SOL     ow16517   0.898   2.494   3.953 -0.6832 -0.0966  0.1573
 4130SOL     hw16518   0.973   2.527   3.903 -0.0322 -0.0853  1.1247
 4130SOL     hw16519   0.855   2.571   3.989 -0.6211 -0.1577  0.3640
 4130SOL     vw16520   0.902   2.508   3.951 -0.5891 -0.1034  0.3123
 4131SOL     ow16521   6.216   2.994   2.186  0.6149 -0.3203  0.1741
 4131SOL     hw16522   6.134   3.015   2.141  1.1672 -0.6690 -1.0092
 4131SOL     hw16523   6.190   2.987   2.278 -0.4155  0.9993  0.0153
 4131SOL     vw16524   6.202   2.996   2.192  0.5519 -0.1924 -0.0031
 4132SOL     ow16525   4.914   3.460   7.186  0.3459  0.1278  0.0306
 4132SOL     hw16526   4.916   3.554   7.172  0.5945  0.5111  2.2340
 4132SOL     hw16527   4.853   3.448   7.259  0.5609 -1.3919 -0.0050
 4132SOL     vw16528   4.906   3.471   7.194  0.4072 -0.0222  0.3166
 4133SOL     ow16529   4.408   4.491   3.684  0.2239 -0.1237 -0.3749
 4133SOL     hw16530   4.365   4.573   3.708  1.5168  0.1684  1.0761
 4133SOL     hw16531   4.371   4.426   3.743 -0.1029 -0.4131 -0.8861
 4133SOL     vw16532   4.398   4.493   3.695  0.3514 -0.1233 -0.2509
 4134SOL     ow16533   0.838   5.391   7.161 -0.5341  0.3390 -0.2012
 4134SOL     hw16534   0.775   5.420   7.095 -0.1280 -0.1765 -0.8243
 4134SOL     hw16535   0.802   5.310   7.195 -1.7601  1.5800  1.6720
 4134SOL     vw16536   0.825   5.384   7.157 -0.6423  0.4346 -0.0365
 4135SOL     ow16537   0.634   5.336   5.343  0.5969  0.3960  0.0347
 4135SOL     hw16538   0.693   5.355   5.270  1.1686 -0.1952  0.3341
 4135SOL     hw16539   0.685   5.279   5.401 -0.7482 -1.3283 -0.4039
 4135SOL     vw16540   0.649   5.331   5.341  0.4949  0.0906  0.0162
 4136SOL     ow16541   5.979   1.611   2.704 -0.1652 -0.1795  0.1272
 4136SOL     hw16542   6.014   1.698   2.688 -1.5282  0.1043 -1.6742
 4136SOL     hw16543   5.935   1.618   2.789 -0.0677  0.8394  0.1070
 4136SOL     vw16544   5.978   1.623   2.713 -0.3319 -0.0077 -0.1131
 4137SOL     ow16545   6.344   2.227   6.778 -0.2757  0.2272 -0.1617
 4137SOL     hw16546   6.345   2.247   6.871  0.5115 -0.9693  0.1003
 4137SOL     hw16547   6.256   2.192   6.762  0.6068 -2.7857  0.8935
 4137SOL     vw16548   6.332   2.225   6.788 -0.0556 -0.3281  0.0122
 4138SOL     ow16549   0.992   4.624   1.900  0.6066  0.0829  0.1291
 4138SOL     hw16550   0.898   4.633   1.885  0.6044  1.0989  0.6884
 4138SOL     hw16551   1.000   4.545   1.954  0.1533 -0.4575 -0.5786
 4138SOL     vw16552   0.981   4.615   1.906  0.5465  0.1459  0.1095
 4139SOL     ow16553   0.685   4.491   4.663  0.1792 -0.2563 -0.6450
 4139SOL     hw16554   0.694   4.451   4.577 -0.9929 -0.8408 -0.5146
 4139SOL     hw16555   0.751   4.561   4.664  1.1742 -1.1428 -1.4704
 4139SOL     vw16556   0.695   4.495   4.652  0.1558 -0.4504 -0.7370
 4140SOL     ow16557   1.135   5.083   4.549  0.1091 -0.2607 -0.1153
 4140SOL     hw16558   1.058   5.043   4.510  1.3195 -2.8067 -0.0870
 4140SOL     hw16559   1.208   5.054   4.494  1.3827 -0.4851  1.5987
 4140SOL     vw16560   1.135   5.074   4.537  0.4369 -0.6263  0.1144
 4141SOL     ow16561   5.031   6.703   3.568 -0.4086  0.6757  0.5495
 4141SOL     hw16562   5.033   6.608   3.571  3.8546  0.5641  2.3615
 4141SOL     hw16563   5.007   6.725   3.478 -1.7848 -2.0432  0.1742
 4141SOL     vw16564   5.028   6.693   3.557 -0.0277  0.3023  0.7390
 4142SOL     ow16565   6.772   4.836   5.926 -0.0157 -0.3264  0.6438
 4142SOL     hw16566   6.726   4.769   5.975  2.2048 -1.9075  0.7148
 4142SOL     hw16567   6.785   4.907   5.989 -1.9643  0.0177  0.7053
 4142SOL     vw16568   6.768   4.837   5.941  0.0203 -0.4897  0.6614
 4143SOL     ow16569   5.082   1.257   2.070 -0.0457 -0.7378 -0.0016
 4143SOL     hw16570   5.060   1.319   2.140  1.5938  1.8254 -1.5937
 4143SOL     hw16571   5.175   1.236   2.085  0.1582 -0.6331 -1.0400
 4143SOL     vw16572   5.092   1.262   2.081  0.1976 -0.3858 -0.3487
 4144SOL     ow16573   7.325   7.358   4.727 -0.7901 -0.5895 -0.6929
 4144SOL     hw16574   7.407   7.407   4.740 -0.7259 -0.9014  0.1144
 4144SOL     hw16575   7.326   7.291   4.795 -1.2211 -1.2729 -1.3466
 4144SOL     vw16576   7.336   7.356   4.737 -0.8383 -0.7210 -0.6728
 4145SOL     ow16577   6.261   2.331   3.575 -0.0079  0.4090  0.3157
 4145SOL     hw16578   6.238   2.424   3.581  0.0899  0.3588  1.6269
 4145SOL     hw16579   6.308   2.313   3.656  0.9775 -0.5150 -0.4410
 4145SOL     vw16580   6.264   2.341   3.586  0.1352  0.2805  0.3891
 4146SOL     ow16581   1.698   2.566   1.721 -0.0647  0.0952 -0.1729
 4146SOL     hw16582   1.709   2.623   1.645  1.0538  0.7468  0.4508
 4146SOL     hw16583   1.787   2.550   1.753 -0.5256  0.2334  1.2756
 4146SOL     vw16584   1.711   2.572   1.715  0.0221  0.1994  0.1006
 4147SOL     ow16585   4.739   2.353   4.300 -0.4048  0.1201  0.2919
 4147SOL     hw16586   4.684   2.286   4.258 -0.9149  1.0144 -0.5126
 4147SOL     hw16587   4.813   2.304   4.336  0.4639 -0.6505 -2.3089
 4147SOL     vw16588   4.742   2.337   4.299 -0.3579  0.1365 -0.1574
 4148SOL     ow16589   3.876   3.257   4.179  0.2037  0.4458 -0.4318
 4148SOL     hw16590   3.901   3.164   4.171  0.2150  0.3762  0.3204
 4148SOL     hw16591   3.865   3.270   4.273 -3.1034  0.3572 -0.6852
 4148SOL     vw16592   3.878   3.246   4.190 -0.2310  0.4249 -0.3660
 4149SOL     ow16593   5.128   0.475   1.436 -0.1659 -0.3442 -0.4386
 4149SOL     hw16594   5.107   0.384   1.414  0.9394 -0.3483 -1.5793
 4149SOL     hw16595   5.127   0.520   1.352 -2.6955  1.1737  0.3079
 4149SOL     vw16596   5.125   0.469   1.422 -0.3541 -0.1445 -0.4906
 4150SOL     ow16597   1.759   6.277   6.980 -0.5103  0.4101 -0.2943
 4150SOL     hw16598   1.669   6.282   7.013 -1.3524 -1.9562 -1.9872
 4150SOL     hw16599   1.774   6.184   6.963  1.6059  0.9528 -1.8366
 4150SOL     vw16600   1.749   6.265   6.982 -0.3422  0.1693 -0.7212
 4151SOL     ow16601   2.897   6.372   2.484  0.1463 -0.1778  0.2431
 4151SOL     hw16602   2.947   6.410   2.412 -0.0336  0.6447  0.5373
 4151SOL     hw16603   2.866   6.448   2.534 -0.7575 -0.6923  0.4901
 4151SOL     vw16604   2.900   6.387   2.481  0.0033 -0.1371  0.3146
 4152SOL     ow16605   7.351   4.711   5.361  0.1694 -0.2626 -0.3069
 4152SOL     hw16606   7.416   4.647   5.390 -0.0038  0.2813  1.3769
 4152SOL     hw16607   7.362   4.714   5.266  0.0298 -2.9351 -0.4945
 4152SOL     vw16608   7.361   4.703   5.352  0.1280 -0.5434 -0.1094
 4153SOL     ow16609   6.861   6.666   0.050 -0.4391 -0.1258 -0.4043
 4153SOL     hw16610   6.771   6.665   0.018  0.1093  1.1930 -2.1679
 4153SOL     hw16611   6.858   6.620   0.134 -2.5674 -0.9278 -0.8682
 4153SOL     vw16612   6.849   6.659   0.057 -0.6473 -0.0577 -0.6982
 4154SOL     ow16613   3.791   0.890   6.389 -0.1135  0.4029  0.0527
 4154SOL     hw16614   3.867   0.899   6.332 -0.9506 -2.6919 -1.7911
 4154SOL     hw16615   3.716   0.892   6.329 -1.1059 -1.5843  1.1196
 4154SOL     vw16616   3.791   0.891   6.373 -0.3549 -0.2676 -0.0498
 4155SOL     ow16617   0.979   2.285   3.490  0.5768  0.2831 -0.1692
 4155SOL     hw16618   1.060   2.336   3.501  0.4010  0.3580  0.8136
 4155SOL     hw16619   1.001   2.220   3.423  1.4093  0.3820 -0.0002
 4155SOL     vw16620   0.993   2.283   3.482  0.6634  0.3060 -0.0173
 4156SOL     ow16621   5.401   1.786   2.181  0.9609 -0.2490 -0.3585
 4156SOL     hw16622   5.336   1.840   2.135  0.4099 -2.1719 -1.9966
 4156SOL     hw16623   5.360   1.764   2.264 -0.4190 -1.1772 -1.2421
 4156SOL     vw16624   5.387   1.790   2.186  0.7060 -0.6251 -0.6912
 4157SOL     ow16625   5.324   0.237   0.626 -0.2715  0.0883  0.0436
 4157SOL     hw16626   5.365   0.310   0.580 -1.3970  1.5845  1.2974
 4157SOL     hw16627   5.235   0.233   0.591 -0.1592 -0.8331 -0.1602
 4157SOL     vw16628   5.318   0.246   0.615 -0.4051  0.1641  0.1821
 4158SOL     ow16629   5.042   7.475   5.294  0.8680  0.0272 -0.2101
 4158SOL     hw16630   5.030   7.565   5.264  0.4972  0.6143  1.5818
 4158SOL     hw16631   4.971   7.460   5.355 -0.2245 -2.1863 -1.8624
 4158SOL     vw16632   5.031   7.485   5.298  0.6752 -0.1874 -0.1919
 4159SOL     ow16633   0.120   2.794   2.028  0.0703 -0.1707  0.7654
 4159SOL     hw16634   0.073   2.717   2.062 -0.9408  0.6011  1.1559
 4159SOL     hw16635   0.162   2.832   2.105 -0.3860  0.3206  0.7722
 4159SOL     vw16636   0.119   2.789   2.043 -0.1233 -0.0041  0.8178
 4160SOL     ow16637   2.119   6.320   3.380 -0.0010  0.2637  0.4549
 4160SOL     hw16638   2.190   6.258   3.368  0.5599  0.9435  0.1981
 4160SOL     hw16639   2.051   6.291   3.319  0.4468  0.1852 -0.0091
 4160SOL     vw16640   2.119   6.308   3.370  0.1321  0.3433  0.3598
 4161SOL     ow16641   0.334   1.453   5.156 -0.6662  0.5511 -0.2137
 4161SOL     hw16642   0.239   1.447   5.150 -0.5700 -3.1814 -0.3461
 4161SOL     hw16643   0.365   1.446   5.066 -0.2227  2.2743 -0.2243
 4161SOL     vw16644   0.326   1.451   5.143 -0.5950  0.2860 -0.2327
 4162SOL     ow16645   5.625   7.166   4.909  0.3781  0.2363 -0.2942
 4162SOL     hw16646   5.689   7.203   4.969  0.2044  0.0614  0.0006
 4162SOL     hw16647   5.647   7.205   4.824 -0.3619  1.7461  0.1661
 4162SOL     vw16648   5.636   7.176   4.906  0.2573  0.4125 -0.1945
 4163SOL     ow16649   1.988   6.507   5.926 -0.1122  0.0081 -0.1186
 4163SOL     hw16650   1.903   6.497   5.969  0.6919  0.4647  1.6796
 4163SOL     hw16651   2.039   6.432   5.957  0.6018  0.5461  0.0346
 4163SOL     vw16652   1.984   6.496   5.936  0.0882  0.1390  0.1388
 4164SOL     ow16653   7.407   5.620   4.701  0.7564  0.1267 -0.1872
 4164SOL     hw16654   7.486   5.632   4.649  1.2329 -2.1045 -0.0750
 4164SOL     hw16655   7.337   5.660   4.649  1.8095  1.3990 -0.6689
 4164SOL     vw16656   7.408   5.627   4.687  0.9582  0.0002 -0.2360
 4165SOL     ow16657   2.452   3.403   7.519 -0.2679 -0.5379 -0.2350
 4165SOL     hw16658   2.430   3.478   7.574  3.4363  2.6114 -2.4408
 4165SOL     hw16659   2.380   3.342   7.530 -4.1511  3.7485  1.0699
 4165SOL     vw16660   2.440   3.405   7.528 -0.2915  0.4431 -0.3538
 4166SOL     ow16661   5.002   2.624   1.455  0.5389 -0.2532  0.8897
 4166SOL     hw16662   5.095   2.604   1.448  0.6426  0.2320  0.8491
 4166SOL     hw16663   4.967   2.607   1.367  0.4993 -0.8755  1.0248
 4166SOL     vw16664   5.010   2.619   1.442  0.5472 -0.2714  0.9022
 4167SOL     ow16665   1.512   3.915   3.954  0.0078 -0.4468  0.3680
 4167SOL     hw16666   1.548   3.831   3.980  1.0564 -0.6074 -1.4195
 4167SOL     hw16667   1.586   3.976   3.957 -0.1431 -0.1810 -0.8223
 4167SOL     vw16668   1.527   3.912   3.958  0.1262 -0.4327 -0.0248
 4168SOL     ow16669   0.241   1.799   2.107 -0.1413  0.4861  0.0309
 4168SOL     hw16670   0.306   1.853   2.151 -0.1166 -0.7311  1.6072
 4168SOL     hw16671   0.292   1.729   2.066 -0.3455  0.1516  0.3346
 4168SOL     vw16672   0.256   1.797   2.108 -0.1650  0.2815  0.2788
 4169SOL     ow16673   2.295   3.283   3.729  0.1695  0.0889  0.1992
 4169SOL     hw16674   2.345   3.293   3.811 -0.0365  0.3496  0.2935
 4169SOL     hw16675   2.324   3.198   3.694  0.0195 -0.1779  0.7073
 4169SOL     vw16676   2.306   3.273   3.735  0.1225  0.0882  0.2786
 4170SOL     ow16677   0.956   4.240   5.746 -0.4681  0.8871 -0.5302
 4170SOL     hw16678   0.881   4.233   5.805 -0.4765 -2.7570 -0.7588
 4170SOL     hw16679   0.921   4.217   5.660  0.2437  2.7641 -1.3721
 4170SOL     vw16680   0.942   4.236   5.743 -0.3753  0.6540 -0.6714
 4171SOL     ow16681   6.770   6.950   0.040  0.1562 -0.0686  0.2626
 4171SOL     hw16682   6.727   6.994   0.113 -0.4309 -1.4407  0.7776
 4171SOL     hw16683   6.699   6.907  -0.008  0.6913 -0.3675 -0.2901
 4171SOL     vw16684   6.755   6.950   0.043  0.1495 -0.2890  0.2576
 4172SOL     ow16685   5.019   1.460   2.250  0.1266 -0.1427 -0.8875
 4172SOL     hw16686   4.937   1.441   2.294  0.8046  0.0393  0.5109
 4172SOL     hw16687   5.027   1.555   2.254 -0.2702 -0.0150 -2.3341
 4172SOL     vw16688   5.009   1.470   2.256  0.1636 -0.1018 -0.8940
 4173SOL     ow16689   0.375   1.098   0.239 -0.8792 -0.5277  0.6629
 4173SOL     hw16690   0.387   1.013   0.197 -1.0755 -0.1697 -0.1344
 4173SOL     hw16691   0.457   1.144   0.222 -1.0376 -0.3077  0.4850
 4173SOL     vw16692   0.388   1.093   0.231 -0.9260 -0.4514  0.5342
 4174SOL     ow16693   0.780   6.415   1.118  0.6906 -0.1275  0.0289
 4174SOL     hw16694   0.812   6.328   1.097  0.1904 -0.3360  0.1021
 4174SOL     hw16695   0.706   6.429   1.059  0.8856  0.3258 -0.1132
 4174SOL     vw16696   0.774   6.405   1.108  0.6504 -0.0949  0.0198
 4175SOL     ow16697   0.270   0.959   5.091  0.6638  0.6197  0.3404
 4175SOL     hw16698   0.358   0.937   5.061  1.0115  0.6002  1.3311
 4175SOL     hw16699   0.233   1.012   5.020  1.5194  0.7289 -0.0383
 4175SOL     vw16700   0.277   0.963   5.078  0.8225  0.6316  0.4210
 4176SOL     ow16701   2.309   0.241   1.210  0.2705  0.0180  0.7282
 4176SOL     hw16702   2.305   0.166   1.269  2.6378 -0.6657  0.1545
 4176SOL     hw16703   2.383   0.222   1.153 -1.0978  1.2842 -1.6085
 4176SOL     vw16704   2.318   0.228   1.210  0.4022  0.0949  0.3443
 4177SOL     ow16705   2.210   7.402   6.393 -0.4754 -0.0179 -0.2408
 4177SOL     hw16706   2.292   7.430   6.434 -0.4015  1.2448 -1.1950
 4177SOL     hw16707   2.233   7.388   6.301 -1.0555 -0.9202 -0.2551
 4177SOL     vw16708   2.224   7.404   6.386 -0.5422  0.0298 -0.3686
 4178SOL     ow16709   4.922   1.478   2.674  0.2053 -0.1808  0.0375
 4178SOL     hw16710   4.943   1.571   2.673 -1.3924  0.2554 -2.3706
 4178SOL     hw16711   4.848   1.470   2.614  0.0794 -2.9770  0.4366
 4178SOL     vw16712   4.915   1.489   2.666 -0.0219 -0.4922 -0.2276
 4179SOL     ow16713   6.463   5.742   0.776 -0.2384 -0.4258  0.2990
 4179SOL     hw16714   6.404   5.775   0.708 -0.1397 -0.6829  0.0882
 4179SOL     hw16715   6.537   5.704   0.728 -0.3229 -0.9070  0.5383
 4179SOL     vw16716   6.465   5.741   0.761 -0.2367 -0.5231  0.3027
 4180SOL     ow16717   6.336   0.929   4.677 -0.4325  0.0865  0.0678
 4180SOL     hw16718   6.359   0.921   4.585 -0.1278  1.0747  0.0493
 4180SOL     hw16719   6.412   0.896   4.725  1.8359  4.5308  0.0474
 4180SOL     vw16720   6.349   0.924   4.672 -0.0932  0.8032  0.0627
 4181SOL     ow16721   5.903   5.125   0.638 -0.0706 -0.6646 -0.0212
 4181SOL     hw16722   5.942   5.211   0.625  1.4432 -1.1401  1.0558
 4181SOL     hw16723   5.833   5.120   0.573  0.0884  1.1961 -0.3857
 4181SOL     vw16724   5.899   5.135   0.628  0.1502 -0.4818  0.0729
 4182SOL     ow16725   2.387   6.418   5.718  0.0977 -0.0097  0.6937
 4182SOL     hw16726   2.411   6.332   5.752  0.1425  0.7374  2.7080
 4182SOL     hw16727   2.445   6.432   5.644  0.4248 -1.4965  0.6357
 4182SOL     vw16728   2.398   6.408   5.713  0.1469 -0.1073  0.9520
 4183SOL     ow16729   3.343   2.503   1.283  0.3541 -0.0449 -0.0506
 4183SOL     hw16730   3.399   2.565   1.236  0.5842 -0.6273 -0.5452
 4183SOL     hw16731   3.380   2.498   1.371 -1.0134  2.2970  0.7586
 4183SOL     vw16732   3.355   2.511   1.288  0.2041  0.1872 -0.0091
 4184SOL     ow16733   2.097   3.365   5.370  0.1877  0.3877  0.7598
 4184SOL     hw16734   2.166   3.431   5.377  2.2954 -1.6318 -0.1740
 4184SOL     hw16735   2.135   3.285   5.406 -2.1715 -0.5034  1.5023
 4184SOL     vw16736   2.111   3.363   5.376  0.1545  0.0037  0.7346
 4185SOL     ow16737   3.447   0.341   4.053 -0.1855 -0.1528 -0.2709
 4185SOL     hw16738   3.405   0.281   3.992 -0.2811 -1.4333  0.9915
 4185SOL     hw16739   3.401   0.327   4.136 -0.2642  1.7501  0.0547
 4185SOL     vw16740   3.435   0.331   4.056 -0.2085 -0.0707 -0.0615
 4186SOL     ow16741   2.135   7.017   2.547 -0.4483  0.0131 -0.1609
 4186SOL     hw16742   2.176   7.098   2.578 -0.1223 -0.7536  1.5146
 4186SOL     hw16743   2.079   6.989   2.620 -0.3664 -1.4024 -0.6092
 4186SOL     vw16744   2.133   7.024   2.560 -0.3943 -0.2749  0.0011
 4187SOL     ow16745   7.285   6.994   1.280  0.0699  0.3186  0.1297
 4187SOL     hw16746   7.274   7.011   1.374  1.7518  0.7900  0.2670
 4187SOL     hw16747   7.373   7.025   1.260 -0.2289  0.1365 -1.6010
 4187SOL     vw16748   7.295   7.000   1.290  0.2520  0.3567 -0.0805
 4188SOL     ow16749   0.730   1.201   1.086 -0.5074 -0.1863  0.4409
 4188SOL     hw16750   0.719   1.107   1.070  1.7308 -0.3800 -0.4007
 4188SOL     hw16751   0.665   1.242   1.030  1.7639 -1.1734 -3.3492
 4188SOL     vw16752   0.720   1.194   1.076  0.0876 -0.3421 -0.1702
 4189SOL     ow16753   1.690   0.048   2.116 -0.1692 -0.1827 -0.2065
 4189SOL     hw16754   1.717   0.070   2.027 -1.2598 -0.3737 -0.5970
 4189SOL     hw16755   1.652   0.129   2.150  0.8847  0.0903  0.3455
 4189SOL     vw16756   1.688   0.061   2.109 -0.1741 -0.1719 -0.1851
 4190SOL     ow16757   5.814   0.550   4.713  0.4192 -0.3321 -0.1446
 4190SOL     hw16758   5.785   0.501   4.790  0.1799 -1.2714 -0.8206
 4190SOL     hw16759   5.734   0.591   4.679  0.1833 -1.3946 -0.9229
 4190SOL     vw16760   5.800   0.549   4.719  0.3567 -0.5962 -0.3364
 4191SOL     ow16761   4.841   5.038   3.565  0.3114 -0.4198 -0.2193
 4191SOL     hw16762   4.888   5.102   3.510 -0.0644  0.3875  0.3717
 4191SOL     hw16763   4.906   4.972   3.586  1.1878  0.6354  0.5219
 4191SOL     vw16764   4.856   5.038   3.560  0.3774 -0.1740 -0.0435
 4192SOL     ow16765   2.840   1.661   1.233 -0.0934  0.4154  0.3950
 4192SOL     hw16766   2.901   1.656   1.160 -0.2331  2.3405  0.0900
 4192SOL     hw16767   2.844   1.575   1.274  0.5505 -0.4630 -1.4142
 4192SOL     vw16768   2.848   1.649   1.229 -0.0268  0.5535  0.1160
 4193SOL     ow16769   5.917   7.103   4.637  0.3197  0.5400 -0.2294
 4193SOL     hw16770   5.889   7.095   4.546 -0.0928  1.0146 -0.1502
 4193SOL     hw16771   5.899   7.194   4.659  1.0423  0.5995  0.1238
 4193SOL     vw16772   5.911   7.114   4.628  0.3607  0.6106 -0.1724
 4194SOL     ow16773   1.412   6.435   7.202 -0.1019  0.6014  0.1934
 4194SOL     hw16774   1.492   6.480   7.230  0.7633  0.7383 -2.2458
 4194SOL     hw16775   1.442   6.352   7.165 -1.3329 -0.3343  1.2185
 4194SOL     vw16776   1.427   6.430   7.201 -0.1502  0.4959  0.0067
 4195SOL     ow16777   3.582   3.677   4.124  0.4423  0.5467 -0.1719
 4195SOL     hw16778   3.637   3.733   4.179  1.1204 -1.1101  0.9300
 4195SOL     hw16779   3.631   3.595   4.116 -2.0172 -1.2309  1.3523
 4195SOL     vw16780   3.596   3.673   4.130  0.2073  0.0937  0.1745
 4196SOL     ow16781   7.142   2.635   1.004 -0.3704 -0.2049 -0.0009
 4196SOL     hw16782   7.049   2.649   1.022 -0.1134  0.0761  1.1893
 4196SOL     hw16783   7.153   2.664   0.913 -1.4969 -0.5455 -0.2658
 4196SOL     vw16784   7.131   2.641   0.994 -0.4854 -0.2128  0.1211
 4197SOL     ow16785   1.013   4.914   4.203 -0.5359  0.4362  0.3837
 4197SOL     hw16786   1.078   4.844   4.197  0.2928  1.2115  0.0930
 4197SOL     hw16787   1.044   4.980   4.141 -1.4077  0.9794  0.5162
 4197SOL     vw16788   1.026   4.913   4.194 -0.5416  0.6104  0.3626
 4198SOL     ow16789   5.686   7.245   3.759 -0.1422  0.0770  0.1354
 4198SOL     hw16790   5.736   7.286   3.689 -0.4488 -0.7762 -0.6093
 4198SOL     hw16791   5.610   7.303   3.772  0.3453  0.6721  0.3511
 4198SOL     vw16792   5.682   7.258   3.752 -0.1185  0.0427  0.0657
 4199SOL     ow16793   5.291   0.669   0.788  0.1565 -0.1834  1.0570
 4199SOL     hw16794   5.196   0.660   0.785  0.2090 -1.5490 -3.6305
 4199SOL     hw16795   5.307   0.762   0.773 -0.5584 -0.4623 -1.9124
 4199SOL     vw16796   5.281   0.680   0.786  0.0689 -0.4004  0.0468
 4200SOL     ow16797   4.730   0.622   6.214 -0.4618 -0.4160 -0.6161
 4200SOL     hw16798   4.744   0.700   6.268 -2.0469 -0.3659 -0.2420
 4200SOL     hw16799   4.643   0.591   6.238 -0.6011 -1.2580 -2.0711
 4200SOL     vw16800   4.720   0.628   6.224 -0.6893 -0.5205 -0.7589
 4201SOL     ow16801   4.597   5.501   6.914 -0.1536  0.8730  0.2029
 4201SOL     hw16802   4.651   5.481   6.991 -0.8216 -1.7490  0.0669
 4201SOL     hw16803   4.641   5.456   6.842 -2.7883 -2.1267  0.2260
 4201SOL     vw16804   4.610   5.492   6.915 -0.5896  0.1314  0.1881
 4202SOL     ow16805   4.222   2.080   2.983 -0.1621  0.5879  0.5020
 4202SOL     hw16806   4.185   2.057   3.068 -0.6450 -3.1892 -0.5684
 4202SOL     hw16807   4.164   2.039   2.919  1.2507  1.6792 -1.6130
 4202SOL     vw16808   4.210   2.072   2.986 -0.0393  0.2334  0.0818
 4203SOL     ow16809   2.524   2.091   5.948  0.9676 -0.1465  0.0291
 4203SOL     hw16810   2.480   2.110   6.031  0.1211 -0.6282 -0.2980
 4203SOL     hw16811   2.459   2.042   5.896  2.3447 -2.1532  0.0666
 4203SOL     vw16812   2.510   2.087   5.952  1.0376 -0.4749 -0.0091
 4204SOL     ow16813   4.678   4.540   6.200 -0.5360  0.2011  0.9911
 4204SOL     hw16814   4.696   4.455   6.160  1.2241 -0.4457  2.9652
 4204SOL     hw16815   4.672   4.601   6.126  1.6399 -1.0762 -0.3447
 4204SOL     vw16816   4.680   4.537   6.185 -0.0167 -0.0529  1.0755
 4205SOL     ow16817   0.213   2.802   6.592  0.3671 -0.4195  0.3500
 4205SOL     hw16818   0.241   2.827   6.680  2.1016  1.8403 -0.7435
 4205SOL     hw16819   0.176   2.882   6.555 -2.2557 -1.8420 -0.3604
 4205SOL     vw16820   0.212   2.815   6.599  0.2499 -0.3089  0.1121
 4206SOL     ow16821   3.739   3.125   2.031  0.8119 -0.6490 -0.0263
 4206SOL     hw16822   3.832   3.144   2.017  0.3177  2.1878 -0.1314
 4206SOL     hw16823   3.700   3.134   1.944  0.2210 -0.1075  0.2846
 4206SOL     vw16824   3.746   3.129   2.018  0.6688 -0.2034  0.0010
 4207SOL     ow16825   6.265   7.062   6.013  0.5984  0.7793  0.6282
 4207SOL     hw16826   6.315   7.037   6.090 -0.7592 -0.5990  1.1069
 4207SOL     hw16827   6.181   7.092   6.047  0.3237  1.0511 -0.2545
 4207SOL     vw16828   6.260   7.063   6.028  0.3829  0.6332  0.5751
 4208SOL     ow16829   4.313   6.107   6.266 -0.2370 -0.5631  0.3034
 4208SOL     hw16830   4.287   6.169   6.335 -1.2442 -0.9375  0.2849
 4208SOL     hw16831   4.386   6.058   6.304 -0.2597 -0.2202  0.8056
 4208SOL     vw16832   4.319   6.109   6.280 -0.3731 -0.5674  0.3672
 4209SOL     ow16833   0.062   4.945   4.816 -0.1344 -0.2810 -0.2770
 4209SOL     hw16834   0.002   5.007   4.775 -0.2221 -0.5899 -0.6141
 4209SOL     hw16835   0.018   4.918   4.896 -0.7493 -1.0206 -0.8553
 4209SOL     vw16836   0.049   4.950   4.821 -0.2271 -0.4191 -0.3977
 4210SOL     ow16837   0.737   3.645   6.850 -0.3914 -0.6402  0.6576
 4210SOL     hw16838   0.744   3.738   6.826 -0.5789 -0.5690  0.8696
 4210SOL     hw16839   0.747   3.598   6.768 -1.2633 -0.3874  0.3869
 4210SOL     vw16840   0.739   3.651   6.836 -0.5312 -0.5975  0.6499
 4211SOL     ow16841   2.029   0.447   4.686  0.3707  0.2693 -0.6630
 4211SOL     hw16842   1.993   0.536   4.682 -0.6734  0.0235  1.7152
 4211SOL     hw16843   1.980   0.398   4.620 -0.6823  0.9529 -0.4183
 4211SOL     vw16844   2.018   0.452   4.677  0.0941  0.3271 -0.3166
 4212SOL     ow16845   0.481   0.895   4.937  0.1605  0.4614 -0.3293
 4212SOL     hw16846   0.532   0.817   4.956  0.5009  0.6384 -0.5158
 4212SOL     hw16847   0.543   0.967   4.946  0.9880  0.4501 -4.2837
 4212SOL     vw16848   0.496   0.894   4.941  0.3146  0.4833 -0.8755
 4213SOL     ow16849   4.479   6.203   2.377 -0.2906  0.0177 -0.0278
 4213SOL     hw16850   4.571   6.228   2.371  0.4053 -0.4370  4.6815
 4213SOL     hw16851   4.479   6.109   2.358 -0.3011  0.4367 -2.3900
 4213SOL     vw16852   4.491   6.194   2.374 -0.2003  0.0131  0.2820
 4214SOL     ow16853   2.809   2.175   5.027  0.3815 -0.3259 -1.0224
 4214SOL     hw16854   2.903   2.179   5.005  0.1856 -1.8177 -2.2935
 4214SOL     hw16855   2.775   2.260   4.999  1.0362 -0.4397 -2.2787
 4214SOL     vw16856   2.817   2.186   5.020  0.4419 -0.5376 -1.3561
 4215SOL     ow16857   7.359   3.515   1.824 -0.3296  0.8865  0.3832
 4215SOL     hw16858   7.350   3.513   1.728  2.9940  1.7037 -0.0725
 4215SOL     hw16859   7.352   3.423   1.850 -0.6878  0.5790 -0.7079
 4215SOL     vw16860   7.357   3.503   1.814  0.0615  0.9537  0.1791
 4216SOL     ow16861   0.689   3.383   0.150 -0.4116  0.6342  0.2986
 4216SOL     hw16862   0.700   3.288   0.158 -0.4063  0.1628 -3.3579
 4216SOL     hw16863   0.750   3.420   0.214  2.4771 -1.8930 -0.7173
 4216SOL     vw16864   0.699   3.375   0.159 -0.0298  0.2385 -0.3179
 4217SOL     ow16865   4.570   3.085   3.499 -0.4312  0.0735 -0.1035
 4217SOL     hw16866   4.563   3.061   3.406  1.7884 -0.5474 -0.1543
 4217SOL     hw16867   4.564   3.001   3.545 -1.2665  0.3563  0.3291
 4217SOL     vw16868   4.568   3.070   3.492 -0.2487  0.0288 -0.0532
 4218SOL     ow16869   6.721   2.583   0.909 -0.3152 -0.6426  0.9892
 4218SOL     hw16870   6.764   2.641   0.972 -0.1694  0.5669 -0.1766
 4218SOL     hw16871   6.764   2.498   0.921  1.0451  0.0524  1.1912
 4218SOL     vw16872   6.733   2.579   0.919 -0.1163 -0.3914  0.8620
 4219SOL     ow16873   4.996   7.459   3.552 -0.0406 -0.6279  0.3107
 4219SOL     hw16874   4.968   7.544   3.585 -1.3068 -1.1749  0.7084
 4219SOL     hw16875   5.081   7.475   3.511  1.0807  0.2887  2.8317
 4219SOL     vw16876   5.004   7.472   3.551 -0.0596 -0.5791  0.6959
 4220SOL     ow16877   6.842   7.375   1.373 -0.3500 -0.4372  0.7026
 4220SOL     hw16878   6.817   7.427   1.450 -1.0210  0.6919 -0.2260
 4220SOL     hw16879   6.863   7.441   1.307 -1.1629 -1.3575 -0.5033
 4220SOL     vw16880   6.841   7.391   1.375 -0.5457 -0.4096  0.4210
 4221SOL     ow16881   6.275   4.184   2.488  0.2681  0.4282 -0.3859
 4221SOL     hw16882   6.355   4.237   2.490 -1.0752  2.6130  2.8977
 4221SOL     hw16883   6.283   4.125   2.563 -0.6561 -0.2531 -0.8015
 4221SOL     vw16884   6.287   4.183   2.498 -0.0312  0.6266 -0.0076
 4222SOL     ow16885   4.969   3.292   6.831 -0.0329 -0.4169  0.3301
 4222SOL     hw16886   4.900   3.258   6.774  1.0170 -2.0481 -0.0310
 4222SOL     hw16887   4.992   3.377   6.793 -1.6208  0.0289  0.3031
 4222SOL     vw16888   4.963   3.299   6.818 -0.1040 -0.5735  0.2787
 4223SOL     ow16889   7.154   6.992   1.580 -0.2379  0.4652 -0.2627
 4223SOL     hw16890   7.154   7.085   1.560  0.8893  0.3711 -0.7807
 4223SOL     hw16891   7.198   6.986   1.665  2.2106  0.2247 -1.4464
 4223SOL     vw16892   7.160   7.003   1.589  0.2339  0.4210 -0.4872
 4224SOL     ow16893   5.789   2.717   2.404  0.1495  0.0772  0.3356
 4224SOL     hw16894   5.797   2.757   2.491 -0.8619  1.9748 -0.3710
 4224SOL     hw16895   5.879   2.714   2.371  0.2394  2.7844  0.0736
 4224SOL     vw16896   5.802   2.722   2.411  0.0279  0.6849  0.2079
 4225SOL     ow16897   4.501   7.117   6.939  0.2855  0.2032  0.0094
 4225SOL     hw16898   4.415   7.157   6.934  0.4478  0.4919 -0.5434
 4225SOL     hw16899   4.483   7.024   6.956 -0.1770  0.0896 -0.9997
 4225SOL     vw16900   4.488   7.110   6.941  0.2458  0.2260 -0.1967
 4226SOL     ow16901   0.751   3.075   3.638 -0.3069 -0.6472  0.5508
 4226SOL     hw16902   0.839   3.101   3.611 -0.7303  0.1003 -0.1408
 4226SOL     hw16903   0.754   3.075   3.734  0.8081 -1.9372  0.5499
 4226SOL     vw16904   0.763   3.078   3.647 -0.2157 -0.7186  0.4593
 4227SOL     ow16905   3.235   0.560   0.050 -0.4322  0.1182 -0.0962
 4227SOL     hw16906   3.236   0.466   0.066  0.8057 -0.0476 -0.9730
 4227SOL     hw16907   3.145   0.588   0.070 -0.2018 -0.7989  2.5265
 4227SOL     vw16908   3.223   0.552   0.054 -0.2383 -0.0246  0.1341
 4228SOL     ow16909   5.381   5.997   3.204  0.3401 -0.1876  0.1967
 4228SOL     hw16910   5.382   6.090   3.229  3.0989  0.0473 -0.5479
 4228SOL     hw16911   5.323   5.994   3.128  0.6713  1.0132 -0.1265
 4228SOL     vw16912   5.373   6.009   3.198  0.7477  0.0017  0.0559
 4229SOL     ow16913   4.797   2.648   3.622  0.5110 -0.5482  0.7182
 4229SOL     hw16914   4.731   2.612   3.681  0.7076  0.1277  1.3705
 4229SOL     hw16915   4.873   2.591   3.632  0.0221 -1.3621 -0.0766
 4229SOL     vw16916   4.798   2.636   3.631  0.4725 -0.5666  0.6995
 4230SOL     ow16917   3.347   5.388   6.406  0.1190 -0.5222 -0.1564
 4230SOL     hw16918   3.344   5.422   6.316 -1.0443  1.8231  0.6587
 4230SOL     hw16919   3.437   5.359   6.418  0.9386  1.2750 -1.3993
 4230SOL     vw16920   3.358   5.389   6.396  0.0737  0.0243 -0.2129
 4231SOL     ow16921   4.297   0.696   2.031  0.0336  0.6112  0.0327
 4231SOL     hw16922   4.310   0.658   1.944 -0.9890 -0.2444  0.2276
 4231SOL     hw16923   4.254   0.626   2.081 -0.1735  1.3910  0.9701
 4231SOL     vw16924   4.293   0.682   2.026 -0.1287  0.6012  0.1820
 4232SOL     ow16925   0.113   6.510   6.939  0.1979 -0.0082  1.0023
 4232SOL     hw16926   0.069   6.585   6.979  0.5485 -0.4852  2.3311
 4232SOL     hw16927   0.162   6.470   7.011  2.2084  0.0550 -0.2555
 4232SOL     vw16928   0.113   6.515   6.954  0.5094 -0.0627  1.0116
 4233SOL     ow16929   5.072   0.748   5.911  0.1032 -0.5101 -0.4376
 4233SOL     hw16930   5.165   0.765   5.925  0.2673 -0.8701 -1.0320
 4233SOL     hw16931   5.036   0.833   5.886 -0.3664  0.3667  2.7143
 4233SOL     vw16932   5.080   0.761   5.910  0.0629 -0.4419 -0.1001
 4234SOL     ow16933   5.913   4.066   5.073 -0.2380  0.3036  0.2889
 4234SOL     hw16934   5.994   4.087   5.026  0.0750 -1.5757 -0.0773
 4234SOL     hw16935   5.844   4.112   5.025  0.4323  0.7467 -0.2530
 4234SOL     vw16936   5.914   4.075   5.061 -0.1085  0.1140  0.1693
 4235SOL     ow16937   6.174   1.719   1.699 -0.3391  0.3060  0.1143
 4235SOL     hw16938   6.120   1.703   1.621  0.3514 -0.1277 -0.2848
 4235SOL     hw16939   6.125   1.678   1.771 -0.8438  0.4661 -0.1306
 4235SOL     vw16940   6.160   1.712   1.698 -0.3147  0.2699  0.0293
 4236SOL     ow16941   3.307   4.625   5.361  0.5350  0.3775  0.2024
 4236SOL     hw16942   3.298   4.640   5.455 -0.5960  2.9008 -0.2145
 4236SOL     hw16943   3.354   4.542   5.354 -1.0121 -0.8731  2.9498
 4236SOL     vw16944   3.312   4.616   5.373  0.1817  0.5453  0.5097
 4237SOL     ow16945   6.546   0.706   0.263 -0.8222 -0.6200  0.1221
 4237SOL     hw16946   6.554   0.796   0.232 -1.2358 -0.7040 -0.2463
 4237SOL     hw16947   6.574   0.710   0.354 -0.8437 -0.1157  0.1133
 4237SOL     vw16948   6.551   0.719   0.271 -0.8798 -0.5645  0.0723
 4238SOL     ow16949   6.750   0.374   1.692 -0.4206 -0.4705  0.3645
 4238SOL     hw16950   6.735   0.345   1.602  0.3026 -1.7166  0.6189
 4238SOL     hw16951   6.826   0.324   1.720 -1.1381 -0.7122  1.9481
 4238SOL     vw16952   6.758   0.363   1.684 -0.4199 -0.6668  0.6070
 4239SOL     ow16953   0.660   4.686   1.302 -0.1175 -0.2994  0.7767
 4239SOL     hw16954   0.622   4.625   1.239  1.0227  0.9388 -1.2023
 4239SOL     hw16955   0.706   4.751   1.249  2.1104  0.0472  2.9055
 4239SOL     vw16956   0.661   4.686   1.287  0.3269 -0.0901  0.7964
 4240SOL     ow16957   7.440   3.132   6.561 -0.4021 -0.1769  0.0521
 4240SOL     hw16958   7.388   3.147   6.639 -1.0035 -0.7750 -0.2195
 4240SOL     hw16959   7.393   3.177   6.491 -0.4256 -0.5086 -0.1488
 4240SOL     vw16960   7.427   3.140   6.562 -0.4845 -0.2996 -0.0100
 4241SOL     ow16961   7.108   7.199   0.387  0.5171 -0.2133  0.2445
 4241SOL     hw16962   7.084   7.198   0.295 -2.3686 -1.2537  0.8906
 4241SOL     hw16963   7.076   7.283   0.419 -2.4307 -1.5375  1.0814
 4241SOL     vw16964   7.101   7.210   0.379 -0.2525 -0.5255  0.4402
 4242SOL     ow16965   7.027   0.100   3.586  0.1179 -0.5773  0.4579
 4242SOL     hw16966   6.975   0.129   3.662  0.7469 -0.7868  0.9759
 4242SOL     hw16967   7.108   0.067   3.624  1.8893  2.3453 -0.4769
 4242SOL     vw16968   7.031   0.099   3.601  0.4344 -0.2193  0.4028
 4243SOL     ow16969   0.670   5.477   4.626 -0.6437  0.3072 -0.3290
 4243SOL     hw16970   0.655   5.536   4.700 -1.7519  0.7300 -0.8672
 4243SOL     hw16971   0.760   5.445   4.638 -0.0308  2.0378  0.0248
 4243SOL     vw16972   0.680   5.481   4.637 -0.7090  0.5915 -0.3531
 4244SOL     ow16973   4.181   4.650   4.291  0.0322  0.2022  0.1933
 4244SOL     hw16974   4.175   4.708   4.215  0.6399 -0.2609 -0.2178
 4244SOL     hw16975   4.214   4.706   4.362 -3.8916  1.6107  1.2136
 4244SOL     vw16976   4.184   4.665   4.291 -0.4058  0.3269  0.2739
 4245SOL     ow16977   1.819   2.350   4.767 -0.1498  0.5530 -0.4098
 4245SOL     hw16978   1.868   2.270   4.782  0.8303  0.9643 -1.3232
 4245SOL     hw16979   1.728   2.326   4.783  0.1580 -0.6699 -0.4367
 4245SOL     vw16980   1.813   2.336   4.771  0.0201  0.4460 -0.5338
 4246SOL     ow16981   2.260   1.990   4.988  0.1620 -0.8174  0.0696
 4246SOL     hw16982   2.209   2.055   5.036 -1.3480 -2.1254  0.2917
 4246SOL     hw16983   2.195   1.932   4.949  1.0957  0.7679 -4.6459
 4246SOL     vw16984   2.245   1.991   4.989  0.0859 -0.7808 -0.5231
 4247SOL     ow16985   2.360   6.002   5.422 -0.5900 -0.1903 -0.1859
 4247SOL     hw16986   2.347   5.932   5.358  2.6762 -1.2588  0.1312
 4247SOL     hw16987   2.377   6.080   5.370  1.2561 -0.8878 -0.7121
 4247SOL     vw16988   2.360   6.003   5.407  0.0846 -0.4232 -0.2134
 4248SOL     ow16989   3.075   4.703   1.702  0.6449  0.0975  0.5177
 4248SOL     hw16990   3.113   4.783   1.739 -0.1959  0.6516  0.2043
 4248SOL     hw16991   2.984   4.726   1.684  0.5666 -0.7282 -0.1916
 4248SOL     vw16992   3.068   4.717   1.704  0.5237  0.0615  0.3828
 4249SOL     ow16993   6.472   6.758   1.265  0.1221 -0.6676  1.1235
 4249SOL     hw16994   6.541   6.694   1.281  0.9796 -0.3148 -0.9353
 4249SOL     hw16995   6.397   6.707   1.234  0.6482 -0.7347 -0.0608
 4249SOL     vw16996   6.471   6.743   1.263  0.3047 -0.6299  0.6956
 4250SOL     ow16997   2.822   0.443   6.303  0.2390  0.0037  0.2099
 4250SOL     hw16998   2.813   0.504   6.230  3.0576  0.5072  0.1804
 4250SOL     hw16999   2.732   0.414   6.321 -1.1711  3.6021 -0.2188
 4250SOL     vw17000   2.809   0.447   6.296  0.4249  0.5449  0.1497
 4251SOL     ow17001   7.297   0.931   5.459 -0.2437 -0.0272 -0.1905
 4251SOL     hw17002   7.329   1.013   5.496 -1.5205  0.0949  0.7387
 4251SOL     hw17003   7.319   0.864   5.524  2.4883 -0.8075 -1.7827
 4251SOL     vw17004   7.304   0.933   5.473 -0.0520 -0.1141 -0.2780
 4252SOL     ow17005   6.456   2.493   7.588  0.3244  0.2737  0.2267
 4252SOL     hw17006   6.423   2.548   7.516 -1.5548  0.1628  0.9468
 4252SOL     hw17007   6.414   2.408   7.575 -0.1335  0.2837  1.4921
 4252SOL     vw17008   6.446   2.489   7.577  0.0160  0.2604  0.4885
 4253SOL     ow17009   7.173   1.222   6.318 -0.3381 -0.1375 -0.0994
 4253SOL     hw17010   7.103   1.219   6.383  0.6345 -0.0539  0.9752
 4253SOL     hw17011   7.182   1.315   6.297 -0.7473 -0.1781 -0.4725
 4253SOL     vw17012   7.165   1.234   6.324 -0.2639 -0.1318 -0.0069
 4254SOL     ow17013   5.471   4.377   6.473 -0.0575 -0.1637 -0.0256
 4254SOL     hw17014   5.552   4.429   6.470  0.1877 -0.4727  0.8829
 4254SOL     hw17015   5.405   4.434   6.434  0.5941  0.0953 -0.7776
 4254SOL     vw17016   5.473   4.391   6.467  0.0608 -0.1705 -0.0050
 4255SOL     ow17017   2.882   1.126   6.483 -0.0753  0.4696 -0.2039
 4255SOL     hw17018   2.957   1.168   6.526 -0.0561 -0.1127  0.3347
 4255SOL     hw17019   2.813   1.125   6.549 -0.2426  0.1238 -0.3790
 4255SOL     vw17020   2.883   1.131   6.497 -0.0948  0.3472 -0.1557
 4256SOL     ow17021   7.496   6.381   3.119  0.1288  0.1663  0.1906
 4256SOL     hw17022   7.567   6.436   3.152  0.5030 -0.0250 -0.2777
 4256SOL     hw17023   7.469   6.329   3.194  1.7772 -1.1253 -0.0564
 4256SOL     vw17024   7.502   6.382   3.133  0.3958 -0.0293  0.0961
 4257SOL     ow17025   7.363   3.775   4.170 -0.3375  0.4117 -0.8823
 4257SOL     hw17026   7.419   3.730   4.106  0.3011 -1.5663  0.9560
 4257SOL     hw17027   7.406   3.760   4.254 -2.8220  0.1427  0.4269
 4257SOL     vw17028   7.376   3.767   4.172 -0.5810  0.1152 -0.4668
 4258SOL     ow17029   0.740   3.153   6.286  0.1360 -0.0642 -0.1516
 4258SOL     hw17030   0.690   3.073   6.271 -1.8919  1.2656 -1.0092
 4258SOL     hw17031   0.817   3.125   6.335 -1.4258 -2.2649  1.2178
 4258SOL     vw17032   0.743   3.139   6.291 -0.3376 -0.1791 -0.0842
 4259SOL     ow17033   1.700   6.570   1.062 -0.3920  0.3918  0.0606
 4259SOL     hw17034   1.633   6.553   1.128  0.3297  1.7359  1.1933
 4259SOL     hw17035   1.676   6.656   1.026  1.6189  1.7265  1.7030
 4259SOL     vw17036   1.688   6.579   1.066 -0.0316  0.7451  0.4267
 4260SOL     ow17037   0.846   2.115   2.894  0.1836 -0.7348  0.1999
 4260SOL     hw17038   0.868   2.084   2.806  3.6433  0.1150  0.6057
 4260SOL     hw17039   0.811   2.038   2.938  3.7494 -2.9095 -0.3295
 4260SOL     vw17040   0.844   2.101   2.888  1.1105 -0.9097  0.1837
 4261SOL     ow17041   3.291   0.794   1.894  0.2139  0.3002  0.2312
 4261SOL     hw17042   3.380   0.824   1.876  0.0735 -0.6136 -2.4191
 4261SOL     hw17043   3.239   0.874   1.891  0.6107  0.5382 -0.9773
 4261SOL     vw17044   3.296   0.809   1.892  0.2476  0.2111 -0.2779
 4262SOL     ow17045   1.807   6.155   5.378  0.1729 -0.5089 -0.0065
 4262SOL     hw17046   1.850   6.074   5.352  2.0194  1.4915 -4.1968
 4262SOL     hw17047   1.879   6.217   5.391 -1.1797  1.7140 -2.2640
 4262SOL     vw17048   1.822   6.153   5.377  0.2381  0.0484 -0.8571
 4263SOL     ow17049   7.411   4.162   2.259  0.1431  0.0437  0.3919
 4263SOL     hw17050   7.357   4.085   2.243 -1.2150  0.2211  3.4823
 4263SOL     hw17051   7.460   4.174   2.177 -1.3647 -2.6199 -1.0445
 4263SOL     vw17052   7.410   4.154   2.246 -0.2351 -0.2844  0.6102
 4264SOL     ow17053   2.555   4.200   2.727  0.0105  0.6606 -0.5928
 4264SOL     hw17054   2.617   4.131   2.749  2.8285  3.3055  0.4080
 4264SOL     hw17055   2.501   4.210   2.806  0.5646  0.5755 -0.1986
 4264SOL     vw17056   2.556   4.192   2.740  0.4555  0.9985 -0.4088
 4265SOL     ow17057   4.657   4.516   4.043  0.2677  0.4607 -0.8294
 4265SOL     hw17058   4.711   4.527   4.122  1.0806  1.0133 -1.4416
 4265SOL     hw17059   4.694   4.439   4.000 -0.3665 -0.0192 -0.5335
 4265SOL     vw17060   4.669   4.507   4.048  0.2909  0.4706 -0.8712
 4266SOL     ow17061   0.130   3.482   7.183  0.2581  0.1740  0.9847
 4266SOL     hw17062   0.121   3.429   7.263  1.4177  1.2518  1.8792
 4266SOL     hw17063   0.216   3.458   7.149 -0.0371  0.0672  0.3027
 4266SOL     vw17064   0.140   3.472   7.189  0.3722  0.3022  1.0128
 4267SOL     ow17065   4.327   4.416   4.314  0.1612 -0.0977 -0.0229
 4267SOL     hw17066   4.292   4.415   4.403  0.1755  0.3911 -0.0115
 4267SOL     hw17067   4.402   4.356   4.317  0.6002  0.4587  0.4750
 4267SOL     vw17068   4.332   4.408   4.326  0.2208  0.0401  0.0446
 4268SOL     ow17069   5.287   6.286   0.635  0.0646 -0.3381  0.0635
 4268SOL     hw17070   5.314   6.194   0.626  0.6409 -0.0363 -1.5365
 4268SOL     hw17071   5.369   6.333   0.652 -0.1106 -0.0203  0.0353
 4268SOL     vw17072   5.302   6.280   0.636  0.1173 -0.2563 -0.1514
 4269SOL     ow17073   4.483   2.228   0.653  0.3259 -0.3138 -0.2718
 4269SOL     hw17074   4.402   2.257   0.612  0.7778  0.1837 -0.8465
 4269SOL     hw17075   4.550   2.288   0.617  0.6696  0.4483  1.5246
 4269SOL     vw17076   4.481   2.240   0.643  0.4313 -0.1477 -0.1106
 4270SOL     ow17077   1.838   0.493   4.251  0.2568 -0.4888  0.1052
 4270SOL     hw17078   1.769   0.433   4.278 -0.2034  0.4463  1.0573
 4270SOL     hw17079   1.817   0.576   4.294 -0.2322  0.9746 -2.7053
 4270SOL     vw17080   1.826   0.496   4.260  0.1315 -0.1724 -0.1402
 4271SOL     ow17081   6.858   7.483   6.773 -0.1205  0.9393  0.4088
 4271SOL     hw17082   6.933   7.437   6.809 -0.1925  0.6271  0.1592
 4271SOL     hw17083   6.792   7.482   6.843 -1.4311 -2.3483 -0.7025
 4271SOL     vw17084   6.859   7.477   6.787 -0.3030  0.4647  0.2291
 4272SOL     ow17085   4.726   6.274   1.947 -0.3942 -0.1833  0.0952
 4272SOL     hw17086   4.633   6.274   1.968 -0.9900 -1.1866 -2.2144
 4272SOL     hw17087   4.766   6.213   2.010 -1.3245  0.0495  0.9260
 4272SOL     vw17088   4.719   6.266   1.958 -0.5956 -0.2851 -0.1000
 4273SOL     ow17089   6.917   7.308   3.386 -0.5225  0.5207 -0.5398
 4273SOL     hw17090   6.945   7.397   3.363  0.9120  0.5631  1.1581
 4273SOL     hw17091   6.829   7.300   3.348  0.3522  1.6682 -3.0812
 4273SOL     vw17092   6.909   7.319   3.378 -0.2179  0.6776 -0.6511
 4274SOL     ow17093   6.322   5.332   3.116 -0.4393  0.0568  0.4661
 4274SOL     hw17094   6.302   5.304   3.206  2.4782 -1.4547  0.7589
 4274SOL     hw17095   6.410   5.370   3.122 -0.4881  0.6108 -1.6619
 4274SOL     vw17096   6.331   5.333   3.129 -0.0608 -0.0696  0.2240
 4275SOL     ow17097   3.614   4.868   1.938  0.5238 -0.1890 -0.0075
 4275SOL     hw17098   3.554   4.941   1.922  1.0543  0.2369 -0.0881
 4275SOL     hw17099   3.694   4.909   1.972 -0.2858 -0.9782  3.1514
 4275SOL     vw17100   3.617   4.883   1.940  0.4870 -0.2370  0.3986
 4276SOL     ow17101   1.718   0.848   3.652 -0.2159 -0.0512 -0.1484
 4276SOL     hw17102   1.642   0.892   3.690 -1.6065 -2.9887  0.7900
 4276SOL     hw17103   1.775   0.832   3.727 -1.0510 -2.2237  0.0840
 4276SOL     vw17104   1.715   0.852   3.667 -0.5096 -0.7254  0.0062
 4277SOL     ow17105   2.605   2.787   1.362  0.0853 -0.0217  0.5034
 4277SOL     hw17106   2.576   2.765   1.274 -0.2141 -1.3099  0.8968
 4277SOL     hw17107   2.656   2.868   1.352 -2.1845  1.3595 -0.4404
 4277SOL     vw17108   2.608   2.795   1.349 -0.2538 -0.0094  0.4308
 4278SOL     ow17109   2.717   2.018   3.090 -0.0287  0.4128 -0.3446
 4278SOL     hw17110   2.716   2.113   3.100 -0.2175  0.1246  4.2169
 4278SOL     hw17111   2.809   1.993   3.097  0.0963  0.2272 -2.1962
 4278SOL     vw17112   2.729   2.027   3.092 -0.0372  0.3505  0.0129
 4279SOL     ow17113   2.408   4.739   5.892  0.3314 -0.0845  0.2969
 4279SOL     hw17114   2.464   4.755   5.815 -0.1357 -0.6123 -0.1607
 4279SOL     hw17115   2.425   4.813   5.950  1.6880 -0.3550  0.2721
 4279SOL     vw17116   2.418   4.751   5.889  0.4487 -0.1898  0.2332
 4280SOL     ow17117   2.948   5.867   4.445  0.5185 -0.5430  0.2162
 4280SOL     hw17118   2.886   5.903   4.509 -1.7781 -4.1853  0.3495
 4280SOL     hw17119   2.952   5.933   4.376 -1.7917  0.8799  1.3008
 4280SOL     vw17120   2.940   5.880   4.444 -0.0894 -0.8357  0.3769
 4281SOL     ow17121   5.862   2.336   2.667  0.2765 -0.0011  0.0955
 4281SOL     hw17122   5.878   2.412   2.723  0.8994  0.9631 -1.3352
 4281SOL     hw17123   5.933   2.275   2.688  0.5763  0.4038  0.2793
 4281SOL     vw17124   5.873   2.338   2.677  0.3984  0.1795 -0.0689
 4282SOL     ow17125   1.583   1.341   5.276  0.1633  0.0846 -0.5095
 4282SOL     hw17126   1.554   1.252   5.253  0.3188 -0.4297  1.1187
 4282SOL     hw17127   1.678   1.337   5.270  0.1573  0.2426 -0.7324
 4282SOL     vw17128   1.592   1.328   5.272  0.1830  0.0377 -0.3240
 4283SOL     ow17129   0.633   2.491   1.564 -0.1377 -0.4176 -0.5207
 4283SOL     hw17130   0.700   2.480   1.496 -1.3580  1.4953 -2.1380
 4283SOL     hw17131   0.646   2.579   1.598 -1.2211 -0.3686 -0.1773
 4283SOL     vw17132   0.643   2.501   1.560 -0.4416 -0.1588 -0.6887
 4284SOL     ow17133   6.796   3.080   5.452 -0.4056 -0.7159 -0.6025
 4284SOL     hw17134   6.714   3.084   5.402  0.5950 -0.3936 -2.2992
 4284SOL     hw17135   6.799   3.162   5.500 -1.9346 -1.5099  0.9614
 4284SOL     vw17136   6.786   3.091   5.451 -0.4754 -0.7782 -0.6204
 4285SOL     ow17137   0.457   0.931   4.027  0.0685  0.1091 -0.4786
 4285SOL     hw17138   0.379   0.948   4.080  1.7460 -0.1246  2.2556
 4285SOL     hw17139   0.458   0.836   4.015  0.4529 -0.0004  0.3784
 4285SOL     vw17140   0.447   0.921   4.033  0.3405  0.0638 -0.0048
 4286SOL     ow17141   3.660   0.906   5.415 -0.2087  0.1127  0.7103
 4286SOL     hw17142   3.586   0.932   5.359  0.8893  2.9669  0.4289
 4286SOL     hw17143   3.737   0.940   5.370  1.3838 -2.7540  1.0187
 4286SOL     vw17144   3.660   0.914   5.402  0.1463  0.1110  0.7141
 4287SOL     ow17145   3.148   2.038   2.708  0.2555 -0.3625  0.3293
 4287SOL     hw17146   3.131   1.944   2.713  1.6141 -0.7361 -1.1588
 4287SOL     hw17147   3.102   2.067   2.630 -0.0928  0.2029  0.7369
 4287SOL     vw17148   3.140   2.029   2.699  0.3889 -0.3371  0.1867
 4288SOL     ow17149   4.004   3.187   1.974 -0.3147 -0.3682  0.2936
 4288SOL     hw17150   4.006   3.196   1.879  3.6515 -0.0956  0.2434
 4288SOL     hw17151   4.043   3.268   2.007 -1.8701 -0.3357  2.2038
 4288SOL     vw17152   4.010   3.198   1.966  0.0033 -0.3278  0.5390
 4289SOL     ow17153   5.761   4.799   4.018  0.5657 -0.0796 -0.2070
 4289SOL     hw17154   5.820   4.752   4.077  1.6267 -1.2907 -2.1559
 4289SOL     hw17155   5.784   4.768   3.931 -2.3056  0.1699 -1.1421
 4289SOL     vw17156   5.772   4.789   4.015  0.3269 -0.2062 -0.5872
 4290SOL     ow17157   3.240   4.427   7.322  0.3014 -0.0959  0.1131
 4290SOL     hw17158   3.279   4.392   7.242 -0.3137  0.5868 -0.5069
 4290SOL     hw17159   3.256   4.521   7.317  1.7416 -0.2050  1.6425
 4290SOL     vw17160   3.247   4.435   7.311  0.4103 -0.0203  0.2329
 4291SOL     ow17161   1.825   2.486   5.616 -0.6461 -0.2140  1.4782
 4291SOL     hw17162   1.812   2.406   5.565 -0.7923  1.9222 -2.2247
 4291SOL     hw17163   1.886   2.461   5.685  1.3630 -2.9951 -1.0262
 4291SOL     vw17164   1.831   2.472   5.618 -0.4003 -0.2990  0.6590
 4292SOL     ow17165   4.107   0.436   5.552 -0.2441  0.4601  0.3168
 4292SOL     hw17166   4.185   0.390   5.584 -0.6736 -0.8162 -0.4239
 4292SOL     hw17167   4.039   0.369   5.550 -0.2477  0.4192 -3.2395
 4292SOL     vw17168   4.108   0.421   5.556 -0.3014  0.2863 -0.2503
 4293SOL     ow17169   5.023   0.696   0.779  0.1390  0.1041 -0.2998
 4293SOL     hw17170   4.977   0.773   0.745  0.4130  0.9755  1.2071
 4293SOL     hw17171   5.013   0.702   0.874  3.3217  0.3687  0.1400
 4293SOL     vw17172   5.016   0.707   0.787  0.5951  0.2540 -0.0429
 4294SOL     ow17173   0.380   4.043   6.966  0.3211  0.4599 -0.6314
 4294SOL     hw17174   0.295   4.085   6.980  0.9050  1.1642  1.0224
 4294SOL     hw17175   0.398   3.997   7.048  1.5615  0.3707 -0.9375
 4294SOL     vw17176   0.371   4.042   6.978  0.5618  0.5410 -0.4537
 4295SOL     ow17177   0.867   2.374   0.735  0.5202 -0.0615 -0.3469
 4295SOL     hw17178   0.882   2.280   0.746 -2.2344 -0.7820 -1.7857
 4295SOL     hw17179   0.953   2.411   0.717  1.7490 -2.1947  0.8051
 4295SOL     vw17180   0.880   2.367   0.734  0.3189 -0.4381 -0.3848
 4296SOL     ow17181   1.464   5.003   5.645 -0.3819  0.0870  0.4299
 4296SOL     hw17182   1.389   5.062   5.658 -1.4399 -0.8799 -0.9111
 4296SOL     hw17183   1.518   5.049   5.580 -0.2292  0.4239  0.7926
 4296SOL     vw17184   1.461   5.017   5.638 -0.5014  0.0038  0.3009
 4297SOL     ow17185   5.689   1.880   2.314  0.2592 -0.0359 -0.1958
 4297SOL     hw17186   5.677   1.972   2.290 -2.4754 -0.1761  0.3441
 4297SOL     hw17187   5.605   1.839   2.296  0.5561 -1.8459  2.0686
 4297SOL     vw17188   5.677   1.887   2.309 -0.0622 -0.2932  0.1742
 4298SOL     ow17189   5.163   2.540   6.453  0.1412  0.4337 -0.0867
 4298SOL     hw17190   5.156   2.521   6.547 -0.1001  1.1786  0.0518
 4298SOL     hw17191   5.190   2.457   6.414  1.0934  0.3366  0.7443
 4298SOL     vw17192   5.165   2.527   6.461  0.2351  0.5193  0.0408
 4299SOL     ow17193   3.545   5.090   5.211 -0.0958 -0.5933  0.3429
 4299SOL     hw17194   3.618   5.059   5.156 -1.0233  0.6327 -1.6978
 4299SOL     hw17195   3.505   5.160   5.160 -0.3396  1.4720  3.1532
 4299SOL     vw17196   3.550   5.095   5.197 -0.2505 -0.1590  0.4444
 4300SOL     ow17197   5.780   7.297   0.145 -0.3039 -0.0827  0.3386
 4300SOL     hw17198   5.715   7.228   0.130  0.1347 -0.1076 -1.7746
 4300SOL     hw17199   5.857   7.250   0.177 -0.7456 -0.2519  1.2036
 4300SOL     vw17200   5.781   7.282   0.147 -0.3045 -0.1082  0.1739
 4301SOL     ow17201   2.674   6.262   3.398  0.0469 -0.2237 -0.1992
 4301SOL     hw17202   2.736   6.242   3.467 -0.9173  0.3254  0.8534
 4301SOL     hw17203   2.687   6.355   3.379  0.1895 -0.3302 -0.6437
 4301SOL     vw17204   2.684   6.272   3.404 -0.0615 -0.1652 -0.1190
 4302SOL     ow17205   7.556   5.367   4.551 -0.0210 -0.3858 -0.2124
 4302SOL     hw17206   7.524   5.337   4.636  2.7138  0.5007  1.2415
 4302SOL     hw17207   7.500   5.322   4.487 -2.3880 -0.8254  2.0157
 4302SOL     vw17208   7.544   5.357   4.554  0.0277 -0.3266  0.2737
 4303SOL     ow17209   6.489   7.177   2.379  0.0675  0.0329 -0.1794
 4303SOL     hw17210   6.439   7.180   2.461 -0.1102 -1.7042 -0.1872
 4303SOL     hw17211   6.454   7.103   2.332 -0.4688  1.5578 -2.3170
 4303SOL     vw17212   6.478   7.168   2.384 -0.0265  0.0045 -0.4624
 4304SOL     ow17213   6.746   7.265   2.542  0.3833  0.0399 -0.4878
 4304SOL     hw17214   6.783   7.347   2.573  3.6213 -1.3541 -0.2415
 4304SOL     hw17215   6.792   7.197   2.592 -1.7028 -1.9788 -1.1040
 4304SOL     vw17216   6.757   7.267   2.553  0.5355 -0.4106 -0.5367
 4305SOL     ow17217   1.418   6.389   3.154  0.2378  0.4407 -0.0300
 4305SOL     hw17218   1.464   6.405   3.237 -2.4953  1.2088  1.4761
 4305SOL     hw17219   1.440   6.299   3.131  1.0018  0.1713  1.5923
 4305SOL     vw17220   1.427   6.379   3.162 -0.0220  0.5066  0.3827
 4306SOL     ow17221   1.582   5.161   2.254  0.0408  0.0705  0.0470
 4306SOL     hw17222   1.577   5.066   2.266 -0.4381  0.1211  0.2473
 4306SOL     hw17223   1.517   5.197   2.315  1.8005  0.6638  1.6790
 4306SOL     vw17224   1.573   5.153   2.264  0.2097  0.1554  0.2886
 4307SOL     ow17225   1.155   7.330   6.684  0.2288 -0.0472 -0.3150
 4307SOL     hw17226   1.137   7.250   6.635 -1.0432  0.9094 -1.5108
 4307SOL     hw17227   1.235   7.312   6.732  0.2052 -1.8770 -0.8925
 4307SOL     vw17228   1.163   7.317   6.684  0.0579 -0.1624 -0.5488
 4308SOL     ow17229   5.615   5.174   3.605  0.3187  0.6081  0.0261
 4308SOL     hw17230   5.609   5.264   3.574  0.9961  0.8044  0.4333
 4308SOL     hw17231   5.645   5.125   3.529  0.6872  0.8613  0.0032
 4308SOL     vw17232   5.618   5.180   3.591  0.4566  0.6676  0.0768
 4309SOL     ow17233   3.895   0.786   6.951  0.1130  0.3569 -0.2376
 4309SOL     hw17234   3.888   0.753   7.040  0.4639  1.4274  0.1960
 4309SOL     hw17235   3.940   0.870   6.959  0.2966  0.3948 -1.4390
 4309SOL     vw17236   3.900   0.793   6.964  0.1835  0.5031 -0.3390
 4310SOL     ow17237   6.565   0.889   6.429  0.9422 -0.6972  0.3714
 4310SOL     hw17238   6.496   0.857   6.487  0.1168 -2.1554 -1.3088
 4310SOL     hw17239   6.603   0.963   6.475 -0.1959 -1.2945  2.3917
 4310SOL     vw17240   6.561   0.894   6.443  0.6828 -0.9684  0.4163
 4311SOL     ow17241   5.766   6.355   0.632 -0.8454  0.5825 -0.2709
 4311SOL     hw17242   5.822   6.423   0.596 -1.8337  1.0677 -0.9520
 4311SOL     hw17243   5.767   6.285   0.566 -1.7204  0.9689 -0.7111
 4311SOL     vw17244   5.773   6.355   0.618 -1.0912  0.6974 -0.4189
 4312SOL     ow17245   5.421   6.558   6.502 -0.1064 -0.6849  0.0689
 4312SOL     hw17246   5.326   6.568   6.515 -0.3310 -1.5699 -0.7954
 4312SOL     hw17247   5.458   6.568   6.590 -1.0486 -0.9025  0.5081
 4312SOL     vw17248   5.413   6.561   6.516 -0.2606 -0.8302  0.0129
 4313SOL     ow17249   6.279   0.626   1.423  0.4676  0.5473 -0.6190
 4313SOL     hw17250   6.229   0.598   1.346  1.0116  1.9878 -1.5358
 4313SOL     hw17251   6.286   0.548   1.477  2.1722 -1.2325 -3.1685
 4313SOL     vw17252   6.274   0.612   1.420  0.7646  0.5026 -1.0763
 4314SOL     ow17253   1.625   1.590   6.577  0.2152  0.1764  0.4656
 4314SOL     hw17254   1.532   1.603   6.558  0.4258 -2.1849 -3.2845
 4314SOL     hw17255   1.627   1.511   6.630  0.0217 -2.0311 -2.5440
 4314SOL     vw17256   1.613   1.581   6.582  0.2174 -0.4264 -0.4265
 4315SOL     ow17257   3.720   2.708   6.061 -0.5252 -0.3891  0.1182
 4315SOL     hw17258   3.676   2.765   6.124 -0.7422 -0.2652 -0.1452
 4315SOL     hw17259   3.812   2.711   6.087 -0.4920  0.3009 -0.0632
 4315SOL     vw17260   3.726   2.716   6.073 -0.5493 -0.2817  0.0594
 4316SOL     ow17261   6.748   4.980   5.656 -0.1550  0.2671  0.1734
 4316SOL     hw17262   6.832   4.982   5.610 -1.1009  1.0484 -1.6297
 4316SOL     hw17263   6.753   5.052   5.719 -0.0034  1.2798 -0.9645
 4316SOL     vw17264   6.759   4.989   5.658 -0.2596  0.5038 -0.2143
 4317SOL     ow17265   1.832   5.196   2.173  0.4730 -0.1291 -0.0536
 4317SOL     hw17266   1.844   5.160   2.085  2.1761  0.9432 -0.2954
 4317SOL     hw17267   1.739   5.184   2.190  0.3245 -1.4759 -1.4979
 4317SOL     vw17268   1.821   5.189   2.163  0.6781 -0.1652 -0.2760
 4318SOL     ow17269   2.634   4.439   2.550 -0.5779 -0.0885 -0.1019
 4318SOL     hw17270   2.649   4.456   2.643  0.8814 -0.7069 -0.1901
 4318SOL     hw17271   2.670   4.516   2.506  1.8824 -1.2296 -0.2746
 4318SOL     vw17272   2.641   4.451   2.556 -0.0608 -0.3209 -0.1364
 4319SOL     ow17273   7.170   4.084   4.150 -0.2836 -0.0824 -0.8597
 4319SOL     hw17274   7.137   4.127   4.071  0.7127 -0.5676 -1.5611
 4319SOL     hw17275   7.160   4.149   4.219 -2.6448 -0.1828 -1.0273
 4319SOL     vw17276   7.164   4.098   4.149 -0.4635 -0.1595 -0.9744
 4320SOL     ow17277   5.888   2.211   2.944  0.3493  0.2988 -0.1556
 4320SOL     hw17278   5.965   2.156   2.958  0.0474  0.1838  1.2036
 4320SOL     hw17279   5.922   2.300   2.941  0.6503  0.1726 -0.6931
 4320SOL     vw17280   5.903   2.215   2.945  0.3493  0.2669 -0.0472
 4321poe    c3117281   1.684   5.389   7.283 -0.4349 -0.4695 -0.9462
 4321poe     o217282   1.544   5.373   7.269 -0.5214 -0.4401 -0.1522
 4321poe    c2317283   1.507   5.375   7.133 -0.1397 -0.2000 -0.2540
 4321poe    c2317284   1.388   5.291   7.084 -0.0847 -0.1439 -0.4880
 4321poe     o217285   1.403   5.154   7.113  0.4734 -0.0648 -0.3984
 4321poe    c2317286   1.295   5.080   7.061  0.0890 -0.0820  0.4124
 4321poe    c2317287   1.340   4.950   6.992  0.5721  0.3786 -0.1527
 4321poe     o217288   1.392   4.845   7.071 -0.3994 -0.1051 -0.1452
 4321poe    c2317289   1.385   4.712   7.022  0.2944 -0.1548 -0.1131
 4321poe    c2317290   1.453   4.679   6.888 -0.4983  0.3664 -0.6530
 4321poe     o217291   1.593   4.690   6.897 -0.4780 -0.3570  0.0902
 4321poe    c3117292   1.657   4.605   6.804 -0.3091 -0.1653  0.0304
 4322poe    c3117293   1.618   3.693   1.941  0.3288  0.5067  0.3828
 4322poe     o217294   1.568   3.782   1.844 -0.3871 -0.2444  0.0441
 4322poe    c2317295   1.631   3.735   1.727 -0.3206  0.2567 -0.1237
 4322poe    c2317296   1.556   3.811   1.616 -0.8173  0.5421  0.4017
 4322poe     o217297   1.429   3.756   1.589 -0.4656 -0.0279 -0.1028
 4322poe    c2317298   1.378   3.806   1.467 -0.1344 -0.2444 -0.3322
 4322poe    c2317299   1.237   3.868   1.471  0.0038  0.0842 -0.5315
 4322poe     o217300   1.156   3.758   1.505  0.0834  0.0959 -0.2994
 4322poe    c2317301   1.028   3.796   1.549  0.2188 -0.3404  0.4921
 4322poe    c2317302   0.934   3.700   1.624 -0.6352  0.4157  0.4103
 4322poe     o217303   0.996   3.663   1.745 -0.4245  0.1861  0.2320
 4322poe    c3117304   0.902   3.636   1.846  0.0402 -0.1073  0.5902
 4323poe    c3117305   2.557   3.475   1.860  0.3409 -0.1330 -0.0433
 4323poe     o217306   2.430   3.533   1.840  0.1800 -0.6818 -0.6291
 4323poe    c2317307   2.401   3.572   1.707  0.3722 -0.0195 -0.4777
 4323poe    c2317308   2.293   3.681   1.712 -0.1775 -0.5688 -0.3035
 4323poe     o217309   2.308   3.755   1.831 -0.2203  0.0742 -0.6952
 4323poe    c2317310   2.209   3.855   1.822 -0.5366 -0.1172  0.4988
 4323poe    c2317311   2.222   3.943   1.948  0.8886  0.4960 -0.0544
 4323poe     o217312   2.235   3.857   2.059  0.3521  0.4474 -0.0281
 4323poe    c2317313   2.281   3.923   2.174 -0.5316  1.0190  0.0040
 4323poe    c2317314   2.232   3.863   2.307 -0.3977 -0.1349 -0.4609
 4323poe     o217315   2.281   3.731   2.317  0.0709  0.0250 -0.6396
 4323poe    c3117316   2.209   3.673   2.423  0.7433 -0.3709 -0.3967
 4324poe    c3117317   0.613   0.305   5.704  0.0271 -0.5723  0.0486
 4324poe     o217318   0.553   0.227   5.806 -0.0634 -0.0880  0.3672
 4324poe    c2317319   0.450   0.153   5.744  0.1781  0.0849 -0.2499
 4324poe    c2317320   0.356   0.087   5.845  0.0781  0.2933 -0.2057
 4324poe     o217321   0.406  -0.016   5.928 -0.4021  0.4733  0.3173
 4324poe    c2317322   0.305  -0.052   6.020 -0.3443  0.1864  0.2692
 4324poe    c2317323   0.336  -0.176   6.106  0.5170  0.2253  0.0258
 4324poe     o217324   0.444  -0.156   6.194  0.5883 -0.1247  0.0178
 4324poe    c2317325   0.426  -0.252   6.296  0.2317 -0.2023 -0.1163
 4324poe    c2317326   0.548  -0.262   6.389 -0.0462 -0.2486  0.2442
 4324poe     o217327   0.574  -0.147   6.468  0.0480 -0.2128  0.1602
 4324poe    c3117328   0.700  -0.151   6.531  0.2563 -0.4807 -0.2611
 4325poe    c3117329   3.683   1.148   0.703 -0.0941  0.0507 -0.2967
 4325poe     o217330   3.811   1.098   0.672  0.1712  0.4022  0.2140
 4325poe    c2317331   3.903   1.204   0.674  0.2016  0.3726  0.4542
 4325poe    c2317332   4.039   1.188   0.603  0.0427 -0.3007  0.2978
 4325poe     o217333   4.120   1.166   0.716 -0.2444  0.1740  0.5981
 4325poe    c2317334   4.255   1.202   0.694 -0.3171  0.2520  0.2793
 4325poe    c2317335   4.344   1.094   0.629 -0.4161  0.2236  0.1902
 4325poe     o217336   4.338   0.968   0.692  0.1121  0.0830 -0.0376
 4325poe    c2317337   4.462   0.907   0.721 -0.0518 -0.0558  0.3765
 4325poe    c2317338   4.434   0.757   0.743 -0.0510 -0.0598  0.3498
 4325poe     o217339   4.360   0.751   0.863 -0.4666  0.8268  0.1417
 4325poe    c3117340   4.364   0.624   0.922  0.5697  0.4978 -0.5932
 4326poe    c3117341   6.793   1.305   4.083 -0.3703  0.4994  0.2808
 4326poe     o217342   6.823   1.167   4.089 -0.3785  0.4943  0.2029
 4326poe    c2317343   6.863   1.123   3.961  0.4859  0.2405  0.5513
 4326poe    c2317344   6.820   0.976   3.944 -0.4517  0.5045  0.5941
 4326poe     o217345   6.865   0.885   4.041 -0.0620 -0.0962 -0.1352
 4326poe    c2317346   6.812   0.757   4.013  0.1105 -0.2458  0.2167
 4326poe    c2317347   6.876   0.641   4.092 -0.2926 -0.7340 -0.1711
 4326poe     o217348   7.006   0.632   4.038 -0.0392  0.6192  0.1877
 4326poe    c2317349   7.095   0.568   4.126 -0.5780  0.3434  0.5311
 4326poe    c2317350   7.233   0.593   4.063 -0.6559  0.0761  0.2546
 4326poe     o217351   7.273   0.728   4.073  0.5155 -0.3355  1.3673
 4326poe    c3117352   7.412   0.742   4.051  0.1762  0.6628 -0.3556
 4327poe    c3117353   7.164   1.064   5.181  0.1073  0.3523 -0.2490
 4327poe     o217354   7.104   0.939   5.155 -0.0186  0.3043  0.2617
 4327poe    c2317355   6.965   0.959   5.143 -0.1061  0.0294  0.7666
 4327poe    c2317356   6.886   0.830   5.167 -0.1993 -0.1578 -0.4568
 4327poe     o217357   6.866   0.806   5.305  0.3377  0.3432 -0.2897
 4327poe    c2317358   6.778   0.703   5.345  0.5523  0.3982  0.3272
 4327poe    c2317359   6.851   0.581   5.405  0.1827  0.2967  0.5744
 4327poe     o217360   6.942   0.538   5.307 -0.6358  0.5086 -0.2992
 4327poe    c2317361   6.919   0.401   5.284  0.3745  0.3912 -0.6882
 4327poe    c2317362   6.892   0.365   5.136 -0.2809 -0.4865 -0.3613
 4327poe     o217363   7.009   0.344   5.061 -0.0617 -0.1691 -0.1102
 4327poe    c3117364   6.983   0.279   4.939 -0.7106 -0.8443  0.3831
 4328poe    c3117365   7.448   3.682   4.490  0.6423 -0.7954  0.1201
 4328poe     o217366   7.504   3.734   4.371  0.2254 -0.4922  0.0544
 4328poe    c2317367   7.644   3.719   4.373  0.2968  0.2054  0.5020
 4328poe    c2317368   7.717   3.754   4.243 -0.3118  0.9558  0.3557
 4328poe     o217369   7.717   3.889   4.202 -0.2350  1.0106  0.5398
 4328poe    c2317370   7.834   3.949   4.254  0.2978  0.3789  0.0955
 4328poe    c2317371   7.830   4.103   4.266  0.4691  0.3608  0.4006
 4328poe     o217372   7.733   4.153   4.355 -0.2635  0.1790 -0.2724
 4328poe    c2317373   7.768   4.282   4.402 -0.3203  0.1949 -0.2738
 4328poe    c2317374   7.657   4.360   4.475 -0.5915 -0.4670  0.0344
 4328poe     o217375   7.564   4.430   4.395 -0.3917  0.3009  0.4671
 4328poe    c3117376   7.461   4.496   4.467 -0.9481  0.0906 -0.1251
 4329poe    c3117377   2.402   0.538   3.311  0.1078  1.0685 -0.6056
 4329poe     o217378   2.341   0.539   3.183 -0.5757 -0.7620 -0.3219
 4329poe    c2317379   2.229   0.624   3.174  0.1833  0.2057 -0.7851
 4329poe    c2317380   2.156   0.628   3.039 -0.6297 -0.1955 -0.3707
 4329poe     o217381   2.237   0.660   2.927 -0.2268  0.3365  0.0671
 4329poe    c2317382   2.274   0.794   2.909  0.0829  0.1951 -0.3671
 4329poe    c2317383   2.334   0.805   2.768 -0.4879 -0.2144 -0.6450
 4329poe     o217384   2.415   0.693   2.738 -0.2400 -0.4589  0.8451
 4329poe    c2317385   2.495   0.729   2.627 -0.0298 -0.6987  0.9186
 4329poe    c2317386   2.629   0.655   2.634  0.5618  0.2928  0.2524
 4329poe     o217387   2.616   0.515   2.628 -0.1897  0.4113 -1.3517
 4329poe    c3117388   2.739   0.448   2.610  0.0815  0.4556  0.1780
 4330poe    c3117389   3.629   1.808   4.322  0.1817  0.3375 -0.6406
 4330poe     o217390   3.562   1.879   4.219 -0.2263  0.5821 -0.2131
 4330poe    c2317391   3.594   1.833   4.090  0.2707 -0.2359  0.1846
 4330poe    c2317392   3.497   1.912   3.999 -0.1508  0.0830  0.9042
 4330poe     o217393   3.362   1.882   4.027 -0.2700 -0.3377 -0.0724
 4330poe    c2317394   3.266   1.966   3.966  0.1879  0.3931  0.1956
 4330poe    c2317395   3.126   1.905   3.981  0.3389 -0.0621 -0.2058
 4330poe     o217396   3.117   1.777   3.924  0.0786 -0.0668 -0.1585
 4330poe    c2317397   2.983   1.752   3.888 -0.0986  0.1757  0.3338
 4330poe    c2317398   2.944   1.608   3.850 -0.3658  0.3340  0.0072
 4330poe     o217399   2.968   1.581   3.713 -0.0354 -0.4523  0.2173
 4330poe    c3117400   2.955   1.444   3.682  0.3272 -0.3502 -0.3838
 4331poe    c3117401   7.410   5.729   7.382  0.2558  0.3150  0.0552
 4331poe     o217402   7.472   5.742   7.257  0.0262  0.0581 -0.0866
 4331poe    c2317403   7.395   5.754   7.139  0.3780  0.0237 -0.3240
 4331poe    c2317404   7.455   5.693   7.011  0.2950 -0.1585 -0.2769
 4331poe     o217405   7.454   5.553   6.998 -0.3409 -0.1816 -0.0062
 4331poe    c2317406   7.567   5.484   7.047 -0.0486  0.1596 -0.1957
 4331poe    c2317407   7.540   5.333   7.044 -0.0725  0.1724 -0.5724
 4331poe     o217408   7.508   5.289   6.914  0.3702 -0.5666 -0.4422
 4331poe    c2317409   7.451   5.162   6.937  0.2460 -0.4099  0.1197
 4331poe    c2317410   7.303   5.147   6.897  0.1837 -0.0673  0.2140
 4331poe     o217411   7.281   5.155   6.758 -0.7139  0.3136  0.3761
 4331poe    c3117412   7.146   5.125   6.732 -0.4166 -0.4895 -0.2760
 4332poe    c3117413   2.552   6.039   3.979 -0.0390  0.1245 -0.4866
 4332poe     o217414   2.655   6.041   3.883  0.0518  0.3492 -0.3834
 4332poe    c2317415   2.786   6.016   3.929 -0.0750 -0.6912 -0.5742
 4332poe    c2317416   2.866   5.979   3.803  0.0913 -0.5369 -0.5139
 4332poe     o217417   2.842   5.847   3.759 -0.2045 -0.7144  0.1683
 4332poe    c2317418   2.903   5.757   3.848  1.0340 -0.1819 -0.1178
 4332poe    c2317419   2.833   5.620   3.850  0.2538  0.2112  0.0356
 4332poe     o217420   2.699   5.645   3.885  0.1755 -0.1207 -0.0180
 4332poe    c2317421   2.657   5.607   4.014  0.2467  0.0732  0.0642
 4332poe    c2317422   2.703   5.681   4.141 -0.1161 -0.3270  0.4316
 4332poe     o217423   2.632   5.801   4.161  0.3336  0.0785 -0.3474
 4332poe    c3117424   2.686   5.881   4.264 -0.3940  0.4129 -0.2222
 4333poe    c3117425   2.398   0.265   0.438  0.1400  0.2994  0.5055
 4333poe     o217426   2.294   0.345   0.385  0.3592  0.2750  0.0356
 4333poe    c2317427   2.360   0.423   0.287  0.6164  0.1239  0.0867
 4333poe    c2317428   2.244   0.477   0.201  0.0897 -1.0362  0.0366
 4333poe     o217429   2.151   0.556   0.272  0.1035 -0.6121 -0.4091
 4333poe    c2317430   2.019   0.532   0.231 -0.3109  0.4238  0.2798
 4333poe    c2317431   1.947   0.668   0.236 -0.4124  0.3826 -0.0206
 4333poe     o217432   1.988   0.729   0.356 -0.2910 -0.5049  0.3996
 4333poe    c2317433   1.917   0.849   0.378  0.1470 -0.2444  0.4184
 4333poe    c2317434   1.935   0.879   0.528 -0.0991  0.0408  0.3910
 4333poe     o217435   2.057   0.820   0.564  0.0745  0.1926  0.0537
 4333poe    c3117436   2.078   0.829   0.703 -0.6959  0.1142  0.1771
 4334poe    c3117437   4.415   0.355   3.827 -0.0004  0.1335  0.4647
 4334poe     o217438   4.547   0.370   3.779 -0.3748  0.0896 -0.6101
 4334poe    c2317439   4.549   0.467   3.677 -0.0587 -0.1220 -0.8054
 4334poe    c2317440   4.690   0.508   3.630  0.1077  0.4966  0.2148
 4334poe     o217441   4.765   0.555   3.740  0.5360  0.3149 -0.0002
 4334poe    c2317442   4.900   0.545   3.699  0.3017  0.1062 -0.7267
 4334poe    c2317443   5.005   0.591   3.801 -0.5201  0.4946 -0.0445
 4334poe     o217444   5.024   0.516   3.919 -0.0018  0.3269 -0.2323
 4334poe    c2317445   5.121   0.570   4.006 -0.2674  0.0860  0.2135
 4334poe    c2317446   5.174   0.463   4.104  0.5933  0.3997  0.0922
 4334poe     o217447   5.234   0.361   4.028  0.1008  0.1088  0.0945
 4334poe    c3117448   5.243   0.250   4.114  0.5288 -0.4138 -0.6099
 4335poe    c3117449   3.313   3.295   3.186 -0.2834  0.3247  0.9519
 4335poe     o217450   3.181   3.249   3.205 -0.3116  0.2157  0.5032
 4335poe    c2317451   3.112   3.251   3.082 -0.5532  0.2564  0.6384
 4335poe    c2317452   2.966   3.202   3.085 -0.4712 -0.0439 -0.0528
 4335poe     o217453   2.949   3.062   3.088 -0.0614 -0.0892  0.1978
 4335poe    c2317454   2.817   3.022   3.115  0.0118 -0.3384  0.1855
 4335poe    c2317455   2.809   2.868   3.127 -0.2519 -0.3048  0.4546
 4335poe     o217456   2.858   2.832   3.254  0.3453 -0.0827  0.2916
 4335poe    c2317457   2.859   2.692   3.275 -0.4998 -0.0501  0.5974
 4335poe    c2317458   2.920   2.656   3.412  0.2693  0.4558  0.4003
 4335poe     o217459   3.054   2.698   3.404  0.4865 -0.4199 -0.8329
 4335poe    c3117460   3.127   2.673   3.522  0.4690  1.0924 -0.4790
 4336poe    c3117461   5.408   5.046   5.726  0.0927  0.2680  0.3799
 4336poe     o217462   5.482   5.152   5.782 -0.0435  0.0802  0.9260
 4336poe    c2317463   5.517   5.239   5.676 -0.4839 -0.3257  0.4418
 4336poe    c2317464   5.557   5.377   5.729 -0.5978 -0.2047  0.2131
 4336poe     o217465   5.455   5.459   5.783 -0.3712  0.0495  0.2621
 4336poe    c2317466   5.490   5.529   5.901 -0.2991 -0.0156  0.2804
 4336poe    c2317467   5.371   5.616   5.947  0.0442  0.2794  0.6163
 4336poe     o217468   5.359   5.719   5.852  0.0621  0.2184  0.5479
 4336poe    c2317469   5.328   5.841   5.915  0.4635  0.3909  0.4158
 4336poe    c2317470   5.309   5.968   5.830 -0.4887 -0.0200  0.0032
 4336poe     o217471   5.194   5.965   5.749 -0.1259  0.6124 -0.5476
 4336poe    c3117472   5.086   6.045   5.792 -0.4216 -0.0154 -0.0901
 4337poe    c3117473   5.028   5.315   7.476  0.2230 -0.2358  0.6170
 4337poe     o217474   5.148   5.344   7.545  0.4223 -0.0050  0.1804
 4337poe    c2317475   5.252   5.380   7.457 -0.4398  0.2839 -0.7421
 4337poe    c2317476   5.375   5.430   7.534 -0.4980  0.6062 -0.8523
 4337poe     o217477   5.355   5.547   7.610  0.1920 -0.3494  0.8869
 4337poe    c2317478   5.474   5.585   7.674  0.6934 -0.2241 -0.1045
 4337poe    c2317479   5.533   5.717   7.620 -0.0198  0.3269  0.4555
 4337poe     o217480   5.434   5.816   7.601 -0.2624  0.0137  0.0872
 4337poe    c2317481   5.495   5.936   7.559  0.6176 -0.5129 -0.1703
 4337poe    c2317482   5.394   6.047   7.524  0.1249 -0.7491  0.4683
 4337poe     o217483   5.335   6.088   7.645 -0.3709 -0.1530  0.0326
 4337poe    c3117484   5.250   6.197   7.618  0.1012  0.2034 -0.0074
 4338poe    c3117485   1.349   6.416   3.609  0.2275  0.1934  0.0733
 4338poe     o217486   1.418   6.313   3.542 -0.0650  0.5784 -0.8465
 4338poe    c2317487   1.318   6.218   3.513  0.3943 -0.1147 -0.1959
 4338poe    c2317488   1.376   6.083   3.465 -0.5474 -0.7172  0.3290
 4338poe     o217489   1.467   6.092   3.357 -0.4484  0.0408  0.4688
 4338poe    c2317490   1.448   6.010   3.244  0.3537  0.3977  0.0665
 4338poe    c2317491   1.549   6.019   3.128  0.1796  0.6744 -0.0650
 4338poe     o217492   1.522   6.142   3.066 -0.3529  0.4850 -0.2076
 4338poe    c2317493   1.621   6.172   2.970 -0.0045  0.3045  0.0980
 4338poe    c2317494   1.582   6.299   2.893 -0.0080  0.4667  0.3695
 4338poe     o217495   1.481   6.277   2.798  0.1216  0.2939  0.2718
 4338poe    c3117496   1.366   6.355   2.820 -0.0194  0.1165  0.1629
 4339poe    c3117497   5.384   3.719   4.611  0.1993  0.2204  0.5611
 4339poe     o217498   5.311   3.683   4.496 -0.0276 -0.0389  0.7856
 4339poe    c2317499   5.280   3.797   4.418 -0.0684 -0.4071  0.2597
 4339poe    c2317500   5.205   3.750   4.292  0.4673 -0.8415  0.0994
 4339poe     o217501   5.069   3.721   4.313  0.0736  0.5191 -0.4763
 4339poe    c2317502   5.023   3.662   4.193 -0.0488  0.3768 -0.3606
 4339poe    c2317503   4.870   3.669   4.193 -0.0863 -0.3225 -0.2148
 4339poe     o217504   4.818   3.580   4.289 -0.9067  0.0743 -0.2796
 4339poe    c2317505   4.707   3.640   4.351 -0.2604  1.0379 -0.0419
 4339poe    c2317506   4.657   3.551   4.466  0.1997 -0.3429 -0.8824
 4339poe     o217507   4.757   3.531   4.562 -0.2788 -0.3284 -0.3741
 4339poe    c3117508   4.718   3.432   4.655 -0.3298 -0.7737 -0.8695
 4340poe    c3117509   6.224   5.597   1.324 -0.3233 -0.2071  0.5774
 4340poe     o217510   6.259   5.724   1.273  0.4584 -0.4451  0.5035
 4340poe    c2317511   6.219   5.829   1.358  0.0847 -0.4587  0.3432
 4340poe    c2317512   6.068   5.850   1.382 -0.0450  0.1336 -0.8752
 4340poe     o217513   6.002   5.755   1.463 -0.3445  0.3323 -0.8856
 4340poe    c2317514   5.875   5.796   1.510 -0.0691 -0.2202  0.3790
 4340poe    c2317515   5.778   5.679   1.538 -0.7098  0.2974  0.3206
 4340poe     o217516   5.770   5.629   1.669  0.3007 -0.5768  0.0567
 4340poe    c2317517   5.690   5.515   1.689 -0.1051 -0.3709 -0.3812
 4340poe    c2317518   5.699   5.476   1.838 -0.0021  0.5926 -0.1263
 4340poe     o217519   5.612   5.563   1.906 -0.7452  0.0844 -0.4085
 4340poe    c3117520   5.568   5.511   2.030 -0.3218  0.2379 -0.1932
 4341poe    c3117521   1.651   0.367   0.455  0.0412 -0.3235 -0.4467
 4341poe     o217522   1.688   0.231   0.466 -0.2017 -0.3232  0.4844
 4341poe    c2317523   1.682   0.164   0.342 -0.3127 -0.2251  0.4362
 4341poe    c2317524   1.799   0.192   0.246 -0.3834 -0.0747  0.3942
 4341poe     o217525   1.919   0.125   0.276 -0.1420  0.1161 -0.1233
 4341poe    c2317526   2.010   0.114   0.169 -0.6577 -0.0552 -0.5441
 4341poe    c2317527   2.075  -0.025   0.154 -0.2458  0.1120 -0.3070
 4341poe     o217528   2.168  -0.063   0.252 -0.1112  0.5243 -0.2702
 4341poe    c2317529   2.235  -0.171   0.190 -0.1101  0.1518  0.3686
 4341poe    c2317530   2.340  -0.253   0.269 -0.2498 -0.5117 -0.1284
 4341poe     o217531   2.270  -0.314   0.374 -0.0538 -0.4556  0.0365
 4341poe    c3117532   2.361  -0.366   0.468  0.6005  0.7107  0.0586
 4342poe    c3117533   1.519   2.965   4.321 -0.4252  0.2576  0.8530
 4342poe     o217534   1.643   3.031   4.332 -0.1403 -0.0369 -0.3770
 4342poe    c2317535   1.673   3.136   4.243 -0.3797  0.2296 -0.1443
 4342poe    c2317536   1.788   3.235   4.267 -0.0138 -0.1394 -0.3595
 4342poe     o217537   1.917   3.179   4.266 -0.0896 -0.3502  0.5738
 4342poe    c2317538   2.015   3.273   4.306  0.1608 -0.2033 -0.3541
 4342poe    c2317539   2.149   3.211   4.348  0.1351 -0.0028  0.0304
 4342poe     o217540   2.158   3.141   4.470 -0.0191 -0.3281 -0.1451
 4342poe    c2317541   2.287   3.164   4.520 -0.3183  0.1855  0.3944
 4342poe    c2317542   2.329   3.103   4.655 -0.5495 -0.1712  0.3027
 4342poe     o217543   2.324   2.962   4.643 -0.5182 -0.1432 -0.0465
 4342poe    c3117544   2.367   2.906   4.765 -1.4582 -0.2669  0.2389
 4343poe    c3117545   2.920   5.426   0.931  0.3136 -0.3360  1.1307
 4343poe     o217546   2.992   5.304   0.928 -0.1679 -0.6078 -0.5415
 4343poe    c2317547   3.088   5.294   0.826  0.2211  0.3948 -0.2863
 4343poe    c2317548   3.119   5.144   0.816 -0.3098  0.2663  0.0010
 4343poe     o217549   3.096   5.085   0.943 -0.3183  0.1166 -0.0703
 4343poe    c2317550   3.101   4.944   0.936 -0.1210  0.1086  0.2332
 4343poe    c2317551   3.092   4.885   1.078 -0.6389 -0.4930 -0.0419
 4343poe     o217552   2.975   4.916   1.150 -0.2220  0.6053  0.1967
 4343poe    c2317553   2.962   4.840   1.268 -0.1919 -0.0239 -0.1968
 4343poe    c2317554   2.868   4.917   1.363 -0.0071  0.1338 -0.1400
 4343poe     o217555   2.922   5.043   1.397 -0.0888  0.1139  0.0673
 4343poe    c3117556   2.820   5.112   1.465 -0.2558  0.3617 -0.4305
 4344poe    c3117557   7.330   6.357   7.198  0.4360 -0.3176 -0.2308
 4344poe     o217558   7.464   6.400   7.196  0.2212  0.3751 -0.1524
 4344poe    c2317559   7.533   6.284   7.155 -0.0936 -0.0444  0.5022
 4344poe    c2317560   7.666   6.284   7.231  0.1144  0.4184  0.1404
 4344poe     o217561   7.757   6.370   7.166  0.0355 -0.4023 -1.0739
 4344poe    c2317562   7.883   6.352   7.226 -0.0302  0.4172 -0.6684
 4344poe    c2317563   8.014   6.374   7.148  0.2862  0.3345 -0.1605
 4344poe     o217564   8.052   6.266   7.065  0.2190  0.4324 -0.3190
 4344poe    c2317565   8.000   6.288   6.936 -0.6001 -0.1271 -0.0932
 4344poe    c2317566   8.037   6.165   6.850 -0.0546 -0.3436  0.4456
 4344poe     o217567   8.178   6.155   6.848  0.0128  0.5744  0.0237
 4344poe    c3117568   8.220   6.111   6.721  0.2888  0.5186  0.1333
 4345poe    c3117569   5.969   7.571   4.469 -0.6347 -0.6615  0.1171
 4345poe     o217570   6.020   7.632   4.586  0.0096 -0.5697 -0.2078
 4345poe    c2317571   6.146   7.693   4.569 -0.0560 -0.1847  0.6417
 4345poe    c2317572   6.204   7.739   4.704  0.4067 -0.3532  0.4998
 4345poe     o217573   6.157   7.856   4.766 -0.6749 -0.3249 -0.3452
 4345poe    c2317574   6.112   7.837   4.899 -0.4754 -0.4397 -0.2934
 4345poe    c2317575   6.020   7.949   4.951  0.3919  0.0761  0.1424
 4345poe     o217576   5.887   7.946   4.905  0.4591 -0.2444 -0.0283
 4345poe    c2317577   5.802   7.848   4.961  0.2558  0.1693  0.3917
 4345poe    c2317578   5.667   7.866   4.890  0.5412 -0.0505 -0.2192
 4345poe     o217579   5.688   7.883   4.751  0.1458 -0.1763 -0.2961
 4345poe    c3117580   5.569   7.896   4.676  0.1460  0.2146 -0.2299
 4346poe    c3117581   1.103   6.194   2.612  0.4165 -0.4670 -0.0257
 4346poe     o217582   1.220   6.171   2.536  0.3318 -0.3041 -0.2057
 4346poe    c2317583   1.201   6.182   2.397  0.2805  0.4987 -0.1387
 4346poe    c2317584   1.311   6.264   2.326 -0.0966  0.2221 -1.0492
 4346poe     o217585   1.314   6.394   2.379  0.5668 -0.3037  0.2368
 4346poe    c2317586   1.441   6.456   2.372  0.5065 -0.2002  0.0560
 4346poe    c2317587   1.432   6.563   2.262  0.6697  0.1032  0.3347
 4346poe     o217588   1.358   6.681   2.284  0.2113 -0.0505 -0.3295
 4346poe    c2317589   1.375   6.783   2.188 -0.4596  0.3061 -0.0772
 4346poe    c2317590   1.283   6.775   2.065 -0.7864 -0.2419  0.2004
 4346poe     o217591   1.299   6.659   1.986 -0.2934 -0.3136  0.3995
 4346poe    c3117592   1.386   6.683   1.878 -0.3883 -0.2925  0.3279
 4347poe    c3117593   5.766   2.135   7.476  0.1939 -1.0205 -0.1324
 4347poe     o217594   5.824   2.078   7.592  0.2736  0.1380  0.4160
 4347poe    c2317595   5.948   2.018   7.562 -0.2793 -0.8379  0.0258
 4347poe    c2317596   6.008   1.980   7.699 -0.0808  0.1021  0.2091
 4347poe     o217597   5.934   1.872   7.751  0.0332 -0.0112  0.1380
 4347poe    c2317598   5.998   1.816   7.863  0.5941  0.5465  0.0980
 4347poe    c2317599   6.033   1.899   7.989  0.1621 -0.6931  1.0564
 4347poe     o217600   6.144   1.984   7.971  0.1872 -0.8387  0.4923
 4347poe    c2317601   6.184   2.027   8.100 -0.2336  0.1270  0.3070
 4347poe    c2317602   6.336   2.049   8.109 -0.1527 -0.2919  0.0327
 4347poe     o217603   6.380   2.172   8.055 -0.2153 -0.2998 -0.0367
 4347poe    c3117604   6.408   2.173   7.916 -0.0179 -0.4170  0.0009
 4348poe    c3117605   1.386   5.342   5.349 -0.1692  0.0080  0.1313
 4348poe     o217606   1.301   5.259   5.425  0.0431 -0.0997  0.2529
 4348poe    c2317607   1.303   5.308   5.557  0.0860  0.4531  0.0490
 4348poe    c2317608   1.186   5.254   5.641  0.1532 -0.0117 -0.1547
 4348poe     o217609   1.226   5.129   5.693  0.1413 -0.3299 -0.8916
 4348poe    c2317610   1.145   5.077   5.796  0.0785 -0.1180 -0.8322
 4348poe    c2317611   1.198   4.943   5.850 -0.0084 -0.0113 -0.4807
 4348poe     o217612   1.187   4.829   5.768  0.0844 -0.3897  0.0208
 4348poe    c2317613   1.087   4.744   5.819  0.3201 -0.4584  0.3648
 4348poe    c2317614   1.041   4.637   5.719 -0.1445  0.1864 -0.1201
 4348poe     o217615   0.993   4.687   5.596 -0.3351 -0.0994 -0.1643
 4348poe    c3117616   0.998   4.587   5.497  0.7564 -0.0628 -0.1542
 4349poe    c3117617   5.821   7.527   3.587 -0.0678 -0.1159  0.5763
 4349poe     o217618   5.820   7.386   3.589  0.8123 -0.1511 -0.5243
 4349poe    c2317619   5.830   7.343   3.455 -0.0708 -0.5889 -0.4603
 4349poe    c2317620   5.857   7.192   3.445  0.2808 -0.5350 -0.3470
 4349poe     o217621   5.735   7.123   3.458 -0.1366  0.1632 -0.5359
 4349poe    c2317622   5.745   6.988   3.495  0.3819  0.2652 -0.3003
 4349poe    c2317623   5.610   6.946   3.555  0.5723  0.1066  0.0174
 4349poe     o217624   5.505   6.973   3.466  0.5237  0.3023  0.1338
 4349poe    c2317625   5.389   7.000   3.542  0.4459  0.6518 -0.1024
 4349poe    c2317626   5.267   6.995   3.449  0.6074 -0.0516 -0.2794
 4349poe     o217627   5.289   7.087   3.344  0.0307 -0.1997 -0.5318
 4349poe    c3117628   5.168   7.115   3.277 -0.2134  0.2579  0.0854
 4350poe    c3117629   2.369   3.340   4.058  0.2225 -0.6388 -0.2058
 4350poe     o217630   2.413   3.364   3.926  0.6664  0.3886  0.1216
 4350poe    c2317631   2.554   3.375   3.927  0.6877  0.0978  0.6497
 4350poe    c2317632   2.615   3.503   3.867 -0.0720  0.1866  0.0524
 4350poe     o217633   2.579   3.520   3.731  0.1298  0.1053 -0.0115
 4350poe    c2317634   2.672   3.496   3.628 -0.4500  0.3934 -0.6079
 4350poe    c2317635   2.613   3.474   3.487 -1.0234 -0.5121 -0.2338
 4350poe     o217636   2.530   3.565   3.420 -0.1075  0.3927 -0.1664
 4350poe    c2317637   2.579   3.697   3.411  0.4536  0.2096  0.1776
 4350poe    c2317638   2.457   3.791   3.405  0.2955  0.0142  0.3233
 4350poe     o217639   2.378   3.790   3.522  0.3568 -0.0065  0.3647
 4350poe    c3117640   2.258   3.863   3.505  0.7191  0.6982  0.7889
 4351poe    c3117641   1.353   0.869   2.487 -0.8839 -0.6461  0.0387
 4351poe     o217642   1.365   0.915   2.355 -0.4841 -0.3618  0.1710
 4351poe    c2317643   1.457   0.829   2.292 -0.9003 -0.3367 -0.4869
 4351poe    c2317644   1.441   0.834   2.139  0.4553 -0.6330 -0.6509
 4351poe     o217645   1.443   0.971   2.105 -0.0363 -0.4746 -0.0589
 4351poe    c2317646   1.458   0.998   1.968  0.6715  0.4374  0.1884
 4351poe    c2317647   1.477   1.146   1.931  0.2628  0.4159 -0.1136
 4351poe     o217648   1.359   1.207   1.976  0.2862 -0.3243  0.9845
 4351poe    c2317649   1.371   1.346   1.956 -0.3438 -0.4142 -0.0487
 4351poe    c2317650   1.264   1.431   2.028  0.3049  0.1977  0.1986
 4351poe     o217651   1.257   1.423   2.169 -0.0117 -0.3950  0.1507
 4351poe    c3117652   1.143   1.494   2.212  0.3337 -0.0758  0.5488
 4352poe    c3117653   3.324   5.239   7.206  0.5841  0.1032  0.1518
 4352poe     o217654   3.462   5.222   7.230  0.6428  0.4636  0.0688
 4352poe    c2317655   3.550   5.314   7.169  0.7383  0.3701  0.0668
 4352poe    c2317656   3.551   5.450   7.240  0.4028  0.2437  0.3126
 4352poe     o217657   3.581   5.459   7.378 -0.0788  0.2702  0.4201
 4352poe    c2317658   3.568   5.595   7.413  0.3197  0.5642 -0.5147
 4352poe    c2317659   3.430   5.660   7.438 -0.0120 -0.1068 -0.5818
 4352poe     o217660   3.341   5.657   7.328 -0.6035 -0.6055 -0.0982
 4352poe    c2317661   3.204   5.682   7.350 -0.4588 -0.0853  0.2508
 4352poe    c2317662   3.122   5.560   7.395 -0.0279 -0.1369  0.9003
 4352poe     o217663   3.128   5.509   7.527 -0.0778  0.3851  1.1061
 4352poe    c3117664   3.078   5.377   7.533  0.2906  0.1419 -0.5402
 4353poe    c3117665   2.209   1.751   1.958  1.0374  0.1784  0.3464
 4353poe     o217666   2.110   1.832   2.017  0.0299 -0.8950  0.1642
 4353poe    c2317667   2.008   1.758   2.080 -0.3814 -0.5164 -0.0482
 4353poe    c2317668   1.899   1.822   2.168  0.2696 -0.1827  0.5219
 4353poe     o217669   1.829   1.932   2.114  0.4000 -0.1630  0.3940
 4353poe    c2317670   1.729   1.991   2.193  0.2465 -0.3096  0.3096
 4353poe    c2317671   1.777   2.066   2.319 -0.7161  0.8555  0.0006
 4353poe     o217672   1.850   2.180   2.279 -0.1623  0.5625  0.1684
 4353poe    c2317673   1.945   2.214   2.377  0.8293 -0.3728 -0.4554
 4353poe    c2317674   2.038   2.329   2.333  0.7935 -0.1070  0.1485
 4353poe     o217675   2.126   2.290   2.230  0.5034  0.2840 -0.2483
 4353poe    c3117676   2.215   2.383   2.174  0.6835 -0.1216 -0.6425
 4354poe    c3117677   2.718   3.643   1.443  0.0966  0.2703  0.0755
 4354poe     o217678   2.833   3.646   1.524 -0.4231  0.3080  0.8281
 4354poe    c2317679   2.792   3.692   1.650 -0.2443  0.5388  0.8026
 4354poe    c2317680   2.895   3.693   1.764  0.6949 -0.2467 -0.0239
 4354poe     o217681   2.930   3.559   1.791  0.3817 -0.3962 -0.3470
 4354poe    c2317682   3.010   3.539   1.906  0.5894 -0.3158 -0.4763
 4354poe    c2317683   3.057   3.392   1.916 -0.0185 -0.4472  0.5121
 4354poe     o217684   3.111   3.340   1.798 -0.1784  0.5726 -0.0239
 4354poe    c2317685   3.131   3.201   1.814  0.0294  0.5424 -0.5155
 4354poe    c2317686   3.193   3.167   1.677  0.6219  0.1627 -0.1590
 4354poe     o217687   3.119   3.220   1.569  0.3415  0.1459  0.0252
 4354poe    c3117688   3.148   3.137   1.459  0.7730 -0.1125  0.3330
 4355poe    c3117689   3.880   3.110   2.901  1.0938  0.5800  0.5157
 4355poe     o217690   3.883   3.241   2.850  0.3764  0.1382 -0.7036
 4355poe    c2317691   3.770   3.250   2.767 -0.3538 -0.0591  0.2512
 4355poe    c2317692   3.792   3.376   2.680 -0.1585 -0.1001  0.2402
 4355poe     o217693   3.765   3.480   2.770  0.0715  0.5112 -0.3911
 4355poe    c2317694   3.817   3.593   2.704  0.7124  0.2388 -0.3638
 4355poe    c2317695   3.894   3.664   2.816 -0.1248  0.2901  0.1903
 4355poe     o217696   3.990   3.580   2.876 -0.1349 -0.0258 -0.2353
 4355poe    c2317697   4.081   3.652   2.955  0.1056  0.4563 -0.9436
 4355poe    c2317698   4.205   3.569   2.994 -0.3764  0.3989  0.5537
 4355poe     o217699   4.167   3.439   3.032  0.2438  0.0486  0.0091
 4355poe    c3117700   4.275   3.352   3.057 -0.0734 -0.1367  0.7821
 4356poe    c3117701   2.114   6.596   3.903  0.4314 -0.0479  0.2429
 4356poe     o217702   2.227   6.515   3.880  0.0596 -0.2430 -0.9739
 4356poe    c2317703   2.316   6.522   3.990 -0.1163 -0.2613 -0.8301
 4356poe    c2317704   2.446   6.444   3.960  0.2659  0.0590 -0.0119
 4356poe     o217705   2.535   6.506   3.870  0.0056 -0.0505 -0.3443
 4356poe    c2317706   2.632   6.412   3.830 -0.0983 -0.5199  0.4720
 4356poe    c2317707   2.731   6.464   3.723 -0.5342 -0.4573  0.0964
 4356poe     o217708   2.678   6.476   3.593  0.1413  0.2754 -0.1204
 4356poe    c2317709   2.719   6.593   3.527  0.0401  0.5146  0.2409
 4356poe    c2317710   2.641   6.620   3.397  0.2144  0.2966  0.0916
 4356poe     o217711   2.672   6.530   3.292  0.2798 -0.0446  0.3998
 4356poe    c3117712   2.769   6.577   3.201  0.0496  0.1474  0.2519
 4357poe    c3117713   0.279   0.541   0.529  0.2347 -0.2215 -0.0938
 4357poe     o217714   0.350   0.423   0.558  0.0316 -0.2922  0.1189
 4357poe    c2317715   0.350   0.391   0.696 -0.1370 -0.2362  0.1323
 4357poe    c2317716   0.448   0.273   0.710  0.3062  0.0071 -0.8218
 4357poe     o217717   0.400   0.145   0.675  0.2505 -0.0661 -0.4761
 4357poe    c2317718   0.502   0.051   0.699  0.0454 -0.2525 -0.3332
 4357poe    c2317719   0.491  -0.078   0.615  0.4267 -0.4527 -0.0746
 4357poe     o217720   0.387  -0.170   0.640 -0.0068 -0.2226 -1.0230
 4357poe    c2317721   0.424  -0.304   0.617 -0.1786 -0.2631 -1.0607
 4357poe    c2317722   0.326  -0.414   0.663  0.2056  0.0198  0.5034
 4357poe     o217723   0.212  -0.405   0.580  0.3697 -0.3961  0.2300
 4357poe    c3117724   0.162  -0.534   0.553 -0.3588 -0.1122  0.1941
 4358poe    c3117725   2.944   0.525   3.606  0.1084  0.1218 -0.0136
 4358poe     o217726   2.824   0.594   3.578  0.1578  0.1823 -0.0743
 4358poe    c2317727   2.804   0.700   3.668 -0.0117  0.2607 -0.2044
 4358poe    c2317728   2.707   0.811   3.622  0.2642  0.4880 -0.2422
 4358poe     o217729   2.760   0.867   3.505  0.1797  0.3952 -0.3252
 4358poe    c2317730   2.659   0.958   3.468 -0.2604  0.1728  0.3229
 4358poe    c2317731   2.642   0.992   3.319 -0.0173  0.5137  0.3709
 4358poe     o217732   2.620   0.868   3.255 -0.2702  0.2154  1.0275
 4358poe    c2317733   2.566   0.870   3.125  0.6813  0.4315  0.6298
 4358poe    c2317734   2.658   0.893   3.003  0.2831 -0.4517  0.1538
 4358poe     o217735   2.761   0.796   3.007  0.2688 -0.4741 -0.0072
 4358poe    c3117736   2.883   0.849   2.961  0.2844 -0.5460 -0.0464
 4359poe    c3117737   2.082   4.248   6.651  0.0345  0.1069  0.3192
 4359poe     o217738   1.959   4.307   6.613 -0.0249 -0.6048 -0.6338
 4359poe    c2317739   1.858   4.234   6.679 -0.5773  0.5673 -0.1676
 4359poe    c2317740   1.720   4.222   6.613 -0.4277 -0.0062 -0.3817
 4359poe     o217741   1.659   4.349   6.606 -0.1997  0.1540  0.3944
 4359poe    c2317742   1.524   4.309   6.623 -0.3177  0.1012 -0.6043
 4359poe    c2317743   1.408   4.409   6.604 -0.4083  0.0199 -0.4699
 4359poe     o217744   1.417   4.440   6.467  0.3555  0.1244 -0.3999
 4359poe    c2317745   1.298   4.506   6.429  0.3458  0.5272  0.3064
 4359poe    c2317746   1.317   4.567   6.289  0.2140  0.4203  0.2413
 4359poe     o217747   1.409   4.674   6.289 -0.1153  0.7033  0.0640
 4359poe    c3117748   1.433   4.728   6.161  0.2681  0.2909 -0.0372
 4360poe    c3117749   6.193   0.704   3.033  0.0873 -0.2973 -0.0548
 4360poe     o217750   6.208   0.673   2.896 -0.0323 -0.3855 -0.0486
 4360poe    c2317751   6.123   0.752   2.815  0.1761  0.2040  0.2968
 4360poe    c2317752   6.107   0.693   2.674  0.2397  0.5123  0.1619
 4360poe     o217753   6.119   0.554   2.689  0.0152  0.4619 -0.1196
 4360poe    c2317754   6.062   0.506   2.569  0.3078 -0.5899  0.1465
 4360poe    c2317755   6.061   0.353   2.558  0.0239 -0.6051  0.3762
 4360poe     o217756   6.189   0.298   2.582  0.3318 -0.0651 -0.0159
 4360poe    c2317757   6.192   0.157   2.589  0.5937 -0.0760 -0.3045
 4360poe    c2317758   6.185   0.077   2.457 -0.6235  0.1009 -0.3665
 4360poe     o217759   6.309   0.083   2.389 -0.3398 -0.4168  0.0920
 4360poe    c3117760   6.299  -0.004   2.279 -0.2356 -0.3566  0.0348
 4361poe    c3117761   7.169   2.993   5.393 -0.0536  0.0767 -0.6061
 4361poe     o217762   7.040   2.939   5.377 -0.2233  0.3791 -0.2750
 4361poe    c2317763   7.009   2.936   5.239  0.5511 -0.5380 -0.4402
 4361poe    c2317764   6.934   2.817   5.178 -0.0688 -0.2737 -0.1984
 4361poe     o217765   6.805   2.799   5.234 -0.1897  0.3353 -0.2796
 4361poe    c2317766   6.783   2.666   5.275  0.0334  0.3325 -0.1654
 4361poe    c2317767   6.632   2.641   5.298  0.0152  0.3607 -0.2518
 4361poe     o217768   6.565   2.703   5.405  0.2222  0.1702 -0.0097
 4361poe    c2317769   6.454   2.626   5.447  0.6721 -0.5462 -0.1107
 4361poe    c2317770   6.353   2.721   5.514  1.1659  0.0622 -0.2220
 4361poe     o217771   6.325   2.839   5.440  0.7649 -0.1902 -0.4786
 4361poe    c3117772   6.316   2.945   5.533 -0.0841 -0.6077 -0.0749
 4362poe    c3117773   0.165   2.553   0.055  0.7638  0.4304 -0.2443
 4362poe     o217774   0.113   2.447  -0.022  0.7173  0.3131 -0.0534
 4362poe    c2317775   0.210   2.403  -0.115 -0.1200  0.0429 -0.8154
 4362poe    c2317776   0.136   2.340  -0.234  0.1445 -0.6148 -0.6374
 4362poe     o217777   0.042   2.238  -0.208 -0.1087 -0.2637 -0.1717
 4362poe    c2317778  -0.091   2.284  -0.204 -0.0804 -0.1280 -0.6427
 4362poe    c2317779  -0.195   2.185  -0.146  0.4403 -0.2063  0.1767
 4362poe     o217780  -0.174   2.156  -0.010  0.3560 -0.0048  0.2344
 4362poe    c2317781  -0.262   2.054   0.033 -0.1698  0.1881 -0.3755
 4362poe    c2317782  -0.248   2.018   0.182  0.3011  0.6528 -0.3023
 4362poe     o217783  -0.322   2.109   0.259  0.7318  0.7946 -0.0566
 4362poe    c3117784  -0.312   2.098   0.400 -0.3346  0.5324  0.0049
 4363poe    c3117785   3.091   6.346   2.957 -0.7440 -0.5978  0.3205
 4363poe     o217786   3.186   6.261   3.017 -0.0480 -0.0414  0.0284
 4363poe    c2317787   3.313   6.272   2.956 -0.0233 -0.5008 -0.0073
 4363poe    c2317788   3.416   6.199   3.044  0.0212  0.1808  0.5179
 4363poe     o217789   3.368   6.071   3.079 -0.0601  0.0170 -0.1729
 4363poe    c2317790   3.440   6.006   3.182 -0.7467 -0.0240  0.2919
 4363poe    c2317791   3.414   6.053   3.326 -0.0806  0.0704  0.3834
 4363poe     o217792   3.277   6.052   3.361 -0.2390 -0.3989 -0.2298
 4363poe    c2317793   3.258   6.131   3.477 -0.1627  0.1095 -0.5587
 4363poe    c2317794   3.105   6.135   3.497 -0.0567  0.4360  0.2125
 4363poe     o217795   3.037   6.214   3.401 -0.2053 -0.0870 -0.1170
 4363poe    c3117796   3.049   6.352   3.425 -0.0670 -0.1366  0.1083
 4364poe    c3117797   3.695   2.729   0.312 -0.2459  0.4096  0.3357
 4364poe     o217798   3.600   2.810   0.377 -0.5639  0.1132  0.2429
 4364poe    c2317799   3.558   2.915   0.292  0.0376  0.2492  0.1102
 4364poe    c2317800   3.427   2.988   0.327  0.2505  0.7335 -0.1065
 4364poe     o217801   3.406   3.021   0.462 -0.1185  0.1498 -0.0189
 4364poe    c2317802   3.301   3.115   0.465  0.0245  0.3102  0.0025
 4364poe    c2317803   3.242   3.144   0.604 -0.6382  0.2797 -0.2647
 4364poe     o217804   3.148   3.060   0.667 -0.0015 -0.1154  0.1826
 4364poe    c2317805   3.017   3.074   0.617  0.0267  0.1328  0.1764
 4364poe    c2317806   2.913   2.968   0.658 -0.1951  0.1802 -0.2485
 4364poe     o217807   2.972   2.852   0.604 -0.2768 -0.0029  0.0513
 4364poe    c3117808   2.911   2.752   0.682 -0.4459  0.2978  0.3034
 4365poe    c3117809   7.476   4.860   7.373  1.1054 -0.1665  0.0980
 4365poe     o217810   7.509   4.728   7.411 -0.0449 -0.3965  0.3253
 4365poe    c2317811   7.565   4.674   7.294 -0.1638 -1.0843  0.5807
 4365poe    c2317812   7.602   4.527   7.322  0.3143 -0.9746  0.5224
 4365poe     o217813   7.510   4.480   7.417 -0.3884 -0.0460  0.3149
 4365poe    c2317814   7.506   4.339   7.429 -0.4733 -0.0728 -0.0308
 4365poe    c2317815   7.383   4.308   7.516  0.0731 -0.3143  0.6657
 4365poe     o217816   7.374   4.401   7.621  0.5313  0.2821  0.1861
 4365poe    c2317817   7.312   4.359   7.741  0.4843 -0.0067  0.0619
 4365poe    c2317818   7.401   4.279   7.838  0.5848 -0.0803 -0.0917
 4365poe     o217819   7.419   4.144   7.800  0.1424 -0.2769  0.3830
 4365poe    c3117820   7.482   4.093   7.915 -0.0364 -0.2864  0.4769
 4366poe    c3117821   7.351   7.020   4.432  0.5662 -0.0760 -0.2366
 4366poe     o217822   7.269   6.927   4.365 -0.2166 -0.0294  0.6357
 4366poe    c2317823   7.235   6.821   4.451 -0.3892 -0.2298  0.3211
 4366poe    c2317824   7.228   6.681   4.386 -0.0886 -0.3852  0.6198
 4366poe     o217825   7.338   6.655   4.302  0.1651  0.4462  0.6753
 4366poe    c2317826   7.323   6.530   4.237  0.3237  0.5422  0.4525
 4366poe    c2317827   7.433   6.499   4.134 -0.1850  0.1098  0.0300
 4366poe     o217828   7.539   6.468   4.222 -0.2027  0.1436  0.0635
 4366poe    c2317829   7.624   6.368   4.172 -0.5080  0.1501 -0.4764
 4366poe    c2317830   7.723   6.430   4.072  0.1032 -0.1921 -0.0895
 4366poe     o217831   7.818   6.513   4.136 -0.2793 -0.1262  0.3941
 4366poe    c3117832   7.891   6.592   4.046 -0.1704 -0.3001  0.3282
 4367poe    c3117833   5.760   5.089   7.199 -0.2123  0.4396 -0.1376
 4367poe     o217834   5.842   5.202   7.220  0.5433 -0.1768  0.2612
 4367poe    c2317835   5.971   5.162   7.262  0.6690 -0.1426 -0.0876
 4367poe    c2317836   5.978   5.150   7.416 -0.4381  0.5399  0.0274
 4367poe     o217837   5.985   5.284   7.460 -0.8004  0.4945  0.2250
 4367poe    c2317838   6.016   5.304   7.596  0.5425 -0.4379  0.0869
 4367poe    c2317839   5.897   5.385   7.652  0.6391 -0.0186 -0.3095
 4367poe     o217840   5.885   5.517   7.603  0.0874 -0.1139 -0.4352
 4367poe    c2317841   5.968   5.606   7.674 -0.4727  0.1390 -0.0939
 4367poe    c2317842   5.964   5.742   7.601  0.4276  0.3392  0.2195
 4367poe     o217843   6.032   5.725   7.479  0.0001  0.4936 -0.0391
 4367poe    c3117844   6.115   5.836   7.455  1.1605 -0.3573 -0.0135
 4368poe    c3117845   6.449   4.057   1.155 -0.1168 -0.4082 -0.4227
 4368poe     o217846   6.316   4.086   1.121 -0.2277 -0.1353  0.2238
 4368poe    c2317847   6.239   3.980   1.069  0.5243 -0.2543 -0.6660
 4368poe    c2317848   6.117   4.031   0.991  0.2676  0.2400  0.0556
 4368poe     o217849   6.015   4.077   1.078 -0.5330 -0.6275 -0.4108
 4368poe    c2317850   5.909   4.140   1.009 -0.2353  0.2055 -0.1154
 4368poe    c2317851   5.804   4.182   1.113 -0.6726 -0.1050 -0.4286
 4368poe     o217852   5.747   4.067   1.171 -0.0542  0.0030  0.4130
 4368poe    c2317853   5.647   4.094   1.266 -0.0659  0.3511  0.3017
 4368poe    c2317854   5.544   3.980   1.284  0.0980  0.0841 -0.4198
 4368poe     o217855   5.595   3.854   1.322  0.2986  0.2512 -0.1305
 4368poe    c3117856   5.503   3.748   1.323 -0.0828  0.5771  0.6030
 4369poe    c3117857   6.373   5.550   7.517  0.2928  0.2378 -0.2573
 4369poe     o217858   6.420   5.515   7.389  0.2428  0.0666 -0.2298
 4369poe    c2317859   6.353   5.583   7.285  0.3292 -0.1128 -0.4043
 4369poe    c2317860   6.325   5.511   7.152 -0.2579 -0.5118 -0.0701
 4369poe     o217861   6.442   5.485   7.077  0.1801 -0.2658  0.5175
 4369poe    c2317862   6.411   5.447   6.945  0.2726  0.7004  0.2127
 4369poe    c2317863   6.546   5.414   6.879  0.0335 -0.0168  0.0847
 4369poe     o217864   6.603   5.308   6.953 -0.0942  0.1773  0.4633
 4369poe    c2317865   6.719   5.266   6.885 -0.5962  0.2615 -0.4730
 4369poe    c2317866   6.848   5.339   6.927 -0.2718 -0.7382  0.3166
 4369poe     o217867   6.864   5.330   7.067 -0.3770  0.3214  0.4067
 4369poe    c3117868   6.993   5.374   7.104 -0.1409 -0.1772  0.1839
 4370poe    c3117869   5.542   0.719   6.697 -0.1344  0.3647  0.1822
 4370poe     o217870   5.621   0.831   6.730 -0.0731  0.2071  0.5740
 4370poe    c2317871   5.718   0.780   6.820  0.4840  0.3490  0.0577
 4370poe    c2317872   5.793   0.901   6.880  0.1016  0.5328  0.1674
 4370poe     o217873   5.899   0.939   6.796  0.0511  0.1135 -0.0899
 4370poe    c2317874   5.989   1.032   6.852 -0.1512  0.1244  0.2179
 4370poe    c2317875   6.124   1.039   6.777 -0.2255  0.4974  0.1193
 4370poe     o217876   6.117   1.103   6.651  0.0394  0.3898  0.0506
 4370poe    c2317877   6.225   1.109   6.561 -0.2399 -0.3705 -0.3470
 4370poe    c2317878   6.195   1.224   6.463  0.0329  0.0847  0.1019
 4370poe     o217879   6.224   1.341   6.537  0.0522  0.3532 -0.3285
 4370poe    c3117880   6.223   1.458   6.458 -0.4019  0.4329 -0.2085
 4371poe    c3117881   0.296   7.061   4.073 -0.2719  0.2145  0.3757
 4371poe     o217882   0.324   7.154   3.971 -0.9015  0.5889  0.5411
 4371poe    c2317883   0.423   7.247   4.007 -0.1810  0.0354  0.0022
 4371poe    c2317884   0.477   7.305   3.875 -0.8268  0.2112 -0.1878
 4371poe     o217885   0.497   7.219   3.765 -0.4234  0.2060 -0.1110
 4371poe    c2317886   0.606   7.262   3.686 -0.2826 -0.1732 -0.1270
 4371poe    c2317887   0.670   7.152   3.600 -0.1145 -0.2376  0.0805
 4371poe     o217888   0.604   7.131   3.477  0.2298  0.4867 -0.2395
 4371poe    c2317889   0.687   7.052   3.396 -0.2987 -0.1753 -0.1464
 4371poe    c2317890   0.634   7.017   3.255 -0.5345  0.3088 -0.1775
 4371poe     o217891   0.542   6.910   3.262  0.3015 -0.3816  0.5200
 4371poe    c3117892   0.480   6.862   3.145  0.1693 -1.2074  0.9192
 4372poe    c3117893   3.215   6.300   6.731 -0.0258 -0.4183 -0.2498
 4372poe     o217894   3.100   6.260   6.661 -0.3488 -0.2885  0.1978
 4372poe    c2317895   3.094   6.123   6.625 -0.2361 -0.2355 -0.0217
 4372poe    c2317896   3.169   6.091   6.494  0.7675  0.3174  0.4057
 4372poe     o217897   3.104   6.157   6.388  0.3078 -0.3217  0.2875
 4372poe    c2317898   3.167   6.149   6.262  0.5370 -0.0579  0.3838
 4372poe    c2317899   3.119   6.253   6.159  0.0591 -0.4591  0.1981
 4372poe     o217900   3.168   6.384   6.176 -0.4157 -0.1610 -0.6539
 4372poe    c2317901   3.106   6.462   6.076 -0.6178  0.4116 -0.0914
 4372poe    c2317902   3.145   6.610   6.089 -0.0615  0.2847 -0.2996
 4372poe     o217903   3.115   6.675   6.210  0.0809  0.1779 -0.2068
 4372poe    c3117904   3.207   6.781   6.231  1.0841 -0.7332  0.0920
 4373poe    c3117905   1.935   0.684   5.442 -1.2840 -0.2723 -0.2110
 4373poe     o217906   2.023   0.676   5.553 -0.4625 -0.2966 -0.8562
 4373poe    c2317907   1.975   0.590   5.653  0.3216  0.4217  0.1524
 4373poe    c2317908   2.072   0.558   5.768  0.3877 -0.0215 -0.0245
 4373poe     o217909   2.184   0.475   5.746  0.2972 -0.0808 -0.2578
 4373poe    c2317910   2.260   0.466   5.864  0.3562 -0.1842 -0.3024
 4373poe    c2317911   2.361   0.353   5.840  0.3389 -0.3282  0.2793
 4373poe     o217912   2.425   0.374   5.716 -0.2477 -0.3677 -0.0333
 4373poe    c2317913   2.538   0.289   5.715 -0.2320 -0.3454 -0.1441
 4373poe    c2317914   2.601   0.295   5.575 -0.1901 -0.1155 -0.1173
 4373poe     o217915   2.563   0.422   5.527  0.1942 -0.0125 -0.1559
 4373poe    c3117916   2.665   0.478   5.448  0.5789 -0.4237  0.0418
 4374poe    c3117917   1.969   2.982   2.193  0.3272  0.3554 -0.4186
 4374poe     o217918   2.037   2.859   2.201  0.6358  0.5472 -0.0804
 4374poe    c2317919   2.048   2.818   2.336  0.1659 -0.1867 -0.2642
 4374poe    c2317920   2.142   2.697   2.353  0.0416 -0.3563 -0.7683
 4374poe     o217921   2.277   2.735   2.357 -0.2933  0.7630  0.3436
 4374poe    c2317922   2.340   2.726   2.483 -0.2667 -0.3947  0.2565
 4374poe    c2317923   2.489   2.765   2.475 -0.5713  0.7628  0.0991
 4374poe     o217924   2.561   2.686   2.383 -0.2684  0.2552  0.7643
 4374poe    c2317925   2.687   2.746   2.363 -0.2020 -0.2137 -0.2562
 4374poe    c2317926   2.774   2.636   2.298  0.1700 -0.1095  0.0626
 4374poe     o217927   2.729   2.598   2.171  0.3753  0.4866 -0.1910
 4374poe    c3117928   2.842   2.534   2.116 -0.1568 -0.3965 -0.2761
 4375poe    c3117929   6.299   6.594   2.288 -0.0788 -0.3621  0.3896
 4375poe     o217930   6.362   6.634   2.407 -0.5001  0.1565  0.4397
 4375poe    c2317931   6.320   6.555   2.516 -0.4450  0.5005  0.7126
 4375poe    c2317932   6.380   6.603   2.650  0.2093 -0.2899  0.7075
 4375poe     o217933   6.511   6.573   2.693  0.4983  0.2417  0.2111
 4375poe    c2317934   6.522   6.442   2.744  0.0381 -0.2030 -0.7879
 4375poe    c2317935   6.669   6.434   2.789 -0.2144  0.0150  0.1098
 4375poe     o217936   6.708   6.560   2.839 -0.6993  0.0440  0.4181
 4375poe    c2317937   6.840   6.562   2.888 -0.7743  0.6637  0.6039
 4375poe    c2317938   6.855   6.703   2.948  0.3317  0.6586  0.3744
 4375poe     o217939   6.783   6.791   2.863 -0.5401 -0.2528  0.1509
 4375poe    c3117940   6.811   6.921   2.909 -0.1723 -0.1782 -0.2742
 4376poe    c3117941   2.135   5.062   3.848  0.1262 -0.1502 -0.8229
 4376poe     o217942   2.187   5.172   3.776  0.3371 -0.2865 -0.8807
 4376poe    c2317943   2.100   5.283   3.784  0.1299 -0.4968 -0.0723
 4376poe    c2317944   2.173   5.404   3.724  0.1917 -0.5089 -0.0214
 4376poe     o217945   2.207   5.378   3.589  0.1378 -0.1863 -0.0991
 4376poe    c2317946   2.196   5.484   3.497  0.5226 -0.1052 -0.0519
 4376poe    c2317947   2.243   5.429   3.361  0.1278 -0.2650 -0.1226
 4376poe     o217948   2.380   5.401   3.377  0.1605 -0.3322 -0.5192
 4376poe    c2317949   2.434   5.380   3.248  0.2618 -0.0715 -0.5195
 4376poe    c2317950   2.406   5.254   3.164 -0.4624 -0.3711  0.1567
 4376poe     o217951   2.461   5.136   3.219 -0.5243 -0.3951  0.1659
 4376poe    c3117952   2.427   5.020   3.146 -0.7707  0.0947 -0.5167
 4377poe    c3117953   0.617   4.870   2.998 -0.2747 -0.2807  0.0986
 4377poe     o217954   0.483   4.874   3.041 -0.4252  0.5620 -0.4239
 4377poe    c2317955   0.468   4.885   3.181 -0.1128 -0.0438 -0.3428
 4377poe    c2317956   0.352   4.796   3.231 -0.3902  0.6180  0.2006
 4377poe     o217957   0.233   4.838   3.168 -0.7512 -0.2262  0.3139
 4377poe    c2317958   0.191   4.725   3.093 -0.2357  0.1220 -0.5121
 4377poe    c2317959   0.042   4.739   3.059 -0.4330 -0.0450  0.2582
 4377poe     o217960   0.023   4.840   2.962 -0.3408  0.4542  0.7534
 4377poe    c2317961  -0.097   4.832   2.888  0.5256 -0.0549 -0.6303
 4377poe    c2317962  -0.087   4.933   2.772 -0.7537  0.5477 -0.2263
 4377poe     o217963  -0.063   5.069   2.800 -0.0651  0.3901 -0.0278
 4377poe    c3117964   0.014   5.133   2.701  0.4794 -0.9094 -0.4621
 4378poe    c3117965   2.302   1.787   3.885 -0.0610  0.1326 -0.2279
 4378poe     o217966   2.406   1.692   3.875 -0.4404 -0.2898 -0.1807
 4378poe    c2317967   2.374   1.574   3.946  0.2131  0.0724  0.7310
 4378poe    c2317968   2.470   1.462   3.903 -0.1796 -0.0614  0.1911
 4378poe     o217969   2.443   1.444   3.766  0.4648  0.2750  0.0122
 4378poe    c2317970   2.520   1.343   3.705  0.1083 -0.0748  0.1376
 4378poe    c2317971   2.492   1.320   3.555 -0.9009  0.4489  0.2393
 4378poe     o217972   2.556   1.411   3.468 -0.2056 -0.0419  0.2318
 4378poe    c2317973   2.523   1.385   3.333  0.0225 -0.1499  0.1973
 4378poe    c2317974   2.582   1.494   3.242 -0.4322 -0.1421 -0.0901
 4378poe     o217975   2.520   1.615   3.279 -0.0086 -0.0047  0.1807
 4378poe    c3117976   2.548   1.726   3.197 -0.4645 -0.3857 -0.5058
 4379poe    c3117977   4.872   4.974   5.426 -0.0773 -0.4988  0.2180
 4379poe     o217978   4.895   4.878   5.527  0.7820  0.0037  0.5106
 4379poe    c2317979   4.892   4.953   5.646  0.3599  0.9136 -0.0565
 4379poe    c2317980   4.899   4.852   5.763 -0.5194 -0.0153 -0.7828
 4379poe     o217981   4.775   4.787   5.779 -0.5170  0.2183  0.2399
 4379poe    c2317982   4.769   4.676   5.865  0.0122  0.5355  0.6964
 4379poe    c2317983   4.631   4.607   5.873  0.3845 -0.2415  0.5218
 4379poe     o217984   4.559   4.663   5.980  0.2220  0.0067  0.2841
 4379poe    c2317985   4.462   4.758   5.943  0.1860 -0.2668 -0.3346
 4379poe    c2317986   4.384   4.804   6.068  0.1870 -0.2142 -0.3528
 4379poe     o217987   4.328   4.679   6.101 -0.7326  0.4016  0.4641
 4379poe    c3117988   4.354   4.642   6.235 -0.6579 -0.3634  0.2404
 4380poe    c3117989   3.428   5.709   0.244  0.4074 -0.0665 -0.9459
 4380poe     o217990   3.443   5.571   0.271 -0.3913 -0.0583 -0.4269
 4380poe    c2317991   3.324   5.503   0.237 -0.3956 -0.2002 -0.1267
 4380poe    c2317992   3.333   5.359   0.292 -0.0834 -0.0606  0.1944
 4380poe     o217993   3.401   5.265   0.213  0.3688  0.5673 -0.1666
 4380poe    c2317994   3.414   5.136   0.267  0.6688  0.4428 -0.5302
 4380poe    c2317995   3.450   5.036   0.156 -0.3288 -0.5324 -0.0022
 4380poe     o217996   3.576   5.054   0.093 -0.2170  0.4652  0.4880
 4380poe    c2317997   3.689   5.040   0.176 -0.1751  0.5611  0.4458
 4380poe    c2317998   3.720   4.904   0.241 -0.3084  0.3902  0.1531
 4380poe     o217999   3.766   4.811   0.145  0.6633  0.9177  0.0906
 4380poe    c3118000   3.832   4.702   0.205  0.0504  0.5555  0.1190
 4381poe    c3118001   6.366   2.700   2.248  0.0676  0.2168  0.2667
 4381poe     o218002   6.349   2.737   2.113 -0.2630 -0.5152  0.1037
 4381poe    c2318003   6.453   2.691   2.030 -0.3234  0.1532 -0.3444
 4381poe    c2318004   6.538   2.810   1.981 -0.0994  0.3265  0.4610
 4381poe     o218005   6.438   2.909   1.966 -0.3618  0.0294  0.2480
 4381poe    c2318006   6.461   3.010   1.871 -0.1509  0.2014  0.4833
 4381poe    c2318007   6.355   3.117   1.901 -0.6429 -0.0585 -0.3073
 4381poe     o218008   6.225   3.066   1.921 -0.6220  0.1685  0.4584
 4381poe    c2318009   6.126   3.166   1.914 -0.1354  0.6187 -0.0174
 4381poe    c2318010   5.984   3.126   1.955  0.1302 -0.6222 -0.2744
 4381poe     o218011   5.970   3.092   2.091  0.1672  0.1601 -0.0724
 4381poe    c3118012   5.836   3.050   2.107  0.2813 -0.0392  0.3602
 4382poe    c3118013   1.943   1.602   1.708 -0.3299  0.3737  0.3254
 4382poe     o218014   1.944   1.483   1.784  0.3955 -0.0663 -0.3619
 4382poe    c2318015   1.825   1.413   1.754  0.3922 -0.1436 -0.1709
 4382poe    c2318016   1.815   1.278   1.828 -0.0055 -0.0486 -0.0503
 4382poe     o218017   1.892   1.166   1.792 -0.7465 -0.5554 -0.0759
 4382poe    c2318018   1.855   1.102   1.672 -0.6609  0.1770 -0.4925
 4382poe    c2318019   1.956   0.992   1.636 -0.0511  0.4295  0.4124
 4382poe     o218020   2.082   1.035   1.682  0.2190 -0.2235  0.2940
 4382poe    c2318021   2.189   0.944   1.680  0.7329  0.3667  0.5932
 4382poe    c2318022   2.324   1.016   1.696  0.8775  0.0627  0.7618
 4382poe     o218023   2.290   1.102   1.803 -0.3145  0.2190  0.2680
 4382poe    c3118024   2.409   1.139   1.868 -0.0294  0.2237 -0.2450
 4383poe    c3118025   7.484   1.206   2.640 -0.4102 -0.4290 -0.1752
 4383poe     o218026   7.376   1.203   2.550 -0.6552 -0.5588  0.1204
 4383poe    c2318027   7.297   1.318   2.568  0.2631  0.0155  0.5056
 4383poe    c2318028   7.167   1.301   2.487  0.4826  0.0012  0.1530
 4383poe     o218029   7.174   1.248   2.357 -0.2168 -0.0109  0.1200
 4383poe    c2318030   7.203   1.347   2.260 -0.2764 -0.0242  0.0883
 4383poe    c2318031   7.109   1.339   2.138 -0.7106  0.3431  0.3951
 4383poe     o218032   7.128   1.218   2.068 -0.0018  0.5976  0.1308
 4383poe    c2318033   7.047   1.218   1.953 -0.0684  0.0811  0.1751
 4383poe    c2318034   7.062   1.094   1.864 -0.2550  0.0193  0.2293
 4383poe     o218035   7.024   0.970   1.920 -0.1600 -0.2815 -0.3588
 4383poe    c3118036   7.062   0.878   1.820 -0.1275 -0.1439 -0.4729
 4384poe    c3118037   6.058   6.830   1.430  0.1872 -0.6354 -0.6146
 4384poe     o218038   5.957   6.814   1.334  0.0652  0.0694 -0.6112
 4384poe    c2318039   5.892   6.939   1.325  0.1857  0.1770 -0.0046
 4384poe    c2318040   5.793   6.920   1.209  0.0882  0.0298  0.1028
 4384poe     o218041   5.858   6.888   1.088 -0.1007 -0.3625  0.1025
 4384poe    c2318042   5.776   6.893   0.974  0.2962  1.0047 -0.1474
 4384poe    c2318043   5.841   6.850   0.841 -0.1302  0.7229 -0.2688
 4384poe     o218044   5.919   6.735   0.870 -0.4030  0.5996 -0.0194
 4384poe    c2318045   5.980   6.682   0.755 -0.2332 -0.3003  0.4794
 4384poe    c2318046   6.084   6.580   0.805  0.1215 -0.2053 -0.0609
 4384poe     o218047   6.025   6.513   0.914 -0.4459 -0.3209 -0.4388
 4384poe    c3118048   6.118   6.413   0.948 -1.0127 -0.5131  0.5758
 4385poe    c3118049   6.157   5.136   4.183 -0.2239 -0.0513 -0.0254
 4385poe     o218050   6.026   5.186   4.195 -0.1423  0.2743 -0.4429
 4385poe    c2318051   6.000   5.245   4.320 -0.2079 -0.3458 -0.1609
 4385poe    c2318052   5.877   5.338   4.320 -0.2008 -0.3354 -0.0216
 4385poe     o218053   5.750   5.282   4.296 -0.0623 -0.3575 -0.7243
 4385poe    c2318054   5.653   5.384   4.282  0.5792  0.2842 -0.5177
 4385poe    c2318055   5.609   5.464   4.406 -0.4889 -0.7232 -0.2364
 4385poe     o218056   5.511   5.398   4.483 -0.0054 -0.6617  0.4439
 4385poe    c2318057   5.468   5.441   4.610  0.0697  0.4800  0.0932
 4385poe    c2318058   5.359   5.353   4.674  0.3158 -0.1979 -0.4112
 4385poe     o218059   5.404   5.222   4.699  0.5995  0.1028  0.7191
 4385poe    c3118060   5.326   5.167   4.803 -0.4787 -0.1237 -0.1863
 4386poe    c3118061   6.549   5.638   1.750 -0.4762  0.0408 -0.0475
 4386poe     o218062   6.567   5.762   1.813 -0.1529 -0.1156  0.1665
 4386poe    c2318063   6.633   5.849   1.724 -0.0132 -0.6355 -0.2407
 4386poe    c2318064   6.620   5.997   1.765 -0.1017 -0.5198 -0.6778
 4386poe     o218065   6.487   6.023   1.805  0.2319  0.2011 -0.0229
 4386poe    c2318066   6.391   6.053   1.706 -0.1390 -0.5462  0.1046
 4386poe    c2318067   6.263   6.090   1.783  0.2026 -0.0727  0.4520
 4386poe     o218068   6.191   5.989   1.849  0.1199 -0.4529 -0.2125
 4386poe    c2318069   6.131   5.900   1.758 -0.3143 -0.2104 -0.1684
 4386poe    c2318070   6.082   5.771   1.827  0.5783 -0.4547  0.0230
 4386poe     o218071   5.998   5.804   1.935  1.0367 -0.0089  0.2463
 4386poe    c3118072   6.013   5.706   2.035 -0.2349 -0.4988 -0.0248
 4387poe    c3118073   1.736   5.194   1.067  0.3030 -0.3842  0.2333
 4387poe     o218074   1.781   5.167   1.198  0.1978  0.1671  0.3889
 4387poe    c2318075   1.884   5.070   1.207 -0.2584 -0.3556  0.0265
 4387poe    c2318076   2.021   5.092   1.142  0.0366 -0.0690  0.7368
 4387poe     o218077   2.093   5.208   1.180 -0.3081  0.2313  0.4875
 4387poe    c2318078   2.218   5.224   1.117 -0.5091  0.5307  0.1653
 4387poe    c2318079   2.255   5.373   1.117  0.0751  0.3842  0.5882
 4387poe     o218080   2.234   5.431   1.244 -0.4396  0.9159  0.2620
 4387poe    c2318081   2.249   5.571   1.235  0.3957  0.8130 -0.0244
 4387poe    c2318082   2.191   5.623   1.368 -0.0387 -0.6992  0.4011
 4387poe     o218083   2.075   5.552   1.407 -0.2455 -0.3576  0.4109
 4387poe    c3118084   2.011   5.648   1.489  0.5053  0.3243  0.2184
 4388poe    c3118085   4.006   3.947   5.748  0.7582  0.5472 -0.1428
 4388poe     o218086   4.057   3.892   5.867  0.9815 -0.4205 -0.6773
 4388poe    c2318087   3.995   3.768   5.895  0.6166 -0.0868  0.0242
 4388poe    c2318088   4.071   3.700   6.010 -0.1432  0.3315  0.7796
 4388poe     o218089   4.208   3.675   5.988 -0.2845  0.2685 -0.0538
 4388poe    c2318090   4.277   3.659   6.110 -0.8700  0.0283  0.2522
 4388poe    c2318091   4.410   3.587   6.081 -0.8128  0.3945 -0.4041
 4388poe     o218092   4.473   3.657   5.975 -0.1684 -0.3429 -0.5168
 4388poe    c2318093   4.613   3.643   5.965 -0.1416 -0.1630 -0.4076
 4388poe    c2318094   4.649   3.707   5.829 -0.4845  0.2245 -0.3199
 4388poe     o218095   4.532   3.688   5.754 -0.4625 -0.2359 -0.2448
 4388poe    c3118096   4.560   3.748   5.629 -0.6966  0.1140 -0.1316
 4389poe    c3118097   2.500   4.603   3.997  0.6339 -0.2486 -0.3142
 4389poe     o218098   2.428   4.547   3.889  0.0842  0.1773 -0.1650
 4389poe    c2318099   2.329   4.631   3.834  0.2887  0.8389  0.4578
 4389poe    c2318100   2.193   4.575   3.880  0.4462 -0.2632 -0.3686
 4389poe     o218101   2.164   4.585   4.018  0.1365  0.4990 -0.4793
 4389poe    c2318102   2.030   4.554   4.046  0.1822  0.5787 -0.1673
 4389poe    c2318103   2.007   4.589   4.194 -0.0411 -0.2851  0.0099
 4389poe     o218104   2.055   4.501   4.293  0.3409  0.0632  0.1359
 4389poe    c2318105   1.975   4.490   4.408  0.5523 -0.1043  0.2674
 4389poe    c2318106   2.037   4.390   4.508 -0.0954 -0.5044  0.2739
 4389poe     o218107   2.171   4.414   4.545  0.1557 -0.7450 -0.4674
 4389poe    c3118108   2.221   4.339   4.653 -0.4310  0.3055  0.5589
 4390poe    c3118109   7.299   3.160   3.175  0.7979 -0.0131 -0.9182
 4390poe     o218110   7.251   3.031   3.146  0.4489 -0.2151  0.5326
 4390poe    c2318111   7.110   3.030   3.158  0.3782  0.0051 -0.2241
 4390poe    c2318112   7.046   2.890   3.152 -0.0236  0.1610  0.2936
 4390poe     o218113   7.063   2.802   3.261  0.6742  0.0706  0.1175
 4390poe    c2318114   7.030   2.667   3.242 -0.1187  0.3076 -0.2571
 4390poe    c2318115   7.030   2.575   3.366  0.5238  0.6911  0.0300
 4390poe     o218116   7.164   2.557   3.409  0.4736  0.2086 -0.0101
 4390poe    c2318117   7.156   2.519   3.544 -0.0495 -0.0715 -0.1131
 4390poe    c2318118   7.262   2.415   3.587  0.1625  0.0033 -0.4500
 4390poe     o218119   7.228   2.356   3.711  0.8045  0.7484  0.0938
 4390poe    c3118120   7.325   2.265   3.756  0.0870 -0.0542  0.0503
 4391poe    c3118121   3.966   4.029   6.488 -0.4921 -0.2539  0.1048
 4391poe     o218122   3.872   3.928   6.518 -0.2429 -0.5290 -0.0407
 4391poe    c2318123   3.900   3.857   6.636  0.3823  0.2648  0.2938
 4391poe    c2318124   3.775   3.813   6.715  0.3871 -0.0648  0.1189
 4391poe     o218125   3.710   3.712   6.641  0.1907  0.5401 -0.5454
 4391poe    c2318126   3.574   3.744   6.658  0.0174 -0.2337 -0.4755
 4391poe    c2318127   3.486   3.628   6.608 -0.1287 -0.4283  0.2220
 4391poe     o218128   3.527   3.598   6.476 -0.1499  0.0865  0.0987
 4391poe    c2318129   3.446   3.489   6.439 -0.0519  0.2064 -0.4696
 4391poe    c2318130   3.302   3.536   6.408 -0.0349  0.2812 -0.4336
 4391poe     o218131   3.277   3.635   6.310  0.1936  0.7848  0.0088
 4391poe    c3118132   3.142   3.671   6.328  0.2130  0.5894  0.5785
 4392poe    c3118133   5.763   4.380   0.218  0.0959 -0.0978  0.0956
 4392poe     o218134   5.873   4.379   0.130  0.1877  0.2589  0.2060
 4392poe    c2318135   5.854   4.441   0.005 -0.3263 -0.0370  0.1366
 4392poe    c2318136   5.987   4.438  -0.072 -0.2156  0.2507  0.3173
 4392poe     o218137   6.037   4.314  -0.117  0.0365  0.6204 -0.4513
 4392poe    c2318138   6.142   4.339  -0.208  0.4147 -0.0059 -0.1967
 4392poe    c2318139   6.207   4.215  -0.271  0.0798 -0.2478 -0.0683
 4392poe     o218140   6.272   4.141  -0.171  0.3387  0.2562  0.1386
 4392poe    c2318141   6.330   4.026  -0.230  0.4863  0.2089  0.3725
 4392poe    c2318142   6.438   3.959  -0.144  0.3203 -0.7123 -0.1291
 4392poe     o218143   6.384   3.894  -0.031 -0.2957  0.0490  0.0229
 4392poe    c3118144   6.493   3.865   0.055  0.0473  1.0477 -0.0561
 4393poe    c3118145   7.287   5.820   6.131 -0.6137 -0.1012 -0.2316
 4393poe     o218146   7.308   5.937   6.056  0.5019 -0.1090  0.0545
 4393poe    c2318147   7.372   6.041   6.127 -0.2630  0.1152  0.4248
 4393poe    c2318148   7.424   6.153   6.034 -0.1853 -0.2482  0.0297
 4393poe     o218149   7.333   6.258   6.014 -0.1072 -0.3746 -1.0131
 4393poe    c2318150   7.360   6.330   5.896  0.3654  0.7688 -0.2227
 4393poe    c2318151   7.246   6.428   5.860 -0.3148  0.0936  0.0752
 4393poe     o218152   7.128   6.355   5.836 -0.0766 -0.4952  0.6421
 4393poe    c2318153   7.036   6.451   5.787  0.0581 -0.3728  0.6286
 4393poe    c2318154   6.902   6.377   5.773 -0.1156  0.0180  0.1960
 4393poe     o218155   6.855   6.353   5.904 -0.1325 -0.4370  0.1082
 4393poe    c3118156   6.730   6.398   5.950 -0.2309 -0.2951 -0.3013
 4394poe    c3118157   3.670   4.336   0.285  0.1986 -0.2925 -0.5268
 4394poe     o218158   3.563   4.246   0.264 -0.1583  0.1259 -0.5105
 4394poe    c2318159   3.456   4.292   0.184 -0.2427 -0.1367 -0.5517
 4394poe    c2318160   3.342   4.190   0.195 -0.0591 -0.2974 -0.1088
 4394poe     o218161   3.382   4.060   0.157  0.1563 -0.3164  0.1791
 4394poe    c2318162   3.269   3.979   0.177 -0.3572  0.3639  0.0874
 4394poe    c2318163   3.274   3.828   0.145  0.3855  0.4178 -0.0725
 4394poe     o218164   3.235   3.805   0.011  0.0486  0.2844  0.0478
 4394poe    c2318165   3.228   3.669  -0.026 -0.3455  0.2497  0.2489
 4394poe    c2318166   3.218   3.665  -0.179  0.2185 -0.2334  0.2243
 4394poe     o218167   3.340   3.660  -0.250  0.1150 -0.2963  0.0493
 4394poe    c3118168   3.324   3.626  -0.386 -0.1582  0.2743 -0.0636
 4395poe    c3118169   3.258   1.239   0.404 -0.1164  0.1473  0.1486
 4395poe     o218170   3.127   1.207   0.361  0.1180  0.1592 -0.5967
 4395poe    c2318171   3.077   1.081   0.401 -0.3757  0.6684  0.4470
 4395poe    c2318172   2.925   1.083   0.381 -0.3219 -0.2159 -0.1171
 4395poe     o218173   2.894   1.176   0.280  0.0005  0.0139 -0.0058
 4395poe    c2318174   2.757   1.180   0.250 -0.0427  0.5356  0.2491
 4395poe    c2318175   2.740   1.269   0.125  0.0403  0.1544 -0.0372
 4395poe     o218176   2.796   1.396   0.147  0.6611 -0.1287  0.0409
 4395poe    c2318177   2.762   1.503   0.062 -0.2238 -0.2093  0.2824
 4395poe    c2318178   2.857   1.623   0.080 -0.3876  0.0095 -0.2666
 4395poe     o218179   2.991   1.606   0.040 -0.1855 -0.5659  0.6098
 4395poe    c3118180   3.063   1.727   0.039 -0.0524 -0.6458  0.2344
 4396poe    c3118181   5.992   3.183   3.655 -0.4351  0.2524  0.3585
 4396poe     o218182   5.985   3.155   3.793  0.0071 -0.3153  0.2721
 4396poe    c2318183   6.067   3.045   3.827 -0.0195 -0.2516  0.5466
 4396poe    c2318184   6.062   3.018   3.979 -0.1446 -0.0997  0.5705
 4396poe     o218185   6.133   3.121   4.044 -0.2549  0.4834 -0.2143
 4396poe    c2318186   6.141   3.119   4.185 -0.7953 -0.2278 -0.1876
 4396poe    c2318187   6.144   3.264   4.237  0.2324 -0.4635  0.4336
 4396poe     o218188   6.036   3.346   4.200  0.7942  0.1290  0.0933
 4396poe    c2318189   6.007   3.432   4.308  0.2768  0.3900 -0.2462
 4396poe    c2318190   5.913   3.553   4.293 -0.3377 -0.0934 -0.3093
 4396poe     o218191   5.786   3.525   4.237 -0.2214 -0.6423 -0.3009
 4396poe    c3118192   5.700   3.633   4.264  0.3010 -0.3102  0.0482
 4397poe    c3118193   5.639   6.608   2.458 -0.0043 -0.1583  0.2000
 4397poe     o218194   5.624   6.547   2.584  0.3151  0.3553  0.4943
 4397poe    c2318195   5.640   6.640   2.689  0.5535 -0.0289  0.8035
 4397poe    c2318196   5.623   6.559   2.819 -0.2262  0.4697  1.0202
 4397poe     o218197   5.741   6.489   2.851 -0.0195  0.4085  0.1469
 4397poe    c2318198   5.732   6.421   2.974 -0.8969  0.2161 -0.0158
 4397poe    c2318199   5.751   6.492   3.109 -0.3366 -0.2503  0.1541
 4397poe     o218200   5.870   6.567   3.123 -0.2619 -0.3936  0.3060
 4397poe    c2318201   5.888   6.629   3.248 -0.0224 -0.3513  0.2494
 4397poe    c2318202   6.030   6.685   3.274  0.0102 -0.1969 -0.2533
 4397poe     o218203   6.061   6.802   3.201  0.4191 -0.2821 -0.2151
 4397poe    c3118204   6.062   6.925   3.272 -0.1196  0.1389 -0.9269
 4398poe    c3118205   3.917   6.577   5.255  0.0740  0.4448 -0.4993
 4398poe     o218206   3.893   6.688   5.339  0.1642  0.4239 -0.4456
 4398poe    c2318207   3.754   6.710   5.339  0.1660  0.4390 -0.0578
 4398poe    c2318208   3.717   6.802   5.457 -0.4433 -0.0988  0.1786
 4398poe     o218209   3.791   6.920   5.432  0.1430 -0.5822 -0.3804
 4398poe    c2318210   3.775   7.022   5.527  0.5777  0.3292 -1.2685
 4398poe    c2318211   3.880   7.134   5.531  0.1792  0.6778 -0.2721
 4398poe     o218212   4.002   7.072   5.498 -0.0685  0.3215 -0.5234
 4398poe    c2318213   4.098   7.176   5.500  0.1441  0.1280 -0.6411
 4398poe    c2318214   4.221   7.154   5.410  0.3503 -0.2520 -0.2696
 4398poe     o218215   4.176   7.158   5.277  0.3369 -0.1723 -0.2624
 4398poe    c3118216   4.274   7.190   5.181  0.1243  0.2222 -0.3507
 4399poe    c3118217   5.558   2.071   0.847  0.1386  0.3330  0.9736
 4399poe     o218218   5.419   2.067   0.826  0.2722  0.2685  0.0426
 4399poe    c2318219   5.392   2.067   0.688 -0.0645  0.3615  0.1051
 4399poe    c2318220   5.245   2.088   0.647 -0.1639 -0.2195  0.1505
 4399poe     o218221   5.148   2.013   0.716 -0.4510  0.6486  0.7083
 4399poe    c2318222   5.017   2.030   0.668 -0.4127  0.5055  0.5527
 4399poe    c2318223   4.920   1.911   0.679 -0.1417  0.2364  0.0500
 4399poe     o218224   4.898   1.866   0.811 -0.1807  0.4013  0.0995
 4399poe    c2318225   4.772   1.801   0.808 -0.0020  0.0556  0.0400
 4399poe    c2318226   4.732   1.755   0.949 -0.2096  0.3529  0.0784
 4399poe     o218227   4.717   1.866   1.035 -0.2785  0.5007 -0.1218
 4399poe    c3118228   4.720   1.822   1.169 -0.6395  0.0179 -0.2680
 4400poe    c3118229   5.008   7.426   4.304 -0.2219 -0.3369  0.8176
 4400poe     o218230   4.917   7.456   4.408 -0.4532  0.5393  0.3787
 4400poe    c2318231   4.903   7.337   4.482 -0.1678  0.1604 -0.1647
 4400poe    c2318232   4.772   7.336   4.564 -0.2739 -0.0755 -0.3328
 4400poe     o218233   4.764   7.463   4.625  0.5721 -0.1688 -0.0135
 4400poe    c2318234   4.693   7.477   4.746  0.6158  0.2262 -0.0304
 4400poe    c2318235   4.599   7.596   4.720  0.2952  0.0522  0.3251
 4400poe     o218236   4.670   7.718   4.724 -0.5015  0.5204  0.5020
 4400poe    c2318237   4.585   7.811   4.662 -0.4894 -0.4937 -1.0989
 4400poe    c2318238   4.670   7.938   4.643 -0.2475 -0.5300 -0.3009
 4400poe     o218239   4.793   7.918   4.577  0.2465  0.4655  0.2985
 4400poe    c3118240   4.858   8.035   4.533 -0.0852  0.6034  0.1718
 4401poe    c3118241   7.334   0.030   5.500 -0.1469 -0.2965  0.1578
 4401poe     o218242   7.291  -0.013   5.627  0.2564 -0.8448  0.1077
 4401poe    c2318243   7.317   0.098   5.710 -0.2100 -0.3034 -0.4630
 4401poe    c2318244   7.216   0.101   5.827  0.5120 -0.0725  0.1577
 4401poe     o218245   7.250  -0.004   5.915  0.1259 -0.4121 -0.0970
 4401poe    c2318246   7.146  -0.055   5.997 -0.3707  0.1169 -0.3932
 4401poe    c2318247   7.173  -0.181   6.081 -0.3048  0.1916 -0.3019
 4401poe     o218248   7.192  -0.302   6.011 -0.0180 -0.4356  0.8410
 4401poe    c2318249   7.258  -0.396   6.093  0.2834 -0.7042  0.2935
 4401poe    c2318250   7.370  -0.468   6.016  0.1623 -0.3243 -0.2456
 4401poe     o218251   7.465  -0.371   5.977 -0.0516  0.2325  0.5840
 4401poe    c3118252   7.583  -0.398   6.050  0.6713  0.4565 -0.4812
 4402poe    c3118253   4.226   0.104   6.937  0.5141  0.3865  0.3650
 4402poe     o218254   4.160   0.208   6.868 -0.2976 -0.3504  0.0209
 4402poe    c2318255   4.153   0.168   6.733 -0.0100  0.1303 -0.1381
 4402poe    c2318256   4.062   0.265   6.656 -0.1068 -0.2818 -0.5503
 4402poe     o218257   3.927   0.245   6.694 -0.1483 -0.1836 -0.6432
 4402poe    c2318258   3.858   0.360   6.737 -0.4978 -0.4701 -0.4301
 4402poe    c2318259   3.779   0.433   6.627  0.3833  0.3777 -0.5249
 4402poe     o218260   3.727   0.335   6.540  0.6932 -0.0595 -0.2217
 4402poe    c2318261   3.644   0.387   6.439 -0.1335 -0.0498  0.4491
 4402poe    c2318262   3.584   0.281   6.344  0.2732 -0.1019  0.2459
 4402poe     o218263   3.519   0.178   6.414  0.0714  0.0150  0.2352
 4402poe    c3118264   3.427   0.107   6.334  0.1752  0.2350 -0.0798
 4403poe    c3118265   7.369   3.176   2.815  0.3196 -0.6875  0.3842
 4403poe     o218266   7.285   3.237   2.720  0.1417 -0.8702  0.4251
 4403poe    c2318267   7.267   3.145   2.614 -0.6766 -0.6384  0.3502
 4403poe    c2318268   7.205   3.226   2.498  0.6255  0.4475  0.3778
 4403poe     o218269   7.078   3.268   2.542  0.3796 -0.0271  0.1289
 4403poe    c2318270   7.044   3.395   2.490  0.0193  0.0584  0.5624
 4403poe    c2318271   6.946   3.463   2.587 -0.2870  0.1315  0.2047
 4403poe     o218272   6.840   3.375   2.618  0.1845 -0.5135 -0.0002
 4403poe    c2318273   6.729   3.443   2.671  0.0166 -0.5316 -0.3241
 4403poe    c2318274   6.682   3.382   2.804 -0.2636 -0.0024 -0.1757
 4403poe     o218275   6.554   3.426   2.845 -0.3279 -0.4516  0.1229
 4403poe    c3118276   6.580   3.459   2.980  0.1872  0.2244 -0.1342
 4404poe    c3118277   0.680   5.357   6.868  0.2557 -0.2028 -0.3280
 4404poe     o218278   0.679   5.461   6.963 -0.3205 -0.2757 -0.2543
 4404poe    c2318279   0.572   5.551   6.943 -0.0751  0.0910  0.0615
 4404poe    c2318280   0.555   5.666   7.045 -0.5005  0.0286  0.0640
 4404poe     o218281   0.528   5.605   7.169 -0.2844  0.2160  0.2016
 4404poe    c2318282   0.507   5.710   7.262  0.1927  0.6190 -0.1381
 4404poe    c2318283   0.548   5.666   7.404  0.1129 -0.3003 -0.3929
 4404poe     o218284   0.481   5.559   7.468  0.7146 -0.1685  0.4724
 4404poe    c2318285   0.572   5.503   7.560  0.8652 -0.0381  0.4047
 4404poe    c2318286   0.493   5.393   7.633  0.2178  0.0887 -0.0953
 4404poe     o218287   0.445   5.314   7.527  0.0545  0.1453 -0.0649
 4404poe    c3118288   0.461   5.179   7.566  0.6478  0.1048 -0.4371
 4405poe    c3118289   1.311   6.582   5.721 -0.2898  0.1465  0.4228
 4405poe     o218290   1.432   6.509   5.730 -0.1748  0.2978  0.1320
 4405poe    c2318291   1.506   6.538   5.847  0.3852  0.4245 -0.2506
 4405poe    c2318292   1.651   6.488   5.838  0.4319  0.4862  0.1354
 4405poe     o218293   1.724   6.481   5.958  0.2779  0.3109  0.2202
 4405poe    c2318294   1.684   6.365   6.027  0.3872  0.0164 -0.2103
 4405poe    c2318295   1.697   6.387   6.179  0.0039  0.0486 -0.1807
 4405poe     o218296   1.603   6.475   6.238 -0.2372 -0.2038 -0.1880
 4405poe    c2318297   1.663   6.601   6.257 -0.5084 -0.1033  0.0076
 4405poe    c2318298   1.637   6.662   6.395 -0.8006 -0.2027 -0.0028
 4405poe     o218299   1.501   6.671   6.433 -0.9423  0.1817 -0.5912
 4405poe    c3118300   1.481   6.805   6.470 -0.2164  0.0513  0.3196
 4406poe    c3118301   0.976   4.495   7.475  0.1241 -0.9126  0.1508
 4406poe     o218302   1.115   4.484   7.496  0.2463 -0.0392 -0.1320
 4406poe    c2318303   1.176   4.439   7.377 -0.1818 -0.2011 -0.2953
 4406poe    c2318304   1.310   4.512   7.359 -0.2837  0.1335  0.2600
 4406poe     o218305   1.417   4.477   7.444 -0.2128 -0.5848 -0.1176
 4406poe    c2318306   1.491   4.369   7.391  0.3441  0.0128 -0.5670
 4406poe    c2318307   1.637   4.341   7.432  0.1360  1.0967  1.0410
 4406poe     o218308   1.662   4.288   7.560  0.3012 -0.0690  0.5398
 4406poe    c2318309   1.791   4.233   7.578  0.1163 -0.4085  0.8593
 4406poe    c2318310   1.809   4.130   7.690  0.2490 -0.4014  0.8447
 4406poe     o218311   1.762   4.183   7.812 -0.6363  0.1667  0.2667
 4406poe    c3118312   1.834   4.136   7.924  0.2672  0.3343 -0.2414
 4407poe    c3118313   4.657   2.968   1.642 -0.7037 -0.4627  0.8359
 4407poe     o218314   4.760   2.937   1.733 -0.0794 -0.1517  0.2395
 4407poe    c2318315   4.845   2.830   1.696  0.8882  0.7081 -0.0957
 4407poe    c2318316   4.946   2.791   1.806 -0.1596  0.1358  0.6910
 4407poe     o218317   5.042   2.894   1.816 -0.0921  0.2078 -0.4502
 4407poe    c2318318   5.169   2.834   1.821  0.0795  0.6005  0.0846
 4407poe    c2318319   5.280   2.939   1.802 -0.0488  0.6755 -0.2741
 4407poe     o218320   5.290   3.013   1.922 -0.1817  0.6796 -0.2661
 4407poe    c2318321   5.356   3.136   1.907 -0.2462  0.7707  0.1824
 4407poe    c2318322   5.339   3.228   2.029  0.4329  0.1861  0.7225
 4407poe     o218323   5.202   3.232   2.063  0.1762  0.2256 -0.3010
 4407poe    c3118324   5.187   3.282   2.194 -0.0675 -0.3560 -0.1042
 4408poe    c3118325   3.087   2.024   6.140  0.0817 -1.0135 -0.0349
 4408poe     o218326   3.150   2.104   6.237 -0.4973 -0.6325  0.0347
 4408poe    c2318327   3.095   2.233   6.254  0.3617 -0.2046 -0.3704
 4408poe    c2318328   3.176   2.300   6.366  0.0681 -0.3479 -0.0710
 4408poe     o218329   3.307   2.324   6.319  0.0455 -0.0724  0.0074
 4408poe    c2318330   3.386   2.389   6.417  0.3121 -0.1449 -0.1597
 4408poe    c2318331   3.532   2.424   6.384  0.2596  0.2714  0.0465
 4408poe     o218332   3.617   2.315   6.353  0.2337  0.3985 -0.4827
 4408poe    c2318333   3.739   2.362   6.300 -0.2056  1.4646 -0.5791
 4408poe    c2318334   3.797   2.281   6.182  0.3696  0.5529  0.3175
 4408poe     o218335   3.709   2.271   6.073 -0.1922  0.6596  0.7544
 4408poe    c3118336   3.727   2.376   5.981  0.1846  0.1699  0.2593
 4409poe    c3118337   2.039   7.529   1.645  0.2559  0.1116  0.8121
 4409poe     o218338   1.899   7.516   1.658  0.1557  0.1803 -0.1875
 4409poe    c2318339   1.829   7.445   1.558 -0.1174  0.7032 -0.3718
 4409poe    c2318340   1.687   7.409   1.605  0.3300 -0.1976  0.3233
 4409poe     o218341   1.576   7.496   1.613  0.4394 -0.0282  0.0153
 4409poe    c2318342   1.531   7.566   1.499 -0.2532  0.2140  0.4344
 4409poe    c2318343   1.448   7.485   1.398  0.2111  0.5082 -0.1860
 4409poe     o218344   1.318   7.487   1.452  0.0919  0.2977 -0.4670
 4409poe    c2318345   1.218   7.442   1.362  0.2604  0.0317 -0.5242
 4409poe    c2318346   1.081   7.419   1.428  0.4982  0.4597  0.1334
 4409poe     o218347   1.090   7.309   1.516  0.4453  0.3755  0.0326
 4409poe    c3118348   0.977   7.226   1.499  0.4204  0.2473  0.8005
 4410poe    c3118349   4.251   2.905   1.884  0.1027 -0.6349 -0.5910
 4410poe     o218350   4.350   2.941   1.977 -0.6923 -0.3205  0.1487
 4410poe    c2318351   4.327   3.066   2.038  0.1193  0.0854 -0.3676
 4410poe    c2318352   4.447   3.113   2.124  0.0404 -0.1276 -0.1421
 4410poe     o218353   4.469   3.066   2.255  0.1430  0.2725 -0.0145
 4410poe    c2318354   4.392   3.121   2.360  0.1387 -0.7941  0.5600
 4410poe    c2318355   4.478   3.211   2.450 -0.1997 -0.0189  0.1193
 4410poe     o218356   4.506   3.331   2.380 -0.1972 -0.1953 -0.1833
 4410poe    c2318357   4.563   3.433   2.458 -0.0565  0.5027 -1.1883
 4410poe    c2318358   4.715   3.448   2.478 -0.1819  0.3277  0.0095
 4410poe     o218359   4.799   3.464   2.365 -0.1466  0.3813  0.0435
 4410poe    c3118360   4.771   3.580   2.290 -0.3118 -0.4100 -1.1392
 4411poe    c3118361   1.706   3.953   1.311 -0.0577  0.4769  0.8201
 4411poe     o218362   1.807   4.049   1.292  0.3320 -0.1740 -0.5886
 4411poe    c2318363   1.761   4.181   1.272 -0.1032 -0.1815  0.2909
 4411poe    c2318364   1.862   4.296   1.288 -0.4041  0.1130  0.1060
 4411poe     o218365   1.979   4.266   1.214 -0.4606 -0.4353  0.2335
 4411poe    c2318366   2.066   4.376   1.220 -0.3835 -0.4610 -0.4379
 4411poe    c2318367   2.199   4.366   1.142  0.3413 -0.5337  0.7807
 4411poe     o218368   2.184   4.261   1.049 -0.1454 -0.1539  0.4204
 4411poe    c2318369   2.280   4.261   0.945 -0.0987  0.1378  0.4633
 4411poe    c2318370   2.272   4.135   0.857 -0.4670  0.0043  0.6862
 4411poe     o218371   2.138   4.097   0.831 -0.3928  0.3694 -0.2838
 4411poe    c3118372   2.129   4.050   0.699  0.3601 -0.1724 -0.1506
 4412poe    c3118373   5.488   1.839   0.315  0.2196  0.3936 -0.4452
 4412poe     o218374   5.447   1.753   0.419 -0.7687  0.5422 -0.6969
 4412poe    c2318375   5.310   1.778   0.439 -0.7085  0.1839  0.1824
 4412poe    c2318376   5.245   1.646   0.486 -0.2763 -0.1567 -0.1756
 4412poe     o218377   5.270   1.597   0.616  0.0638  0.1420 -0.1269
 4412poe    c2318378   5.225   1.464   0.622  0.3032  0.0575 -0.2115
 4412poe    c2318379   5.249   1.386   0.753  0.4813  0.7656  0.1811
 4412poe     o218380   5.174   1.453   0.852 -0.4840  0.0420 -0.0393
 4412poe    c2318381   5.154   1.358   0.954 -0.0452 -0.3499 -0.3121
 4412poe    c2318382   5.038   1.396   1.049  0.0457  0.5740 -0.5587
 4412poe     o218383   5.076   1.504   1.132  0.5783 -0.0234 -0.0126
 4412poe    c3118384   4.991   1.506   1.245 -0.6439  0.1500 -0.9236
 4413poe    c3118385   3.019   1.647   2.148 -0.1963  0.0207  0.2125
 4413poe     o218386   3.103   1.671   2.259 -0.1033 -0.7134  0.3093
 4413poe    c2318387   3.241   1.641   2.249 -0.0636 -0.4102 -0.1372
 4413poe    c2318388   3.301   1.717   2.369 -0.5109  0.0509 -0.2053
 4413poe     o218389   3.234   1.667   2.483  0.2356 -0.5026 -0.0059
 4413poe    c2318390   3.319   1.697   2.591 -0.2881 -0.2267  0.3357
 4413poe    c2318391   3.250   1.683   2.728 -0.2101 -0.5587  0.3427
 4413poe     o218392   3.127   1.752   2.731  0.0866  0.0198 -0.4508
 4413poe    c2318393   3.063   1.693   2.842  0.9185  0.4012  0.2478
 4413poe    c2318394   2.938   1.776   2.878  0.1772 -0.2780 -0.6974
 4413poe     o218395   2.841   1.781   2.776 -0.1168  0.1626 -0.3999
 4413poe    c3118396   2.722   1.855   2.794 -0.0975  0.0068  0.3983
 4414poe    c3118397   7.380   4.207   2.782 -0.0240  0.7282 -0.1771
 4414poe     o218398   7.352   4.116   2.887 -0.2494  0.2528 -0.6460
 4414poe    c2318399   7.235   4.042   2.862  0.1698 -0.6261 -0.0188
 4414poe    c2318400   7.230   3.930   2.969  0.0534 -0.9490 -0.3594
 4414poe     o218401   7.329   3.833   2.945  0.1673 -0.8318 -0.3654
 4414poe    c2318402   7.327   3.754   3.062 -0.8024 -0.2404  0.0224
 4414poe    c2318403   7.409   3.625   3.080 -0.0050  0.2401 -0.1508
 4414poe     o218404   7.541   3.624   3.030 -0.1306 -0.3117 -0.4731
 4414poe    c2318405   7.575   3.499   2.975 -0.3461 -0.3354 -0.5558
 4414poe    c2318406   7.692   3.520   2.878  0.4912 -0.0642  0.4858
 4414poe     o218407   7.668   3.638   2.805  0.0165  0.0746  0.8679
 4414poe    c3118408   7.794   3.691   2.773 -0.1643  0.4057  0.6996
 4415poe    c3118409   1.236   0.382   4.999 -0.1023  0.2471 -0.6755
 4415poe     o218410   1.182   0.256   4.967 -0.0179  0.0455 -0.0494
 4415poe    c2318411   1.042   0.276   4.975  0.0488  0.3354  0.3807
 4415poe    c2318412   0.964   0.146   4.953  0.2925  0.3140 -0.3728
 4415poe     o218413   0.969   0.097   4.821  0.1371  0.3153 -0.3798
 4415poe    c2318414   0.891  -0.019   4.806 -0.0637  0.3965  0.0427
 4415poe    c2318415   0.738  -0.005   4.795 -0.0605  0.4095  0.0159
 4415poe     o218416   0.689  -0.015   4.927  0.1930 -0.0460  0.0769
 4415poe    c2318417   0.557   0.034   4.936  0.4805  0.6984  0.3250
 4415poe    c2318418   0.544   0.115   5.066  0.0136  0.1968  0.5914
 4415poe     o218419   0.556   0.022   5.171  0.5029 -0.3305  0.0740
 4415poe    c3118420   0.527   0.073   5.299  0.1000  0.3178 -0.2703
 4416poe    c3118421   4.668   5.209   2.461 -0.8340  0.7708 -0.6408
 4416poe     o218422   4.625   5.218   2.595  0.4294 -0.4931 -0.1260
 4416poe    c2318423   4.509   5.296   2.614  0.7665 -0.0388  0.0847
 4416poe    c2318424   4.468   5.286   2.762  0.1266  0.1701 -0.0782
 4416poe     o218425   4.585   5.283   2.839  0.4017 -0.5403 -0.5161
 4416poe    c2318426   4.570   5.364   2.954  0.0974  0.2167 -1.0840
 4416poe    c2318427   4.696   5.334   3.037 -0.4377  0.0491 -0.3162
 4416poe     o218428   4.805   5.336   2.948 -0.1544 -0.1445  0.0241
 4416poe    c2318429   4.921   5.291   3.014  0.0207 -0.0752 -0.2366
 4416poe    c2318430   5.036   5.275   2.912  0.0074 -0.7656 -0.1447
 4416poe     o218431   5.076   5.388   2.838  0.0340 -1.1001 -0.6514
 4416poe    c3118432   5.211   5.370   2.799  0.4848  0.6776 -0.0096
 4417poe    c3118433   6.133   5.416   0.703  0.4506  0.3574 -0.1390
 4417poe     o218434   6.008   5.391   0.643 -0.0711  0.3882  0.9073
 4417poe    c2318435   5.979   5.501   0.561 -0.4081 -0.0358  0.4545
 4417poe    c2318436   5.870   5.476   0.454 -0.0321 -0.4477  0.1621
 4417poe     o218437   5.757   5.417   0.514 -0.4002  0.1386  0.0536
 4417poe    c2318438   5.645   5.404   0.429  0.2293 -0.1541 -0.7442
 4417poe    c2318439   5.550   5.301   0.494  0.0246  0.1433 -0.5699
 4417poe     o218440   5.430   5.277   0.424 -0.0248  0.1970 -0.5022
 4417poe    c2318441   5.412   5.152   0.360 -0.0745  0.1319 -0.3617
 4417poe    c2318442   5.415   5.031   0.455 -0.1710  0.5532  0.1875
 4417poe     o218443   5.539   4.996   0.513  0.0554  0.4663 -0.3432
 4417poe    c3118444   5.503   4.897   0.606 -0.0394  0.5868 -0.2500
 4418poe    c3118445   6.139   5.808   3.778 -0.2518 -0.1563 -0.5158
 4418poe     o218446   6.271   5.857   3.776 -0.2877 -0.0269  0.0832
 4418poe    c2318447   6.366   5.780   3.706  0.0900  0.4217  0.0985
 4418poe    c2318448   6.485   5.874   3.677  0.6683 -0.3485 -0.0419
 4418poe     o218449   6.523   5.947   3.791 -0.4758 -0.2062  0.2585
 4418poe    c2318450   6.597   6.054   3.737 -0.3192 -0.2396  0.4059
 4418poe    c2318451   6.677   6.139   3.838 -0.1020  0.4558 -0.3378
 4418poe     o218452   6.595   6.176   3.946  0.0462  0.5030 -0.2412
 4418poe    c2318453   6.660   6.243   4.052 -0.2626 -0.3868  0.5214
 4418poe    c2318454   6.597   6.219   4.190 -0.6265  0.0031  0.4226
 4418poe     o218455   6.587   6.081   4.214 -0.5706 -0.1016 -0.1502
 4418poe    c3118456   6.510   6.058   4.330 -0.6944  0.6465 -0.0835
 4419poe    c3118457   0.940   7.510   1.840 -0.1955 -0.1469  0.2713
 4419poe     o218458   0.840   7.446   1.916 -0.3365  0.0450  0.2465
 4419poe    c2318459   0.787   7.350   1.828 -0.3267  0.2721 -0.0093
 4419poe    c2318460   0.655   7.281   1.868 -0.0953 -0.2797 -0.1840
 4419poe     o218461   0.534   7.354   1.865 -0.1710 -0.4262 -0.6911
 4419poe    c2318462   0.422   7.272   1.885 -0.0080 -0.2988  0.8009
 4419poe    c2318463   0.293   7.356   1.881  0.1916  0.0042  0.6885
 4419poe     o218464   0.270   7.441   1.991  0.1623  0.5267  0.2799
 4419poe    c2318465   0.134   7.471   2.012 -0.0736 -0.0268 -0.4200
 4419poe    c2318466   0.047   7.358   2.070  0.3602 -0.0913  0.1151
 4419poe     o218467   0.095   7.314   2.194 -0.0412 -0.0292  0.2941
 4419poe    c3118468   0.014   7.235   2.279 -0.2230  0.1811  0.3174
 4420poe    c3118469   6.806   1.503   2.788 -0.5606  0.1615 -0.1431
 4420poe     o218470   6.839   1.368   2.813 -0.2720  0.1961 -0.3308
 4420poe    c2318471   6.977   1.353   2.836 -0.3250 -0.1000 -0.2018
 4420poe    c2318472   7.016   1.254   2.948 -0.8965 -0.1226 -0.0196
 4420poe     o218473   6.945   1.133   2.930 -0.0241 -0.6058 -0.2636
 4420poe    c2318474   6.969   1.039   3.032 -0.1881 -0.5172 -0.1433
 4420poe    c2318475   6.892   0.911   2.996  0.3919 -0.6719 -0.8442
 4420poe     o218476   6.752   0.926   2.989  0.3330 -0.5550  0.4057
 4420poe    c2318477   6.697   0.811   2.930  0.1146 -0.1144 -0.2543
 4420poe    c2318478   6.544   0.830   2.927  0.0870 -0.2819  0.0842
 4420poe     o218479   6.507   0.963   2.958 -0.1470 -0.1713 -0.6568
 4420poe    c3118480   6.378   0.991   2.908  0.0999 -0.1691 -1.2977
 4421poe    c3118481   3.610   2.984   7.151  0.0101  0.2331  0.3329
 4421poe     o218482   3.706   2.898   7.210  0.1473  0.0768 -0.1078
 4421poe    c2318483   3.705   2.933   7.347  0.1072 -0.4124  0.0157
 4421poe    c2318484   3.742   2.810   7.432 -0.3999 -0.6240 -0.0632
 4421poe     o218485   3.873   2.759   7.441  0.0183  0.3985 -0.1950
 4421poe    c2318486   3.913   2.676   7.334  0.2253  0.0480  0.1477
 4421poe    c2318487   4.049   2.612   7.368  0.2181 -0.1501 -0.1932
 4421poe     o218488   4.160   2.697   7.386  0.2101  0.0226 -0.9312
 4421poe    c2318489   4.274   2.615   7.391  0.1162 -0.0536  0.4706
 4421poe    c2318490   4.411   2.680   7.366  0.3336 -0.5698  0.2894
 4421poe     o218491   4.437   2.781   7.461 -0.1658  0.3078 -0.4905
 4421poe    c3118492   4.574   2.782   7.494 -0.2818  0.0911  0.0009
 4422poe    c3118493   3.604   2.667   4.322 -0.2480 -0.0521  0.1297
 4422poe     o218494   3.636   2.531   4.301  0.4767  0.1854 -0.3676
 4422poe    c2318495   3.738   2.484   4.386 -0.1882 -0.4375  0.0970
 4422poe    c2318496   3.784   2.340   4.356 -0.4397 -0.5088  0.0533
 4422poe     o218497   3.803   2.348   4.216  0.0632 -0.7303  0.1079
 4422poe    c2318498   3.831   2.224   4.155 -0.0591 -0.3501 -0.7215
 4422poe    c2318499   3.850   2.243   4.003  0.1082  0.6608 -0.5797
 4422poe     o218500   3.720   2.273   3.958 -0.1878 -0.3362 -0.4207
 4422poe    c2318501   3.716   2.270   3.817 -0.0524  0.2766 -0.4437
 4422poe    c2318502   3.575   2.299   3.763 -0.3922 -0.2786  0.1367
 4422poe     o218503   3.531   2.428   3.798 -0.1144 -0.2477  0.3761
 4422poe    c3118504   3.391   2.439   3.788 -0.0185  0.5521 -0.1734
 4423poe    c3118505   4.771   4.939   3.930 -0.5544 -0.1055  0.2414
 4423poe     o218506   4.729   5.042   3.844 -0.0264  0.0658  0.1848
 4423poe    c2318507   4.706   5.148   3.933 -0.2059 -0.2347  0.4975
 4423poe    c2318508   4.693   5.276   3.849 -0.1621 -0.2496  0.4681
 4423poe     o218509   4.616   5.244   3.735  0.0730  0.4882  0.0890
 4423poe    c2318510   4.642   5.327   3.624  0.2342  0.0445 -0.2076
 4423poe    c2318511   4.564   5.282   3.499  0.0593 -0.0364 -0.0696
 4423poe     o218512   4.587   5.144   3.487  0.2637 -0.0082  0.0024
 4423poe    c2318513   4.543   5.099   3.361  0.1234 -0.5835  0.2521
 4423poe    c2318514   4.398   5.045   3.363 -0.0634 -0.0869  0.3296
 4423poe     o218515   4.385   4.946   3.462  0.9275 -0.4330  0.1277
 4423poe    c3118516   4.262   4.979   3.522  0.8206 -0.2804 -0.1724
 4424poe    c3118517   4.859   2.078   4.991  0.2580  0.1277 -0.4939
 4424poe     o218518   4.872   2.158   5.106 -0.0030 -0.4916 -0.0303
 4424poe    c2318519   4.746   2.179   5.166  0.2236 -0.4673  0.4457
 4424poe    c2318520   4.765   2.304   5.255  0.7232 -0.2484  0.0384
 4424poe     o218521   4.802   2.425   5.192  0.2715  0.1523  0.5362
 4424poe    c2318522   4.795   2.528   5.288  0.3897  0.2377  0.4529
 4424poe    c2318523   4.732   2.661   5.243 -0.2233 -0.4001 -0.6123
 4424poe     o218524   4.813   2.747   5.167 -0.5045  0.0376 -0.4180
 4424poe    c2318525   4.750   2.869   5.133  0.1357  0.5532  0.2001
 4424poe    c2318526   4.860   2.977   5.131  0.0205  0.6692  0.0791
 4424poe     o218527   4.931   2.984   5.009  0.2118 -0.5244  0.1098
 4424poe    c3118528   5.061   3.036   5.021 -0.0580  0.0816  0.4400
 4425poe    c3118529   6.089   2.642   3.672  0.0147  0.5399 -0.3001
 4425poe     o218530   6.166   2.580   3.571  0.1828  0.6977 -0.2696
 4425poe    c2318531   6.210   2.691   3.496  0.0185  0.7918 -0.2272
 4425poe    c2318532   6.347   2.690   3.425 -0.2819  0.2635 -0.8028
 4425poe     o218533   6.354   2.567   3.357 -0.2590  0.0713 -0.4527
 4425poe    c2318534   6.471   2.562   3.278  0.0036  0.0950 -0.0682
 4425poe    c2318535   6.438   2.475   3.155  0.4150 -0.1629  0.0027
 4425poe     o218536   6.336   2.526   3.072  0.1831  0.0134  0.3955
 4425poe    c2318537   6.356   2.492   2.937  0.7351  0.8288  0.2675
 4425poe    c2318538   6.276   2.587   2.846  0.2620 -0.2987 -0.5025
 4425poe     o218539   6.163   2.535   2.779 -0.3527  0.4397 -0.0520
 4425poe    c3118540   6.149   2.620   2.668 -0.0164  0.0349 -0.4106
 4426poe    c3118541   3.227   1.975   4.402  0.1891 -0.0632  0.7151
 4426poe     o218542   3.253   2.108   4.438 -0.2463  0.2370 -0.0494
 4426poe    c2318543   3.386   2.156   4.434 -0.1448 -0.0553 -0.2321
 4426poe    c2318544   3.412   2.283   4.518 -0.6670 -0.1422  0.0630
 4426poe     o218545   3.311   2.374   4.481 -0.4146  0.2381  0.3014
 4426poe    c2318546   3.323   2.495   4.552  0.2623  0.4742 -0.2108
 4426poe    c2318547   3.204   2.587   4.519 -0.2196 -0.2846 -0.5959
 4426poe     o218548   3.074   2.533   4.527 -0.2345 -0.1739 -0.0311
 4426poe    c2318549   2.986   2.639   4.498 -0.0581 -0.2148 -0.7395
 4426poe    c2318550   2.837   2.602   4.513 -0.2198  0.6369 -0.1518
 4426poe     o218551   2.799   2.477   4.459 -0.4723  0.6661 -0.0426
 4426poe    c3118552   2.663   2.445   4.443 -0.1309 -0.7176 -0.2722
 4427poe    c3118553   2.488   2.391   7.388  0.0301 -0.2438 -0.0465
 4427poe     o218554   2.506   2.486   7.285 -0.0746  0.2852  0.4184
 4427poe    c2318555   2.380   2.531   7.239 -0.0065  0.0332 -0.0155
 4427poe    c2318556   2.384   2.618   7.113 -0.5155  0.0082 -0.0534
 4427poe     o218557   2.422   2.529   7.010  0.2961  0.0678  0.1875
 4427poe    c2318558   2.415   2.599   6.888 -0.2434  0.0221  0.1920
 4427poe    c2318559   2.494   2.504   6.796  0.2055  0.4264  0.1562
 4427poe     o218560   2.623   2.472   6.844  0.0576  0.0459  0.3031
 4427poe    c2318561   2.691   2.402   6.741 -0.4536  0.1501 -0.1105
 4427poe    c2318562   2.826   2.351   6.794 -0.4504  0.1745 -0.0945
 4427poe     o218563   2.819   2.253   6.895 -0.1150  0.1357 -0.1069
 4427poe    c3118564   2.920   2.253   6.993 -0.5430  0.5325  0.3389
 4428poe    c3118565   1.583   3.107   2.587  0.3756  0.3566 -0.2931
 4428poe     o218566   1.566   3.213   2.679  0.0244 -0.2794  0.3958
 4428poe    c2318567   1.671   3.236   2.770  0.5852 -0.0082 -0.3035
 4428poe    c2318568   1.638   3.332   2.886  0.3438 -0.2750 -0.1496
 4428poe     o218569   1.544   3.281   2.978 -0.1005  0.2619 -0.2986
 4428poe    c2318570   1.461   3.382   3.028  0.4552  0.2382  0.6943
 4428poe    c2318571   1.361   3.348   3.140  0.0931  0.1868  0.3551
 4428poe     o218572   1.234   3.291   3.114 -0.1109  0.7610  0.0799
 4428poe    c2318573   1.132   3.327   3.204 -0.2679 -0.3158  0.3437
 4428poe    c2318574   1.000   3.252   3.184 -0.1071 -0.4160 -0.3636
 4428poe     o218575   1.008   3.135   3.263  0.3690  0.1117  0.3729
 4428poe    c3118576   0.918   3.036   3.220  0.1664  0.1243  0.7614
 4429poe    c3118577   2.978   5.410   5.104 -0.1661 -0.3390  0.2152
 4429poe     o218578   2.907   5.306   5.169  0.7131 -1.0797  0.0137
 4429poe    c2318579   2.857   5.213   5.075  0.4674 -0.6678 -0.2699
 4429poe    c2318580   2.764   5.110   5.141 -0.4597  0.2085 -0.1988
 4429poe     o218581   2.641   5.157   5.192 -0.2391 -0.0826  0.6209
 4429poe    c2318582   2.553   5.175   5.083  0.3807  0.3062  0.1791
 4429poe    c2318583   2.405   5.196   5.121  0.2752  0.2865 -0.2139
 4429poe     o218584   2.393   5.302   5.213  0.1090  0.5165 -0.4981
 4429poe    c2318585   2.261   5.345   5.232  0.0640  0.1631  0.0229
 4429poe    c2318586   2.260   5.441   5.352  0.0686 -0.1032  0.2350
 4429poe     o218587   2.320   5.381   5.465  0.5623  0.7604  0.4424
 4429poe    c3118588   2.332   5.450   5.587  0.2528 -0.0395  0.9375
 4430poe    c3118589   3.635   1.206   7.021 -0.0756 -0.6392  0.2129
 4430poe     o218590   3.527   1.282   6.970  0.5854 -0.0259 -0.3004
 4430poe    c2318591   3.456   1.346   7.074  0.4862  0.2514 -0.5402
 4430poe    c2318592   3.334   1.436   7.046  0.0959  0.1582  0.7999
 4430poe     o218593   3.382   1.564   7.010 -0.1156  0.0785  0.2258
 4430poe    c2318594   3.303   1.647   6.928  0.6083  0.2065 -0.3476
 4430poe    c2318595   3.342   1.796   6.926 -0.0572  0.3938  0.4651
 4430poe     o218596   3.365   1.851   7.054 -0.5981  0.2253  0.6372
 4430poe    c2318597   3.441   1.969   7.041  0.5632 -0.5452  0.2808
 4430poe    c2318598   3.486   2.035   7.173 -0.2933 -0.1295  0.3700
 4430poe     o218599   3.387   2.080   7.263 -0.5587  0.0017  0.0189
 4430poe    c3118600   3.333   2.204   7.225 -0.2965  0.1267  0.0536
 4431poe    c3118601   7.266   6.723   0.013 -0.6435 -0.3360 -0.1907
 4431poe     o218602   7.279   6.795  -0.108  0.1324 -0.1367  0.0051
 4431poe    c2318603   7.280   6.724  -0.230  0.7257 -0.2450  0.0711
 4431poe    c2318604   7.207   6.784  -0.351  0.0117 -0.7567  0.2410
 4431poe     o218605   7.267   6.744  -0.472  0.1085  0.2620 -0.0580
 4431poe    c2318606   7.167   6.731  -0.570 -0.2330 -0.2847  0.3536
 4431poe    c2318607   7.226   6.758  -0.710  0.4536 -0.4339  0.6117
 4431poe     o218608   7.307   6.648  -0.749  0.0186 -0.6365  0.2759
 4431poe    c2318609   7.338   6.647  -0.886  0.2339 -0.3991  0.3232
 4431poe    c2318610   7.452   6.741  -0.931  0.0624 -0.4194 -0.1643
 4431poe     o218611   7.589   6.721  -0.906  0.1563  0.1716 -0.1902
 4431poe    c3118612   7.656   6.845  -0.916  0.3597  0.1498  0.8007
 4432poe    c3118613   1.479   6.153   1.392  1.0972 -0.2022  0.2403
 4432poe     o218614   1.450   6.137   1.529  0.2532 -0.1383  0.0757
 4432poe    c2318615   1.341   6.049   1.548 -0.0465  0.2624  0.2107
 4432poe    c2318616   1.289   6.042   1.693 -1.0088 -0.5254 -0.1691
 4432poe     o218617   1.220   6.164   1.710  0.1874  0.0609  0.6028
 4432poe    c2318618   1.101   6.158   1.787 -0.3608 -0.2322 -0.2498
 4432poe    c2318619   0.994   6.085   1.705 -0.1697 -0.1750 -0.5544
 4432poe     o218620   0.902   6.165   1.635 -0.1588  0.1135 -0.2405
 4432poe    c2318621   0.822   6.100   1.538 -0.1713  0.1085 -0.2268
 4432poe    c2318622   0.690   6.032   1.578 -0.1825  0.1594 -0.1774
 4432poe     o218623   0.579   6.118   1.580 -0.3631 -0.0765 -0.0087
 4432poe    c3118624   0.449   6.063   1.578 -0.5060  0.2479  0.1618
 4433poe    c3118625   2.813   4.691   5.495  0.1126  0.6737 -0.7152
 4433poe     o218626   2.795   4.831   5.505 -0.2633  0.5991 -0.3369
 4433poe    c2318627   2.914   4.901   5.531 -0.1455  0.2918 -0.0446
 4433poe    c2318628   2.865   5.038   5.581 -0.0464  0.3115 -0.0008
 4433poe     o218629   2.762   5.020   5.676 -0.2084  0.1089 -0.2133
 4433poe    c2318630   2.732   5.144   5.736  0.2632  0.1200  0.0064
 4433poe    c2318631   2.581   5.172   5.750  0.3018  0.2587  0.1376
 4433poe     o218632   2.520   5.069   5.824  0.0767  0.1871 -0.1445
 4433poe    c2318633   2.438   5.137   5.917 -0.4130 -0.8123  0.1754
 4433poe    c2318634   2.447   5.069   6.054  0.3577 -0.2400  0.4173
 4433poe     o218635   2.437   4.929   6.050  0.0223 -0.1988 -0.2904
 4433poe    c3118636   2.470   4.882   6.179  1.1550 -0.3592 -0.6308
 4434poe    c3118637   7.306   3.759   5.746 -0.1320 -0.1692  0.3812
 4434poe     o218638   7.400   3.862   5.771  0.2399 -0.3194 -0.3721
 4434poe    c2318639   7.504   3.810   5.851 -0.5669 -0.3623  0.6761
 4434poe    c2318640   7.637   3.787   5.776 -0.7349  0.0199  0.2559
 4434poe     o218641   7.703   3.907   5.742 -0.3942 -0.0598  0.6186
 4434poe    c2318642   7.843   3.908   5.732 -0.4590 -0.0045 -0.4805
 4434poe    c2318643   7.927   3.892   5.860 -0.5980 -0.2520 -0.4189
 4434poe     o218644   7.908   3.767   5.923 -0.0784 -0.1398 -0.0251
 4434poe    c2318645   8.026   3.690   5.917  0.0439  0.0938 -0.6811
 4434poe    c2318646   8.004   3.576   6.018 -0.0786  0.4594 -0.2972
 4434poe     o218647   8.014   3.631   6.148 -0.0615  0.5207 -0.3243
 4434poe    c3118648   8.055   3.524   6.231 -0.6382 -0.1909 -0.9418
 4435poe    c3118649   2.254   0.698   6.740 -0.1479  0.2637  0.5219
 4435poe     o218650   2.359   0.651   6.822  0.2060 -0.1382 -0.1509
 4435poe    c2318651   2.467   0.742   6.838 -0.1420  0.2284  0.1234
 4435poe    c2318652   2.610   0.686   6.852  0.2177  1.0205 -0.3673
 4435poe     o218653   2.678   0.623   6.747 -0.0197 -0.0671  0.1212
 4435poe    c2318654   2.653   0.485   6.732  0.1313 -0.1593  0.7224
 4435poe    c2318655   2.729   0.399   6.835 -0.0083 -0.5236  0.5217
 4435poe     o218656   2.859   0.377   6.786 -0.0527  0.0475  0.1503
 4435poe    c2318657   2.955   0.347   6.884  0.3255  0.2759 -0.1441
 4435poe    c2318658   3.089   0.298   6.826  0.1345 -0.8049  0.2981
 4435poe     o218659   3.085   0.175   6.758  0.3604 -0.3717 -0.5115
 4435poe    c3118660   3.205   0.167   6.684  0.4752  0.2337 -0.3953
 4436poe    c3118661   1.371   2.764   7.251  0.7526  0.6781 -0.4418
 4436poe     o218662   1.293   2.765   7.133 -0.0997  0.3329  0.1064
 4436poe    c2318663   1.191   2.863   7.143 -0.8229 -0.4538  0.5623
 4436poe    c2318664   1.099   2.859   7.020  0.2021  0.2565 -0.2469
 4436poe     o218665   1.159   2.889   6.896 -0.2309 -0.2500 -0.5858
 4436poe    c2318666   1.140   2.782   6.806 -0.1766 -0.7985  0.0536
 4436poe    c2318667   1.201   2.813   6.668 -0.1231 -0.7311  0.0926
 4436poe     o218668   1.341   2.824   6.650 -0.1678  0.4017  0.3418
 4436poe    c2318669   1.385   2.915   6.553 -0.2929 -0.1082 -0.1983
 4436poe    c2318670   1.525   2.890   6.494 -0.0179  0.5607  0.1604
 4436poe     o218671   1.618   2.910   6.599  0.3420  0.9069 -0.2203
 4436poe    c3118672   1.751   2.894   6.557  0.4509  0.0899  0.4078
 4437poe    c3118673   6.790   2.668   4.853 -0.7362 -0.5711 -0.1959
 4437poe     o218674   6.730   2.735   4.744 -0.5282  0.2717  0.2004
 4437poe    c2318675   6.750   2.658   4.628  0.8640  0.3693  0.3643
 4437poe    c2318676   6.698   2.723   4.498  0.3310 -0.3258  0.2277
 4437poe     o218677   6.558   2.723   4.507  0.3501 -0.1154  0.5252
 4437poe    c2318678   6.505   2.774   4.386  0.9034  0.0628  0.3576
 4437poe    c2318679   6.359   2.732   4.360  0.8093  0.2173  0.6338
 4437poe     o218680   6.287   2.777   4.472  0.1424  0.4502  0.1163
 4437poe    c2318681   6.244   2.911   4.466  0.3109  0.4717 -0.7127
 4437poe    c2318682   6.128   2.942   4.562  0.5759  0.0486 -0.2525
 4437poe     o218683   6.159   2.929   4.699  0.6752  0.3492 -0.2466
 4437poe    c3118684   6.028   2.922   4.750  0.5237 -0.2304 -0.7046
 4438poe    c3118685   7.423   5.067   1.575  0.1492  0.0168  0.4409
 4438poe     o218686   7.284   5.068   1.553  0.1508 -0.1391  0.4254
 4438poe    c2318687   7.242   5.174   1.470 -0.1735 -0.2088  0.4966
 4438poe    c2318688   7.101   5.229   1.494 -0.0970  0.2942 -0.1798
 4438poe     o218689   7.066   5.315   1.600  0.1374  0.1642  0.0043
 4438poe    c2318690   7.092   5.264   1.728  0.0361  0.2627  0.0645
 4438poe    c2318691   7.026   5.356   1.833 -0.4717 -0.1507  0.1160
 4438poe     o218692   7.114   5.441   1.903  0.3406 -0.1500 -0.8714
 4438poe    c2318693   7.157   5.552   1.828  0.4098 -0.1982 -0.9030
 4438poe    c2318694   7.252   5.645   1.906 -0.4389 -0.1588  0.1066
 4438poe     o218695   7.220   5.701   2.031 -0.1181  0.1122  0.0683
 4438poe    c3118696   7.330   5.745   2.107 -0.1778  0.5620 -0.1002
 4439poe    c3118697   5.744   3.730   6.392  0.2589  0.0256 -0.3492
 4439poe     o218698   5.816   3.655   6.295  0.2432 -0.1628 -0.2164
 4439poe    c2318699   5.868   3.742   6.197  0.0296 -0.2653 -0.4190
 4439poe    c2318700   5.971   3.676   6.103  0.1446 -0.1324 -0.3850
 4439poe     o218701   6.098   3.679   6.165  0.0355 -0.0893 -0.1653
 4439poe    c2318702   6.188   3.590   6.104 -0.0371  0.1504 -0.6234
 4439poe    c2318703   6.187   3.440   6.138 -0.4213  0.3493  0.2691
 4439poe     o218704   6.276   3.420   6.245 -0.5182 -0.4735  0.2024
 4439poe    c2318705   6.256   3.298   6.314 -0.0337 -0.6292  0.0738
 4439poe    c2318706   6.382   3.243   6.382  0.2330 -0.0148  0.0912
 4439poe     o218707   6.432   3.327   6.484 -0.2524  0.0594  0.2703
 4439poe    c3118708   6.534   3.262   6.555 -0.8336 -0.2819  0.8040
 4440poe    c3118709   6.684   3.139   2.233 -0.1711  0.0673  0.2034
 4440poe     o218710   6.626   3.241   2.311 -0.7054 -0.2173  0.1858
 4440poe    c2318711   6.528   3.192   2.399 -0.6777  0.2105  0.4600
 4440poe    c2318712   6.455   3.321   2.439 -0.4185  0.4322  0.2122
 4440poe     o218713   6.387   3.391   2.337  0.0862  0.5200 -0.0671
 4440poe    c2318714   6.255   3.343   2.324  0.1570  0.3522 -0.1818
 4440poe    c2318715   6.179   3.378   2.195  0.4990  0.2879 -0.4032
 4440poe     o218716   6.157   3.517   2.186 -0.5533  0.1474 -0.1662
 4440poe    c2318717   6.118   3.550   2.054  0.5650 -0.0250 -0.5502
 4440poe    c2318718   6.129   3.699   2.015  0.3308 -0.0041 -0.5347
 4440poe     o218719   6.251   3.759   2.052 -0.0588  0.1801  0.4815
 4440poe    c3118720   6.276   3.868   1.966 -0.9245 -0.4318 -0.5697
 4441poe    c3118721   7.433   1.737   3.736 -0.1279 -0.1962  1.4051
 4441poe     o218722   7.298   1.730   3.775 -0.4262 -0.2137  0.3958
 4441poe    c2318723   7.232   1.659   3.672 -0.0388 -0.5929  0.4061
 4441poe    c2318724   7.079   1.652   3.687 -0.1087  0.2011  0.1246
 4441poe     o218725   7.045   1.587   3.807  0.7310 -0.2236  0.1443
 4441poe    c2318726   6.905   1.571   3.820  0.6537 -0.1629 -0.5845
 4441poe    c2318727   6.837   1.674   3.912  0.0808 -0.4750 -0.6595
 4441poe     o218728   6.844   1.810   3.875 -0.4621 -0.3231 -0.2234
 4441poe    c2318729   6.838   1.903   3.980 -0.3126  0.0911 -0.5815
 4441poe    c2318730   6.861   2.049   3.936 -0.3090  0.2279 -0.1327
 4441poe     o218731   6.988   2.088   3.888 -0.2078  0.0520 -0.0048
 4441poe    c3118732   6.983   2.222   3.845 -0.5631  0.1765  0.4179
 4442poe    c3118733   4.856   3.541   6.593 -0.2606 -0.2101  0.6661
 4442poe     o218734   4.951   3.515   6.694  0.0372 -0.5975  0.2891
 4442poe    c2318735   4.993   3.643   6.734 -0.0384 -0.1722 -0.9480
 4442poe    c2318736   5.112   3.645   6.833 -0.6361  0.0523 -0.2235
 4442poe     o218737   5.102   3.567   6.950  0.6404 -0.0508 -0.1697
 4442poe    c2318738   5.215   3.558   7.034 -0.0551  0.4567  0.8370
 4442poe    c2318739   5.349   3.509   6.978 -0.4017 -0.1797  0.5538
 4442poe     o218740   5.329   3.373   6.948 -0.2331 -0.2421  0.7180
 4442poe    c2318741   5.447   3.297   6.933  0.3285  0.6840  0.3896
 4442poe    c2318742   5.506   3.253   7.068  0.5750  0.8333  0.3318
 4442poe     o218743   5.423   3.168   7.144  0.1053  0.5057 -0.5385
 4442poe    c3118744   5.386   3.212   7.273 -0.1899  0.5606 -0.6413
 4443poe    c3118745   4.479   0.129   7.160  0.6526 -0.3800  0.1699
 4443poe     o218746   4.514   0.010   7.094 -0.1264 -0.5872  0.1226
 4443poe    c2318747   4.612   0.024   6.993 -0.3015 -0.0308  0.0305
 4443poe    c2318748   4.754   0.014   7.050  0.1710 -0.2037 -1.1577
 4443poe     o218749   4.774  -0.096   7.136  0.3028  0.0630 -0.8465
 4443poe    c2318750   4.907  -0.116   7.179  0.1220 -0.0171 -0.3154
 4443poe    c2318751   4.915  -0.183   7.317 -0.1040  0.1025 -0.2445
 4443poe     o218752   4.895  -0.320   7.291 -0.5508  0.0938  0.1312
 4443poe    c2318753   4.939  -0.395   7.403  0.9569  0.2814 -0.3208
 4443poe    c2318754   4.969  -0.545   7.386  0.3081  0.0821  0.2573
 4443poe     o218755   4.847  -0.615   7.372  0.4287  0.0456 -0.6904
 4443poe    c3118756   4.871  -0.752   7.350 -0.0779 -0.0997 -0.3545
 4444poe    c3118757   7.429   1.213   3.763  0.1063 -0.3263  0.5468
 4444poe     o218758   7.505   1.261   3.872  0.4279  0.2287  0.0819
 4444poe    c2318759   7.583   1.370   3.828 -0.1344  0.7057  0.2413
 4444poe    c2318760   7.695   1.395   3.931  0.5980 -0.1497 -0.3316
 4444poe     o218761   7.656   1.458   4.050 -0.1059 -0.7866 -0.2230
 4444poe    c2318762   7.764   1.456   4.141 -0.4368 -0.0578  0.1983
 4444poe    c2318763   7.737   1.563   4.249 -0.0883  0.0528  0.1786
 4444poe     o218764   7.724   1.690   4.190 -0.0493 -0.0987 -0.1601
 4444poe    c2318765   7.691   1.789   4.284  0.9545 -0.0619  0.1613
 4444poe    c2318766   7.693   1.927   4.214 -0.4226 -0.3423 -0.4591
 4444poe     o218767   7.576   1.977   4.154 -0.4428  0.3000  0.1142
 4444poe    c3118768   7.576   2.111   4.110 -0.2628  0.4303  0.5047
 4445poe    c3118769   4.660   0.545   1.449  0.4548  0.1922  0.6060
 4445poe     o218770   4.728   0.646   1.520  0.2891  0.2829  0.6358
 4445poe    c2318771   4.650   0.763   1.528  0.0266  0.1671 -0.1180
 4445poe    c2318772   4.727   0.874   1.603  0.0333 -0.0451  0.1910
 4445poe     o218773   4.863   0.867   1.566  0.0136  0.3628  0.0410
 4445poe    c2318774   4.904   0.990   1.510 -0.0332  0.1273 -0.5231
 4445poe    c2318775   4.969   1.077   1.619 -0.7235 -0.3595  0.2865
 4445poe     o218776   5.096   1.018   1.639 -0.4118  0.2762  0.2121
 4445poe    c2318777   5.159   1.087   1.744  0.0026  0.2523 -0.0211
 4445poe    c2318778   5.284   1.008   1.788  0.3399  0.7605 -0.0510
 4445poe     o218779   5.269   0.881   1.850  0.1893  0.6196 -0.3745
 4445poe    c3118780   5.395   0.820   1.863  0.0347  0.4018  0.0950
 4446poe    c3118781   3.208   0.080   7.127 -0.1117  0.4991  0.1263
 4446poe     o218782   3.310  -0.000   7.071 -0.6751 -0.2010  0.0833
 4446poe    c2318783   3.287  -0.139   7.073 -0.3123 -0.2680 -0.2065
 4446poe    c2318784   3.178  -0.192   6.979 -0.2548 -0.5635 -0.1073
 4446poe     o218785   3.195  -0.173   6.841 -0.2807  0.4299  0.0181
 4446poe    c2318786   3.082  -0.225   6.774 -0.1639  0.6649 -0.3668
 4446poe    c2318787   3.103  -0.361   6.707  0.2078  0.4674  0.1415
 4446poe     o218788   3.200  -0.368   6.604  0.0202  0.0275 -0.0074
 4446poe    c2318789   3.208  -0.505   6.570 -0.1715 -0.0721  0.3373
 4446poe    c2318790   3.287  -0.537   6.442  0.0842  0.4609  0.3588
 4446poe     o218791   3.422  -0.503   6.463  0.2480 -0.0014  0.0603
 4446poe    c3118792   3.506  -0.549   6.359 -0.5515 -0.4522 -0.3979
 4447poe    c3118793   1.163   0.450   4.371 -0.6145  0.0791  0.2452
 4447poe     o218794   1.132   0.357   4.270 -0.3764  0.3735 -0.1040
 4447poe    c2318795   1.145   0.412   4.141 -0.8735  0.4140 -0.1412
 4447poe    c2318796   1.134   0.314   4.023  0.2052 -0.0749  0.1472
 4447poe     o218797   1.234   0.219   3.995 -0.3377 -0.6947  0.2793
 4447poe    c2318798   1.229   0.170   3.863  0.4557  0.6175 -0.2572
 4447poe    c2318799   1.320   0.049   3.836 -0.2940 -0.0308  0.0919
 4447poe     o218800   1.458   0.067   3.860 -0.2792 -0.5810  0.4303
 4447poe    c2318801   1.522  -0.051   3.814  0.4478 -0.0443  0.0534
 4447poe    c2318802   1.675  -0.052   3.828  0.4203 -0.2311  0.3595
 4447poe     o218803   1.715  -0.101   3.954  0.3532 -0.1468  0.4141
 4447poe    c3118804   1.809  -0.017   4.016  0.1174  0.4339 -0.0017
 4448poe    c3118805   0.334   2.942   0.144 -0.0176 -1.1184  0.3688
 4448poe     o218806   0.475   2.945   0.144 -0.0300 -0.0246  0.2736
 4448poe    c2318807   0.528   3.020   0.251  0.1349  0.0167  0.1626
 4448poe    c2318808   0.681   3.015   0.233  0.1500  0.1353  0.2568
 4448poe     o218809   0.732   3.106   0.139  0.1807  0.4561  0.5797
 4448poe    c2318810   0.872   3.092   0.141  0.1563  0.1667  0.2937
 4448poe    c2318811   0.949   3.137   0.015  0.9957 -0.4241  0.5873
 4448poe     o218812   0.950   3.277   0.006  0.0541 -0.4367  0.1780
 4448poe    c2318813   1.029   3.355   0.094  0.4685  0.1835 -0.7282
 4448poe    c2318814   1.180   3.321   0.091  0.2732 -0.7740 -0.1174
 4448poe     o218815   1.228   3.358  -0.036 -0.1596  0.4439  0.0609
 4448poe    c3118816   1.369   3.359  -0.040 -0.1670  0.3118 -0.2646
 4449poe    c3118817   7.523   1.807   5.172 -0.2388  0.0020  0.0773
 4449poe     o218818   7.589   1.913   5.238 -0.2534  0.1104 -0.0830
 4449poe    c2318819   7.635   2.005   5.142 -0.4165  0.1620 -0.1135
 4449poe    c2318820   7.731   2.116   5.190  0.0392 -0.3377  0.1371
 4449poe     o218821   7.852   2.046   5.209 -0.2876 -0.8046  0.5241
 4449poe    c2318822   7.965   2.131   5.208 -0.2132 -0.9055 -0.4171
 4449poe    c2318823   8.023   2.156   5.068  0.4833 -0.0374  0.0175
 4449poe     o218824   8.115   2.056   5.030  0.7897  0.2420  0.0144
 4449poe    c2318825   8.134   2.081   4.893 -0.2782 -0.0075 -0.1849
 4449poe    c2318826   8.252   2.165   4.841 -0.0515 -0.2817 -0.1188
 4449poe     o218827   8.383   2.121   4.812 -0.0410 -0.0451 -0.4355
 4449poe    c3118828   8.449   2.229   4.750 -0.2900  0.2410 -0.2100
 4450poe    c3118829   5.084   2.700   7.052  0.2666  0.9527 -0.1531
 4450poe     o218830   5.074   2.824   7.118  0.3319  0.5710  0.5919
 4450poe    c2318831   4.951   2.893   7.119 -0.3681 -0.6195 -0.2192
 4450poe    c2318832   4.958   2.984   7.243  0.6177 -1.1963  0.1627
 4450poe     o218833   4.962   2.914   7.365  0.3353 -0.7229  0.4497
 4450poe    c2318834   4.934   2.993   7.478 -0.4427  0.1058 -0.3131
 4450poe    c2318835   4.933   2.918   7.613  0.3488 -0.0725 -0.4025
 4450poe     o218836   5.058   2.854   7.603  0.1013 -0.6025 -0.1826
 4450poe    c2318837   5.113   2.823   7.729  0.1804 -0.2053 -0.1178
 4450poe    c2318838   5.245   2.748   7.706  0.2386 -0.3416  0.6368
 4450poe     o218839   5.230   2.620   7.649 -0.9039  0.1247 -0.1467
 4450poe    c3118840   5.217   2.529   7.756  0.0386  0.1314 -0.0227
 4451poe    c3118841   2.628   7.104   5.508  0.5509  0.3402  0.4052
 4451poe     o218842   2.625   6.987   5.587  0.8278 -0.1781 -0.3364
 4451poe    c2318843   2.496   6.936   5.612  0.8053 -0.1073 -0.3082
 4451poe    c2318844   2.508   6.843   5.734  0.4363 -0.4940 -0.5625
 4451poe     o218845   2.618   6.757   5.715  0.5408 -0.4966  0.0280
 4451poe    c2318846   2.648   6.660   5.813  0.2183 -0.0486  0.5737
 4451poe    c2318847   2.795   6.614   5.807  0.2266 -0.0075  0.4683
 4451poe     o218848   2.816   6.557   5.680  0.0564 -0.2084  0.5298
 4451poe    c2318849   2.946   6.504   5.663  0.1419  0.2328 -0.2344
 4451poe    c2318850   2.964   6.453   5.518  0.5098 -0.1745 -0.0475
 4451poe     o218851   2.923   6.562   5.438 -0.3509 -0.5316 -0.1027
 4451poe    c3118852   3.014   6.566   5.330  0.2183 -0.5787  0.3672
 4452poe    c3118853   2.307   1.457   2.504  0.5158 -0.5576 -0.0485
 4452poe     o218854   2.224   1.420   2.397  0.3291 -0.5678  0.0994
 4452poe    c2318855   2.087   1.436   2.429  0.3414 -0.6756  0.2040
 4452poe    c2318856   1.977   1.402   2.327 -0.0276 -0.0185  0.3780
 4452poe     o218857   1.951   1.267   2.298 -0.3429  0.0475  0.3491
 4452poe    c2318858   1.833   1.252   2.223 -0.0364  0.0018 -0.1356
 4452poe    c2318859   1.778   1.111   2.192 -0.5663  0.1038  0.3077
 4452poe     o218860   1.849   1.040   2.093 -0.2703 -0.0754  0.6458
 4452poe    c2318861   1.795   0.911   2.073 -0.3490  0.1060 -0.3386
 4452poe    c2318862   1.881   0.812   1.993 -0.4259 -0.2954  0.0709
 4452poe     o218863   1.986   0.760   2.072  0.0318 -0.1469 -0.4353
 4452poe    c3118864   2.060   0.681   1.982  0.5315 -0.4635  0.2457
 4453poe    c3118865   7.085   6.049   5.749  0.5079  1.0081 -0.1883
 4453poe     o218866   6.987   5.966   5.689  0.7752  0.8780 -0.4498
 4453poe    c2318867   7.061   5.858   5.636  0.1948  0.4571 -0.4103
 4453poe    c2318868   6.978   5.746   5.573  0.0758  0.3242 -0.0207
 4453poe     o218869   6.886   5.688   5.663 -0.4571  0.5349 -0.4268
 4453poe    c2318870   6.810   5.606   5.577  0.0724  0.0428 -0.4293
 4453poe    c2318871   6.678   5.572   5.649 -0.0564  0.6347 -0.3806
 4453poe     o218872   6.594   5.683   5.670 -0.3018  0.3662  0.0897
 4453poe    c2318873   6.500   5.666   5.774  0.1676 -0.1139  0.4404
 4453poe    c2318874   6.416   5.794   5.788 -0.3459 -0.4455  0.4025
 4453poe     o218875   6.481   5.888   5.872 -0.1445 -0.1573 -0.0730
 4453poe    c3118876   6.384   5.986   5.902 -0.1913 -0.3350  0.3633
 4454poe    c3118877   5.376   5.973   2.279  0.5325  0.1087 -0.1162
 4454poe     o218878   5.329   5.903   2.166 -0.7825  0.3011  0.3016
 4454poe    c2318879   5.188   5.897   2.173 -0.8117  0.4874 -0.0979
 4454poe    c2318880   5.117   5.838   2.050  0.1809 -0.6624 -0.1380
 4454poe     o218881   5.151   5.905   1.931  0.1550  0.1690  0.3161
 4454poe    c2318882   5.091   5.858   1.813 -0.2510  0.1699  0.5194
 4454poe    c2318883   5.138   5.935   1.687  0.0948 -0.3632  0.3193
 4454poe     o218884   5.277   5.932   1.665  0.1715  0.6644  0.6212
 4454poe    c2318885   5.303   6.030   1.566  0.0528  0.1098  0.0319
 4454poe    c2318886   5.453   6.015   1.533  0.0599  0.4771 -0.1016
 4454poe     o218887   5.533   6.074   1.634 -0.3774  0.6930  0.1236
 4454poe    c3118888   5.670   6.081   1.600 -0.4426  0.1652 -0.2692
 4455poe    c3118889   7.383   4.005   0.745 -0.5704  0.3446 -0.2261
 4455poe     o218890   7.340   3.871   0.737  0.3704 -0.0144  0.5062
 4455poe    c2318891   7.429   3.790   0.663  0.5843  0.5607  0.1230
 4455poe    c2318892   7.382   3.786   0.517  0.0167 -0.8394  0.3301
 4455poe     o218893   7.243   3.760   0.513 -0.5291  1.7687  0.3899
 4455poe    c2318894   7.204   3.777   0.379 -0.0177 -0.4063 -0.0774
 4455poe    c2318895   7.055   3.748   0.350 -0.0783 -0.2155  0.0418
 4455poe     o218896   7.015   3.619   0.391  0.2332 -0.0893  0.7494
 4455poe    c2318897   6.899   3.629   0.470 -0.1998 -0.2310  0.1371
 4455poe    c2318898   6.877   3.500   0.552  0.0783 -0.2235  0.2238
 4455poe     o218899   6.946   3.506   0.675 -0.0203 -0.2216  0.2789
 4455poe    c3118900   6.917   3.385   0.741 -0.0244 -0.4665 -0.1721
 4456poe    c3118901   5.295   0.381   2.148  0.1558  0.2456  0.3598
 4456poe     o218902   5.373   0.266   2.169 -0.1765 -0.0613 -0.0829
 4456poe    c2318903   5.341   0.156   2.087 -0.2556  0.3571 -0.6219
 4456poe    c2318904   5.444   0.041   2.084 -0.4652  0.1578 -0.2645
 4456poe     o218905   5.472  -0.005   2.214 -0.4794 -0.5387 -0.5067
 4456poe    c2318906   5.606  -0.051   2.209 -0.0173  0.7092 -0.0430
 4456poe    c2318907   5.660  -0.094   2.347 -0.7851 -0.5074 -0.1016
 4456poe     o218908   5.658   0.009   2.443  0.2134 -0.4654 -0.1160
 4456poe    c2318909   5.679  -0.025   2.578  0.1904 -0.5477 -0.1336
 4456poe    c2318910   5.709   0.106   2.654 -0.0650 -0.2916 -0.4752
 4456poe     o218911   5.603   0.191   2.617  0.0209 -0.0881 -0.2516
 4456poe    c3118912   5.595   0.294   2.714 -0.3211 -0.0776 -0.2902
 4457poe    c3118913   5.265   6.893   0.202  0.2080 -0.4897 -0.4900
 4457poe     o218914   5.160   6.813   0.253  0.0272  0.0276 -0.0283
 4457poe    c2318915   5.155   6.683   0.197 -0.1314  0.0486 -0.0639
 4457poe    c2318916   5.049   6.614   0.284 -0.2704  0.0844 -0.2059
 4457poe     o218917   5.090   6.647   0.414  0.0606 -0.8768 -0.0569
 4457poe    c2318918   4.983   6.595   0.491 -0.1472 -0.3103  0.0414
 4457poe    c2318919   4.991   6.618   0.643  0.4120 -0.1929 -0.0030
 4457poe     o218920   5.011   6.756   0.665  0.1444 -0.1984  0.2813
 4457poe    c2318921   5.035   6.784   0.801 -0.6422 -0.1650  0.4189
 4457poe    c2318922   5.007   6.931   0.838  0.0810  0.1951 -0.4341
 4457poe     o218923   5.083   7.004   0.744 -0.1683  0.4624 -0.4289
 4457poe    c3118924   5.107   7.132   0.797  0.3686  0.0588  0.3308
 4458poe    c3118925   0.203   7.150   6.563  0.4320  0.3678  0.1780
 4458poe     o218926   0.326   7.083   6.549  0.8598  1.1566  0.1153
 4458poe    c2318927   0.409   7.107   6.661  0.5341 -0.1229  0.6492
 4458poe    c2318928   0.545   7.037   6.651  0.3190 -0.4226 -0.2778
 4458poe     o218929   0.609   7.073   6.530  0.3719  0.3439 -0.0295
 4458poe    c2318930   0.714   6.985   6.496  0.2098  0.0879  0.1302
 4458poe    c2318931   0.768   7.026   6.357  0.5340 -0.6212  0.0424
 4458poe     o218932   0.667   7.010   6.260  0.1110  0.0390  0.3674
 4458poe    c2318933   0.708   7.071   6.140 -0.2415 -0.3085  0.0640
 4458poe    c2318934   0.648   6.991   6.024 -0.5317  0.1236 -0.0864
 4458poe     o218935   0.519   6.989   6.082 -0.3903  0.3285  0.2355
 4458poe    c3118936   0.420   6.932   6.000  0.2504  0.1963 -0.4589
 4459poe    c3118937   5.880   2.062   4.942  0.0666 -0.1364  0.3573
 4459poe     o218938   5.768   2.061   4.856  0.3005 -0.0546  0.0484
 4459poe    c2318939   5.755   1.948   4.773  0.2175 -0.0339  0.0334
 4459poe    c2318940   5.640   1.960   4.671  0.2982 -0.2707 -0.0870
 4459poe     o218941   5.676   2.070   4.591  0.0040  0.1649  0.3746
 4459poe    c2318942   5.561   2.143   4.554  0.1850  0.2911  0.0524
 4459poe    c2318943   5.592   2.285   4.505  0.2224  0.1150 -0.4432
 4459poe     o218944   5.646   2.363   4.610 -0.2162 -0.2201  0.0336
 4459poe    c2318945   5.659   2.502   4.589  0.0319 -0.1804  0.4356
 4459poe    c2318946   5.800   2.555   4.618  0.1298 -0.1251 -0.1341
 4459poe     o218947   5.850   2.533   4.748 -0.2361 -0.1780 -0.0019
 4459poe    c3118948   5.897   2.401   4.767  0.3362  0.0566  0.2370
 4460poe    c3118949   3.436   2.914   1.285  0.4456 -0.2803  0.3546
 4460poe     o218950   3.515   2.803   1.321 -0.0633 -0.7128  0.1612
 4460poe    c2318951   3.616   2.847   1.410  0.0657 -0.1339 -0.2673
 4460poe    c2318952   3.720   2.734   1.422  0.1719 -0.0377 -0.2857
 4460poe     o218953   3.680   2.607   1.467  0.0970 -0.1433 -0.6446
 4460poe    c2318954   3.771   2.518   1.408 -0.1150 -0.8064  0.0193
 4460poe    c2318955   3.842   2.416   1.500  0.0089 -0.4961  0.2685
 4460poe     o218956   3.778   2.297   1.540  0.0280 -0.6486 -0.1425
 4460poe    c2318957   3.864   2.216   1.616  0.2657 -0.4700 -0.2211
 4460poe    c2318958   3.807   2.081   1.663 -0.4057 -0.1169  0.0019
 4460poe     o218959   3.791   1.991   1.556 -0.0429 -0.0382 -0.1214
 4460poe    c3118960   3.750   1.860   1.590  0.0734  0.2371  1.0964
 4461poe    c3118961   5.957   2.029   7.158  0.3271  0.1200 -0.3282
 4461poe     o218962   6.020   1.962   7.051 -0.2773 -0.3058 -0.4227
 4461poe    c2318963   6.078   1.843   7.099  0.5295  0.4682  0.5727
 4461poe    c2318964   6.128   1.739   6.996 -0.2708  0.5868  0.0563
 4461poe     o218965   6.017   1.693   6.923  0.0887  0.3763 -0.3557
 4461poe    c2318966   6.056   1.581   6.847 -0.2223 -0.2986  0.4716
 4461poe    c2318967   5.944   1.475   6.851 -0.1078 -0.4590 -0.3838
 4461poe     o218968   5.832   1.536   6.790 -0.1263 -0.1028 -0.0035
 4461poe    c2318969   5.716   1.454   6.790 -0.2826  0.1138 -0.5910
 4461poe    c2318970   5.596   1.529   6.729 -0.6410 -0.0261 -0.0573
 4461poe     o218971   5.594   1.655   6.792  0.5892  0.0861 -0.2220
 4461poe    c3118972   5.466   1.704   6.760  0.1013 -0.9546  0.1043
 4462poe    c3118973   4.190   3.179   6.565  0.2492  0.0776 -0.3682
 4462poe     o218974   4.139   3.166   6.434 -0.2201  0.0575 -0.1853
 4462poe    c2318975   4.256   3.173   6.357  0.1594  0.1361  0.3874
 4462poe    c2318976   4.233   3.137   6.208 -0.2344 -0.1513  0.5146
 4462poe     o218977   4.151   3.237   6.152  0.2561 -0.2162 -0.3312
 4462poe    c2318978   4.151   3.224   6.012  0.1778  0.0058 -0.3524
 4462poe    c2318979   4.061   3.335   5.956  0.1600  0.4291  0.5056
 4462poe     o218980   3.928   3.329   6.002  0.2685 -0.1474  0.7556
 4462poe    c2318981   3.847   3.242   5.927  0.6877  0.5138 -0.5009
 4462poe    c2318982   3.740   3.310   5.840  0.2123  0.4311  0.0107
 4462poe     o218983   3.673   3.216   5.759 -0.0495  0.8446 -0.2549
 4462poe    c3118984   3.549   3.266   5.712 -0.2022  0.6327 -0.0800
 4463poe    c3118985   1.159   2.270   0.118  0.6043 -0.3059 -0.4266
 4463poe     o218986   1.289   2.217   0.109  0.6496 -0.3060  0.1658
 4463poe    c2318987   1.372   2.272   0.209  0.2707  0.0932  0.2643
 4463poe    c2318988   1.524   2.247   0.206  0.3134  0.3988 -0.2523
 4463poe     o218989   1.582   2.119   0.219 -0.6445 -0.0417 -0.2842
 4463poe    c2318990   1.722   2.126   0.208 -0.5848 -0.1652  0.3640
 4463poe    c2318991   1.804   2.008   0.262 -0.1004  0.0568  0.1170
 4463poe     o218992   1.754   1.986   0.391  0.7679 -0.0298  0.4485
 4463poe    c2318993   1.809   1.873   0.455  0.1783 -0.7095 -0.2236
 4463poe    c2318994   1.710   1.829   0.564 -0.1942  0.1632 -0.2023
 4463poe     o218995   1.588   1.775   0.518 -0.2895  0.4669 -0.3084
 4463poe    c3118996   1.490   1.768   0.619  0.1917  0.5165  0.1656
 4464poe    c3118997   7.148   4.710   1.628 -0.3487 -0.1987  0.3522
 4464poe     o218998   7.121   4.747   1.762 -0.6477 -0.8157  0.4681
 4464poe    c2318999   7.238   4.773   1.837 -0.5868 -0.1518  0.1443
 4464poe    c2319000   7.201   4.809   1.982 -0.4240 -0.0557  0.1620
 4464poe     o219001   7.153   4.695   2.049 -0.1121 -0.2719  0.0186
 4464poe    c2319002   7.033   4.712   2.122 -0.1762 -0.0735 -0.1327
 4464poe    c2319003   7.028   4.627   2.250  0.5213 -0.0530 -0.0862
 4464poe     o219004   7.031   4.493   2.208 -0.2944 -0.0364 -0.2203
 4464poe    c2319005   6.974   4.412   2.308  0.2317  0.4322  0.4736
 4464poe    c2319006   6.963   4.280   2.230  0.2689  0.2254  0.8170
 4464poe     o219007   6.883   4.286   2.114  0.3415  0.0320  0.7558
 4464poe    c3119008   6.853   4.159   2.062  0.0734  0.2050  0.4890
 4465poe    c3119009   1.475   4.915   4.619 -0.4613  0.4000  0.3583
 4465poe     o219010   1.558   5.002   4.545  0.1368 -0.7549 -0.3513
 4465poe    c2319011   1.490   5.048   4.431  0.1497 -0.0887 -0.0928
 4465poe    c2319012   1.571   5.159   4.360  0.1643  0.1737  0.3313
 4465poe     o219013   1.567   5.286   4.421 -0.0714  0.0095  0.6614
 4465poe    c2319014   1.461   5.364   4.372  0.1717 -0.2032 -0.2119
 4465poe    c2319015   1.469   5.511   4.416 -0.3942  0.0014 -0.7800
 4465poe     o219016   1.578   5.585   4.364 -0.2131  0.5791  0.3848
 4465poe    c2319017   1.569   5.630   4.231  0.0218 -1.0905 -0.2209
 4465poe    c2319018   1.700   5.701   4.191 -0.4301 -0.1247 -0.0052
 4465poe     o219019   1.711   5.832   4.243  1.0824 -0.3448  0.2675
 4465poe    c3119020   1.796   5.922   4.177  0.6080  0.3851  0.6418
 4466poe    c3119021   4.159   4.885   0.183  0.4879  0.3366  0.1172
 4466poe     o219022   4.213   4.756   0.169 -0.1575  0.0860 -0.1145
 4466poe    c2319023   4.238   4.752   0.031  1.1010  0.3317  0.0983
 4466poe    c2319024   4.303   4.617  -0.006 -0.3987 -0.4997  0.4537
 4466poe     o219025   4.421   4.581   0.061  0.1873  0.7516  0.1161
 4466poe    c2319026   4.552   4.624   0.030  0.2127  0.4189 -0.2330
 4466poe    c2319027   4.666   4.539   0.087  0.5091  0.3991 -0.8418
 4466poe     o219028   4.684   4.548   0.227  0.6738 -0.4397 -0.8047
 4466poe    c2319029   4.777   4.461   0.289 -0.1553 -0.6879  0.1046
 4466poe    c2319030   4.754   4.474   0.441 -0.5007  0.3062 -0.0202
 4466poe     o219031   4.625   4.461   0.497 -0.8278 -0.0473 -0.8387
 4466poe    c3119032   4.640   4.436   0.635  0.1329  0.5305 -0.8312
 4467poe    c3119033   5.803   7.222   2.967 -0.0267  0.1997  0.5788
 4467poe     o219034   5.724   7.128   3.036  0.3119 -0.1861  0.4468
 4467poe    c2319035   5.746   6.998   2.986  0.2573 -0.0375  0.0333
 4467poe    c2319036   5.641   6.962   2.879  0.2337  0.3988 -0.0934
 4467poe     o219037   5.509   6.947   2.927  0.3137 -0.8846 -0.2334
 4467poe    c2319038   5.419   6.900   2.830 -0.2581 -0.2481 -0.0177
 4467poe    c2319039   5.287   6.856   2.896 -0.1549  0.4921  0.6854
 4467poe     o219040   5.312   6.734   2.962 -0.9393 -0.1556 -0.1831
 4467poe    c2319041   5.224   6.730   3.072 -0.2658  0.3225  0.3856
 4467poe    c2319042   5.271   6.655   3.198  0.5015 -0.6973 -0.4962
 4467poe     o219043   5.408   6.675   3.224  0.2786 -0.1163  0.2684
 4467poe    c3119044   5.437   6.624   3.352 -0.2506 -0.6883  0.1633
 4468poe    c3119045   6.867   0.944   7.428 -0.3036 -0.5497 -0.8149
 4468poe     o219046   6.842   0.815   7.478 -0.2564 -0.2817 -0.0886
 4468poe    c2319047   6.882   0.808   7.613  0.4199 -0.1172 -0.2779
 4468poe    c2319048   6.889   0.659   7.653  0.2897 -0.0318  0.0670
 4468poe     o219049   6.929   0.587   7.539  0.0326 -0.4196  0.2222
 4468poe    c2319050   6.969   0.456   7.573  0.3571 -0.3574  0.0879
 4468poe    c2319051   7.034   0.398   7.446  0.2657 -0.1686 -0.0462
 4468poe     o219052   6.932   0.362   7.356  0.2122 -0.2131  0.0310
 4468poe    c2319053   6.988   0.313   7.236 -0.2701  0.3895 -0.4532
 4468poe    c2319054   6.890   0.333   7.119 -0.1961  0.3230 -0.5277
 4468poe     o219055   6.883   0.469   7.082 -0.1596  0.4985  0.0845
 4468poe    c3119056   6.796   0.497   6.974 -0.2911  0.5560  0.2052
 4469poe    c3119057   7.550   2.321   2.802 -1.2166 -0.0471 -0.2504
 4469poe     o219058   7.518   2.442   2.865 -0.0204  0.0948  0.1080
 4469poe    c2319059   7.479   2.518   2.753  0.1368  0.3978  0.2568
 4469poe    c2319060   7.395   2.640   2.797  0.0302  0.4522 -0.0954
 4469poe     o219061   7.483   2.719   2.873 -0.2626  0.2438  0.4596
 4469poe    c2319062   7.426   2.820   2.954 -0.4555  0.4128  0.1137
 4469poe    c2319063   7.527   2.924   3.007 -0.1064  0.0771  0.1157
 4469poe     o219064   7.567   2.891   3.138 -0.3634  0.1413  0.2109
 4469poe    c2319065   7.690   2.956   3.154 -0.3143  0.1391 -0.1422
 4469poe    c2319066   7.748   2.909   3.289 -0.2805 -0.3965 -0.3446
 4469poe     o219067   7.785   2.774   3.311 -0.6952 -0.4251  0.1915
 4469poe    c3119068   7.909   2.734   3.258 -0.8097  0.2198 -0.5791
 4470poe    c3119069   1.237   2.498   2.606  0.0404 -0.2719  0.7396
 4470poe     o219070   1.225   2.358   2.613  0.2967 -0.3680 -0.4265
 4470poe    c2319071   1.326   2.301   2.534  0.8411  0.1199 -0.0883
 4470poe    c2319072   1.354   2.152   2.563  0.3991 -0.1139 -0.8302
 4470poe     o219073   1.264   2.064   2.500 -0.4440  0.1806 -0.0510
 4470poe    c2319074   1.271   1.936   2.560  0.2246 -0.0285 -0.5734
 4470poe    c2319075   1.162   1.842   2.507  0.4220 -0.6532  0.1270
 4470poe     o219076   1.033   1.862   2.562  0.3962  0.0310 -0.1749
 4470poe    c2319077   0.997   1.747   2.635 -0.2174  0.4806  0.2327
 4470poe    c2319078   0.848   1.749   2.675 -0.2991  0.1251 -0.0498
 4470poe     o219079   0.801   1.846   2.766  0.6306  0.1262  0.4415
 4470poe    c3119080   0.766   1.784   2.887  0.2205  0.5862  0.5637
 4471poe    c3119081   4.550   1.345   0.331  0.3698  0.4303 -0.4265
 4471poe     o219082   4.556   1.379   0.194 -0.3308 -0.0239 -0.5746
 4471poe    c2319083   4.483   1.291   0.111 -0.0498 -0.6590 -0.1605
 4471poe    c2319084   4.549   1.298  -0.027  0.1907 -0.3725 -0.0314
 4471poe     o219085   4.680   1.247  -0.016  0.2722 -0.1743 -0.0700
 4471poe    c2319086   4.761   1.277  -0.127  0.0319 -0.1673 -0.2428
 4471poe    c2319087   4.904   1.295  -0.074 -0.1271  0.2454  0.0488
 4471poe     o219088   4.910   1.411   0.005 -0.1347  0.4218 -0.2084
 4471poe    c2319089   5.028   1.434   0.080  0.1194  0.1040 -0.5042
 4471poe    c2319090   5.007   1.520   0.207  0.0946 -0.0986 -0.3704
 4471poe     o219091   4.991   1.654   0.167  0.5766  0.0483 -0.0704
 4471poe    c3119092   4.976   1.745   0.274 -0.6698 -0.3587  0.1133
 4472poe    c3119093   1.275   5.491   5.935  0.3515  0.3168 -0.2370
 4472poe     o219094   1.148   5.553   5.932  0.2400  0.1184  0.4213
 4472poe    c2319095   1.147   5.684   5.882  0.3649  0.1405  0.4746
 4472poe    c2319096   1.000   5.729   5.879  0.4438  0.3802  0.1016
 4472poe     o219097   0.942   5.726   6.008  0.0223  0.7744 -0.0713
 4472poe    c2319098   0.855   5.836   6.007 -0.2262  0.5773 -0.2262
 4472poe    c2319099   0.793   5.857   6.146  1.1055  0.0514  0.4584
 4472poe     o219100   0.767   5.727   6.195  0.7112 -0.0692 -0.0731
 4472poe    c2319101   0.639   5.670   6.175  0.5225  0.1868  0.3933
 4472poe    c2319102   0.641   5.539   6.257 -0.3867 -0.2340 -0.2412
 4472poe     o219103   0.749   5.453   6.231 -0.2149 -0.0035 -0.3019
 4472poe    c3119104   0.737   5.341   6.316  0.3145  0.2611  0.1233
 4473poe    c3119105   6.376   6.136   7.142 -0.2777  0.4329 -0.5021
 4473poe     o219106   6.408   5.999   7.136  0.1717  0.5485 -0.8505
 4473poe    c2319107   6.542   5.992   7.179  0.0179  0.2977 -0.4018
 4473poe    c2319108   6.605   5.851   7.177  0.5665  0.5373 -0.1964
 4473poe     o219109   6.620   5.812   7.043 -0.3724  0.1777 -0.2046
 4473poe    c2319110   6.745   5.850   6.991 -0.1397 -0.2881  0.0133
 4473poe    c2319111   6.756   5.802   6.845 -0.4813 -0.0095 -0.1042
 4473poe     o219112   6.652   5.853   6.764 -0.1207  0.0296 -0.5421
 4473poe    c2319113   6.693   5.836   6.630  0.1275 -0.5671 -0.3939
 4473poe    c2319114   6.564   5.844   6.546 -0.1406  0.5603  0.1137
 4473poe     o219115   6.460   5.769   6.604 -0.2904  0.4971 -0.2336
 4473poe    c3119116   6.335   5.767   6.539  0.0239  0.3550 -0.8371
 4474poe    c3119117   3.357   6.066   2.604  0.0523 -0.5909  0.0821
 4474poe     o219118   3.243   6.008   2.663 -0.5809  0.0923 -0.4552
 4474poe    c2319119   3.133   6.096   2.661 -0.2434  0.5182 -0.2999
 4474poe    c2319120   2.999   6.020   2.668  0.1571 -0.2388 -0.7234
 4474poe     o219121   2.981   5.954   2.792 -0.3426  0.9461 -0.1463
 4474poe    c2319122   2.875   5.862   2.781  0.5811 -0.2062  0.3365
 4474poe    c2319123   2.842   5.815   2.924 -0.6340  0.0744  0.1630
 4474poe     o219124   2.783   5.902   3.017  0.6401  0.0517  1.0167
 4474poe    c2319125   2.644   5.927   3.020  0.6183  0.0082  0.4183
 4474poe    c2319126   2.568   5.850   3.129 -0.5892  0.3557 -0.1658
 4474poe     o219127   2.587   5.910   3.255  0.1419 -0.2942  0.0397
 4474poe    c3119128   2.537   5.831   3.360  0.1250  0.0574  0.2958
 4475poe    c3119129   2.540   4.484   4.485 -0.1862 -0.0736  0.2741
 4475poe     o219130   2.557   4.421   4.360  0.2500  0.3640  0.1067
 4475poe    c2319131   2.678   4.351   4.342  0.0550 -0.0118  0.2206
 4475poe    c2319132   2.669   4.305   4.195 -0.2274  0.6313  0.0319
 4475poe     o219133   2.568   4.209   4.172  0.5580 -0.3282  0.5418
 4475poe    c2319134   2.599   4.076   4.209  0.6598 -0.2636  0.6914
 4475poe    c2319135   2.513   3.977   4.128  0.6643 -0.2264  0.6407
 4475poe     o219136   2.380   4.016   4.150  0.3896 -0.5996 -0.3357
 4475poe    c2319137   2.284   3.955   4.066 -0.4460  0.1959  0.0141
 4475poe    c2319138   2.147   3.989   4.126 -0.4371 -0.2954  0.3175
 4475poe     o219139   2.159   4.126   4.157  0.0896 -0.1809 -0.3797
 4475poe    c3119140   2.029   4.175   4.180  0.2120 -0.0243 -0.0086
 4476poe    c3119141   3.246   6.322   5.003 -0.2078 -0.1977  0.5952
 4476poe     o219142   3.214   6.446   4.945  0.0766  0.0697  1.0048
 4476poe    c2319143   3.080   6.472   4.911  0.3069  0.2872  0.2580
 4476poe    c2319144   3.075   6.613   4.849 -1.0272 -0.1392 -0.6754
 4476poe     o219145   3.167   6.632   4.744 -0.5168 -0.1323 -0.2348
 4476poe    c2319146   3.159   6.765   4.697  0.4777  0.0397  0.0691
 4476poe    c2319147   3.292   6.787   4.622  0.0568  0.5882 -0.5264
 4476poe     o219148   3.297   6.690   4.520  0.3827  0.2847 -0.2266
 4476poe    c2319149   3.404   6.718   4.432  0.1245 -0.3012 -0.7412
 4476poe    c2319150   3.387   6.617   4.317 -0.3107 -0.3725 -0.6179
 4476poe     o219151   3.360   6.498   4.387 -0.9648 -0.2554 -0.6698
 4476poe    c3119152   3.331   6.403   4.286 -0.0708 -0.7031 -0.5183
 4477poe    c3119153   1.369   1.556   3.601 -0.1971 -0.4329  0.1645
 4477poe     o219154   1.253   1.489   3.556 -0.2896 -0.3125  0.2218
 4477poe    c2319155   1.161   1.592   3.527  0.1474 -0.1577 -0.6333
 4477poe    c2319156   1.019   1.534   3.511  0.0103  0.0804 -0.2786
 4477poe     o219157   0.960   1.479   3.627  0.2843  0.1413 -0.1076
 4477poe    c2319158   0.853   1.389   3.606  0.0148  0.4345 -0.0064
 4477poe    c2319159   0.846   1.307   3.736  0.4915 -0.1755 -0.3646
 4477poe     o219160   0.822   1.400   3.838 -0.4157 -0.7149 -0.0774
 4477poe    c2319161   0.870   1.354   3.962 -1.0320  0.4970  0.6369
 4477poe    c2319162   0.910   1.474   4.049  0.4630  0.5971 -0.1600
 4477poe     o219163   1.044   1.518   4.053  0.5211  0.4112 -0.0661
 4477poe    c3119164   1.086   1.604   3.949 -0.4299  0.6446 -0.2663
 4478poe    c3119165   6.344   3.330   1.503  0.1910  0.6018 -0.1601
 4478poe     o219166   6.409   3.205   1.493 -0.3460  0.2550  0.6137
 4478poe    c2319167   6.314   3.100   1.493 -0.4361  0.3341  0.2802
 4478poe    c2319168   6.374   2.979   1.421 -0.2749  0.3929  0.3133
 4478poe     o219169   6.472   2.912   1.497 -0.3486 -0.2918 -0.1752
 4478poe    c2319170   6.513   2.785   1.454  0.5666  0.0082 -0.2059
 4478poe    c2319171   6.621   2.758   1.560  0.1418  0.8917  0.4645
 4478poe     o219172   6.749   2.755   1.501 -0.0672 -0.0654  0.0424
 4478poe    c2319173   6.839   2.677   1.578 -0.0029 -0.0878 -0.0552
 4478poe    c2319174   6.985   2.659   1.535  0.1655 -0.6070  0.7123
 4478poe     o219175   6.984   2.577   1.420 -0.0880  0.3054  0.0464
 4478poe    c3119176   7.116   2.553   1.376 -0.3099 -0.2317 -0.3398
 4479poe    c3119177   6.312   5.083   5.766  0.0629 -0.3122 -0.3679
 4479poe     o219178   6.250   4.997   5.859 -0.4775  0.3407 -0.1112
 4479poe    c2319179   6.224   4.873   5.797  0.5933  0.0005  0.1027
 4479poe    c2319180   6.090   4.815   5.845  0.4666  0.3138  0.1319
 4479poe     o219181   6.101   4.821   5.985  0.3014  0.3648  0.1425
 4479poe    c2319182   5.999   4.746   6.048  0.0858 -0.1220 -0.7728
 4479poe    c2319183   6.054   4.713   6.188 -0.3753  0.3939 -0.4693
 4479poe     o219184   6.087   4.832   6.256 -0.1087  0.0632 -0.0163
 4479poe    c2319185   6.071   4.800   6.393 -0.1372 -0.2494 -0.0924
 4479poe    c2319186   6.106   4.918   6.485  0.1891 -0.5380  0.1594
 4479poe     o219187   6.244   4.944   6.471  0.0510 -0.0234 -0.2918
 4479poe    c3119188   6.287   5.018   6.583  0.3483 -0.5093 -0.0836
 4480poe    c3119189   3.895   6.210   6.197 -0.1057  0.5490  0.0786
 4480poe     o219190   3.943   6.177   6.068 -0.2262 -0.1978  0.2245
 4480poe    c2319191   3.840   6.195   5.974 -0.7079 -0.1494  0.7577
 4480poe    c2319192   3.734   6.083   5.966 -0.0773 -0.6990  0.0639
 4480poe     o219193   3.642   6.101   5.861  0.1025 -0.1531 -0.0036
 4480poe    c2319194   3.507   6.069   5.886 -0.0988  0.3544 -0.4357
 4480poe    c2319195   3.401   6.101   5.778 -0.9295  0.0365  0.2753
 4480poe     o219196   3.356   6.234   5.792 -0.7228  0.0805  0.5299
 4480poe    c2319197   3.266   6.253   5.686 -0.1294  0.0437  0.0104
 4480poe    c2319198   3.317   6.353   5.580  0.1581  0.1582  0.2567
 4480poe     o219199   3.398   6.285   5.487 -0.7336 -0.0471 -0.3846
 4480poe    c3119200   3.446   6.367   5.382 -0.0548  0.6241  0.4365
 4481poe    c3119201   7.230   5.460   6.573 -0.1839  0.3192 -0.0943
 4481poe     o219202   7.339   5.376   6.603  0.3699  0.7898 -0.7601
 4481poe    c2319203   7.463   5.432   6.565  0.7895  0.2889 -0.1630
 4481poe    c2319204   7.580   5.351   6.622  0.5629 -0.2830 -0.5001
 4481poe     o219205   7.554   5.214   6.598  0.0658 -0.3371  0.3135
 4481poe    c2319206   7.639   5.124   6.664  0.0720 -0.7197 -0.2146
 4481poe    c2319207   7.654   4.998   6.577  0.1314 -0.2137 -0.9406
 4481poe     o219208   7.532   4.927   6.577  0.2715 -0.4925  0.5407
 4481poe    c2319209   7.539   4.834   6.471  0.4641 -0.1956  0.2894
 4481poe    c2319210   7.405   4.767   6.434  0.2905  0.1990  0.2087
 4481poe     o219211   7.314   4.865   6.390 -0.0461 -0.1416  0.1447
 4481poe    c3119212   7.190   4.805   6.363  0.1512 -0.5096  0.0507
 4482poe    c3119213   5.613   2.613   6.056  0.1885  0.3673 -0.7748
 4482poe     o219214   5.481   2.661   6.073  0.0242 -0.4564  0.3875
 4482poe    c2319215   5.386   2.606   5.985  0.1959 -0.0702 -0.0391
 4482poe    c2319216   5.320   2.713   5.896  0.4522  0.4759  0.4235
 4482poe     o219217   5.228   2.790   5.971 -0.5201 -0.0939 -0.1575
 4482poe    c2319218   5.174   2.901   5.904 -0.0527 -0.1246 -0.5909
 4482poe    c2319219   5.083   2.992   5.988  0.1847 -0.3844 -0.0478
 4482poe     o219220   5.142   3.052   6.101  0.4170  0.1187 -0.4317
 4482poe    c2319221   5.051   3.144   6.155  0.0263 -0.4810 -0.0563
 4482poe    c2319222   5.113   3.232   6.265  0.1328 -0.0931 -0.4229
 4482poe     o219223   5.157   3.159   6.377  0.1729  0.2423 -0.2184
 4482poe    c3119224   5.179   3.251   6.482  0.2463  0.4325 -0.3999
 4483poe    c3119225   1.669   1.203   4.946  0.8027  0.5263 -0.2612
 4483poe     o219226   1.607   1.170   4.823  0.4779  0.6306 -0.1279
 4483poe    c2319227   1.573   1.033   4.821  0.1409  0.7210 -0.6358
 4483poe    c2319228   1.449   0.989   4.742 -0.2179  0.5205  0.0406
 4483poe     o219229   1.322   1.046   4.767 -0.4507  0.3965 -0.8114
 4483poe    c2319230   1.219   0.973   4.830 -0.1234  0.1341 -0.5753
 4483poe    c2319231   1.097   1.065   4.848 -0.4543 -0.4572  0.2557
 4483poe     o219232   1.046   1.131   4.734 -0.1752 -0.5507  0.0766
 4483poe    c2319233   0.936   1.053   4.692  0.1674 -0.6650 -0.6243
 4483poe    c2319234   0.883   1.117   4.562  0.3016 -0.1524 -0.4292
 4483poe     o219235   0.835   1.248   4.578  0.0665 -0.2101 -0.6694
 4483poe    c3119236   0.697   1.267   4.600  0.3092  0.0992  0.6693
 4484poe    c3119237   6.737   6.984   0.474  0.2488  0.8332 -0.1677
 4484poe     o219238   6.835   7.000   0.574  0.3025 -0.4851 -0.0019
 4484poe    c2319239   6.806   7.104   0.665 -0.1097 -0.8299  0.2688
 4484poe    c2319240   6.879   7.096   0.800  0.4605 -0.3728 -0.0079
 4484poe     o219241   7.015   7.131   0.807  0.4788 -0.4237 -0.1072
 4484poe    c2319242   7.055   7.094   0.937  0.1193  0.2339  0.1971
 4484poe    c2319243   7.194   7.149   0.971  0.2529  0.0854 -0.1083
 4484poe     o219244   7.210   7.285   0.937  0.0322  0.1013 -0.1519
 4484poe    c2319245   7.132   7.393   0.984  0.1401  0.0970  0.0409
 4484poe    c2319246   7.190   7.431   1.121  0.2465 -0.1982  0.0782
 4484poe     o219247   7.154   7.337   1.221 -0.6379 -0.0643 -0.1041
 4484poe    c3119248   7.207   7.378   1.345  0.2610  0.5079 -0.6678
 4485poe    c3119249   7.445   2.109   4.551  0.2788  0.6603 -0.3872
 4485poe     o219250   7.325   2.154   4.609  0.2063  0.6447 -0.5283
 4485poe    c2319251   7.341   2.275   4.680  0.1630  0.2918  0.0885
 4485poe    c2319252   7.201   2.331   4.710 -0.1754 -0.5118  0.0608
 4485poe     o219253   7.122   2.255   4.798  0.1540 -0.4090  0.4485
 4485poe    c2319254   7.007   2.317   4.853  0.0640 -0.1141 -0.0671
 4485poe    c2319255   6.931   2.207   4.929  0.1624 -0.0297  0.1539
 4485poe     o219256   6.903   2.092   4.852  0.1674 -0.1810  0.3761
 4485poe    c2319257   6.811   2.010   4.920 -0.1591 -0.2773 -0.1738
 4485poe    c2319258   6.815   1.869   4.859 -0.2060 -0.3213 -0.0747
 4485poe     o219259   6.947   1.827   4.836 -0.2446 -0.7060  0.4043
 4485poe    c3119260   6.940   1.687   4.854 -0.4790 -0.6800  0.5221
 4486poe    c3119261   1.153   0.936   1.402  0.5318 -0.4478  0.1138
 4486poe     o219262   1.111   0.925   1.268 -0.1228 -0.2820  0.3020
 4486poe    c2319263   1.122   0.787   1.242 -0.2503 -0.2323 -0.0251
 4486poe    c2319264   1.133   0.749   1.094  0.0301 -0.5942  0.0884
 4486poe     o219265   1.241   0.826   1.044 -0.0793 -0.3920  0.1651
 4486poe    c2319266   1.246   0.802   0.905 -0.3808  0.0039  0.0845
 4486poe    c2319267   1.334   0.905   0.832  0.1621 -0.1383  0.5359
 4486poe     o219268   1.461   0.891   0.893  0.2709 -0.4173  0.2513
 4486poe    c2319269   1.569   0.932   0.813 -0.1146 -0.2348 -0.1812
 4486poe    c2319270   1.695   0.873   0.879 -0.2409 -0.6251 -0.2872
 4486poe     o219271   1.673   0.844   1.016 -0.3981  0.0287 -0.1714
 4486poe    c3119272   1.804   0.812   1.059 -0.3743 -0.0729 -0.3184
 4487poe    c3119273   3.657   3.194   0.777 -0.3715 -0.0649  0.6083
 4487poe     o219274   3.656   3.053   0.791  0.4578 -0.0940  0.4272
 4487poe    c2319275   3.621   3.014   0.921 -1.1263 -0.4186 -0.0733
 4487poe    c2319276   3.683   2.879   0.964 -0.0585  0.2056  0.3863
 4487poe     o219277   3.823   2.872   0.980  0.0274  0.3328 -0.2704
 4487poe    c2319278   3.878   2.960   1.075  0.5287  0.7351 -0.9257
 4487poe    c2319279   4.023   2.926   1.111  0.0741 -0.4003 -0.1165
 4487poe     o219280   4.031   2.799   1.173  0.2904 -0.0505  0.5780
 4487poe    c2319281   4.154   2.789   1.240  0.4225  0.0398  0.3482
 4487poe    c2319282   4.165   2.680   1.348  0.1658 -0.0366  0.2960
 4487poe     o219283   4.150   2.557   1.279 -0.5323  0.1289  0.1418
 4487poe    c3119284   4.184   2.452   1.367 -0.3408  0.5035  0.5214
 4488poe    c3119285   4.758   1.109   4.681 -0.5259  0.2719  0.3898
 4488poe     o219286   4.815   0.991   4.731 -0.1929 -0.0485 -0.7129
 4488poe    c2319287   4.949   1.026   4.755 -0.3593 -0.2896  0.6713
 4488poe    c2319288   5.022   0.898   4.798 -0.3841 -0.5417 -0.0172
 4488poe     o219289   4.994   0.869   4.933  0.4305  0.1056  0.3029
 4488poe    c2319290   5.025   0.738   4.976  0.0439 -0.1512 -0.1815
 4488poe    c2319291   5.072   0.737   5.123 -0.0708 -0.2305 -0.1457
 4488poe     o219292   4.982   0.788   5.219 -0.2023 -0.0722 -0.3529
 4488poe    c2319293   5.047   0.782   5.343 -0.4835  0.2492 -0.1893
 4488poe    c2319294   4.977   0.781   5.481  0.1186 -0.0312  0.1190
 4488poe     o219295   4.880   0.679   5.473 -0.6097  0.6542  0.1151
 4488poe    c3119296   4.870   0.611   5.596 -0.1513  0.1283 -0.1333
 4489poe    c3119297   2.264   1.229   0.919  0.1603  0.0371 -0.5187
 4489poe     o219298   2.350   1.205   0.810  0.3606 -0.9301 -0.1539
 4489poe    c2319299   2.270   1.181   0.697 -0.0478  0.2267 -0.1265
 4489poe    c2319300   2.345   1.141   0.569  1.3965  0.0909  0.7410
 4489poe     o219301   2.384   1.006   0.558  0.5337 -0.1165  0.1715
 4489poe    c2319302   2.504   0.967   0.620  0.6452  0.0633  0.0687
 4489poe    c2319303   2.490   0.921   0.767 -0.7118  0.1812 -0.0065
 4489poe     o219304   2.436   0.791   0.774 -0.2123 -0.0274  0.0396
 4489poe    c2319305   2.374   0.781   0.900 -0.3909  0.0750 -0.0406
 4489poe    c2319306   2.461   0.701   0.999 -0.7294  0.0409  0.2332
 4489poe     o219307   2.497   0.573   0.954  0.5861  0.4158  0.1857
 4489poe    c3119308   2.564   0.496   1.051 -0.1305 -0.2114  0.1914
 4490poe    c3119309   5.384   0.871   4.239 -0.4727  0.1016  0.0827
 4490poe     o219310   5.424   1.006   4.240 -0.2095  0.0276 -0.3227
 4490poe    c2319311   5.382   1.083   4.129  0.3033  0.3546 -0.2940
 4490poe    c2319312   5.465   1.211   4.147  0.5404  0.1231  0.3049
 4490poe     o219313   5.447   1.245   4.282 -0.3336  0.0951  0.1995
 4490poe    c2319314   5.502   1.370   4.316  0.0027 -0.1264  0.4844
 4490poe    c2319315   5.434   1.445   4.432  0.0729  0.3982  0.1909
 4490poe     o219316   5.399   1.359   4.538 -0.0097  0.2415  0.0368
 4490poe    c2319317   5.324   1.434   4.631 -0.1137  0.3520 -0.1358
 4490poe    c2319318   5.171   1.419   4.623 -0.1014 -0.1465  0.5331
 4490poe     o219319   5.118   1.491   4.514  0.0398  0.3345  0.7778
 4490poe    c3119320   5.016   1.580   4.554 -0.1087  0.0861  0.9540
 4491poe    c3119321   1.524   5.312   6.593 -0.4623 -0.0431 -0.3918
 4491poe     o219322   1.613   5.260   6.689 -0.5032  0.4528 -0.0789
 4491poe    c2319323   1.681   5.356   6.766  0.3878  0.0696 -0.3707
 4491poe    c2319324   1.791   5.294   6.854  0.2405 -0.3649 -0.4932
 4491poe     o219325   1.883   5.225   6.772  1.2096  0.4392 -0.1011
 4491poe    c2319326   1.938   5.117   6.844 -0.2223 -0.0116  0.3461
 4491poe    c2319327   2.063   5.061   6.775 -0.3707 -0.0576  0.1137
 4491poe     o219328   2.048   4.989   6.655  0.2305 -0.1665  0.0999
 4491poe    c2319329   2.171   4.995   6.587 -0.1490  0.6133 -0.5330
 4491poe    c2319330   2.170   4.918   6.453 -0.4093 -0.3709  0.0309
 4491poe     o219331   2.123   4.996   6.347  0.2797  0.4431  0.3113
 4491poe    c3119332   2.084   4.910   6.242  0.3931  0.5258  0.2007
 4492poe    c3119333   0.027   7.036   0.932 -0.1102 -0.0638  0.8081
 4492poe     o219334   0.041   7.173   0.901 -0.1757 -0.2749 -0.1632
 4492poe    c2319335   0.124   7.245   0.990  0.5763 -0.5967 -0.5978
 4492poe    c2319336   0.112   7.396   0.966 -0.2000 -0.5791 -0.1167
 4492poe     o219337  -0.021   7.433   0.996 -0.0443 -0.1576  0.0662
 4492poe    c2319338  -0.036   7.572   0.977 -0.3191 -0.1126  0.5883
 4492poe    c2319339  -0.164   7.612   0.901  0.0022  0.0326  0.1163
 4492poe     o219340  -0.174   7.563   0.769 -0.1518 -0.3276  0.2609
 4492poe    c2319341  -0.290   7.605   0.702 -0.0688 -0.3400  0.1091
 4492poe    c2319342  -0.245   7.605   0.555 -0.2756  0.1131  0.0437
 4492poe     o219343  -0.168   7.489   0.532 -0.6089 -0.0360 -0.3375
 4492poe    c3119344  -0.109   7.499   0.404  0.4218 -0.1299  0.1182
 4493poe    c3119345   2.761   7.314   1.856  0.2672 -0.4171 -0.2358
 4493poe     o219346   2.731   7.387   1.739 -0.3666 -0.0816  0.1260
 4493poe    c2319347   2.832   7.481   1.706 -0.4414  0.1696  0.5976
 4493poe    c2319348   2.779   7.571   1.593  0.2466 -0.2134 -0.0368
 4493poe     o219349   2.731   7.490   1.488 -1.0894 -0.1718  0.5173
 4493poe    c2319350   2.701   7.579   1.383 -0.3167 -0.3627  0.1193
 4493poe    c2319351   2.661   7.506   1.254 -0.2722 -0.1387 -0.0224
 4493poe     o219352   2.546   7.424   1.260 -0.3431 -0.0253  0.1838
 4493poe    c2319353   2.489   7.394   1.135  0.4200 -0.2817 -0.1085
 4493poe    c2319354   2.394   7.273   1.143  0.3256 -0.1718  0.4902
 4493poe     o219355   2.461   7.150   1.159  0.2075 -0.2253  0.5653
 4493poe    c3119356   2.364   7.048   1.145 -0.4816  0.4100  0.5982
 4494poe    c3119357   0.577   4.659   6.121 -0.1585  0.2749  0.4701
 4494poe     o219358   0.606   4.685   6.256 -0.3164 -0.4107  0.6380
 4494poe    c2319359   0.744   4.672   6.279 -0.1260  0.9237  0.2706
 4494poe    c2319360   0.752   4.687   6.432 -0.2326  0.5049  0.3170
 4494poe     o219361   0.654   4.777   6.478 -0.8070  0.0722 -0.0467
 4494poe    c2319362   0.678   4.829   6.607  0.3652  0.2875 -0.3408
 4494poe    c2319363   0.562   4.917   6.658 -0.0429 -0.1781 -0.4543
 4494poe     o219364   0.535   5.029   6.577  0.5219  0.4462  0.2055
 4494poe    c2319365   0.414   5.097   6.604  0.3550  0.0770  0.4081
 4494poe    c2319366   0.390   5.210   6.502  0.3357 -0.0752  0.2432
 4494poe     o219367   0.302   5.169   6.400  0.0963  0.0671  0.3907
 4494poe    c3119368   0.287   5.266   6.298  0.0987 -0.6996 -0.3534
 4495poe    c3119369   4.682   5.120   5.978  0.6759  0.2105  0.3718
 4495poe     o219370   4.754   5.240   5.998 -0.0673  0.7300 -0.0545
 4495poe    c2319371   4.679   5.326   6.081 -0.5850  0.3802 -0.1494
 4495poe    c2319372   4.766   5.453   6.095  0.5925 -0.4734  0.4741
 4495poe     o219373   4.813   5.487   5.967  0.2475 -0.0859  0.4469
 4495poe    c2319374   4.916   5.583   5.974  0.1315  0.1000 -0.2347
 4495poe    c2319375   4.962   5.636   5.838 -0.2574  0.2746 -0.2975
 4495poe     o219376   5.031   5.524   5.787  0.5014  0.2902  0.6757
 4495poe    c2319377   5.104   5.561   5.673  0.0827  0.2466  0.3914
 4495poe    c2319378   5.161   5.428   5.620 -0.2172  0.1194  0.3871
 4495poe     o219379   5.051   5.340   5.609 -0.4612  0.5106 -0.3937
 4495poe    c3119380   5.087   5.224   5.538  0.5064  0.4967  0.1017
 4496poe    c3119381   2.798   0.359   4.984  0.4966 -0.1027  0.0318
 4496poe     o219382   2.900   0.446   4.938  0.8032 -0.3010  0.3365
 4496poe    c2319383   2.942   0.534   5.040 -0.2533  0.1234  0.4257
 4496poe    c2319384   3.076   0.607   5.017 -0.4871  0.3728 -0.1635
 4496poe     o219385   3.102   0.684   4.902  0.3487 -0.0579 -0.2706
 4496poe    c2319386   3.016   0.795   4.889  0.2660 -0.0755  0.1196
 4496poe    c2319387   3.054   0.864   4.757  0.7216 -0.1115  0.2323
 4496poe     o219388   3.042   0.780   4.645  0.3290  0.7293 -0.3693
 4496poe    c2319389   3.068   0.863   4.534  0.4249  0.1691 -0.7705
 4496poe    c2319390   2.977   0.816   4.419  0.0177 -0.0250 -0.3762
 4496poe     o219391   3.002   0.678   4.403 -0.5230 -0.2180  0.4475
 4496poe    c3119392   2.901   0.601   4.342 -0.1060 -0.4996  0.1105
 4497poe    c3119393   5.402   4.920   2.001  0.1437  0.0867 -0.5761
 4497poe     o219394   5.434   4.782   2.007 -0.1490  0.0396 -0.0324
 4497poe    c2319395   5.562   4.763   1.950 -0.3049  0.2533 -0.4602
 4497poe    c2319396   5.574   4.622   1.889 -0.3329  0.1408 -0.2100
 4497poe     o219397   5.512   4.533   1.979 -0.4192  0.0508 -0.3587
 4497poe    c2319398   5.533   4.406   1.921  0.3409 -0.0240  0.0753
 4497poe    c2319399   5.441   4.311   2.000  0.3193 -0.1627 -0.1146
 4497poe     o219400   5.503   4.245   2.108  0.0229 -0.0345  0.1377
 4497poe    c2319401   5.409   4.184   2.193 -0.2341  0.5314  0.2646
 4497poe    c2319402   5.426   4.229   2.339  0.1125 -0.1891  0.4547
 4497poe     o219403   5.392   4.364   2.361 -0.2129 -0.1446 -0.2867
 4497poe    c3119404   5.419   4.388   2.498 -0.5163  0.2409 -0.2910
 4498poe    c3119405   5.353   6.763   7.278 -0.4818  0.7167  0.5304
 4498poe     o219406   5.490   6.737   7.260 -0.5633  0.2687  0.5414
 4498poe    c2319407   5.528   6.629   7.343  0.6525  0.1820 -0.1101
 4498poe    c2319408   5.640   6.552   7.269  0.6894 -0.1152  0.2554
 4498poe     o219409   5.730   6.647   7.218  0.2673  0.0822 -0.1247
 4498poe    c2319410   5.856   6.590   7.190  0.3409  0.0062  0.3680
 4498poe    c2319411   5.978   6.681   7.173  0.1205  0.2529  0.0967
 4498poe     o219412   5.954   6.781   7.077  0.0260  0.1926  0.0580
 4498poe    c2319413   6.077   6.840   7.041  0.2661 -0.2846  0.0944
 4498poe    c2319414   6.078   6.884   6.894  0.0593 -0.3143  0.0842
 4498poe     o219415   5.975   6.979   6.877  0.7167  0.3992  0.0385
 4498poe    c3119416   5.935   6.988   6.742  0.5861  0.4999  0.0841
 4499poe    c3119417   3.302   3.716   5.144  0.2111  0.6931  0.5436
 4499poe     o219418   3.299   3.686   5.281 -0.1204  0.6449  0.5270
 4499poe    c2319419   3.426   3.674   5.342  0.0294  0.1581  0.1329
 4499poe    c2319420   3.401   3.567   5.450  0.0256  0.0571  0.0318
 4499poe     o219421   3.310   3.597   5.553 -0.0113  0.1799 -0.0370
 4499poe    c2319422   3.242   3.482   5.598  0.0215  0.2125  0.0958
 4499poe    c2319423   3.141   3.535   5.701  0.2128  1.0013 -0.1187
 4499poe     o219424   3.053   3.632   5.648 -0.4412  0.3021 -0.3343
 4499poe    c2319425   2.964   3.675   5.748 -0.6984 -0.3581 -0.2762
 4499poe    c2319426   2.893   3.806   5.710  0.7826  0.4092 -0.4823
 4499poe     o219427   2.787   3.794   5.618 -0.2086  0.2687  0.6462
 4499poe    c3119428   2.719   3.917   5.634  0.2377  0.5351  0.5200
 4500poe    c3119429   2.747   4.541   0.515  0.0157 -0.2999  0.0682
 4500poe     o219430   2.693   4.627   0.614  0.1224  0.1945 -0.2992
 4500poe    c2319431   2.786   4.706   0.683  0.2950 -0.3111  0.0550
 4500poe    c2319432   2.718   4.756   0.812  0.9751  0.3430  0.1665
 4500poe     o219433   2.591   4.803   0.774  1.0743  0.6064  0.1534
 4500poe    c2319434   2.527   4.856   0.888 -0.2981  0.6092 -0.5906
 4500poe    c2319435   2.373   4.865   0.892 -0.3122  0.1454  0.2525
 4500poe     o219436   2.318   4.736   0.884 -0.2264  0.0884  0.5672
 4500poe    c2319437   2.178   4.746   0.865 -0.1758  0.0115  0.1214
 4500poe    c2319438   2.096   4.616   0.860 -0.1452 -0.0136  0.2768
 4500poe     o219439   2.130   4.539   0.747  0.1023 -0.1403  0.4375
 4500poe    c3119440   2.037   4.544   0.642 -0.0836  0.4004  0.6240
 4501poe    c3119441   3.049   0.725   4.012  0.0381 -0.6099  0.5119
 4501poe     o219442   3.021   0.593   4.051  0.3347 -0.7521  0.2495
 4501poe    c2319443   3.010   0.504   3.942 -0.1467  0.3671 -0.6412
 4501poe    c2319444   3.014   0.355   3.983  0.6161  0.6542  0.3501
 4501poe     o219445   3.136   0.302   4.032  0.5675  0.1948 -0.0254
 4501poe    c2319446   3.145   0.163   4.010  0.2059  0.1528  0.0755
 4501poe    c2319447   3.225   0.110   3.890 -0.2387  0.4011 -0.3312
 4501poe     o219448   3.343   0.188   3.881 -0.0675  0.1742 -0.0628
 4501poe    c2319449   3.400   0.175   3.753  0.5718  0.5999  0.1801
 4501poe    c2319450   3.375   0.292   3.656  0.0410  0.3052 -0.0440
 4501poe     o219451   3.431   0.408   3.714 -0.4640  0.2895  0.4840
 4501poe    c3119452   3.371   0.515   3.645 -0.0857  0.1586 -0.0551
 4502poe    c3119453   0.015   1.342   6.258 -0.2508  0.1860 -0.0508
 4502poe     o219454   0.096   1.234   6.218  0.2454  0.4412  0.2537
 4502poe    c2319455   0.171   1.268   6.104  0.0000  0.2078  0.0237
 4502poe    c2319456   0.267   1.158   6.056 -0.1407 -0.2794  0.8401
 4502poe     o219457   0.203   1.035   6.029 -0.0101 -0.0917 -0.3732
 4502poe    c2319458   0.293   0.934   5.990  0.8074  0.1082  0.9604
 4502poe    c2319459   0.238   0.804   6.053 -0.4103  0.1043 -0.0877
 4502poe     o219460   0.211   0.808   6.191 -0.2072 -0.0650 -0.0434
 4502poe    c2319461   0.246   0.675   6.222  0.1586  0.0160 -0.0994
 4502poe    c2319462   0.256   0.677   6.376  0.2667 -0.5636 -0.0974
 4502poe     o219463   0.136   0.709   6.441  0.2374 -0.6978 -0.0848
 4502poe    c3119464   0.139   0.664   6.575  0.3894 -0.5471 -0.0388
 4503poe    c3119465   1.284   2.584   5.241 -0.2085  0.5522  0.0488
 4503poe     o219466   1.322   2.706   5.180 -0.1919  0.0705 -0.9273
 4503poe    c2319467   1.326   2.795   5.289 -0.1678 -0.4351 -0.5103
 4503poe    c2319468   1.353   2.939   5.240 -0.8813 -0.0402  0.2264
 4503poe     o219469   1.244   3.024   5.212 -0.2193  0.6982 -0.1459
 4503poe    c2319470   1.296   3.155   5.215  0.3090  0.4783  0.8587
 4503poe    c2319471   1.206   3.243   5.126  0.5528  0.2029  0.3298
 4503poe     o219472   1.078   3.248   5.185  0.1685  0.3188 -0.5073
 4503poe    c2319473   0.972   3.284   5.099 -0.3863  0.0117  0.0363
 4503poe    c2319474   0.919   3.427   5.124  0.0965  0.1986  0.0090
 4503poe     o219475   0.870   3.435   5.256  0.0739  0.3586 -0.0090
 4503poe    c3119476   0.874   3.570   5.296  0.4601  0.3282  0.0524
 4504poe    c3119477   4.764   3.913   1.753 -0.6968 -1.0830  0.1997
 4504poe     o219478   4.885   3.845   1.778  0.1789  0.3342 -0.0432
 4504poe    c2319479   4.881   3.801   1.912 -0.4139  0.4995 -0.0004
 4504poe    c2319480   5.001   3.714   1.957 -0.5108  0.4403  0.1437
 4504poe     o219481   5.116   3.793   1.976 -0.2903  0.1251  0.1188
 4504poe    c2319482   5.226   3.704   1.979 -0.0474  0.4482  0.9231
 4504poe    c2319483   5.354   3.784   1.950 -0.0187  0.0783  0.0084
 4504poe     o219484   5.352   3.842   1.821 -0.0918 -0.3546 -0.1842
 4504poe    c2319485   5.467   3.922   1.805 -0.3247  0.1459  0.6470
 4504poe    c2319486   5.440   3.991   1.670 -0.1028 -0.0793  0.4882
 4504poe     o219487   5.320   4.064   1.672  0.1130  0.2753  0.5753
 4504poe    c3119488   5.313   4.139   1.553  0.1190  0.3548  0.6246
 4505poe    c3119489   1.669   0.393   2.095 -0.0749 -0.0090 -0.1164
 4505poe     o219490   1.576   0.302   2.150 -0.1610  0.2876  0.2298
 4505poe    c2319491   1.526   0.369   2.264  0.0158  0.1598  0.3840
 4505poe    c2319492   1.388   0.308   2.297  0.0723 -0.7626 -0.9937
 4505poe     o219493   1.411   0.181   2.352  0.1452 -0.1885  0.3470
 4505poe    c2319494   1.387   0.168   2.490 -0.4522 -0.4426  0.2280
 4505poe    c2319495   1.345   0.026   2.530 -0.7586 -0.4966 -0.2783
 4505poe     o219496   1.447  -0.069   2.506  0.1790  0.4090  0.0372
 4505poe    c2319497   1.394  -0.200   2.509 -0.1061  0.5304  0.4289
 4505poe    c2319498   1.496  -0.315   2.500 -0.4559  0.2750 -0.2960
 4505poe     o219499   1.572  -0.345   2.385  0.0222  0.3538 -0.0024
 4505poe    c3119500   1.548  -0.482   2.368 -1.0973  0.5872 -0.4143
 4506poe    c3119501   5.475   1.305   5.679 -0.0762 -0.0945 -0.2917
 4506poe     o219502   5.462   1.443   5.655 -0.2579 -0.0498  0.0569
 4506poe    c2319503   5.587   1.502   5.681 -0.0788 -0.1816 -0.5012
 4506poe    c2319504   5.576   1.653   5.652 -0.3156  0.0057  0.5223
 4506poe     o219505   5.444   1.688   5.616  0.1794  0.6908 -0.6957
 4506poe    c2319506   5.407   1.824   5.624  0.1434  0.6619 -0.3157
 4506poe    c2319507   5.268   1.840   5.559 -0.3292 -0.3760  0.4145
 4506poe     o219508   5.164   1.785   5.637 -0.5174 -0.1899  0.2977
 4506poe    c2319509   5.046   1.859   5.660 -0.3537  0.1318  0.0965
 4506poe    c2319510   4.984   1.825   5.797  0.3519 -0.0959  0.3647
 4506poe     o219511   4.930   1.698   5.829  0.4488 -0.3535 -0.4634
 4506poe    c3119512   4.818   1.671   5.748 -0.0057 -0.8488  0.3170
 4507poe    c3119513   2.832   2.352   2.875 -0.2143 -0.2661 -0.1705
 4507poe     o219514   2.906   2.316   2.989  0.2304  0.2487 -0.2894
 4507poe    c2319515   2.963   2.427   3.054  0.3353 -0.0607  0.1562
 4507poe    c2319516   3.043   2.376   3.175 -0.2445 -0.7598  0.2491
 4507poe     o219517   3.172   2.350   3.124 -0.3978 -0.4393 -0.3157
 4507poe    c2319518   3.267   2.308   3.220 -0.3738 -0.2655 -0.2643
 4507poe    c2319519   3.402   2.293   3.148 -0.3270 -0.7013 -0.0876
 4507poe     o219520   3.401   2.251   3.013 -0.3046  0.2304 -0.3893
 4507poe    c2319521   3.533   2.233   2.968 -0.2453 -0.1738 -0.0611
 4507poe    c2319522   3.548   2.129   2.856  0.5875 -0.2242  0.0908
 4507poe     o219523   3.561   2.182   2.727  0.3111  0.3279  0.2898
 4507poe    c3119524   3.533   2.089   2.625  0.5807  0.6688 -0.0974
 4508poe    c3119525   6.894   5.367   3.839  0.2549  0.2793 -0.4750
 4508poe     o219526   6.865   5.505   3.838 -0.6746  0.0947 -0.4703
 4508poe    c2319527   6.821   5.540   3.967  0.6309 -0.3129  0.0993
 4508poe    c2319528   6.821   5.693   3.988 -0.2544 -0.2920 -0.0486
 4508poe     o219529   6.944   5.749   4.028 -0.4661 -0.2802  0.5927
 4508poe    c2319530   6.921   5.863   4.108 -0.0705  0.1826  0.0466
 4508poe    c2319531   7.057   5.933   4.126 -0.2116  0.5553 -0.3093
 4508poe     o219532   7.142   5.862   4.213 -0.1917  0.3870 -0.4643
 4508poe    c2319533   7.271   5.921   4.209 -0.2375  0.5197  0.0073
 4508poe    c2319534   7.376   5.811   4.232 -0.2093  0.5355 -0.0456
 4508poe     o219535   7.373   5.728   4.346  0.5762  0.3996 -0.1193
 4508poe    c3119536   7.448   5.610   4.329 -0.1266 -0.0659  0.0261
 4509poe    c3119537   3.477   4.580   7.508 -0.2180 -0.5312  0.3888
 4509poe     o219538   3.601   4.537   7.457 -0.1186 -0.0160  0.1951
 4509poe    c2319539   3.580   4.524   7.318  0.1147  0.1152  0.1447
 4509poe    c2319540   3.687   4.534   7.209 -0.3186 -0.2883 -0.3242
 4509poe     o219541   3.777   4.426   7.194 -0.1233 -0.1701 -0.0131
 4509poe    c2319542   3.865   4.453   7.087 -0.5074  0.3326 -0.2057
 4509poe    c2319543   4.005   4.406   7.129 -0.5001  0.2057 -0.3727
 4509poe     o219544   4.009   4.269   7.165 -0.4646  0.1968 -0.4113
 4509poe    c2319545   4.145   4.234   7.166 -0.4597  0.2168  0.2495
 4509poe    c2319546   4.174   4.141   7.285 -0.0914 -0.2143 -0.1730
 4509poe     o219547   4.099   4.022   7.292  0.0589 -0.3135 -0.2338
 4509poe    c3119548   4.146   3.955   7.407 -0.4137  0.5662  0.4830
 4510poe    c3119549   3.185   5.115   5.291 -0.4413 -0.4715  0.8067
 4510poe     o219550   3.296   5.088   5.373  0.3366  0.7109  0.1742
 4510poe    c2319551   3.271   5.125   5.507 -0.9720 -0.0347  0.1529
 4510poe    c2319552   3.365   5.038   5.592 -0.1060  0.5058 -0.2354
 4510poe     o219553   3.474   4.988   5.516  0.1981  0.5218  0.1871
 4510poe    c2319554   3.544   4.888   5.586  0.1869  0.0866 -0.4196
 4510poe    c2319555   3.677   4.857   5.516  0.2359  0.0416 -0.3074
 4510poe     o219556   3.667   4.838   5.377 -0.0740 -0.0044 -0.2781
 4510poe    c2319557   3.787   4.832   5.304 -0.3429  0.1297 -0.7365
 4510poe    c2319558   3.845   4.960   5.240  0.1968  0.5758  0.6037
 4510poe     o219559   3.779   5.015   5.128  0.2229 -0.7678 -0.1060
 4510poe    c3119560   3.847   5.125   5.071 -0.2665  0.0038  0.7664
 4511poe    c3119561   0.704   4.067   6.531 -0.5474 -0.3274  0.3238
 4511poe     o219562   0.613   4.052   6.638 -0.4965 -0.0290  0.4096
 4511poe    c2319563   0.487   4.005   6.599 -0.1644 -0.0074 -0.7138
 4511poe    c2319564   0.425   3.897   6.689 -0.1971  0.0888 -0.6198
 4511poe     o219565   0.319   3.814   6.645 -0.3040 -0.0923 -0.0258
 4511poe    c2319566   0.323   3.700   6.727 -0.1296 -0.0415  0.0367
 4511poe    c2319567   0.244   3.578   6.675  0.2459 -0.1764 -0.2218
 4511poe     o219568   0.111   3.620   6.658  0.1523 -0.2025  0.4021
 4511poe    c2319569   0.034   3.503   6.656  0.0770 -0.1437 -0.3695
 4511poe    c2319570  -0.115   3.534   6.633 -0.1779 -1.0474  0.0012
 4511poe     o219571  -0.190   3.570   6.747 -0.0974 -0.4137 -0.1418
 4511poe    c3119572  -0.292   3.655   6.699  0.2619  0.4099  0.5169
 4512poe    c3119573   3.937   2.365   2.782  0.4821 -0.4326 -0.4565
 4512poe     o219574   3.814   2.414   2.733  0.3003 -0.3198  0.0980
 4512poe    c2319575   3.827   2.473   2.605 -0.1901 -0.8576 -0.2040
 4512poe    c2319576   3.705   2.466   2.512 -0.5176 -0.4818  0.1887
 4512poe     o219577   3.597   2.540   2.564 -0.3050 -0.3297  0.4180
 4512poe    c2319578   3.502   2.563   2.462 -0.1294 -0.3866  0.2414
 4512poe    c2319579   3.381   2.647   2.505  0.2153  0.2366  0.0094
 4512poe     o219580   3.287   2.587   2.591 -0.0851  0.6544 -0.0257
 4512poe    c2319581   3.181   2.677   2.619 -0.2150  0.4561  0.1203
 4512poe    c2319582   3.064   2.656   2.716 -0.5333  0.1611 -0.3253
 4512poe     o219583   3.088   2.645   2.855 -0.0744 -0.3594 -0.4444
 4512poe    c3119584   3.086   2.775   2.910  0.1682 -0.3712 -0.4077
 4513poe    c3119585   2.630   5.266   1.837  0.6778  0.2836  0.6160
 4513poe     o219586   2.679   5.135   1.817  0.1750  0.0942  0.6006
 4513poe    c2319587   2.803   5.107   1.879  0.2641 -0.0367  0.3636
 4513poe    c2319588   2.879   4.993   1.810  0.0506  0.0459 -0.0132
 4513poe     o219589   2.825   4.862   1.815  0.0185  0.0480 -0.2609
 4513poe    c2319590   2.736   4.837   1.710  0.2468 -0.2933 -0.3735
 4513poe    c2319591   2.693   4.689   1.713 -0.6194 -0.0494 -0.5008
 4513poe     o219592   2.803   4.609   1.676 -0.2456 -0.2142  0.9119
 4513poe    c2319593   2.755   4.506   1.592 -0.2474  0.2219  0.3770
 4513poe    c2319594   2.861   4.448   1.497 -0.3399  0.0583  0.3755
 4513poe     o219595   2.910   4.538   1.400 -0.1486 -0.7068 -0.2592
 4513poe    c3119596   2.870   4.506   1.269 -0.3280 -0.0231 -0.3758
 4514poe    c3119597   2.770   7.582   2.115  0.0476  0.4886  0.2497
 4514poe     o219598   2.830   7.639   2.001 -0.0577  0.0450 -0.0285
 4514poe    c2319599   2.742   7.741   1.959 -0.1720  0.0124  0.1317
 4514poe    c2319600   2.790   7.887   1.951 -0.3948  0.0897  0.1878
 4514poe     o219601   2.850   7.925   2.073 -0.3845  0.1512  0.1638
 4514poe    c2319602   2.882   8.061   2.093 -0.1435  0.2282 -0.7095
 4514poe    c2319603   2.948   8.089   2.229 -0.2565 -0.2138 -0.5590
 4514poe     o219604   3.085   8.060   2.247 -0.3827 -0.2681  0.3579
 4514poe    c2319605   3.159   8.073   2.367 -0.3505  0.0596  0.3031
 4514poe    c2319606   3.089   8.134   2.490 -0.4872 -0.5770  0.5453
 4514poe     o219607   3.054   8.270   2.477  0.2125 -0.4387 -0.0038
 4514poe    c3119608   3.051   8.332   2.603  0.4686  0.4350 -0.4187
 4515poe    c3119609   6.397   0.090   6.076  0.6680  0.0171  0.2126
 4515poe     o219610   6.383   0.179   6.185 -0.1572  0.4130 -0.2041
 4515poe    c2319611   6.309   0.112   6.284  0.2100 -0.2209 -0.3527
 4515poe    c2319612   6.322   0.169   6.426  0.0080 -0.6180 -0.1738
 4515poe     o219613   6.458   0.168   6.464 -0.1479  0.0774  0.4281
 4515poe    c2319614   6.483   0.289   6.532  0.1013 -0.0581  0.5772
 4515poe    c2319615   6.632   0.328   6.548  0.3620 -0.7629 -0.0854
 4515poe     o219616   6.707   0.246   6.634  0.5551 -0.2240  0.2629
 4515poe    c2319617   6.843   0.274   6.615  0.3827  0.0582 -0.5672
 4515poe    c2319618   6.957   0.195   6.682  0.4493  0.1404 -0.5820
 4515poe     o219619   6.983   0.072   6.618 -0.1873 -0.6145  0.5785
 4515poe    c3119620   7.118   0.036   6.637 -0.0531 -0.1258  0.5639
 4516poe    c3119621   4.861   3.381   5.186 -0.8378 -0.4003 -0.6425
 4516poe     o219622   4.823   3.516   5.169 -0.7694 -0.3301 -0.2481
 4516poe    c2319623   4.685   3.541   5.178 -0.5520  0.5265  1.0420
 4516poe    c2319624   4.646   3.690   5.173 -0.4105  0.5315 -0.6835
 4516poe     o219625   4.704   3.735   5.053  0.0878 -0.0650 -0.6726
 4516poe    c2319626   4.615   3.750   4.944 -0.6195 -0.0671 -0.1055
 4516poe    c2319627   4.664   3.859   4.847  0.4594 -0.4339  0.0114
 4516poe     o219628   4.788   3.837   4.784  0.2353 -0.0467 -0.5736
 4516poe    c2319629   4.779   3.857   4.645 -0.3166 -0.3025 -0.5784
 4516poe    c2319630   4.798   4.002   4.594 -0.1521  0.0479  0.4604
 4516poe     o219631   4.925   4.038   4.642 -0.1059  0.2101  0.2146
 4516poe    c3119632   5.022   4.060   4.542 -0.1264 -0.1271  0.1207
 4517poe    c3119633   5.584   6.842   2.104 -0.0755  0.2244  1.0233
 4517poe     o219634   5.693   6.930   2.092 -0.1632  0.2125  0.0195
 4517poe    c2319635   5.812   6.862   2.128 -0.5337 -0.2138  0.4473
 4517poe    c2319636   5.915   6.972   2.159 -0.3830 -0.2600  0.1039
 4517poe     o219637   5.965   7.028   2.039  0.5182 -0.2454  0.4780
 4517poe    c2319638   6.088   7.097   2.042  0.4636 -0.0793 -0.7238
 4517poe    c2319639   6.094   7.215   1.944  0.2936  0.3363 -0.2370
 4517poe     o219640   6.086   7.171   1.810  0.2061 -0.3241 -0.0177
 4517poe    c2319641   6.218   7.168   1.760  0.2631 -0.1894  0.1223
 4517poe    c2319642   6.210   7.141   1.608 -0.4142 -0.5420  0.2161
 4517poe     o219643   6.164   7.257   1.543  0.1765 -0.3725  0.0884
 4517poe    c3119644   6.169   7.233   1.404 -0.2444 -0.7413  0.1326
 4518poe    c3119645   1.262   6.136   4.097 -0.1046  0.0163 -0.2847
 4518poe     o219646   1.137   6.075   4.118 -0.2084  0.4285  0.3461
 4518poe    c2319647   1.088   6.122   4.241 -0.9408 -0.2564  0.3236
 4518poe    c2319648   0.945   6.071   4.271 -1.1398 -0.0834 -0.3227
 4518poe     o219649   0.943   5.931   4.266 -0.7170 -0.0693 -1.2268
 4518poe    c2319650   0.824   5.858   4.290 -0.4829 -0.0396  0.0872
 4518poe    c2319651   0.835   5.706   4.275  0.5860  0.0333  0.0745
 4518poe     o219652   0.799   5.666   4.145  0.0146 -0.3006  0.3301
 4518poe    c2319653   0.777   5.527   4.153  0.2792 -0.3379  0.4437
 4518poe    c2319654   0.649   5.487   4.077  0.4540  0.9119 -0.5447
 4518poe     o219655   0.655   5.473   3.937 -0.0030 -0.4155 -0.4444
 4518poe    c3119656   0.526   5.462   3.880 -0.0141  0.1315 -0.5278
 4519poe    c3119657   0.918   1.235   6.263  0.1946 -0.1884 -0.2780
 4519poe     o219658   0.867   1.230   6.132 -0.2480 -0.6750 -0.0888
 4519poe    c2319659   0.834   1.100   6.087  0.0603 -0.7061 -0.2255
 4519poe    c2319660   0.776   1.086   5.946  0.5011 -0.7569 -0.4055
 4519poe     o219661   0.862   1.117   5.839  0.1401  0.5718 -0.3322
 4519poe    c2319662   0.958   1.018   5.806 -0.1858  0.1863 -0.1307
 4519poe    c2319663   1.044   1.062   5.686  0.2750 -0.0544  0.1064
 4519poe     o219664   1.108   1.184   5.716  0.6506 -0.2665  0.1678
 4519poe    c2319665   1.188   1.228   5.609 -0.2417  0.1602 -0.3344
 4519poe    c2319666   1.233   1.370   5.646  0.0347 -0.1781  0.6353
 4519poe     o219667   1.127   1.426   5.720 -0.3473 -0.1479  0.0679
 4519poe    c3119668   1.176   1.546   5.776  0.0559 -0.3327  0.1186
 4520poe    c3119669   6.541   0.430   1.334 -0.3610 -0.3936  0.3431
 4520poe     o219670   6.487   0.442   1.204 -0.2973 -0.1609  0.3377
 4520poe    c2319671   6.468   0.310   1.160  0.0250 -0.0180 -0.2447
 4520poe    c2319672   6.440   0.320   1.009 -0.3088  0.1863 -0.1709
 4520poe     o219673   6.557   0.371   0.950  0.2140 -0.4304  0.3069
 4520poe    c2319674   6.539   0.380   0.810  0.1129  0.3004  0.3626
 4520poe    c2319675   6.682   0.412   0.761 -0.0936  0.1054 -0.3847
 4520poe     o219676   6.726   0.546   0.768 -0.0583  0.0690  0.1330
 4520poe    c2319677   6.863   0.553   0.732 -0.1080 -0.0549 -0.0839
 4520poe    c2319678   6.915   0.697   0.743 -0.2354 -0.0501  0.5082
 4520poe     o219679   6.846   0.799   0.674  0.2801 -0.0622 -0.0335
 4520poe    c3119680   6.917   0.921   0.675  0.4214 -0.1402 -0.3482
 4521poe    c3119681   2.905   1.379   5.483 -0.1689 -0.8259 -1.4100
 4521poe     o219682   2.805   1.475   5.456 -0.0116 -0.3747 -0.4631
 4521poe    c2319683   2.691   1.408   5.406 -0.2527 -0.5504  0.3052
 4521poe    c2319684   2.555   1.481   5.404 -0.5680 -1.1409  0.0169
 4521poe     o219685   2.524   1.544   5.526 -0.0372 -0.8623  0.0101
 4521poe    c2319686   2.420   1.486   5.600  0.0094 -0.4988  0.3654
 4521poe    c2319687   2.329   1.583   5.677  0.0756  0.0667 -0.2600
 4521poe     o219688   2.383   1.631   5.798 -0.0241  0.1365 -0.2424
 4521poe    c2319689   2.293   1.718   5.863 -0.1460  0.0628 -0.3135
 4521poe    c2319690   2.341   1.781   5.995 -0.1078 -0.3915 -0.1091
 4521poe     o219691   2.336   1.678   6.092 -0.1746 -0.2767  0.0091
 4521poe    c3119692   2.408   1.720   6.205  0.8260 -0.1708 -0.6507
 4522poe    c3119693   1.419   5.708   3.880 -0.1363  0.0985 -0.6769
 4522poe     o219694   1.312   5.657   3.956 -0.0991  0.5357 -0.3238
 4522poe    c2319695   1.260   5.544   3.888 -0.3797  0.1855  0.4592
 4522poe    c2319696   1.199   5.441   3.985  0.1619 -0.4238  0.1559
 4522poe     o219697   1.060   5.429   4.006  0.1177  0.2693  0.2859
 4522poe    c2319698   1.018   5.310   4.070  0.2458 -0.1344 -0.3652
 4522poe    c2319699   1.014   5.192   3.971  0.0881 -0.1427 -0.3496
 4522poe     o219700   1.095   5.081   4.004  0.1227  0.1321  0.5099
 4522poe    c2319701   1.132   5.016   3.885  0.2773 -0.0478  0.6558
 4522poe    c2319702   1.242   4.908   3.879  0.2155 -0.0612 -0.4721
 4522poe     o219703   1.213   4.813   3.978  0.5151  0.1812 -0.1494
 4522poe    c3119704   1.315   4.795   4.074  0.3054  0.1077  0.0622
 4523poe    c3119705   4.656   2.339   2.591 -0.5208  0.4341 -0.3943
 4523poe     o219706   4.584   2.292   2.479 -0.5386 -0.1684 -0.1322
 4523poe    c2319707   4.613   2.156   2.458  0.2681 -0.0315  0.0528
 4523poe    c2319708   4.715   2.141   2.344  0.0416 -0.4904 -0.0903
 4523poe     o219709   4.649   2.156   2.220 -0.0836  0.2179  0.0586
 4523poe    c2319710   4.740   2.164   2.113 -0.7430 -1.6663 -0.6918
 4523poe    c2319711   4.680   2.219   1.983 -0.6960  0.0071 -0.0319
 4523poe     o219712   4.628   2.350   1.991  0.3787  0.4140  0.4716
 4523poe    c2319713   4.693   2.443   1.907 -0.3232 -0.2374 -0.8235
 4523poe    c2319714   4.600   2.471   1.787 -0.0857  0.3608 -0.8695
 4523poe     o219715   4.481   2.527   1.836 -0.0526 -0.0167 -0.3428
 4523poe    c3119716   4.385   2.548   1.735 -0.0655 -0.3846 -0.4084
 4524poe    c3119717   5.709   5.620   3.617 -0.0996 -0.4622 -0.1449
 4524poe     o219718   5.694   5.504   3.697 -0.2467 -0.5646 -0.3204
 4524poe    c2319719   5.660   5.529   3.831  0.4114  0.0187 -0.2559
 4524poe    c2319720   5.598   5.406   3.901  0.0543  0.2060 -0.2424
 4524poe     o219721   5.465   5.384   3.859  0.1901 -0.2578 -0.4342
 4524poe    c2319722   5.389   5.329   3.963 -0.5431  0.0335 -0.8083
 4524poe    c2319723   5.343   5.416   4.081  0.4634 -0.0727 -0.3294
 4524poe     o219724   5.285   5.537   4.039  0.6158  0.0787 -0.1099
 4524poe    c2319725   5.322   5.641   4.126  0.3503 -0.1261  0.2483
 4524poe    c2319726   5.208   5.743   4.140  0.5754  0.1145  0.3381
 4524poe     o219727   5.178   5.825   4.029  0.0047 -0.1695  0.2810
 4524poe    c3119728   5.281   5.919   4.011 -0.4438  0.2840  0.0352
 4525poe    c3119729   5.659   6.157   5.013 -0.0106 -0.5249 -0.0736
 4525poe     o219730   5.600   6.254   5.097  0.2378 -0.3261 -0.1298
 4525poe    c2319731   5.490   6.215   5.175  0.0524  0.7384  0.1543
 4525poe    c2319732   5.443   6.299   5.295  0.1179  0.5690  0.2987
 4525poe     o219733   5.539   6.299   5.398  0.1439 -0.2588  0.2806
 4525poe    c2319734   5.483   6.307   5.527 -0.4309  0.5255 -0.0093
 4525poe    c2319735   5.588   6.260   5.630 -0.2029  0.1162 -0.4281
 4525poe     o219736   5.610   6.123   5.604 -0.0904  0.0180  0.1631
 4525poe    c2319737   5.706   6.071   5.693  0.3309 -0.6219 -0.6410
 4525poe    c2319738   5.694   5.927   5.745  0.7803 -0.3231  0.3241
 4525poe     o219739   5.714   5.829   5.645 -0.2469 -0.2111 -0.0044
 4525poe    c3119740   5.845   5.777   5.658 -0.3276 -0.3945  0.0796
 4526poe    c3119741   2.480   1.417   4.290  0.0913  0.0738  0.5701
 4526poe     o219742   2.598   1.489   4.263 -0.2195  0.4025  0.0732
 4526poe    c2319743   2.576   1.626   4.290 -0.3609  0.2494  0.7476
 4526poe    c2319744   2.603   1.666   4.436 -0.5872 -0.0230  0.8664
 4526poe     o219745   2.739   1.647   4.469 -0.3188 -0.1807 -0.3013
 4526poe    c2319746   2.799   1.762   4.524 -0.4207 -0.3802  0.2357
 4526poe    c2319747   2.948   1.723   4.519 -0.2750  0.1819  0.1721
 4526poe     o219748   2.965   1.593   4.571 -0.0400  0.0716 -0.1696
 4526poe    c2319749   3.094   1.542   4.548  0.2543  0.3914  0.7298
 4526poe    c2319750   3.104   1.391   4.579  0.0069  0.2423  0.0822
 4526poe     o219751   3.001   1.341   4.496 -0.1889  0.5124  0.1611
 4526poe    c3119752   2.956   1.221   4.554 -0.2613  0.1371 -0.6550
 4527poe    c3119753   2.722   2.157   4.711  0.3966 -0.3886  0.6350
 4527poe     o219754   2.592   2.104   4.726  0.2925 -0.2617  0.2089
 4527poe    c2319755   2.526   2.095   4.602  0.4648 -0.8836  0.1580
 4527poe    c2319756   2.414   1.990   4.612  0.1099 -0.5185  0.0678
 4527poe     o219757   2.465   1.862   4.642  0.1240 -0.5328 -0.0139
 4527poe    c2319758   2.362   1.786   4.704 -0.2656  0.0438  0.0507
 4527poe    c2319759   2.410   1.651   4.758 -0.2603 -0.0570 -0.2057
 4527poe     o219760   2.500   1.669   4.865 -0.6473 -0.1703  0.1408
 4527poe    c2319761   2.508   1.550   4.939  0.2293  0.0532  0.4145
 4527poe    c2319762   2.652   1.505   4.972  0.1386 -0.7113 -0.1975
 4527poe     o219763   2.725   1.501   4.852  0.3397  0.2174 -0.1160
 4527poe    c3119764   2.839   1.582   4.864  0.4081  0.0272  0.5628
 4528poe    c3119765   7.577   2.121   6.589 -0.2183  0.3408 -0.5010
 4528poe     o219766   7.627   2.252   6.598 -0.0669  0.2981 -0.7199
 4528poe    c2319767   7.536   2.339   6.661  0.1015  0.3137 -0.4969
 4528poe    c2319768   7.599   2.472   6.704 -0.1954  0.2019  0.3048
 4528poe     o219769   7.689   2.439   6.808  0.1360  0.4104  0.0889
 4528poe    c2319770   7.730   2.549   6.887  0.6845  0.1959  0.1080
 4528poe    c2319771   7.819   2.504   7.003  0.3821 -0.1929  0.1911
 4528poe     o219772   7.934   2.434   6.961  0.5904  0.3284 -0.1094
 4528poe    c2319773   7.994   2.361   7.065  0.1734 -0.2719 -0.2850
 4528poe    c2319774   8.130   2.300   7.023  0.1286 -0.2787 -0.4196
 4528poe     o219775   8.217   2.399   6.974  0.2782 -0.1916  0.0227
 4528poe    c3119776   8.342   2.343   6.939  0.3805  0.1549 -0.1736
 4529poe    c3119777   6.754   1.166   6.177 -0.3869  0.6424 -0.2766
 4529poe     o219778   6.746   1.210   6.311  0.5914 -0.4661  0.1714
 4529poe    c2319779   6.613   1.251   6.334  0.7541  0.1944 -0.0508
 4529poe    c2319780   6.601   1.243   6.487  0.0285 -0.4043 -0.1296
 4529poe     o219781   6.652   1.124   6.543  0.3757 -0.2189 -0.0442
 4529poe    c2319782   6.669   1.133   6.682  0.7001 -0.5765 -0.0610
 4529poe    c2319783   6.778   1.037   6.735  0.3797 -0.7749  0.2466
 4529poe     o219784   6.897   1.061   6.662  0.0163 -0.0749 -0.1272
 4529poe    c2319785   7.007   0.980   6.697 -0.1916 -0.1272  0.4260
 4529poe    c2319786   6.989   0.831   6.662  0.0749  0.0592 -0.5589
 4529poe     o219787   6.991   0.810   6.523 -0.0134 -0.2048 -0.5212
 4529poe    c3119788   6.928   0.688   6.493  0.5319 -0.6307  0.0429
 4530poe    c3119789   4.815   4.927   5.046 -0.2772 -0.9739 -0.8052
 4530poe     o219790   4.754   4.989   4.935  0.0005  0.4137 -0.2079
 4530poe    c2319791   4.847   5.066   4.861  0.3181  0.1573 -0.0782
 4530poe    c2319792   4.763   5.083   4.733 -0.4525  0.2141  0.4276
 4530poe     o219793   4.735   4.980   4.641  0.4872  0.1229  0.2329
 4530poe    c2319794   4.606   5.011   4.592  0.2533 -0.2019  0.6327
 4530poe    c2319795   4.604   4.950   4.451 -0.5651  0.2349  0.4531
 4530poe     o219796   4.663   4.823   4.468 -0.4686  0.2283  0.0809
 4530poe    c2319797   4.575   4.731   4.407 -0.4215  0.2412 -0.0064
 4530poe    c2319798   4.542   4.630   4.519  0.5294  0.0901  0.1500
 4530poe     o219799   4.649   4.549   4.562  0.0564 -0.5516  0.1425
 4530poe    c3119800   4.593   4.458   4.654  0.0637  0.1345  0.8387
 4531poe    c3119801   5.777   0.198   6.747 -0.1692  0.0778 -0.4461
 4531poe     o219802   5.894   0.119   6.744 -0.0908  0.1695  0.2020
 4531poe    c2319803   5.896   0.006   6.659  0.5349  0.4516 -0.1633
 4531poe    c2319804   6.037  -0.027   6.606  0.6986  0.3087  0.3500
 4531poe     o219805   6.129  -0.096   6.688  0.4276  0.5110  0.8307
 4531poe    c2319806   6.093  -0.231   6.704  0.7414  0.3015 -0.1432
 4531poe    c2319807   6.157  -0.286   6.833  0.2246  0.4807  0.1940
 4531poe     o219808   6.128  -0.194   6.935 -0.4765  0.3989  0.0684
 4531poe    c2319809   6.198  -0.236   7.049 -0.5560 -0.2073 -0.1045
 4531poe    c2319810   6.206  -0.158   7.182  0.3142  0.0186 -0.2893
 4531poe     o219811   6.079  -0.102   7.204  0.4882  0.4002 -0.2438
 4531poe    c3119812   6.066  -0.062   7.339 -0.1693  0.1612 -0.2320
 4532poe    c3119813   2.931   6.808   2.838 -0.1555  0.6656 -0.4564
 4532poe     o219814   3.031   6.890   2.781  0.1998  0.3685 -0.2681
 4532poe    c2319815   3.152   6.828   2.816  0.2760  0.3518 -0.5581
 4532poe    c2319816   3.278   6.914   2.792  0.0597  0.8262 -0.0026
 4532poe     o219817   3.292   6.922   2.652 -0.0166 -0.2783 -0.0774
 4532poe    c2319818   3.423   6.955   2.612 -0.2714  0.5459 -0.2471
 4532poe    c2319819   3.435   6.937   2.459 -0.5420 -0.2660 -0.1790
 4532poe     o219820   3.364   7.031   2.381  0.1410  0.2248 -0.2180
 4532poe    c2319821   3.410   7.037   2.248  0.5925  0.1563 -0.0696
 4532poe    c2319822   3.304   7.092   2.151  0.4815  0.0001 -0.0374
 4532poe     o219823   3.293   7.232   2.160  0.6248  0.0434 -0.5172
 4532poe    c3119824   3.169   7.278   2.110  0.5857  0.3169 -0.1728
 4533poe    c3119825   7.538   4.564   3.877  0.0489 -0.0505  0.5040
 4533poe     o219826   7.469   4.566   4.000 -0.2335  0.4537  0.3435
 4533poe    c2319827   7.372   4.465   4.018  0.2193 -0.0357  0.0866
 4533poe    c2319828   7.275   4.493   4.134 -0.0627  0.0557 -0.1675
 4533poe     o219829   7.173   4.395   4.131  0.0127 -0.0141 -0.5018
 4533poe    c2319830   7.078   4.392   4.235  0.6790  0.5902  0.1421
 4533poe    c2319831   7.133   4.346   4.371 -0.2538 -0.4398  0.1904
 4533poe     o219832   7.158   4.208   4.364 -0.3493 -0.4247 -0.4771
 4533poe    c2319833   7.152   4.155   4.494 -0.2754  0.2713 -0.1877
 4533poe    c2319834   7.243   4.033   4.520  0.2426  0.6863 -0.0285
 4533poe     o219835   7.383   4.051   4.515  0.2859  0.3496 -0.0676
 4533poe    c3119836   7.447   4.074   4.638  0.1533 -0.1673  0.1015
 4534poe    c3119837   7.053   7.439   3.882  0.2776  0.0651  0.7598
 4534poe     o219838   6.937   7.360   3.898  0.3812 -0.3860 -0.5409
 4534poe    c2319839   6.844   7.371   3.793 -0.1208 -0.2260 -0.0840
 4534poe    c2319840   6.721   7.279   3.814  0.1276 -0.6906 -0.6262
 4534poe     o219841   6.741   7.140   3.828  0.2555 -0.5804  0.3858
 4534poe    c2319842   6.624   7.061   3.833 -0.3391  0.2329 -0.3587
 4534poe    c2319843   6.614   6.918   3.888 -0.3756  0.4177  0.1176
 4534poe     o219844   6.621   6.894   4.027  0.6711  0.0445  0.0076
 4534poe    c2319845   6.590   6.763   4.068 -0.0161  0.1290 -0.2244
 4534poe    c2319846   6.646   6.731   4.208 -0.3403 -0.1010 -0.1469
 4534poe     o219847   6.785   6.708   4.205 -0.3182  0.0237 -0.1055
 4534poe    c3119848   6.840   6.665   4.327 -0.5065  0.0721 -0.0036
 4535poe    c3119849   7.133   1.188   5.704  0.5322  0.0856 -0.1384
 4535poe     o219850   7.217   1.135   5.804  0.5289  0.3591  0.0080
 4535poe    c2319851   7.307   1.232   5.852  0.3992  0.3847  0.2028
 4535poe    c2319852   7.433   1.157   5.899  0.0971  0.2144  0.7438
 4535poe     o219853   7.381   1.036   5.949 -0.2418  0.0577  0.0189
 4535poe    c2319854   7.471   0.964   6.030 -0.4837 -0.0499  0.1935
 4535poe    c2319855   7.436   0.815   6.018  0.3274 -0.2069 -0.3514
 4535poe     o219856   7.300   0.807   6.057  0.2702  0.1015 -0.4870
 4535poe    c2319857   7.244   0.679   6.034  0.0483  0.1194 -0.0432
 4535poe    c2319858   7.118   0.653   6.118  0.0306  0.1139 -0.0710
 4535poe     o219859   7.018   0.749   6.093 -0.1236 -0.1111 -0.3332
 4535poe    c3119860   6.897   0.698   6.145  0.2670 -0.7332 -0.0239
 4536poe    c3119861   4.180   3.986   2.829  0.5545 -0.2046  1.0137
 4536poe     o219862   4.240   4.112   2.810 -0.2716  0.0938  0.3122
 4536poe    c2319863   4.377   4.102   2.778 -0.2172 -0.4462  0.7095
 4536poe    c2319864   4.445   4.239   2.790  0.3499 -0.5769 -0.8830
 4536poe     o219865   4.437   4.325   2.678  0.0875 -0.0166 -0.4378
 4536poe    c2319866   4.563   4.384   2.656  0.1559 -0.0628 -0.1678
 4536poe    c2319867   4.600   4.443   2.519  0.5641  0.1455  0.0280
 4536poe     o219868   4.525   4.560   2.493  0.1331 -0.1445 -0.0525
 4536poe    c2319869   4.523   4.604   2.359 -0.6503 -0.3646 -0.1177
 4536poe    c2319870   4.473   4.750   2.367 -0.0949 -0.1541 -0.4609
 4536poe     o219871   4.333   4.742   2.385 -0.0749  0.0824 -0.1982
 4536poe    c3119872   4.280   4.862   2.435 -0.4720 -0.2766  0.2462
 4537poe    c3119873   1.140   1.777   0.053  0.1614 -0.1834  0.1855
 4537poe     o219874   1.211   1.655   0.062  0.4068 -0.0192  0.5293
 4537poe    c2319875   1.180   1.576  -0.052 -0.3238  0.3806  0.4450
 4537poe    c2319876   1.248   1.438  -0.044  0.2665  0.6715  0.4704
 4537poe     o219877   1.387   1.457  -0.056  0.3398  0.2958  0.7243
 4537poe    c2319878   1.463   1.338  -0.060  0.1413  0.1862 -0.0341
 4537poe    c2319879   1.592   1.353   0.023 -0.0765 -0.4423  0.4335
 4537poe     o219880   1.673   1.459  -0.025 -0.3726 -0.2520  0.3526
 4537poe    c2319881   1.797   1.451   0.041 -0.1083 -0.0287 -0.1160
 4537poe    c2319882   1.891   1.566  -0.002  0.2462 -0.0503  0.5887
 4537poe     o219883   1.842   1.689   0.047 -0.1993 -0.0310  0.0990
 4537poe    c3119884   1.911   1.805   0.009 -0.4660 -0.0464 -0.4460
 4538poe    c3119885   3.930   4.681   4.993 -0.6477  0.0969 -0.4982
 4538poe     o219886   4.012   4.571   4.961 -0.0096  0.4481 -0.0984
 4538poe    c2319887   4.142   4.615   4.931 -0.0381  0.3449 -0.3763
 4538poe    c2319888   4.231   4.520   4.848  0.3759  0.2194  0.2049
 4538poe     o219889   4.212   4.529   4.708  0.5737 -0.1645  0.1539
 4538poe    c2319890   4.091   4.480   4.656 -0.0776  0.3770  1.1264
 4538poe    c2319891   4.099   4.332   4.613  0.0674  0.6152  0.3131
 4538poe     o219892   4.185   4.301   4.506 -0.5287  0.2579 -0.0697
 4538poe    c2319893   4.164   4.168   4.464 -0.2837 -0.1225  0.9809
 4538poe    c2319894   4.073   4.129   4.346 -0.3370  0.2580  0.8948
 4538poe     o219895   4.076   4.205   4.228 -0.0633 -0.6351  0.3225
 4538poe    c3119896   3.955   4.165   4.167 -0.4003  0.2610  0.3945
 4539poe    c3119897   2.474   1.024   7.558  0.3474 -0.2088  0.1764
 4539poe     o219898   2.452   0.935   7.450  0.1041  0.0594  0.0053
 4539poe    c2319899   2.438   1.002   7.327  0.0454 -0.2446 -0.1540
 4539poe    c2319900   2.432   0.891   7.220 -0.7882  0.0494 -0.4146
 4539poe     o219901   2.378   0.772   7.271  1.1139 -0.9416 -0.6320
 4539poe    c2319902   2.303   0.697   7.178 -0.2825  0.0884 -0.3754
 4539poe    c2319903   2.242   0.566   7.233 -0.1718  0.1399 -0.1296
 4539poe     o219904   2.147   0.604   7.331  0.4207  0.0772  0.4771
 4539poe    c2319905   2.060   0.498   7.363  0.2717  0.1819  0.4175
 4539poe    c2319906   1.958   0.550   7.467 -0.3134 -0.7141  0.3004
 4539poe     o219907   1.848   0.464   7.443 -0.4501 -0.2965 -0.6020
 4539poe    c3119908   1.762   0.475   7.553  0.0732  0.0959 -0.2262
 4540poe    c3119909   5.793   4.967   4.745  0.8209  0.9746 -0.1449
 4540poe     o219910   5.821   4.975   4.883  0.2534 -0.2166  0.0569
 4540poe    c2319911   5.794   5.103   4.936  0.7207 -0.0740 -0.0493
 4540poe    c2319912   5.894   5.217   4.907  0.0524  0.7848  0.9517
 4540poe     o219913   5.998   5.172   4.991 -0.0075  0.1733  0.7016
 4540poe    c2319914   6.114   5.251   5.003 -0.1498  0.5357 -0.2218
 4540poe    c2319915   6.192   5.210   5.130 -0.5831 -0.4349 -0.2600
 4540poe     o219916   6.252   5.083   5.118 -0.2683 -0.2672 -0.4636
 4540poe    c2319917   6.360   5.070   5.028  0.0518  0.3304 -0.1717
 4540poe    c2319918   6.351   5.056   4.875 -0.5749  0.2019 -0.1282
 4540poe     o219919   6.304   4.929   4.836 -0.0435 -0.0229 -0.0362
 4540poe    c3119920   6.357   4.901   4.709  0.3403 -0.2085  0.1618
 4541poe    c3119921   1.991   3.549   4.012 -0.4706  0.2235  0.2133
 4541poe     o219922   1.967   3.631   3.900 -0.4620  0.1441  0.1530
 4541poe    c2319923   1.861   3.723   3.915 -0.5560  0.0494  0.0706
 4541poe    c2319924   1.842   3.804   3.785 -0.0298  0.2604  0.1205
 4541poe     o219925   1.794   3.714   3.688 -0.3021  0.3656  0.1545
 4541poe    c2319926   1.845   3.738   3.559  0.1943  0.2789  0.3318
 4541poe    c2319927   1.813   3.631   3.453 -0.0628  0.4145  0.2707
 4541poe     o219928   1.904   3.523   3.446 -0.0176  0.4792 -0.1724
 4541poe    c2319929   1.895   3.466   3.317 -0.2162  0.0640  0.0214
 4541poe    c2319930   1.929   3.316   3.324 -0.1097  0.0942  0.1713
 4541poe     o219931   2.059   3.274   3.357 -0.0081 -0.2842 -0.6832
 4541poe    c3119932   2.086   3.139   3.326 -0.3942 -0.4418 -0.3361
 4542poe    c3119933   6.010   3.635   6.638 -0.1064  0.2472 -0.5112
 4542poe     o219934   6.119   3.709   6.687  0.1445 -0.1022 -0.5340
 4542poe    c2319935   6.183   3.647   6.796  0.2487  0.3829 -0.3157
 4542poe    c2319936   6.328   3.621   6.752  0.2737  0.0817 -0.0597
 4542poe     o219937   6.399   3.743   6.746 -0.0741  0.2969  0.2155
 4542poe    c2319938   6.529   3.718   6.699 -0.1624  0.2552 -0.0096
 4542poe    c2319939   6.575   3.848   6.629 -0.0473  0.1200 -0.1852
 4542poe     o219940   6.530   3.867   6.497 -0.5382  0.1554 -0.0131
 4542poe    c2319941   6.600   3.972   6.435 -0.1346 -0.5724 -0.8158
 4542poe    c2319942   6.518   4.019   6.314 -0.4083 -0.0937 -0.4464
 4542poe     o219943   6.452   3.915   6.245 -0.4255 -0.3998  0.0278
 4542poe    c3119944   6.377   3.958   6.134  0.2548 -0.2382 -0.3728
 4543poe    c3119945   7.301   7.431   3.294  0.0916  0.3191 -0.3489
 4543poe     o219946   7.328   7.511   3.407 -1.0265 -0.0514  0.1919
 4543poe    c2319947   7.313   7.446   3.531 -0.0944 -0.0387  0.3193
 4543poe    c2319948   7.348   7.533   3.654  0.3759  0.2902 -0.0438
 4543poe     o219949   7.265   7.644   3.680  0.4825  0.3248  0.1486
 4543poe    c2319950   7.311   7.735   3.778 -0.2107  0.1927  0.6045
 4543poe    c2319951   7.239   7.871   3.772 -0.2615  0.1223 -0.7365
 4543poe     o219952   7.263   7.957   3.663  0.1488 -0.2855 -0.9714
 4543poe    c2319953   7.197   8.079   3.688 -0.1813 -0.7363  0.4449
 4543poe    c2319954   7.226   8.194   3.590 -0.7591 -1.0443 -0.0962
 4543poe     o219955   7.193   8.160   3.457 -0.1020 -0.0622 -0.5256
 4543poe    c3119956   7.292   8.198   3.364  0.6240 -0.7496 -0.0460
 4544poe    c3119957   6.305   3.747   5.630 -0.0638 -0.4908 -0.5877
 4544poe     o219958   6.440   3.782   5.614 -0.0570 -0.5493 -0.6606
 4544poe    c2319959   6.528   3.773   5.724 -0.0850 -0.2550 -0.6135
 4544poe    c2319960   6.668   3.810   5.671  0.3636 -0.9645  0.0540
 4544poe     o219961   6.711   3.738   5.559  0.6107 -0.5362 -0.1283
 4544poe    c2319962   6.829   3.798   5.509  0.2405  0.3066 -0.0099
 4544poe    c2319963   6.886   3.718   5.390 -0.0100 -0.1217  0.1547
 4544poe     o219964   6.795   3.708   5.283  0.1003  0.5099  0.0011
 4544poe    c2319965   6.831   3.606   5.193 -0.4640  0.2118  0.1092
 4544poe    c2319966   6.764   3.646   5.060 -0.1446  0.0803 -0.0925
 4544poe     o219967   6.626   3.641   5.035 -0.0373 -0.3041 -0.6208
 4544poe    c3119968   6.610   3.682   4.901 -0.1501  0.2522 -0.4416
 4545poe    c3119969   7.382   2.097   1.204  0.3427 -0.1554  0.1244
 4545poe     o219970   7.450   2.163   1.099  0.0408 -0.4676 -0.2692
 4545poe    c2319971   7.422   2.300   1.116  0.5476 -0.3469 -0.3801
 4545poe    c2319972   7.521   2.369   1.210 -0.0347 -0.1889  0.1266
 4545poe     o219973   7.541   2.311   1.337 -0.0886  0.1179  0.2752
 4545poe    c2319974   7.612   2.396   1.425  0.8642 -0.2599 -0.1165
 4545poe    c2319975   7.611   2.340   1.569 -0.1157 -0.1744 -0.0814
 4545poe     o219976   7.706   2.238   1.595  0.3420  0.3336  0.2753
 4545poe    c2319977   7.660   2.185   1.717 -0.2562  0.0637 -0.0639
 4545poe    c2319978   7.740   2.060   1.757 -0.0950  0.2536  0.2070
 4545poe     o219979   7.879   2.073   1.773 -0.0353 -0.4082  0.2686
 4545poe    c3119980   7.925   1.948   1.819 -0.1091 -0.6344 -0.2647
 4546poe    c3119981   1.822   5.503   2.442  0.5290 -0.3007 -0.3601
 4546poe     o219982   1.873   5.373   2.423 -0.2010 -0.6365 -0.0800
 4546poe    c2319983   1.847   5.298   2.539  0.3075 -0.3580  0.2223
 4546poe    c2319984   1.953   5.189   2.565  0.1971 -0.4754  0.1864
 4546poe     o219985   1.967   5.120   2.443  1.2315 -0.3237  0.2072
 4546poe    c2319986   2.053   5.009   2.452  0.4969 -0.9266 -0.0983
 4546poe    c2319987   2.096   4.962   2.312  0.5367  0.0712 -0.4287
 4546poe     o219988   2.106   5.066   2.218  0.4750  0.2073 -0.2835
 4546poe    c2319989   2.169   5.028   2.098  0.1476  0.0922 -0.4194
 4546poe    c2319990   2.238   5.147   2.030 -0.6349  0.7066 -0.1647
 4546poe     o219991   2.331   5.188   2.127 -0.2596 -0.4824  0.0030
 4546poe    c3119992   2.405   5.300   2.083 -0.9441 -0.1788 -0.3964
 4547poe    c3119993   6.322   3.750   2.921 -0.7274 -0.4838  0.4748
 4547poe     o219994   6.316   3.890   2.907 -0.7030 -0.5185  0.1241
 4547poe    c2319995   6.337   3.975   3.018 -0.2263 -0.1185 -0.2633
 4547poe    c2319996   6.366   4.119   2.973  0.0121 -0.0468  0.1145
 4547poe     o219997   6.470   4.139   2.880  0.3031  0.2515  0.5023
 4547poe    c2319998   6.478   4.278   2.857 -0.0525  0.3363  0.8837
 4547poe    c2319999   6.578   4.315   2.745 -0.7364 -0.0120  0.1417
 4547poe     o220000   6.528   4.299   2.615 -0.3600  0.0997 -0.0189
 4547poe    c2320001   6.632   4.330   2.526  0.0453  0.0227  0.4244
 4547poe    c2320002   6.575   4.339   2.383 -0.4594 -0.3591  0.5995
 4547poe     o220003   6.502   4.224   2.345 -0.8182  0.1757 -0.3607
 4547poe    c3120004   6.497   4.222   2.204  0.7000  0.4211 -0.4381
 4548poe    c3120005   1.929   5.568   7.588 -0.9471  0.2696 -0.3702
 4548poe     o220006   1.879   5.606   7.714 -0.5213 -0.4008  0.0020
 4548poe    c2320007   1.776   5.700   7.695  0.4985  0.7507  0.0679
 4548poe    c2320008   1.773   5.817   7.795  0.3014  0.7182  0.0994
 4548poe     o220009   1.773   5.782   7.932  0.1080 -0.4434 -0.1916
 4548poe    c2320010   1.850   5.887   7.986 -0.0376 -0.5364  0.2001
 4548poe    c2320011   1.833   5.884   8.139 -0.1521 -0.5147  0.1877
 4548poe     o220012   1.699   5.923   8.160  0.1881  0.5388  0.4597
 4548poe    c2320013   1.646   5.879   8.284 -0.0242 -0.5077  0.0056
 4548poe    c2320014   1.497   5.845   8.268 -0.1556 -0.3392  0.8365
 4548poe     o220015   1.479   5.711   8.225 -0.1369 -0.0605 -0.0670
 4548poe    c3120016   1.343   5.686   8.256  0.1441 -0.1047  1.2008
 4549poe    c3120017   5.904   5.597   6.574  0.8625 -0.2158  1.0345
 4549poe     o220018   5.926   5.736   6.589  0.0613  0.0828 -0.3458
 4549poe    c2320019   5.922   5.807   6.468 -1.0192  0.0473 -0.3373
 4549poe    c2320020   5.820   5.922   6.485 -0.2946  0.5826  0.4863
 4549poe     o220021   5.690   5.872   6.511  0.1233 -0.7302  0.1425
 4549poe    c2320022   5.644   5.923   6.634 -0.3922  0.4544 -0.5266
 4549poe    c2320023   5.508   5.866   6.679  0.0392  0.3524  0.6728
 4549poe     o220024   5.426   5.895   6.568  0.5098 -0.1912  0.1783
 4549poe    c2320025   5.351   6.014   6.578  0.9403  0.1862 -0.9539
 4549poe    c2320026   5.257   6.047   6.460  0.2519  0.3302 -0.3692
 4549poe     o220027   5.333   6.079   6.346  0.8159  0.1729 -0.0440
 4549poe    c3120028   5.231   6.112   6.255 -0.0129  0.0536  0.8268
 4550poe    c3120029   2.106   4.051   7.256 -0.3508  0.3698  0.3211
 4550poe     o220030   2.163   4.155   7.180  0.3003 -0.0471  0.2309
 4550poe    c2320031   2.203   4.108   7.053  0.2105  1.0408 -0.2157
 4550poe    c2320032   2.301   4.203   6.982  0.6489  0.2146 -0.7426
 4550poe     o220033   2.418   4.225   7.058 -0.0179  0.5476  0.2021
 4550poe    c2320034   2.502   4.310   6.983 -0.1937 -0.1206 -0.7627
 4550poe    c2320035   2.650   4.322   7.022 -0.3680  0.4951 -0.2718
 4550poe     o220036   2.725   4.203   7.010  0.1714  0.6802  1.0562
 4550poe    c2320037   2.856   4.224   7.058  0.7194  0.3089 -0.2303
 4550poe    c2320038   2.899   4.105   7.146 -0.7141 -0.0257  0.0525
 4550poe     o220039   2.828   4.096   7.268  0.0589  0.0554  0.5142
 4550poe    c3120040   2.875   3.982   7.335  0.2554 -0.2499 -0.1336
 4551poe    c3120041   2.120   1.424   6.626 -0.0563  0.0601 -0.0881
 4551poe     o220042   2.176   1.550   6.657 -0.3034  0.2398 -0.3680
 4551poe    c2320043   2.082   1.642   6.708 -0.5325  0.0736 -0.4903
 4551poe    c2320044   2.123   1.788   6.685  0.2115 -0.1599 -0.6626
 4551poe     o220045   2.097   1.833   6.554  0.6198  0.0244 -0.6835
 4551poe    c2320046   2.175   1.949   6.536 -0.2624  0.8592  0.6531
 4551poe    c2320047   2.149   1.983   6.388 -0.2482  0.0174  0.4536
 4551poe     o220048   2.013   1.953   6.367 -0.2368  0.3346 -0.1176
 4551poe    c2320049   1.953   2.028   6.265 -0.2279  0.7550  0.1856
 4551poe    c2320050   1.826   1.945   6.237  0.4340 -0.3075  0.2889
 4551poe     o220051   1.765   1.924   6.362 -0.0585  0.7381  0.2383
 4551poe    c3120052   1.632   1.877   6.351  0.1831  0.1047 -0.0196
 4552poe    c3120053   4.834   7.456   5.935 -0.5693  0.2448 -0.5289
 4552poe     o220054   4.942   7.408   6.013 -0.4480 -0.1879 -0.9591
 4552poe    c2320055   5.021   7.347   5.913  0.0726 -0.0886 -0.6117
 4552poe    c2320056   5.077   7.217   5.973 -0.3502  0.0551  0.1091
 4552poe     o220057   5.161   7.232   6.086  0.1897 -0.3951 -0.2242
 4552poe    c2320058   5.300   7.218   6.071  0.2117 -0.3933 -0.0233
 4552poe    c2320059   5.383   7.257   6.195  0.8806 -0.1594 -0.5339
 4552poe     o220060   5.391   7.398   6.200  0.0898 -0.1204 -0.0735
 4552poe    c2320061   5.469   7.461   6.299  0.2831  0.4519 -0.5819
 4552poe    c2320062   5.398   7.494   6.431  0.4018  0.1286 -0.4346
 4552poe     o220063   5.311   7.605   6.420  0.0015 -0.2133 -0.7218
 4552poe    c3120064   5.238   7.599   6.540  0.6210 -0.6355 -0.3598
 4553poe    c3120065   5.644   1.508   3.662 -0.0005  0.0395  0.1447
 4553poe     o220066   5.577   1.580   3.560  0.3927 -0.1784 -0.2722
 4553poe    c2320067   5.662   1.614   3.454 -0.0124  0.6210 -0.3432
 4553poe    c2320068   5.595   1.582   3.319  0.0535  0.0071 -0.2330
 4553poe     o220069   5.472   1.644   3.289  0.0156  0.1340  0.1785
 4553poe    c2320070   5.452   1.623   3.151 -0.4613 -0.3077  0.3141
 4553poe    c2320071   5.316   1.650   3.086  0.1863  0.2368 -0.8396
 4553poe     o220072   5.272   1.784   3.085 -0.2783  0.1037  0.4812
 4553poe    c2320073   5.132   1.785   3.066 -0.2648  0.3908  0.3967
 4553poe    c2320074   5.080   1.877   2.953 -0.1847 -0.0659 -0.0147
 4553poe     o220075   5.109   2.014   2.968  0.1712 -0.1971  0.5326
 4553poe    c3120076   5.070   2.084   2.852  0.0813 -0.0656  0.6423
 4554poe    c3120077   5.101   7.254   6.609 -0.0552 -0.0333 -0.3367
 4554poe     o220078   5.002   7.328   6.540 -0.5609 -0.4843 -0.1000
 4554poe    c2320079   4.897   7.372   6.623  0.1053  0.0964  0.4427
 4554poe    c2320080   4.798   7.465   6.550 -0.0961 -0.8006 -0.4398
 4554poe     o220081   4.769   7.417   6.420  0.2881  0.0175 -0.8370
 4554poe    c2320082   4.628   7.411   6.414  0.2111 -0.1547  0.6916
 4554poe    c2320083   4.598   7.328   6.288  0.1382  0.5216  0.2642
 4554poe     o220084   4.682   7.216   6.271 -0.3783  0.2028 -0.2036
 4554poe    c2320085   4.662   7.139   6.154 -0.1485 -0.4971  0.2123
 4554poe    c2320086   4.729   7.000   6.146  0.2118 -0.3001 -0.2919
 4554poe     o220087   4.870   6.999   6.145  0.2254  0.2764  0.2105
 4554poe    c3120088   4.931   6.873   6.131  0.0701  0.2254 -0.0238
 4555poe    c3120089   6.791   4.783   1.072 -0.4667 -0.3951 -0.3211
 4555poe     o220090   6.815   4.793   1.211 -0.2295 -0.4387 -0.3590
 4555poe    c2320091   6.830   4.929   1.245  0.1482 -0.5874  0.0802
 4555poe    c2320092   6.864   4.938   1.395 -0.0806  0.0831  0.0968
 4555poe     o220093   6.754   4.915   1.480 -0.2792 -0.1860 -0.2278
 4555poe    c2320094   6.795   4.942   1.612 -0.3076  0.7317 -0.3959
 4555poe    c2320095   6.669   4.977   1.694 -0.2819 -0.2990  0.1023
 4555poe     o220096   6.586   4.863   1.690  0.0718 -0.5463 -0.4136
 4555poe    c2320097   6.455   4.905   1.725  0.2481 -0.1088 -0.2726
 4555poe    c2320098   6.378   4.813   1.821  0.2703 -0.2844 -0.4219
 4555poe     o220099   6.443   4.779   1.941 -0.6594 -0.0938  0.1487
 4555poe    c3120100   6.357   4.716   2.034 -0.8918 -0.2290 -0.1563
 4556poe    c3120101   4.862   1.844   3.659  0.1970 -0.4439  0.1435
 4556poe     o220102   4.954   1.746   3.702  0.2030 -0.4014  0.2278
 4556poe    c2320103   4.897   1.645   3.783 -0.1527 -0.3296  0.0704
 4556poe    c2320104   5.021   1.567   3.831  0.2709  0.0867 -0.3387
 4556poe     o220105   5.097   1.543   3.715 -0.0911 -0.3541 -0.4863
 4556poe    c2320106   5.188   1.437   3.737 -0.3560 -0.4573  0.1530
 4556poe    c2320107   5.283   1.411   3.618 -0.0649 -0.1047  0.3047
 4556poe     o220108   5.205   1.365   3.510 -0.1451 -0.3065  0.4491
 4556poe    c2320109   5.270   1.387   3.387 -0.1659 -0.2744  0.4440
 4556poe    c2320110   5.195   1.314   3.274 -0.1672 -0.8476  0.8102
 4556poe     o220111   5.098   1.391   3.207  0.4387 -0.6884  0.0947
 4556poe    c3120112   5.072   1.349   3.075 -0.6255  0.0113  0.0694
 4557poe    c3120113   4.053   2.308   3.228  0.4908  0.6611 -0.1724
 4557poe     o220114   3.986   2.390   3.321 -0.7467 -0.1268 -0.3514
 4557poe    c2320115   3.938   2.305   3.422 -1.2297  0.1720 -0.3290
 4557poe    c2320116   3.878   2.382   3.542 -0.2730  0.1786  0.1507
 4557poe     o220117   3.767   2.452   3.492 -0.1396  0.3833  0.1377
 4557poe    c2320118   3.783   2.592   3.502  0.6413  0.2352  0.9534
 4557poe    c2320119   3.644   2.657   3.507  0.0111 -0.9929  0.1185
 4557poe     o220120   3.572   2.643   3.387  0.8782  0.3702 -0.5891
 4557poe    c2320121   3.451   2.715   3.383  0.8815  0.3931 -0.2918
 4557poe    c2320122   3.387   2.714   3.243 -0.3373  0.5172  0.2518
 4557poe     o220123   3.472   2.794   3.164 -0.0684 -0.3621 -0.3572
 4557poe    c3120124   3.408   2.854   3.053 -0.1641  0.2502  0.0259
 4558poe    c3120125   7.500   0.838   1.642  0.0583 -0.2715  0.1523
 4558poe     o220126   7.490   0.880   1.508  0.0843 -0.2304  0.1629
 4558poe    c2320127   7.612   0.933   1.460  0.3587 -0.0282  1.0719
 4558poe    c2320128   7.652   1.071   1.517 -0.2189  0.3536  0.5571
 4558poe     o220129   7.775   1.097   1.453 -0.2497 -0.0916  0.3091
 4558poe    c2320130   7.826   1.207   1.525  0.0673  0.0221 -0.0874
 4558poe    c2320131   7.956   1.273   1.475  0.2359  0.2644  0.6567
 4558poe     o220132   8.068   1.213   1.536  0.2165 -0.1201  0.3108
 4558poe    c2320133   8.191   1.250   1.479  0.1437 -0.1913  0.1045
 4558poe    c2320134   8.301   1.145   1.507  0.6782  0.1547 -0.6572
 4558poe     o220135   8.356   1.144   1.637  0.4532 -0.0454 -0.5634
 4558poe    c3120136   8.437   1.252   1.677  0.1470  0.0984 -0.3256
 4559poe    c3120137   1.100   1.556   0.532 -0.1637 -0.2125  0.0627
 4559poe     o220138   1.185   1.501   0.433 -0.1697  0.3266 -0.2447
 4559poe    c2320139   1.163   1.362   0.427  0.3547  0.2530 -0.4749
 4559poe    c2320140   1.281   1.275   0.475 -0.0598 -0.2392 -0.3374
 4559poe     o220141   1.306   1.283   0.614  0.7392 -0.0077 -0.4911
 4559poe    c2320142   1.441   1.265   0.650  0.5497  0.0660  0.2642
 4559poe    c2320143   1.464   1.306   0.797  0.0644  0.1367  0.3212
 4559poe     o220144   1.406   1.222   0.894 -0.1649 -0.6835 -0.5169
 4559poe    c2320145   1.438   1.255   1.027 -0.3564 -1.0488 -0.3775
 4559poe    c2320146   1.396   1.140   1.121 -0.5085 -0.1983  0.6118
 4559poe     o220147   1.486   1.032   1.131  0.1455  0.2874  0.0842
 4559poe    c3120148   1.553   1.033   1.255 -0.1847  0.6004  0.2630
 4560poe    c3120149   0.055   4.929   5.920 -0.0713  0.5207  0.6569
 4560poe     o220150  -0.057   4.897   5.841  0.1077  0.0591  0.5845
 4560poe    c2320151  -0.131   4.788   5.891 -0.2827  0.2106  0.3460
 4560poe    c2320152  -0.259   4.765   5.809  0.1258 -0.7633 -0.0351
 4560poe     o220153  -0.353   4.868   5.787 -0.0501 -0.8477  0.3166
 4560poe    c2320154  -0.425   4.876   5.907  0.6676  0.1968  0.6896
 4560poe    c2320155  -0.480   5.020   5.912  0.2374  0.0965 -0.7697
 4560poe     o220156  -0.577   5.051   5.815 -0.8797 -0.0771  0.2729
 4560poe    c2320157  -0.579   5.191   5.797  0.5224 -0.0618  0.1557
 4560poe    c2320158  -0.693   5.273   5.859  0.1469 -0.6486  0.2576
 4560poe     o220159  -0.812   5.223   5.804  0.0147  0.0130 -0.0690
 4560poe    c3120160  -0.924   5.254   5.884 -0.5075 -0.8542 -0.4513
 4561poe    c3120161   0.118   0.940   2.553  0.5740  0.2245 -0.6152
 4561poe     o220162   0.236   0.939   2.629  0.2914  0.3094 -0.1747
 4561poe    c2320163   0.208   1.000   2.753 -0.0752 -0.0998 -0.0547
 4561poe    c2320164   0.304   0.975   2.872 -0.0156 -0.1843 -0.1204
 4561poe     o220165   0.430   1.037   2.867  0.0564 -0.3514 -0.3874
 4561poe    c2320166   0.523   0.959   2.795 -0.1253 -0.0486 -0.9572
 4561poe    c2320167   0.635   1.057   2.755 -0.0805  0.1417 -0.3772
 4561poe     o220168   0.714   1.119   2.854  0.0432 -0.3259 -0.1828
 4561poe    c2320169   0.820   1.045   2.911 -0.1391 -0.3208  0.1612
 4561poe    c2320170   0.891   1.135   3.014  0.0045  0.4750 -0.6251
 4561poe     o220171   0.802   1.190   3.109  0.0643 -0.0613 -0.2589
 4561poe    c3120172   0.853   1.213   3.238 -0.1583  0.0079 -0.1831
 4562poe    c3120173   3.663   5.186   2.819 -0.1705  0.8310 -0.1488
 4562poe     o220174   3.532   5.228   2.788 -0.4642 -0.2578 -0.4178
 4562poe    c2320175   3.445   5.132   2.844 -0.2319 -0.4220 -0.3329
 4562poe    c2320176   3.299   5.179   2.826 -0.4415 -0.6932  0.6378
 4562poe     o220177   3.263   5.300   2.890 -0.2262 -0.2693 -0.0384
 4562poe    c2320178   3.131   5.329   2.849 -0.0399  0.1540 -0.3485
 4562poe    c2320179   3.047   5.438   2.917  0.4546  0.3639 -0.0693
 4562poe     o220180   2.999   5.420   3.048  0.0876  0.2482 -0.2190
 4562poe    c2320181   2.985   5.532   3.133 -0.1346  0.2398 -0.2445
 4562poe    c2320182   2.902   5.484   3.253 -0.0125  0.0680 -0.2287
 4562poe     o220183   2.864   5.596   3.329 -0.5787 -0.1527 -0.1752
 4562poe    c3120184   2.785   5.567   3.441  0.4471 -0.4616  0.4872
 4563poe    c3120185   3.568   0.882   5.907 -0.0077  0.3368  0.0713
 4563poe     o220186   3.699   0.916   5.946  0.0415  0.1603  0.0608
 4563poe    c2320187   3.725   1.045   5.895  0.1823  0.1435  0.0882
 4563poe    c2320188   3.865   1.092   5.938  0.3833  0.2321 -0.6446
 4563poe     o220189   3.961   1.041   5.848  0.4029 -0.7818 -0.0693
 4563poe    c2320190   4.090   1.066   5.899  0.2484 -0.0564 -0.0140
 4563poe    c2320191   4.201   1.052   5.793  0.4750 -0.2615  0.2492
 4563poe     o220192   4.197   1.147   5.689 -0.2425 -0.2719  0.2609
 4563poe    c2320193   4.323   1.163   5.626  0.0535  0.7414  1.0976
 4563poe    c2320194   4.303   1.253   5.503  0.0233  0.6464  1.0324
 4563poe     o220195   4.297   1.386   5.552 -0.3730  1.0182 -0.0027
 4563poe    c3120196   4.207   1.460   5.473 -0.5342  0.2436 -0.5681
 4564poe    c3120197   5.987   4.700   1.911 -0.2184 -0.2244  0.0180
 4564poe     o220198   5.959   4.696   2.049  0.0922  0.4277  0.1028
 4564poe    c2320199   5.936   4.561   2.084  0.2020  0.3494 -0.1249
 4564poe    c2320200   5.840   4.552   2.204 -0.3008  0.4773 -0.5155
 4564poe     o220201   5.890   4.620   2.317 -0.0229 -0.3288 -0.1503
 4564poe    c2320202   5.805   4.626   2.430  0.0437  0.2519 -0.1309
 4564poe    c2320203   5.846   4.731   2.534 -0.0323  0.1034  0.0493
 4564poe     o220204   5.973   4.732   2.596 -0.0462 -0.8726  0.1087
 4564poe    c2320205   6.001   4.628   2.687  0.0295 -0.3852  0.6487
 4564poe    c2320206   6.143   4.627   2.747  0.5084 -0.5723 -0.4559
 4564poe     o220207   6.247   4.641   2.653  0.6016  0.0453 -0.2656
 4564poe    c3120208   6.373   4.641   2.716  0.4118  0.6284  0.1264
 4565poe    c3120209   7.339   6.170   3.274 -0.1520 -0.0221 -0.1743
 4565poe     o220210   7.406   6.284   3.324 -0.3124  0.0787 -0.1905
 4565poe    c2320211   7.356   6.334   3.446  0.5369 -0.2300  0.2927
 4565poe    c2320212   7.447   6.443   3.506  0.0234 -0.0435  0.7398
 4565poe     o220213   7.484   6.552   3.425 -0.1754 -0.3446  0.2381
 4565poe    c2320214   7.625   6.561   3.430 -0.1226 -0.4936 -0.7751
 4565poe    c2320215   7.685   6.651   3.320 -0.2814  0.1252 -0.3583
 4565poe     o220216   7.651   6.603   3.192 -0.4403 -0.5025 -0.0893
 4565poe    c2320217   7.698   6.699   3.100  0.1528 -0.3711  0.3446
 4565poe    c2320218   7.583   6.786   3.045  0.0833 -0.2455  0.6876
 4565poe     o220219   7.516   6.871   3.135 -0.1276  0.0632  0.2426
 4565poe    c3120220   7.459   6.973   3.056  0.1592 -0.5386 -0.7497
 4566poe    c3120221   1.704   0.303   2.675  0.4993  0.4812  0.7036
 4566poe     o220222   1.724   0.392   2.567  0.2802 -0.1210  0.1562
 4566poe    c2320223   1.848   0.457   2.581  0.1997  0.0672 -0.0056
 4566poe    c2320224   1.892   0.538   2.457  0.2221  0.2802  0.1417
 4566poe     o220225   2.013   0.503   2.394 -0.1916 -0.1947 -0.3974
 4566poe    c2320226   2.120   0.517   2.485 -0.4611  0.0260 -0.1142
 4566poe    c2320227   2.254   0.479   2.420 -0.3699 -0.1611  0.1812
 4566poe     o220228   2.299   0.563   2.316  0.1754 -0.1206  0.4466
 4566poe    c2320229   2.420   0.514   2.262  0.2478  0.0649  0.4403
 4566poe    c2320230   2.481   0.594   2.146 -0.0966 -0.2299  0.0559
 4566poe     o220231   2.506   0.729   2.178 -0.0279 -0.2259 -0.0137
 4566poe    c3120232   2.609   0.768   2.091 -0.0531  0.3103  0.1889
 4567poe    c3120233   3.364   4.162   3.414 -0.5741  0.3072  0.4155
 4567poe     o220234   3.363   4.158   3.555  0.2696  0.4309  0.4310
 4567poe    c2320235   3.234   4.125   3.601  0.1510  0.3585  0.0579
 4567poe    c2320236   3.158   4.253   3.642  0.0290  0.1440  0.5070
 4567poe     o220237   3.023   4.233   3.679 -0.2900  0.1436 -0.6209
 4567poe    c2320238   2.980   4.351   3.742  0.0400 -0.1799  0.2258
 4567poe    c2320239   2.842   4.308   3.794  0.2820 -0.3219  0.7593
 4567poe     o220240   2.775   4.250   3.684  0.5164  0.3365  0.2613
 4567poe    c2320241   2.637   4.241   3.707  0.5181  0.0882  0.1758
 4567poe    c2320242   2.594   4.108   3.773 -0.0919  0.0938 -0.2004
 4567poe     o220243   2.670   3.993   3.745 -0.2219 -0.1525  0.4506
 4567poe    c3120244   2.609   3.875   3.790 -0.1308 -0.4499 -0.1913
 4568poe    c3120245   3.305   2.079   1.770  0.1342 -0.3384 -0.5601
 4568poe     o220246   3.232   1.978   1.704  0.4017 -0.3741 -0.8073
 4568poe    c2320247   3.224   1.857   1.776 -0.3669  0.0347 -0.1842
 4568poe    c2320248   3.134   1.751   1.710 -0.2443 -0.1675 -0.0252
 4568poe     o220249   2.996   1.779   1.713 -0.2294 -0.1723  0.8531
 4568poe    c2320250   2.924   1.673   1.654 -0.1679  0.1082  0.2721
 4568poe    c2320251   2.773   1.703   1.653 -0.1394  0.2525 -0.3063
 4568poe     o220252   2.724   1.789   1.554  0.2892  0.4321 -0.3639
 4568poe    c2320253   2.585   1.776   1.536  0.3312 -0.0735 -0.3249
 4568poe    c2320254   2.511   1.901   1.486  0.0781 -0.1750 -0.2076
 4568poe     o220255   2.521   1.923   1.347  0.8722  0.2128 -0.0910
 4568poe    c3120256   2.457   2.036   1.294 -0.1544 -0.5123 -0.4310
 4569poe    c3120257   4.753   7.001   1.289  0.2403  0.1340  0.1286
 4569poe     o220258   4.858   7.089   1.322  0.2469  0.0693  0.2825
 4569poe    c2320259   4.950   7.073   1.216  0.2676  0.0469  0.3041
 4569poe    c2320260   5.090   7.129   1.246  0.1963  0.3222  0.1232
 4569poe     o220261   5.169   7.030   1.307  0.0797 -0.1183 -0.4350
 4569poe    c2320262   5.299   7.083   1.308  0.0872 -0.1344 -0.5480
 4569poe    c2320263   5.410   6.995   1.248  0.4325 -0.0137 -0.0992
 4569poe     o220264   5.416   6.865   1.301 -0.5483 -0.0559 -0.0693
 4569poe    c2320265   5.331   6.768   1.244 -0.3300 -0.2691 -0.0337
 4569poe    c2320266   5.407   6.660   1.163  0.1428 -0.1068  0.1898
 4569poe     o220267   5.488   6.694   1.053  0.0476 -0.0582  0.1342
 4569poe    c3120268   5.406   6.717   0.941  0.5802  0.0400 -0.2360
 4570poe    c3120269   6.589   4.541   6.704 -0.6098  0.1050 -0.0575
 4570poe     o220270   6.678   4.495   6.605 -0.3826 -0.1061  0.2404
 4570poe    c2320271   6.616   4.506   6.478 -0.4567  0.2654  0.3076
 4570poe    c2320272   6.734   4.477   6.384 -0.3413  0.3830  0.4156
 4570poe     o220273   6.781   4.350   6.424 -0.0557  0.3703  0.0495
 4570poe    c2320274   6.880   4.304   6.335 -0.4128  0.0299 -0.1713
 4570poe    c2320275   6.917   4.155   6.355  0.0257  0.1500 -0.0863
 4570poe     o220276   6.936   4.141   6.494  0.0115 -0.6896 -0.1669
 4570poe    c2320277   6.967   4.007   6.526  0.2181 -0.6986 -0.4074
 4570poe    c2320278   6.982   3.991   6.678 -0.0679  0.3025 -0.2632
 4570poe     o220279   6.882   4.048   6.760  0.1621 -0.2473  0.4072
 4570poe    c3120280   6.903   4.003   6.892  0.1285 -0.2538  0.4105
 4571poe    c3120281   4.826   7.020   5.546 -0.2676 -0.3828 -0.0884
 4571poe     o220282   4.944   7.060   5.480 -0.2256  0.1772  0.3133
 4571poe    c2320283   4.975   7.005   5.354 -0.7993  0.2628  0.1333
 4571poe    c2320284   4.881   7.043   5.238 -0.5849 -0.7161 -0.3693
 4571poe     o220285   4.874   7.180   5.209  0.0406 -0.6619 -0.2761
 4571poe    c2320286   4.761   7.191   5.125 -0.3975  0.6821  0.4659
 4571poe    c2320287   4.729   7.332   5.072 -0.2589  0.5479  0.0207
 4571poe     o220288   4.657   7.404   5.170 -0.2590  0.2278  0.2565
 4571poe    c2320289   4.609   7.526   5.120 -0.4699 -0.0121 -0.1309
 4571poe    c2320290   4.529   7.612   5.220  0.0328  0.1034  0.1727
 4571poe     o220291   4.628   7.656   5.311  0.5236 -0.0511 -0.2789
 4571poe    c3120292   4.612   7.793   5.341 -0.6205 -0.2750  0.1810
 4572poe    c3120293   3.765   2.777   2.206 -0.1560  0.3252 -0.5027
 4572poe     o220294   3.804   2.901   2.262 -0.1318  0.1838 -0.2033
 4572poe    c2320295   3.943   2.916   2.279 -0.0365  0.0004 -0.7975
 4572poe    c2320296   3.976   3.040   2.364 -0.3153 -0.3755 -0.1333
 4572poe     o220297   3.918   3.153   2.301  0.7040  0.2894  0.0965
 4572poe    c2320298   3.964   3.271   2.362  0.2018  0.3856  0.2946
 4572poe    c2320299   3.909   3.399   2.296 -0.1434 -0.2943 -0.7545
 4572poe     o220300   3.775   3.420   2.334  0.0952  0.0480 -0.0900
 4572poe    c2320301   3.733   3.529   2.256  0.1265  0.2797  0.2161
 4572poe    c2320302   3.581   3.555   2.263  0.1293  0.3831 -0.1034
 4572poe     o220303   3.529   3.601   2.386 -0.4439 -0.2348 -0.1103
 4572poe    c3120304   3.390   3.577   2.384 -0.5430  0.3297  0.0059
 4573poe    c3120305   6.754   2.177   6.958  0.0705  0.5217 -0.0491
 4573poe     o220306   6.756   2.318   6.959  0.1396  0.5199  0.1126
 4573poe    c2320307   6.718   2.371   7.083  0.3067  0.5067  0.1699
 4573poe    c2320308   6.730   2.524   7.098  0.1323  0.5937 -0.5669
 4573poe     o220309   6.618   2.581   7.033 -0.3401  0.0798 -0.2103
 4573poe    c2320310   6.624   2.721   7.022  0.8495  0.0101 -0.5936
 4573poe    c2320311   6.509   2.786   6.942  0.2252 -0.1785  0.1460
 4573poe     o220312   6.537   2.778   6.804 -0.4254 -0.3013  0.0189
 4573poe    c2320313   6.467   2.865   6.718 -0.1447 -0.1844 -0.0926
 4573poe    c2320314   6.555   2.885   6.593  0.3592 -0.3102  0.2394
 4573poe     o220315   6.675   2.953   6.620  0.0957  0.1867  0.1781
 4573poe    c3120316   6.759   2.949   6.507 -0.0294 -0.3087  0.1013
 4574poe    c3120317   7.083   2.807   6.503  0.1670  0.1832 -0.2936
 4574poe     o220318   7.175   2.709   6.460 -0.0219 -0.1684  0.0911
 4574poe    c2320319   7.149   2.583   6.517 -0.0204  0.2427  1.0133
 4574poe    c2320320   7.087   2.480   6.421  0.0290  0.3686  0.8457
 4574poe     o220321   6.962   2.518   6.367  0.2557  0.1878  0.1901
 4574poe    c2320322   6.913   2.407   6.295  0.7708  0.1429 -0.0938
 4574poe    c2320323   6.763   2.410   6.260  0.6336  0.1124  0.4856
 4574poe     o220324   6.680   2.407   6.374 -0.2587 -0.1065 -0.1557
 4574poe    c2320325   6.650   2.536   6.422  0.2175  0.0479 -0.2664
 4574poe    c2320326   6.548   2.628   6.353 -0.2082  0.0749  0.3954
 4574poe     o220327   6.418   2.586   6.391 -0.2438  0.5886  0.8598
 4574poe    c3120328   6.323   2.637   6.300  0.4830 -0.1311 -0.3405
 4575poe    c3120329   6.977   7.433   7.573 -0.1697  0.0909 -0.0487
 4575poe     o220330   7.087   7.518   7.596  0.1255 -0.2062 -0.3397
 4575poe    c2320331   7.054   7.626   7.681  0.2312 -0.6874  0.3205
 4575poe    c2320332   7.172   7.707   7.738 -0.5372  0.3026  0.5214
 4575poe     o220333   7.234   7.787   7.640 -0.3729 -0.3834  0.0595
 4575poe    c2320334   7.339   7.867   7.691 -0.5837  0.4014 -0.7226
 4575poe    c2320335   7.408   7.952   7.583  0.0570  0.3502 -0.3551
 4575poe     o220336   7.336   8.069   7.549 -0.6596  0.0272  0.0433
 4575poe    c2320337   7.395   8.174   7.621  0.3072 -0.2590 -0.3173
 4575poe    c2320338   7.326   8.303   7.573  0.4563  0.0044  0.1699
 4575poe     o220339   7.369   8.419   7.642  0.2836  0.0937  0.1269
 4575poe    c3120340   7.262   8.510   7.650  0.4152  0.2124  0.5343
 4576poe    c3120341   3.294   6.112   4.081 -0.7456  0.0308 -0.3647
 4576poe     o220342   3.418   6.178   4.078 -0.3527 -0.6694  0.1440
 4576poe    c2320343   3.464   6.199   3.946  0.3259  0.0409  0.4832
 4576poe    c2320344   3.606   6.259   3.943  0.3984 -0.1507 -0.2162
 4576poe     o220345   3.643   6.309   3.817 -0.0929  0.2888 -0.1870
 4576poe    c2320346   3.739   6.408   3.846 -0.3584  0.5336 -0.1348
 4576poe    c2320347   3.822   6.446   3.722  0.1708 -0.1671 -0.0003
 4576poe     o220348   3.743   6.483   3.611 -0.0722 -0.5535  0.0418
 4576poe    c2320349   3.683   6.610   3.605  0.5193 -0.2890 -0.3473
 4576poe    c2320350   3.576   6.632   3.497  0.2883 -0.1159 -0.0841
 4576poe     o220351   3.619   6.583   3.372  0.0051 -0.6086  0.0107
 4576poe    c3120352   3.576   6.677   3.277  0.5443 -0.5109 -0.1406
 4577poe    c3120353   2.799   3.441   7.313  0.0287 -1.0006 -0.1754
 4577poe     o220354   2.809   3.461   7.452  0.2876  0.1921 -0.3587
 4577poe    c2320355   2.793   3.600   7.473  0.5347  0.1976 -0.1952
 4577poe    c2320356   2.811   3.634   7.623 -0.3470 -0.1108 -0.0136
 4577poe     o220357   2.844   3.769   7.644  0.1777 -0.2098 -0.1923
 4577poe    c2320358   2.846   3.797   7.782  1.2812 -0.5053 -0.1379
 4577poe    c2320359   2.853   3.946   7.821  0.1729 -0.4018 -0.2919
 4577poe     o220360   2.756   4.029   7.762  0.3452  0.0607  0.0717
 4577poe    c2320361   2.738   4.155   7.824 -0.1495 -0.2817  0.6413
 4577poe    c2320362   2.825   4.273   7.775 -0.0029 -0.6263  0.0565
 4577poe     o220363   2.782   4.336   7.657  0.0594 -0.3140  0.2010
 4577poe    c3120364   2.713   4.455   7.691  0.2809  0.1807 -1.0267
 4578poe    c3120365   2.669   7.049   2.970  0.1443 -0.4830  0.2686
 4578poe     o220366   2.545   7.116   2.978  0.4266  0.0803 -0.0493
 4578poe    c2320367   2.480   7.109   3.103 -0.0109 -0.1227 -0.2863
 4578poe    c2320368   2.363   7.209   3.105 -0.0176 -0.1396  0.6096
 4578poe     o220369   2.412   7.340   3.093 -0.1973 -0.0507  0.8394
 4578poe    c2320370   2.316   7.441   3.112  0.0491  0.2383  0.5595
 4578poe    c2320371   2.381   7.580   3.125 -0.2168  0.4586 -0.3891
 4578poe     o220372   2.455   7.596   3.006  0.6531 -0.0167  0.0723
 4578poe    c2320373   2.514   7.724   2.999  0.3732  0.1159  0.1132
 4578poe    c2320374   2.584   7.729   2.862  0.6020  0.5586  0.2462
 4578poe     o220375   2.662   7.614   2.837 -0.1073  0.1737 -0.1948
 4578poe    c3120376   2.759   7.649   2.741  0.3088  0.0625  0.1842
 4579poe    c3120377   3.380   1.504   4.145 -0.5010 -0.0744 -0.5596
 4579poe     o220378   3.497   1.505   4.067 -0.2405 -0.2450 -0.1753
 4579poe    c2320379   3.533   1.369   4.067  0.1994 -0.1386  0.9357
 4579poe    c2320380   3.666   1.334   3.997 -0.3913  0.0352 -0.3092
 4579poe     o220381   3.674   1.346   3.857 -0.5342 -0.3310 -0.3498
 4579poe    c2320382   3.792   1.294   3.800 -0.1292  0.1602  0.0366
 4579poe    c2320383   3.828   1.334   3.656  0.3276 -0.1589  0.0596
 4579poe     o220384   3.745   1.281   3.555 -0.1680 -0.1406  0.4540
 4579poe    c2320385   3.821   1.189   3.480 -0.5042  0.1652 -0.2725
 4579poe    c2320386   3.792   1.197   3.329  0.8305 -0.5494 -0.5818
 4579poe     o220387   3.669   1.129   3.315  0.3516  0.2172 -0.1319
 4579poe    c3120388   3.630   1.138   3.180  0.2286  0.0516 -0.1073
 4580poe    c3120389   1.367   7.071   1.724 -0.3665 -0.0345 -0.4442
 4580poe     o220390   1.363   7.163   1.831 -0.1162 -0.3149 -0.1903
 4580poe    c2320391   1.230   7.169   1.878  0.1033 -0.3767  0.4481
 4580poe    c2320392   1.249   7.245   2.010  0.5208  0.2117  0.0559
 4580poe     o220393   1.276   7.383   1.996  0.2705  0.3243  0.6299
 4580poe    c2320394   1.281   7.445   2.122  0.2083  0.3271  0.6309
 4580poe    c2320395   1.272   7.595   2.088 -0.0383  0.2522  0.3608
 4580poe     o220396   1.347   7.630   1.974 -0.0058  0.4764  0.4501
 4580poe    c2320397   1.382   7.766   1.970  0.9201  0.2346 -0.0511
 4580poe    c2320398   1.412   7.809   1.825  0.0250 -0.6673 -0.5170
 4580poe     o220399   1.319   7.786   1.722  0.0144  0.1482 -0.6929
 4580poe    c3120400   1.344   7.864   1.607 -0.3280  0.2290 -0.7131
 4581poe    c3120401   0.582   7.479   1.327  0.1678  0.2859 -0.1681
 4581poe     o220402   0.602   7.539   1.452  0.6710  0.1507 -0.1839
 4581poe    c2320403   0.481   7.609   1.471  1.1643  0.9870 -0.0552
 4581poe    c2320404   0.471   7.620   1.624  0.2110 -0.1859 -0.0187
 4581poe     o220405   0.514   7.748   1.663 -0.0963 -0.1098  0.0655
 4581poe    c2320406   0.502   7.758   1.804 -0.4454  0.2412  0.0150
 4581poe    c2320407   0.575   7.885   1.852  0.5788 -0.4342  0.2720
 4581poe     o220408   0.544   7.913   1.986 -0.4153  0.2571 -0.0932
 4581poe    c2320409   0.616   8.028   2.024  0.1110 -0.1478  0.1452
 4581poe    c2320410   0.631   8.038   2.177  0.3908 -0.3747  0.1349
 4581poe     o220411   0.518   8.059   2.259  0.1163  0.4161 -0.4285
 4581poe    c3120412   0.491   8.197   2.271 -0.5856  0.2176  0.3155
 4582poe    c3120413   4.397   4.293   5.970 -0.3803 -0.1634  0.5563
 4582poe     o220414   4.262   4.302   6.010 -0.4299  0.3561  0.2763
 4582poe    c2320415   4.224   4.186   6.080  0.3329  0.4299  0.8249
 4582poe    c2320416   4.073   4.203   6.104  0.0433 -0.1872 -0.4796
 4582poe     o220417   4.019   4.251   5.983  0.0243  0.3274 -0.2691
 4582poe    c2320418   3.878   4.249   5.980 -0.0028  0.0228  0.8103
 4582poe    c2320419   3.814   4.375   6.042  0.0150  0.3927  0.0807
 4582poe     o220420   3.862   4.488   5.974  1.0951  0.1346  0.4002
 4582poe    c2320421   3.817   4.614   6.020  0.5414  0.0555  0.0775
 4582poe    c2320422   3.838   4.712   5.903  0.0280 -0.0686 -0.1206
 4582poe     o220423   3.973   4.731   5.870  0.0147 -0.1767 -0.2403
 4582poe    c3120424   3.991   4.857   5.809  0.1587  0.1605  0.4881
 4583poe    c3120425   0.712   6.332   6.254  0.0300 -0.2494  0.5846
 4583poe     o220426   0.814   6.392   6.178 -0.3019 -0.5705 -0.1289
 4583poe    c2320427   0.800   6.410   6.039  0.3579  0.0556 -0.1201
 4583poe    c2320428   0.941   6.413   5.975  0.6094  1.0620  0.4659
 4583poe     o220429   1.020   6.312   6.031 -0.0532  0.2125 -0.1048
 4583poe    c2320430   1.131   6.276   5.951 -0.3325  0.4270 -0.5856
 4583poe    c2320431   1.191   6.148   6.012  0.1070  0.8005 -0.2290
 4583poe     o220432   1.242   6.163   6.143 -0.6332  0.1251  0.1459
 4583poe    c2320433   1.230   6.044   6.218 -0.1007 -0.1347 -0.1748
 4583poe    c2320434   1.258   6.071   6.367  0.0025 -0.5042 -0.1262
 4583poe     o220435   1.382   6.128   6.402 -0.1138 -0.7113  0.6418
 4583poe    c3120436   1.494   6.052   6.359  0.1923  0.0192  0.1144
 4584poe    c3120437   1.080   7.001   3.652  0.1522  0.4601  0.1576
 4584poe     o220438   1.142   6.903   3.733  0.1468  0.4751  0.1793
 4584poe    c2320439   1.055   6.793   3.738  0.3695  0.2890 -0.0168
 4584poe    c2320440   1.039   6.758   3.887 -0.1070 -0.5736 -0.2574
 4584poe     o220441   1.162   6.762   3.957 -0.3772 -0.5673  0.2185
 4584poe    c2320442   1.142   6.706   4.085  0.0605 -0.5916  0.2785
 4584poe    c2320443   1.264   6.732   4.175  0.4129 -0.1013 -0.3373
 4584poe     o220444   1.297   6.869   4.183  0.4827 -0.1148 -0.3969
 4584poe    c2320445   1.430   6.905   4.214  0.2931  0.5694 -0.3669
 4584poe    c2320446   1.438   7.059   4.203 -0.1368  0.6056 -0.2072
 4584poe     o220447   1.417   7.091   4.067  0.3798  0.4254 -0.3336
 4584poe    c3120448   1.408   7.232   4.075  0.0151  0.3900 -0.1077
 4585poe    c3120449   5.304   4.223   3.321  0.5118  0.2861  0.2536
 4585poe     o220450   5.305   4.363   3.335 -0.4346  0.3079  0.2006
 4585poe    c2320451   5.365   4.412   3.453  0.7786  0.1470 -0.3329
 4585poe    c2320452   5.358   4.565   3.436 -0.2223  0.0601 -0.7588
 4585poe     o220453   5.237   4.603   3.375 -0.3157 -0.4887 -0.9252
 4585poe    c2320454   5.205   4.740   3.373 -0.0624 -0.4074  0.1057
 4585poe    c2320455   5.056   4.763   3.339  0.2075  0.8928 -0.2601
 4585poe     o220456   5.032   4.701   3.215  0.2573 -0.0902  0.2137
 4585poe    c2320457   4.906   4.738   3.164  0.4740  0.6040  0.1654
 4585poe    c2320458   4.869   4.661   3.036 -0.0505  0.2547  0.5199
 4585poe     o220459   4.869   4.522   3.056 -0.0446  0.1408 -0.2490
 4585poe    c3120460   4.777   4.459   2.970  0.2586 -0.2201 -0.3145
 4586poe    c3120461   1.188   3.265   1.499 -0.0468 -0.0065 -0.5758
 4586poe     o220462   1.302   3.182   1.506 -0.0774  0.0069  0.1307
 4586poe    c2320463   1.304   3.107   1.625 -0.0551  0.1480  0.2205
 4586poe    c2320464   1.409   2.999   1.658  0.0288  0.0796 -0.2576
 4586poe     o220465   1.419   2.889   1.570 -0.0101 -0.5635  0.5228
 4586poe    c2320466   1.307   2.809   1.541 -0.0886 -0.1405 -0.3714
 4586poe    c2320467   1.352   2.671   1.489 -0.2301 -0.1212 -0.5478
 4586poe     o220468   1.413   2.678   1.363  0.0446  0.1013 -0.4016
 4586poe    c2320469   1.319   2.646   1.264 -0.4454  0.8343 -0.1838
 4586poe    c2320470   1.385   2.676   1.128 -0.4499 -0.2144 -0.4262
 4586poe     o220471   1.385   2.813   1.098  0.1063 -0.0444  0.3087
 4586poe    c3120472   1.397   2.823   0.958 -0.5696 -0.3488  0.2249
 4587poe    c3120473   5.517   2.317   3.898  0.2864  0.7197  0.1860
 4587poe     o220474   5.547   2.307   3.761  0.0838  0.1920  0.1775
 4587poe    c2320475   5.509   2.181   3.712 -0.3345  0.4092 -0.0686
 4587poe    c2320476   5.517   2.149   3.561 -0.3039 -0.5114  0.1211
 4587poe     o220477   5.650   2.124   3.521 -0.1315 -0.2224  0.5094
 4587poe    c2320478   5.649   2.032   3.414 -0.4476  0.5579 -0.1666
 4587poe    c2320479   5.763   1.928   3.414 -0.5226  0.4732  0.2369
 4587poe     o220480   5.889   1.967   3.364 -0.3893 -0.4467 -0.1514
 4587poe    c2320481   5.890   2.011   3.230 -0.0544  0.1170  0.0330
 4587poe    c2320482   6.035   2.007   3.177  0.0506  0.5238  0.2843
 4587poe     o220483   6.068   2.081   3.061 -0.0665 -0.0013 -0.0872
 4587poe    c3120484   6.207   2.097   3.056 -0.1283  0.7239  0.4296
 4588poe    c3120485   3.315   4.958   6.488 -0.5987 -0.8304  0.6879
 4588poe     o220486   3.191   4.922   6.431 -0.1554 -0.5933 -0.4734
 4588poe    c2320487   3.142   5.039   6.371  0.1287 -0.3618 -0.2557
 4588poe    c2320488   2.992   5.013   6.349  0.0155 -0.0441  0.1262
 4588poe     o220489   2.956   4.913   6.257  0.1164  0.0365 -0.0012
 4588poe    c2320490   2.970   4.942   6.119  0.2129  0.3428  0.0737
 4588poe    c2320491   2.843   4.900   6.042 -0.0751 -0.2526  0.8558
 4588poe     o220492   2.827   4.761   6.033 -0.0404 -0.1893 -0.2524
 4588poe    c2320493   2.724   4.735   5.940 -0.7264  0.7798  0.2266
 4588poe    c2320494   2.707   4.583   5.954 -0.4787  0.7521  0.2207
 4588poe     o220495   2.680   4.548   6.088  0.1024 -0.4255  0.0500
 4588poe    c3120496   2.650   4.414   6.119 -0.7044 -0.1926  0.3005
 4589poe    c3120497   6.466   1.642   5.143  0.1312  0.1850 -0.2995
 4589poe     o220498   6.447   1.780   5.168 -0.0121  0.2015 -0.4932
 4589poe    c2320499   6.564   1.848   5.208  0.2634 -0.2650 -0.4980
 4589poe    c2320500   6.555   1.890   5.356 -0.2784 -0.7648 -0.3821
 4589poe     o220501   6.538   1.786   5.449 -0.1786 -0.2778  0.1896
 4589poe    c2320502   6.654   1.710   5.479 -0.0247 -0.0695  0.1239
 4589poe    c2320503   6.625   1.587   5.567 -0.3238 -0.1017 -0.0167
 4589poe     o220504   6.587   1.640   5.692 -0.1364  0.3009 -0.1265
 4589poe    c2320505   6.530   1.531   5.762 -0.2624  0.3175 -0.2045
 4589poe    c2320506   6.510   1.566   5.911 -0.0425 -0.3553 -0.0150
 4589poe     o220507   6.410   1.661   5.938  0.0485 -0.1443 -0.4056
 4589poe    c3120508   6.358   1.653   6.069  0.9021  0.2818 -0.0375
 4590poe    c3120509   5.885   6.148   4.598  0.4312 -0.3719  0.1442
 4590poe     o220510   5.988   6.241   4.623  0.1083 -0.1137  0.5177
 4590poe    c2320511   6.101   6.203   4.547 -0.3664 -0.0423 -0.2338
 4590poe    c2320512   6.182   6.333   4.538 -0.2840 -0.0913 -0.2008
 4590poe     o220513   6.121   6.437   4.465 -0.3558  0.1473  0.1999
 4590poe    c2320514   6.181   6.565   4.474  0.0992  0.0037 -0.6885
 4590poe    c2320515   6.115   6.647   4.362 -0.7473  0.1143 -0.1150
 4590poe     o220516   5.979   6.680   4.377 -0.7206  0.1288  0.0984
 4590poe    c2320517   5.944   6.732   4.250 -0.0679  0.0415 -0.1169
 4590poe    c2320518   5.798   6.777   4.262 -0.3215 -0.8936  0.3478
 4590poe     o220519   5.758   6.887   4.340  0.2847 -0.7265  0.4228
 4590poe    c3120520   5.621   6.881   4.372 -0.0579 -0.1165 -0.8508
 4591poe    c3120521   7.077   2.481   0.137  0.0417 -0.0898 -0.0735
 4591poe     o220522   6.974   2.431   0.054 -0.1779  0.2483 -0.0094
 4591poe    c2320523   7.021   2.346  -0.049 -0.5378  0.3652 -0.2694
 4591poe    c2320524   6.913   2.247  -0.093  0.0645 -0.4769  0.1253
 4591poe     o220525   6.878   2.152   0.006 -0.2562 -0.0382  0.4370
 4591poe    c2320526   6.764   2.080  -0.035 -0.4999  0.7022 -0.2195
 4591poe    c2320527   6.699   1.981   0.063 -0.1378 -0.0639 -0.7399
 4591poe     o220528   6.759   1.853   0.064 -0.2758 -0.1298  0.3963
 4591poe    c2320529   6.738   1.775   0.180 -0.1596  0.0945  0.5697
 4591poe    c2320530   6.834   1.655   0.188  0.0342  0.1833 -0.3012
 4591poe     o220531   6.960   1.684   0.132  0.2553  0.0632  0.1315
 4591poe    c3120532   7.059   1.596   0.181 -0.1189 -0.0535  0.6778
 4592poe    c3120533   7.343   4.988   0.414  0.8585 -0.3866 -0.4926
 4592poe     o220534   7.303   4.869   0.479 -0.4836  0.3061 -0.0022
 4592poe    c2320535   7.383   4.766   0.426 -0.1574  0.5249  0.0565
 4592poe    c2320536   7.355   4.621   0.472 -0.1749  0.4496 -0.1893
 4592poe     o220537   7.374   4.611   0.611  0.5887 -0.1877 -0.3298
 4592poe    c2320538   7.339   4.479   0.643 -0.2525  0.2269  0.4889
 4592poe    c2320539   7.395   4.464   0.786  0.2564  0.2185  0.2899
 4592poe     o220540   7.361   4.580   0.859 -0.4722  0.1841  0.0200
 4592poe    c2320541   7.420   4.565   0.986  0.8698  0.2338 -0.5708
 4592poe    c2320542   7.344   4.661   1.080  0.6074 -0.4508 -0.0755
 4592poe     o220543   7.362   4.788   1.023  0.0145 -0.3229  0.0165
 4592poe    c3120544   7.343   4.890   1.118  0.0370 -0.6524  0.3742
 4593poe    c3120545   0.258   6.848   4.698  0.2668  0.1566  0.5172
 4593poe     o220546   0.141   6.770   4.697  0.1798  0.2916 -0.1062
 4593poe    c2320547   0.030   6.856   4.682 -0.1309 -0.0399  0.2708
 4593poe    c2320548  -0.100   6.810   4.751  0.0860  0.3107  0.9243
 4593poe     o220549  -0.140   6.689   4.690  0.2692  0.8306 -0.2447
 4593poe    c2320550  -0.226   6.609   4.768  0.6257 -0.1040 -0.7974
 4593poe    c2320551  -0.277   6.491   4.682 -0.6752 -0.1665  0.0422
 4593poe     o220552  -0.163   6.414   4.653  0.2238  1.1041  0.1163
 4593poe    c2320553  -0.181   6.360   4.525  0.1432 -0.0702  0.6107
 4593poe    c2320554  -0.083   6.241   4.514  0.4502  0.1829  0.5817
 4593poe     o220555   0.048   6.292   4.508  0.6600 -0.4032  0.0164
 4593poe    c3120556   0.145   6.191   4.495  0.2567 -0.8087  0.1222
 4594poe    c3120557   6.749   0.045   7.394  0.2617  0.4495 -0.0366
 4594poe     o220558   6.755   0.004   7.259 -0.2975  0.1958  0.0118
 4594poe    c2320559   6.735  -0.134   7.245 -0.1174  0.1371  0.3258
 4594poe    c2320560   6.778  -0.178   7.104 -0.8831  0.3572  0.0224
 4594poe     o220561   6.705  -0.120   6.998 -0.6123 -0.2291 -0.4889
 4594poe    c2320562   6.569  -0.152   6.978 -0.8020  0.1128  0.2236
 4594poe    c2320563   6.502  -0.075   6.863  0.2630 -0.0979 -0.5535
 4594poe     o220564   6.487   0.057   6.910  0.0964 -0.4303  0.3394
 4594poe    c2320565   6.391   0.127   6.835  0.6569  0.1775  0.1814
 4594poe    c2320566   6.336   0.249   6.912 -0.4513 -0.1994  0.0051
 4594poe     o220567   6.249   0.211   7.017 -0.8995  0.3234 -0.1722
 4594poe    c3120568   6.229   0.310   7.114  0.4306 -0.5481  1.0251
 4595poe    c3120569   6.893   0.114   5.512 -0.6231  0.1404 -0.1155
 4595poe     o220570   6.954  -0.002   5.461 -0.4733  0.0732  0.2199
 4595poe    c2320571   6.971  -0.106   5.555  0.6028 -0.2430 -0.3076
 4595poe    c2320572   7.014  -0.243   5.499 -0.3795 -0.9921  0.7194
 4595poe     o220573   7.147  -0.249   5.452 -0.5682 -0.4085  0.0976
 4595poe    c2320574   7.178  -0.386   5.439 -0.2587 -0.3214 -0.1108
 4595poe    c2320575   7.326  -0.425   5.421 -0.2831 -0.4548 -0.0253
 4595poe     o220576   7.399  -0.404   5.540  0.5761  0.2896 -0.6765
 4595poe    c2320577   7.539  -0.406   5.525  0.6576 -0.5937  0.1233
 4595poe    c2320578   7.615  -0.373   5.654  0.3593 -0.0917  0.1701
 4595poe     o220579   7.602  -0.251   5.725  0.5697 -0.0047  0.0595
 4595poe    c3120580   7.665  -0.141   5.663  0.5307 -0.0514 -0.0620
 4596poe    c3120581   6.545   6.248   6.693 -0.8074  0.0905 -0.3096
 4596poe     o220582   6.593   6.245   6.560 -0.5431  0.0602 -0.2141
 4596poe    c2320583   6.497   6.298   6.472  0.0933  0.7624 -0.4971
 4596poe    c2320584   6.474   6.450   6.484 -0.0887  0.7109 -0.2008
 4596poe     o220585   6.595   6.523   6.478  0.3802 -0.0401  0.0259
 4596poe    c2320586   6.569   6.658   6.510  0.2736  0.1642 -0.8938
 4596poe    c2320587   6.698   6.707   6.578  0.2296 -0.6980 -0.1613
 4596poe     o220588   6.796   6.730   6.480  0.2053 -0.0554 -0.0429
 4596poe    c2320589   6.914   6.796   6.521  0.0895  0.0134  0.1747
 4596poe    c2320590   7.032   6.821   6.426 -0.4915 -0.0580 -0.5780
 4596poe     o220591   7.092   6.710   6.363 -0.3147 -0.1840 -0.1944
 4596poe    c3120592   7.174   6.728   6.249  0.4309 -0.7796  0.2359
 4597poe    c3120593   6.258   4.624   3.329 -0.8582 -0.2376 -0.5751
 4597poe     o220594   6.287   4.760   3.354  0.0072 -0.5060 -0.0623
 4597poe    c2320595   6.392   4.806   3.271  0.3315 -0.5930  0.2991
 4597poe    c2320596   6.406   4.959   3.271 -0.5557 -0.5049 -0.0471
 4597poe     o220597   6.450   5.013   3.394 -0.5183 -0.0364 -0.2655
 4597poe    c2320598   6.440   5.154   3.385  0.0121 -0.0053 -0.4217
 4597poe    c2320599   6.503   5.221   3.508 -0.2338  0.2941 -0.4589
 4597poe     o220600   6.473   5.139   3.619  0.1250  1.2676  0.3812
 4597poe    c2320601   6.544   5.174   3.736  0.6040 -0.1414  0.5368
 4597poe    c2320602   6.493   5.078   3.844  0.0404 -0.0441  0.3645
 4597poe     o220603   6.504   4.956   3.774  0.0414  0.0593  0.1840
 4597poe    c3120604   6.490   4.853   3.870  0.0691 -0.0187  0.1041
 4598poe    c3120605   0.725   0.571   0.495  0.1350  0.3924  0.1588
 4598poe     o220606   0.865   0.583   0.486  0.0902  0.8873  0.1354
 4598poe    c2320607   0.901   0.592   0.350  0.5275 -0.5672  0.1388
 4598poe    c2320608   1.052   0.625   0.345  0.3053  0.4264 -0.2252
 4598poe     o220609   1.095   0.531   0.440  0.7442  0.3913 -0.4543
 4598poe    c2320610   1.234   0.510   0.435  0.6957  0.0166 -0.2756
 4598poe    c2320611   1.260   0.378   0.511  0.0838  0.0261 -0.0458
 4598poe     o220612   1.220   0.403   0.643 -0.4026 -0.1045 -0.1641
 4598poe    c2320613   1.249   0.294   0.728  0.0045  0.5653  0.5757
 4598poe    c2320614   1.283   0.339   0.871 -0.1501  0.6491  0.5861
 4598poe     o220615   1.170   0.392   0.937 -0.6905  0.1121  0.1069
 4598poe    c3120616   1.191   0.407   1.076 -0.8493  0.1935  0.1222
 4599poe    c3120617   1.463   7.319   7.310  0.2232 -0.2029 -0.2278
 4599poe     o220618   1.355   7.308   7.220 -0.0267  0.4217 -0.0117
 4599poe    c2320619   1.258   7.217   7.267  0.3984 -0.2418 -0.3945
 4599poe    c2320620   1.174   7.159   7.152  0.5374  0.0112 -0.6243
 4599poe     o220621   1.067   7.087   7.207  0.7889 -0.2358 -0.4555
 4599poe    c2320622   1.006   7.007   7.108  0.5866 -0.4133 -0.1934
 4599poe    c2320623   0.909   6.902   7.163 -0.1122  0.3118 -0.0200
 4599poe     o220624   0.962   6.813   7.258 -0.0374  0.4413  0.0590
 4599poe    c2320625   0.888   6.798   7.377 -0.1901 -0.2847 -0.1209
 4599poe    c2320626   0.964   6.741   7.499 -0.7326 -0.5430  0.1013
 4599poe     o220627   1.000   6.605   7.499 -0.2969 -0.4280 -0.0036
 4599poe    c3120628   0.896   6.521   7.543 -0.6415  0.1566  0.3152
 4600poe    c3120629   0.884   1.957   6.675 -0.5208  0.7067  0.3568
 4600poe     o220630   0.749   1.966   6.634 -0.4223 -0.3478 -0.2478
 4600poe    c2320631   0.706   1.843   6.582 -0.4340 -0.4937  0.1032
 4600poe    c2320632   0.688   1.843   6.429  0.0391  0.3223  0.0427
 4600poe     o220633   0.582   1.918   6.377  0.1372  0.4542  0.0329
 4600poe    c2320634   0.563   1.894   6.239  0.0132  0.3969  0.0601
 4600poe    c2320635   0.413   1.896   6.202 -0.0595 -0.0966  0.3294
 4600poe     o220636   0.327   1.797   6.254 -0.2829  0.1298  0.3938
 4600poe    c2320637   0.298   1.691   6.165  0.6736  0.5076 -0.3873
 4600poe    c2320638   0.406   1.586   6.137  0.3325  0.2729 -0.8388
 4600poe     o220639   0.436   1.505   6.249  0.3622  0.7019 -0.5361
 4600poe    c3120640   0.558   1.441   6.223 -0.0072 -0.2473  0.0372
 4601poe    c3120641   6.037   6.259   3.398 -0.1786 -0.2011 -0.1564
 4601poe     o220642   6.112   6.213   3.288  0.3611  0.6137 -0.1388
 4601poe    c2320643   6.227   6.156   3.345  0.3893  0.5331 -0.2762
 4601poe    c2320644   6.266   6.044   3.246  0.9512  0.6260 -0.1618
 4601poe     o220645   6.310   6.081   3.118 -0.0380 -0.3049 -0.7835
 4601poe    c2320646   6.332   5.966   3.040 -1.2584 -0.9730 -0.1632
 4601poe    c2320647   6.331   6.013   2.893 -0.1397 -0.1720  0.0737
 4601poe     o220648   6.194   6.037   2.870 -0.0213 -0.1412 -0.6015
 4601poe    c2320649   6.122   5.924   2.826 -0.3435 -0.0683 -0.2642
 4601poe    c2320650   5.970   5.940   2.845 -0.2225  0.2613  0.4586
 4601poe     o220651   5.931   5.955   2.980 -0.1018 -0.0890  0.5339
 4601poe    c3120652   5.795   5.924   3.001 -0.0380 -0.6633  0.1292
 4602poe    c3120653   3.815   7.472   5.340  0.0121  0.7780  0.0533
 4602poe     o220654   3.888   7.516   5.453  0.3067 -0.1926  0.2515
 4602poe    c2320655   3.988   7.610   5.422  0.1865 -0.0404  0.3217
 4602poe    c2320656   4.061   7.619   5.558  0.0903  0.8494  0.3138
 4602poe     o220657   3.985   7.642   5.675  0.0428 -0.0258  0.4552
 4602poe    c2320658   4.065   7.670   5.787  0.2160  0.2561  0.2612
 4602poe    c2320659   3.973   7.734   5.893 -0.1668  0.2928 -0.0931
 4602poe     o220660   3.864   7.644   5.902 -0.1997  0.2915 -0.4600
 4602poe    c2320661   3.788   7.655   6.020 -0.0124  0.4932 -0.3561
 4602poe    c2320662   3.658   7.572   6.024 -0.0025  0.4878 -0.1175
 4602poe     o220663   3.682   7.435   6.001 -0.6242  0.2893  0.3806
 4602poe    c3120664   3.573   7.364   6.054 -0.5020 -0.5175 -0.4324
 4603poe    c3120665   2.943   6.817   1.830 -0.8314  0.6078  0.3060
 4603poe     o220666   2.996   6.900   1.730 -0.6471 -0.1213 -0.2073
 4603poe    c2320667   3.053   7.008   1.800 -0.2629 -0.3496 -0.1632
 4603poe    c2320668   3.097   7.108   1.693  0.2458 -0.1143  0.2620
 4603poe     o220669   3.180   7.198   1.763  0.4010 -0.0079 -0.0563
 4603poe    c2320670   3.225   7.301   1.677 -0.3410  0.1542 -0.2604
 4603poe    c2320671   3.223   7.448   1.724  0.4258  0.2164 -0.4086
 4603poe     o220672   3.298   7.465   1.843 -0.3259 -0.3672  0.1563
 4603poe    c2320673   3.314   7.597   1.888 -0.0020 -0.1785 -0.4900
 4603poe    c2320674   3.188   7.652   1.959  0.1978 -0.5019  0.1250
 4603poe     o220675   3.210   7.645   2.098  0.7698  0.4317  0.0919
 4603poe    c3120676   3.115   7.731   2.157 -0.2301 -0.2094 -0.5546
 4604poe    c3120677   4.205   5.626   5.228 -0.3128 -0.0087 -0.0550
 4604poe     o220678   4.120   5.528   5.282 -0.2179 -0.3507 -0.5123
 4604poe    c2320679   4.155   5.391   5.281  0.0607 -0.2945  0.3914
 4604poe    c2320680   4.063   5.318   5.380 -0.3157  0.0803  0.3236
 4604poe     o220681   3.927   5.331   5.346 -0.2488 -0.6014 -0.2334
 4604poe    c2320682   3.842   5.316   5.458 -0.6436  0.4181 -0.3806
 4604poe    c2320683   3.698   5.285   5.414 -0.7116 -0.1164  0.1997
 4604poe     o220684   3.644   5.414   5.395 -0.0049  0.1550  0.0193
 4604poe    c2320685   3.504   5.403   5.392  0.0114  0.0710 -0.4258
 4604poe    c2320686   3.439   5.539   5.425 -0.2002 -0.2091  0.3400
 4604poe     o220687   3.465   5.581   5.557  0.0854  0.2488  0.1438
 4604poe    c3120688   3.397   5.702   5.581 -0.4272 -0.2034  1.0288
 4605poe    c3120689   2.898   7.527   4.073  0.3465 -0.2614 -0.0602
 4605poe     o220690   2.794   7.489   3.985 -0.0198 -0.2506  0.3651
 4605poe    c2320691   2.814   7.362   3.929 -0.1557 -0.1691  0.1328
 4605poe    c2320692   2.781   7.346   3.779  0.2009  0.6626 -0.0369
 4605poe     o220693   2.643   7.353   3.755  0.1699 -0.3372 -0.1960
 4605poe    c2320694   2.614   7.318   3.621  0.3294 -0.0383 -0.3108
 4605poe    c2320695   2.483   7.352   3.548  0.1983 -0.2531 -0.1761
 4605poe     o220696   2.366   7.299   3.608  0.0589  0.3841  0.1160
 4605poe    c2320697   2.243   7.328   3.545  0.1899  0.0247 -0.3050
 4605poe    c2320698   2.118   7.286   3.623  0.6137 -0.9877 -0.1480
 4605poe     o220699   2.103   7.346   3.750  0.0617 -0.1680 -0.5864
 4605poe    c3120700   1.983   7.303   3.810  0.2680 -0.3173 -0.2760
 4606poe    c3120701   0.356   7.451   6.822 -0.0164 -0.1483  0.1775
 4606poe     o220702   0.222   7.495   6.830 -0.4363 -1.2314 -0.6432
 4606poe    c2320703   0.181   7.556   6.710 -0.0471 -0.6424 -0.4823
 4606poe    c2320704   0.027   7.555   6.708 -0.0600 -0.0235  0.1258
 4606poe     o220705  -0.017   7.573   6.841  0.2618 -0.5936  0.3100
 4606poe    c2320706  -0.157   7.564   6.835  0.2612 -0.2315 -0.2650
 4606poe    c2320707  -0.197   7.534   6.981 -0.5360 -0.1928 -0.4703
 4606poe     o220708  -0.110   7.428   7.014 -0.3250 -0.1560 -0.8951
 4606poe    c2320709  -0.158   7.337   7.110 -0.0252  0.6848  0.0726
 4606poe    c2320710  -0.142   7.188   7.077  0.0618  0.7189 -0.0381
 4606poe     o220711  -0.006   7.152   7.090 -0.0841  0.2324  0.2113
 4606poe    c3120712   0.010   7.015   7.062 -0.1052  0.2393  0.1655
 4607poe    c3120713   6.321   6.671   0.204  0.1815 -0.0811  0.1405
 4607poe     o220714   6.390   6.550   0.184 -0.0700 -0.1780 -0.1556
 4607poe    c2320715   6.340   6.476   0.075 -0.1463  0.5185 -0.5970
 4607poe    c2320716   6.444   6.375   0.021  0.0988  0.4642 -0.0325
 4607poe     o220717   6.560   6.433  -0.035  0.4493  0.1400  0.3522
 4607poe    c2320718   6.665   6.346  -0.073  0.0686 -0.1540 -0.0405
 4607poe    c2320719   6.771   6.414  -0.162 -0.0265 -0.0456 -0.0714
 4607poe     o220720   6.709   6.493  -0.261 -0.0649 -0.2429 -0.2035
 4607poe    c2320721   6.812   6.544  -0.343 -0.2907 -0.0253 -0.3517
 4607poe    c2320722   6.765   6.600  -0.479 -0.2278  0.1354 -0.3075
 4607poe     o220723   6.832   6.704  -0.545  0.4176  0.3684  0.6890
 4607poe    c3120724   6.800   6.830  -0.489 -0.3577  0.0948  0.8748
 4608poe    c3120725   4.203   5.682   1.491 -0.0091  0.0724  0.0978
 4608poe     o220726   4.320   5.665   1.569 -0.1387  0.0951  0.2953
 4608poe    c2320727   4.344   5.781   1.646 -0.0259 -0.2110  0.7250
 4608poe    c2320728   4.481   5.794   1.713  0.0676  0.1356  0.4716
 4608poe     o220729   4.517   5.667   1.763 -0.2929 -0.1255  0.0704
 4608poe    c2320730   4.610   5.664   1.869 -0.0091 -0.1684 -0.1778
 4608poe    c2320731   4.630   5.512   1.883 -0.0332 -0.1634 -0.0782
 4608poe     o220732   4.518   5.439   1.927 -0.3113  0.2040 -0.1733
 4608poe    c2320733   4.489   5.442   2.065  0.2179 -0.6506 -0.0358
 4608poe    c2320734   4.439   5.306   2.116 -0.5369 -0.3813 -0.0446
 4608poe     o220735   4.336   5.259   2.032 -0.5111 -0.1711 -0.1930
 4608poe    c3120736   4.323   5.119   2.040  0.3728 -0.2390  0.1359
 4609poe    c3120737   5.627   0.439   5.410  0.3892  0.2634 -0.1002
 4609poe     o220738   5.685   0.320   5.459  0.1262  0.3763  0.5040
 4609poe    c2320739   5.820   0.292   5.431 -0.0592  0.1450 -0.1929
 4609poe    c2320740   5.859   0.167   5.514 -0.0569  0.2692 -0.0063
 4609poe     o220741   5.769   0.070   5.466  0.6403 -0.5955  0.4126
 4609poe    c2320742   5.801  -0.061   5.506 -0.2974 -0.9357  0.0631
 4609poe    c2320743   5.911  -0.124   5.418 -0.1956 -0.2591 -0.3024
 4609poe     o220744   5.878  -0.168   5.288 -0.0542  0.1722 -0.4832
 4609poe    c2320745   5.974  -0.258   5.236 -0.1536 -0.1844 -0.0458
 4609poe    c2320746   5.942  -0.315   5.097  0.9492 -0.7644 -0.0690
 4609poe     o220747   5.849  -0.421   5.088  0.0310  0.0025  0.2323
 4609poe    c3120748   5.905  -0.547   5.122  0.0518 -0.0469  0.0155
 4610poe    c3120749   1.985   2.923   7.246  0.0104  0.1496 -0.0431
 4610poe     o220750   1.864   2.904   7.176  0.2303 -0.1893 -0.3368
 4610poe    c2320751   1.904   2.853   7.051 -0.0491  0.2505 -0.6090
 4610poe    c2320752   1.781   2.835   6.960 -0.3876  0.3368 -0.1736
 4610poe     o220753   1.685   2.930   7.001  0.0546  0.6379  0.1715
 4610poe    c2320754   1.565   2.935   6.927 -0.0547 -0.1370  0.2826
 4610poe    c2320755   1.485   3.060   6.969 -0.1966  0.2655 -1.1209
 4610poe     o220756   1.575   3.167   6.952 -0.0199  0.2293 -0.4261
 4610poe    c2320757   1.502   3.286   6.931 -1.0992 -0.4071 -0.3730
 4610poe    c2320758   1.602   3.403   6.925 -0.5561 -0.8364  0.1426
 4610poe     o220759   1.697   3.395   7.028 -0.1380  0.2685 -0.1435
 4610poe    c3120760   1.775   3.512   7.015 -0.4189  0.4487 -0.2176
 4611poe    c3120761   5.386   3.268   5.860 -1.3066 -0.6007  0.1497
 4611poe     o220762   5.364   3.339   5.980 -0.1844 -0.2925  0.1837
 4611poe    c2320763   5.324   3.468   5.937 -0.1012 -0.3350 -0.0238
 4611poe    c2320764   5.267   3.553   6.052 -0.2109 -0.3670 -0.0539
 4611poe     o220765   5.359   3.586   6.153 -0.4874 -0.2897  0.1722
 4611poe    c2320766   5.283   3.624   6.266 -0.2794 -0.7204  0.4574
 4611poe    c2320767   5.356   3.626   6.402  0.5266  0.4993  0.0208
 4611poe     o220768   5.429   3.506   6.407 -0.3152  0.0000  0.5683
 4611poe    c2320769   5.475   3.480   6.537  0.3773 -0.4474  0.2423
 4611poe    c2320770   5.602   3.396   6.559  0.3839 -0.3982  0.3957
 4611poe     o220771   5.609   3.279   6.482  0.4555 -0.0901 -0.0692
 4611poe    c3120772   5.531   3.173   6.534  0.6231 -0.1153  0.1316
 4612poe    c3120773   3.844   4.222   5.551 -0.1273  0.5636 -0.5375
 4612poe     o220774   3.902   4.310   5.645 -0.5390 -0.0050  0.2673
 4612poe    c2320775   3.884   4.450   5.653  0.1853  0.0955  0.2275
 4612poe    c2320776   3.957   4.518   5.536 -0.2566  0.1142 -0.0400
 4612poe     o220777   3.942   4.453   5.412 -0.1506  0.1816 -0.0879
 4612poe    c2320778   4.044   4.494   5.323  0.6400 -0.2804  0.5968
 4612poe    c2320779   4.098   4.357   5.280 -0.4414 -0.7465  0.6832
 4612poe     o220780   3.990   4.302   5.207 -0.1921 -0.3181 -0.0208
 4612poe    c2320781   4.018   4.166   5.181  0.1886 -0.3071  0.3147
 4612poe    c2320782   3.896   4.074   5.204  0.1049 -0.2963 -0.0947
 4612poe     o220783   3.785   4.119   5.129 -0.0161  0.0732  0.3043
 4612poe    c3120784   3.666   4.052   5.164 -0.1123  0.2314  0.2789
 4613poe    c3120785   5.790   3.663   3.759  0.1374 -0.4304  0.1003
 4613poe     o220786   5.916   3.719   3.789 -0.3259  0.5626  0.2385
 4613poe    c2320787   5.978   3.756   3.667 -0.2408  0.3158  0.2058
 4613poe    c2320788   6.080   3.866   3.701 -0.0264  0.1470  0.1097
 4613poe     o220789   6.155   3.815   3.809 -0.2443  0.2323  0.3035
 4613poe    c2320790   6.290   3.856   3.820 -0.2638  0.4213 -0.1357
 4613poe    c2320791   6.307   3.971   3.921  0.1695 -0.0864  0.3756
 4613poe     o220792   6.260   3.929   4.047  0.6533 -0.5997  0.3914
 4613poe    c2320793   6.269   4.029   4.147  0.0737  0.3520 -0.4869
 4613poe    c2320794   6.260   3.965   4.287  0.1792 -0.0282 -0.6522
 4613poe     o220795   6.127   3.920   4.283  0.0911  0.1654  0.0620
 4613poe    c3120796   6.058   3.928   4.406  0.2522  0.5717  0.1250
 4614poe    c3120797   4.693   1.684   0.522  0.4020  0.9935  1.1212
 4614poe     o220798   4.700   1.770   0.410  0.3738 -0.1634  0.2128
 4614poe    c2320799   4.628   1.889   0.435  0.1165 -0.2178 -0.2585
 4614poe    c2320800   4.638   1.984   0.315 -0.4867  0.4318  0.2015
 4614poe     o220801   4.593   1.924   0.196 -0.4144  0.5561  0.1111
 4614poe    c2320802   4.568   2.030   0.107  0.2147  0.3301 -0.3445
 4614poe    c2320803   4.458   1.983   0.010  0.2719  0.3201 -0.4050
 4614poe     o220804   4.519   1.869  -0.046  0.7542  0.5723 -0.3978
 4614poe    c2320805   4.443   1.832  -0.159  0.2408 -0.0443  0.1402
 4614poe    c2320806   4.481   1.692  -0.209 -0.0849  0.0523 -0.3749
 4614poe     o220807   4.616   1.675  -0.245 -0.1758  0.1399 -0.7701
 4614poe    c3120808   4.620   1.577  -0.346 -0.1986 -0.7676  0.0838
 4615poe    c3120809   0.332   5.147   3.619 -0.1908  0.1138  0.0495
 4615poe     o220810   0.355   5.073   3.737  0.4603 -0.2267 -0.2826
 4615poe    c2320811   0.252   4.983   3.771 -0.2964  0.5992 -0.3521
 4615poe    c2320812   0.252   4.849   3.696  0.4279  0.1675  0.3951
 4615poe     o220813   0.371   4.774   3.700  0.3922  0.1385  0.8795
 4615poe    c2320814   0.382   4.694   3.585  0.4694 -0.0795  1.0357
 4615poe    c2320815   0.315   4.556   3.570  0.2148  0.1367  0.0575
 4615poe     o220816   0.365   4.443   3.638  0.3306 -0.1539 -0.5067
 4615poe    c2320817   0.313   4.322   3.588 -0.1692 -0.0712 -0.1953
 4615poe    c2320818   0.165   4.279   3.584 -0.0408 -0.5317 -0.0730
 4615poe     o220819   0.104   4.270   3.711  0.1804 -0.4443  0.0402
 4615poe    c3120820  -0.014   4.192   3.708  0.1212 -0.3666  0.3400
 4616poe    c3120821   5.124   4.553   6.891 -0.2392 -0.0168  0.3349
 4616poe     o220822   5.134   4.665   6.806 -0.2237  0.2293  0.6577
 4616poe    c2320823   5.185   4.781   6.867  0.1578  0.2900  0.2204
 4616poe    c2320824   5.312   4.782   6.954  0.1900 -0.4578  0.1896
 4616poe     o220825   5.258   4.779   7.085  0.6375 -0.5038  0.3745
 4616poe    c2320826   5.344   4.843   7.176 -0.3331  0.9827  0.2792
 4616poe    c2320827   5.397   4.746   7.284 -0.5688  0.0247 -0.4473
 4616poe     o220828   5.466   4.634   7.235  0.0913  0.3656 -0.3048
 4616poe    c2320829   5.572   4.612   7.325 -0.4245 -0.0214  0.2123
 4616poe    c2320830   5.667   4.492   7.306 -0.4529  0.0262 -0.2371
 4616poe     o220831   5.589   4.375   7.303 -0.0874 -0.2155 -0.3485
 4616poe    c3120832   5.677   4.265   7.286 -0.1565 -0.3949  0.3883
 4617poe    c3120833   2.063   7.329   4.476  0.5352 -0.0505 -0.1165
 4617poe     o220834   2.098   7.267   4.597  0.4372  0.2102  0.0445
 4617poe    c2320835   2.186   7.163   4.562  0.5047  0.2004  0.2393
 4617poe    c2320836   2.263   7.096   4.679  0.1618 -0.3031  0.1804
 4617poe     o220837   2.348   7.171   4.763  0.2953  0.0106 -0.2300
 4617poe    c2320838   2.451   7.087   4.810 -0.2386 -0.2255  0.5302
 4617poe    c2320839   2.561   7.150   4.898 -0.3340  0.5531  0.1049
 4617poe     o220840   2.601   7.274   4.845 -0.6985  0.8291  0.4680
 4617poe    c2320841   2.730   7.304   4.895 -0.5325  0.3924  0.3036
 4617poe    c2320842   2.792   7.444   4.876  0.5897 -0.0913  0.3262
 4617poe     o220843   2.701   7.551   4.886  0.5783 -0.0632 -0.0626
 4617poe    c3120844   2.737   7.646   4.788 -0.1665  0.7358  0.4240
 4618poe    c3120845   0.307   1.666   7.377  0.0427  0.0405 -0.4448
 4618poe     o220846   0.349   1.532   7.363 -0.1468 -0.0221 -0.4212
 4618poe    c2320847   0.356   1.484   7.495  0.9474  0.2253 -0.3744
 4618poe    c2320848   0.369   1.331   7.498 -0.1152  0.1210 -0.4943
 4618poe     o220849   0.256   1.258   7.455 -0.0408 -0.3479  0.0816
 4618poe    c2320850   0.265   1.118   7.461  0.1563 -0.3599 -0.4541
 4618poe    c2320851   0.143   1.047   7.523  0.3382 -0.3862 -0.1229
 4618poe     o220852   0.132   1.066   7.662  0.2155 -0.1926 -0.1582
 4618poe    c2320853   0.022   1.008   7.728  0.2506 -0.6267 -0.4772
 4618poe    c2320854   0.061   0.941   7.861 -0.2371  0.2190  0.0971
 4618poe     o220855   0.118   1.038   7.947 -0.0062  0.3346 -0.1857
 4618poe    c3120856   0.156   0.971   8.065 -0.0563  0.0075 -0.3536
 4619poe    c3120857   0.144   6.773   5.099 -0.0412  0.0057 -0.0310
 4619poe     o220858   0.261   6.779   5.020  0.2805  0.2150  0.4548
 4619poe    c2320859   0.326   6.654   5.026  0.1505  0.1457  0.4407
 4619poe    c2320860   0.478   6.669   5.005  0.1079 -0.4195 -0.2905
 4619poe     o220861   0.506   6.709   4.873  0.1945  0.4564 -0.0107
 4619poe    c2320862   0.642   6.726   4.837  0.2192 -0.1471 -0.2051
 4619poe    c2320863   0.649   6.815   4.712  0.1772  0.3716  0.1604
 4619poe     o220864   0.589   6.942   4.728 -0.8507 -0.1192  0.2596
 4619poe    c2320865   0.615   7.027   4.619 -0.1739 -0.5478  0.0757
 4619poe    c2320866   0.758   7.084   4.613 -0.1955 -0.4823  0.1745
 4619poe     o220867   0.783   7.166   4.725 -0.0222 -0.1345 -0.1192
 4619poe    c3120868   0.922   7.188   4.722 -0.0189 -0.2140 -0.6883
 4620poe    c3120869   4.653   5.245   0.018  0.6701  0.3701 -0.0478
 4620poe     o220870   4.656   5.325   0.133  0.1511  1.0088 -0.4699
 4620poe    c2320871   4.679   5.459   0.096  1.3333  0.8505 -0.3352
 4620poe    c2320872   4.737   5.556   0.200  0.4315  0.8012  0.2159
 4620poe     o220873   4.876   5.544   0.221  0.4131 -0.1674 -0.1625
 4620poe    c2320874   4.907   5.467   0.335 -0.4298 -0.3600 -0.0526
 4620poe    c2320875   4.972   5.329   0.316  0.0465 -0.1704  0.1723
 4620poe     o220876   4.877   5.231   0.278 -0.2011 -0.0121  0.3812
 4620poe    c2320877   4.936   5.137   0.192 -0.0105  0.1802  0.3012
 4620poe    c2320878   4.857   5.006   0.202  0.5175 -0.1444  0.2511
 4620poe     o220879   4.847   4.969   0.338  0.2586  0.0968  0.2980
 4620poe    c3120880   4.864   4.830   0.355  0.5358 -0.0112 -0.8158
 4621poe    c3120881   1.901   5.064   7.441  0.4613  0.3778  0.4708
 4621poe     o220882   1.871   4.926   7.443  0.0715  0.4524  0.0085
 4621poe    c2320883   1.990   4.861   7.403  0.2322  0.5198  0.3725
 4621poe    c2320884   2.094   4.804   7.501  0.1370 -0.4786 -0.1018
 4621poe     o220885   2.172   4.907   7.557 -0.3844 -0.4537  0.5867
 4621poe    c2320886   2.217   4.894   7.690 -0.1506 -0.2825  0.5249
 4621poe    c2320887   2.327   4.992   7.735  0.6693 -0.6623 -0.6101
 4621poe     o220888   2.462   4.966   7.707  0.8476 -0.3782 -0.0180
 4621poe    c2320889   2.529   5.089   7.691  0.5978 -0.2033  0.2747
 4621poe    c2320890   2.646   5.067   7.593  0.3438  0.5100 -0.1972
 4621poe     o220891   2.627   5.095   7.456 -0.6061  0.2035 -0.1366
 4621poe    c3120892   2.741   5.146   7.391 -0.5374  0.4689  0.1923
 4622poe    c3120893   6.733   4.047   1.580 -0.3147 -0.7345 -0.0226
 4622poe     o220894   6.848   3.976   1.620 -0.1526 -0.4734 -0.0169
 4622poe    c2320895   6.853   3.937   1.755  0.1896 -0.2622  0.0326
 4622poe    c2320896   6.994   3.876   1.755  0.1562 -0.3385 -0.0388
 4622poe     o220897   7.092   3.973   1.725 -0.2521  0.0448 -0.1343
 4622poe    c2320898   7.222   3.920   1.731 -0.7721 -1.2858 -0.2673
 4622poe    c2320899   7.299   3.943   1.599 -0.4900  0.2465  0.1405
 4622poe     o220900   7.371   4.063   1.609 -0.2341  0.0812  0.2858
 4622poe    c2320901   7.414   4.100   1.480 -0.6879  0.2692  0.1874
 4622poe    c2320902   7.524   4.207   1.474 -0.4022  0.0055  0.7230
 4622poe     o220903   7.467   4.332   1.508  0.1796  0.4512  0.1046
 4622poe    c3120904   7.541   4.444   1.465  0.0441  0.4078 -0.2458
 4623poe    c3120905   5.465   4.474   1.061 -0.2950 -0.1062  0.0044
 4623poe     o220906   5.558   4.518   0.964 -0.5448 -0.3186 -0.3327
 4623poe    c2320907   5.593   4.653   0.983 -0.4549 -0.3353 -0.3792
 4623poe    c2320908   5.690   4.712   0.879 -0.1750 -0.5619 -0.2462
 4623poe     o220909   5.813   4.645   0.896 -0.0558 -0.1870  0.4116
 4623poe    c2320910   5.847   4.563   0.786  0.2130  0.1278  0.2570
 4623poe    c2320911   5.984   4.497   0.811  0.2423  0.0299 -0.1601
 4623poe     o220912   6.103   4.560   0.769  0.1957 -0.0436 -0.4055
 4623poe    c2320913   6.133   4.667   0.857  0.1036 -0.1187 -0.2818
 4623poe    c2320914   6.275   4.721   0.830  0.0658  0.4468  0.6058
 4623poe     o220915   6.378   4.630   0.859 -0.2598 -0.2826 -0.4710
 4623poe    c3120916   6.503   4.684   0.822 -0.3869  0.1149 -0.3234
 4624poe    c3120917   6.682   3.116   7.037 -0.0605  0.0300 -0.3124
 4624poe     o220918   6.792   3.043   6.989  0.3758 -0.0066  0.7165
 4624poe    c2320919   6.852   3.097   6.873  0.4540 -0.2454  0.6435
 4624poe    c2320920   6.972   3.009   6.836  0.2379 -0.0239 -0.6216
 4624poe     o220921   7.063   2.990   6.942 -0.3438 -0.2546 -0.1553
 4624poe    c2320922   7.192   2.971   6.887 -0.0867  0.1335  0.3108
 4624poe    c2320923   7.279   3.097   6.869 -0.1398  0.1121 -0.0902
 4624poe     o220924   7.269   3.177   6.753 -0.6850  0.4580  0.1920
 4624poe    c2320925   7.182   3.283   6.787  0.0953  1.0145  0.5126
 4624poe    c2320926   7.142   3.358   6.659 -0.1781  0.1085  0.0549
 4624poe     o220927   7.100   3.286   6.545 -0.2383 -0.7129  0.5949
 4624poe    c3120928   6.959   3.285   6.542 -0.2278 -0.2351 -0.5110
 4625poe    c3120929   6.892   2.177   2.679 -0.1209  0.6070 -0.4064
 4625poe     o220930   6.822   2.146   2.797  0.9228 -0.4596 -0.0442
 4625poe    c2320931   6.682   2.162   2.785  1.0968  0.8578 -0.4623
 4625poe    c2320932   6.626   2.196   2.924  0.4744 -0.5458 -0.3520
 4625poe     o220933   6.657   2.103   3.025 -0.6074  0.0055  0.5128
 4625poe    c2320934   6.662   2.169   3.149  0.1035  0.1222  0.4279
 4625poe    c2320935   6.694   2.072   3.264  0.1777 -0.0920  0.2251
 4625poe     o220936   6.831   2.041   3.277  0.2853 -0.0398 -0.6796
 4625poe    c2320937   6.849   1.959   3.391  0.2524  0.3601 -0.3831
 4625poe    c2320938   6.988   1.970   3.456 -0.0049 -0.7382  0.3756
 4625poe     o220939   7.088   1.936   3.363  0.1303 -0.1138  0.2894
 4625poe    c3120940   7.213   1.975   3.416  0.0116 -0.1962  0.6320
 4626poe    c3120941   3.311   7.571   0.708 -0.3080  0.1669  0.8389
 4626poe     o220942   3.214   7.665   0.668  0.2167  0.2407 -0.2842
 4626poe    c2320943   3.169   7.721   0.789  0.2463  0.1083 -0.2115
 4626poe    c2320944   3.088   7.851   0.778  0.2064  0.0986 -0.0407
 4626poe     o220945   3.147   7.949   0.695  0.3932  0.0530  0.0388
 4626poe    c2320946   3.049   8.040   0.651  0.2752 -0.0471  0.0956
 4626poe    c2320947   3.114   8.154   0.571  0.5172  0.1107  0.5170
 4626poe     o220948   3.177   8.123   0.449 -0.3217 -0.1431  0.1464
 4626poe    c2320949   3.218   8.248   0.399  0.5042 -0.1766  0.7409
 4626poe    c2320950   3.361   8.252   0.340  0.2280 -0.8883  0.0175
 4626poe     o220951   3.469   8.269   0.429  0.2522 -0.4388 -0.0983
 4626poe    c3120952   3.472   8.402   0.475 -0.3007 -0.1829 -0.7827
 4627poe    c3120953   1.244   3.187   5.843 -1.1215  0.1064  0.0429
 4627poe     o220954   1.244   3.047   5.855 -0.0091  0.0946 -0.0596
 4627poe    c2320955   1.341   2.975   5.782 -0.3426  0.2736 -0.6854
 4627poe    c2320956   1.315   2.823   5.779  0.3501  0.1240  0.3327
 4627poe     o220957   1.185   2.784   5.743  0.5702 -0.1769 -0.1553
 4627poe    c2320958   1.175   2.643   5.743 -0.1733 -0.1288  0.3011
 4627poe    c2320959   1.034   2.607   5.693 -0.1387  0.1155  0.0221
 4627poe     o220960   0.943   2.649   5.793 -0.3924 -0.6574  0.1239
 4627poe    c2320961   0.818   2.583   5.786 -0.5015 -0.4196 -0.1598
 4627poe    c2320962   0.737   2.602   5.915 -0.4153  0.5457 -0.2371
 4627poe     o220963   0.767   2.727   5.973  0.4143  0.2064  0.0840
 4627poe    c3120964   0.674   2.823   5.929  0.0371 -0.6101 -0.9306
 4628poe    c3120965   5.111   0.372   7.300 -0.1849 -0.1307  0.3564
 4628poe     o220966   5.014   0.455   7.360 -0.4281 -0.5251  0.5116
 4628poe    c2320967   5.082   0.555   7.433 -0.4306 -0.4364  0.3922
 4628poe    c2320968   4.990   0.658   7.502  0.1919  0.0146  0.5601
 4628poe     o220969   4.916   0.730   7.406  0.2871 -0.0349  0.4496
 4628poe    c2320970   4.865   0.847   7.465  0.7754  0.4762 -0.1196
 4628poe    c2320971   4.806   0.939   7.357  0.4691  0.4205  0.0007
 4628poe     o220972   4.904   0.986   7.267  0.1058 -0.1978 -0.7333
 4628poe    c2320973   4.843   1.073   7.174 -0.6586  0.1925  0.1174
 4628poe    c2320974   4.928   1.099   7.048 -0.7169  0.2939  0.0981
 4628poe     o220975   4.968   0.969   7.009 -0.0339  0.5007  0.1052
 4628poe    c3120976   4.903   0.938   6.888 -0.2018 -0.4963  0.4470
 4629poe    c3120977   1.879   1.235   5.761  0.5975 -0.1815  0.5518
 4629poe     o220978   1.776   1.177   5.684  1.0337 -0.2977  0.0471
 4629poe    c2320979   1.845   1.106   5.584  0.3077 -0.7085 -0.1692
 4629poe    c2320980   1.778   1.062   5.453 -0.3940  0.5088 -0.2314
 4629poe     o220981   1.655   0.994   5.470  0.2968 -0.6187  0.3648
 4629poe    c2320982   1.590   0.922   5.368 -0.2374  0.4858 -0.0862
 4629poe    c2320983   1.568   0.998   5.236  0.4983  0.1013 -0.4335
 4629poe     o220984   1.482   1.109   5.244  0.0327 -0.2741 -0.1844
 4629poe    c2320985   1.350   1.088   5.201 -0.3046  0.4492  0.4677
 4629poe    c2320986   1.258   1.210   5.184 -0.3630  0.3273 -0.1251
 4629poe     o220987   1.247   1.301   5.292 -0.2206  0.5906 -0.3320
 4629poe    c3120988   1.159   1.407   5.263  0.1056  0.9120 -0.1491
 4630poe    c3120989   3.634   1.844   5.319 -0.0691  0.6993 -0.0313
 4630poe     o220990   3.692   1.871   5.193 -0.0279 -0.1341 -0.1909
 4630poe    c2320991   3.589   1.854   5.098 -0.0637 -0.0684 -0.1639
 4630poe    c2320992   3.656   1.840   4.960 -0.0235 -0.1678 -0.1346
 4630poe     o220993   3.736   1.727   4.936  0.3960  0.1192 -0.1026
 4630poe    c2320994   3.796   1.729   4.808  0.1615  0.3056 -0.2111
 4630poe    c2320995   3.927   1.809   4.797  0.5285 -0.2483  0.0521
 4630poe     o220996   4.029   1.754   4.878  0.2429  0.4287  0.8937
 4630poe    c2320997   4.151   1.824   4.879  0.3227  0.3411 -0.6343
 4630poe    c2320998   4.272   1.738   4.920 -0.0998  0.2366  0.4104
 4630poe     o220999   4.266   1.713   5.059 -0.2147 -0.0629  0.3520
 4630poe    c3121000   4.368   1.630   5.110  0.0160  0.0868  0.1342
 4631poe    c3121001   4.295   6.019   6.707  0.1517  0.3299  0.0463
 4631poe     o221002   4.282   5.933   6.817 -0.0389  0.1366 -0.1261
 4631poe    c2321003   4.279   6.004   6.939  0.2384 -0.5668  0.2984
 4631poe    c2321004   4.382   5.955   7.042  0.4145 -0.1137  0.3389
 4631poe     o221005   4.341   5.835   7.104 -0.5832  0.0316 -0.0272
 4631poe    c2321006   4.428   5.832   7.214 -0.2713  0.5402 -0.2534
 4631poe    c2321007   4.425   5.686   7.266 -0.3695  0.6246 -0.0183
 4631poe     o221008   4.534   5.612   7.215  0.0721  0.6414  0.8930
 4631poe    c2321009   4.545   5.480   7.265  0.3508  0.2516 -0.1674
 4631poe    c2321010   4.692   5.433   7.261  0.4343  0.5099 -0.1859
 4631poe     o221011   4.749   5.455   7.134  0.2471  0.2458 -0.3164
 4631poe    c3121012   4.877   5.398   7.119  0.1081  0.0225 -0.6873
 4632poe    c3121013   5.757   0.789   4.044  0.3461  0.0500 -0.0554
 4632poe     o221014   5.717   0.677   3.968  0.1368  0.1345 -0.0681
 4632poe    c2321015   5.660   0.571   4.042 -0.1538  0.4387  0.1466
 4632poe    c2321016   5.539   0.505   3.973 -0.0224 -0.0102  0.3459
 4632poe     o221017   5.569   0.454   3.845  0.2378 -0.2882  0.5138
 4632poe    c2321018   5.446   0.411   3.791  0.1194  0.2327  0.3649
 4632poe    c2321019   5.384   0.514   3.693  0.3344 -0.0300 -0.0512
 4632poe     o221020   5.448   0.534   3.569  0.3314 -0.1125 -0.0660
 4632poe    c2321021   5.358   0.499   3.466  0.2489  0.2683 -0.1246
 4632poe    c2321022   5.417   0.499   3.324  0.7004 -0.0011  0.0607
 4632poe     o221023   5.484   0.621   3.298  0.1853  0.2616 -0.0351
 4632poe    c3121024   5.569   0.598   3.188 -0.2576 -0.5161 -0.2249
 4633poe    c3121025   7.258   0.065   2.848 -0.8457 -0.1446 -0.0045
 4633poe     o221026   7.309  -0.039   2.768 -0.6087 -0.4222  0.5017
 4633poe    c2321027   7.426  -0.091   2.825 -0.0200  0.3057 -0.0280
 4633poe    c2321028   7.488  -0.210   2.750  0.2470  0.3531  0.1139
 4633poe     o221029   7.567  -0.193   2.635  0.1646 -0.0609 -0.0072
 4633poe    c2321030   7.490  -0.128   2.536 -0.3214 -0.3374  0.1878
 4633poe    c2321031   7.569  -0.039   2.439 -0.6576 -0.7262 -0.4505
 4633poe     o221032   7.492   0.022   2.339 -0.0787  0.1473 -0.3795
 4633poe    c2321033   7.563   0.130   2.282  0.4186 -0.3173 -0.6436
 4633poe    c2321034   7.489   0.195   2.163  0.4681  0.4853 -0.2360
 4633poe     o221035   7.365   0.258   2.188  0.0935 -0.1339 -0.5399
 4633poe    c3121036   7.323   0.336   2.079  0.1969  0.2324 -0.3194
 4634poe    c3121037   5.937   2.010   1.640  0.7107  0.6348  0.1514
 4634poe     o221038   5.953   1.944   1.763  0.2099  0.0964 -0.0638
 4634poe    c2321039   5.968   2.030   1.874 -0.1038  0.1747 -0.0830
 4634poe    c2321040   5.966   1.960   2.011 -0.0496  0.0832 -0.1294
 4634poe     o221041   6.060   1.856   2.025 -0.5540 -0.3442  0.0965
 4634poe    c2321042   6.166   1.893   2.111 -0.5856 -0.1534  0.0528
 4634poe    c2321043   6.288   1.804   2.078 -0.3363  0.3242 -0.3265
 4634poe     o221044   6.244   1.671   2.089  0.1239  0.2160  0.2726
 4634poe    c2321045   6.329   1.588   2.012  0.2608 -0.3153  0.9855
 4634poe    c2321046   6.279   1.442   2.010 -0.2159 -0.1527  0.4462
 4634poe     o221047   6.148   1.430   1.961  0.0629  0.6421 -0.5252
 4634poe    c3121048   6.105   1.296   1.954 -0.2345  0.7053  0.1015
 4635poe    c3121049   1.873   1.569   5.522  0.0195  0.6807 -0.0932
 4635poe     o221050   1.751   1.538   5.586  0.1661  0.2223 -0.0340
 4635poe    c2321051   1.691   1.652   5.644  0.3168 -0.0641  0.7014
 4635poe    c2321052   1.550   1.639   5.703  0.2256  0.1455  0.5327
 4635poe     o221053   1.536   1.578   5.829  0.3366  0.1134  0.5294
 4635poe    c2321054   1.555   1.662   5.941  0.4874  0.1731  0.4588
 4635poe    c2321055   1.554   1.588   6.076 -0.5111 -0.3993  0.1496
 4635poe     o221056   1.642   1.478   6.079  0.6824  0.5278  0.0110
 4635poe    c2321057   1.667   1.425   6.207  0.1930  0.5608  0.1216
 4635poe    c2321058   1.818   1.394   6.214  0.1071  0.1252  0.0576
 4635poe     o221059   1.879   1.521   6.218 -0.1696  0.2451  0.5188
 4635poe    c3121060   2.018   1.501   6.214 -0.2764 -0.5896  0.7648
 4636poe    c3121061   6.818   1.279   0.932  0.3891 -0.1812 -0.1505
 4636poe     o221062   6.713   1.186   0.943  0.0618  0.2009 -0.0508
 4636poe    c2321063   6.731   1.087   1.042  0.0846 -0.4325 -0.6787
 4636poe    c2321064   6.593   1.023   1.060  0.1427 -0.2079  0.7319
 4636poe     o221065   6.490   1.114   1.092 -0.0604 -0.2443  0.1989
 4636poe    c2321066   6.361   1.060   1.078 -0.0695 -0.1493 -0.1010
 4636poe    c2321067   6.236   1.147   1.101 -0.0427 -0.0505 -0.3342
 4636poe     o221068   6.240   1.266   1.025  0.4895 -0.0217 -0.2619
 4636poe    c2321069   6.119   1.287   0.956  0.5348 -0.4811 -0.4827
 4636poe    c2321070   6.060   1.200   0.843 -0.5373  0.4287 -0.6407
 4636poe     o221071   6.144   1.177   0.732  0.3303 -0.2297  0.1347
 4636poe    c3121072   6.061   1.145   0.623  0.5685 -0.7095  0.0918
 4637poe    c3121073   3.685   5.695   2.079  0.3800 -0.0872 -0.2906
 4637poe     o221074   3.727   5.757   1.959 -0.2865  0.0264 -0.4712
 4637poe    c2321075   3.859   5.720   1.925 -0.1189  0.3714 -0.2068
 4637poe    c2321076   3.881   5.824   1.814  0.6038  0.2574 -0.1719
 4637poe     o221077   3.804   5.790   1.701  0.1925 -0.1926  0.2399
 4637poe    c2321078   3.800   5.903   1.617  0.4612 -0.3081  0.0693
 4637poe    c2321079   3.695   5.897   1.505  0.3140  0.4979  0.1524
 4637poe     o221080   3.561   5.911   1.545  0.0845 -0.1683 -0.3598
 4637poe    c2321081   3.476   5.911   1.432 -0.2807 -0.2606 -0.0856
 4637poe    c2321082   3.333   5.863   1.465 -0.3807 -0.2740 -0.5298
 4637poe     o221083   3.323   5.724   1.487  0.0167 -0.3102 -0.5601
 4637poe    c3121084   3.197   5.676   1.444  0.2710 -0.7646 -0.8041
 4638poe    c3121085   3.697   0.075   1.851 -0.2345  0.3569  0.7282
 4638poe     o221086   3.719  -0.060   1.885  0.2429  0.1130 -0.4937
 4638poe    c2321087   3.847  -0.106   1.849  0.3891  0.3232 -0.2439
 4638poe    c2321088   3.850  -0.255   1.889  0.0272  0.3507 -0.1119
 4638poe     o221089   3.799  -0.265   2.020 -0.4690 -0.2432 -0.3467
 4638poe    c2321090   3.840  -0.380   2.091 -0.0541  0.2091  0.1602
 4638poe    c2321091   3.826  -0.359   2.243 -0.3486 -0.3821  0.2189
 4638poe     o221092   3.700  -0.304   2.273 -0.3473 -0.0488 -0.3694
 4638poe    c2321093   3.692  -0.274   2.410 -0.0267 -0.1632 -0.3249
 4638poe    c2321094   3.560  -0.199   2.435 -0.1645 -0.4529 -0.1812
 4638poe     o221095   3.554  -0.069   2.380 -0.2549 -0.2348  0.3344
 4638poe    c3121096   3.420  -0.031   2.361 -0.2304 -0.3348 -0.0533
 4639poe    c3121097   0.593   2.169   0.793 -0.1190  0.0708  0.1415
 4639poe     o221098   0.593   2.270   0.694 -0.4752  0.2987  0.3729
 4639poe    c2321099   0.528   2.240   0.573  0.2879 -0.0640  0.0446
 4639poe    c2321100   0.522   2.362   0.479  0.1058  0.4272  0.6886
 4639poe     o221101   0.651   2.417   0.491  0.5179 -0.4953  0.5515
 4639poe    c2321102   0.679   2.532   0.414  0.0749 -0.6448  0.1615
 4639poe    c2321103   0.830   2.559   0.399 -0.1814  0.9214  0.2913
 4639poe     o221104   0.900   2.564   0.521  0.0353  0.5199  0.1867
 4639poe    c2321105   1.039   2.561   0.499  0.0605 -1.0848  0.4581
 4639poe    c2321106   1.111   2.610   0.626 -0.3428  0.5995  0.0603
 4639poe     o221107   1.071   2.537   0.740  0.3877 -0.2339 -0.2064
 4639poe    c3121108   1.159   2.574   0.844  0.2869  0.1156 -0.2419
 4640poe    c3121109   4.785   3.790   7.072 -0.2236  0.8508  0.1451
 4640poe     o221110   4.900   3.744   7.138 -0.1486  0.2416 -0.4105
 4640poe    c2321111   4.949   3.830   7.237 -0.5426 -0.0087  0.0032
 4640poe    c2321112   5.065   3.767   7.317 -0.4348 -0.1344 -0.2530
 4640poe     o221113   5.032   3.657   7.398 -0.4826 -0.2557 -0.4375
 4640poe    c2321114   5.014   3.695   7.532  0.4183 -0.6787 -0.1881
 4640poe    c2321115   4.988   3.562   7.606 -0.4155 -0.8047 -0.6946
 4640poe     o221116   5.096   3.471   7.609  0.2580  0.0096  0.2819
 4640poe    c2321117   5.100   3.372   7.710  0.9131 -0.1161  0.1418
 4640poe    c2321118   5.235   3.299   7.713  1.1391  0.2796 -0.2329
 4640poe     o221119   5.235   3.208   7.606 -0.3001  0.0750 -0.0761
 4640poe    c3121120   5.337   3.116   7.639 -0.2316  0.2445  0.1915
 4641poe    c3121121   7.541   1.857   1.014  0.2541  0.2241 -0.5054
 4641poe     o221122   7.601   1.918   0.902  0.6618  0.4013 -0.1871
 4641poe    c2321123   7.516   2.013   0.841 -0.2014 -0.1752  0.1027
 4641poe    c2321124   7.578   2.121   0.750  0.0159 -0.1604  0.2689
 4641poe     o221125   7.610   2.080   0.619 -0.5141  0.7219 -0.1457
 4641poe    c2321126   7.631   2.203   0.553  0.2043  0.6090 -0.1437
 4641poe    c2321127   7.669   2.164   0.410  0.7007 -0.5826  0.3006
 4641poe     o221128   7.794   2.100   0.391  0.8478 -0.0997 -0.4016
 4641poe    c2321129   7.813   2.072   0.254 -0.7771 -0.7997 -0.5038
 4641poe    c2321130   7.962   2.062   0.219 -0.4517 -0.2917  0.6777
 4641poe     o221131   8.034   1.971   0.299  0.0517  0.0248  0.5934
 4641poe    c3121132   8.152   1.923   0.239  0.2138  0.6815  0.3837
 4642poe    c3121133   7.087   1.546   4.503 -0.1189  0.1843  0.4365
 4642poe     o221134   7.023   1.672   4.517 -0.0223  0.3169 -0.2895
 4642poe    c2321135   6.919   1.677   4.422 -0.0667  0.4365 -0.2333
 4642poe    c2321136   6.799   1.765   4.462 -0.2977  0.1586 -0.3094
 4642poe     o221137   6.800   1.895   4.407 -0.5124  0.2618 -0.0727
 4642poe    c2321138   6.691   1.972   4.451 -0.4673  0.1009  0.3256
 4642poe    c2321139   6.733   2.110   4.507  0.0310 -0.1731  0.6303
 4642poe     o221140   6.777   2.185   4.396  0.6686 -0.1118  0.9221
 4642poe    c2321141   6.821   2.308   4.447 -0.0558  0.2765  0.6161
 4642poe    c2321142   6.899   2.396   4.347 -0.3457 -0.4147 -0.2278
 4642poe     o221143   7.014   2.324   4.307  0.2208  0.1694  0.3316
 4642poe    c3121144   7.099   2.411   4.236  0.4576 -0.0507  0.3441
 4643poe    c3121145   0.296   5.868   1.164 -0.0506  0.0324 -0.1084
 4643poe     o221146   0.255   5.985   1.096  0.2224 -0.0574 -0.4303
 4643poe    c2321147   0.360   6.078   1.084  0.0378  0.1634 -0.3601
 4643poe    c2321148   0.318   6.173   0.970  0.0894  0.3719 -0.2063
 4643poe     o221149   0.306   6.106   0.846 -0.1041  0.1456 -0.0667
 4643poe    c2321150   0.430   6.109   0.780 -0.1961 -0.4056 -0.2649
 4643poe    c2321151   0.416   6.140   0.629  0.1662  0.2348 -0.1682
 4643poe     o221152   0.379   6.273   0.603 -0.5678  0.0554 -0.0446
 4643poe    c2321153   0.386   6.297   0.464  0.7041 -0.2507 -0.0436
 4643poe    c2321154   0.384   6.449   0.445  0.1714 -0.2308  0.1518
 4643poe     o221155   0.261   6.514   0.472  0.3091  0.2029 -0.2458
 4643poe    c3121156   0.280   6.653   0.465 -0.0547  0.2720  0.1180
 4644poe    c3121157   6.910   5.908   0.368  0.3132 -0.2145  0.3562
 4644poe     o221158   6.813   6.003   0.406 -0.2470 -0.7863  0.3731
 4644poe    c2321159   6.709   5.943   0.481 -0.5152 -0.1535  0.5094
 4644poe    c2321160   6.659   6.050   0.580  0.5765  0.8546 -0.0037
 4644poe     o221161   6.599   6.162   0.518 -0.0251  0.3783 -0.2943
 4644poe    c2321162   6.527   6.231   0.618 -0.2869 -0.0820 -0.1627
 4644poe    c2321163   6.398   6.283   0.552 -0.2377  0.0731 -0.1377
 4644poe     o221164   6.312   6.203   0.474 -0.4578 -0.0362  0.2155
 4644poe    c2321165   6.203   6.275   0.420 -0.3043  0.1803  0.1936
 4644poe    c2321166   6.145   6.191   0.305  0.6248 -0.6660  0.3279
 4644poe     o221167   6.238   6.150   0.208  0.2950 -0.3703 -0.1157
 4644poe    c3121168   6.178   6.099   0.091 -0.0963 -0.6869  0.2222
 4645poe    c3121169   7.194   6.965   5.763 -0.0453 -0.7972  0.1724
 4645poe     o221170   7.059   6.924   5.759 -0.3241  0.1013  0.0111
 4645poe    c2321171   7.001   6.915   5.887  0.6120  0.4628  0.4736
 4645poe    c2321172   6.934   7.045   5.935  0.2193  0.5497 -0.2879
 4645poe     o221173   6.823   7.094   5.864 -0.0133  0.0919 -0.2431
 4645poe    c2321174   6.792   7.227   5.899  0.5954  0.2919 -0.4444
 4645poe    c2321175   6.691   7.300   5.808 -0.3043  0.2712  0.5231
 4645poe     o221176   6.569   7.230   5.796 -0.1342  0.0102  0.3366
 4645poe    c2321177   6.474   7.285   5.884 -0.9097 -0.8688  0.0715
 4645poe    c2321178   6.339   7.339   5.833 -0.5102  0.4798  0.3933
 4645poe     o221179   6.345   7.437   5.732  0.1645 -0.1365 -0.1800
 4645poe    c3121180   6.212   7.449   5.686  0.1791 -0.0829 -0.2085
 4646poe    c3121181   3.439   4.803   6.904 -0.7953  0.5538 -0.4193
 4646poe     o221182   3.427   4.690   6.821 -0.1832  0.5125 -0.4581
 4646poe    c2321183   3.464   4.724   6.689 -0.4693  0.1512 -0.6337
 4646poe    c2321184   3.456   4.603   6.594  0.4723 -0.5013  0.1003
 4646poe     o221185   3.325   4.552   6.576  0.4456 -0.2492 -0.4086
 4646poe    c2321186   3.316   4.487   6.451  0.0631 -0.8420 -0.0734
 4646poe    c2321187   3.206   4.380   6.466 -0.2189 -0.5832 -0.2651
 4646poe     o221188   3.112   4.447   6.547  0.1417 -0.3215 -0.0593
 4646poe    c2321189   2.982   4.393   6.560  0.0985 -0.1500  0.2338
 4646poe    c2321190   2.909   4.504   6.638  0.2769  0.1107  0.0305
 4646poe     o221191   2.973   4.543   6.758  0.6147 -0.1161 -0.0743
 4646poe    c3121192   2.880   4.574   6.858  0.6263  0.8689 -0.3578
 4647poe    c3121193   0.911   2.221   7.335  0.2551 -0.1859 -0.0224
 4647poe     o221194   0.966   2.172   7.215  0.2980 -0.1566 -0.0147
 4647poe    c2321195   0.948   2.033   7.213  0.0547 -0.1261  0.0550
 4647poe    c2321196   0.929   1.970   7.074  0.0556  0.0499 -0.0244
 4647poe     o221197   0.808   2.009   7.013 -0.0492 -0.0734  0.1037
 4647poe    c2321198   0.709   1.909   7.015  0.0748 -0.2200 -0.6566
 4647poe    c2321199   0.577   1.939   6.941 -0.2428  0.4176  0.1469
 4647poe     o221200   0.477   1.845   6.975 -0.1121  0.0773 -0.4019
 4647poe    c2321201   0.349   1.865   6.919 -0.3300 -0.1354  0.0205
 4647poe    c2321202   0.254   1.976   6.968  0.4983  0.6951 -0.2170
 4647poe     o221203   0.193   1.966   7.095  0.4225  0.3457 -0.2795
 4647poe    c3121204   0.275   2.031   7.189  0.5142 -0.1021 -0.0448
 4648poe    c3121205   3.248   6.257   1.426  0.3003 -0.2902  0.4680
 4648poe     o221206   3.200   6.314   1.546 -0.4633 -0.2326  0.1409
 4648poe    c2321207   3.318   6.339   1.619 -0.3334  0.4805 -0.2980
 4648poe    c2321208   3.296   6.396   1.760 -0.8493 -0.6867  0.1082
 4648poe     o221209   3.279   6.307   1.868  0.3309 -0.2233  0.6985
 4648poe    c2321210   3.193   6.353   1.971 -0.0137 -0.1176  0.3660
 4648poe    c2321211   3.124   6.251   2.063  0.0279 -0.1613  0.3492
 4648poe     o221212   3.063   6.151   1.984  0.5157 -0.1584 -0.0333
 4648poe    c2321213   3.049   6.026   2.049  0.5793 -0.1506 -0.0041
 4648poe    c2321214   2.921   6.004   2.131  0.1970  0.0272 -0.5469
 4648poe     o221215   2.802   6.006   2.055 -0.0118 -0.4689 -0.2308
 4648poe    c3121216   2.684   5.999   2.132  0.1803 -0.0478  0.1016
 4649poe    c3121217   4.019   2.635   5.722  0.6624 -0.9256  0.8551
 4649poe     o221218   4.115   2.655   5.621 -0.4648  0.6298  0.0443
 4649poe    c2321219   4.211   2.743   5.676  0.4968 -0.3264 -0.0633
 4649poe    c2321220   4.323   2.773   5.576  0.5597 -0.1162  0.0685
 4649poe     o221221   4.258   2.817   5.459 -0.3278 -0.1223  0.5520
 4649poe    c2321222   4.361   2.839   5.365 -0.1640 -0.1649  0.7213
 4649poe    c2321223   4.328   2.955   5.269  0.3931 -0.6008 -0.0101
 4649poe     o221224   4.203   2.923   5.212  0.5545 -0.6234 -0.3556
 4649poe    c2321225   4.163   3.035   5.136 -0.0201 -0.4750  0.1540
 4649poe    c2321226   4.015   3.036   5.093 -0.0081 -0.1669  0.1145
 4649poe     o221227   3.940   3.026   5.211 -0.2077 -0.1506 -0.0116
 4649poe    c3121228   3.801   3.009   5.193 -0.1693  0.0353 -0.4802
 4650poe    c3121229   2.717   2.319   0.421  0.2683 -0.0285  0.0164
 4650poe     o221230   2.704   2.280   0.286 -0.1793  0.2500 -0.0213
 4650poe    c2321231   2.799   2.183   0.250 -0.2814  0.0465  0.2512
 4650poe    c2321232   2.780   2.133   0.106 -0.0872  0.0424  0.2263
 4650poe     o221233   2.641   2.112   0.096 -0.1265  0.3557  0.0940
 4650poe    c2321234   2.601   2.076  -0.034 -0.6078  0.2505  0.2684
 4650poe    c2321235   2.450   2.044  -0.042 -0.5861  0.0152  0.7666
 4650poe     o221236   2.375   2.142   0.025 -0.4061  0.4359  0.3639
 4650poe    c2321237   2.237   2.111   0.032 -0.2123 -0.5225  0.1335
 4650poe    c2321238   2.158   2.228   0.094  0.0918 -0.0029 -0.4440
 4650poe     o221239   2.202   2.265   0.223  0.0355  0.0556 -0.4415
 4650poe    c3121240   2.115   2.357   0.286  0.1790  0.0233 -0.1959
 4651poe    c3121241   4.465   0.088   3.397 -0.3606 -0.0132  0.0772
 4651poe     o221242   4.524   0.015   3.502 -0.5774  0.0185  0.2237
 4651poe    c2321243   4.489   0.052   3.633  0.5884 -0.1872  0.6049
 4651poe    c2321244   4.343   0.013   3.662  0.4399 -0.1399 -0.0704
 4651poe     o221245   4.304  -0.122   3.670  0.2790 -0.0741  0.2756
 4651poe    c2321246   4.163  -0.123   3.682  0.2315 -0.3425 -0.2924
 4651poe    c2321247   4.087  -0.252   3.717  0.0059 -0.1622 -0.1144
 4651poe     o221248   4.107  -0.354   3.621 -0.1585 -0.5159  0.2243
 4651poe    c2321249   4.042  -0.476   3.646 -0.8075 -0.2386 -0.0815
 4651poe    c2321250   4.050  -0.554   3.513 -0.7027 -0.3886  0.0116
 4651poe     o221251   3.985  -0.503   3.399  0.1652  0.3319 -0.1725
 4651poe    c3121252   4.053  -0.520   3.276 -0.0224  0.6625 -0.3257
 4652poe    c3121253   3.873   4.859   4.644  0.2391 -0.4721  0.2591
 4652poe     o221254   3.794   4.843   4.759  0.2271  0.1576  0.3419
 4652poe    c2321255   3.685   4.930   4.779  0.2231  0.3606 -0.5204
 4652poe    c2321256   3.554   4.849   4.778  0.0528  0.6238 -0.0317
 4652poe     o221257   3.514   4.749   4.868  0.0747  0.2720 -0.4121
 4652poe    c2321258   3.567   4.619   4.850 -0.6844 -0.1307  0.1545
 4652poe    c2321259   3.522   4.541   4.725 -0.3609  0.0834 -0.1018
 4652poe     o221260   3.384   4.515   4.710 -0.2514 -0.4270 -0.2326
 4652poe    c2321261   3.371   4.525   4.570  0.3769 -0.5659 -0.3051
 4652poe    c2321262   3.220   4.514   4.543  0.2972  0.2628 -0.2192
 4652poe     o221263   3.147   4.620   4.601 -0.2040 -0.5628  0.6895
 4652poe    c3121264   3.011   4.586   4.586 -0.3689  0.2562  0.2604
 4653poe    c3121265   6.816   5.119   0.706  1.0133 -0.0972  0.1622
 4653poe     o221266   6.838   5.035   0.596  0.0049 -0.0165 -0.1075
 4653poe    c2321267   6.892   4.910   0.635 -0.5054 -0.3583 -0.4814
 4653poe    c2321268   6.908   4.834   0.501  0.0512 -0.6657 -0.2407
 4653poe     o221269   6.955   4.936   0.416 -0.1192 -0.3742  0.0082
 4653poe    c2321270   6.966   4.886   0.284  0.0461 -0.0251 -0.1119
 4653poe    c2321271   7.051   4.979   0.196  0.0321 -0.3457 -0.4662
 4653poe     o221272   6.986   5.104   0.193 -0.4680 -0.5999 -0.3291
 4653poe    c2321273   7.031   5.186   0.088 -0.4815  0.2008  0.2785
 4653poe    c2321274   6.942   5.163  -0.035 -0.3863  0.0987  0.2277
 4653poe     o221275   6.970   5.069  -0.136  0.1512  0.2774  0.2105
 4653poe    c3121276   6.944   5.109  -0.269  0.2167 -0.1089  0.0811
 4654poe    c3121277   5.491   6.229   1.897 -0.0575  0.0093  0.1019
 4654poe     o221278   5.367   6.262   1.839  0.3529  0.0102 -0.8018
 4654poe    c2321279   5.377   6.343   1.724  0.2838  0.2971 -0.6074
 4654poe    c2321280   5.404   6.494   1.738 -0.1765  0.3418 -0.1762
 4654poe     o221281   5.323   6.559   1.833 -0.1616 -0.1146  0.1495
 4654poe    c2321282   5.197   6.608   1.792  0.1648  0.1882 -0.4912
 4654poe    c2321283   5.192   6.740   1.714  0.3849  0.2010 -0.4871
 4654poe     o221284   5.226   6.843   1.803 -0.3461 -0.2976  0.3854
 4654poe    c2321285   5.244   6.954   1.719  0.0507 -0.1992  0.5930
 4654poe    c2321286   5.230   7.085   1.799  0.6897  0.2978 -0.0829
 4654poe     o221287   5.315   7.085   1.912 -0.1542  0.0785  0.5698
 4654poe    c3121288   5.315   7.211   1.975  0.0431  0.2925  0.1485
 4655poe    c3121289   4.731   0.447   2.438 -0.3194 -0.3731 -0.6816
 4655poe     o221290   4.690   0.331   2.507 -0.2771  0.2323  0.3849
 4655poe    c2321291   4.748   0.327   2.636  0.3130 -0.9048  0.0985
 4655poe    c2321292   4.646   0.265   2.732 -0.1670  0.1161  0.2618
 4655poe     o221293   4.653   0.125   2.752  0.2462  0.1264  0.1869
 4655poe    c2321294   4.550   0.077   2.835  0.2611  0.2311  0.2668
 4655poe    c2321295   4.596   0.034   2.976  0.0157  0.3731  0.3908
 4655poe     o221296   4.668  -0.087   2.975 -0.1417  0.2785 -0.0196
 4655poe    c2321297   4.723  -0.112   3.103 -0.2287 -0.1878 -0.0737
 4655poe    c2321298   4.876  -0.104   3.102 -0.2481  0.1647 -0.2881
 4655poe     o221299   4.931  -0.229   3.067 -0.0344  0.1500  0.0968
 4655poe    c3121300   5.071  -0.226   3.056 -0.0961  0.4622 -0.6244
 4656poe    c3121301   5.060   6.065   4.330  0.0815 -0.4548  0.0721
 4656poe     o221302   4.958   6.157   4.363 -0.0266 -0.5430 -0.0139
 4656poe    c2321303   4.968   6.273   4.283 -0.3332 -0.1468  0.5182
 4656poe    c2321304   4.844   6.363   4.303 -0.0160  0.4121  0.0030
 4656poe     o221305   4.727   6.285   4.318  0.1809  0.1520  0.1970
 4656poe    c2321306   4.616   6.371   4.327 -0.2946 -0.4816  0.5113
 4656poe    c2321307   4.487   6.305   4.277 -0.4446  0.0698  0.1544
 4656poe     o221308   4.449   6.212   4.376 -0.2539 -0.2157 -0.0364
 4656poe    c2321309   4.326   6.155   4.336 -0.2678 -0.0257 -0.2625
 4656poe    c2321310   4.326   6.042   4.231 -0.9797 -0.4697  0.2074
 4656poe     o221311   4.431   5.950   4.248 -0.3064  0.2594  0.0607
 4656poe    c3121312   4.406   5.842   4.335  0.2322  0.4985  0.5181
 4657poe    c3121313   2.074   6.309   6.865  0.6610 -0.1094 -0.1010
 4657poe     o221314   2.089   6.430   6.937  0.1839  0.1363 -0.4043
 4657poe    c2321315   2.217   6.477   6.901  0.5312 -0.1071  0.4776
 4657poe    c2321316   2.210   6.620   6.957  0.8409  0.1122 -0.0378
 4657poe     o221317   2.164   6.615   7.090  0.6966 -0.0500 -0.0936
 4657poe    c2321318   2.167   6.744   7.149 -0.5794  0.1695 -0.4711
 4657poe    c2321319   2.076   6.768   7.271 -0.1198 -0.5294  0.0243
 4657poe     o221320   1.943   6.722   7.259 -0.2583 -0.1548  0.1005
 4657poe    c2321321   1.865   6.832   7.219 -0.0650 -0.2150 -0.4563
 4657poe    c2321322   1.713   6.807   7.221 -0.0724 -0.1412  0.0521
 4657poe     o221323   1.660   6.714   7.130 -0.3046  0.2458 -0.2152
 4657poe    c3121324   1.523   6.743   7.113 -0.1869  0.8378 -0.1608
 4658poe    c3121325   4.053   5.682   6.697 -0.4132 -0.8069  0.1684
 4658poe     o221326   4.055   5.675   6.838  0.2499  0.2605  0.2208
 4658poe    c2321327   3.924   5.675   6.888 -0.0213  0.8004 -0.4646
 4658poe    c2321328   3.921   5.709   7.039  0.3692 -0.6774 -0.1047
 4658poe     o221329   3.949   5.840   7.083 -0.5274 -0.5700  0.1516
 4658poe    c2321330   3.978   5.827   7.220  0.2737  0.0808  0.0485
 4658poe    c2321331   3.993   5.969   7.277 -0.3023 -0.1004  0.6675
 4658poe     o221332   3.871   6.034   7.303 -0.2142  0.1021  0.5818
 4658poe    c2321333   3.788   5.975   7.401 -0.0084 -0.5580  0.3692
 4658poe    c2321334   3.837   5.968   7.547  0.0897  0.1221  0.3724
 4658poe     o221335   3.945   5.877   7.553  0.6780  0.7553 -0.3636
 4658poe    c3121336   4.033   5.907   7.659 -0.4855 -0.2688  0.9257
 4659poe    c3121337   3.722   5.134   6.084 -0.2839 -0.1219  0.1148
 4659poe     o221338   3.814   5.191   6.173  0.0139 -0.2996 -0.0775
 4659poe    c2321339   3.945   5.140   6.181  0.2158  0.1723 -0.3239
 4659poe    c2321340   4.043   5.210   6.277 -0.3346  0.3790  0.0889
 4659poe     o221341   4.063   5.341   6.228 -0.0725  0.2126 -0.2568
 4659poe    c2321342   4.185   5.400   6.266  0.0627 -0.0295 -0.3143
 4659poe    c2321343   4.195   5.549   6.229  0.2944  0.2543  0.8495
 4659poe     o221344   4.075   5.606   6.275 -0.4602 -0.1551 -0.5789
 4659poe    c2321345   4.079   5.747   6.268  0.1146 -0.1279  0.2160
 4659poe    c2321346   3.935   5.790   6.300  0.1393 -0.0767  0.2592
 4659poe     o221347   3.851   5.701   6.228  0.4797  0.1846 -0.4711
 4659poe    c3121348   3.720   5.751   6.211  0.1873 -0.4342 -0.0487
 4660poe    c3121349   7.124   7.541   7.238 -0.0985  0.3812 -0.1047
 4660poe     o221350   7.209   7.653   7.220 -0.0472  0.2645 -0.6058
 4660poe    c2321351   7.270   7.714   7.331 -0.4420 -0.1995 -0.1276
 4660poe    c2321352   7.350   7.839   7.288 -0.0715 -0.3377  0.1559
 4660poe     o221353   7.470   7.772   7.260  0.2346  0.2105  0.1572
 4660poe    c2321354   7.549   7.881   7.215 -0.3358  0.7236  0.3898
 4660poe    c2321355   7.672   7.911   7.302  0.1321  0.6721 -0.2480
 4660poe     o221356   7.779   7.820   7.287 -0.1450  0.2897  0.0796
 4660poe    c2321357   7.883   7.848   7.378 -0.4264  0.7726  0.2575
 4660poe    c2321358   8.012   7.906   7.317 -0.2226 -0.0163 -0.0773
 4660poe     o221359   8.004   8.036   7.263  0.3925  0.1474  0.2175
 4660poe    c3121360   8.096   8.049   7.157 -0.0497  0.1056 -0.1783
 4661poe    c3121361   3.996   6.716   3.369 -0.0464 -0.0847 -0.2997
 4661poe     o221362   4.097   6.619   3.384  0.2291  0.2823  0.2561
 4661poe    c2321363   4.162   6.630   3.508  0.3535  0.0508  0.2120
 4661poe    c2321364   4.275   6.525   3.511  0.1850 -0.1386 -0.0429
 4661poe     o221365   4.389   6.555   3.434  0.1997 -0.7245 -0.2501
 4661poe    c2321366   4.487   6.455   3.457  0.4752 -0.2992  0.4764
 4661poe    c2321367   4.568   6.417   3.331 -0.0029  0.3606 -0.0401
 4661poe     o221368   4.654   6.512   3.273  0.0561  0.1471 -0.2999
 4661poe    c2321369   4.737   6.451   3.176  0.0500  0.0133 -0.2219
 4661poe    c2321370   4.877   6.515   3.164  0.2387 -0.4338 -0.4271
 4661poe     o221371   4.896   6.654   3.149 -0.4333 -0.2913 -0.0242
 4661poe    c3121372   4.827   6.713   3.040  0.0559  0.3403  0.0030
 4662poe    c3121373   3.714   1.036   2.828  0.0404  0.7425  0.0822
 4662poe     o221374   3.643   1.107   2.730  0.6947  0.5513 -0.5381
 4662poe    c2321375   3.580   1.218   2.790  0.2420 -0.0142  0.0486
 4662poe    c2321376   3.546   1.326   2.685 -0.7248 -0.0869  0.2749
 4662poe     o221377   3.605   1.289   2.563 -0.7582 -0.2557  0.3097
 4662poe    c2321378   3.568   1.367   2.451 -0.2870 -0.2444  0.1566
 4662poe    c2321379   3.623   1.336   2.311 -0.3581  0.1107  0.0495
 4662poe     o221380   3.590   1.203   2.279  0.2540 -0.0716  0.1540
 4662poe    c2321381   3.647   1.158   2.158 -0.1087  0.0273 -0.0552
 4662poe    c2321382   3.627   1.006   2.143  0.4618 -0.0544  0.0014
 4662poe     o221383   3.684   0.932   2.249  0.4823 -0.1794 -0.0961
 4662poe    c3121384   3.666   0.795   2.222 -0.6147 -0.0611 -0.0138
 4663poe    c3121385   1.863   2.806   5.952 -0.2387  0.5382 -0.0760
 4663poe     o221386   1.820   2.868   6.071 -0.6877 -0.4629  0.2902
 4663poe    c2321387   1.760   2.989   6.031  0.9714  0.2234 -0.2320
 4663poe    c2321388   1.698   3.089   6.131  0.1739 -0.2469 -0.2462
 4663poe     o221389   1.791   3.147   6.219 -0.3213 -0.1474  0.2154
 4663poe    c2321390   1.725   3.244   6.298  0.0235  0.3128 -0.0596
 4663poe    c2321391   1.793   3.260   6.435  0.4804 -0.2057 -0.2215
 4663poe     o221392   1.923   3.309   6.410  0.4052  0.3647  0.4799
 4663poe    c2321393   1.995   3.329   6.530  0.4853  0.6234  0.3896
 4663poe    c2321394   2.134   3.391   6.514  0.2707  1.0106  0.0108
 4663poe     o221395   2.218   3.299   6.448 -0.3486  0.1798  0.3757
 4663poe    c3121396   2.321   3.386   6.407 -0.4048  0.0688  0.0008
 4664poe    c3121397   6.588   3.150   4.440 -0.9384  0.7540  0.2404
 4664poe     o221398   6.687   3.247   4.464 -0.5078  0.5262 -0.5874
 4664poe    c2321399   6.749   3.289   4.345  0.2652  0.2485 -0.2879
 4664poe    c2321400   6.873   3.364   4.397  0.4550 -0.0372 -0.3195
 4664poe     o221401   6.949   3.286   4.486 -0.3620 -0.4915 -0.0125
 4664poe    c2321402   7.065   3.357   4.523 -0.3885 -0.5723  0.2305
 4664poe    c2321403   7.173   3.290   4.610  0.5492  0.2410 -0.2892
 4664poe     o221404   7.222   3.351   4.728 -0.1378  0.0738  0.0872
 4664poe    c2321405   7.357   3.314   4.748 -0.1285 -0.1160 -0.3132
 4664poe    c2321406   7.431   3.383   4.864 -0.2040 -0.6671  0.0703
 4664poe     o221407   7.404   3.357   5.000 -0.3112  0.1690  0.2100
 4664poe    c3121408   7.514   3.388   5.083  0.1523 -0.5386 -0.1381
 4665poe    c3121409   3.263   2.591   7.236  0.4952  0.3471 -0.1924
 4665poe     o221410   3.180   2.703   7.215  0.2646  0.2455  0.1705
 4665poe    c2321411   3.243   2.789   7.123  0.2460  0.0280 -0.0449
 4665poe    c2321412   3.172   2.920   7.083 -0.3848 -0.3818 -0.2732
 4665poe     o221413   3.208   3.018   7.176 -0.3126  0.0073 -0.7085
 4665poe    c2321414   3.117   3.126   7.182  0.0238  0.2776 -0.3508
 4665poe    c2321415   3.138   3.213   7.307 -0.1106 -0.0492 -0.0987
 4665poe     o221416   3.105   3.150   7.429 -0.2876 -0.0675 -0.1568
 4665poe    c2321417   3.192   3.045   7.465  0.1875  0.3095 -0.1946
 4665poe    c2321418   3.189   3.022   7.617 -0.1830 -0.2253 -0.2789
 4665poe     o221419   3.085   2.935   7.657  0.2549 -0.5576  0.1390
 4665poe    c3121420   3.063   2.947   7.796  0.3193  0.2443  0.0837
 4666poe    c3121421   2.728   3.198   4.921  0.4132 -0.3688  0.2233
 4666poe     o221422   2.739   3.145   4.791 -0.4311  0.2433 -0.1053
 4666poe    c2321423   2.775   3.009   4.782 -0.3448  0.2759 -0.2473
 4666poe    c2321424   2.751   2.959   4.638  0.6114 -0.0097 -0.3123
 4666poe     o221425   2.802   3.060   4.554 -0.2246  0.4170 -0.3142
 4666poe    c2321426   2.810   3.021   4.418  0.4211  0.2423 -0.2275
 4666poe    c2321427   2.857   3.142   4.335  0.2318  0.0843 -0.5625
 4666poe     o221428   2.772   3.253   4.352 -0.3123 -0.4159  0.0354
 4666poe    c2321429   2.785   3.347   4.248 -0.3332  0.5820  0.9116
 4666poe    c2321430   2.719   3.482   4.281 -0.4870  0.5645  0.6736
 4666poe     o221431   2.581   3.490   4.256 -0.4410 -0.3338  0.0842
 4666poe    c3121432   2.522   3.605   4.312 -0.2587 -0.2816  0.1684
 4667poe    c3121433   2.771   3.488   6.211  0.0429 -0.2780 -0.0161
 4667poe     o221434   2.648   3.478   6.143  0.0758  0.2643 -0.1543
 4667poe    c2321435   2.644   3.355   6.075  0.4421  0.4016 -0.4272
 4667poe    c2321436   2.521   3.336   5.984  0.2221 -0.0616 -0.0326
 4667poe     o221437   2.410   3.275   6.048 -0.0560  0.4930  0.0185
 4667poe    c2321438   2.355   3.179   5.960  0.1996  0.1422  0.2396
 4667poe    c2321439   2.233   3.096   6.003  0.2709 -0.0026  0.1639
 4667poe     o221440   2.254   2.996   6.100  0.5800  0.1752  0.2848
 4667poe    c2321441   2.340   2.891   6.061 -0.2841 -0.4713  0.0679
 4667poe    c2321442   2.385   2.787   6.165 -0.3635  0.2801  0.8740
 4667poe     o221443   2.276   2.705   6.199 -0.0552 -0.6547 -0.3193
 4667poe    c3121444   2.324   2.610   6.291  1.2485  0.2951  0.0033
 4668poe    c3121445   7.045   1.132   0.263 -0.4843  1.3475  0.2476
 4668poe     o221446   6.919   1.075   0.286 -0.0050 -0.1315 -0.6583
 4668poe    c2321447   6.823   1.161   0.345  0.4255  0.1828 -0.4139
 4668poe    c2321448   6.761   1.260   0.245 -0.0634  0.2365 -0.0573
 4668poe     o221449   6.668   1.208   0.153  0.5812  0.0254 -0.5876
 4668poe    c2321450   6.599   1.314   0.092  0.2925  0.1201 -0.0932
 4668poe    c2321451   6.493   1.273  -0.013 -0.0887  0.5071  0.1366
 4668poe     o221452   6.372   1.246   0.053 -0.0046  0.1204  0.1309
 4668poe    c2321453   6.312   1.153  -0.035  0.4793 -0.6001  0.5524
 4668poe    c2321454   6.202   1.069   0.034  0.2237 -0.0528  0.8207
 4668poe     o221455   6.252   0.980   0.132  0.1866 -0.8219  0.1525
 4668poe    c3121456   6.230   0.843   0.106 -0.1638 -0.7908  0.2799
 4669poe    c3121457   2.043   5.795   7.267  0.1339  0.0451  0.9495
 4669poe     o221458   2.175   5.843   7.272  0.2608 -0.2339  0.3920
 4669poe    c2321459   2.229   5.881   7.148 -0.5590  0.4501  0.2338
 4669poe    c2321460   2.361   5.959   7.160 -0.0619 -0.4184  0.5333
 4669poe     o221461   2.333   6.095   7.188 -0.1771 -0.3999  0.3288
 4669poe    c2321462   2.448   6.170   7.219 -0.3838  0.2203 -0.3913
 4669poe    c2321463   2.404   6.317   7.238 -0.1431  0.2372  0.0434
 4669poe     o221464   2.297   6.315   7.329 -0.4387 -0.2193 -0.3089
 4669poe    c2321465   2.281   6.437   7.397  0.8317 -0.6174  0.7523
 4669poe    c2321466   2.170   6.425   7.502  0.2363 -0.3624  0.1641
 4669poe     o221467   2.208   6.331   7.601  0.0460 -0.4099  0.1925
 4669poe    c3121468   2.094   6.295   7.677  0.1164  0.1838  0.5911
 4670poe    c3121469   2.825   6.072   7.157 -0.0322 -0.1883 -0.2821
 4670poe     o221470   2.921   6.081   7.055  0.0102 -0.3706 -0.2594
 4670poe    c2321471   3.054   6.093   7.102 -0.2163  0.7712  0.1129
 4670poe    c2321472   3.158   6.022   7.013 -0.1323  0.2628  0.6181
 4670poe     o221473   3.134   5.883   7.017  0.1179  0.1773 -0.5570
 4670poe    c2321474   3.206   5.799   6.930  0.9878  0.1781  0.1457
 4670poe    c2321475   3.146   5.660   6.959 -0.0769  0.6243  0.1337
 4670poe     o221476   3.022   5.624   6.903  0.0814 -0.0536  0.2061
 4670poe    c2321477   2.937   5.579   7.007  0.4081 -0.0309  0.4858
 4670poe    c2321478   2.787   5.599   6.977  0.4096  0.1832  0.6247
 4670poe     o221479   2.749   5.735   6.975  0.2093  0.1153 -0.3840
 4670poe    c3121480   2.616   5.741   6.929 -0.0601  0.4958  0.4355
 4671poe    c3121481   0.367   0.653   3.072  0.0460 -0.9029 -0.0201
 4671poe     o221482   0.269   0.580   3.142 -0.0262 -0.7753  0.0118
 4671poe    c2321483   0.243   0.632   3.271  0.0021  0.0735 -0.3209
 4671poe    c2321484   0.137   0.561   3.358  0.0760  0.4081  0.0430
 4671poe     o221485   0.197   0.441   3.400 -0.8214 -0.0179  0.1247
 4671poe    c2321486   0.125   0.364   3.494 -0.2071 -0.9102 -0.1175
 4671poe    c2321487   0.031   0.253   3.443  0.0051 -0.9806 -0.3579
 4671poe     o221488  -0.045   0.286   3.329 -0.1641  0.0616  0.0454
 4671poe    c2321489  -0.028   0.190   3.227 -0.1193 -0.6363  0.6978
 4671poe    c2321490  -0.106   0.237   3.102  0.6268  0.3210  0.5805
 4671poe     o221491  -0.244   0.250   3.125  0.6686  0.2356  0.8909
 4671poe    c3121492  -0.294   0.369   3.068 -0.1619 -0.1776  0.7342
 4672poe    c3121493   7.262   4.628   3.396 -0.1558  0.1045 -0.0944
 4672poe     o221494   7.191   4.568   3.290  0.0162 -0.2648 -0.0050
 4672poe    c2321495   7.266   4.547   3.172 -0.0946  0.8392 -0.2838
 4672poe    c2321496   7.166   4.507   3.062  0.0024 -0.6088  0.1437
 4672poe     o221497   7.067   4.412   3.096 -0.7060  0.1166  0.1268
 4672poe    c2321498   7.012   4.361   2.977 -0.1605  0.2781 -0.2002
 4672poe    c2321499   6.870   4.301   2.989 -0.0134  0.0250  0.3125
 4672poe     o221500   6.860   4.227   3.108  0.0617 -0.0908  0.2462
 4672poe    c2321501   6.728   4.186   3.139 -0.1272  0.0473 -0.3593
 4672poe    c2321502   6.742   4.107   3.271 -0.1638  0.1869 -0.2714
 4672poe     o221503   6.824   4.191   3.351 -0.8843  0.6380  0.0036
 4672poe    c3121504   6.795   4.163   3.486 -0.3115  0.6893  0.1396
 4673poe    c3121505   4.681   1.360   5.924 -0.0020  0.4081 -0.2062
 4673poe     o221506   4.568   1.438   5.889  0.0780  0.6054 -0.0306
 4673poe    c2321507   4.464   1.415   5.981 -0.1551  0.0204 -0.4309
 4673poe    c2321508   4.339   1.491   5.935 -0.4188  0.1377  0.4573
 4673poe     o221509   4.349   1.631   5.943 -0.2495  0.1723 -0.2789
 4673poe    c2321510   4.247   1.698   5.872 -0.7722 -0.3139 -0.0000
 4673poe    c2321511   4.258   1.852   5.883  0.0690 -0.3473 -0.2996
 4673poe     o221512   4.287   1.897   6.013 -0.3810  0.1320 -0.3622
 4673poe    c2321513   4.306   2.037   6.018  0.6311 -0.0082 -0.0309
 4673poe    c2321514   4.332   2.091   6.160  0.7092  0.3892 -0.1976
 4673poe     o221515   4.247   2.019   6.245  0.6993  0.3525 -0.2380
 4673poe    c3121516   4.237   2.080   6.372  0.1221  0.2052 -0.2066
 4674poe    c3121517   3.650   0.498   1.612  0.0928  0.0699 -0.0986
 4674poe     o221518   3.522   0.549   1.579  0.1207  0.0289 -0.2689
 4674poe    c2321519   3.486   0.519   1.446 -0.2982 -0.4322 -0.0535
 4674poe    c2321520   3.352   0.569   1.389  0.1286  0.6518 -0.1191
 4674poe     o221521   3.332   0.705   1.357 -0.0740  0.5821 -0.2900
 4674poe    c2321522   3.326   0.789   1.470 -0.4300 -0.0718  0.1841
 4674poe    c2321523   3.197   0.776   1.554 -0.5417 -0.3124 -0.0247
 4674poe     o221524   3.073   0.816   1.500 -0.4583  0.1848  0.1537
 4674poe    c2321525   3.020   0.700   1.441  0.4316 -0.1381 -0.0251
 4674poe    c2321526   2.940   0.732   1.314 -0.2654  0.6764  0.6124
 4674poe     o221527   2.830   0.818   1.337 -0.4646  0.5672  0.0907
 4674poe    c3121528   2.738   0.802   1.232  0.4502 -0.1533 -0.6192
 4675poe    c3121529   5.405   7.518   2.801 -0.4916  0.0932  0.4130
 4675poe     o221530   5.316   7.588   2.716  0.2867  0.0637 -0.4474
 4675poe    c2321531   5.186   7.610   2.766  0.2848  0.1623 -0.4936
 4675poe    c2321532   5.093   7.701   2.685  0.0375 -0.0404 -0.4398
 4675poe     o221533   5.106   7.648   2.555  0.1836 -0.6586 -0.1761
 4675poe    c2321534   5.041   7.717   2.450  0.4739  0.2834  0.2500
 4675poe    c2321535   5.066   7.655   2.312  0.5319  0.2354  0.2823
 4675poe     o221536   4.988   7.541   2.284 -0.0596  0.8815 -0.7780
 4675poe    c2321537   5.069   7.460   2.202  0.4990 -0.2104  0.7925
 4675poe    c2321538   5.015   7.319   2.172  0.1394  0.2184 -0.6588
 4675poe     o221539   4.903   7.316   2.087 -0.4693  0.0449  0.1454
 4675poe    c3121540   4.837   7.191   2.095  0.0820 -0.2645 -0.0843
 4676poe    c3121541   0.805   0.371   4.122  0.1040 -0.1641  0.4542
 4676poe     o221542   0.693   0.303   4.172 -0.1313 -0.2226 -0.1387
 4676poe    c2321543   0.617   0.397   4.244  0.1782  0.2713 -0.4545
 4676poe    c2321544   0.498   0.335   4.321  0.1630  0.1274 -0.5949
 4676poe     o221545   0.529   0.205   4.367 -0.4528  0.0227 -0.4745
 4676poe    c2321546   0.414   0.134   4.407 -0.4908  0.2318 -0.2151
 4676poe    c2321547   0.476   0.006   4.466 -0.4117  0.3374 -0.0680
 4676poe     o221548   0.553  -0.060   4.368 -0.3427 -0.1051  0.2847
 4676poe    c2321549   0.613  -0.175   4.424 -0.2005 -0.1569  0.0264
 4676poe    c2321550   0.685  -0.260   4.318 -0.2377  0.2485 -0.3257
 4676poe     o221551   0.797  -0.193   4.265 -0.1955 -0.0844 -0.6610
 4676poe    c3121552   0.839  -0.262   4.149 -0.9143 -1.4563 -0.1204
 4677poe    c3121553   1.230   4.299   4.940  0.3119 -0.3908 -0.5386
 4677poe     o221554   1.166   4.250   4.824 -0.2405 -0.3969 -0.2349
 4677poe    c2321555   1.264   4.188   4.744  0.2227  0.0982 -0.0598
 4677poe    c2321556   1.209   4.100   4.630  0.0682  0.1418 -0.0185
 4677poe     o221557   1.111   4.016   4.686  0.5442 -0.4362 -0.0482
 4677poe    c2321558   1.044   3.934   4.593  0.1525 -0.2031  0.0285
 4677poe    c2321559   1.000   3.789   4.620 -0.2600 -0.2240 -0.7241
 4677poe     o221560   0.879   3.766   4.688  0.0504 -0.5887 -0.2883
 4677poe    c2321561   0.850   3.629   4.707 -0.2836 -0.4139  0.5064
 4677poe    c2321562   0.768   3.568   4.591  0.2822  0.2196 -0.2410
 4677poe     o221563   0.633   3.608   4.582  0.1751 -0.2375 -0.6546
 4677poe    c3121564   0.554   3.544   4.484 -0.2494 -0.1279 -0.3838
 4678poe    c3121565   2.936   2.663   6.186  0.4180  0.1373  0.4058
 4678poe     o221566   2.956   2.654   6.325 -0.1717 -0.1618  0.4740
 4678poe    c2321567   2.846   2.699   6.401  0.0264 -0.2927  0.8404
 4678poe    c2321568   2.894   2.723   6.545 -0.0617  0.1881  0.7919
 4678poe     o221569   2.796   2.729   6.646 -0.0647 -0.2724  0.8171
 4678poe    c2321570   2.699   2.830   6.657 -0.4204 -0.5129 -0.0715
 4678poe    c2321571   2.761   2.970   6.679  0.3007 -0.9204  0.5139
 4678poe     o221572   2.831   2.991   6.800 -0.1444  0.3269  0.5657
 4678poe    c2321573   2.857   3.119   6.850  0.1510  0.4097  0.2059
 4678poe    c2321574   2.947   3.218   6.774  0.5321  0.1205  0.2765
 4678poe     o221575   2.866   3.291   6.684 -0.4090 -0.6463  0.4790
 4678poe    c3121576   2.937   3.383   6.604 -0.5601 -0.3802  0.6499
 4679poe    c3121577   2.132   4.390   3.175 -0.2792  0.1336  0.1631
 4679poe     o221578   2.004   4.449   3.167 -0.0981  0.4545 -0.4162
 4679poe    c2321579   1.911   4.353   3.124 -0.2307  0.5619 -0.3705
 4679poe    c2321580   1.764   4.398   3.133 -0.5712 -0.4969 -0.5044
 4679poe     o221581   1.711   4.398   3.263  0.6060 -0.5337 -0.0125
 4679poe    c2321582   1.672   4.271   3.310 -0.4992 -0.1172  0.2194
 4679poe    c2321583   1.589   4.290   3.439 -0.0661  0.7083  0.3807
 4679poe     o221584   1.453   4.323   3.423  0.0893  1.0212 -0.3453
 4679poe    c2321585   1.413   4.387   3.542  0.0264  0.0344  0.1758
 4679poe    c2321586   1.267   4.347   3.570 -0.1228  0.2146 -0.3376
 4679poe     o221587   1.253   4.215   3.617 -1.2858  0.4747  0.0750
 4679poe    c3121588   1.142   4.162   3.549 -0.9476 -0.3902  0.1934
 4680poe    c3121589   6.591   3.142   0.631 -0.5445 -0.5323  0.2225
 4680poe     o221590   6.506   3.032   0.608 -0.2867 -0.7588  0.3461
 4680poe    c2321591   6.379   3.068   0.557  0.1752 -0.2412 -0.4586
 4680poe    c2321592   6.341   3.031   0.413  0.1766 -0.4458 -0.4068
 4680poe     o221593   6.338   2.890   0.409 -0.5913 -0.4391 -0.2275
 4680poe    c2321594   6.334   2.861   0.271  0.6393 -0.0414 -0.3607
 4680poe    c2321595   6.276   2.725   0.229  0.2145 -0.1188  0.4613
 4680poe     o221596   6.149   2.683   0.275  0.1427 -0.1054  0.2762
 4680poe    c2321597   6.106   2.568   0.206  0.4399 -0.1258  0.1220
 4680poe    c2321598   5.995   2.498   0.286  0.0230  0.1799 -0.1840
 4680poe     o221599   6.062   2.434   0.392  0.1462  0.2511 -0.2189
 4680poe    c3121600   5.988   2.325   0.442  0.7878 -0.1562 -0.1399
 4681poe    c3121601   5.065   4.460   0.098 -0.2107  0.2432 -0.2491
 4681poe     o221602   5.156   4.382   0.024 -0.4768 -0.1058 -0.2080
 4681poe    c2321603   5.150   4.431  -0.107  0.0981  1.0185  0.1768
 4681poe    c2321604   5.265   4.373  -0.192 -0.0058 -0.3774  0.9618
 4681poe     o221605   5.242   4.241  -0.237 -0.1035 -0.1684  0.3901
 4681poe    c2321606   5.317   4.212  -0.353 -0.1651  0.1193  0.2775
 4681poe    c2321607   5.333   4.065  -0.398 -0.7413  0.0626  0.2447
 4681poe     o221608   5.412   4.007  -0.297 -0.3420  0.3740  0.1137
 4681poe    c2321609   5.428   3.867  -0.312  0.6979  0.4652  0.2616
 4681poe    c2321610   5.472   3.773  -0.198 -0.1634 -0.1494  0.0939
 4681poe     o221611   5.386   3.790  -0.087 -0.6674  0.6962 -0.4152
 4681poe    c3121612   5.382   3.679   0.000 -0.2147  0.8459 -0.2039
 4682poe    c3121613   0.146   7.554   3.731 -0.4832  0.5691 -0.1528
 4682poe     o221614   0.237   7.632   3.658 -0.0129  0.1641 -0.0061
 4682poe    c2321615   0.370   7.602   3.695 -0.0060  0.3524  0.1242
 4682poe    c2321616   0.477   7.663   3.603 -0.2486 -0.1692 -0.5116
 4682poe     o221617   0.484   7.803   3.586  0.6840 -0.1564 -0.0370
 4682poe    c2321618   0.500   7.881   3.703  0.2362 -0.6750  0.3722
 4682poe    c2321619   0.493   8.034   3.685  0.4649 -0.7040  0.0297
 4682poe     o221620   0.585   8.061   3.582 -0.1110  0.4846 -0.1897
 4682poe    c2321621   0.555   8.186   3.525 -0.7894  0.3419 -0.1574
 4682poe    c2321622   0.658   8.215   3.414  0.2347  0.2750  0.7494
 4682poe     o221623   0.672   8.091   3.348  0.1422  0.4736  0.3524
 4682poe    c3121624   0.694   8.106   3.209  0.2072 -0.1038  0.2990
 4683poe    c3121625   6.023   6.009   0.864 -0.2296  0.2535  0.2507
 4683poe     o221626   6.108   5.922   0.792 -0.0032  0.6114  0.0861
 4683poe    c2321627   6.130   5.956   0.657  0.3720  0.0746  0.0097
 4683poe    c2321628   6.154   5.836   0.565 -0.8881 -0.6881  0.6480
 4683poe     o221629   6.281   5.774   0.573 -0.5624 -0.0656  0.4097
 4683poe    c2321630   6.300   5.688   0.463  0.2922  0.7584 -0.0935
 4683poe    c2321631   6.375   5.557   0.492 -0.1330  0.3277 -0.8940
 4683poe     o221632   6.508   5.603   0.497 -0.1269  0.2196  0.1289
 4683poe    c2321633   6.590   5.493   0.529 -0.3794  0.0290  0.1220
 4683poe    c2321634   6.723   5.542   0.589 -0.3792  0.8665 -0.5502
 4683poe     o221635   6.719   5.607   0.714 -0.4243  0.4786 -0.3471
 4683poe    c3121636   6.844   5.670   0.728 -0.2556  0.0351  0.1634
 4684poe    c3121637   3.614   3.834   2.588  0.3138 -0.1444  0.5364
 4684poe     o221638   3.721   3.907   2.645  0.4725 -0.1549  0.2537
 4684poe    c2321639   3.805   3.966   2.548  0.3210  0.2281  0.3508
 4684poe    c2321640   3.886   4.085   2.601  0.6939  0.1793 -0.1064
 4684poe     o221641   3.792   4.187   2.625  0.4665 -0.0103 -0.1889
 4684poe    c2321642   3.861   4.304   2.665 -0.2051  0.4587 -0.3845
 4684poe    c2321643   3.777   4.432   2.682 -0.2466  0.4026 -0.1765
 4684poe     o221644   3.676   4.440   2.780  0.1778  0.2746  0.2802
 4684poe    c2321645   3.558   4.512   2.751 -0.2250 -0.3580  0.3501
 4684poe    c2321646   3.477   4.453   2.634  0.4076  0.3776 -0.4702
 4684poe     o221647   3.437   4.320   2.661  0.1802  0.4407 -0.4902
 4684poe    c3121648   3.299   4.312   2.686  0.3354  0.3982  0.3854
 4685poe    c3121649   3.235   7.248   0.723  0.0440  0.1790  0.1214
 4685poe     o221650   3.204   7.218   0.589  0.3474  0.4692 -0.0159
 4685poe    c2321651   3.087   7.288   0.554  0.3376  0.3001 -0.3320
 4685poe    c2321652   3.066   7.269   0.403 -0.6197 -0.2333 -0.1399
 4685poe     o221653   2.975   7.341   0.324 -0.3251  0.1646 -0.1188
 4685poe    c2321654   2.845   7.322   0.376 -0.1061 -0.1599  0.3095
 4685poe    c2321655   2.760   7.331   0.248 -0.0726 -0.2077  0.2839
 4685poe     o221656   2.817   7.445   0.187  0.3277 -0.3591  0.3713
 4685poe    c2321657   2.718   7.515   0.116  0.6450  0.2100  0.4819
 4685poe    c2321658   2.744   7.665   0.090  1.0367  0.0442 -0.0952
 4685poe     o221659   2.737   7.738   0.210  0.2528 -0.3247  0.0876
 4685poe    c3121660   2.793   7.867   0.197  0.7597 -0.5143  0.3389
 4686poe    c3121661   6.349   6.391   3.721 -0.4491 -0.4393 -0.3226
 4686poe     o221662   6.315   6.344   3.850 -0.2077  0.2891  0.0174
 4686poe    c2321663   6.351   6.434   3.951  0.0788  0.2631 -0.0609
 4686poe    c2321664   6.274   6.567   3.960 -0.1969  0.0802  0.3268
 4686poe     o221665   6.320   6.667   3.871 -0.5072  0.9269  1.0973
 4686poe    c2321666   6.224   6.765   3.839 -0.2278  0.8700  0.0805
 4686poe    c2321667   6.264   6.836   3.708 -0.1478  0.1677 -0.2822
 4686poe     o221668   6.195   6.951   3.664  0.2433  0.2841 -0.5976
 4686poe    c2321669   6.288   7.057   3.665  0.4513  0.1068  0.1609
 4686poe    c2321670   6.224   7.196   3.645  0.0910 -0.0415  0.2641
 4686poe     o221671   6.162   7.262   3.753  0.3371 -0.0529  0.4145
 4686poe    c3121672   6.127   7.390   3.705 -0.1749 -0.3646 -0.0555
 4687poe    c3121673   3.646   6.504   1.467 -0.4552 -0.3845  0.2770
 4687poe     o221674   3.664   6.367   1.437  0.4621 -0.1081 -0.5233
 4687poe    c2321675   3.629   6.329   1.305  0.3218  0.2195 -0.5832
 4687poe    c2321676   3.705   6.215   1.235  0.1479 -0.5079  0.3890
 4687poe     o221677   3.806   6.257   1.146 -0.5066  0.2965  0.0179
 4687poe    c2321678   3.828   6.154   1.053  0.1125  0.3860  0.0577
 4687poe    c2321679   3.908   6.194   0.928  0.1730 -0.2623 -0.1132
 4687poe     o221680   3.888   6.331   0.903 -0.0430 -0.2741 -0.0027
 4687poe    c2321681   3.978   6.362   0.799 -0.0108 -0.0834  0.0818
 4687poe    c2321682   3.943   6.489   0.720 -1.2096 -0.0306  0.6832
 4687poe     o221683   3.961   6.616   0.778 -0.7396  0.1350  0.1756
 4687poe    c3121684   3.924   6.714   0.683  0.4877 -0.3674 -0.8514
 4688poe    c3121685   7.188   6.003   5.311 -0.7274  0.0842  0.4148
 4688poe     o221686   7.239   5.899   5.391 -0.1150 -0.4461 -0.6289
 4688poe    c2321687   7.239   5.782   5.313 -0.8409 -0.7339 -0.2192
 4688poe    c2321688   7.314   5.660   5.371 -0.0858 -0.1596  0.0383
 4688poe     o221689   7.253   5.612   5.488  0.4758  0.2178  0.4877
 4688poe    c2321690   7.300   5.482   5.517 -0.0432 -0.1067 -0.0952
 4688poe    c2321691   7.252   5.439   5.656 -0.1124  0.4113  0.0450
 4688poe     o221692   7.331   5.493   5.760 -0.3230  0.2872  0.2714
 4688poe    c2321693   7.253   5.492   5.877 -0.5165 -0.7393  0.1446
 4688poe    c2321694   7.332   5.518   6.007 -0.7173 -0.3761  0.1953
 4688poe     o221695   7.413   5.407   6.040  0.2770  0.2267 -0.1895
 4688poe    c3121696   7.443   5.398   6.177  0.4985 -0.4666 -0.2800
 4689poe    c3121697   4.463   2.806   3.834 -0.4835 -0.5922  0.1849
 4689poe     o221698   4.423   2.838   3.702 -0.0659 -0.3733  0.1113
 4689poe    c2321699   4.407   2.724   3.621  0.0568 -0.1940 -0.1654
 4689poe    c2321700   4.355   2.733   3.476 -0.3098 -0.5563 -0.0562
 4689poe     o221701   4.427   2.823   3.395 -0.6036 -0.0747  0.2151
 4689poe    c2321702   4.361   2.836   3.272  0.1497 -0.1965 -0.2050
 4689poe    c2321703   4.447   2.918   3.174 -0.0809 -0.6378 -0.7914
 4689poe     o221704   4.484   3.043   3.230 -0.3845 -0.6926 -0.4680
 4689poe    c2321705   4.557   3.108   3.129 -0.1409 -0.4215 -0.1188
 4689poe    c2321706   4.644   3.222   3.185 -0.4314 -0.1258 -0.2631
 4689poe     o221707   4.753   3.179   3.263  0.0505  0.4849 -0.5886
 4689poe    c3121708   4.805   3.284   3.341  0.3787 -0.2556  0.2162
 4690poe    c3121709   1.987   3.450   2.619  1.0196 -0.1938 -0.3898
 4690poe     o221710   1.944   3.453   2.485  0.0854  0.3568 -0.0826
 4690poe    c2321711   1.890   3.324   2.466  0.1000  0.4165 -0.5287
 4690poe    c2321712   1.818   3.313   2.330 -0.3699  0.9503 -0.3241
 4690poe     o221713   1.709   3.224   2.318  0.2161  0.1770 -0.0060
 4690poe    c2321714   1.694   3.192   2.181  0.1499  0.6203 -0.1063
 4690poe    c2321715   1.554   3.129   2.169  0.6733 -0.6412  0.2147
 4690poe     o221716   1.536   2.992   2.200  0.1451 -0.5307  0.4005
 4690poe    c2321717   1.397   2.973   2.213 -0.0290  0.4371  0.0909
 4690poe    c2321718   1.363   2.833   2.268 -0.2281  0.4062 -0.1114
 4690poe     o221719   1.426   2.732   2.193 -0.2809  0.0593  0.3095
 4690poe    c3121720   1.392   2.610   2.256 -0.3993  0.0507  0.2304
 4691poe    c3121721   1.635   4.188   1.694  0.4063  0.4529  0.2349
 4691poe     o221722   1.623   4.099   1.803  0.2305  0.4901  0.2464
 4691poe    c2321723   1.632   4.179   1.918 -0.0069  0.2856  0.4094
 4691poe    c2321724   1.630   4.092   2.045 -0.1004  0.4542  0.5250
 4691poe     o221725   1.505   4.028   2.056  0.2200 -0.3696 -0.4777
 4691poe    c2321726   1.489   3.976   2.186 -0.5247 -0.3733 -0.5647
 4691poe    c2321727   1.357   3.899   2.203 -0.3132 -0.6971 -0.3757
 4691poe     o221728   1.258   3.973   2.135 -0.0345  0.4317  0.4131
 4691poe    c2321729   1.147   3.886   2.145 -0.1202  0.4580 -0.2671
 4691poe    c2321730   1.030   3.949   2.067 -0.4735 -0.3885 -0.4282
 4691poe     o221731   1.088   3.990   1.946 -0.7963 -0.5770 -0.6485
 4691poe    c3121732   0.975   4.046   1.882 -0.4864  0.2061 -0.5197
 4692poe    c3121733   1.167   6.040   5.308 -0.1651  0.1229 -0.0160
 4692poe     o221734   1.277   6.088   5.234 -0.1617  0.4729  0.2138
 4692poe    c2321735   1.241   6.100   5.098 -0.5536  0.5713  0.3239
 4692poe    c2321736   1.349   6.157   5.004 -0.2271  0.1499  0.4441
 4692poe     o221737   1.385   6.290   5.031 -0.3627  0.1121  0.8175
 4692poe    c2321738   1.392   6.386   4.928 -0.2252 -0.2744  0.4644
 4692poe    c2321739   1.482   6.505   4.966  0.2003 -0.6881  0.7540
 4692poe     o221740   1.463   6.562   5.093  0.3134 -0.5736  0.7198
 4692poe    c2321741   1.573   6.641   5.131  0.3209 -0.3188  0.1714
 4692poe    c2321742   1.583   6.698   5.273  0.6909 -0.1205  0.0689
 4692poe     o221743   1.602   6.603   5.376 -0.2667  0.0123  0.3829
 4692poe    c3121744   1.673   6.646   5.491 -0.0389  0.0353  0.2349
 4693poe    c3121745   3.494   1.516   0.483 -0.3345  0.5393  0.2803
 4693poe     o221746   3.415   1.542   0.368  0.1443  0.1140 -0.1494
 4693poe    c2321747   3.374   1.676   0.363  1.0346  0.4074  0.1288
 4693poe    c2321748   3.241   1.726   0.425  0.6074 -0.8194  0.2211
 4693poe     o221749   3.134   1.666   0.356 -0.0483 -0.0440  0.5582
 4693poe    c2321750   3.012   1.700   0.419 -0.2327  0.1377  0.1064
 4693poe    c2321751   2.935   1.577   0.472 -0.5657  0.4145  0.2712
 4693poe     o221752   3.008   1.555   0.591 -0.1766 -0.0944 -0.0547
 4693poe    c2321753   2.969   1.426   0.631  0.1475  0.0200  0.6298
 4693poe    c2321754   3.051   1.384   0.755  0.0178 -0.4192  0.5685
 4693poe     o221755   3.012   1.444   0.876  0.1082 -0.1087  0.4446
 4693poe    c3121756   3.018   1.348   0.979 -0.0168 -0.3813  0.1990
 4694poe    c3121757   5.220   3.326   5.507  0.1017  0.4261 -0.0488
 4694poe     o221758   5.312   3.243   5.439 -0.0189  0.3564 -0.1271
 4694poe    c2321759   5.253   3.144   5.357 -0.1077  0.1876  0.1385
 4694poe    c2321760   5.195   3.022   5.431 -0.1124  0.4420  0.5554
 4694poe     o221761   5.286   2.917   5.455 -0.6658 -0.1174  0.2141
 4694poe    c2321762   5.243   2.794   5.400 -0.3596  0.0052 -0.3118
 4694poe    c2321763   5.371   2.715   5.364 -0.5110 -0.2471 -0.2943
 4694poe     o221764   5.469   2.778   5.286 -0.1183 -0.5393 -0.0382
 4694poe    c2321765   5.575   2.689   5.256  0.5566  0.0541  0.5497
 4694poe    c2321766   5.642   2.763   5.139 -0.1590  0.0101  0.1062
 4694poe     o221767   5.560   2.757   5.025 -0.6790  0.2436  0.4646
 4694poe    c3121768   5.558   2.870   4.941 -0.8466  0.4099  0.6900
 4695poe    c3121769   5.062   5.335   2.444  0.3540 -0.4108  0.6433
 4695poe     o221770   4.963   5.418   2.389  0.8145 -0.1044  0.2695
 4695poe    c2321771   5.001   5.554   2.393 -0.5887  0.2926  0.8318
 4695poe    c2321772   4.908   5.656   2.324  0.2828  0.0678 -0.7475
 4695poe     o221773   4.951   5.789   2.342  0.5754 -0.1577  0.2967
 4695poe    c2321774   4.940   5.837   2.474  0.1862  0.5298  0.0191
 4695poe    c2321775   5.010   5.971   2.500  0.0388  0.6392 -0.1508
 4695poe     o221776   5.150   5.955   2.507 -0.1028 -0.5314  0.1149
 4695poe    c2321777   5.198   5.903   2.629 -0.2451  0.2041  0.4886
 4695poe    c2321778   5.350   5.881   2.636 -0.2046  0.3518  0.1064
 4695poe     o221779   5.422   5.997   2.674  0.0044  0.2002  0.1736
 4695poe    c3121780   5.553   5.959   2.709  0.0105 -0.0652 -0.1233
 4696poe    c3121781   2.658   6.722   4.893 -0.1059  0.0747  0.0250
 4696poe     o221782   2.742   6.807   4.967 -0.0581  0.5126 -0.5242
 4696poe    c2321783   2.678   6.866   5.079 -0.0290  0.0990 -0.2886
 4696poe    c2321784   2.759   6.968   5.160  0.3144 -0.3604 -0.0480
 4696poe     o221785   2.828   6.910   5.269 -0.1968  0.2230  0.5995
 4696poe    c2321786   2.927   7.004   5.304  0.2834  0.0055 -0.1377
 4696poe    c2321787   3.059   6.929   5.330  0.3427  0.2872  0.3867
 4696poe     o221788   3.139   6.912   5.215  0.0893 -0.9475  0.3812
 4696poe    c2321789   3.252   6.843   5.262  0.7814  0.3789  0.7240
 4696poe    c2321790   3.307   6.736   5.166  0.3596  0.3971  0.4623
 4696poe     o221791   3.391   6.789   5.065 -0.1881  0.0242 -0.1999
 4696poe    c3121792   3.425   6.709   4.954  0.2656 -0.0177 -0.0331
 4697poe    c3121793   5.831   3.643   2.971 -0.2126 -1.0362 -0.3380
 4697poe     o221794   5.711   3.712   2.943 -0.0904 -0.4566  0.5442
 4697poe    c2321795   5.713   3.834   3.016 -0.2182 -0.3367  0.3464
 4697poe    c2321796   5.571   3.892   3.028 -0.0438  0.0718  0.4139
 4697poe     o221797   5.459   3.828   3.084 -0.3678  0.4557  0.2167
 4697poe    c2321798   5.347   3.913   3.093 -0.5709  0.2139 -0.0176
 4697poe    c2321799   5.249   3.866   3.202 -0.8382  0.7477 -0.0280
 4697poe     o221800   5.296   3.845   3.333  0.0280  0.0436 -0.4476
 4697poe    c2321801   5.175   3.803   3.393  0.3695  0.1487  0.3356
 4697poe    c2321802   5.178   3.657   3.442  0.0006  0.1728  0.4321
 4697poe     o221803   5.195   3.560   3.342 -0.0144  0.0939  0.5065
 4697poe    c3121804   5.175   3.434   3.403 -0.4483  0.0133  0.2043
 4698poe    c3121805   5.047   3.290   4.693  0.5716 -0.1175  0.2817
 4698poe     o221806   5.073   3.202   4.586 -0.6090  0.1055 -0.2008
 4698poe    c2321807   5.009   3.078   4.604  0.2600 -0.4255 -0.6970
 4698poe    c2321808   5.002   3.008   4.467 -0.6652  0.1628 -0.9591
 4698poe     o221809   4.897   2.914   4.467  0.1642 -0.8089  0.4898
 4698poe    c2321810   4.913   2.838   4.349 -0.1139 -0.5962  0.3145
 4698poe    c2321811   4.816   2.720   4.329 -0.0530 -0.6864  0.5465
 4698poe     o221812   4.685   2.759   4.292  0.3607  0.4992  0.2940
 4698poe    c2321813   4.662   2.850   4.187  0.3314 -0.1504 -0.2693
 4698poe    c2321814   4.556   2.954   4.229  0.3123 -0.1518 -0.3157
 4698poe     o221815   4.432   2.887   4.234  0.0667  0.2760 -0.6294
 4698poe    c3121816   4.330   2.957   4.301  0.6955  0.8424 -0.2414
 4699poe    c3121817   6.173   4.765   4.019  0.1523 -0.2782  0.0762
 4699poe     o221818   6.128   4.782   3.886 -0.2016  0.9427  0.3337
 4699poe    c2321819   6.069   4.909   3.872 -0.4322  0.8256  0.2253
 4699poe    c2321820   6.007   4.936   3.734 -0.6979 -0.0792  0.1602
 4699poe     o221821   5.919   4.836   3.688 -0.5843 -0.0858 -0.0408
 4699poe    c2321822   5.893   4.864   3.552 -0.8899  0.1179  0.0602
 4699poe    c2321823   5.878   4.733   3.473  0.2569 -0.1775  0.3198
 4699poe     o221824   5.795   4.631   3.523  0.0280 -0.2592 -0.2197
 4699poe    c2321825   5.791   4.525   3.430  0.4341 -0.2266 -0.2742
 4699poe    c2321826   5.742   4.404   3.511 -0.6866  0.1369 -0.3952
 4699poe     o221827   5.815   4.365   3.626 -0.2293  0.1032 -0.6947
 4699poe    c3121828   5.927   4.282   3.602 -0.2495  0.0827 -0.7210
 4700poe    c3121829   0.637   0.805   1.406 -0.1039  0.1269 -0.1439
 4700poe     o221830   0.538   0.788   1.504 -0.1847 -0.7023 -0.3583
 4700poe    c2321831   0.406   0.802   1.455 -0.0913 -0.4484 -0.5382
 4700poe    c2321832   0.302   0.694   1.490 -0.3734  0.0068  0.0220
 4700poe     o221833   0.332   0.578   1.416 -0.1650  0.1638 -0.1422
 4700poe    c2321834   0.340   0.450   1.474  0.3074  0.0300 -0.4940
 4700poe    c2321835   0.486   0.404   1.463  0.3344 -0.0544  0.1723
 4700poe     o221836   0.593   0.473   1.524  0.2981 -0.2924  0.5121
 4700poe    c2321837   0.710   0.400   1.494  0.4582  0.0983  0.1843
 4700poe    c2321838   0.839   0.450   1.561  0.1873  0.8775  0.1447
 4700poe     o221839   0.839   0.437   1.702  0.1134 -0.4245  0.0406
 4700poe    c3121840   0.933   0.341   1.745 -0.0759 -0.6626 -0.0725
 4701poe    c3121841   3.682   2.978   1.766  0.2742  0.0518 -0.2502
 4701poe     o221842   3.668   3.117   1.778  0.0385  0.0124 -0.0527
 4701poe    c2321843   3.608   3.196   1.678 -0.3209 -0.3302 -0.1088
 4701poe    c2321844   3.585   3.341   1.724  0.0142 -0.0427 -0.8293
 4701poe     o221845   3.503   3.363   1.836  0.7311 -0.0617 -0.2964
 4701poe    c2321846   3.506   3.501   1.865 -0.0992 -0.0589 -0.2117
 4701poe    c2321847   3.366   3.567   1.869 -0.1320 -0.1644  0.5533
 4701poe     o221848   3.285   3.611   1.762  0.3447  0.0664  0.2841
 4701poe    c2321849   3.345   3.712   1.684  0.0481 -0.0317 -0.0706
 4701poe    c2321850   3.301   3.696   1.537 -0.1263 -0.3222  0.0119
 4701poe     o221851   3.165   3.711   1.507 -0.1722 -0.0140  0.3617
 4701poe    c3121852   3.117   3.843   1.511 -0.5045 -0.1118 -0.2056
 4702poe    c3121853   0.433   5.217   4.785 -0.2284  0.3087  0.4943
 4702poe     o221854   0.473   5.119   4.878  0.5291 -0.4177 -0.5710
 4702poe    c2321855   0.585   5.171   4.947 -0.3105  0.5902  0.0502
 4702poe    c2321856   0.632   5.065   5.048  0.1697  0.3442 -0.4300
 4702poe     o221857   0.693   4.950   4.993 -0.4377 -0.2714  0.1664
 4702poe    c2321858   0.697   4.849   5.091 -0.7338  0.2667  0.7458
 4702poe    c2321859   0.785   4.729   5.050  0.0371  1.0304  0.1214
 4702poe     o221860   0.915   4.776   5.022  0.2214  0.3475 -0.1982
 4702poe    c2321861   0.991   4.679   4.955  0.1711  0.2502 -0.1146
 4702poe    c2321862   1.125   4.663   5.028 -0.2245 -0.1636  0.5275
 4702poe     o221863   1.189   4.788   5.033 -0.3965 -0.0457 -0.1198
 4702poe    c3121864   1.269   4.767   5.148 -0.1380 -0.0907 -0.3065
 4703poe    c3121865   5.672   1.432   4.782 -0.2335  0.0751  0.4433
 4703poe     o221866   5.762   1.365   4.696 -0.6642  0.2366 -0.1389
 4703poe    c2321867   5.780   1.229   4.728  0.1157  0.5940  0.9769
 4703poe    c2321868   5.897   1.175   4.644 -0.6389 -0.0438  0.3274
 4703poe     o221869   5.852   1.163   4.510 -0.1418 -0.2016  0.1733
 4703poe    c2321870   5.969   1.166   4.431 -0.1798  0.1122  0.1277
 4703poe    c2321871   5.922   1.190   4.286 -0.0840 -0.3731  0.0123
 4703poe     o221872   5.870   1.322   4.282  0.0104 -0.3461 -0.3768
 4703poe    c2321873   5.828   1.363   4.154  0.0211  0.0828 -0.2423
 4703poe    c2321874   5.930   1.400   4.045  0.2967 -0.7689 -0.2774
 4703poe     o221875   5.985   1.529   4.063 -0.3349 -0.4521 -0.5967
 4703poe    c3121876   6.067   1.573   3.957  0.0415 -0.4795 -0.3196
 4704poe    c3121877   2.834   5.062   2.517  0.6589  0.0435  0.0012
 4704poe     o221878   2.816   5.020   2.383  0.2059  0.2449 -0.0010
 4704poe    c2321879   2.677   5.035   2.360  0.1219  0.0926  0.3941
 4704poe    c2321880   2.641   4.986   2.219 -0.0624  0.3814  0.3392
 4704poe     o221881   2.673   4.849   2.203  0.2897  0.5369 -0.3320
 4704poe    c2321882   2.556   4.774   2.177  0.4999 -0.0572  0.3984
 4704poe    c2321883   2.580   4.626   2.141 -0.4966 -0.0386 -0.3789
 4704poe     o221884   2.658   4.559   2.238 -0.1389 -0.0416 -0.6645
 4704poe    c2321885   2.735   4.477   2.154  0.1305  0.1833 -0.6374
 4704poe    c2321886   2.842   4.395   2.228 -0.3043  0.5146  0.3698
 4704poe     o221887   2.945   4.454   2.304  0.2510 -0.2517  0.2245
 4704poe    c3121888   2.956   4.400   2.434  0.5726  0.0984  0.3461
 4705poe    c3121889   0.224   0.270   6.968  0.3453 -0.1155  0.8343
 4705poe     o221890   0.356   0.233   6.937  0.1813  0.0800 -0.1185
 4705poe    c2321891   0.388   0.274   6.806 -0.3599 -0.6602 -0.4970
 4705poe    c2321892   0.454   0.408   6.766 -0.5340 -0.3411  0.2658
 4705poe     o221893   0.593   0.407   6.792 -0.4231 -0.6929 -0.3156
 4705poe    c2321894   0.681   0.467   6.700 -0.0436 -0.5276  0.1513
 4705poe    c2321895   0.824   0.411   6.708  0.2586  0.2687  0.4043
 4705poe     o221896   0.819   0.271   6.698 -0.0870  0.2890  0.2765
 4705poe    c2321897   0.946   0.215   6.728 -0.2656  0.0431  0.5824
 4705poe    c2321898   0.930   0.063   6.744 -0.1793 -0.0420 -0.1014
 4705poe     o221899   0.852   0.046   6.861  0.3443  0.1561  0.2804
 4705poe    c3121900   0.819  -0.089   6.880 -0.1678  0.3240  0.6098
 4706poe    c3121901   7.207   5.094   3.142  0.6911 -0.0532 -0.1796
 4706poe     o221902   7.212   5.223   3.084 -0.2934  0.0058 -0.1393
 4706poe    c2321903   7.089   5.244   3.017  0.1658  0.3254 -0.9004
 4706poe    c2321904   7.058   5.394   3.027 -0.3302  0.1645  0.0713
 4706poe     o221905   7.003   5.441   3.149  0.1657 -0.0246  0.3675
 4706poe    c2321906   6.961   5.575   3.143 -0.0663 -0.0963  0.4190
 4706poe    c2321907   6.888   5.624   3.270  0.3085  0.2408  0.5057
 4706poe     o221908   6.968   5.650   3.383  0.4925  0.4174  0.3368
 4706poe    c2321909   6.892   5.675   3.500  0.6372  0.5712  0.3965
 4706poe    c2321910   6.882   5.827   3.527 -0.3244  0.4881  0.5437
 4706poe     o221911   7.003   5.895   3.550 -0.1043  0.1858  0.2922
 4706poe    c3121912   6.981   6.034   3.559 -0.1063  0.2151 -0.1332
 4707poe    c3121913   6.080   6.352   5.523  0.1777  0.1707  0.4251
 4707poe     o221914   6.149   6.239   5.572 -0.0556  0.0719  0.5290
 4707poe    c2321915   6.131   6.122   5.496  0.1670  0.0700  0.4768
 4707poe    c2321916   6.202   5.986   5.515 -0.2316 -0.3700 -1.0434
 4707poe     o221917   6.325   5.992   5.445  0.4003 -0.0210  0.0764
 4707poe    c2321918   6.406   5.878   5.463  0.5960  0.0513 -0.3579
 4707poe    c2321919   6.551   5.923   5.437  0.7489 -0.2423 -0.0097
 4707poe     o221920   6.586   6.000   5.550 -0.8236  0.5552 -0.0315
 4707poe    c2321921   6.660   6.116   5.519  0.6954 -0.1693  0.7622
 4707poe    c2321922   6.605   6.249   5.574 -0.3146 -0.2385 -0.0552
 4707poe     o221923   6.506   6.296   5.486 -0.2055 -0.1488 -0.1310
 4707poe    c3121924   6.475   6.423   5.540  0.5786 -0.2034  0.4575
 4708poe    c3121925   4.283   0.697   3.148 -0.0075  0.0219  0.0728
 4708poe     o221926   4.176   0.669   3.060 -0.1642  0.3077  0.1674
 4708poe    c2321927   4.072   0.591   3.114 -0.5997  0.8913  0.1715
 4708poe    c2321928   3.948   0.577   3.024 -0.2369  0.0777 -0.2120
 4708poe     o221929   3.966   0.522   2.896  0.3073  0.2840 -0.2265
 4708poe    c2321930   3.841   0.518   2.830  0.2231  0.6217 -0.0840
 4708poe    c2321931   3.824   0.447   2.695 -0.2964 -0.3138  0.4644
 4708poe     o221932   3.700   0.467   2.632 -0.0479  0.3866  0.1855
 4708poe    c2321933   3.689   0.597   2.580  0.1382  0.7223  0.9822
 4708poe    c2321934   3.551   0.666   2.584 -0.2637 -0.0303  0.2238
 4708poe     o221935   3.525   0.717   2.713 -0.1429 -0.1038  0.2774
 4708poe    c3121936   3.393   0.683   2.748 -0.1406 -0.0489  0.3389
 4709poe    c3121937   4.438   1.788   1.917 -0.2180 -0.2696 -0.5809
 4709poe     o221938   4.405   1.702   2.023  0.4464  0.1417 -0.0277
 4709poe    c2321939   4.499   1.603   2.058  0.2736  0.0528  0.1934
 4709poe    c2321940   4.618   1.639   2.149  0.2364  0.4446  0.0899
 4709poe     o221941   4.603   1.596   2.283  0.2074  0.2205  0.0145
 4709poe    c2321942   4.509   1.667   2.360  0.1179  0.1974 -0.0726
 4709poe    c2321943   4.527   1.623   2.507 -0.5538  0.1217 -0.0117
 4709poe     o221944   4.497   1.485   2.510  0.5625 -0.1350 -0.2924
 4709poe    c2321945   4.522   1.422   2.634  0.7721  0.2384 -0.1439
 4709poe    c2321946   4.562   1.274   2.624 -0.0645 -0.0059  0.1016
 4709poe     o221947   4.681   1.249   2.552  0.0000  0.3704  0.0767
 4709poe    c3121948   4.723   1.115   2.555  0.0966  0.3970 -0.0534
 4710poe    c3121949   2.008   3.767   7.587 -0.7836  0.2328  0.3961
 4710poe     o221950   2.041   3.631   7.573 -0.1448  0.4228  0.0321
 4710poe    c2321951   1.934   3.541   7.552  0.1942  0.0465 -0.0998
 4710poe    c2321952   1.982   3.400   7.514  0.2346  0.2212 -0.7127
 4710poe     o221953   2.042   3.348   7.630 -0.1855 -0.2681 -0.7103
 4710poe    c2321954   2.070   3.210   7.616 -0.0144 -0.2338 -0.7115
 4710poe    c2321955   2.152   3.145   7.729 -0.5688 -0.0437 -0.1945
 4710poe     o221956   2.276   3.211   7.738 -0.5930 -0.0275  0.0201
 4710poe    c2321957   2.338   3.205   7.865 -0.2290 -0.6734 -0.1835
 4710poe    c2321958   2.342   3.338   7.942  0.0373 -0.4765 -0.5365
 4710poe     o221959   2.408   3.447   7.881  0.1568 -0.6239 -0.6708
 4710poe    c3121960   2.544   3.462   7.916  0.0028  0.4349 -0.4937
 4711poe    c3121961   0.557   4.394   1.390  0.4240 -0.3209 -0.1292
 4711poe     o221962   0.517   4.298   1.295 -0.1015 -0.2627  0.0344
 4711poe    c2321963   0.417   4.220   1.358 -0.6872  0.2949 -0.1967
 4711poe    c2321964   0.390   4.089   1.281  0.1258  0.3720 -0.6265
 4711poe     o221965   0.499   4.000   1.279 -0.1317  0.0304  0.0030
 4711poe    c2321966   0.462   3.865   1.290  1.1482 -0.3331  0.0915
 4711poe    c2321967   0.444   3.807   1.432  0.2314 -0.1344  0.0660
 4711poe     o221968   0.560   3.832   1.508  0.2172 -0.1972  0.1086
 4711poe    c2321969   0.552   3.843   1.648  0.2941 -0.2197  0.1149
 4711poe    c2321970   0.522   3.987   1.692  0.0616 -0.2802  0.1587
 4711poe     o221971   0.382   4.000   1.680  0.1588  0.2237 -0.4310
 4711poe    c3121972   0.352   4.138   1.679  0.2166  0.2435  0.2128
 4712poe    c3121973   5.947   1.335   1.278 -0.2483 -0.4006 -0.3469
 4712poe     o221974   6.008   1.393   1.391 -0.3595 -0.2792 -0.3492
 4712poe    c2321975   6.095   1.290   1.434 -0.1984 -0.1251 -0.3061
 4712poe    c2321976   6.160   1.336   1.566  0.3624 -0.7163 -0.3755
 4712poe     o221977   6.263   1.424   1.528  0.1325 -0.2271  0.1178
 4712poe    c2321978   6.358   1.441   1.632 -0.0296  0.8188  0.1049
 4712poe    c2321979   6.483   1.525   1.600  0.4886  0.0047 -0.0363
 4712poe     o221980   6.589   1.482   1.518  0.3282 -0.2742 -0.0991
 4712poe    c2321981   6.705   1.559   1.543  0.3182 -0.3196  0.0873
 4712poe    c2321982   6.813   1.529   1.438  0.1112 -0.3890 -0.1074
 4712poe     o221983   6.771   1.571   1.310  0.1512  0.1564  0.0580
 4712poe    c3121984   6.846   1.505   1.210 -0.0833  0.1897 -0.1412
 4713poe    c3121985   0.098   0.574   1.179 -0.5959 -0.3067  0.5479
 4713poe     o221986  -0.017   0.640   1.130 -0.2385  0.1623  0.3303
 4713poe    c2321987  -0.131   0.594   1.199 -0.1791 -0.3022  0.1213
 4713poe    c2321988  -0.231   0.710   1.201  0.1225 -0.0407  0.2183
 4713poe     o221989  -0.221   0.783   1.080  0.8376 -0.3911  0.0665
 4713poe    c2321990  -0.332   0.868   1.063  0.8448 -0.4101 -0.0764
 4713poe    c2321991  -0.324   0.940   0.927  0.5105 -0.2975 -0.0377
 4713poe     o221992  -0.193   0.992   0.922  0.1953  0.5250  0.0745
 4713poe    c2321993  -0.177   1.125   0.878 -0.5204  0.4426 -0.4443
 4713poe    c2321994  -0.034   1.158   0.832 -0.2759  0.0307  0.0073
 4713poe     o221995   0.049   1.124   0.941  0.3112 -0.0190 -0.4498
 4713poe    c3121996   0.176   1.104   0.884  0.6258  0.6593  0.0029
 4714poe    c3121997   1.664   6.928   6.129  0.2842 -0.6756 -0.7193
 4714poe     o221998   1.763   6.872   6.213  0.2986 -0.0906 -0.3433
 4714poe    c2321999   1.827   6.972   6.290 -0.4923  0.0189  0.1829
 4714poe    c2322000   1.972   6.935   6.323 -0.5564 -0.5249 -0.1310
 4714poe     o222001   2.057   6.961   6.214 -0.0059  0.0785  0.4324
 4714poe    c2322002   2.177   7.008   6.272 -0.1766  0.6851  0.3004
 4714poe    c2322003   2.273   7.067   6.166 -0.8031 -0.0296 -0.6923
 4714poe     o222004   2.235   7.200   6.135 -0.1644  0.4133  0.3536
 4714poe    c2322005   2.339   7.272   6.072 -0.1792 -0.0376 -0.2011
 4714poe    c2322006   2.305   7.418   6.034 -0.0928  0.0266 -0.0330
 4714poe     o222007   2.297   7.520   6.130 -0.1968  0.1721 -0.1963
 4714poe    c3122008   2.171   7.584   6.120 -0.2128  0.1355 -0.2274
 4715poe    c3122009   5.927   4.684   5.565 -0.4266  0.5615 -0.4930
 4715poe     o222010   5.839   4.679   5.675 -0.4217  0.3443 -0.4987
 4715poe    c2322011   5.762   4.797   5.675 -0.1028  0.5542 -0.3746
 4715poe    c2322012   5.652   4.798   5.783 -0.0383 -0.1372 -0.2994
 4715poe     o222013   5.695   4.807   5.917 -0.2824  0.3740 -0.2507
 4715poe    c2322014   5.588   4.835   6.004 -0.4666  0.3931 -0.4819
 4715poe    c2322015   5.638   4.874   6.145  0.0820  0.0893 -0.5869
 4715poe     o222016   5.695   5.003   6.152  0.2957 -0.0127 -0.4895
 4715poe    c2322017   5.759   5.012   6.278  0.6373 -0.0411 -0.6580
 4715poe    c2322018   5.820   5.153   6.292  0.1584  0.0955  0.0976
 4715poe     o222019   5.728   5.242   6.232 -0.0378 -0.1777 -0.0075
 4715poe    c3122020   5.758   5.367   6.289  0.5423 -0.2366 -0.1763
 4716poe    c3122021   4.252   1.030   4.766 -0.7487 -0.5408 -0.3238
 4716poe     o222022   4.233   1.048   4.627  0.0686 -0.0431 -0.3804
 4716poe    c2322023   4.092   1.054   4.630  0.0810  0.1640 -0.2345
 4716poe    c2322024   4.029   1.122   4.507  0.1507  0.3043 -0.1934
 4716poe     o222025   4.035   1.037   4.394  0.2929  0.1279 -0.0546
 4716poe    c2322026   3.965   1.100   4.289  0.0388  0.0358  0.0602
 4716poe    c2322027   3.932   0.982   4.195 -0.1384  0.4870 -0.4499
 4716poe     o222028   4.045   0.930   4.128 -0.1773 -0.0827 -0.0850
 4716poe    c2322029   4.021   0.819   4.044 -0.2140  0.4363 -0.7786
 4716poe    c2322030   3.957   0.687   4.092 -0.1496  0.5824 -0.2785
 4716poe     o222031   4.030   0.624   4.195 -0.2652 -0.1799 -0.6558
 4716poe    c3122032   3.967   0.527   4.275  0.0365  0.4948  0.4154
 4717poe    c3122033   3.742   4.238   3.660  0.1958 -0.4911 -0.4623
 4717poe     o222034   3.617   4.241   3.724  0.1875  0.0639 -0.4958
 4717poe    c2322035   3.637   4.326   3.835  0.0277 -0.0281 -0.3965
 4717poe    c2322036   3.506   4.365   3.906  0.0194 -0.4652 -0.1617
 4717poe     o222037   3.466   4.251   3.978 -0.0151 -0.1065  0.3956
 4717poe    c2322038   3.348   4.266   4.054 -0.2120  0.0798  0.0576
 4717poe    c2322039   3.323   4.123   4.106  0.1123  0.0724  0.2001
 4717poe     o222040   3.431   4.065   4.175  0.4977  0.0368 -0.4197
 4717poe    c2322041   3.441   4.114   4.307 -0.1207 -0.5583 -0.1473
 4717poe    c2322042   3.499   4.009   4.405 -0.7927 -0.4358  0.3851
 4717poe     o222043   3.633   3.969   4.390 -0.5575  0.3245  0.4116
 4717poe    c3122044   3.717   4.019   4.492 -0.0994 -0.7539  0.5760
 4718poe    c3122045   5.132   2.648   5.047 -0.0511  0.6815 -0.3610
 4718poe     o222046   5.138   2.640   4.906 -0.1978 -0.3103 -0.3142
 4718poe    c2322047   5.237   2.736   4.877  0.3439 -0.7258  0.1296
 4718poe    c2322048   5.238   2.768   4.726  0.2625 -0.2462  0.2314
 4718poe     o222049   5.231   2.647   4.655  0.4381 -0.2335  0.1914
 4718poe    c2322050   5.248   2.685   4.520 -1.1225 -0.3208 -0.0463
 4718poe    c2322051   5.262   2.560   4.432  0.3878 -0.2914  0.1364
 4718poe     o222052   5.139   2.495   4.450  0.2618 -0.0694  0.0762
 4718poe    c2322053   5.113   2.416   4.336  0.6265  0.0705 -0.1044
 4718poe    c2322054   5.076   2.269   4.360  0.8924  0.1164  0.6239
 4718poe     o222055   4.961   2.246   4.438  0.1099  0.2857 -0.4525
 4718poe    c3122056   4.969   2.117   4.494  0.1902  0.2321 -0.5870
 4719poe    c3122057   4.293   4.650   6.615  0.2226  0.0119  0.0362
 4719poe     o222058   4.341   4.521   6.587  0.3616 -0.0249  0.4378
 4719poe    c2322059   4.230   4.452   6.534  0.0438  0.9857 -0.2225
 4719poe    c2322060   4.287   4.334   6.453  0.1824  0.4141  0.7027
 4719poe     o222061   4.403   4.281   6.514  0.2521 -0.3074 -0.0380
 4719poe    c2322062   4.459   4.166   6.456  0.2151 -0.1793 -0.3298
 4719poe    c2322063   4.606   4.145   6.497  0.0924 -0.3279  0.0422
 4719poe     o222064   4.612   4.102   6.631 -0.0056  0.2913  0.2506
 4719poe    c2322065   4.748   4.082   6.663 -0.0042 -0.1975 -0.0503
 4719poe    c2322066   4.759   4.051   6.814 -0.0130 -0.0298 -0.0150
 4719poe     o222067   4.713   4.165   6.881  0.5773  0.4315 -0.3851
 4719poe    c3122068   4.721   4.154   7.022 -0.6805 -0.1622 -0.3482
 4720poe    c3122069   5.779   5.053   2.347  0.9082 -0.5133 -0.6920
 4720poe     o222070   5.788   5.081   2.485 -0.5993  0.1143 -0.6962
 4720poe    c2322071   5.661   5.068   2.545  0.0810 -0.1804  0.7088
 4720poe    c2322072   5.647   5.139   2.681  0.1617  0.5697  0.3282
 4720poe     o222073   5.690   5.073   2.798 -0.1951 -0.4590 -0.1125
 4720poe    c2322074   5.690   5.163   2.906  0.2142  0.3639 -0.7842
 4720poe    c2322075   5.739   5.093   3.035 -0.5259  0.3902 -0.4833
 4720poe     o222076   5.879   5.110   3.041 -0.4807  0.0095 -0.4618
 4720poe    c2322077   5.946   4.989   3.068 -0.0988  0.2920 -0.1285
 4720poe    c2322078   6.100   4.994   3.057 -0.0304 -0.9628  0.0344
 4720poe     o222079   6.166   5.042   2.942 -0.5229 -0.3268  0.0087
 4720poe    c3122080   6.285   4.971   2.916 -0.5097 -0.4216  0.3218
 4721poe    c3122081   2.020   7.576   2.059 -0.5495 -0.6390  0.0877
 4721poe     o222082   2.082   7.493   1.963  0.3828 -0.2628  0.3550
 4721poe    c2322083   2.223   7.501   1.965  0.4031 -0.5306  0.0709
 4721poe    c2322084   2.287   7.397   1.871  0.9935  0.3327 -0.4945
 4721poe     o222085   2.284   7.266   1.921  0.6467  0.5139 -0.0260
 4721poe    c2322086   2.280   7.165   1.822 -0.0050  0.1065  0.4057
 4721poe    c2322087   2.225   7.028   1.865 -0.1667 -0.2749 -0.9901
 4721poe     o222088   2.090   7.046   1.901  0.1927 -0.1413  0.3116
 4721poe    c2322089   2.026   6.921   1.911 -0.0657 -0.0517 -0.2194
 4721poe    c2322090   1.877   6.927   1.950  0.0003  0.3571 -0.0288
 4721poe     o222091   1.816   7.019   1.862  0.0941  0.3805 -0.0695
 4721poe    c3122092   1.686   7.041   1.912  0.1708 -0.0333  0.3107
 4722poe    c3122093   6.844   5.124   3.310  0.2568  0.5595  0.0025
 4722poe     o222094   6.815   5.019   3.399 -0.0323  1.1662  0.6312
 4722poe    c2322095   6.929   4.945   3.439 -0.4197  0.5231  0.5637
 4722poe    c2322096   6.973   4.967   3.585  0.0380  0.5340  0.4270
 4722poe     o222097   6.925   4.862   3.666 -0.0530  0.0276 -0.2742
 4722poe    c2322098   6.949   4.885   3.803 -0.0449 -0.1662 -0.2438
 4722poe    c2322099   6.980   4.758   3.885  0.1323 -0.2243 -0.3996
 4722poe     o222100   6.868   4.672   3.888  0.1376 -0.2386 -0.5798
 4722poe    c2322101   6.854   4.630   4.022  0.4778  0.1391 -0.4241
 4722poe    c2322102   6.737   4.536   4.057  0.3663  0.3653 -0.1762
 4722poe     o222103   6.775   4.402   4.030  0.3356  0.2432  0.3773
 4722poe    c3122104   6.711   4.298   4.100  0.3722 -0.1113 -0.1106
 4723poe    c3122105   1.529   3.588   6.210  0.0452 -0.6770 -0.9629
 4723poe     o222106   1.639   3.630   6.134  0.1898  0.2094 -0.2901
 4723poe    c2322107   1.744   3.659   6.224 -0.1094  1.3553 -0.3007
 4723poe    c2322108   1.868   3.730   6.167  0.3562  0.1894 -0.7747
 4723poe     o222109   1.940   3.670   6.062 -0.0035 -0.8295 -0.4488
 4723poe    c2322110   2.045   3.580   6.089  0.1790 -0.4377  0.1745
 4723poe    c2322111   2.177   3.630   6.150  0.3322 -0.3813 -0.2035
 4723poe     o222112   2.255   3.711   6.065 -0.0365  0.3399  0.1394
 4723poe    c2322113   2.386   3.669   6.098 -0.0652  0.3014  0.2037
 4723poe    c2322114   2.484   3.708   5.986 -0.2184 -0.2628 -0.1295
 4723poe     o222115   2.513   3.843   5.956  0.4468 -0.3717  0.0230
 4723poe    c3122116   2.607   3.916   6.031 -0.1091  0.4283 -0.0412
 4724poe    c3122117   1.826   3.845   2.272 -0.0599  0.1119  0.8045
 4724poe     o222118   1.849   3.865   2.410  1.0770 -0.2355  0.6783
 4724poe    c2322119   1.843   4.004   2.435  0.1221  0.0033 -0.7336
 4724poe    c2322120   1.846   4.034   2.586  0.0069  0.1490 -0.7615
 4724poe     o222121   1.966   4.018   2.657 -0.0642  0.1742 -0.6344
 4724poe    c2322122   2.004   3.882   2.664 -0.2399  0.1384 -0.3736
 4724poe    c2322123   2.140   3.865   2.735 -0.2202  0.3674 -0.3567
 4724poe     o222124   2.154   3.909   2.868 -0.4414  0.4482 -0.3582
 4724poe    c2322125   2.071   3.832   2.952  0.5085 -0.3648 -0.1374
 4724poe    c2322126   2.112   3.824   3.100  0.0611  0.0156  0.0117
 4724poe     o222127   2.124   3.945   3.172 -0.3432  0.0714 -0.0132
 4724poe    c3122128   2.003   3.986   3.231 -0.3996 -0.3219  0.1493
 4725poe    c3122129   5.805   0.920   5.123  0.1057 -0.7820  0.0861
 4725poe     o222130   5.911   0.830   5.100  0.2236 -0.7404  0.4570
 4725poe    c2322131   5.950   0.824   4.965 -0.1226 -0.2839  0.3340
 4725poe    c2322132   6.102   0.832   4.941 -0.1685  0.4484  0.2809
 4725poe     o222133   6.168   0.718   4.990  0.2596  0.5311 -0.1019
 4725poe    c2322134   6.309   0.729   4.980  0.2807  0.3157 -0.0486
 4725poe    c2322135   6.377   0.623   4.892 -0.1445  0.0400 -0.0503
 4725poe     o222136   6.359   0.629   4.752  0.5342 -0.3070 -0.1581
 4725poe    c2322137   6.461   0.552   4.693  0.4148 -0.1885 -0.5192
 4725poe    c2322138   6.456   0.559   4.539  0.0304 -0.0918 -0.5019
 4725poe     o222139   6.354   0.483   4.477 -0.5611  0.0802  0.2445
 4725poe    c3122140   6.413   0.383   4.398 -0.7933  0.0838  0.0669
 4726poe    c3122141   6.013   2.680   5.022 -0.4128 -0.1700 -0.0870
 4726poe     o222142   5.972   2.619   5.143 -0.6334 -0.2839 -0.2176
 4726poe    c2322143   6.012   2.484   5.136 -0.6931 -0.3028 -0.1858
 4726poe    c2322144   6.096   2.452   5.261 -0.2907  0.7410 -0.1836
 4726poe     o222145   6.012   2.435   5.374  0.1854  0.3026  0.1101
 4726poe    c2322146   6.090   2.406   5.488  1.0361  0.4683 -0.4172
 4726poe    c2322147   6.023   2.414   5.626  0.7534 -0.3412 -0.5012
 4726poe     o222148   6.040   2.545   5.675  0.2057 -0.5422  0.2479
 4726poe    c2322149   5.961   2.568   5.789  0.7419 -0.4510  0.6052
 4726poe    c2322150   6.000   2.708   5.841  0.2913  0.0086 -0.2770
 4726poe     o222151   5.938   2.810   5.766 -0.1493 -0.3580 -0.4171
 4726poe    c3122152   5.997   2.935   5.794 -0.4149 -0.3210 -0.0250
 4727poe    c3122153   4.988   7.132   4.083 -0.5025 -0.5455  0.1133
 4727poe     o222154   4.976   7.000   4.133 -0.8140 -0.5287  0.0783
 4727poe    c2322155   4.991   7.008   4.273  0.6658 -0.0483 -0.0951
 4727poe    c2322156   4.918   6.889   4.338  0.2068  0.1571 -0.2328
 4727poe     o222157   4.780   6.907   4.359  0.1070 -0.5645 -0.2339
 4727poe    c2322158   4.722   6.802   4.434  0.1549 -0.5754 -0.2119
 4727poe    c2322159   4.581   6.832   4.488  0.4387  0.2031  0.1132
 4727poe     o222160   4.480   6.865   4.395  0.6010  0.3113 -0.0260
 4727poe    c2322161   4.360   6.908   4.455  0.6661  0.1592  0.2170
 4727poe    c2322162   4.271   6.965   4.343 -0.1693 -0.2942  0.6412
 4727poe     o222163   4.346   7.066   4.279  0.0808 -0.7843  0.1646
 4727poe    c3122164   4.265   7.101   4.169 -0.1068 -0.6235  0.3524
 4728poe    c3122165   3.176   4.728   2.574  0.3062  0.2104 -0.0092
 4728poe     o222166   3.192   4.826   2.473 -0.0293  0.0875 -0.1814
 4728poe    c2322167   3.229   4.950   2.528 -0.1024  0.1456 -0.2627
 4728poe    c2322168   3.343   5.024   2.455  0.1103 -0.4847 -0.5791
 4728poe     o222169   3.471   4.966   2.464  0.3071 -0.0003 -0.2059
 4728poe    c2322170   3.559   5.063   2.410  0.4202  0.4997  0.8515
 4728poe    c2322171   3.698   5.000   2.388  0.1699  0.3183 -0.2762
 4728poe     o222172   3.721   4.913   2.279  0.5433 -0.2625  0.2579
 4728poe    c2322173   3.853   4.919   2.232  0.6661  0.7008  0.7011
 4728poe    c2322174   3.884   5.041   2.144  0.5591  0.1614 -0.0900
 4728poe     o222175   3.811   5.025   2.024  0.5967  0.4127 -0.1472
 4728poe    c3122176   3.858   5.120   1.930  0.9000  0.4391  0.0307
 4729poe    c3122177   6.253   0.980   6.145  0.0443 -0.0473 -0.4581
 4729poe     o222178   6.354   0.922   6.065  0.0849 -0.3163 -0.2151
 4729poe    c2322179   6.338   0.973   5.934  0.1639 -0.0514 -0.1207
 4729poe    c2322180   6.411   0.890   5.827  0.0236 -0.1970 -0.1040
 4729poe     o222181   6.332   0.776   5.806 -0.2609 -0.0855  0.3434
 4729poe    c2322182   6.237   0.795   5.703  0.2872 -0.4423 -0.2387
 4729poe    c2322183   6.174   0.657   5.681 -0.3199 -0.1809 -0.1532
 4729poe     o222184   6.279   0.569   5.649 -0.1533 -0.1468  0.2888
 4729poe    c2322185   6.238   0.445   5.594 -0.2407 -0.3194  0.7384
 4729poe    c2322186   6.358   0.350   5.611 -0.0269 -0.2939 -0.5424
 4729poe     o222187   6.473   0.423   5.575 -0.2026  0.1737 -0.1654
 4729poe    c3122188   6.571   0.342   5.513 -0.1189  0.3582 -0.2736
 4730poe    c3122189   0.592   5.012   1.746  0.0284  0.3675  0.2687
 4730poe     o222190   0.539   5.079   1.859 -0.4831 -0.2093  0.3746
 4730poe    c2322191   0.414   5.126   1.814 -0.2841  0.1094  0.1585
 4730poe    c2322192   0.355   5.224   1.917  0.1007  0.0118  0.4715
 4730poe     o222193   0.336   5.155   2.039 -0.0914 -0.0389  0.4126
 4730poe    c2322194   0.312   5.247   2.143 -0.2746  0.3533  0.0267
 4730poe    c2322195   0.344   5.188   2.282  0.4178 -0.0159 -0.2852
 4730poe     o222196   0.474   5.142   2.310  0.3701  0.3836  0.6381
 4730poe    c2322197   0.468   5.028   2.392  0.2166  0.2559  0.4524
 4730poe    c2322198   0.602   4.960   2.429  0.5212  0.6916  0.1646
 4730poe     o222199   0.659   4.910   2.310  0.1019  0.4069  0.0774
 4730poe    c3122200   0.769   4.827   2.343 -0.5421 -0.4276  0.1585
 4731poe    c3122201   1.632   7.402   0.047 -0.7471 -0.1379  0.4011
 4731poe     o222202   1.571   7.410   0.173  0.0197 -0.1352  0.7762
 4731poe    c2322203   1.660   7.364   0.273  0.7905 -0.0022  0.1634
 4731poe    c2322204   1.592   7.338   0.409 -0.2316  0.6729 -0.2067
 4731poe     o222205   1.541   7.456   0.468  0.3559  0.5868  0.4771
 4731poe    c2322206   1.567   7.438   0.605 -0.2480 -0.7303  0.4357
 4731poe    c2322207   1.685   7.524   0.653 -0.1854  0.0021 -0.9841
 4731poe     o222208   1.813   7.471   0.628 -0.3028 -0.6936 -0.1684
 4731poe    c2322209   1.863   7.363   0.703  0.1466 -0.5091 -0.1972
 4731poe    c2322210   2.014   7.340   0.685  0.2515  0.1221 -0.1456
 4731poe     o222211   2.107   7.432   0.736  0.2986 -0.1256  0.2191
 4731poe    c3122212   2.124   7.402   0.873  1.0173  0.2782  0.2232
 4732poe    c3122213   3.693   6.196   1.912  0.0099  0.1978 -0.0755
 4732poe     o222214   3.807   6.221   1.992  0.0706 -0.3067 -0.0009
 4732poe    c2322215   3.891   6.109   2.004  0.4186 -0.0553 -0.0957
 4732poe    c2322216   4.012   6.135   2.096  0.3089  0.6029 -0.1353
 4732poe     o222217   3.991   6.202   2.219  0.1890  0.2739  0.0243
 4732poe    c2322218   4.097   6.192   2.311  0.1081  0.7505  0.1700
 4732poe    c2322219   4.054   6.276   2.433 -0.9416  0.0950  0.2618
 4732poe     o222220   3.997   6.398   2.393 -0.3025  0.3024 -0.0395
 4732poe    c2322221   3.970   6.486   2.499  0.3905  0.2380  0.1942
 4732poe    c2322222   3.996   6.627   2.442 -0.2217  0.4206  0.3529
 4732poe     o222223   3.948   6.621   2.309  0.7007  0.1345  0.0266
 4732poe    c3122224   3.965   6.746   2.245 -0.3439  0.3112  0.0892
 4733poe    c3122225   6.324   2.195   5.885 -0.0841 -0.7276  0.1322
 4733poe     o222226   6.443   2.168   5.814 -0.1518 -0.0729 -0.2369
 4733poe    c2322227   6.442   2.217   5.682 -0.3976  0.1073 -0.1684
 4733poe    c2322228   6.564   2.213   5.588 -0.2147 -0.0454  0.0706
 4733poe     o222229   6.674   2.287   5.635 -0.3966  0.1295  0.2253
 4733poe    c2322230   6.764   2.250   5.532 -0.3067 -0.5415  0.5374
 4733poe    c2322231   6.905   2.242   5.594  0.1154  0.0458 -0.3321
 4733poe     o222232   6.899   2.174   5.717 -0.0663  0.4315 -0.1284
 4733poe    c2322233   7.027   2.151   5.771 -0.0055  0.6272 -0.1877
 4733poe    c2322234   7.004   2.059   5.893  0.4221  0.8463  0.0586
 4733poe     o222235   6.901   2.108   5.976  0.1795 -0.2185  0.3927
 4733poe    c3122236   6.926   2.072   6.110 -0.5716 -0.5038  0.4603
 4734poe    c3122237   4.153   6.328   6.530 -0.5575  0.1681 -0.2158
 4734poe     o222238   4.230   6.302   6.415 -0.1471  0.9213 -0.1198
 4734poe    c2322239   4.291   6.428   6.398  0.5534  0.6776  0.5716
 4734poe    c2322240   4.432   6.421   6.337  0.0735 -1.0057 -0.4098
 4734poe     o222241   4.418   6.374   6.205 -0.5922 -0.4147 -0.5556
 4734poe    c2322242   4.542   6.376   6.137 -0.4600  0.2498 -0.3094
 4734poe    c2322243   4.543   6.314   5.996 -0.2751 -0.0143 -0.1953
 4734poe     o222244   4.512   6.177   6.006  0.1944 -0.1169 -0.1526
 4734poe    c2322245   4.565   6.087   5.911 -0.1550  0.0502 -0.5056
 4734poe    c2322246   4.504   5.950   5.946 -0.7439  0.4335 -0.0161
 4734poe     o222247   4.369   5.973   5.981 -0.7744  0.0626  0.1123
 4734poe    c3122248   4.317   5.847   6.019  0.1641 -0.4954 -0.3976
 4735poe    c3122249   2.082   2.530   2.770  0.0493  0.3798  0.0413
 4735poe     o222250   2.166   2.437   2.704 -0.3055 -0.5628  0.8987
 4735poe    c2322251   2.297   2.479   2.737 -0.1916 -0.1460 -0.0700
 4735poe    c2322252   2.390   2.357   2.718  0.1765  0.0436  0.5112
 4735poe     o222253   2.342   2.242   2.784  0.1639 -0.0367  0.3622
 4735poe    c2322254   2.440   2.141   2.789 -0.0925 -0.2956  0.1943
 4735poe    c2322255   2.391   1.996   2.771 -0.0927 -0.3205  0.3959
 4735poe     o222256   2.272   1.968   2.842 -0.3195  0.0362  0.1570
 4735poe    c2322257   2.237   1.834   2.816  1.1782 -0.4245  0.4477
 4735poe    c2322258   2.097   1.788   2.859  0.7979 -0.0379 -0.3664
 4735poe     o222259   2.089   1.794   3.000  0.1471 -0.0165 -0.3988
 4735poe    c3122260   2.137   1.675   3.058  0.2018  0.1959 -0.0105
 4736poe    c3122261   6.092   3.126   7.390  0.5549  0.5128 -0.0389
 4736poe     o222262   5.988   3.191   7.460 -0.3588 -0.2904 -0.6183
 4736poe    c2322263   5.949   3.309   7.394  0.0026  0.1417 -0.0801
 4736poe    c2322264   5.815   3.368   7.441  0.2605  0.7885 -0.1423
 4736poe     o222265   5.829   3.407   7.576  0.7714  0.0297  0.0298
 4736poe    c2322266   5.705   3.454   7.623  0.9112  0.5181 -0.0910
 4736poe    c2322267   5.727   3.518   7.761  0.1927  0.0654  0.2395
 4736poe     o222268   5.669   3.445   7.866  0.0322 -0.3051 -0.1065
 4736poe    c2322269   5.669   3.522   7.985 -0.4512  0.3403 -0.5127
 4736poe    c2322270   5.649   3.426   8.104  0.2068  0.3933 -0.3559
 4736poe     o222271   5.753   3.331   8.109 -0.1510  0.0071 -0.2356
 4736poe    c3122272   5.745   3.256   8.228  0.1863  0.5463  0.1311
 4737poe    c3122273   3.093   1.109   5.713  0.5277  0.2055 -0.2998
 4737poe     o222274   3.179   1.166   5.809  0.0239  0.5957 -0.0755
 4737poe    c2322275   3.310   1.116   5.830 -0.0325  0.5570  0.1832
 4737poe    c2322276   3.420   1.223   5.817  0.1100  0.3812 -0.0563
 4737poe     o222277   3.437   1.264   5.683 -0.2342 -0.1263 -0.2584
 4737poe    c2322278   3.544   1.353   5.660  0.4388 -0.9961 -0.5408
 4737poe    c2322279   3.554   1.392   5.512 -0.0611  0.4440 -0.2098
 4737poe     o222280   3.437   1.457   5.467 -0.3667 -0.0803 -0.1775
 4737poe    c2322281   3.420   1.454   5.327 -0.2205 -0.2267 -0.1918
 4737poe    c2322282   3.277   1.485   5.280 -0.5348 -0.0634  0.8393
 4737poe     o222283   3.250   1.623   5.291  0.0213  0.1373 -0.1633
 4737poe    c3122284   3.131   1.648   5.220 -0.2395 -0.4553  0.0534
 4738poe    c3122285   0.509   4.784   0.562  0.7029 -0.2675 -0.6176
 4738poe     o222286   0.445   4.792   0.688  0.1059 -0.2554 -0.9169
 4738poe    c2322287   0.312   4.746   0.682 -0.1789  0.5016 -0.4118
 4738poe    c2322288   0.264   4.735   0.828 -0.1272  0.6808 -0.3806
 4738poe     o222289   0.324   4.827   0.916  0.0955  0.1457  0.0334
 4738poe    c2322290   0.309   4.785   1.050  0.1121  0.2558  0.0705
 4738poe    c2322291   0.337   4.906   1.141  0.0219 -0.2908  0.8328
 4738poe     o222292   0.451   4.976   1.097 -0.5309  0.1225  0.0323
 4738poe    c2322293   0.484   5.069   1.199 -0.1908 -0.3765  0.3809
 4738poe    c2322294   0.571   5.180   1.138 -0.0132 -0.5222  0.3692
 4738poe     o222295   0.696   5.128   1.099 -0.2371 -0.5278 -0.3566
 4738poe    c3122296   0.772   5.219   1.022  0.2191 -0.0358  0.6531
 4739poe    c3122297   1.436   0.498   7.259  0.4639  0.0370 -0.3052
 4739poe     o222298   1.451   0.389   7.170 -0.0848 -0.3750  0.1045
 4739poe    c2322299   1.334   0.312   7.191 -0.2412 -0.2906 -0.4414
 4739poe    c2322300   1.227   0.322   7.082 -0.1271  0.3561 -0.5015
 4739poe     o222301   1.173   0.448   7.049  0.0964  0.4878 -0.3573
 4739poe    c2322302   1.065   0.488   7.131  0.6147  0.0426  0.5677
 4739poe    c2322303   1.035   0.633   7.090  0.1777 -0.1868  0.0626
 4739poe     o222304   1.127   0.733   7.130  0.0876 -0.0706 -0.0189
 4739poe    c2322305   1.057   0.853   7.150 -0.2457 -0.2521 -0.0818
 4739poe    c2322306   1.014   0.873   7.297  0.2026 -0.1531  0.0363
 4739poe     o222307   1.131   0.912   7.365  0.1690  0.4526 -0.2458
 4739poe    c3122308   1.132   0.857   7.495 -0.9840 -0.4048 -0.5907
 4740poe    c3122309   2.322   6.043   1.351 -0.1879  0.2938 -0.2676
 4740poe     o222310   2.460   6.050   1.378 -0.2152  0.0321 -0.0586
 4740poe    c2322311   2.480   6.130   1.493  0.5956 -0.1414 -0.0713
 4740poe    c2322312   2.624   6.183   1.483  0.6265 -0.1964  0.0750
 4740poe     o222313   2.650   6.267   1.372  0.2389 -0.0582  0.0852
 4740poe    c2322314   2.786   6.262   1.334  0.1122 -0.8692 -0.2903
 4740poe    c2322315   2.826   6.336   1.205 -0.0641 -0.0460  0.1189
 4740poe     o222316   2.784   6.279   1.083  0.6606 -0.8039  0.2104
 4740poe    c2322317   2.657   6.321   1.038  0.8673  0.0179  0.3777
 4740poe    c2322318   2.643   6.327   0.885  0.4243 -0.4145  0.4010
 4740poe     o222319   2.703   6.438   0.822  0.0965 -0.2083  0.4463
 4740poe    c3122320   2.612   6.545   0.807  0.1110 -0.2865 -0.2324
 4741poe    c3122321   4.253   3.172   4.013  0.7515 -0.5580  0.7305
 4741poe     o222322   4.291   3.306   4.031 -0.4126 -0.2021  0.5836
 4741poe    c2322323   4.417   3.315   4.094 -0.1065  0.9671 -0.1508
 4741poe    c2322324   4.512   3.420   4.034  0.1548  0.6344 -0.3188
 4741poe     o222325   4.470   3.553   4.050 -0.8629  0.2549  0.2684
 4741poe    c2322326   4.545   3.640   3.968 -0.4999  0.0024  0.3353
 4741poe    c2322327   4.503   3.787   3.981  0.6103  0.3626 -0.0089
 4741poe     o222328   4.381   3.802   3.912  0.2769  0.3258  0.5683
 4741poe    c2322329   4.345   3.938   3.923  0.1552  0.3751 -0.3385
 4741poe    c2322330   4.224   3.978   3.837 -0.4329 -0.6116  0.0094
 4741poe     o222331   4.107   3.917   3.888 -0.6951 -0.0417  0.0972
 4741poe    c3122332   3.998   3.949   3.805 -0.6360 -0.1966 -0.0400
 4742poe    c3122333   2.562   0.785   4.760  0.1400 -0.0155 -0.1000
 4742poe     o222334   2.492   0.732   4.870 -0.1136  0.7110  0.0948
 4742poe    c2322335   2.583   0.696   4.972 -0.6366 -0.5502  0.1302
 4742poe    c2322336   2.516   0.670   5.108  0.3744 -0.2379  0.7023
 4742poe     o222337   2.434   0.555   5.109 -0.1059  0.0855 -0.1111
 4742poe    c2322338   2.327   0.602   5.187 -0.0586  0.3922 -0.2304
 4742poe    c2322339   2.209   0.503   5.198 -0.1427  0.5283  0.1126
 4742poe     o222340   2.209   0.416   5.309 -0.4468  0.5499  0.1292
 4742poe    c2322341   2.106   0.320   5.298 -0.0226  0.0244  0.6551
 4742poe    c2322342   2.077   0.245   5.429 -0.2767 -0.3049  0.4130
 4742poe     o222343   2.182   0.166   5.480  0.0186  0.1461  0.5121
 4742poe    c3122344   2.147   0.111   5.605 -0.1027 -1.0438 -0.0265
 4743poe    c3122345   3.621   7.224   4.206 -0.0608  0.5509  0.1926
 4743poe     o222346   3.533   7.180   4.307 -0.0988  0.0399 -0.0539
 4743poe    c2322347   3.407   7.133   4.268 -0.0452 -0.0669 -0.0979
 4743poe    c2322348   3.367   7.052   4.143  0.0395  0.0340 -0.1904
 4743poe     o222349   3.386   7.135   4.030 -0.3582  0.7394  0.2514
 4743poe    c2322350   3.311   7.096   3.917  0.4788  0.3366 -0.1685
 4743poe    c2322351   3.297   7.204   3.808  0.1598  0.2210 -0.2409
 4743poe     o222352   3.416   7.237   3.741  0.3401  0.4199  0.1730
 4743poe    c2322353   3.397   7.334   3.640 -0.0570  0.3190  0.1490
 4743poe    c2322354   3.526   7.387   3.574 -0.5924  0.7737 -0.5446
 4743poe     o222355   3.571   7.334   3.451 -0.0007 -0.1078  0.0379
 4743poe    c3122356   3.711   7.338   3.435  0.0605 -0.3041  0.5215
 4744poe    c3122357   4.129   5.780   4.897  0.0135  0.2991  0.0257
 4744poe     o222358   4.144   5.858   4.781 -0.1481  0.2469 -0.0310
 4744poe    c2322359   4.036   5.833   4.694 -0.0865  0.0154 -0.0414
 4744poe    c2322360   4.011   5.939   4.585 -0.7851 -0.2451 -0.1383
 4744poe     o222361   3.975   6.069   4.625  0.1315  0.1556 -0.5821
 4744poe    c2322362   3.843   6.084   4.672  0.2167  0.5252 -0.4549
 4744poe    c2322363   3.729   6.078   4.569 -0.2249 -0.4576  0.0850
 4744poe     o222364   3.659   5.957   4.546  0.0091 -0.4972 -0.4218
 4744poe    c2322365   3.563   5.976   4.444  0.3056  0.1306 -0.5929
 4744poe    c2322366   3.543   5.865   4.339 -0.1013 -0.0637 -0.3149
 4744poe     o222367   3.653   5.845   4.253  0.3886  0.3562  0.2056
 4744poe    c3122368   3.663   5.927   4.139  0.4286 -0.3220 -0.2849
 4745poe    c3122369   5.112   0.828   6.464  0.6197  0.2128  0.0223
 4745poe     o222370   5.177   0.731   6.386  0.3616 -0.0064  0.0796
 4745poe    c2322371   5.190   0.610   6.458  0.1183  0.0998  0.3013
 4745poe    c2322372   5.290   0.510   6.399 -0.0982  0.0770 -0.0275
 4745poe     o222373   5.242   0.449   6.281  0.1284  0.2219 -0.1950
 4745poe    c2322374   5.311   0.348   6.211 -0.1692  0.1184 -0.3393
 4745poe    c2322375   5.227   0.222   6.180  0.5564 -0.3999 -0.2298
 4745poe     o222376   5.119   0.269   6.102  0.2421 -0.6192  0.0695
 4745poe    c2322377   5.019   0.170   6.097 -0.1867 -0.2263  0.7378
 4745poe    c2322378   4.880   0.204   6.155 -0.2043  0.7508  0.1308
 4745poe     o222379   4.798   0.284   6.073  0.0191  0.3371 -0.5059
 4745poe    c3122380   4.668   0.282   6.126  0.4166 -0.6986  0.4692
 4746poe    c3122381   2.349   3.709   6.625 -0.0982 -1.0826  0.5149
 4746poe     o222382   2.471   3.754   6.681 -0.4210 -0.1756  0.5027
 4746poe    c2322383   2.563   3.649   6.668 -0.0917  0.2139 -0.3518
 4746poe    c2322384   2.687   3.687   6.750 -0.2648  0.6684 -0.3015
 4746poe     o222385   2.635   3.724   6.876 -0.1640 -0.4039  0.0620
 4746poe    c2322386   2.730   3.720   6.980 -0.0575 -0.6633 -0.0441
 4746poe    c2322387   2.668   3.678   7.115  0.1764 -0.4816  0.1218
 4746poe     o222388   2.612   3.790   7.179 -0.4164 -0.3861 -0.5430
 4746poe    c2322389   2.525   3.766   7.288 -0.0278  0.3497 -0.0690
 4746poe    c2322390   2.402   3.674   7.287 -0.1036  0.4482  0.0946
 4746poe     o222391   2.298   3.724   7.207  0.1652  0.1008 -0.4784
 4746poe    c3122392   2.166   3.674   7.218  0.1095  0.4085  0.3336
 4747poe    c3122393   3.278   0.918   3.792  0.0887  0.0579 -0.2888
 4747poe     o222394   3.388   0.941   3.706  0.2408  0.0751 -0.0921
 4747poe    c2322395   3.506   0.935   3.782  0.2661  0.0493 -0.1338
 4747poe    c2322396   3.631   0.941   3.692  0.0774  0.3547 -0.3749
 4747poe     o222397   3.600   0.847   3.591 -0.0161 -0.2982  0.2561
 4747poe    c2322398   3.716   0.805   3.522  0.0349 -0.0736  0.2052
 4747poe    c2322399   3.681   0.696   3.419 -0.2087 -0.1029  0.3194
 4747poe     o222400   3.592   0.755   3.327  0.0596 -0.1545  0.0280
 4747poe    c2322401   3.561   0.678   3.213  0.4028 -0.6021  0.2343
 4747poe    c2322402   3.498   0.767   3.104  0.6799  0.0857  0.6274
 4747poe     o222403   3.363   0.783   3.142  0.3627 -0.3044 -0.2906
 4747poe    c3122404   3.289   0.859   3.049  0.3603  0.1638  0.0849
 4748poe    c3122405   3.740   0.763   4.996  0.2694  0.0862  0.3567
 4748poe     o222406   3.662   0.654   4.953  0.2963  0.4353 -0.6010
 4748poe    c2322407   3.552   0.692   4.874  0.0046  0.3143 -0.2580
 4748poe    c2322408   3.447   0.580   4.861 -0.1700  0.4889 -0.3650
 4748poe     o222409   3.486   0.476   4.775 -0.7764  0.0177 -0.0771
 4748poe    c2322410   3.434   0.354   4.823 -0.4386 -0.0879  0.0281
 4748poe    c2322411   3.489   0.247   4.727 -0.3649  0.1192 -0.1610
 4748poe     o222412   3.629   0.230   4.723 -0.4082 -0.2734  0.0025
 4748poe    c2322413   3.683   0.123   4.650  0.3740 -0.0473  0.2379
 4748poe    c2322414   3.815   0.096   4.724  0.1894 -0.1955  0.5144
 4748poe     o222415   3.869   0.211   4.785 -0.6947  0.0374  0.8755
 4748poe    c3122416   3.989   0.178   4.851 -0.4009  0.1073  0.3872
 4749poe    c3122417   6.585   1.709   3.193 -0.7990 -0.2594 -1.1453
 4749poe     o222418   6.723   1.734   3.177 -0.5591 -0.7639  0.0011
 4749poe    c2322419   6.791   1.611   3.181 -0.0371 -0.4827 -0.2367
 4749poe    c2322420   6.944   1.613   3.202 -0.0401  0.1642 -0.2442
 4749poe     o222421   6.998   1.627   3.073  0.4717  0.5484  0.0073
 4749poe    c2322422   7.138   1.613   3.081  0.4213 -0.0047 -0.0147
 4749poe    c2322423   7.207   1.680   2.961  0.2488 -0.0409 -0.1344
 4749poe     o222424   7.223   1.820   2.958  0.4139 -0.0275  0.8918
 4749poe    c2322425   7.341   1.873   3.015  0.6585 -0.3488  0.6900
 4749poe    c2322426   7.354   2.025   2.996  0.1833 -0.3224  0.5533
 4749poe     o222427   7.268   2.095   3.083 -0.1760  0.1268 -0.1547
 4749poe    c3122428   7.307   2.225   3.117 -0.2243  0.3979 -1.1112
 4750poe    c3122429   4.075   0.954   0.115 -0.2740 -0.3496 -0.0534
 4750poe     o222430   4.038   0.821   0.142 -0.2226 -0.3678 -0.0716
 4750poe    c2322431   3.946   0.800   0.248  0.3589 -0.3709  0.4376
 4750poe    c2322432   3.883   0.659   0.245 -0.2722 -0.0901  0.3166
 4750poe     o222433   3.844   0.621   0.115 -0.0129  0.0149  0.2063
 4750poe    c2322434   3.707   0.587   0.115 -0.1527  0.5716  0.1549
 4750poe    c2322435   3.668   0.572  -0.033  0.3048  1.0014 -0.0129
 4750poe     o222436   3.736   0.469  -0.101  0.0812  0.6860  0.2394
 4750poe    c2322437   3.681   0.444  -0.228 -0.0158 -0.2085  0.4487
 4750poe    c2322438   3.759   0.336  -0.306 -0.2451  0.0394 -0.1313
 4750poe     o222439   3.880   0.389  -0.356 -0.2076  0.3389  0.2669
 4750poe    c3122440   3.946   0.285  -0.425 -0.3583 -0.0944  0.7695
 4751poe    c3122441   6.598   2.246   4.158  0.0561  0.0736 -0.0139
 4751poe     o222442   6.467   2.243   4.211  0.2645 -0.0404  0.5036
 4751poe    c2322443   6.439   2.335   4.314 -0.2244 -0.0523  0.3818
 4751poe    c2322444   6.299   2.302   4.370 -0.1672 -0.0645  0.5178
 4751poe     o222445   6.210   2.312   4.261 -0.0264 -0.0459  0.4034
 4751poe    c2322446   6.092   2.370   4.314 -0.2492 -0.0590 -0.0726
 4751poe    c2322447   5.992   2.362   4.197  0.2815  0.3174 -0.5578
 4751poe     o222448   5.961   2.236   4.142 -0.7221  0.3188 -0.0087
 4751poe    c2322449   5.893   2.255   4.021 -0.6650 -0.4700 -0.1697
 4751poe    c2322450   5.894   2.116   3.955 -0.2748 -0.3769 -0.3604
 4751poe     o222451   6.024   2.065   3.978 -0.4760 -0.7189  0.0134
 4751poe    c3122452   6.040   1.949   3.899  0.6554 -0.7625  0.2896
 4752poe    c3122453   2.523   6.766   0.078 -0.1720 -0.1547  0.2377
 4752poe     o222454   2.418   6.802   0.166  0.2476  0.6206  0.4265
 4752poe    c2322455   2.338   6.890   0.091  0.1202  0.2532  0.1309
 4752poe    c2322456   2.248   6.959   0.195  0.2821 -0.0401  0.4650
 4752poe     o222457   2.218   6.862   0.293 -0.3186 -0.0530  0.2757
 4752poe    c2322458   2.125   6.901   0.392  0.0173 -0.1615  0.6358
 4752poe    c2322459   2.150   6.822   0.522 -0.2531 -0.6599  0.3844
 4752poe     o222460   2.289   6.814   0.545 -0.1015  0.3568 -0.1284
 4752poe    c2322461   2.312   6.819   0.684  0.3056 -0.1471 -0.1753
 4752poe    c2322462   2.401   6.936   0.729 -0.1662  0.0853  0.1592
 4752poe     o222463   2.522   6.940   0.656 -0.3605 -0.1681 -0.1778
 4752poe    c3122464   2.611   7.028   0.721 -0.0364 -0.0884 -0.7297
 4753poe    c3122465   5.282   3.642   0.918 -0.0779  0.0700  0.5008
 4753poe     o222466   5.260   3.762   0.987 -0.4366  0.3560 -0.1074
 4753poe    c2322467   5.331   3.871   0.932 -0.0492 -0.1651 -0.6489
 4753poe    c2322468   5.302   4.007   0.998  0.4871 -0.1873 -0.3554
 4753poe     o222469   5.167   4.049   0.996  0.4169 -0.3632  0.2981
 4753poe    c2322470   5.115   4.087   0.871  0.5935  0.1209  0.3664
 4753poe    c2322471   4.969   4.128   0.902  0.4465  0.0497 -0.2054
 4753poe     o222472   4.919   4.026   0.985  0.1440  0.2890 -0.0948
 4753poe    c2322473   4.781   4.049   1.007  0.0945 -0.0660 -0.0232
 4753poe    c2322474   4.733   3.962   1.125  0.8285 -0.1111  0.2470
 4753poe     o222475   4.828   3.988   1.226  0.1807  1.1335  0.5605
 4753poe    c3122476   4.785   3.901   1.329 -0.2367  0.5353 -0.1083
 4754poe    c3122477   1.315   4.394   4.094  0.0848  0.2052 -0.3002
 4754poe     o222478   1.357   4.268   4.045 -0.1085  0.0472 -0.0606
 4754poe    c2322479   1.399   4.176   4.143  0.3739 -0.0624 -0.3643
 4754poe    c2322480   1.295   4.070   4.185  0.2370  0.2630  0.1317
 4754poe     o222481   1.270   3.982   4.078  0.2604 -0.5717  0.7970
 4754poe    c2322482   1.177   3.890   4.128 -1.1135  0.3043 -0.0794
 4754poe    c2322483   1.129   3.800   4.012 -0.4689 -0.0841 -0.0442
 4754poe     o222484   1.232   3.761   3.924 -0.4088  0.6351 -0.2955
 4754poe    c2322485   1.184   3.699   3.807 -0.1953  0.1026 -0.1053
 4754poe    c2322486   1.297   3.713   3.702 -0.5929  0.0384 -0.5465
 4754poe     o222487   1.311   3.851   3.676 -0.0876  0.1111  0.0849
 4754poe    c3122488   1.429   3.881   3.605 -0.1125 -0.0667 -0.0314
 4755poe    c3122489   7.485   2.776   2.473  0.5714 -0.4354 -0.4055
 4755poe     o222490   7.538   2.904   2.500  0.1834 -0.3943  0.1752
 4755poe    c2322491   7.542   2.960   2.371  0.2216 -0.1911  0.2647
 4755poe    c2322492   7.626   3.089   2.359 -0.0493  0.0310  0.7060
 4755poe     o222493   7.766   3.076   2.359 -0.0395  0.0853  0.1371
 4755poe    c2322494   7.827   3.204   2.368  0.2289 -0.0187 -0.1978
 4755poe    c2322495   7.952   3.205   2.458  0.1206  0.8130 -0.0561
 4755poe     o222496   7.921   3.174   2.592 -0.4687 -0.1417 -0.3989
 4755poe    c2322497   8.032   3.203   2.674 -0.5536 -0.0388 -0.3202
 4755poe    c2322498   8.010   3.142   2.814  0.2515 -0.0045 -0.1713
 4755poe     o222499   7.990   3.002   2.817 -0.0954  0.0525  0.1734
 4755poe    c3122500   8.000   2.961   2.952 -0.9423 -0.1475  0.1803
 4756poe    c3122501   0.194   6.529   0.090  0.3585 -0.6965  0.2419
 4756poe     o222502   0.287   6.634   0.102  0.2009 -0.5082 -0.1620
 4756poe    c2322503   0.408   6.603   0.036  0.4498  0.1212 -0.0065
 4756poe    c2322504   0.522   6.706   0.053  0.3737  0.2353 -0.1800
 4756poe     o222505   0.558   6.716   0.189  0.0662  0.2072 -0.0947
 4756poe    c2322506   0.649   6.616   0.229  0.3689  0.5985  0.2033
 4756poe    c2322507   0.773   6.641   0.317  0.2055 -0.1999  0.6733
 4756poe     o222508   0.889   6.668   0.241 -0.3906  0.1307 -0.1308
 4756poe    c2322509   1.003   6.650   0.322  0.0459 -0.2386 -0.8115
 4756poe    c2322510   1.145   6.673   0.268  0.3857 -0.2142  0.0707
 4756poe     o222511   1.156   6.799   0.206  0.2634 -0.4069 -0.3460
 4756poe    c3122512   1.283   6.823   0.150  0.3472 -0.2999 -0.1101
 4757poe    c3122513   1.586   6.160   4.474 -0.4213  0.1131  0.2502
 4757poe     o222514   1.650   6.103   4.586 -0.3048 -0.3669 -0.0555
 4757poe    c2322515   1.629   6.175   4.705 -0.2380 -0.1453 -0.1772
 4757poe    c2322516   1.699   6.119   4.830  0.2555  0.4368 -0.1868
 4757poe     o222517   1.642   5.999   4.877  0.1534  0.3829 -0.4486
 4757poe    c2322518   1.696   5.982   5.006 -0.4939  0.3041 -0.1811
 4757poe    c2322519   1.638   5.854   5.069  0.4010 -0.1605 -0.2834
 4757poe     o222520   1.671   5.747   4.984  0.0100 -0.1843 -0.4075
 4757poe    c2322521   1.606   5.629   5.026 -0.6560  0.3517  0.0818
 4757poe    c2322522   1.611   5.512   4.925  0.1413  0.5196 -0.0791
 4757poe     o222523   1.543   5.562   4.812 -0.0912  0.0656 -0.1387
 4757poe    c3122524   1.439   5.477   4.766  0.1552 -0.1766 -0.2530
 4758poe    c3122525   6.364   0.389   3.183 -0.0089  0.6234  0.0626
 4758poe     o222526   6.348   0.417   3.320  0.1971  0.1653  0.1825
 4758poe    c2322527   6.215   0.452   3.350  0.1889 -0.2639  0.6667
 4758poe    c2322528   6.195   0.465   3.502  0.0900 -0.1243  0.6422
 4758poe     o222529   6.315   0.528   3.542 -0.3919  1.1889  0.0885
 4758poe    c2322530   6.319   0.583   3.672 -0.0571 -0.1656  0.6728
 4758poe    c2322531   6.464   0.579   3.723  0.1768 -0.2613  0.0088
 4758poe     o222532   6.524   0.633   3.607  0.1643 -1.1464 -0.4116
 4758poe    c2322533   6.627   0.726   3.629 -0.6293 -0.4984  0.6384
 4758poe    c2322534   6.597   0.868   3.681 -0.3346 -0.2993  0.2618
 4758poe     o222535   6.533   0.941   3.579 -0.3274 -0.6210  0.0242
 4758poe    c3122536   6.501   1.065   3.639  0.0316 -0.2543 -0.5277
 4759poe    c3122537   5.025   0.338   0.945  0.4747 -0.4312  0.3416
 4759poe     o222538   4.992   0.457   1.013 -0.0645 -0.2451 -0.2440
 4759poe    c2322539   4.860   0.494   0.979 -0.0596  0.0023 -0.0043
 4759poe    c2322540   4.827   0.620   1.060 -0.2832  0.2053 -0.4067
 4759poe     o222541   4.926   0.718   1.035  0.3575 -0.2280  0.4081
 4759poe    c2322542   4.916   0.820   1.132  0.3282  0.2332 -0.0736
 4759poe    c2322543   5.038   0.914   1.131 -0.3180  1.0876  0.3784
 4759poe     o222544   5.148   0.851   1.192 -0.3867  0.1651 -0.4201
 4759poe    c2322545   5.185   0.946   1.290 -0.5435 -0.1628 -0.0415
 4759poe    c2322546   5.293   0.894   1.386 -0.3904  0.0075 -0.1219
 4759poe     o222547   5.388   0.811   1.322 -0.3585 -0.0236 -0.0348
 4759poe    c3122548   5.464   0.741   1.417 -0.7947 -0.1524  0.2207
 4760poe    c3122549   5.355   4.385   4.250 -0.7104  0.2494 -0.3708
 4760poe     o222550   5.347   4.485   4.349  0.1857  0.1928 -0.2382
 4760poe    c2322551   5.457   4.570   4.323  0.4019  0.0437  0.1674
 4760poe    c2322552   5.493   4.627   4.462 -0.2574  0.0635  0.3345
 4760poe     o222553   5.385   4.630   4.552 -0.6072 -0.0163 -0.0736
 4760poe    c2322554   5.365   4.764   4.592  0.2882  0.0173  0.2906
 4760poe    c2322555   5.292   4.752   4.727 -0.5240  0.5269 -0.0938
 4760poe     o222556   5.192   4.655   4.747  0.4307 -0.4403  0.1005
 4760poe    c2322557   5.212   4.608   4.878  0.0830 -0.4555  0.1497
 4760poe    c2322558   5.094   4.515   4.911 -0.3054 -0.1225 -0.2972
 4760poe     o222559   4.974   4.579   4.949  0.2794  0.6338  0.2867
 4760poe    c3122560   4.895   4.505   5.039 -0.3589  0.2876 -0.5573
 4761poe    c3122561   2.152   3.674   0.579 -0.1374 -0.1751  0.0807
 4761poe     o222562   2.027   3.662   0.516  0.0391  0.8879 -0.5017
 4761poe    c2322563   1.945   3.745   0.595  0.0958  0.2086  0.2748
 4761poe    c2322564   1.816   3.753   0.512  0.3744  0.3418 -0.1458
 4761poe     o222565   1.770   3.626   0.469 -0.0031  0.3409  0.2581
 4761poe    c2322566   1.659   3.625   0.383  0.4423  0.1584 -0.3185
 4761poe    c2322567   1.610   3.483   0.349 -0.0473  0.2662 -0.0707
 4761poe     o222568   1.707   3.409   0.279 -0.5513  0.1707 -0.6813
 4761poe    c2322569   1.655   3.284   0.237  0.0258 -0.2106 -0.2777
 4761poe    c2322570   1.636   3.166   0.334  0.2863 -0.1461 -0.1454
 4761poe     o222571   1.765   3.137   0.383  0.2664 -0.3107 -0.1913
 4761poe    c3122572   1.745   3.028   0.471 -0.0812 -0.0910  0.0052
 4762poe    c3122573   4.139   1.029   1.091  0.6778  0.2258  0.6960
 4762poe     o222574   4.022   1.108   1.090  0.3494 -0.2650  0.4381
 4762poe    c2322575   4.054   1.245   1.090 -0.0694 -0.1651  0.4364
 4762poe    c2322576   3.961   1.366   1.071 -0.0039 -0.1938 -0.0837
 4762poe     o222577   3.863   1.384   1.170  0.1087  0.0150 -0.0085
 4762poe    c2322578   3.892   1.455   1.288  0.2391 -0.1146  0.0378
 4762poe    c2322579   3.769   1.511   1.362  0.0669 -0.2332 -0.1586
 4762poe     o222580   3.694   1.410   1.426 -0.3202 -0.2916 -0.6958
 4762poe    c2322581   3.562   1.454   1.448  0.1822  0.7901  0.2361
 4762poe    c2322582   3.478   1.363   1.538  0.0892  0.5617 -0.0794
 4762poe     o222583   3.432   1.245   1.475  0.7460  0.0079  0.4565
 4762poe    c3122584   3.424   1.151   1.579  0.0122  0.2299  0.6102
 4763poe    c3122585   4.982   4.503   0.728  0.4990 -0.0730  0.0474
 4763poe     o222586   5.047   4.405   0.650  0.1852  0.0218 -0.3377
 4763poe    c2322587   5.163   4.436   0.578  0.7449 -0.1403  0.4799
 4763poe    c2322588   5.215   4.314   0.500  0.0736  0.1085 -0.3754
 4763poe     o222589   5.135   4.252   0.402 -0.0500 -0.7574  0.2699
 4763poe    c2322590   5.039   4.168   0.464 -0.6173 -0.0596  0.3399
 4763poe    c2322591   4.967   4.071   0.368 -0.1357  0.3516 -0.4532
 4763poe     o222592   4.877   4.153   0.296  0.2203  0.7049 -0.4967
 4763poe    c2322593   4.783   4.069   0.233 -0.0437  0.0910  0.6872
 4763poe    c2322594   4.686   4.152   0.146  0.2376 -0.5307 -0.2311
 4763poe     o222595   4.743   4.213   0.033  0.7690 -0.3172  0.1454
 4763poe    c3122596   4.742   4.136  -0.086  0.0830 -0.3371  0.1616
 4764poe    c3122597   6.284   2.145   6.366 -0.0500  0.0606 -0.4748
 4764poe     o222598   6.366   2.031   6.373 -0.1182  0.0435  0.0822
 4764poe    c2322599   6.435   2.026   6.250 -0.7498 -0.8643 -0.2465
 4764poe    c2322600   6.535   1.912   6.224 -0.1726 -0.3707 -0.1947
 4764poe     o222601   6.612   1.892   6.341 -0.3538  0.1283  0.0152
 4764poe    c2322602   6.693   1.779   6.319 -0.7506 -0.1984  0.2263
 4764poe    c2322603   6.803   1.772   6.427 -0.3286 -0.0262 -0.1874
 4764poe     o222604   6.758   1.720   6.550 -0.1151  0.0216 -0.0898
 4764poe    c2322605   6.834   1.603   6.571 -0.5997 -0.2125  0.3951
 4764poe    c2322606   6.810   1.528   6.703 -0.1509 -0.2031  0.4838
 4764poe     o222607   6.818   1.608   6.819 -0.0022  0.3785  0.0758
 4764poe    c3122608   6.826   1.530   6.936  0.0049  0.1993 -0.0439
 4765poe    c3122609   2.175   6.108   2.493 -0.0849  0.1656 -0.1758
 4765poe     o222610   2.184   6.112   2.353 -0.1761 -0.1151 -0.1906
 4765poe    c2322611   2.308   6.169   2.317  0.1129 -0.4713  0.2431
 4765poe    c2322612   2.279   6.239   2.183  0.1552 -0.7874  0.0691
 4765poe     o222613   2.213   6.164   2.083 -0.2314 -0.2598 -0.0760
 4765poe    c2322614   2.296   6.153   1.969 -0.3230 -0.4278 -0.1261
 4765poe    c2322615   2.226   6.063   1.866  0.0519  0.1116 -0.8538
 4765poe     o222616   2.188   5.934   1.908  0.1227  0.4195  0.1783
 4765poe    c2322617   2.143   5.861   1.796  0.7666  0.2106  0.0533
 4765poe    c2322618   2.035   5.763   1.844  0.3611  0.5224 -0.2165
 4765poe     o222619   2.085   5.686   1.951 -0.1605  0.1075 -0.2633
 4765poe    c3122620   2.030   5.556   1.956  0.3803 -0.1402 -0.6353
 4766poe    c3122621   5.691   5.529   3.175  0.3112 -0.3024  0.0069
 4766poe     o222622   5.584   5.621   3.163  0.3130 -0.2999  0.0042
 4766poe    c2322623   5.542   5.592   3.032 -0.0957 -0.0561  0.0803
 4766poe    c2322624   5.468   5.715   2.976  0.3378 -0.0006 -0.3689
 4766poe     o222625   5.349   5.739   3.047  0.4680 -0.9235  0.1806
 4766poe    c2322626   5.235   5.659   3.028 -0.2510  0.1203 -0.0316
 4766poe    c2322627   5.120   5.718   3.111 -0.2224 -0.1566  0.2089
 4766poe     o222628   5.151   5.747   3.246  0.6381  0.5205 -0.1228
 4766poe    c2322629   5.038   5.802   3.310  0.4623  0.1612 -0.1171
 4766poe    c2322630   5.093   5.840   3.449  0.2118  0.1880 -0.0247
 4766poe     o222631   5.191   5.935   3.414  0.4658 -0.1011 -0.1072
 4766poe    c3122632   5.230   6.019   3.520 -0.6453 -0.1496  0.3589
 4767poe    c3122633   2.646   3.861   4.992 -0.8001 -0.3561 -0.2212
 4767poe     o222634   2.703   3.744   4.939 -0.4171 -0.0972 -0.3885
 4767poe    c2322635   2.684   3.725   4.800  0.2554 -0.1338 -0.4773
 4767poe    c2322636   2.733   3.585   4.756 -0.2084 -0.5656  0.3524
 4767poe     o222637   2.869   3.550   4.747 -0.0146  0.1992  0.2182
 4767poe    c2322638   2.940   3.577   4.866  0.0265  0.2578  0.1807
 4767poe    c2322639   3.024   3.706   4.865  0.3701  0.0330  0.2912
 4767poe     o222640   3.137   3.724   4.782  0.3370 -0.3204  0.1661
 4767poe    c2322641   3.168   3.858   4.812 -0.3154 -0.1641  0.1512
 4767poe    c2322642   3.311   3.902   4.778 -0.2840 -0.0728  0.4025
 4767poe     o222643   3.405   3.829   4.854  0.2735  0.4158  0.1965
 4767poe    c3122644   3.536   3.880   4.844  0.3102  0.1824 -0.5714
 4768poe    c3122645   6.637   6.382   5.180 -0.5425 -0.0693  0.4703
 4768poe     o222646   6.535   6.344   5.090 -0.1558 -0.0138  0.0102
 4768poe    c2322647   6.588   6.317   4.962  0.3377  0.2509  0.1549
 4768poe    c2322648   6.485   6.277   4.855  0.3957  0.0035  0.1912
 4768poe     o222649   6.413   6.158   4.879  0.6073  0.0148  0.8867
 4768poe    c2322650   6.488   6.055   4.819  0.0374 -0.0038  0.1991
 4768poe    c2322651   6.413   5.924   4.789  0.9976 -0.4462 -0.3021
 4768poe     o222652   6.334   5.941   4.674 -0.1126 -0.4917  0.4437
 4768poe    c2322653   6.280   5.813   4.646 -0.9336 -0.1477  0.4260
 4768poe    c2322654   6.211   5.810   4.508 -0.0951 -0.6018  0.0086
 4768poe     o222655   6.306   5.820   4.405  0.3499  0.4054  0.5002
 4768poe    c3122656   6.252   5.822   4.275  0.0405  0.0332  0.6225
 4769poe    c3122657   6.231   5.236   1.067  0.3573  0.2983 -0.0222
 4769poe     o222658   6.336   5.254   0.974 -0.1824  0.4848 -0.5944
 4769poe    c2322659   6.358   5.133   0.905 -0.2669 -0.1371  0.4502
 4769poe    c2322660   6.436   5.025   0.982  0.2786  0.0630  0.1860
 4769poe     o222661   6.374   4.985   1.102  0.0062  0.0609  0.0449
 4769poe    c2322662   6.461   4.910   1.184 -0.1155  0.3432  0.4393
 4769poe    c2322663   6.390   4.865   1.314  0.7004 -0.6515  0.5560
 4769poe     o222664   6.301   4.763   1.277 -0.2128  0.2992  0.0578
 4769poe    c2322665   6.183   4.759   1.355 -0.1120  0.2645  0.2113
 4769poe    c2322666   6.073   4.657   1.321  0.3416 -0.2153  0.1840
 4769poe     o222667   5.985   4.682   1.214  0.0830 -0.4014  0.3540
 4769poe    c3122668   5.897   4.571   1.209 -0.1286 -0.2182 -0.0478
 4770poe    c3122669   5.874   6.532   5.985  0.2026  0.1656 -0.2773
 4770poe     o222670   5.794   6.600   6.079 -0.5141 -0.4595 -0.4216
 4770poe    c2322671   5.770   6.723   6.013  0.4961  0.2565  0.5046
 4770poe    c2322672   5.686   6.816   6.102  0.0902 -0.1264  0.5253
 4770poe     o222673   5.732   6.780   6.230  0.2457 -0.0055  0.5029
 4770poe    c2322674   5.666   6.853   6.330 -0.8059  0.0279 -0.2055
 4770poe    c2322675   5.720   6.825   6.471  0.5074 -0.0722 -0.7196
 4770poe     o222676   5.688   6.693   6.509 -0.1523  0.1490 -0.4882
 4770poe    c2322677   5.767   6.665   6.623 -0.5911 -0.7761 -0.4091
 4770poe    c2322678   5.682   6.592   6.729 -0.5617 -0.1983  0.0126
 4770poe     o222679   5.557   6.653   6.750 -0.2682  0.3989  0.0560
 4770poe    c3122680   5.534   6.669   6.889 -0.0642  0.5884  0.0700
 4771poe    c3122681   5.260   2.222   6.538  0.0772 -0.2221 -0.3167
 4771poe     o222682   5.222   2.284   6.417 -0.5993 -0.4706 -0.2367
 4771poe    c2322683   5.226   2.191   6.311 -0.0656 -0.6314 -0.0784
 4771poe    c2322684   5.092   2.186   6.235 -0.0908  0.2948 -0.1095
 4771poe     o222685   5.072   2.305   6.164  0.4870  0.3437 -0.1985
 4771poe    c2322686   5.034   2.268   6.033  0.0566  0.2941 -0.0588
 4771poe    c2322687   5.000   2.371   5.924  0.1951 -0.1977 -0.5725
 4771poe     o222688   4.892   2.449   5.969  0.4058 -0.1741 -0.1029
 4771poe    c2322689   4.835   2.528   5.867 -0.1878  0.3854  0.6495
 4771poe    c2322690   4.721   2.621   5.913 -0.3872  0.3448  0.2398
 4771poe     o222691   4.758   2.707   6.018  0.1701  0.5466 -0.1196
 4771poe    c3122692   4.659   2.799   6.057 -0.0239  0.1674  0.2931
 4772poe    c3122693   5.242   5.881   4.671 -0.0525 -0.0994 -0.2472
 4772poe     o222694   5.125   5.825   4.727  0.0875 -0.1870 -0.0408
 4772poe    c2322695   5.144   5.769   4.855  0.5193  0.1429  0.0389
 4772poe    c2322696   5.177   5.879   4.959  0.1447  0.4852 -0.2020
 4772poe     o222697   5.069   5.950   5.014  0.0138 -0.1485  0.3827
 4772poe    c2322698   5.101   5.995   5.144  0.2899  0.1735  0.2025
 4772poe    c2322699   4.998   6.093   5.202  0.0254 -0.1909  0.3516
 4772poe     o222700   5.011   6.226   5.155 -0.5774 -0.1883  0.1919
 4772poe    c2322701   4.936   6.311   5.238  0.1367  1.0181 -0.3839
 4772poe    c2322702   5.004   6.375   5.361 -0.1447  0.0931  0.2595
 4772poe     o222703   5.055   6.294   5.465 -0.3375 -0.1722  0.1500
 4772poe    c3122704   5.077   6.366   5.584 -0.6392 -0.2866  0.2751
 4773poe    c3122705   4.297   7.444   3.223  0.8674  0.1492 -0.1831
 4773poe     o222706   4.255   7.561   3.155 -0.3898 -0.1134  0.1200
 4773poe    c2322707   4.144   7.608   3.228 -0.3884 -0.4346  0.3318
 4773poe    c2322708   4.072   7.709   3.137  0.2367 -0.3394 -0.0610
 4773poe     o222709   4.035   7.665   3.008  0.2533 -0.4916 -0.0138
 4773poe    c2322710   3.908   7.604   3.006  0.6346 -1.3066  0.1695
 4773poe    c2322711   3.882   7.556   2.862 -0.4196  0.2603 -0.1913
 4773poe     o222712   3.954   7.631   2.767  0.0927 -0.0749 -0.0722
 4773poe    c2322713   3.997   7.562   2.652  0.1576 -0.0707 -0.0508
 4773poe    c2322714   4.087   7.662   2.577 -0.1604  0.3049  0.0699
 4773poe     o222715   4.173   7.731   2.665 -0.4168  0.4185  0.2330
 4773poe    c3122716   4.256   7.821   2.596 -0.4260 -0.0315 -0.3794
 4774poe    c3122717   6.230   4.100   0.632  0.0139 -0.3367 -0.7285
 4774poe     o222718   6.332   4.195   0.609  0.3094 -0.4496  0.1089
 4774poe    c2322719   6.384   4.166   0.482  0.3628 -0.8963  0.2330
 4774poe    c2322720   6.487   4.266   0.426 -0.6948  0.0036 -0.1384
 4774poe     o222721   6.409   4.376   0.386 -1.0014 -0.0921  0.1885
 4774poe    c2322722   6.489   4.486   0.347 -0.3981 -0.7229 -0.3939
 4774poe    c2322723   6.415   4.592   0.263  0.1300  0.0367  0.0882
 4774poe     o222724   6.300   4.630   0.337  0.5070  0.0729  0.6632
 4774poe    c2322725   6.230   4.730   0.267  0.2679 -0.5136  0.0568
 4774poe    c2322726   6.103   4.777   0.341  0.6144 -0.1113  0.3946
 4774poe     o222727   6.021   4.663   0.346  0.2891  0.1001 -0.0404
 4774poe    c3122728   5.919   4.672   0.443 -0.1838 -1.0379 -0.4107
 4775poe    c3122729   4.166   4.710   2.043  0.3360 -0.5752 -0.2011
 4775poe     o222730   4.222   4.727   1.915 -0.1097 -0.3668 -0.3700
 4775poe    c2322731   4.349   4.671   1.888  0.3663  0.3167  0.3867
 4775poe    c2322732   4.464   4.716   1.980 -0.4458 -0.0161  1.5885
 4775poe     o222733   4.515   4.845   1.956 -0.5144 -0.3114 -0.3043
 4775poe    c2322734   4.632   4.873   2.029 -0.1329 -0.5347 -0.8266
 4775poe    c2322735   4.749   4.946   1.959 -0.8068  0.9207 -0.4695
 4775poe     o222736   4.799   4.872   1.850 -0.0386  0.0144  0.4690
 4775poe    c2322737   4.931   4.916   1.826 -0.0193 -0.4278 -0.2708
 4775poe    c2322738   5.012   4.851   1.712  0.0350  0.0749 -0.5206
 4775poe     o222739   4.973   4.906   1.589  0.1970  0.2263 -0.5048
 4775poe    c3122740   4.990   4.813   1.484 -0.0851 -0.5122  0.0962
 4776poe    c3122741   1.248   3.732   1.042  0.0538 -0.7564  0.2221
 4776poe     o222742   1.148   3.636   1.067  0.1513 -0.8217  0.3615
 4776poe    c2322743   1.133   3.621   1.206  0.2135 -0.1045  0.4486
 4776poe    c2322744   1.032   3.510   1.241  0.0701 -0.0499  0.2034
 4776poe     o222745   0.897   3.548   1.226  0.1716  0.2152 -0.0344
 4776poe    c2322746   0.808   3.485   1.315 -0.1847  0.4525 -0.2201
 4776poe    c2322747   0.668   3.534   1.272 -0.2469  0.2745 -0.2202
 4776poe     o222748   0.595   3.456   1.180  0.1768 -0.5344  0.1168
 4776poe    c2322749   0.561   3.328   1.227  0.2233 -0.3740  0.5921
 4776poe    c2322750   0.488   3.253   1.113  0.5252  0.0326  0.1291
 4776poe     o222751   0.536   3.278   0.983 -0.1577  0.1009 -0.1108
 4776poe    c3122752   0.429   3.316   0.899  0.0614  0.3453 -0.2822
 4777poe    c3122753   2.655   3.142   2.787 -0.5872 -0.8605  0.0921
 4777poe     o222754   2.682   3.172   2.652  0.1126 -0.1138  0.3895
 4777poe    c2322755   2.571   3.185   2.565  0.1940 -0.0507  0.2950
 4777poe    c2322756   2.597   3.291   2.456  0.3421 -0.3666  0.0208
 4777poe     o222757   2.632   3.415   2.512  0.6133 -0.3355 -0.2135
 4777poe    c2322758   2.666   3.513   2.417  0.0236  0.2699  0.1907
 4777poe    c2322759   2.610   3.649   2.462  0.1338  0.3226  0.1698
 4777poe     o222760   2.634   3.675   2.599  0.4601  0.1959  0.1374
 4777poe    c2322761   2.575   3.791   2.655 -0.4099 -0.0521 -0.2480
 4777poe    c2322762   2.577   3.779   2.808 -0.7279 -0.1883 -0.2522
 4777poe     o222763   2.483   3.692   2.866 -0.2871 -0.7662 -0.4030
 4777poe    c3122764   2.455   3.747   2.993 -0.0199  0.3015 -0.7934
 4778poe    c3122765   5.447   2.979   0.907 -0.2076 -0.7868 -0.3982
 4778poe     o222766   5.491   2.902   1.017  0.6238  0.1568 -0.0598
 4778poe    c2322767   5.571   2.798   0.966 -0.2031 -0.3066 -0.4191
 4778poe    c2322768   5.625   2.697   1.069  0.3555  0.5405  0.1311
 4778poe     o222769   5.520   2.652   1.151  0.2021  0.2919 -0.2013
 4778poe    c2322770   5.568   2.548   1.233  0.1217  0.1382 -0.3477
 4778poe    c2322771   5.514   2.413   1.182 -0.3875  0.6558 -1.1992
 4778poe     o222772   5.378   2.385   1.205  0.0946 -0.6427  0.2345
 4778poe    c2322773   5.318   2.335   1.088 -0.2148  0.3421 -0.0373
 4778poe    c2322774   5.166   2.315   1.077 -0.2689  0.6307  0.1848
 4778poe     o222775   5.131   2.201   1.153 -0.3020  0.1478 -0.5422
 4778poe    c3122776   5.001   2.161   1.116 -0.5198  0.0406  0.3186
 4779poe    c3122777   3.771   2.223   6.777 -0.3414 -0.1508 -0.1414
 4779poe     o222778   3.861   2.278   6.870 -0.7331 -0.0709  0.1966
 4779poe    c2322779   3.822   2.414   6.876  0.1853  0.2340 -0.3892
 4779poe    c2322780   3.879   2.477   7.004  0.1445  0.4432 -0.4743
 4779poe     o222781   4.019   2.473   7.001  0.1646  0.5079  0.2201
 4779poe    c2322782   4.082   2.570   6.919  0.3970  0.2103  0.0433
 4779poe    c2322783   4.226   2.530   6.883  0.3499 -0.2920  0.3908
 4779poe     o222784   4.317   2.517   6.990 -0.0018 -0.1858  0.7031
 4779poe    c2322785   4.437   2.449   6.960 -0.4882 -0.9531  0.4420
 4779poe    c2322786   4.510   2.446   7.096 -0.9573  0.6829  0.7557
 4779poe     o222787   4.465   2.347   7.185 -0.0756 -0.0818  0.3744
 4779poe    c3122788   4.552   2.308   7.288 -0.8227 -0.3337  0.9195
 4780poe    c3122789   0.191   6.226   2.336  0.4652 -0.3234 -0.1129
 4780poe     o222790   0.135   6.346   2.382  0.4111 -0.1613 -0.5947
 4780poe    c2322791   0.165   6.456   2.299  0.5288  0.0517 -0.2716
 4780poe    c2322792   0.122   6.589   2.364  0.1632 -0.1049 -0.1939
 4780poe     o222793   0.204   6.624   2.473 -0.3412  0.1021  0.1272
 4780poe    c2322794   0.202   6.761   2.506  0.3838 -0.0289  0.7426
 4780poe    c2322795   0.281   6.812   2.628  0.5378 -0.2465  0.7365
 4780poe     o222796   0.295   6.952   2.645 -0.3031 -0.0605 -0.0019
 4780poe    c2322797   0.346   6.966   2.776 -0.3819  0.2895 -0.0093
 4780poe    c2322798   0.383   7.109   2.818 -0.3162  0.2193  0.1681
 4780poe     o222799   0.498   7.168   2.762 -0.0552  0.2094  0.6802
 4780poe    c3122800   0.621   7.108   2.795  0.2466  0.1272 -0.5419
 4781poe    c3122801   2.146   5.291   7.577 -0.4002 -0.0483 -0.3090
 4781poe     o222802   2.185   5.333   7.448  0.0635  0.5233  0.0110
 4781poe    c2322803   2.315   5.387   7.448 -0.1183  0.9657 -0.2063
 4781poe    c2322804   2.383   5.373   7.311 -0.6176  0.2932 -0.3879
 4781poe     o222805   2.391   5.238   7.269  0.5261  0.0934  0.4653
 4781poe    c2322806   2.454   5.229   7.143  0.6026 -0.0311  0.5119
 4781poe    c2322807   2.459   5.084   7.092 -0.0605  0.1606 -0.1168
 4781poe     o222808   2.536   4.999   7.174 -0.1169  0.0855 -0.1422
 4781poe    c2322809   2.535   4.866   7.125  0.1282 -0.0110  0.1110
 4781poe    c2322810   2.582   4.766   7.232 -1.2892 -0.4117  0.3748
 4781poe     o222811   2.530   4.820   7.352 -0.4881  0.5466  0.3021
 4781poe    c3122812   2.518   4.727   7.456  0.1430 -0.1866 -0.2687
 4782poe    c3122813   6.787   3.532   3.339 -0.6849 -0.2839  0.2871
 4782poe     o222814   6.778   3.393   3.361  0.6666 -0.4935 -0.3546
 4782poe    c2322815   6.893   3.348   3.429  0.2718 -0.2167  0.5170
 4782poe    c2322816   6.915   3.197   3.409 -0.0662 -0.1880 -0.0989
 4782poe     o222817   6.823   3.108   3.469  0.0451 -0.1589  0.1164
 4782poe    c2322818   6.723   3.076   3.375 -0.1345  0.1946  0.1861
 4782poe    c2322819   6.595   3.019   3.439 -0.1726 -0.1845 -0.2257
 4782poe     o222820   6.495   2.975   3.350  0.0601 -0.4230 -0.3706
 4782poe    c2322821   6.423   3.081   3.292 -0.5132 -0.1823  0.7386
 4782poe    c2322822   6.323   3.021   3.191  0.0915  0.0431 -0.0116
 4782poe     o222823   6.202   2.961   3.234  0.2773 -0.3821 -0.0763
 4782poe    c3122824   6.137   2.891   3.131  0.1646 -0.2482 -0.0972
 4783poe    c3122825   5.829   3.806   5.725 -0.1163  0.5356 -0.1356
 4783poe     o222826   5.704   3.761   5.770 -0.0942 -0.0796 -0.6761
 4783poe    c2322827   5.633   3.684   5.675  0.2539 -0.2806 -0.7718
 4783poe    c2322828   5.567   3.760   5.559 -0.8050 -0.0938 -0.0575
 4783poe     o222829   5.456   3.841   5.589 -0.3925  0.2974  0.4263
 4783poe    c2322830   5.358   3.801   5.496 -0.2265  0.2601  0.2673
 4783poe    c2322831   5.213   3.819   5.546 -0.2684  0.1366  0.1897
 4783poe     o222832   5.164   3.722   5.636 -0.2280 -0.3636 -0.3203
 4783poe    c2322833   5.023   3.719   5.633 -0.2281 -0.6026 -0.1048
 4783poe    c2322834   4.976   3.581   5.684 -0.0492 -0.6633 -0.1059
 4783poe     o222835   4.993   3.569   5.823  0.3496 -0.2171 -0.1106
 4783poe    c3122836   4.939   3.445   5.863 -0.1478  0.0758  0.1468
 4784poe    c3122837   5.777   1.695   7.270 -0.4604 -0.4140 -0.2529
 4784poe     o222838   5.798   1.607   7.378 -0.1508  0.1360  0.1426
 4784poe    c2322839   5.939   1.609   7.388 -0.1038  0.0842 -0.4646
 4784poe    c2322840   5.976   1.501   7.492  0.2942  0.6068 -0.0565
 4784poe     o222841   5.869   1.513   7.584  0.1141  0.1582 -0.2054
 4784poe    c2322842   5.875   1.414   7.683 -0.3131 -0.2728 -0.6035
 4784poe    c2322843   5.779   1.467   7.791  0.4545 -0.2331  0.0704
 4784poe     o222844   5.667   1.521   7.726  0.3041 -0.7769 -0.1302
 4784poe    c2322845   5.545   1.506   7.795  0.1418 -0.3327 -0.3136
 4784poe    c2322846   5.453   1.391   7.753 -0.2689 -0.2181  0.2565
 4784poe     o222847   5.397   1.406   7.624  0.3221  0.3695  0.0651
 4784poe    c3122848   5.330   1.295   7.570  0.8979 -0.0718  0.2473
 4785poe    c3122849   2.072   1.312   3.635 -0.1018  0.1740 -0.3894
 4785poe     o222850   1.978   1.310   3.741  0.0269  0.7315 -0.2589
 4785poe    c2322851   2.020   1.388   3.850 -0.3395  0.6605 -0.0680
 4785poe    c2322852   1.921   1.386   3.968 -0.3538 -0.2298 -0.0880
 4785poe     o222853   1.908   1.249   3.997 -0.2478 -0.2331 -0.0570
 4785poe    c2322854   1.836   1.220   4.115 -0.5175  0.1641 -0.1211
 4785poe    c2322855   1.914   1.115   4.197  0.3054  0.3391 -0.6689
 4785poe     o222856   2.016   1.161   4.282 -0.3619 -0.0407  0.3558
 4785poe    c2322857   2.126   1.226   4.221 -0.5549 -0.0065  0.0439
 4785poe    c2322858   2.218   1.145   4.128 -0.7888  0.0563 -0.2439
 4785poe     o222859   2.284   1.047   4.205  0.2893  0.4271 -0.6736
 4785poe    c3122860   2.394   0.995   4.134  0.5744  0.5778 -0.3425
 4786poe    c3122861   2.262   5.690   6.236  0.8613 -0.2641 -0.8657
 4786poe     o222862   2.124   5.694   6.208  0.6784  0.3835  0.0726
 4786poe    c2322863   2.111   5.630   6.083 -0.3303  0.1352  0.2975
 4786poe    c2322864   2.013   5.511   6.081  0.0583 -0.1814 -0.0919
 4786poe     o222865   1.892   5.553   6.141  0.2040  0.1377 -0.0200
 4786poe    c2322866   1.801   5.455   6.185 -0.1400  0.4310 -0.0794
 4786poe    c2322867   1.697   5.543   6.256 -0.0575  0.1132  0.4429
 4786poe     o222868   1.751   5.633   6.351 -0.1560  0.3675  0.2579
 4786poe    c2322869   1.637   5.686   6.414 -0.0043  0.3499  0.5461
 4786poe    c2322870   1.685   5.773   6.532  0.0268  0.4920  0.4287
 4786poe     o222871   1.753   5.884   6.477  1.0822 -0.4465 -0.2090
 4786poe    c3122872   1.787   5.974   6.580  0.5319 -0.4535 -0.0159
 4787poe    c3122873   1.059   3.226   3.826  0.4251 -0.0949  0.0643
 4787poe     o222874   0.951   3.273   3.904  0.2115 -0.0013 -0.2871
 4787poe    c2322875   0.969   3.403   3.953 -0.2919 -0.0516  0.0384
 4787poe    c2322876   0.857   3.464   4.040 -0.2972 -0.4175  0.2894
 4787poe     o222877   0.849   3.398   4.164  0.4289 -0.3045  0.4013
 4787poe    c2322878   0.943   3.436   4.262 -0.0021  0.7334  0.4328
 4787poe    c2322879   0.988   3.310   4.339  0.3443  0.5577 -0.0469
 4787poe     o222880   1.095   3.336   4.427  0.1101  0.0193  0.4030
 4787poe    c2322881   1.203   3.246   4.419 -0.0188 -0.1038  0.0032
 4787poe    c2322882   1.335   3.277   4.492  0.0362 -0.6830  0.1559
 4787poe     o222883   1.327   3.289   4.632 -0.0865  0.0808  0.0874
 4787poe    c3122884   1.281   3.411   4.686 -0.2885 -0.2528  0.6844
 4788poe    c3122885   4.651   6.994   0.927  0.1731  0.7187  0.5162
 4788poe     o222886   4.546   6.906   0.893  0.8124  0.0452  0.2640
 4788poe    c2322887   4.607   6.787   0.848  0.2505  0.3288 -1.2869
 4788poe    c2322888   4.489   6.690   0.824  0.4356 -0.3036  0.2806
 4788poe     o222889   4.408   6.669   0.938 -0.1548  0.5394  0.0284
 4788poe    c2322890   4.457   6.594   1.047 -0.2605  0.1880 -0.1611
 4788poe    c2322891   4.379   6.611   1.178  0.3102  0.0226  0.2051
 4788poe     o222892   4.370   6.744   1.223  0.0700  0.0384  0.1112
 4788poe    c2322893   4.351   6.752   1.363  0.5753 -0.7127  0.2265
 4788poe    c2322894   4.356   6.900   1.402  0.3125 -0.5241 -0.4325
 4788poe     o222895   4.260   6.977   1.334 -0.2842 -0.8044  0.0850
 4788poe    c3122896   4.307   7.110   1.335 -0.3743 -0.7689 -0.1958
 4789poe    c3122897   0.986   1.643   3.109  0.5959  0.1353  0.8189
 4789poe     o222898   1.072   1.598   3.006 -0.5566 -0.8358  0.2520
 4789poe    c2322899   1.206   1.600   3.050 -0.4982  0.1413  0.0475
 4789poe    c2322900   1.314   1.533   2.962 -0.2540  0.0544  0.4075
 4789poe     o222901   1.296   1.396   2.939  0.6515 -0.0832  0.4856
 4789poe    c2322902   1.375   1.336   2.838 -0.2091 -0.0817 -0.2020
 4789poe    c2322903   1.326   1.357   2.693  0.5026 -0.1942 -0.4590
 4789poe     o222904   1.199   1.303   2.666  0.5017 -0.4753  0.0761
 4789poe    c2322905   1.178   1.285   2.528 -0.1359 -0.2074  0.1337
 4789poe    c2322906   1.049   1.204   2.503 -0.3485  0.3066 -0.4742
 4789poe     o222907   1.059   1.066   2.531  0.1856  0.5011  0.3413
 4789poe    c3122908   0.937   0.999   2.506  0.4633 -0.0230  0.3861
 4790poe    c3122909   2.047   4.911   4.784 -0.1639 -0.4297  0.3878
 4790poe     o222910   2.144   4.818   4.828 -0.0052 -0.2790  0.3602
 4790poe    c2322911   2.231   4.786   4.722 -0.1514  0.0993  0.1247
 4790poe    c2322912   2.384   4.795   4.722 -0.1368 -0.1392  0.0390
 4790poe     o222913   2.417   4.735   4.845 -0.4260 -0.5506 -0.0829
 4790poe    c2322914   2.556   4.748   4.866 -0.6389  0.3812  0.8644
 4790poe    c2322915   2.585   4.711   5.012 -0.4583 -0.6816  0.5661
 4790poe     o222916   2.520   4.792   5.107 -0.1978 -0.4288  0.5314
 4790poe    c2322917   2.570   4.775   5.238 -0.3547 -0.5687  0.5744
 4790poe    c2322918   2.509   4.867   5.346  0.0075  0.0173  0.2843
 4790poe     o222919   2.371   4.861   5.372 -0.1793  0.3150 -0.5838
 4790poe    c3122920   2.332   4.970   5.453 -0.2608 -0.2547  0.1601
 4791poe    c3122921   4.351   6.689   5.817 -0.6917  0.3138 -0.0015
 4791poe     o222922   4.348   6.631   5.946 -0.3004  0.4581  0.0745
 4791poe    c2322923   4.243   6.540   5.971 -0.2821  0.4907  0.2647
 4791poe    c2322924   4.102   6.589   6.008 -0.2422  0.1967  0.8232
 4791poe     o222925   4.030   6.656   5.907  0.0486 -0.3448  0.2506
 4791poe    c2322926   3.912   6.698   5.972 -0.4200 -0.5440 -0.4596
 4791poe    c2322927   3.812   6.744   5.864 -0.3806  0.2295 -0.1760
 4791poe     o222928   3.781   6.651   5.762 -0.3666  0.2606 -0.2088
 4791poe    c2322929   3.693   6.544   5.790  0.4641 -0.4144 -0.1458
 4791poe    c2322930   3.683   6.456   5.663  0.2469 -0.0434 -0.3863
 4791poe     o222931   3.810   6.399   5.645 -0.0532 -0.8015 -0.1434
 4791poe    c3122932   3.814   6.285   5.562  0.0166 -0.8587 -0.0615
 4792poe    c3122933   2.523   0.394   3.816  0.6228 -0.2234  0.0748
 4792poe     o222934   2.466   0.322   3.923  0.1325 -0.0335 -0.0570
 4792poe    c2322935   2.335   0.366   3.948  0.5064  0.7409  0.5748
 4792poe    c2322936   2.277   0.296   4.072  0.1483  0.1053  0.0556
 4792poe     o222937   2.253   0.158   4.056  0.1665  0.1400 -0.2749
 4792poe    c2322938   2.203   0.129   4.185 -0.0030 -0.1604 -0.4061
 4792poe    c2322939   2.175  -0.022   4.169 -0.6140 -0.0813 -0.1023
 4792poe     o222940   2.283  -0.099   4.120 -0.4699 -0.1060  0.2494
 4792poe    c2322941   2.316  -0.218   4.188  0.4018 -0.2169 -0.3495
 4792poe    c2322942   2.464  -0.225   4.229  0.2976  0.5206  0.1900
 4792poe     o222943   2.491  -0.147   4.343  0.1093  0.2729  0.4024
 4792poe    c3122944   2.610  -0.196   4.401  0.1831  0.8617  0.7532
 4793poe    c3122945   7.399   0.363   1.649 -0.1420 -0.1059 -0.0605
 4793poe     o222946   7.519   0.414   1.703 -0.0462 -0.3085 -0.0827
 4793poe    c2322947   7.601   0.308   1.748  0.3617  0.1283  0.2094
 4793poe    c2322948   7.734   0.347   1.816  0.5480 -0.2843  0.0849
 4793poe     o222949   7.706   0.376   1.951  0.1557 -0.3659  0.0222
 4793poe    c2322950   7.814   0.440   2.014 -0.4563  0.5139  0.1891
 4793poe    c2322951   7.765   0.525   2.133 -0.4723  0.3137  0.3255
 4793poe     o222952   7.789   0.449   2.249  0.0295 -0.1826 -0.0974
 4793poe    c2322953   7.724   0.511   2.358  0.0935  0.0759 -0.2079
 4793poe    c2322954   7.759   0.433   2.486 -0.0156 -0.0875 -0.2778
 4793poe     o222955   7.884   0.471   2.540 -0.4157 -0.2133  0.7581
 4793poe    c3122956   7.888   0.597   2.604  0.2082  0.1891 -0.0526
 4794poe    c3122957   3.260   0.047   5.406 -0.1843 -0.0297  0.1209
 4794poe     o222958   3.344   0.156   5.376  0.0599 -0.4357 -0.7147
 4794poe    c2322959   3.352   0.180   5.237 -0.2134  0.3912 -0.5955
 4794poe    c2322960   3.435   0.303   5.196 -0.3052  0.4413 -0.6304
 4794poe     o222961   3.403   0.421   5.266  0.0100 -0.0004  0.2775
 4794poe    c2322962   3.486   0.523   5.217 -0.4599  0.0853 -0.3717
 4794poe    c2322963   3.449   0.668   5.255 -0.4043  0.0795 -0.2932
 4794poe     o222964   3.359   0.715   5.157  0.5072  0.8576 -0.7697
 4794poe    c2322965   3.294   0.837   5.186 -0.3615  0.1298  0.4729
 4794poe    c2322966   3.374   0.947   5.112  0.3238 -0.9453 -0.4192
 4794poe     o222967   3.492   0.971   5.185  0.1396 -0.3450 -0.3211
 4794poe    c3122968   3.541   1.095   5.140 -0.9498  0.3089  0.2357
 4795poe    c3122969   3.491   1.515   7.396  0.1115 -0.3550 -0.2333
 4795poe     o222970   3.616   1.527   7.333  0.1972  0.1556  0.0310
 4795poe    c2322971   3.721   1.505   7.424 -0.0653 -0.4841  0.1818
 4795poe    c2322972   3.859   1.529   7.359 -0.1717  0.1636  0.1893
 4795poe     o222973   3.906   1.662   7.357 -0.2583  0.1887 -0.2316
 4795poe    c2322974   3.978   1.707   7.469  0.1099 -0.1522 -0.3282
 4795poe    c2322975   4.033   1.848   7.441 -0.1518 -0.0394 -0.2821
 4795poe     o222976   3.952   1.956   7.481  0.0382 -0.1001  0.2716
 4795poe    c2322977   3.982   2.064   7.396  0.0464  0.0344  0.4460
 4795poe    c2322978   3.898   2.185   7.441 -0.3662 -0.3154  0.6162
 4795poe     o222979   3.760   2.166   7.416 -0.3178  0.1714 -0.0343
 4795poe    c3122980   3.685   2.277   7.459 -0.1064  0.2127  0.2294
 4796poe    c3122981   3.803   4.052   0.988 -0.3243 -0.1296 -0.5923
 4796poe     o222982   3.747   4.152   0.906 -0.1311  0.4045 -0.0795
 4796poe    c2322983   3.773   4.277   0.965  0.3427  0.4143 -0.3078
 4796poe    c2322984   3.734   4.385   0.862  0.0441  0.3835 -0.2277
 4796poe     o222985   3.615   4.342   0.799 -0.2766 -0.0050  0.6368
 4796poe    c2322986   3.581   4.427   0.692  0.2604 -0.1887  0.3163
 4796poe    c2322987   3.451   4.370   0.633  0.6098 -0.5882 -0.0708
 4796poe     o222988   3.435   4.230   0.637 -0.0370 -0.5114  0.1250
 4796poe    c2322989   3.307   4.199   0.585  0.1471 -0.1539 -0.5457
 4796poe    c2322990   3.310   4.051   0.543 -0.3033 -0.3135 -0.0170
 4796poe     o222991   3.358   3.971   0.648 -0.1645 -0.5667 -0.2701
 4796poe    c3122992   3.345   3.832   0.630  0.2007 -0.6237 -0.1040
 4797poe    c3122993   1.113   6.617   4.976  0.4172 -0.8915 -0.0557
 4797poe     o222994   1.070   6.646   5.107  0.4629  0.1368 -0.2595
 4797poe    c2322995   0.937   6.695   5.110  0.3502 -0.1772 -0.0465
 4797poe    c2322996   0.911   6.682   5.261 -0.2039  0.4238 -0.0883
 4797poe     o222997   1.006   6.758   5.333  0.0606 -0.1597  0.1848
 4797poe    c2322998   1.009   6.744   5.473  0.6670  0.0562  0.1953
 4797poe    c2322999   1.093   6.855   5.540  0.3016  0.5975 -0.2422
 4797poe     o223000   1.226   6.877   5.500  0.3562  0.0336 -0.3787
 4797poe    c2323001   1.262   6.993   5.572  0.0321 -0.1860  0.1411
 4797poe    c2323002   1.404   7.041   5.538 -0.2534  0.2151 -0.5086
 4797poe     o223003   1.436   7.028   5.402  0.5358  0.2747 -0.3331
 4797poe    c3123004   1.562   7.087   5.380  0.7308 -0.1410 -0.3306
 4798poe    c3123005   1.325   3.856   6.854 -0.1161  0.1146  0.4158
 4798poe     o223006   1.192   3.836   6.812 -0.0180  0.0659  0.1241
 4798poe    c2323007   1.182   3.840   6.671  0.2037  0.0243  0.1075
 4798poe    c2323008   1.044   3.839   6.603 -0.0108  0.4048  0.5247
 4798poe     o223009   1.008   3.703   6.593  0.1385  0.4136 -0.1884
 4798poe    c2323010   0.890   3.688   6.516  0.2446 -0.2890 -0.2190
 4798poe    c2323011   0.855   3.538   6.525 -0.6383 -0.0991 -0.4007
 4798poe     o223012   0.808   3.500   6.653 -0.6801  0.1931 -0.3273
 4798poe    c2323013   0.844   3.367   6.685  0.2417  0.5212  0.0354
 4798poe    c2323014   0.779   3.303   6.809  0.0269  0.0549 -0.3122
 4798poe     o223015   0.785   3.386   6.923  0.9445 -0.3169 -0.0749
 4798poe    c3123016   0.738   3.312   7.034 -0.1164  0.2622 -0.1191
 4799poe    c3123017   5.042   1.228   5.602  0.0318  0.1523  0.1122
 4799poe     o223018   4.931   1.282   5.533 -0.2791 -0.1323  0.3873
 4799poe    c2323019   4.867   1.178   5.463  0.4929 -0.4523  0.1570
 4799poe    c2323020   4.728   1.216   5.410  0.4199 -0.1593  0.5599
 4799poe     o223021   4.742   1.337   5.340  0.2860 -0.2833  0.3183
 4799poe    c2323022   4.622   1.343   5.266  0.7142 -0.3108 -0.3820
 4799poe    c2323023   4.660   1.397   5.126 -0.2856  0.3098 -0.4198
 4799poe     o223024   4.742   1.507   5.157 -0.2508  0.2164 -0.1708
 4799poe    c2323025   4.804   1.574   5.049  0.3812  0.3013  0.2365
 4799poe    c2323026   4.905   1.666   5.119  0.2771  0.6806 -0.1028
 4799poe     o223027   4.861   1.709   5.246 -0.0636  0.2338 -0.0683
 4799poe    c3123028   4.931   1.827   5.277  0.3653 -0.0738  0.1421
 4800poe    c3123029   0.713   3.049   1.590  0.1509 -0.0744 -0.4704
 4800poe     o223030   0.636   2.936   1.623  0.1746 -0.0144 -0.2060
 4800poe    c2323031   0.503   2.951   1.580 -0.0232 -0.2098  0.3195
 4800poe    c2323032   0.480   2.929   1.429 -0.2057  0.2743  0.2747
 4800poe     o223033   0.470   2.792   1.400  0.1258  0.2019  0.4953
 4800poe    c2323034   0.544   2.768   1.282  0.0444 -0.1695  0.5196
 4800poe    c2323035   0.561   2.617   1.256  0.3617  0.0055 -0.3124
 4800poe     o223036   0.454   2.583   1.170  0.2269 -0.0073 -0.1397
 4800poe    c2323037   0.494   2.471   1.094  0.2333 -0.0142 -0.1259
 4800poe    c2323038   0.390   2.362   1.060  0.1343 -0.0523  0.2894
 4800poe     o223039   0.322   2.306   1.170 -0.0190 -0.3689  0.0348
 4800poe    c3123040   0.245   2.206   1.108 -0.6402  0.3448 -0.3558
 4801poe    c3123041   2.067   6.298   1.238  0.0187  0.5058 -0.6612
 4801poe     o223042   1.992   6.373   1.330  0.4310 -0.2051  0.2699
 4801poe    c2323043   1.862   6.319   1.346  0.1903  0.2590 -0.0994
 4801poe    c2323044   1.792   6.412   1.447 -0.1605  0.1423 -0.2333
 4801poe     o223045   1.798   6.544   1.397  0.2478  0.0158 -0.5296
 4801poe    c2323046   1.717   6.622   1.482  0.0173 -0.2686 -0.4874
 4801poe    c2323047   1.652   6.748   1.422 -0.7143 -0.1522  0.5129
 4801poe     o223048   1.578   6.725   1.305 -0.0493 -0.3346  0.1221
 4801poe    c2323049   1.526   6.850   1.263 -0.4965 -0.4673  0.2824
 4801poe    c2323050   1.478   6.852   1.117  0.3670  0.4756  0.0045
 4801poe     o223051   1.375   6.759   1.089  0.2503  0.5308  0.2517
 4801poe    c3123052   1.366   6.731   0.951 -0.3364  0.1935  0.3567
 4802poe    c3123053   5.208   0.690   2.955 -0.8299 -0.4507 -0.5359
 4802poe     o223054   5.156   0.802   3.023 -0.1786 -0.5808  0.1851
 4802poe    c2323055   5.252   0.862   3.107 -0.0803 -0.0539 -0.2971
 4802poe    c2323056   5.190   0.975   3.191  0.1655  0.0819 -0.2960
 4802poe     o223057   5.060   0.924   3.212  0.1566  0.3561  0.3226
 4802poe    c2323058   5.000   0.966   3.333 -0.5345 -0.4298  0.2644
 4802poe    c2323059   4.856   0.913   3.325 -0.8044  0.2618  0.5100
 4802poe     o223060   4.798   0.944   3.200 -0.3058 -0.4282  0.1072
 4802poe    c2323061   4.665   0.901   3.213 -0.1665 -1.0422 -0.3939
 4802poe    c2323062   4.572   0.975   3.115  0.6605 -0.2972 -0.6195
 4802poe     o223063   4.559   1.114   3.134 -1.0132 -0.5439  0.1563
 4802poe    c3123064   4.447   1.160   3.061 -0.4345 -0.3864 -0.6384
 4803poe    c3123065   0.885   3.604   3.016 -0.5502 -0.1014  0.0945
 4803poe     o223066   0.831   3.678   2.909  0.1236  0.8784  0.4120
 4803poe    c2323067   0.690   3.663   2.909  0.2588 -0.5429  0.2716
 4803poe    c2323068   0.634   3.713   2.775  0.1487 -0.0092  0.5149
 4803poe     o223069   0.701   3.647   2.670 -0.2257 -0.2560  0.4313
 4803poe    c2323070   0.638   3.532   2.617 -0.4291  0.0135  0.0779
 4803poe    c2323071   0.735   3.469   2.516  0.1779  0.2922  0.4827
 4803poe     o223072   0.859   3.433   2.574  0.2176 -0.4952 -0.0667
 4803poe    c2323073   0.956   3.400   2.478 -0.2620 -0.6795 -0.4884
 4803poe    c2323074   1.084   3.333   2.531 -0.3714 -0.3031  0.2571
 4803poe     o223075   1.144   3.414   2.630  0.5306 -0.2843 -0.2927
 4803poe    c3123076   1.254   3.361   2.701  0.0824 -0.3476  0.3620
 4804poe    c3123077   2.478   6.130   0.252  0.3508  0.0206  0.1198
 4804poe     o223078   2.550   6.181   0.141 -0.0780 -0.0260 -0.1801
 4804poe    c2323079   2.556   6.084   0.039 -0.2204  0.2507 -0.4537
 4804poe    c2323080   2.700   6.076  -0.015  0.0609  0.4862  0.2463
 4804poe     o223081   2.741   6.192  -0.084 -0.2494  0.4834  0.0564
 4804poe    c2323082   2.882   6.191  -0.092 -0.2302  0.3625  0.4046
 4804poe    c2323083   2.929   6.325  -0.153 -0.5643  0.2925 -0.0092
 4804poe     o223084   2.898   6.348  -0.289  0.5056 -0.0543 -0.3238
 4804poe    c2323085   2.926   6.482  -0.323  0.3252  0.0453 -0.0867
 4804poe    c2323086   2.850   6.531  -0.447 -0.2452  0.8711  0.5763
 4804poe     o223087   2.716   6.573  -0.434 -0.7428 -0.4536 -0.0066
 4804poe    c3123088   2.681   6.662  -0.538 -0.9415  0.4600  0.8252
 4805poe    c3123089   4.522   2.346   6.611  0.8635  0.2298  0.0928
 4805poe     o223090   4.585   2.234   6.553 -0.2449 -0.0380 -0.6228
 4805poe    c2323091   4.650   2.287   6.440 -0.0648  0.1441 -0.4347
 4805poe    c2323092   4.736   2.188   6.359 -0.1439 -0.2143 -0.0831
 4805poe     o223093   4.657   2.084   6.305 -0.3209 -0.1344  0.0198
 4805poe    c2323094   4.737   2.010   6.216 -0.0581  0.1787 -0.0051
 4805poe    c2323095   4.661   1.880   6.187  0.5027 -0.1747  0.0802
 4805poe     o223096   4.669   1.775   6.280  0.0598 -0.2559  0.0319
 4805poe    c2323097   4.647   1.657   6.207 -0.1783 -0.0738 -0.1903
 4805poe    c2323098   4.635   1.533   6.297 -0.0542  0.5521  0.6971
 4805poe     o223099   4.532   1.553   6.391 -0.4680  0.2312  0.3171
 4805poe    c3123100   4.478   1.431   6.435 -0.0834  0.0294  0.2357
 4806poe    c3123101   1.115   3.532   2.117 -0.0022 -0.1819  0.5054
 4806poe     o223102   1.225   3.543   2.204  0.1603  0.5676  0.2111
 4806poe    c2323103   1.350   3.525   2.142 -0.0782  0.5464 -0.2692
 4806poe    c2323104   1.457   3.503   2.251 -0.7544  0.2111  0.3403
 4806poe     o223105   1.502   3.623   2.310  0.3578 -0.1095  0.1833
 4806poe    c2323106   1.546   3.595   2.440 -0.3778 -0.0560  0.4517
 4806poe    c2323107   1.546   3.718   2.533 -0.3985 -0.3717  0.8707
 4806poe     o223108   1.418   3.779   2.529 -0.0682  0.2668 -0.1048
 4806poe    c2323109   1.419   3.900   2.600 -0.7587  0.0657  0.2484
 4806poe    c2323110   1.288   3.978   2.576 -0.5374  0.2137 -0.4823
 4806poe     o223111   1.171   3.912   2.619  0.1529 -0.7301 -0.0138
 4806poe    c3123112   1.144   3.942   2.754  0.0997 -0.0120 -0.1775
 4807poe    c3123113   7.438   4.042   6.457  0.2023 -0.2865 -0.1309
 4807poe     o223114   7.559   4.103   6.496  0.0888 -0.2278  0.1318
 4807poe    c2323115   7.553   4.243   6.506 -0.0767 -0.2075 -0.2163
 4807poe    c2323116   7.681   4.314   6.555 -0.0259 -0.1689 -0.4046
 4807poe     o223117   7.782   4.284   6.461  0.3237 -0.0035 -0.0869
 4807poe    c2323118   7.904   4.338   6.505  0.1963  0.1385  0.0898
 4807poe    c2323119   7.995   4.347   6.382  0.9902 -0.6737  0.6046
 4807poe     o223120   7.989   4.237   6.294 -0.1249 -0.1025 -0.0569
 4807poe    c2323121   8.093   4.256   6.201  0.5643 -0.7606  0.5644
 4807poe    c2323122   8.094   4.140   6.098  0.5812 -0.2424 -0.0257
 4807poe     o223123   8.144   4.022   6.156  0.8181  0.0559  0.3852
 4807poe    c3123124   8.242   3.952   6.083 -0.0413 -0.1738 -0.5644
 4808poe    c3123125   0.544   3.033   5.579 -0.9071  0.0545 -0.0486
 4808poe     o223126   0.541   3.172   5.554 -0.2748 -0.1314 -1.1942
 4808poe    c2323127   0.411   3.223   5.575 -0.1307 -0.2913  0.1812
 4808poe    c2323128   0.372   3.325   5.466  0.6619 -0.5237 -0.3339
 4808poe     o223129   0.391   3.457   5.514 -0.2505 -0.4371 -0.1819
 4808poe    c2323130   0.340   3.548   5.420  0.3343 -0.0329 -0.1103
 4808poe    c2323131   0.353   3.697   5.460  0.1733 -0.1709  0.4653
 4808poe     o223132   0.489   3.729   5.481  0.2867 -0.3282 -0.0025
 4808poe    c2323133   0.521   3.864   5.456 -0.7690 -0.0409  0.1704
 4808poe    c2323134   0.659   3.901   5.513 -0.5882 -0.0136 -0.2871
 4808poe     o223135   0.642   3.928   5.650 -0.4366  0.0955 -0.2896
 4808poe    c3123136   0.772   3.956   5.697 -0.5991  0.2955  0.0451
 4809poe    c3123137   3.270   2.632   4.136  0.2308  1.0747  0.1894
 4809poe     o223138   3.135   2.606   4.105  0.2985  0.5325  0.3425
 4809poe    c2323139   3.078   2.700   4.016 -0.3115  0.2542  0.4332
 4809poe    c2323140   2.968   2.632   3.934  0.1763  0.2199 -0.2005
 4809poe     o223141   2.930   2.729   3.839  0.4837 -0.0327 -0.5855
 4809poe    c2323142   2.793   2.731   3.805  0.1341  0.8262  0.7476
 4809poe    c2323143   2.785   2.838   3.695 -0.7925 -0.0330 -0.0497
 4809poe     o223144   2.824   2.970   3.729 -0.0591 -0.3033  0.1771
 4809poe    c2323145   2.771   3.019   3.850 -0.0058 -0.2606  0.1827
 4809poe    c2323146   2.869   3.120   3.913 -0.0658 -0.1026  0.0246
 4809poe     o223147   2.848   3.253   3.870  0.0357 -0.0600  0.1079
 4809poe    c3123148   2.959   3.332   3.909  0.3223  0.0335 -0.8635
 4810poe    c3123149   1.040   6.305   1.289  0.1747  0.2150 -0.1553
 4810poe     o223150   1.043   6.440   1.249  0.4727  0.1953 -0.2030
 4810poe    c2323151   1.086   6.521   1.357  0.1480  0.3716 -0.2036
 4810poe    c2323152   1.059   6.670   1.333 -0.2702  0.3654  0.2028
 4810poe     o223153   0.941   6.680   1.257 -0.0098 -0.1019 -0.2681
 4810poe    c2323154   0.890   6.809   1.228  0.2230 -0.0523 -0.4732
 4810poe    c2323155   0.758   6.810   1.148 -0.1219 -0.1767  0.0862
 4810poe     o223156   0.776   6.730   1.034 -0.0842 -0.0314 -0.0095
 4810poe    c2323157   0.673   6.746   0.939 -0.0131  0.3043 -0.0292
 4810poe    c2323158   0.653   6.616   0.859 -0.7115  0.3973 -0.0113
 4810poe     o223159   0.631   6.501   0.937 -0.7025  0.2523 -0.2228
 4810poe    c3123160   0.592   6.399   0.847  0.0178  0.1599 -0.4359
 4811poe    c3123161   0.385   1.860   1.395 -0.3431 -0.3785  0.2179
 4811poe     o223162   0.265   1.853   1.469 -0.4122  0.2398  0.1712
 4811poe    c2323163   0.151   1.900   1.401  0.0908  0.4770 -0.5193
 4811poe    c2323164   0.018   1.854   1.462  0.5242 -0.0045  0.0807
 4811poe     o223165  -0.017   1.718   1.455  0.3012  0.0601 -0.0683
 4811poe    c2323166  -0.146   1.678   1.497  0.3248 -0.1023 -0.1488
 4811poe    c2323167  -0.179   1.529   1.480  0.4492 -0.1161 -0.2739
 4811poe     o223168  -0.188   1.490   1.345  0.7550 -0.0183 -0.3216
 4811poe    c2323169  -0.322   1.455   1.318  0.6066  0.6085 -0.4112
 4811poe    c2323170  -0.371   1.455   1.172 -0.4365  0.1798 -0.0722
 4811poe     o223171  -0.356   1.579   1.107  0.0511  0.4257  0.4970
 4811poe    c3123172  -0.406   1.585   0.975 -0.3545  0.1431  0.6349
 4812poe    c3123173   4.153   4.495   3.437  0.5105 -0.3019  0.0886
 4812poe     o223174   4.292   4.495   3.414  0.5448  0.2312  0.2857
 4812poe    c2323175   4.329   4.549   3.288  0.2991  0.0790  0.1473
 4812poe    c2323176   4.480   4.582   3.289  0.2925  0.1090  0.0839
 4812poe     o223177   4.536   4.487   3.377  0.1524 -0.2932 -0.2597
 4812poe    c2323178   4.674   4.462   3.361  0.4427  0.7470  0.5158
 4812poe    c2323179   4.728   4.395   3.488 -0.3528 -0.4269  0.2481
 4812poe     o223180   4.640   4.314   3.564 -0.0296 -0.5655  0.4740
 4812poe    c2323181   4.695   4.279   3.690 -0.3627 -0.5150  0.6338
 4812poe    c2323182   4.753   4.137   3.690 -0.0710 -0.3973  0.3718
 4812poe     o223183   4.647   4.045   3.680 -0.2472 -0.1265 -0.3098
 4812poe    c3123184   4.692   3.912   3.693  0.4982  0.1232 -0.2639
 4813poe    c3123185   5.245   2.946   6.728  0.2475  0.5966 -0.7467
 4813poe     o223186   5.362   2.875   6.761  0.0660  0.5521 -0.1962
 4813poe    c2323187   5.345   2.750   6.698 -0.3401  0.5422 -0.0740
 4813poe    c2323188   5.444   2.649   6.759 -0.6274  0.3926  0.1456
 4813poe     o223189   5.453   2.695   6.892  0.7904  0.6782 -0.0306
 4813poe    c2323190   5.547   2.616   6.961  0.4862  0.2164 -0.1412
 4813poe    c2323191   5.570   2.683   7.098  1.0543 -0.4037  0.0731
 4813poe     o223192   5.621   2.813   7.079  0.0489  0.0266  0.2501
 4813poe    c2323193   5.691   2.857   7.193 -0.1834  0.1731  0.3373
 4813poe    c2323194   5.797   2.962   7.156 -0.3584  0.3925  0.4570
 4813poe     o223195   5.765   3.071   7.072  0.1751  0.0731 -0.1716
 4813poe    c3123196   5.859   3.175   7.080  0.5478 -0.2534 -0.2620
 4814poe    c3123197   7.590   3.908   3.441  0.3015 -0.1650  0.0233
 4814poe     o223198   7.690   3.902   3.540  0.4006 -0.5822 -0.1024
 4814poe    c2323199   7.666   3.801   3.636 -0.1630  0.3689  0.7774
 4814poe    c2323200   7.768   3.812   3.751  0.2719  0.3308  0.4007
 4814poe     o223201   7.883   3.758   3.691 -0.4526 -0.4551 -0.2989
 4814poe    c2323202   7.973   3.725   3.794 -0.1793  0.2073 -0.3185
 4814poe    c2323203   8.094   3.659   3.725  0.3047  0.1152  0.6002
 4814poe     o223204   8.169   3.757   3.657  0.1583  0.2264  0.5976
 4814poe    c2323205   8.276   3.690   3.593 -0.3570 -0.0063 -0.0305
 4814poe    c2323206   8.327   3.795   3.492 -0.1211  0.0958  0.1950
 4814poe     o223207   8.222   3.845   3.413  0.2266 -0.0887 -0.3909
 4814poe    c3123208   8.260   3.848   3.277  0.1011  0.1437 -0.4224
 4815poe    c3123209   1.066   5.824   3.222 -0.8539  0.1250 -0.0681
 4815poe     o223210   1.101   5.689   3.238 -0.2899  0.2192 -0.4722
 4815poe    c2323211   1.238   5.663   3.220 -0.2675 -0.2487  0.3473
 4815poe    c2323212   1.271   5.520   3.267  0.3169 -0.2806 -0.1493
 4815poe     o223213   1.206   5.433   3.176  0.6488 -0.1691 -0.4960
 4815poe    c2323214   1.231   5.296   3.193 -0.1015 -0.2281  0.2175
 4815poe    c2323215   1.201   5.214   3.067 -0.0705 -0.0079  0.0668
 4815poe     o223216   1.066   5.244   3.041 -0.0152  0.3726  0.2264
 4815poe    c2323217   1.019   5.207   2.914 -0.0526  0.0484  0.3352
 4815poe    c2323218   0.866   5.218   2.906 -0.0522  0.0426  0.3198
 4815poe     o223219   0.837   5.354   2.931 -0.1513  0.1397 -0.2989
 4815poe    c3123220   0.708   5.391   2.889 -0.5895 -0.2549  0.6638
 4816poe    c3123221   0.268   2.488   4.653 -0.3215  0.1506  0.1175
 4816poe     o223222   0.228   2.620   4.682 -0.3671  0.1947 -0.1424
 4816poe    c2323223   0.111   2.660   4.614  0.0232  0.0365 -0.9171
 4816poe    c2323224   0.073   2.800   4.665  0.4664 -0.1933  0.0773
 4816poe     o223225   0.165   2.901   4.632  0.2514  0.0078  0.0920
 4816poe    c2323226   0.124   3.012   4.708 -0.2264 -0.2169  0.1630
 4816poe    c2323227   0.201   3.140   4.671 -0.3672 -0.2446 -0.2271
 4816poe     o223228   0.332   3.156   4.723 -0.4409  0.0257 -0.1242
 4816poe    c2323229   0.377   3.287   4.700  0.4181 -0.2773 -0.1777
 4816poe    c2323230   0.324   3.403   4.786  0.3640 -0.2708 -0.2198
 4816poe     o223231   0.385   3.417   4.912  0.8769  0.2821 -0.5204
 4816poe    c3123232   0.365   3.552   4.947 -0.2719 -0.0292  0.0711
 4817poe    c3123233   7.565   5.947   1.332  0.5302 -0.1831  0.0551
 4817poe     o223234   7.516   6.079   1.337  0.3952 -0.2230 -0.2057
 4817poe    c2323235   7.437   6.099   1.452  0.6034 -0.1389 -0.0759
 4817poe    c2323236   7.417   6.249   1.480 -0.1180 -0.0421 -1.0542
 4817poe     o223237   7.405   6.332   1.367  0.7204  0.6179 -0.6688
 4817poe    c2323238   7.377   6.466   1.403  0.5394  0.4574 -0.2088
 4817poe    c2323239   7.410   6.576   1.301 -0.2143  0.6299 -0.2772
 4817poe     o223240   7.548   6.587   1.272 -0.0517 -0.7735 -0.1161
 4817poe    c2323241   7.550   6.667   1.156 -0.2254 -0.2012  0.2751
 4817poe    c2323242   7.686   6.666   1.085 -0.6054  0.1537 -0.4786
 4817poe     o223243   7.711   6.536   1.036 -0.2080  0.0461 -0.0114
 4817poe    c3123244   7.659   6.510   0.907 -0.5580 -0.4271  0.2216
 4818poe    c3123245   7.086   3.744   4.358 -0.0730  0.1230 -0.2353
 4818poe     o223246   6.953   3.750   4.404  0.1436 -0.3839  0.4689
 4818poe    c2323247   6.946   3.850   4.504  0.3107 -0.1666  0.2650
 4818poe    c2323248   6.828   3.799   4.590  0.2422 -0.2550  0.1196
 4818poe     o223249   6.714   3.800   4.507  0.3946 -0.6626 -0.0944
 4818poe    c2323250   6.605   3.741   4.574 -0.2473  0.5404 -0.0657
 4818poe    c2323251   6.481   3.731   4.483 -0.1433 -0.5786 -0.0910
 4818poe     o223252   6.505   3.668   4.358  0.6239 -0.2420 -0.1165
 4818poe    c2323253   6.381   3.648   4.294  0.4026 -0.2202  0.2986
 4818poe    c2323254   6.392   3.541   4.184 -0.0445 -0.0540  0.0899
 4818poe     o223255   6.489   3.555   4.083 -0.0272 -1.0805 -0.0444
 4818poe    c3123256   6.439   3.479   3.975 -1.1294 -0.0494 -0.2836
 4819poe    c3123257   1.731   5.596   2.925  0.3920  0.5793  0.6086
 4819poe     o223258   1.638   5.656   2.838  0.3159 -0.7107 -0.2316
 4819poe    c2323259   1.588   5.554   2.755 -0.6289 -0.6508  0.2581
 4819poe    c2323260   1.481   5.582   2.648 -0.1247  0.1855 -0.0373
 4819poe     o223261   1.520   5.662   2.540 -0.0928  0.8719  0.4777
 4819poe    c2323262   1.408   5.707   2.467 -0.4303 -0.3946  0.1879
 4819poe    c2323263   1.438   5.808   2.355 -0.5712 -0.1105  0.4015
 4819poe     o223264   1.529   5.903   2.406 -0.2917 -0.3090  0.2783
 4819poe    c2323265   1.567   5.994   2.305  0.2817 -0.3506  0.4548
 4819poe    c2323266   1.684   6.073   2.367  0.6852 -0.2683 -0.4107
 4819poe     o223267   1.658   6.111   2.500  0.2762  0.0407 -0.5773
 4819poe    c3123268   1.770   6.176   2.554  0.3001 -0.0026 -0.5752
 4820poe    c3123269   5.457   0.951   2.314 -0.0301 -0.6215 -0.0709
 4820poe     o223270   5.487   1.011   2.191  0.2270  0.2632  0.4143
 4820poe    c2323271   5.627   1.023   2.177  0.2388 -0.2771  0.0104
 4820poe    c2323272   5.704   1.104   2.071  0.3561 -0.0748  0.2461
 4820poe     o223273   5.675   1.063   1.939  0.1029 -0.2079  0.3421
 4820poe    c2323274   5.776   1.116   1.856 -0.2632 -0.7243 -0.4469
 4820poe    c2323275   5.731   1.134   1.710 -0.3533 -0.1046 -0.3456
 4820poe     o223276   5.652   1.247   1.682  0.4871  0.5121 -0.2481
 4820poe    c2323277   5.617   1.244   1.546 -0.3867  0.7612 -0.0312
 4820poe    c2323278   5.528   1.362   1.504 -0.2029  0.6386 -0.7761
 4820poe     o223279   5.411   1.373   1.581  0.1584 -0.3579 -0.0643
 4820poe    c3123280   5.354   1.500   1.556  0.0689 -0.2787  0.5171
 4821poe    c3123281   6.839   3.271   3.832  0.1427  0.1127 -0.2324
 4821poe     o223282   6.973   3.235   3.856  0.0039 -0.0851  0.2567
 4821poe    c2323283   6.990   3.220   3.995  0.3647  0.6188  0.2946
 4821poe    c2323284   7.139   3.215   4.033  0.5662  0.6283 -0.4908
 4821poe     o223285   7.210   3.104   3.984 -0.1659  0.0019 -0.1644
 4821poe    c2323286   7.350   3.111   4.003 -0.1682  0.0642 -0.1703
 4821poe    c2323287   7.407   3.098   3.860  0.0738 -0.5387 -0.0215
 4821poe     o223288   7.358   3.195   3.771  0.3524 -0.7203 -0.3754
 4821poe    c2323289   7.446   3.303   3.790 -0.0931 -0.4308  0.0739
 4821poe    c2323290   7.426   3.423   3.695  0.1062 -0.3832  0.0912
 4821poe     o223291   7.399   3.379   3.564 -0.0878  0.1624 -0.0532
 4821poe    c3123292   7.384   3.491   3.480 -1.0348 -0.0739 -0.2061
 4822poe    c3123293   4.560   1.709   1.615  0.1248  0.2621 -0.3565
 4822poe     o223294   4.698   1.706   1.641  0.0036 -0.0971  0.2774
 4822poe    c2323295   4.763   1.583   1.616  0.0343 -0.0922  0.3320
 4822poe    c2323296   4.910   1.584   1.663  0.3079 -0.7927 -0.4800
 4822poe     o223297   4.986   1.644   1.560 -0.2721  0.5262 -0.1557
 4822poe    c2323298   4.985   1.783   1.586  0.1350  0.4444  0.3126
 4822poe    c2323299   5.073   1.858   1.484 -0.6124  0.3898 -0.3847
 4822poe     o223300   5.132   1.979   1.527 -0.3335  0.1836 -0.1829
 4822poe    c2323301   5.191   2.066   1.434  0.3264  0.0992  0.1523
 4822poe    c2323302   5.338   2.026   1.407  0.2420  0.0427 -0.2347
 4822poe     o223303   5.353   1.916   1.320  0.3192 -0.1922  0.0744
 4822poe    c3123304   5.444   1.820   1.369  0.1444 -0.5152 -0.2271
 4823poe    c3123305   4.296   5.645   0.577 -0.5187 -0.2303  0.4078
 4823poe     o223306   4.191   5.737   0.594  0.1487  0.5573  0.3381
 4823poe    c2323307   4.198   5.852   0.513  0.4544  0.3782  0.1087
 4823poe    c2323308   4.067   5.931   0.528 -0.0303 -0.4395  0.2248
 4823poe     o223309   3.959   5.863   0.468  0.0184 -0.2611 -0.0667
 4823poe    c2323310   3.844   5.938   0.499  0.0906 -0.1062 -0.1771
 4823poe    c2323311   3.725   5.843   0.478  0.2539 -0.3093 -0.1797
 4823poe     o223312   3.711   5.744   0.577  0.1444  0.2482  0.3653
 4823poe    c2323313   3.577   5.708   0.605  0.1762 -0.1630 -0.0071
 4823poe    c2323314   3.584   5.603   0.717  0.7193  0.4010  0.4900
 4823poe     o223315   3.686   5.520   0.667  0.0864  0.0798 -0.2843
 4823poe    c3123316   3.704   5.406   0.748  0.0457  0.3600  0.1212
 4824poe    c3123317   4.305   2.119   5.109 -0.4575 -0.2654 -0.2366
 4824poe     o223318   4.167   2.129   5.137 -0.4230  0.1597 -0.2108
 4824poe    c2323319   4.142   2.249   5.067  0.1859  0.3682 -0.0762
 4824poe    c2323320   3.990   2.267   5.067  0.0433 -0.7644 -0.2192
 4824poe     o223321   3.953   2.250   5.202 -0.0686  0.2293 -0.1160
 4824poe    c2323322   3.831   2.317   5.224 -0.1153 -0.0177  0.4036
 4824poe    c2323323   3.772   2.302   5.365 -0.4180  0.0073  0.2793
 4824poe     o223324   3.771   2.170   5.412  0.7666 -0.1953 -0.2471
 4824poe    c2323325   3.730   2.153   5.546  0.3726  0.3091 -0.3016
 4824poe    c2323326   3.822   2.218   5.652 -0.1523  0.2411  0.1994
 4824poe     o223327   3.956   2.176   5.658 -0.0174  0.5078 -0.7945
 4824poe    c3123328   4.018   2.209   5.780 -0.4428 -0.3058 -0.3532
 4825poe    c3123329   1.175   4.296   1.656 -0.1583  0.9839  0.2172
 4825poe     o223330   1.284   4.345   1.730  0.9373 -0.0511 -0.6919
 4825poe    c2323331   1.273   4.483   1.706  0.3087  0.0475  0.1242
 4825poe    c2323332   1.346   4.590   1.790  0.2400  0.2695 -0.0958
 4825poe     o223333   1.290   4.610   1.917  0.1418 -0.5138 -0.0121
 4825poe    c2323334   1.384   4.669   2.004 -0.5000  0.3787  0.0882
 4825poe    c2323335   1.317   4.725   2.131 -0.4801  0.0748  0.2332
 4825poe     o223336   1.217   4.807   2.074  0.1982  0.6196 -0.1957
 4825poe    c2323337   1.158   4.902   2.159 -0.1478  0.6366 -0.4523
 4825poe    c2323338   1.071   4.995   2.074 -0.1348  0.2631 -0.8771
 4825poe     o223339   0.996   4.906   1.995 -0.4949 -0.7714  0.5968
 4825poe    c3123340   0.859   4.936   1.986 -0.3592 -0.2938  0.0514
 4826poe    c3123341   3.741   0.042   0.956 -0.1281 -0.6561 -0.1421
 4826poe     o223342   3.857   0.003   0.886 -0.3453 -0.6810 -0.4929
 4826poe    c2323343   3.898  -0.125   0.930  0.1275 -0.3574  0.0246
 4826poe    c2323344   4.051  -0.126   0.948  0.0897  0.2259  0.4331
 4826poe     o223345   4.119  -0.127   0.824 -0.2476 -0.5428  0.2442
 4826poe    c2323346   4.247  -0.174   0.859  0.0338  0.0332  0.0073
 4826poe    c2323347   4.319  -0.253   0.748 -0.5197 -0.4461 -0.0144
 4826poe     o223348   4.270  -0.384   0.725 -0.4514 -0.3518 -0.6964
 4826poe    c2323349   4.335  -0.471   0.635  0.3430  0.0033 -0.4745
 4826poe    c2323350   4.270  -0.609   0.650 -0.3352  0.3779  0.0487
 4826poe     o223351   4.129  -0.621   0.655 -0.2843 -0.2751  0.0089
 4826poe    c3123352   4.065  -0.608   0.531 -0.2542  0.1517  0.0346
 4827poe    c3123353   1.215   1.855   4.208  0.4835  0.0496  0.6651
 4827poe     o223354   1.354   1.871   4.225  0.4864 -0.0266  0.7147
 4827poe    c2323355   1.410   1.766   4.301 -0.9223 -0.6519  0.9113
 4827poe    c2323356   1.551   1.789   4.357 -0.7122 -0.1577  0.1939
 4827poe     o223357   1.542   1.861   4.479 -0.4303  0.3131 -0.0606
 4827poe    c2323358   1.669   1.891   4.532 -0.1881 -0.1282 -0.3815
 4827poe    c2323359   1.738   1.778   4.610 -0.4726  0.2264  0.3899
 4827poe     o223360   1.661   1.737   4.722 -0.5413 -0.6350  0.0354
 4827poe    c2323361   1.717   1.633   4.799  0.3446  0.0166  0.2864
 4827poe    c2323362   1.657   1.631   4.940 -0.3155  0.7357  0.0219
 4827poe     o223363   1.522   1.591   4.924  0.1472 -0.9005  0.0177
 4827poe    c3123364   1.470   1.570   5.053  0.2877  0.7169  0.3668
 4828poe    c3123365   4.899   0.017   1.515  0.0033  0.5981  0.1229
 4828poe     o223366   4.764  -0.023   1.514  0.1465  0.1133  0.0080
 4828poe    c2323367   4.677   0.088   1.516 -0.6430 -0.5001  0.2903
 4828poe    c2323368   4.542   0.028   1.471 -0.5194 -0.2980 -0.3532
 4828poe     o223369   4.521  -0.087   1.549 -0.4933 -0.2523 -0.2784
 4828poe    c2323370   4.403  -0.160   1.521 -0.1814 -0.7042 -0.4339
 4828poe    c2323371   4.391  -0.270   1.628 -0.6906 -0.2637 -0.0291
 4828poe     o223372   4.518  -0.330   1.611 -0.3135  0.5915 -0.3299
 4828poe    c2323373   4.529  -0.446   1.691  0.4161  0.7353 -0.2150
 4828poe    c2323374   4.623  -0.552   1.629  0.0835  0.2191  0.1521
 4828poe     o223375   4.759  -0.518   1.633  0.1787 -0.1703  0.2340
 4828poe    c3123376   4.834  -0.617   1.700 -0.0876 -0.3187  0.3106
 4829poe    c3123377   6.921   2.706   6.084  0.3813  0.2461 -0.2389
 4829poe     o223378   7.000   2.606   6.025 -0.0150  0.2365 -0.7573
 4829poe    c2323379   7.135   2.630   6.060 -0.1081  0.2667 -0.4226
 4829poe    c2323380   7.233   2.526   6.005  0.0394  0.2112 -0.0545
 4829poe     o223381   7.204   2.507   5.868 -0.4435  0.1759  0.0526
 4829poe    c2323382   7.284   2.410   5.804 -0.3573  0.2770  0.0067
 4829poe    c2323383   7.424   2.453   5.755 -0.2890  0.3341  0.2522
 4829poe     o223384   7.413   2.546   5.650 -0.7023 -0.0536 -0.0556
 4829poe    c2323385   7.541   2.562   5.593 -0.6491  0.2941  0.1573
 4829poe    c2323386   7.551   2.678   5.492 -0.2366  0.1103 -0.0135
 4829poe     o223387   7.519   2.809   5.534  0.0534  0.1639  0.0413
 4829poe    c3123388   7.572   2.896   5.437  0.6143 -0.4956 -0.2572
 4830poe    c3123389   3.268   6.109   4.539  0.2267  0.3079 -0.6866
 4830poe     o223390   3.234   5.977   4.576 -0.3489  0.6455 -0.0007
 4830poe    c2323391   3.258   5.965   4.715 -0.6285  0.2086  0.0118
 4830poe    c2323392   3.184   5.847   4.780  0.5893 -0.5308  0.0911
 4830poe     o223393   3.043   5.844   4.767  0.6509 -0.9350 -0.5470
 4830poe    c2323394   2.984   5.726   4.817 -0.0204 -0.4226 -0.1153
 4830poe    c2323395   2.831   5.722   4.800 -0.0358 -0.2165 -0.0290
 4830poe     o223396   2.768   5.741   4.924  0.3703  0.2003  0.1147
 4830poe    c2323397   2.641   5.682   4.940  0.1422  0.6627  0.0390
 4830poe    c2323398   2.560   5.724   5.064 -1.0867 -1.0277 -0.1537
 4830poe     o223399   2.622   5.641   5.161  0.3900 -0.0037 -0.1802
 4830poe    c3123400   2.535   5.632   5.271 -0.2176  0.2102 -0.6365
 4831poe    c3123401   6.920   3.455   7.386 -0.2948  0.0404  0.7678
 4831poe     o223402   6.933   3.522   7.509 -0.4885 -0.1906  0.9159
 4831poe    c2323403   6.850   3.635   7.522  0.4598  0.8091 -1.1470
 4831poe    c2323404   6.908   3.713   7.641 -0.1133 -0.1555 -0.2186
 4831poe     o223405   7.043   3.744   7.616  0.0163 -0.5670 -0.0464
 4831poe    c2323406   7.063   3.858   7.535 -0.5469  0.6022  1.4040
 4831poe    c2323407   7.201   3.923   7.552 -0.0075 -0.0857 -0.1559
 4831poe     o223408   7.311   3.842   7.517 -0.1419 -0.6421  0.6804
 4831poe    c2323409   7.428   3.907   7.561 -0.3390 -0.0459  0.3350
 4831poe    c2323410   7.540   3.804   7.586 -0.6015 -0.5129 -0.3885
 4831poe     o223411   7.502   3.723   7.695 -0.3006  0.5397  0.5103
 4831poe    c3123412   7.612   3.639   7.722 -0.6135  0.1057  0.4565
 4832poe    c3123413   2.893   6.774   0.979  0.1663 -0.6261 -0.0447
 4832poe     o223414   2.870   6.700   1.098  0.5052 -0.3099  0.2177
 4832poe    c2323415   2.784   6.768   1.186 -0.3928 -0.5993 -0.4253
 4832poe    c2323416   2.784   6.725   1.334  0.3127  0.2596 -0.1663
 4832poe     o223417   2.897   6.751   1.413  0.2654  0.6663 -0.2318
 4832poe    c2323418   2.967   6.633   1.447  0.0513  0.4711 -0.4738
 4832poe    c2323419   3.116   6.662   1.468  0.0343  0.0354  0.2818
 4832poe     o223420   3.202   6.641   1.358 -0.0318  0.3932  0.1582
 4832poe    c2323421   3.312   6.728   1.359 -0.2645  0.6882  0.2501
 4832poe    c2323422   3.289   6.880   1.349  0.3788  0.7986  0.3755
 4832poe     o223423   3.228   6.906   1.224  0.4717 -0.5125  0.0430
 4832poe    c3123424   3.190   7.041   1.217 -0.1757 -0.7076 -0.3623
 4833poe    c3123425   6.543   6.952   2.691  0.7012 -0.1994 -0.0191
 4833poe     o223426   6.607   6.831   2.658 -0.8314 -0.8947 -0.5506
 4833poe    c2323427   6.689   6.857   2.546 -0.0719 -0.4486  0.0974
 4833poe    c2323428   6.803   6.756   2.519  0.3007 -0.0373  0.1290
 4833poe     o223429   6.778   6.618   2.512 -0.5184  0.1165 -0.1601
 4833poe    c2323430   6.713   6.571   2.396  0.1403 -0.1149 -0.4424
 4833poe    c2323431   6.675   6.422   2.390 -0.0050 -0.0649 -0.7838
 4833poe     o223432   6.758   6.331   2.458 -0.1607  0.1305 -0.3270
 4833poe    c2323433   6.690   6.210   2.486  0.1882  0.0181  0.0431
 4833poe    c2323434   6.778   6.084   2.485  0.6114  0.3072  0.5191
 4833poe     o223435   6.819   6.030   2.361 -0.0052  0.7543  0.1146
 4833poe    c3123436   6.923   5.939   2.389 -0.1904  0.3467 -0.5027
 4834poe    c3123437   5.280   6.948   5.608 -0.3541 -0.1567 -0.4696
 4834poe     o223438   5.349   7.070   5.594 -0.1424 -0.2930 -0.6141
 4834poe    c2323439   5.473   7.083   5.658 -0.4798  0.0165 -0.0188
 4834poe    c2323440   5.530   7.226   5.673  0.0583 -0.2013  0.0168
 4834poe     o223441   5.480   7.308   5.776  0.2080 -0.1216  0.0274
 4834poe    c2323442   5.544   7.434   5.773 -0.0136 -0.0194 -0.5126
 4834poe    c2323443   5.446   7.547   5.809  0.0038 -0.1417 -0.0747
 4834poe     o223444   5.359   7.583   5.703  0.2447  0.1255 -0.1817
 4834poe    c2323445   5.291   7.701   5.737 -0.2678 -0.2479  0.1123
 4834poe    c2323446   5.226   7.751   5.607  0.0901 -0.6131 -0.2070
 4834poe     o223447   5.321   7.800   5.514  0.0362 -0.6991 -0.3074
 4834poe    c3123448   5.250   7.890   5.431  0.6538 -0.3049 -0.4110
 4835poe    c3123449   3.197   5.923   0.022 -0.5685 -0.1849  0.0149
 4835poe     o223450   3.175   5.912   0.161  0.2291 -0.4159  0.1315
 4835poe    c2323451   3.145   6.041   0.211  0.1017 -0.1827 -0.5409
 4835poe    c2323452   3.178   6.056   0.360 -0.7022  0.6051 -0.4313
 4835poe     o223453   3.074   6.023   0.450  0.0742 -0.5214  0.0843
 4835poe    c2323454   2.976   6.124   0.460  0.4627 -0.1082 -0.2365
 4835poe    c2323455   2.882   6.099   0.579  0.3837 -0.1419 -0.3066
 4835poe     o223456   2.788   5.994   0.570 -0.0082  0.1853 -0.0371
 4835poe    c2323457   2.723   5.972   0.693 -0.0408  0.1753 -0.0562
 4835poe    c2323458   2.627   5.852   0.705  0.3827 -0.2495 -0.8308
 4835poe     o223459   2.690   5.739   0.761  0.0828  0.0388  0.1166
 4835poe    c3123460   2.594   5.664   0.831  0.2936  0.4103  0.8155
 4836poe    c3123461   2.491   6.316   4.286 -0.0791 -0.0379 -0.3178
 4836poe     o223462   2.351   6.324   4.297 -0.0509 -0.3586  0.4104
 4836poe    c2323463   2.312   6.444   4.361 -0.6741 -0.2940 -0.0794
 4836poe    c2323464   2.158   6.447   4.353 -0.6499  0.4218 -0.2567
 4836poe     o223465   2.118   6.327   4.414  0.4380  0.4600  0.5556
 4836poe    c2323466   1.979   6.310   4.434  0.4470 -0.4418 -0.1052
 4836poe    c2323467   1.958   6.178   4.511 -0.6588 -0.3339 -0.2120
 4836poe     o223468   2.047   6.080   4.463 -0.0219  0.4814 -0.7444
 4836poe    c2323469   2.011   5.947   4.492 -0.0913  0.6563 -0.0071
 4836poe    c2323470   2.094   5.833   4.431 -0.3325  0.2829  0.3524
 4836poe     o223471   2.226   5.839   4.481 -0.2488 -0.0670  0.1780
 4836poe    c3123472   2.307   5.729   4.446 -0.4242 -0.1662  0.0818
 4837poe    c3123473   0.064   0.902   7.201  0.3226  0.2779  0.2249
 4837poe     o223474   0.083   0.946   7.068 -0.1798 -0.0960  0.0260
 4837poe    c2323475   0.199   0.876   7.030 -0.0845 -0.1651  0.4395
 4837poe    c2323476   0.223   0.884   6.879 -1.2432  0.7347  0.2877
 4837poe     o223477   0.253   1.017   6.844  0.2788  0.3741  0.1403
 4837poe    c2323478   0.297   1.039   6.712  1.0369 -0.2397  0.2836
 4837poe    c2323479   0.272   1.184   6.665 -0.0672 -0.5544 -0.1364
 4837poe     o223480   0.133   1.198   6.648 -0.0596  0.3898  0.5480
 4837poe    c2323481   0.105   1.337   6.654 -0.5935  0.2753  0.7806
 4837poe    c2323482  -0.039   1.388   6.642 -0.4673  0.3357 -0.5477
 4837poe     o223483  -0.132   1.314   6.718  0.2015  0.2535  0.2052
 4837poe    c3123484  -0.263   1.330   6.666  0.3847 -0.4885 -0.5116
 4838poe    c3123485   0.522   6.461   3.749 -0.0111 -1.0013 -0.7902
 4838poe     o223486   0.651   6.405   3.744  0.3534 -0.2387 -0.0043
 4838poe    c2323487   0.642   6.265   3.754 -0.2615 -0.2006  0.0286
 4838poe    c2323488   0.782   6.205   3.781 -0.0863  0.3417  0.3290
 4838poe     o223489   0.880   6.210   3.680 -0.5419 -0.9175 -0.1891
 4838poe    c2323490   1.016   6.191   3.714 -0.5215 -0.0253  0.2511
 4838poe    c2323491   1.053   6.054   3.773 -0.0813 -0.1443 -0.2917
 4838poe     o223492   1.115   5.975   3.674 -0.6121 -0.2799 -0.5225
 4838poe    c2323493   1.051   5.850   3.667 -0.1785 -0.5331 -0.0077
 4838poe    c2323494   0.925   5.825   3.583 -0.2181 -0.0058 -0.1096
 4838poe     o223495   0.819   5.888   3.650 -0.0863  0.2078 -0.1021
 4838poe    c3123496   0.693   5.873   3.587 -0.2920 -0.1143  0.3806
 4839poe    c3123497   1.254   5.906   0.368  0.0010 -0.2634 -0.6839
 4839poe     o223498   1.293   6.034   0.324  0.2941 -0.1326 -0.0474
 4839poe    c2323499   1.188   6.095   0.253  0.3614 -0.1482 -0.1608
 4839poe    c2323500   1.246   6.219   0.182  0.2441  0.0125  0.0232
 4839poe     o223501   1.324   6.281   0.281 -0.2485 -0.3685  0.6540
 4839poe    c2323502   1.385   6.400   0.237 -0.5960 -0.3330  0.2655
 4839poe    c2323503   1.433   6.479   0.360 -0.1227 -0.5981  0.2541
 4839poe     o223504   1.472   6.392   0.463  0.9104 -0.1118  0.2872
 4839poe    c2323505   1.549   6.451   0.566 -0.1615  0.8826  0.5289
 4839poe    c2323506   1.600   6.346   0.666  0.1087  0.3954 -0.1116
 4839poe     o223507   1.494   6.286   0.739  0.1545  0.4656  0.0123
 4839poe    c3123508   1.527   6.250   0.871  0.4129  0.1707 -0.1314
 4840poe    c3123509   1.410   5.030   3.504 -0.3926 -0.3121  0.2569
 4840poe     o223510   1.446   4.894   3.511 -0.2360 -0.2447  0.7737
 4840poe    c2323511   1.534   4.879   3.621 -0.0673 -0.2979  0.6309
 4840poe    c2323512   1.615   4.748   3.629  0.0053 -0.2959 -0.0096
 4840poe     o223513   1.700   4.753   3.516 -0.2073 -0.0676 -0.1617
 4840poe    c2323514   1.720   4.619   3.477 -0.3159 -0.3318  0.6695
 4840poe    c2323515   1.867   4.589   3.514  0.0263  0.5298  0.0369
 4840poe     o223516   1.943   4.691   3.453 -0.0009  0.3290 -0.3375
 4840poe    c2323517   2.076   4.688   3.498 -0.3656  0.8885  0.7999
 4840poe    c2323518   2.153   4.812   3.448  0.1722  0.1178 -0.3231
 4840poe     o223519   2.063   4.913   3.490  0.2155 -0.2588  0.6923
 4840poe    c3123520   2.123   5.040   3.475 -0.1351 -0.1547  0.1730
 4841poe    c3123521   3.544   3.647   4.548 -0.1023  0.5065  0.0905
 4841poe     o223522   3.574   3.580   4.669 -0.5259  0.3169  0.0895
 4841poe    c2323523   3.705   3.528   4.673 -0.4184  0.6060  0.3599
 4841poe    c2323524   3.734   3.448   4.800 -0.2371  0.2377  0.0881
 4841poe     o223525   3.658   3.330   4.808 -0.6989  0.5258 -0.0507
 4841poe    c2323526   3.665   3.263   4.932 -0.0805  0.1625 -0.2781
 4841poe    c2323527   3.547   3.166   4.950 -0.0519  0.2262  0.2788
 4841poe     o223528   3.549   3.086   4.834 -0.4892  0.5576  0.0392
 4841poe    c2323529   3.457   2.980   4.846 -0.3344  0.4548  0.3261
 4841poe    c2323530   3.435   2.944   4.698  0.0676  0.1354  0.3406
 4841poe     o223531   3.397   3.059   4.625 -0.6847 -0.2215  0.1665
 4841poe    c3123532   3.311   3.017   4.521  0.0909  0.2436 -0.6816
 4842poe    c3123533   6.015   0.813   4.487 -0.1839 -0.3171  0.0669
 4842poe     o223534   5.961   0.801   4.357 -0.1510  1.1538 -0.0901
 4842poe    c2323535   6.058   0.781   4.257  0.0830  0.2777  0.3033
 4842poe    c2323536   6.121   0.642   4.238 -0.3228  0.1234  0.0639
 4842poe     o223537   6.029   0.556   4.175 -0.0347  0.1914 -0.4582
 4842poe    c2323538   6.112   0.444   4.160 -0.3072 -0.1119  0.2241
 4842poe    c2323539   6.046   0.323   4.091  0.4697 -0.4783  0.1055
 4842poe     o223540   5.938   0.291   4.175 -0.3878 -0.0199 -0.7980
 4842poe    c2323541   5.869   0.173   4.139  0.0954 -0.5248 -0.1044
 4842poe    c2323542   5.722   0.176   4.182  0.2099 -0.4555  0.2888
 4842poe     o223543   5.705   0.216   4.316  0.4636 -0.0171  0.1938
 4842poe    c3123544   5.569   0.206   4.353  0.3775 -0.1594 -0.1490
 4843poe    c3123545   5.153   3.200   1.043 -0.6270  0.7252  0.1508
 4843poe     o223546   5.275   3.218   1.112 -0.5753  0.1201  0.2189
 4843poe    c2323547   5.312   3.351   1.085  0.2823 -0.1682 -0.0408
 4843poe    c2323548   5.456   3.373   1.138  0.3581 -0.4484 -0.1284
 4843poe     o223549   5.552   3.284   1.086  0.2644 -0.6739  0.0799
 4843poe    c2323550   5.673   3.306   1.154 -0.1711  0.2694  0.5673
 4843poe    c2323551   5.799   3.218   1.143 -0.4098  0.0243 -0.2292
 4843poe     o223552   5.788   3.084   1.183 -0.1589  0.1967  0.4349
 4843poe    c2323553   5.919   3.035   1.204 -0.1258  0.1091  0.0432
 4843poe    c2323554   5.931   2.885   1.237 -0.4332  0.0356 -0.1746
 4843poe     o223555   5.866   2.864   1.360  0.1818 -0.3231  0.0924
 4843poe    c3123556   5.871   2.736   1.420  0.0722 -0.2637  0.2288
 4844poe    c3123557   7.554   6.985   7.440 -0.1836 -0.5811  0.5676
 4844poe     o223558   7.529   7.118   7.482  0.3870 -0.4196  0.4014
 4844poe    c2323559   7.622   7.218   7.449 -0.2733  0.2413  0.5192
 4844poe    c2323560   7.749   7.218   7.535  0.1019 -0.8057 -0.0168
 4844poe     o223561   7.711   7.264   7.663 -0.1438 -0.3796 -0.2419
 4844poe    c2323562   7.836   7.260   7.729 -0.3820 -0.3359  0.2161
 4844poe    c2323563   7.837   7.356   7.850  0.3653  0.4665 -0.4106
 4844poe     o223564   7.824   7.493   7.818  0.8588  0.5164 -0.3983
 4844poe    c2323565   7.855   7.567   7.934 -0.5136 -0.3949  0.5829
 4844poe    c2323566   7.813   7.714   7.913 -0.1518 -0.4030 -0.2445
 4844poe     o223567   7.674   7.739   7.912 -0.0452  0.1881 -0.5089
 4844poe    c3123568   7.640   7.867   7.960 -0.1233 -0.0593  0.1037
 4845poe    c3123569   6.398   4.776   7.432 -0.5529 -0.7103  0.7884
 4845poe     o223570   6.528   4.728   7.458  0.1078  0.2101 -0.6793
 4845poe    c2323571   6.624   4.827   7.487  0.3019 -0.1538 -0.0568
 4845poe    c2323572   6.748   4.741   7.519  0.3800  0.0155  0.0928
 4845poe     o223573   6.761   4.652   7.411  0.1896  0.1055 -0.0039
 4845poe    c2323574   6.891   4.597   7.411  0.1777  0.0767  0.1413
 4845poe    c2323575   6.914   4.507   7.289  0.0336  0.3120 -0.0610
 4845poe     o223576   6.842   4.386   7.302 -0.4136  0.5880  0.0406
 4845poe    c2323577   6.841   4.296   7.194 -0.3601  0.1595  0.3905
 4845poe    c2323578   6.738   4.182   7.205  0.0075 -0.3436 -1.1146
 4845poe     o223579   6.603   4.222   7.214  0.2766  0.3949 -0.1108
 4845poe    c3123580   6.538   4.195   7.092  0.1455  0.2405 -0.0079
 4846poe    c3123581   2.035   5.303   4.747 -0.5561 -0.3693 -0.0802
 4846poe     o223582   2.085   5.301   4.615  0.1561  0.0137  0.1812
 4846poe    c2323583   2.086   5.431   4.562  0.1255  0.0257  0.2090
 4846poe    c2323584   2.045   5.425   4.413  0.0773  0.1240  0.2181
 4846poe     o223585   2.127   5.324   4.360  0.0053  0.0937  0.1645
 4846poe    c2323586   2.112   5.317   4.220 -0.0720  0.5385  0.1504
 4846poe    c2323587   2.239   5.270   4.148  0.0069 -0.1768  0.7467
 4846poe     o223588   2.258   5.132   4.171  0.1454 -0.3213 -0.1640
 4846poe    c2323589   2.378   5.074   4.125  0.3096 -0.1215  0.0083
 4846poe    c2323590   2.368   4.922   4.143  0.2366 -0.1167  0.0073
 4846poe     o223591   2.344   4.901   4.280 -0.9085  0.3348 -0.1173
 4846poe    c3123592   2.299   4.771   4.313  0.2124 -0.0136  0.0629
 4847poe    c3123593   5.050   2.033   4.017 -0.4285 -0.2849 -0.6178
 4847poe     o223594   4.939   1.979   4.086 -0.1039 -0.1419  0.0275
 4847poe    c2323595   4.836   2.075   4.096 -0.2882 -0.2423 -0.7771
 4847poe    c2323596   4.701   2.020   4.144 -0.5708  0.2218 -1.0324
 4847poe     o223597   4.626   2.124   4.203  0.1614 -0.0658  0.4485
 4847poe    c2323598   4.506   2.071   4.256 -0.1013  0.0232 -0.0543
 4847poe    c2323599   4.412   2.193   4.262 -0.1358  0.0220 -0.4986
 4847poe     o223600   4.443   2.301   4.348 -0.9769 -0.1020 -0.0361
 4847poe    c2323601   4.434   2.276   4.487 -0.6274  0.6172  0.1179
 4847poe    c2323602   4.297   2.234   4.543 -0.3858 -1.0978 -0.5226
 4847poe     o223603   4.202   2.334   4.516  0.3936 -0.3395 -0.4820
 4847poe    c3123604   4.076   2.272   4.520  0.2719 -0.0738 -0.1933
 4848poe    c3123605   0.423   6.586   1.270 -0.0670  0.3432  0.3915
 4848poe     o223606   0.381   6.554   1.401 -0.3232  0.0253  0.2345
 4848poe    c2323607   0.493   6.584   1.482 -0.0429  0.1495 -0.1921
 4848poe    c2323608   0.467   6.539   1.628 -0.2041  0.0639 -0.2465
 4848poe     o223609   0.361   6.590   1.705 -0.1013 -0.1860  0.0621
 4848poe    c2323610   0.340   6.533   1.832  0.2435 -0.2772  0.0804
 4848poe    c2323611   0.237   6.620   1.907  0.0304  0.0069 -0.5311
 4848poe     o223612   0.130   6.636   1.818 -0.3105  0.4321 -0.0531
 4848poe    c2323613   0.010   6.678   1.879 -0.1110 -0.0214  0.6516
 4848poe    c2323614  -0.026   6.801   1.794 -0.2243 -0.2516  0.3669
 4848poe     o223615   0.003   6.768   1.660 -0.3080  0.3929  0.1911
 4848poe    c3123616  -0.098   6.809   1.570 -0.2675 -0.3276 -0.1861
 4849poe    c3123617   3.051   4.187   1.327  0.0965  0.0681 -0.7000
 4849poe     o223618   3.143   4.081   1.314 -0.0223 -0.1003 -0.1767
 4849poe    c2323619   3.278   4.115   1.336 -0.1268  0.5652 -0.5473
 4849poe    c2323620   3.388   4.032   1.268  0.3176  0.0964  0.7145
 4849poe     o223621   3.524   4.063   1.293  0.4463 -0.2125  0.4116
 4849poe    c2323622   3.564   4.014   1.419  0.3884  0.1082  0.5573
 4849poe    c2323623   3.703   3.946   1.416  0.0987 -0.4740  0.1055
 4849poe     o223624   3.799   4.048   1.408 -0.4164 -0.0128 -0.2851
 4849poe    c2323625   3.929   3.994   1.402 -0.2995  0.2240  0.0975
 4849poe    c2323626   4.034   4.104   1.380 -0.3050  0.3263  0.5609
 4849poe     o223627   4.008   4.161   1.253  0.3317 -0.4162  0.0874
 4849poe    c3123628   4.092   4.270   1.223 -0.1872 -0.1556 -0.4450
 4850poe    c3123629   4.154   3.051   0.764 -0.5443 -0.0464  0.1572
 4850poe     o223630   4.246   3.151   0.725 -0.4952 -0.0640  0.2279
 4850poe    c2323631   4.178   3.273   0.705 -0.0374  0.2664  0.6575
 4850poe    c2323632   4.264   3.377   0.633 -0.2676 -0.0669 -0.1080
 4850poe     o223633   4.333   3.443   0.736 -0.4186 -0.1613  0.0533
 4850poe    c2323634   4.398   3.562   0.696  0.4698 -0.5126  0.4042
 4850poe    c2323635   4.469   3.626   0.816  0.7882 -0.0862 -0.0134
 4850poe     o223636   4.573   3.558   0.882 -0.0245 -0.6609  0.6911
 4850poe    c2323637   4.631   3.652   0.970  0.1226 -0.0444 -0.0562
 4850poe    c2323638   4.718   3.567   1.064  0.7400  0.5071 -0.1176
 4850poe     o223639   4.831   3.496   1.017  0.2117 -0.3171 -0.1631
 4850poe    c3123640   4.943   3.582   1.012  0.0628 -0.0935  0.2507
 4851poe    c3123641   1.215   5.287   7.400 -0.1764  0.7995 -0.0352
 4851poe     o223642   1.154   5.180   7.468  1.3135  0.3183  0.5975
 4851poe    c2323643   1.123   5.219   7.600  0.1629  0.3669  0.3282
 4851poe    c2323644   1.095   5.086   7.673  0.0007  0.1718 -0.0856
 4851poe     o223645   0.973   5.042   7.618  0.1101 -0.1364 -0.0812
 4851poe    c2323646   0.943   4.917   7.677 -0.2268  0.3019  0.6838
 4851poe    c2323647   0.832   4.850   7.595  0.5629 -0.4112  0.1824
 4851poe     o223648   0.858   4.846   7.456  0.1713 -0.5695  0.1102
 4851poe    c2323649   0.732   4.822   7.399 -0.0057  0.2373  0.1433
 4851poe    c2323650   0.751   4.838   7.247  0.6164 -0.3135  0.1562
 4851poe     o223651   0.781   4.971   7.210  0.1213 -0.2163  0.0968
 4851poe    c3123652   0.863   4.968   7.095 -0.0716 -0.1827 -0.0429
 4852poe    c3123653   6.732   4.889   4.644  0.4637  0.2938  0.3372
 4852poe     o223654   6.827   4.811   4.713  0.7345  0.0019 -0.3585
 4852poe    c2323655   6.789   4.676   4.717  0.5029  0.0764  0.0528
 4852poe    c2323656   6.842   4.620   4.850  0.5109 -0.0600 -0.0075
 4852poe     o223657   6.798   4.686   4.966 -0.2458  0.1259 -0.3948
 4852poe    c2323658   6.675   4.634   5.012 -0.1853  0.1685 -0.1811
 4852poe    c2323659   6.636   4.674   5.155 -0.6016  0.1779 -0.2959
 4852poe     o223660   6.580   4.803   5.172  0.2484  0.5300 -0.0944
 4852poe    c2323661   6.550   4.820   5.308  0.0001  0.3156 -0.1214
 4852poe    c2323662   6.489   4.955   5.350 -0.3854  0.0662  0.1279
 4852poe     o223663   6.582   5.060   5.337 -0.4166 -0.0205 -0.8473
 4852poe    c3123664   6.512   5.182   5.341 -0.1967  0.0751  0.2486
 4853poe    c3123665   1.623   1.734   3.862  0.9541  0.1880 -0.5922
 4853poe     o223666   1.565   1.860   3.838  0.1456 -0.0006  0.3246
 4853poe    c2323667   1.441   1.855   3.905 -0.3942  0.3736 -0.6192
 4853poe    c2323668   1.319   1.940   3.865 -0.7103 -0.0299 -0.5130
 4853poe     o223669   1.339   2.074   3.901 -0.3155 -0.1811 -0.1612
 4853poe    c2323670   1.220   2.151   3.895 -0.3298 -0.1469  0.4324
 4853poe    c2323671   1.198   2.276   3.981  0.3404  0.1339  0.2051
 4853poe     o223672   1.298   2.373   3.961 -0.0728  0.4750 -0.2577
 4853poe    c2323673   1.301   2.458   4.073  0.0169 -0.3401  0.3695
 4853poe    c2323674   1.360   2.593   4.028 -0.0688 -0.4199  0.0159
 4853poe     o223675   1.499   2.608   4.049 -0.1003  0.1657 -0.1605
 4853poe    c3123676   1.546   2.739   4.027  0.2007  0.0800 -0.0356
 4854poe    c3123677   1.683   4.279   4.682 -0.5849 -0.9944  0.2997
 4854poe     o223678   1.804   4.221   4.639  0.4596  0.4742  1.1886
 4854poe    c2323679   1.810   4.082   4.619 -0.3977  0.5611  0.2845
 4854poe    c2323680   1.805   3.993   4.745  0.4831  0.0715 -0.0222
 4854poe     o223681   1.703   4.031   4.834  0.3420 -0.4830  0.0559
 4854poe    c2323682   1.588   3.951   4.846  0.0487 -0.0538  0.1555
 4854poe    c2323683   1.605   3.798   4.861 -0.0284 -0.1169 -0.3772
 4854poe     o223684   1.667   3.782   4.987 -0.8058 -0.1918 -0.0001
 4854poe    c2323685   1.720   3.652   4.993  0.1743  0.1944 -0.0861
 4854poe    c2323686   1.797   3.631   5.125  0.4365 -0.0237 -0.2741
 4854poe     o223687   1.919   3.703   5.127  0.1485  0.4573  0.2217
 4854poe    c3123688   2.025   3.657   5.046 -0.3531 -0.1764 -0.0873
 4855poe    c3123689   4.028   5.818   5.762 -0.4525  0.2545 -0.1872
 4855poe     o223690   3.993   5.885   5.643 -0.3309 -0.0757 -0.4113
 4855poe    c2323691   4.112   5.948   5.601  0.1323 -0.8044 -0.2002
 4855poe    c2323692   4.129   5.975   5.450 -0.2966  0.1283 -0.0869
 4855poe     o223693   4.022   6.048   5.395 -0.6230 -0.5018 -0.2961
 4855poe    c2323694   4.041   6.106   5.267  0.2684 -0.4163 -0.1305
 4855poe    c2323695   3.904   6.111   5.197 -0.1199  0.1086  0.6454
 4855poe     o223696   3.857   5.983   5.160  0.2608  0.1584 -0.0164
 4855poe    c2323697   3.774   5.988   5.046  0.5453 -0.0555 -0.2358
 4855poe    c2323698   3.708   5.852   5.017 -0.0445  0.1422  0.1474
 4855poe     o223699   3.656   5.840   4.887 -0.2627 -0.0562  0.2523
 4855poe    c3123700   3.639   5.708   4.840 -0.0389 -0.1824  0.5211
 4856poe    c3123701   2.319   4.450   1.666 -0.3022 -0.0267 -0.4658
 4856poe     o223702   2.283   4.341   1.584  0.0936  0.1060 -0.8215
 4856poe    c2323703   2.173   4.273   1.641  0.2516  0.0417 -0.5959
 4856poe    c2323704   2.109   4.167   1.551 -0.0214  0.1528 -0.5322
 4856poe     o223705   2.202   4.065   1.525 -0.3714 -0.5217  0.7780
 4856poe    c2323706   2.162   3.998   1.407  0.0770  0.2471  0.1872
 4856poe    c2323707   2.258   3.918   1.317  0.1922  0.3005  0.2625
 4856poe     o223708   2.357   3.996   1.254 -0.4812  0.9601  0.0070
 4856poe    c2323709   2.471   4.028   1.331 -0.1695 -0.0079 -0.0344
 4856poe    c2323710   2.588   4.075   1.243 -0.3918  0.2430 -0.1966
 4856poe     o223711   2.653   3.976   1.168 -0.1399 -0.0104  0.3517
 4856poe    c3123712   2.597   3.963   1.039  0.2464  0.6443  0.1129
 4857poe    c3123713   2.906   6.619   2.139 -0.2012 -0.1487 -0.1105
 4857poe     o223714   2.846   6.740   2.183 -0.1417 -0.3396  0.5123
 4857poe    c2323715   2.939   6.842   2.208 -0.3541  0.1153 -0.4826
 4857poe    c2323716   2.863   6.976   2.217  0.1016  0.3309  0.2730
 4857poe     o223717   2.935   7.092   2.254  0.3164  0.2129  0.2291
 4857poe    c2323718   2.853   7.203   2.285 -0.3152 -0.2780  0.3530
 4857poe    c2323719   2.928   7.304   2.374  0.4098  0.0429 -0.6009
 4857poe     o223720   2.983   7.254   2.494 -0.4784  0.0911 -0.1651
 4857poe    c2323721   3.033   7.365   2.566 -0.4039 -0.4247  0.5883
 4857poe    c2323722   3.121   7.300   2.674  0.4782  0.0020  0.1413
 4857poe     o223723   3.047   7.195   2.733  0.1521  0.3143  0.3001
 4857poe    c3123724   3.031   7.225   2.870 -0.3259 -0.0435  0.3250
 4858poe    c3123725   0.293   1.994   5.577  0.1552 -0.2374 -0.6636
 4858poe     o223726   0.163   1.972   5.627  0.3107 -0.2788 -0.2749
 4858poe    c2323727   0.161   1.949   5.766  0.3488 -0.7977 -0.3579
 4858poe    c2323728   0.023   1.889   5.796 -0.0908  0.5498  0.3849
 4858poe     o223729  -0.073   1.965   5.726  0.1151  0.0589 -0.4307
 4858poe    c2323730  -0.208   1.950   5.763  0.0482  0.4815 -0.5024
 4858poe    c2323731  -0.268   1.810   5.742  0.6466  0.1478 -0.0295
 4858poe     o223732  -0.277   1.768   5.608 -0.6096  0.7479 -0.1542
 4858poe    c2323733  -0.324   1.638   5.583  0.3638  0.3666 -0.0502
 4858poe    c2323734  -0.280   1.578   5.448 -0.3259  0.6105 -0.3891
 4858poe     o223735  -0.348   1.455   5.434 -0.4210  0.5932  0.2146
 4858poe    c3123736  -0.349   1.420   5.297  0.0222  0.8375  0.1462
 4859poe    c3123737   4.582   2.101   1.476  0.3034 -0.1708  0.1549
 4859poe     o223738   4.471   2.013   1.477 -0.1083  0.3415 -0.1009
 4859poe    c2323739   4.358   2.075   1.533 -0.2861 -0.3038  0.2554
 4859poe    c2323740   4.238   1.977   1.540 -0.6823  0.1905  0.4620
 4859poe     o223741   4.172   1.948   1.419 -0.0251 -0.1849  0.1885
 4859poe    c2323742   4.230   1.834   1.358  0.2241  0.0178  0.0435
 4859poe    c2323743   4.306   1.851   1.226  0.2914 -0.3291  0.0359
 4859poe     o223744   4.227   1.906   1.122 -0.4085 -0.4280  0.5077
 4859poe    c2323745   4.171   1.816   1.030 -0.0810  0.0611 -0.1823
 4859poe    c2323746   4.239   1.699   0.956  0.6255  0.5232 -0.2698
 4859poe     o223747   4.333   1.752   0.865 -0.0280  0.3105 -1.0866
 4859poe    c3123748   4.378   1.641   0.789 -0.0989 -0.3194 -0.2249
 4860poe    c3123749   4.738   1.491   6.760 -0.4959  0.0196  0.2104
 4860poe     o223750   4.783   1.618   6.719  0.0255 -0.2256  0.0135
 4860poe    c2323751   4.875   1.610   6.613  0.1466  0.0395  0.0976
 4860poe    c2323752   4.900   1.750   6.553  0.7952 -0.1662 -0.1206
 4860poe     o223753   4.946   1.856   6.634 -0.5421  0.2717  0.0913
 4860poe    c2323754   5.071   1.859   6.699 -0.4796 -0.1720 -0.0067
 4860poe    c2323755   5.088   1.789   6.835  0.7118  0.4232  0.1616
 4860poe     o223756   4.993   1.850   6.918  0.1842 -0.1158 -0.0407
 4860poe    c2323757   4.987   1.776   7.038  0.2472  0.1398  0.1213
 4860poe    c2323758   4.925   1.851   7.157 -0.1731 -0.1168  0.0658
 4860poe     o223759   4.790   1.885   7.131 -0.1750  0.0428  0.2810
 4860poe    c3123760   4.764   2.024   7.132  0.3614  0.1684 -0.9716
 4861lim     li23761   0.460   2.861   4.389  0.0083  0.1474  0.2723
 4862lim     li23762   5.357   4.630   2.048  1.0942 -0.2900 -0.5145
 4863lim     li23763   6.979   2.985   7.097  0.3838 -0.4712 -0.3807
 4864lim     li23764   4.601   7.170   7.094  0.0535  0.5602  0.0726
 4865lim     li23765   1.482   1.834   7.405 -0.2557 -0.4638 -0.0297
 4866lim     li23766   3.940   6.583   0.056 -0.5133  0.1735 -0.2562
 4867lim     li23767   0.417   5.959   2.551 -0.9066  0.3466  0.8510
 4868lim     li23768   3.913   2.943   6.836 -1.7482  0.5149  0.7889
 4869lim     li23769   6.170   4.515   0.391 -0.1498  0.7303  0.0102
 4870lim     li23770   4.283   6.233   4.778 -0.9870 -0.7957 -0.7912
 4871lim     li23771   4.240   4.505   4.170  0.5134 -0.0246 -0.0732
 4872lim     li23772   2.035   4.157   1.008 -0.2611  0.1784  0.1071
 4873lim     li23773   6.382   4.468   0.959 -1.1330  1.0527 -0.5576
 4874lim     li23774   1.514   1.735   0.351 -1.5937  0.8906 -0.3245
 4875lim     li23775   2.554   2.232   0.194  0.1315  0.3458  0.9320
 4876lim     li23776   7.164   7.467   4.760  0.5893  1.1710 -0.7440
 4877lim     li23777   1.749   2.744   5.315 -0.5965 -0.8842 -0.6967
 4878lim     li23778   2.030   2.932   4.853 -0.0091  1.2160  0.3456
 4879lim     li23779   2.322   4.188   4.154  0.4257 -0.2022 -0.3717
 4880lim     li23780   3.532   3.899   3.847  0.0546 -0.3630 -1.3791
 4881lim     li23781   2.953   3.798   1.091  0.3180  1.2592 -0.1515
 4882lim     li23782   7.442   3.021   1.812  0.7585  1.3543 -0.7084
 4883lim     li23783   2.449   0.521   5.623 -0.5370  0.5108 -0.1618
 4884lim     li23784   4.810   5.808   1.401 -1.2759  0.4011  0.4765
 4885lim     li23785   1.698   6.567   3.401  1.3385 -1.1028  0.3410
 4886lim     li23786   0.375   1.630   5.194 -0.4664 -0.1803  0.6744
 4887lim     li23787   1.747   5.453   0.435 -0.0987  0.5902  0.3114
 4888lim     li23788   3.429   7.210   3.145  0.8916 -0.0667 -0.2657
 4889lim     li23789   1.549   5.976   2.564 -0.4909 -0.1767 -0.0187
 4890lim     li23790   2.538   5.225   3.644 -0.4319  1.0682 -1.2747
 4891lim     li23791   5.814   4.230   5.421 -0.0751 -0.1261  1.1996
 4892lim     li23792   2.506   1.401   6.445 -0.2543 -0.1191 -0.5134
 4893lim     li23793   0.433   4.541   4.950 -0.1580 -0.2731  0.5714
 4894lim     li23794   4.356   3.681   5.833 -0.7733 -0.3496 -0.3267
 4895lim     li23795   5.195   4.497   3.239 -0.8826 -0.3227  0.0742
 4896lim     li23796   6.225   5.801   6.923 -1.1700 -0.8260 -0.5085
 4897lim     li23797   2.511   3.863   6.829  0.2329 -0.5690  0.6860
 4898lim     li23798   3.580   4.747   1.150  1.0240 -0.3182 -0.6484
 4899lim     li23799   3.278   2.342   2.928 -0.2424 -0.3418  0.2046
 4900lim     li23800   6.119   2.140   4.120  0.6262  0.2907  0.3245
 4901lim     li23801   1.315   5.179   1.691 -0.1767 -0.9661 -0.0644
 4902lim     li23802   1.710   4.734   2.839  0.6026 -0.5662 -0.6755
 4903lim     li23803   7.024   7.300   4.260 -0.2602  0.3241 -0.6103
 4904lim     li23804   2.793   3.148   0.047 -0.6999 -0.2149  0.8401
 4905lim     li23805   0.009   3.594   7.080  0.0380  1.2488  0.4819
 4906lim     li23806   3.831   5.605   0.568 -1.1318  0.4807  0.4273
 4907lim     li23807   6.767   5.396   2.166  0.4024  0.3365 -0.5554
 4908lim     li23808   3.673   1.004   1.212  0.4417 -0.9557  0.6392
 4909lim     li23809   4.632   2.687   2.318 -0.1928 -0.0351 -0.9522
 4910lim     li23810   0.479   1.365   6.980 -0.2701  0.5063  0.9781
 4911lim     li23811   5.782   7.106   3.875  1.8829 -1.6760  0.2293
 4912lim     li23812   7.340   3.987   4.144  0.1443  0.1102 -0.5354
 4913lim     li23813   6.726   3.821   4.121  0.5688 -0.4542 -0.4578
 4914lim     li23814   3.547   5.588   1.748 -0.3398  0.5047  0.2365
 4915lim     li23815   2.126   1.161   1.824 -0.0435  0.5580 -0.0262
 4916lim     li23816   3.057   3.104   3.488  0.6100 -0.9054 -0.3750
 4917lim     li23817   5.092   0.867   7.093 -0.9392 -0.2013 -0.3577
 4918lim     li23818   7.546   0.802   1.032 -0.6240 -0.4624  0.4846
 4919lim     li23819   4.454   0.706   6.772  0.1432  0.7167 -0.0318
 4920lim     li23820   5.858   0.990   6.359  0.1903 -1.1518 -0.6873
 4921lim     li23821   4.387   2.915   0.332  0.4414  0.8981 -0.2551
 4922lim     li23822   4.106   3.593   1.161  0.3313 -1.0409 -0.0183
 4923lim     li23823   0.893   4.616   3.808 -1.3381 -0.7950  0.0661
 4924lim     li23824   0.817   3.571   0.842  0.9825  0.3411  1.0003
 4925lim     li23825   1.800   0.181   7.178  0.5392 -0.1221 -0.0344
 4926lim     li23826   2.359   6.770   0.363  0.7359 -0.5635 -0.4031
 4927lim     li23827   5.682   6.540   4.621  0.2362  1.6377  0.8329
 4928lim     li23828   3.391   1.617   3.696 -0.5895  0.4687  0.0244
 4929lim     li23829   6.927   6.845   0.025 -0.2146 -0.5287  0.3443
 4930lim     li23830   5.727   2.119   2.906 -0.3445 -0.5574 -0.7810
 4931lim     li23831   0.667   3.152   4.907  0.9123 -0.6505  0.4408
 4932lim     li23832   6.236   0.522   2.816  0.1510  0.1052 -0.5193
 4933lim     li23833   3.551   0.352   0.611  0.4734  0.9516 -0.7346
 4934lim     li23834   0.151   4.559   2.346 -0.7086 -0.7956  1.1496
 4935lim     li23835   1.337   4.032   1.993 -0.2955  0.6105 -0.0227
 4936lim     li23836   2.200   6.161   7.313  0.4574 -1.5446  0.4279
 4937lim     li23837   0.451   4.550   3.996  0.6589  0.3825 -0.4135
 4938lim     li23838   6.157   1.768   5.626 -0.4686 -0.3499  0.5690
 4939lim     li23839   5.662   5.163   6.085 -0.8747  0.1540 -0.7344
 4940lim     li23840   1.699   4.098   5.280 -0.6745  0.2300  0.9318
 4941lim     li23841   6.330   2.544   0.619 -0.2329  0.2173 -0.5885
 4942lim     li23842   0.602   0.182   2.632 -0.0845  0.4500 -0.0270
 4943lim     li23843   4.987   2.602   4.825  0.1342 -0.9518  0.7489
 4944lim     li23844   5.677   5.200   0.915 -0.1730 -0.6997  0.0284
 4945lim     li23845   1.281   7.461   4.553 -0.8228 -0.5214  0.4560
 4946lim     li23846   6.043   3.721   3.904  0.7367  0.6200  0.3019
 4947lim     li23847   1.070   3.783   2.557  0.0938 -0.3917 -0.9580
 4948lim     li23848   4.946   2.901   0.555  0.3765  0.1265 -0.9894
 4949lim     li23849   3.017   3.360   1.656 -0.2632  0.0762 -0.3707
 4950lim     li23850   0.670   0.139   4.233  0.7875 -0.0443 -0.3723
 4951lim     li23851   0.284   1.833   0.671 -1.0750  0.3251 -0.5572
 4952lim     li23852   4.758   2.287   3.103 -0.8552  0.7325  0.5624
 4953lim     li23853   4.843   5.955   6.894  1.7828 -0.9578 -1.0647
 4954lim     li23854   0.348   7.319   2.510  0.0380  0.0742  0.0902
 4955lim     li23855   2.445   2.028   5.044  0.5559 -0.3074 -0.9621
 4956lim     li23856   1.994   6.539   7.076 -0.6446 -0.9089  0.5244
 4957lim     li23857   2.896   5.966   3.144 -1.6464  0.6921 -0.7498
 4958lim     li23858   6.943   6.390   6.411 -1.1993  0.4245  0.1449
 4959lim     li23859   2.214   3.445   3.637  0.1875 -0.4603  0.4151
 4960lim     li23860   6.418   0.581   6.143 -0.6665 -0.2583  0.0142
 4961lim     li23861   0.555   2.031   2.540  1.1530 -0.6837  0.7504
 4962lim     li23862   0.522   6.908   6.229  0.2325  0.5109 -0.2855
 4963lim     li23863   1.544   3.199   0.768  0.1324  0.1858  0.5231
 4964lim     li23864   0.088   6.470   4.506 -0.4685  0.7693 -1.8944
 4965lim     li23865   0.773   5.309   2.125 -0.3461 -0.3409 -0.7605
 4966lim     li23866   2.128   5.837   2.051 -2.0035 -0.0936  0.0657
 4967lim     li23867   5.100   1.716   3.635  0.4205 -0.2658 -0.2721
 4968lim     li23868   0.807   6.077   7.084 -0.1435  0.4223  0.6191
 4969lim     li23869   4.341   3.753   1.864 -0.3874  0.7975 -0.1503
 4970lim     li23870   4.159   0.492   7.484 -0.7582 -0.8608 -0.9635
 4971lim     li23871   3.260   6.542   4.604  0.4017  0.3101 -0.1835
 4972lim     li23872   1.743   3.026   7.131 -0.8773  0.5418  0.4772
 4973lim     li23873   3.093   7.098   4.881 -1.1592 -0.7599  0.5866
 4974lim     li23874   7.478   1.301   6.900  0.3395 -0.3576 -0.1924
 4975lim     li23875   3.018   6.512   6.524  0.7871  0.1028 -0.2026
 4976lim     li23876   3.354   6.977   0.264 -0.3756  0.9211  0.4373
 4977lim     li23877   1.944   2.773   3.744  0.8339  0.4197 -0.2988
 4978lim     li23878   5.604   5.729   1.861 -0.1189 -0.4434  0.4733
 4979lim     li23879   6.836   6.469   1.523  0.3954 -0.3139 -0.9189
 4980lim     li23880   3.980   6.904   5.397 -0.3851 -0.6642 -0.3772
 4981lim     li23881   3.873   4.833   7.338 -0.8426 -0.4715  0.2701
 4982lim     li23882   6.122   3.760   0.172  0.1197  0.8122 -0.4779
 4983lim     li23883   2.514   4.288   2.558  0.7109 -0.6296  0.3467
 4984lim     li23884   2.848   4.830   2.226  0.0534  0.6416 -0.5075
 4985lim     li23885   2.952   0.374   6.420  0.2601 -0.5974  0.7106
 4986lim     li23886   5.507   0.559   1.057  0.3155  0.2183 -0.5913
 4987lim     li23887   6.495   1.814   6.751 -0.3727 -0.0933 -0.2655
 4988lim     li23888   4.852   3.126   2.065 -0.5327 -0.0266 -0.2652
 4989lim     li23889   6.049   1.616   4.490 -0.3341  1.3527  0.8176
 4990lim     li23890   1.103   2.203   2.156 -0.2448  1.0647  0.3398
 4991lim     li23891   5.497   0.751   0.450  0.2868 -0.1535 -0.1589
 4992lim     li23892   2.270   6.784   2.299 -0.1909 -0.6325  0.5857
 4993lim     li23893   0.312   2.699   6.466  0.0954  0.1454  0.6104
 4994lim     li23894   7.171   4.304   1.801  0.5456  0.2549 -0.0803
 4995lim     li23895   5.708   3.223   5.426  0.0233 -0.0367 -0.4497
 4996lim     li23896   1.921   1.838   6.479  0.7865 -0.2532  0.0797
 4997lim     li23897   5.577   3.962   6.019  0.1940  0.7486  0.9778
 4998lim     li23898   6.870   0.659   7.396 -0.1016  0.1402 -2.2155
 4999lim     li23899   1.871   4.869   3.465 -0.1913  0.4648  0.8061
 5000lim     li23900   0.913   7.430   7.356  0.2072  0.1066  0.7724
 5001lim     li23901   0.220   3.888   6.299 -0.9927  0.4836  0.6982
 5002lim     li23902   4.577   2.049   6.590  1.1768 -0.5317  1.0629
 5003lim     li23903   6.381   2.887   5.083 -0.3834  0.0883 -0.8578
 5004lim     li23904   3.438   4.986   5.328  0.0124  1.2164  0.7711
 5005lim     li23905   1.656   0.760   3.485  0.4655  0.5018 -0.8067
 5006lim     li23906   0.956   5.508   7.254  0.0939 -0.5502 -0.8896
 5007lim     li23907   3.931   1.754   6.874 -0.6109  0.1208 -0.4303
 5008lim     li23908   5.404   5.821   5.454 -0.2285 -0.0506 -0.5615
 5009lim     li23909   6.631   6.261   0.364 -0.0431  0.7495 -0.7848
 5010lim     li23910   2.123   7.590   0.642 -0.2801  0.8334 -0.3798
 5011lim     li23911   0.613   5.923   4.713 -0.1105 -0.2918 -0.9852
 5012lim     li23912   3.425   2.036   0.759  0.1048  0.4390 -0.6262
 5013lim     li23913   7.496   7.426   0.684  0.3580  0.4367 -0.1283
 5014lim     li23914   6.056   5.415   2.888 -0.2347 -0.4487 -1.0227
 5015lim     li23915   2.893   4.130   3.619  0.3509 -0.1305  0.2109
 5016lim     li23916   3.516   3.966   6.297  0.6764 -0.1058  0.6711
 5017lim     li23917   3.640   0.383   4.048 -0.4932  0.1197  0.0545
 5018lim     li23918   2.385   3.669   1.965  0.1029  0.1298 -0.8900
 5019lim     li23919   1.116   4.782   1.929 -0.4161 -1.2353  1.3738
 5020lim     li23920   2.824   1.477   4.487  0.6100  0.9851  0.9983
 5021lim     li23921   1.876   7.214   3.116 -0.2675 -0.2502 -0.2473
 5022lim     li23922   1.623   6.207   5.387  1.3818  0.0271  0.6713
 5023lim     li23923   3.526   3.220   4.690 -0.1813 -0.1836  0.7947
 5024lim     li23924   4.694   1.099   2.095 -1.3926  0.6859  0.0508
 5025lim     li23925   0.472   7.136   5.028  0.0506 -0.5928  1.5054
 5026lim     li23926   2.369   2.915   1.157 -1.2109 -0.5417 -1.4703
 5027lim     li23927   0.858   3.584   6.991  0.4659 -0.4235 -0.2865
 5028lim     li23928   6.108   7.028   4.659 -0.1351 -0.0920  0.2556
 5029lim     li23929   6.320   1.052   0.276 -0.4120 -0.1194  0.1067
 5030lim     li23930   7.422   4.596   7.517  1.1213 -0.7237 -0.4614
 5031lim     li23931   5.503   6.072   6.274  0.4222  0.3127 -0.5991
 5032lim     li23932   7.266   7.089   0.443 -0.0987  0.6035 -0.2362
 5033lim     li23933   7.166   6.431   2.497  0.7704 -0.0359  0.0596
 5034lim     li23934   4.484   0.217   0.842  0.3176  0.5446 -0.4611
 5035lim     li23935   3.923   5.526   6.217  0.5255 -0.5714  0.1962
 5036lim     li23936   3.756   5.410   3.155  0.3439 -0.0828  0.1252
 5037lim     li23937   2.478   2.116   6.862 -0.0448  0.0440  0.3499
 5038lim     li23938   1.262   4.379   3.026 -0.2037  0.5296  0.5152
 5039lim     li23939   3.951   6.488   2.204 -0.3999  0.2993  0.1110
 5040lim     li23940   6.934   5.105   0.460  1.0115  1.4422 -0.1011
 5041lim     li23941   2.404   0.759   7.460  0.5906  0.5175 -0.3084
 5042lim     li23942   1.484   4.427   5.412 -0.4436  0.4146  1.0331
 5043lim     li23943   7.202   6.649   3.171  0.6718  0.1399 -0.2781
 5044lim     li23944   0.674   1.773   3.835  1.3544  0.6272 -0.7306
 5045lim     li23945   1.927   3.547   0.412 -1.2235 -1.4410  0.6163
 5046lim     li23946   0.366   5.420   7.404 -0.3102 -0.0973  0.1910
 5047lim     li23947   2.961   7.088   2.620  0.5033 -1.0392  0.4821
 5048lim     li23948   4.622   5.643   4.807  0.6197  0.3401  0.8500
 5049lim     li23949   1.078   5.073   5.227 -0.0891  0.0298 -0.1014
 5050lim     li23950   6.135   0.786   7.234 -0.6925  0.5939  0.9989
 5051lim     li23951   1.465   4.877   7.235 -0.6441 -0.8050 -1.1303
 5052lim     li23952   2.232   0.964   2.358  1.0339 -0.6030  0.1863
 5053lim     li23953   6.188   2.200   3.461 -0.3692 -0.5498  0.5842
 5054lim     li23954   3.647   1.103   2.563  1.0031  0.0596  0.3763
 5055lim     li23955   6.461   0.506   3.438  0.1041 -0.1902  0.2555
 5056lim     li23956   0.027   0.888   6.453 -0.4510  0.1109 -0.1738
 5057lim     li23957   0.111   5.427   3.295 -0.1074 -0.5535 -0.9984
 5058lim     li23958   3.688   3.070   2.208  0.0285 -0.8258  0.6777
 5059lim     li23959   3.024   5.927   1.684  1.1579 -0.4272  0.9944
 5060lim     li23960   4.288   4.360   2.606  1.0683 -0.9650 -0.1959
 5061lim     li23961   0.957   2.764   5.913  1.0137 -0.3089 -0.4903
 5062lim     li23962   0.101   7.510   6.975  0.8407  1.0272  0.3910
 5063lim     li23963   6.184   4.945   6.098 -0.8630 -0.9484 -0.5733
 5064lim     li23964   5.249   2.599   7.475 -1.1481 -0.4881 -1.0072
 5065lim     li23965   7.201   3.397   0.137 -0.8052 -0.2193  0.3667
 5066lim     li23966   2.428   7.550   5.188  1.3466  0.2548 -1.2362
 5067lim     li23967   2.959   2.552   5.419  0.2363  0.1719 -0.0786
 5068lim     li23968   6.066   6.845   7.551  0.3635  0.5814  0.0214
 5069lim     li23969   3.858   3.451   6.397  0.5304 -0.7108  0.3021
 5070lim     li23970   2.899   2.141   1.598 -0.5924  0.1284 -0.7545
 5071lim     li23971   4.750   0.266   4.111  0.6733 -1.8769  0.7408
 5072lim     li23972   4.669   0.889   5.089  1.1280 -1.0351 -0.7571
 5073lim     li23973   4.108   0.121   2.837 -0.2516  0.0745 -0.3523
 5074lim     li23974   6.188   5.017   2.232  0.8478 -1.0088  0.6822
 5075lim     li23975   7.214   0.803   5.137 -0.2670  0.4711  0.3248
 5076lim     li23976   5.373   0.073   0.685  0.3209 -0.1778  0.0749
 5077lim     li23977   3.555   5.332   7.492 -0.2173 -0.3169 -0.7573
 5078lim     li23978   3.190   5.418   6.514  0.3678 -0.4942 -0.3093
 5079lim     li23979   5.215   3.957   1.781 -0.3949  0.5843  1.5105
 5080lim     li23980   6.670   7.319   4.981  0.1138 -1.0115 -0.6220
 5081lim     li23981   3.866   6.414   1.068  0.6362  1.1797 -1.4798
 5082lim     li23982   5.773   6.606   6.267  0.2886  1.0173  0.7658
 5083lim     li23983   3.486   1.996   6.115  0.4463 -0.4752  0.9157
 5084lim     li23984   4.194   3.074   7.418 -0.3450  0.1584  0.4778
 5085lim     li23985   1.628   5.809   4.811 -0.5896  1.3035 -0.1852
 5086lim     li23986   0.019   2.473   3.015  0.0241 -0.6010  0.4482
 5087lim     li23987   7.582   6.270   6.624 -0.6226  1.7859  0.7521
 5088lim     li23988   6.506   0.607   1.124  0.2321  0.0023 -0.1158
 5089lim     li23989   1.602   1.188   5.695  1.0301  0.3287  0.3338
 5090lim     li23990   4.445   2.454   4.285 -0.2329 -0.4836 -0.4525
 5091lim     li23991   7.176   3.811   0.779 -0.3463  0.5723 -0.4296
 5092lim     li23992   1.986   5.227   2.288  0.7038  0.5947 -0.8101
 5093lim     li23993   2.150   2.989   6.236  0.6651 -0.1663 -0.2997
 5094lim     li23994   1.333   1.118   7.048 -0.8649 -0.5756  0.3450
 5095lim     li23995   7.013   1.699   7.347 -0.2050 -0.1709  0.4637
 5096lim     li23996   2.835   5.074   2.938  0.0688 -0.0639 -0.0834
 5097lim     li23997   1.261   6.734   3.093  0.2791  0.0052  0.8033
 5098lim     li23998   4.734   5.098   0.440  0.0296  1.3512 -0.0026
 5099lim     li23999   5.009   0.880   3.047 -0.3443 -0.6304 -0.6637
 5100lim     li24000   7.487   6.173   1.017  0.8875 -0.6842 -0.2397
 5101lim     li24001   1.507   0.861   1.066 -0.0411 -0.6835 -0.3630
 5102lim     li24002   6.559   3.803   2.334 -0.9556  0.1780 -0.5599
 5103lim     li24003   3.759   0.350   4.793  0.7155 -0.2732  0.7614
 5104lim     li24004   7.409   5.768   0.413  0.5058  0.4925 -1.0260
 5105lim     li24005   6.534   5.388   7.327 -0.7109  0.1054 -0.8330
 5106lim     li24006   2.141   0.699   0.435 -0.8947 -0.8839  0.6735
 5107lim     li24007   2.041   7.353   6.466 -0.0168  0.4630  0.3477
 5108lim     li24008   6.407   5.669   0.930  1.0636  1.5491  0.0492
 5109lim     li24009   7.028   5.639   4.499  0.4284 -0.6882  0.5096
 5110lim     li24010   6.836   7.505   6.584 -0.2290  0.8742 -0.5164
 5111lim     li24011   0.603   0.356   3.446 -0.0914  0.3031  0.8417
 5112lim     li24012   4.422   4.412   3.518 -1.5052 -1.1762 -0.2470
 5113lim     li24013   2.624   3.514   2.667  0.3726  0.0136  1.0350
 5114lim     li24014   1.385   6.171   0.400 -0.2205 -0.4467  0.1509
 5115lim     li24015   4.089   6.159   3.239 -0.0148 -0.6004 -0.3373
 5116lim     li24016   2.081   5.386   1.333  1.3253  0.0766 -0.4714
 5117lim     li24017   5.066   5.167   6.794  0.4002  0.6761 -0.5415
 5118lim     li24018   5.551   0.148   2.451  0.9328  0.3618  0.7381
 5119lim     li24019   0.219   5.150   5.320  0.2134 -0.7473  0.1032
 5120lim     li24020   4.671   5.056   3.653  0.1728  0.2034  0.4908
 5121lim     li24021   2.530   1.565   0.843  0.2873  0.2056  0.4819
 5122lim     li24022   5.389   3.092   3.815  0.7274  0.8177  0.2940
 5123lim     li24023   5.462   7.075   3.294  0.2350 -0.7268 -0.2639
 5124lim     li24024   5.043   2.647   6.355  0.6879  0.4506 -0.4742
 5125lim     li24025   2.511   4.689   0.654 -1.6641  0.0313  0.1737
 5126lim     li24026   6.397   5.958   3.918  0.3949 -0.2608  0.0836
 5127lim     li24027   5.428   2.978   1.387 -0.6153  0.4638  0.1648
 5128lim     li24028   5.026   0.572   5.945  0.1477  0.6585  0.4023
 5129lim     li24029   4.463   2.145   0.825 -0.3178 -0.1040  0.3798
 5130lim     li24030   4.512   4.467   6.615  1.4907 -0.0640  0.1521
 5131lim     li24031   4.075   3.621   4.109 -0.9489  0.8761  0.4850
 5132lim     li24032   2.148   0.719   4.787  0.7358  0.0538 -1.0642
 5133lim     li24033   4.828   4.811   4.543  0.6731  0.2992 -1.4140
 5134lim     li24034   4.490   6.927   4.225  1.3068 -0.6102  0.6478
 5135lim     li24035   5.700   7.031   1.796  0.2241  0.0818 -0.3711
 5136lim     li24036   0.392   6.463   2.947 -0.5440  0.4298  0.0672
 5137lim     li24037   5.661   2.573   2.372  0.9979  0.4760 -0.1435
 5138lim     li24038   2.713   1.862   5.496 -0.0753 -0.4644 -0.0116
 5139lim     li24039   5.009   5.824   3.983  0.7346 -1.0274  0.6083
 5140lim     li24040   6.872   5.105   4.958  1.1078  1.0388 -0.4210
 5141lim     li24041   1.722   0.665   6.678  0.0162 -0.1695 -0.1413
 5142lim     li24042   7.375   5.185   6.612  0.7351  0.9016  0.1369
 5143lim     li24043   5.790   0.628   3.568  0.3171 -0.1675  0.0021
 5144lim     li24044   2.860   5.539   5.455  1.6344 -0.2500  0.6657
 5145lim     li24045   7.096   0.081   2.389 -0.4478  0.4684 -0.3029
 5146lim     li24046   2.311   4.601   5.930 -0.6736  0.8193  0.1572
 5147lim     li24047   0.701   4.232   1.047 -0.4884 -0.4264  0.7286
 5148lim     li24048   5.056   5.521   1.123  0.0154  0.2740 -0.1721
 5149lim     li24049   3.323   2.754   0.595 -0.1613 -0.3423  0.0757
 5150lim     li24050   3.854   5.830   5.556  1.5294 -0.5111 -0.9109
 5151lim     li24051   7.287   1.787   3.948  0.5692  1.1853  0.0514
 5152lim     li24052   6.627   2.557   0.093  0.7450 -0.2712  0.9942
 5153lim     li24053   4.005   3.408   2.899  0.6903  0.6182  0.6941
 5154lim     li24054   5.671   4.988   4.003  0.4999  0.2105  0.5276
 5155lim     li24055   5.230   7.465   5.322  0.8347 -1.5111  0.3899
 5156lim     li24056   0.749   3.397   5.693 -0.5018 -0.4338 -0.2415
 5157lim     li24057   5.143   3.636   2.783 -1.1898 -0.3465 -0.4771
 5158lim     li24058   3.655   7.437   2.032  0.1081 -0.5086  0.0127
 5159lim     li24059   3.663   2.417   4.135  0.5775  0.2828  0.6509
 5160lim     li24060   4.100   2.874   5.357  0.9007 -0.0714 -0.2689
 5161lim     li24061   0.426   2.188   6.596  0.2123  0.9983  0.0172
 5162lim     li24062   2.606   2.582   2.050  0.1134  0.5909  0.3263
 5163lim     li24063   7.056   1.998   4.795  0.5928 -0.2603  0.3377
 5164lim     li24064   5.449   7.068   4.963 -1.8064 -0.3535  0.6205
 5165lim     li24065   6.440   1.528   1.202 -0.8292  0.4081  0.3688
 5166lim     li24066   0.587   1.011   3.919 -0.1305 -0.8737  0.1225
 5167lim     li24067   3.147   2.283   4.483 -0.3285 -0.7039  0.2476
 5168lim     li24068   0.907   5.744   4.033 -0.1332  0.5189 -0.7236
 5169lim     li24069   0.892   6.569   1.120 -0.2643  0.1572  0.0911
 5170lim     li24070   2.802   2.692   7.062  0.9366  0.2845  0.9269
 5171lim     li24071   7.010   0.187   3.428  0.9444 -0.3380 -0.5045
 5172lim     li24072   7.371   4.036   5.753  1.4161  0.1812  0.1588
 5173lim     li24073   2.216   6.175   4.391  0.8321  0.1956  0.0824
 5174lim     li24074   5.951   7.540   7.076 -0.4374 -0.5373  0.3669
 5175lim     li24075   0.175   6.687   1.651 -0.2152 -0.3581  0.2087
 5176lim     li24076   3.182   5.418   4.132 -0.1605  0.5101  0.2725
 5177lim     li24077   1.053   5.434   3.058 -0.6636 -0.2746 -0.2890
 5178lim     li24078   6.953   4.296   3.246  1.1254 -0.8848 -0.2869
 5179lim     li24079   5.927   4.876   4.969 -1.0295  0.7000 -0.2206
 5180lim     li24080   5.149   6.814   0.430  0.2791 -0.0255 -0.6321
 5181lim     li24081   1.964   2.152   2.949 -0.6516 -0.2841  0.7216
 5182lim     li24082   7.207   1.001   5.931  0.0609 -0.7873 -0.5591
 5183lim     li24083   0.075   4.054   2.547 -0.7436  0.4749 -0.1419
 5184lim     li24084   3.620   7.453   6.803  1.0023  0.4338 -0.0516
 5185lim     li24085   4.603   7.561   2.411  0.5019 -1.0535 -0.0220
 5186lim     li24086   1.737   0.135   3.420  0.4284 -0.1168 -1.3485
 5187lim     li24087   3.715   0.964   6.565 -1.3133 -0.1829 -0.1474
 5188lim     li24088   5.294   4.493   4.516  0.2546  1.1716 -0.2211
 5189lim     li24089   1.359   7.485   1.868 -0.0021 -0.6980 -0.6202
 5190lim     li24090   3.877   0.734   5.627 -0.2145  0.8983 -0.2624
 5191lim     li24091   1.176   6.506   6.291 -0.7446  0.1793  0.8168
 5192lim     li24092   0.658   6.290   2.027 -0.9051  0.9453  0.0160
 5193lim     li24093   0.206   1.176   0.280 -0.9177  0.2634 -0.3813
 5194lim     li24094   1.202   5.243   1.158  0.5458 -0.0282 -0.4953
 5195lim     li24095   2.230   6.409   3.736 -0.1862 -0.0407  0.0554
 5196lim     li24096   5.784   1.718   6.800 -0.2086  0.3434  0.0420
 5197lim     li24097   2.594   1.790   3.593  0.2468 -0.2881 -0.0602
 5198lim     li24098   4.792   1.557   4.201  1.2297 -0.3682  0.4105
 5199lim     li24099   3.094   0.476   3.224 -0.3086  1.0454 -0.6537
 5200lim     li24100   6.200   7.511   0.377  0.0997 -0.2589  0.0788
 5201lim     li24101   7.308   5.736   3.817  0.4305 -0.7783 -0.0856
 5202lim     li24102   4.346   6.128   6.069 -0.4263  1.0155 -0.0246
 5203lim     li24103   6.603   4.605   7.357 -0.0834 -0.8065 -0.8459
 5204lim     li24104   3.044   1.233   0.212  0.7066 -0.3215  0.9436
 5205lim     li24105   1.239   6.909   3.886  0.4024 -0.3169  0.5983
 5206lim     li24106   1.875   2.183   1.824  1.6673  1.6551  0.8146
 5207lim     li24107   5.451   2.870   6.924 -0.5641 -0.3632 -0.5517
 5208lim     li24108   1.384   0.037   5.448 -0.3607  0.7108  0.9082
 5209lim     li24109   5.607   3.249   6.302 -0.0402 -0.6359  0.3751
 5210lim     li24110   3.814   2.602   3.146 -0.6163 -0.2290 -0.6520
 5211lim     li24111   2.558   7.460   2.956  0.4124 -1.0726 -1.0030
 5212lim     li24112   2.114   6.651   5.916  0.0139 -1.2960  0.3894
 5213lim     li24113   2.809   4.645   6.180  0.9393  0.1802  0.6135
 5214lim     li24114   3.609   7.220   4.485 -0.8040 -0.2303 -0.4616
 5215lim     li24115   5.705   1.575   7.551 -0.0065  0.8788  0.5850
 5216lim     li24116   1.608   3.611   5.952  0.1753 -0.6339  0.0842
 5217lim     li24117   4.030   2.107   5.264  0.8742  0.8337  0.2064
 5218lim     li24118   1.622   1.210   3.728  0.5091  1.3127 -0.1351
 5219lim     li24119   4.817   0.100   4.632  0.1867  0.1910  1.1183
 5220lim     li24120   3.276   0.463   7.288 -0.1536 -0.0562  1.2068
 5221lim     li24121   4.250   4.438   0.441  0.7642  0.1230 -0.2507
 5222lim     li24122   2.537   4.118   7.405  0.6606  0.3287 -1.1315
 5223lim     li24123   2.359   0.578   2.841  0.0041  0.0583 -0.6346
 5224lim     li24124   1.561   2.562   1.859  0.1376  0.2387  0.1102
 5225lim     li24125   1.013   0.480   0.586 -0.0578  0.5179  0.1569
 5226lim     li24126   3.699   3.823   7.422 -0.6185 -0.3021 -0.1846
 5227lim     li24127   3.224   0.036   5.850  0.4150  0.0593 -0.0120
 5228lim     li24128   5.976   3.830   1.342 -0.3397  0.0158 -0.8971
 5229lim     li24129   6.457   0.589   5.648 -0.6039 -0.3632 -0.2212
 5230lim     li24130   6.464   0.663   1.975  1.2571  0.3836 -0.9428
 5231lim     li24131   5.493   2.364   5.055  0.2393  0.5419  0.2707
 5232lim     li24132   4.101   6.921   1.033 -0.1346 -0.4849  1.5780
 5233lim     li24133   4.141   4.403   5.912  0.7903  0.4923  0.6389
 5234lim     li24134   2.998   7.454   0.191  0.0979  0.7100  0.0267
 5235lim     li24135   0.889   7.481   5.994 -1.3386 -0.9426 -0.8081
 5236lim     li24136   4.509   6.826   3.645 -0.1015 -0.3920  0.4341
 5237lim     li24137   5.324   5.840   3.294 -0.6916 -0.1570  0.1057
 5238lim     li24138   1.848   2.065   3.883 -1.2986  0.0499 -0.7015
 5239lim     li24139   4.595   6.857   6.513  0.1500 -0.3136  0.2382
 5240lim     li24140   6.439   3.783   6.361  0.4060 -0.8498  0.7130
 5241lim     li24141   4.611   1.381   3.442 -1.1942  0.9967  0.9786
 5242lim     li24142   5.095   0.549   1.614 -0.7831  0.9257 -0.7343
 5243lim     li24143   2.242   0.059   4.639 -0.0731 -0.6628  0.1716
 5244lim     li24144   6.666   7.255   2.372 -0.0240 -0.3187  0.5316
 5245lim     li24145   0.512   0.173   6.389  0.3882 -1.0149  0.1005
 5246lim     li24146   6.448   2.349   6.689 -1.2450  0.3930  0.5350
 5247lim     li24147   0.970   4.018   7.129 -0.6628 -0.3629  0.0336
 5248lim     li24148   4.088   1.559   3.205  0.8645 -0.2253  0.0889
 5249lim     li24149   0.265   7.032   3.482 -1.3348 -0.1615  0.7333
 5250lim     li24150   7.390   4.759   0.804 -0.2241 -0.6663 -0.0911
 5251lim     li24151   2.233   4.797   5.266  0.8309 -1.3470  0.5192
 5252lim     li24152   0.174   0.961   5.268  0.5089 -0.9364  0.0817
 5253lim     li24153   0.148   0.320   4.758 -0.0583 -1.0937  0.5269
 5254lim     li24154   6.935   3.228   2.634  0.9993 -0.1832 -0.2683
 5255lim     li24155   4.599   1.774   0.083 -0.5539 -0.4532  0.9779
 5256lim     li24156   1.641   3.040   1.289  0.9201 -1.3697 -0.3567
 5257lim     li24157   1.225   6.472   7.248 -0.2241  0.5334 -0.2184
 5258lim     li24158   5.269   6.343   2.415  0.4679  0.1354 -0.7000
 5259lim     li24159   5.283   1.754   0.968  0.0635 -0.0667  0.0295
 5260lim     li24160   3.842   7.542   5.746  0.1591  0.0467 -0.8013
 5261lim     li24161   5.822   4.485   3.790  0.1720  0.3334  0.4922
 5262lim     li24162   2.907   1.010   6.331  0.2176 -1.0010  0.4128
 5263lim     li24163   5.032   4.006   1.127 -0.1894  0.5909 -0.4141
 5264lim     li24164   3.706   5.013   3.922 -0.8158  1.3125 -0.1227
 5265lim     li24165   0.591   4.282   7.386  0.0179  0.5562 -0.1097
 5266lim     li24166   1.170   7.526   0.357 -0.2121  0.7321 -0.3414
 5267lim     li24167   5.330   1.539   5.611 -0.3353 -0.4829  0.0587
 5268lim     li24168   6.129   4.214   2.354 -0.1608  0.6136  0.2804
 5269lim     li24169   5.437   4.139   0.075 -0.5930 -0.0062 -0.3978
 5270lim     li24170   2.335   6.275   3.061  0.4750  0.6225  1.4453
 5271lim     li24171   1.834   2.479   4.634  0.2350  0.0096 -0.6034
 5272lim     li24172   3.612   4.170   0.788 -0.0968  0.2752 -0.0776
 5273lim     li24173   2.713   6.068   6.499  0.1357 -0.6627 -0.1742
 5274lim     li24174   6.639   1.064   3.016 -0.0746  0.5616  0.5403
 5275lim     li24175   5.476   3.268   4.327  0.0922  0.0387  0.2217
 5276lim     li24176   4.941   3.337   7.015  0.4510  0.3541  1.2410
 5277lim     li24177   1.943   5.656   6.307 -0.3438 -0.1090  0.0314
 5278lim     li24178   6.492   3.953   5.234  0.6165  0.1511 -0.8527
 5279lim     li24179   3.036   0.614   4.578 -0.2735 -0.2792  0.6369
 5280lim     li24180   4.850   6.405   1.892 -0.2542  1.0588 -0.7876
 5281lim     li24181   5.442   1.129   4.402 -0.5505  0.7221 -0.0181
 5282lim     li24182   6.213   6.276   5.119 -0.1853 -0.6624  0.8630
 5283lim     li24183   2.789   3.212   4.622  0.2208  0.1613 -0.4968
 5284lim     li24184   1.661   4.926   6.534 -0.6521  0.3450  0.2520
 5285lim     li24185   2.545   7.077   1.558 -0.2188 -0.1153  0.8962
 5286lim     li24186   4.918   5.965   0.373 -2.0844 -0.4367  0.2267
 5287lim     li24187   1.321   3.929   3.878 -0.0186 -0.3557 -0.7106
 5288lim     li24188   5.632   4.353   6.833  0.8407 -1.5209 -0.2588
 5289lim     li24189   6.614   7.043   1.474  0.4771  0.1360 -0.6699
 5290lim     li24190   1.400   0.937   3.060 -1.4176  0.3200  0.8374
 5291lim     li24191   2.530   4.993   7.359  0.6881 -0.4910  0.9381
 5292lim     li24192   4.131   5.511   4.241  0.2635  0.1270  1.3109
 5293lim     li24193   4.023   1.063   2.067  0.0585 -0.5666  0.6548
 5294lim     li24194   7.382   3.099   1.090 -0.3450 -0.9299  1.2930
 5295lim     li24195   6.752   4.797   5.736  1.0329 -0.2608  0.3266
 5296lim     li24196   0.492   3.856   3.542 -0.5260 -0.2911  0.0019
 5297lim     li24197   4.840   5.344   5.871 -0.5535  0.5878  0.0681
 5298lim     li24198   0.749   3.882   4.751  0.6619 -0.3110  0.2618
 5299lim     li24199   3.569   4.101   2.997  0.3665  0.6957  0.5489
 5300lim     li24200   0.460   2.393   1.573 -0.9078  0.2071  0.3290
 5301lim     li24201   5.655   6.798   7.178  0.3602 -0.3084 -1.3352
 5302lim     li24202   6.993   6.933   4.008 -0.0493  1.1734  0.2687
 5303lim     li24203   2.192   0.395   1.210  0.2214  0.4515 -0.4714
 5304lim     li24204   4.740   5.242   2.765 -0.9500 -0.3866 -0.2655
 5305lim     li24205   2.142   5.175   4.481  0.0564  0.4272 -0.1746
 5306lim     li24206   0.910   1.268   1.057  0.3421  0.2958  0.4998
 5307lim     li24207   0.705   2.446   0.681  0.5816 -0.4798 -0.0495
 5308lim     li24208   2.965   5.155   1.054 -0.5262 -0.9641 -0.3951
 5309lim     li24209   3.366   4.445   2.118 -0.3486 -0.9155  0.0646
 5310lim     li24210   6.583   6.831   5.678 -0.3205 -0.4542 -0.5244
 5311lim     li24211   3.530   1.937   7.582  0.0855  0.2751 -0.2746
 5312lim     li24212   6.731   2.083   2.088  0.8694  0.7053  0.5244
 5313lim     li24213   5.923   6.644   1.022 -0.6919  0.6140  0.3731
 5314lim     li24214   6.770   5.887   5.995 -0.8377  0.3752 -0.2501
 5315lim     li24215   5.915   0.457   4.559  0.9862 -0.5218 -0.1382
 5316lim     li24216   0.458   4.900   0.827  0.8507 -0.3927 -0.5170
 5317lim     li24217   4.828   2.813   3.270  1.0155 -0.4795 -0.0283
 5318lim     li24218   6.827   3.070   4.821  0.3206 -0.0244 -1.0276
 5319lim     li24219   5.786   1.617   1.861 -0.0566  0.0018 -0.9218
 5320lim     li24220   4.411   5.491   6.882  0.1204 -0.0343  0.3136
 5321lim     li24221   5.581   3.609   3.361  0.3149  0.1545  0.7077
 5322lim     li24222   0.329   2.878   2.721  0.1161  0.0264 -0.2888
 5323lim     li24223   7.296   0.955   2.257  0.6458  0.0174  0.1271
 5324lim     li24224   3.134   1.230   1.297 -0.4698  0.1326 -0.3194
 5325lim     li24225   1.686   7.382   2.357  0.0610 -0.6330 -0.2047
 5326lim     li24226   0.511   1.454   2.967 -1.3001  1.6811 -0.4018
 5327lim     li24227   0.336   6.322   5.744  0.6346  0.3282 -0.4494
 5328lim     li24228   7.354   2.945   6.138  2.0039 -0.4771 -1.1882
 5329lim     li24229   6.796   2.191   5.851  0.0007 -0.8236  0.1478
 5330lim     li24230   6.156   6.303   2.938  0.7778  0.2224 -1.5768
 5331lim     li24231   6.800   4.351   6.604  0.6768  0.5886 -1.0669
 5332lim     li24232   2.900   5.671   0.384  0.5410  0.3333 -0.9771
 5333lim     li24233   0.565   3.040   3.557  0.0564  0.2230  0.3750
 5334lim     li24234   5.467   1.204   6.061  0.3324  0.4029  0.5818
 5335lim     li24235   1.805   4.131   5.795 -0.1451 -1.1230  0.2437
 5336lim     li24236   2.835   1.759   5.891 -0.6949 -0.0037  0.5742
 5337lim     li24237   1.138   1.455   4.442  1.2045  0.3388  0.3147
 5338lim     li24238   4.315   0.792   4.341 -0.7787  0.3472 -1.1676
 5339lim     li24239   1.329   1.961   4.845 -0.1544  0.9151 -0.9233
 5340lim     li24240   4.794   1.565   5.326  0.4662  0.9204 -1.1852
 5341lim     li24241   2.607   6.909   3.863 -0.3024  0.0435  0.2571
 5342lim     li24242   5.875   3.064   0.192  0.4741  0.3095 -0.3047
 5343lim     li24243   0.901   5.584   6.129  0.0059 -1.1466  0.8529
 5344lim     li24244   1.335   1.059   2.233  1.1720 -0.0814 -0.6814
 5345lim     li24245   6.157   3.788   2.559  0.6472  0.6627 -0.2564
 5346lim     li24246   3.807   5.943   2.448 -0.7992  0.3534  0.0168
 5347lim     li24247   2.107   5.839   5.728  1.0521  0.1757 -1.0904
 5348lim     li24248   6.832   2.918   5.570 -0.3918 -0.2701 -0.5938
 5349lim     li24249   6.482   4.951   3.587  0.1683 -0.2701  0.1991
 5350lim     li24250   3.986   4.680   1.629 -0.1141 -0.0465 -0.0451
 5351lim     li24251   7.086   0.963   4.297  0.7509 -1.6249  0.5166
 5352lim     li24252   3.068   4.115   5.229 -0.0160 -1.0280  0.2891
 5353lim     li24253   1.023   1.324   5.795  0.5901 -0.3597 -0.4000
 5354lim     li24254   2.062   2.099   0.862  0.4012 -0.2058  0.3679
 5355lim     li24255   3.057   1.629   2.449  0.1557 -0.2870  0.2570
 5356lim     li24256   1.400   2.628   2.922  1.3913  0.0183  0.1485
 5357lim     li24257   1.535   2.426   6.675  0.0835  0.1230 -0.8730
 5358lim     li24258   3.075   6.303   0.860 -0.1408 -0.2969  0.2684
 5359lim     li24259   4.197   1.871   6.167  0.3349  0.2001  1.1644
 5360lim     li24260   1.226   0.630   6.699  0.2372  0.1058  0.0838
 5361lim     li24261   4.141   1.933   2.189 -0.0271 -1.1095  0.1028
 5362lim     li24262   3.054   4.984   4.702  0.5646  1.6955  0.6937
 5363lim     li24263   4.948   3.810   4.887  0.3004  0.4426 -0.0007
 5364lim     li24264   2.014   6.559   1.311 -1.8859  0.6776 -0.1893
 5365lim     li24265   7.082   2.951   3.687 -0.6857 -0.2122  0.7419
 5366lim     li24266   7.568   6.058   5.087 -0.5989  0.0942 -1.0184
 5367lim     li24267   4.672   7.431   1.607 -0.5652  1.4176  0.1941
 5368lim     li24268   0.510   4.784   6.376  0.1561  0.2782 -0.6760
 5369lim     li24269   1.348   4.632   0.205 -0.0706  0.1173 -0.0523
 5370lim     li24270   3.159   4.563   6.684  0.5672  0.0748  0.2842
 5371lim     li24271   3.690   2.767   5.894  0.0417 -1.0798  1.6271
 5372lim     li24272   4.923   7.351   6.354  0.1950  0.4164  0.1724
 5373lim     li24273   4.410   5.395   1.769 -0.0693  1.2920 -0.0579
 5374lim     li24274   4.838   6.180   4.746 -0.6934 -0.1894  0.1134
 5375lim     li24275   3.842   6.199   6.919 -0.1635 -0.9947  0.5970
 5376lim     li24276   0.598   0.797   1.684 -1.2751  0.9856 -1.1950
 5377lim     li24277   6.636   6.727   2.804  0.4724  1.5582 -0.6601
 5378lim     li24278   2.324   7.569   3.965 -0.8452 -0.1507  0.3528
 5379lim     li24279   7.134   2.401   0.730 -0.4931 -0.3644  0.1664
 5380lim     li24280   4.439   3.210   3.560  0.1444  0.8700 -0.0721
 5381lim     li24281   0.105   4.781   4.720 -0.5713 -0.8149 -1.2015
 5382lim     li24282   4.993   4.401   5.543 -0.4785  0.4500  0.5833
 5383lim     li24283   6.284   2.901   2.035  0.6458  0.0147  0.3053
 5384lim     li24284   6.510   2.044   1.399  0.4331 -0.7966 -1.0921
 5385lim     li24285   7.579   2.049   5.600 -0.8336  0.8548 -0.5293
 5386lim     li24286   3.257   0.619   1.911  0.5851  0.5925  0.1597
 5387lim     li24287   6.072   1.451   2.648  0.0913  0.5815  0.8736
 5388lim     li24288   1.586   0.494   6.176 -0.0982 -0.5043  0.4279
 5389lim     li24289   7.381   5.495   2.863 -1.5480  0.6362 -0.1236
 5390lim     li24290   2.738   6.838   5.616  1.1019 -0.3501 -0.9947
 5391lim     li24291   0.411   1.430   2.226 -0.3531 -0.1696 -0.4291
 5392lim     li24292   4.200   7.432   0.284  0.1280  0.8662 -0.6661
 5393lim     li24293   1.177   6.672   5.245 -0.2492  0.8392 -1.1189
 5394lim     li24294   0.539   3.104   7.391 -0.5543  1.1496 -0.0134
 5395lim     li24295   7.263   5.683   1.434  0.6681 -0.0910  1.1890
 5396lim     li24296   5.837   5.532   7.202  0.3718 -1.4055 -1.0288
 5397lim     li24297   6.569   3.486   1.212 -1.3197  0.2305 -0.2324
 5398lim     li24298   7.475   7.367   5.833  1.0443  0.0217 -0.4814
 5399lim     li24299   6.897   2.028   2.909  0.6074  1.1047  0.7319
 5400lim     li24300   3.373   1.025   3.544  0.5136 -0.3537 -0.2229
 5401ntf    cn124301   3.612   0.429   2.263 -0.4513 -0.2225 -0.0283
 5401ntf    sn224302   3.726   0.392   2.126 -0.4475  0.3189 -0.1702
 5401ntf    nn324303   3.860   0.463   2.165 -0.3842  0.0054  0.1786
 5401ntf    sn224304   4.006   0.422   2.124 -0.4759  0.1300 -0.2730
 5401ntf    cn124305   4.038   0.304   2.259  0.0373  0.2346 -0.3016
 5401ntf    fn424306   3.640   0.364   2.375 -0.0013 -0.4757 -0.2800
 5401ntf    fn424307   3.604   0.556   2.298  0.0529 -0.2524  0.1974
 5401ntf    fn424308   3.488   0.391   2.237 -0.3335 -0.5430 -0.1427
 5401ntf    on524309   3.744   0.249   2.127  0.6881  0.4630  0.8956
 5401ntf    on524310   3.658   0.454   2.014 -0.4257 -0.1186 -0.4295
 5401ntf    on524311   4.103   0.527   2.138 -0.0003 -0.3280 -0.0963
 5401ntf    on524312   4.016   0.337   2.007  0.4501  0.4710 -0.4493
 5401ntf    fn424313   4.163   0.265   2.242 -0.0047 -0.3101  0.6077
 5401ntf    fn424314   4.028   0.367   2.375 -0.0868 -0.5269  0.1042
 5401ntf    fn424315   3.961   0.197   2.262  0.1773  0.1236 -0.6430
 5402ntf    cn124316   6.178   5.661   6.180 -0.0212  0.1811  0.2767
 5402ntf    sn224317   6.320   5.549   6.166 -0.4560 -0.3690  0.2378
 5402ntf    nn324318   6.329   5.503   6.316  0.1826  0.1722  0.3696
 5402ntf    sn224319   6.290   5.360   6.369 -0.0198  0.0188 -0.1878
 5402ntf    cn124320   6.244   5.389   6.542 -0.0124 -0.3999 -0.1154
 5402ntf    fn424321   6.131   5.671   6.056 -0.0555 -0.1164  0.2638
 5402ntf    fn424322   6.079   5.612   6.253 -0.0019  0.4693  0.4989
 5402ntf    fn424323   6.208   5.784   6.219 -0.0659  0.2204  0.1903
 5402ntf    on524324   6.279   5.453   6.067  0.2430  0.3367 -0.7461
 5402ntf    on524325   6.426   5.640   6.134 -0.6292 -0.1805  0.2014
 5402ntf    on524326   6.409   5.278   6.375 -0.1286 -0.1537 -0.4031
 5402ntf    on524327   6.170   5.298   6.320 -0.2782  0.6063 -0.3069
 5402ntf    fn424328   6.343   5.411   6.627 -0.5977 -0.0805  0.4978
 5402ntf    fn424329   6.177   5.503   6.548 -0.3841 -0.5884 -0.6558
 5402ntf    fn424330   6.162   5.294   6.586 -0.2413 -0.0970  0.1184
 5403ntf    cn124331   3.971   4.711   3.776 -0.0567  0.0180  0.0852
 5403ntf    sn224332   4.130   4.736   3.861  0.1098 -0.1933 -0.1609
 5403ntf    nn324333   4.117   4.890   3.889  0.0076 -0.2856  0.3174
 5403ntf    sn224334   4.183   4.974   4.004  0.3004 -0.2936  0.1551
 5403ntf    cn124335   4.338   5.022   3.922  0.0272  0.4630  0.0727
 5403ntf    fn424336   3.956   4.796   3.676  0.2108 -0.2246 -0.1626
 5403ntf    fn424337   3.965   4.584   3.739  0.6249 -0.1769  0.6120
 5403ntf    fn424338   3.869   4.727   3.859  0.3639  0.0568  0.6017
 5403ntf    on524339   4.117   4.652   3.977 -0.0166  0.0647  0.0129
 5403ntf    on524340   4.230   4.702   3.763  0.4239  0.3788 -0.0416
 5403ntf    on524341   4.227   4.903   4.121 -0.4494 -0.0633  0.5812
 5403ntf    on524342   4.124   5.103   4.024 -0.1973 -0.5632  0.4285
 5403ntf    fn424343   4.308   5.087   3.811  0.1388  0.1525 -0.1399
 5403ntf    fn424344   4.415   5.100   3.996 -0.0650 -0.0873  0.7536
 5403ntf    fn424345   4.410   4.915   3.890 -0.5503  0.2664 -0.6003
 5404ntf    cn124346   1.707   7.570   1.024 -0.2320  0.2287 -0.2209
 5404ntf    sn224347   1.824   7.709   1.032 -0.3288  0.2773  0.4001
 5404ntf    nn324348   1.716   7.822   1.040 -0.4967  0.1973 -0.6321
 5404ntf    sn224349   1.734   7.978   1.029 -0.2673  0.2013 -0.2234
 5404ntf    cn124350   1.718   7.999   0.849 -0.3481 -0.5644 -0.3104
 5404ntf    fn424351   1.770   7.460   0.988 -0.3890  0.0147  0.1565
 5404ntf    fn424352   1.663   7.542   1.146  0.1336  0.4397 -0.0396
 5404ntf    fn424353   1.602   7.597   0.949 -0.3980 -0.2885 -0.1740
 5404ntf    on524354   1.898   7.689   1.155  0.2013 -0.3282 -0.0103
 5404ntf    on524355   1.895   7.700   0.907 -0.1248  0.8948  0.4696
 5404ntf    on524356   1.868   8.016   1.067 -0.4522 -0.4102  1.0922
 5404ntf    on524357   1.621   8.050   1.082  0.0915  0.1684  0.6083
 5404ntf    fn424358   1.594   7.967   0.818 -0.4347 -0.2231 -0.3232
 5404ntf    fn424359   1.737   8.122   0.805 -0.7763 -0.3246  0.1624
 5404ntf    fn424360   1.802   7.918   0.786  0.0241 -0.3585 -0.0814
 5405ntf    cn124361   0.674   7.360   0.998  0.2567 -0.0364  0.2436
 5405ntf    sn224362   0.810   7.318   0.884 -0.2574 -0.2794 -0.2861
 5405ntf    nn324363   0.926   7.416   0.924 -0.3510 -0.1756 -0.2703
 5405ntf    sn224364   0.961   7.557   0.866 -0.0748 -0.0453  0.2039
 5405ntf    cn124365   1.044   7.633   1.009 -0.2139  0.6733 -0.0906
 5405ntf    fn424366   0.641   7.488   1.000  0.6713  0.0739  0.2021
 5405ntf    fn424367   0.573   7.288   0.951  0.5380 -0.0257 -0.3891
 5405ntf    fn424368   0.680   7.315   1.122 -0.8691 -0.4532  0.1559
 5405ntf    on524369   0.845   7.183   0.923 -0.3615 -0.2428 -0.0621
 5405ntf    on524370   0.740   7.344   0.761  0.3450 -0.1939 -0.6105
 5405ntf    on524371   0.847   7.644   0.852 -0.1490 -0.2927 -0.8248
 5405ntf    on524372   1.071   7.549   0.774 -0.0852  0.2327  0.1655
 5405ntf    fn424373   0.964   7.656   1.112  0.0423  0.5849  0.1300
 5405ntf    fn424374   1.145   7.561   1.054 -0.1525  0.7746 -0.0667
 5405ntf    fn424375   1.109   7.746   0.989  0.6578  0.2526  0.3050
 5406ntf    cn124376   2.557   1.753   0.275  0.1240 -0.1481 -0.1624
 5406ntf    sn224377   2.511   1.851   0.422  0.1447  0.2343 -0.4077
 5406ntf    nn324378   2.367   1.901   0.384  0.0316  0.5861  0.4613
 5406ntf    sn224379   2.230   1.878   0.458 -0.0657 -0.0582  0.0867
 5406ntf    cn124380   2.174   1.746   0.345  0.4413 -0.0230 -0.2138
 5406ntf    fn424381   2.679   1.702   0.274 -0.1329 -0.7647 -0.4774
 5406ntf    fn424382   2.475   1.652   0.256  0.0449 -0.1284  0.0687
 5406ntf    fn424383   2.556   1.835   0.171 -0.1274  0.4797  0.3272
 5406ntf    on524384   2.529   1.762   0.534 -0.3835 -0.0735 -0.5614
 5406ntf    on524385   2.617   1.948   0.421  0.6578 -0.2915  0.7181
 5406ntf    on524386   2.133   1.981   0.432  0.2482  0.2013 -0.0739
 5406ntf    on524387   2.224   1.807   0.583 -0.5428 -0.3162 -0.0818
 5406ntf    fn424388   2.227   1.628   0.369 -0.4191 -0.2425  0.6842
 5406ntf    fn424389   2.042   1.743   0.354  0.4294  0.0824 -0.3517
 5406ntf    fn424390   2.204   1.782   0.221  0.1630 -0.2134 -0.3360
 5407ntf    cn124391   1.304   7.114   3.243  0.4357  0.1975  0.1925
 5407ntf    sn224392   1.448   7.042   3.329  0.1980 -0.0913  0.3527
 5407ntf    nn324393   1.421   7.066   3.481 -0.7132 -0.3853  0.2450
 5407ntf    sn224394   1.430   7.199   3.564 -0.0415 -0.1264 -0.2422
 5407ntf    cn124395   1.597   7.175   3.632 -0.0599  0.1187 -0.1074
 5407ntf    fn424396   1.188   7.064   3.284  0.3605  0.6184  0.4918
 5407ntf    fn424397   1.290   7.243   3.265  0.5654  0.2582 -0.0783
 5407ntf    fn424398   1.314   7.092   3.113 -0.0219  0.2531  0.1471
 5407ntf    on524399   1.456   6.901   3.300  0.5602  0.0642 -0.3251
 5407ntf    on524400   1.560   7.116   3.276 -0.2096 -0.0599 -0.4852
 5407ntf    on524401   1.344   7.193   3.679 -0.5478  0.0896 -0.6026
 5407ntf    on524402   1.439   7.324   3.492  0.9732 -0.1333 -0.1476
 5407ntf    fn424403   1.604   7.073   3.717 -0.4982 -0.0927 -0.3188
 5407ntf    fn424404   1.694   7.161   3.543 -0.4077 -0.0511 -0.4616
 5407ntf    fn424405   1.644   7.282   3.694  0.1256  0.1541 -0.3072
 5408ntf    cn124406   5.130   4.691   2.748  0.3390  0.0702 -0.6501
 5408ntf    sn224407   5.164   4.870   2.760  0.0914  0.0621  0.2609
 5408ntf    nn324408   5.255   4.890   2.634 -0.5447  0.2265 -0.1766
 5408ntf    sn224409   5.217   4.876   2.482  0.2142 -0.2703 -0.3276
 5408ntf    cn124410   5.276   5.037   2.419  0.3323  0.0930  0.6900
 5408ntf    fn424411   5.245   4.626   2.745  0.5579  0.4552 -0.7454
 5408ntf    fn424412   5.072   4.639   2.855  0.1814 -0.3317 -0.9295
 5408ntf    fn424413   5.051   4.659   2.647  0.1375 -0.1574 -0.4209
 5408ntf    on524414   5.038   4.940   2.757  0.0840  0.0651  0.6094
 5408ntf    on524415   5.244   4.871   2.880 -0.0177 -0.3548  0.3388
 5408ntf    on524416   5.078   4.866   2.447  0.1756  0.5267 -0.4256
 5408ntf    on524417   5.301   4.778   2.418  0.5248  0.1729 -0.6091
 5408ntf    fn424418   5.239   5.138   2.496  0.0741  0.9475 -0.5277
 5408ntf    fn424419   5.408   5.046   2.414  0.3389 -0.2959 -0.0500
 5408ntf    fn424420   5.240   5.060   2.294  0.1178 -0.4225  0.6541
 5409ntf    cn124421   5.990   7.280   0.885 -0.1958  0.0418 -0.0393
 5409ntf    sn224422   5.870   7.335   1.009  0.0027  0.1325  0.1143
 5409ntf    nn324423   5.745   7.243   0.985  0.2114 -0.1344  0.0530
 5409ntf    sn224424   5.647   7.252   0.862  0.4826  0.1508 -0.1434
 5409ntf    cn124425   5.497   7.335   0.923  0.4387  0.0267 -0.0807
 5409ntf    fn424426   6.016   7.150   0.888  0.3574  0.1499  0.0847
 5409ntf    fn424427   5.948   7.319   0.766 -0.3409  0.1447  0.0446
 5409ntf    fn424428   6.108   7.339   0.901 -0.2371  0.0617  0.1914
 5409ntf    on524429   5.930   7.296   1.134 -0.2707  0.4980  0.3645
 5409ntf    on524430   5.851   7.476   0.986 -0.1979  0.1415  0.3256
 5409ntf    on524431   5.601   7.123   0.818  0.6696 -0.0678  0.2896
 5409ntf    on524432   5.682   7.343   0.756  0.4627  0.3972  0.0583
 5409ntf    fn424433   5.519   7.440   1.001 -0.2944  0.4813 -0.4782
 5409ntf    fn424434   5.423   7.383   0.824  0.2842 -0.1090 -0.0312
 5409ntf    fn424435   5.425   7.259   1.004  0.6424  0.1435  0.2105
 5410ntf    cn124436   0.594   4.374   1.802  0.0543  0.3261  0.0668
 5410ntf    sn224437   0.593   4.552   1.767 -0.2769  0.2780 -0.1635
 5410ntf    nn324438   0.485   4.560   1.652  0.0625 -0.1565 -0.5160
 5410ntf    sn224439   0.329   4.552   1.668  0.0935  0.1076 -0.0602
 5410ntf    cn124440   0.275   4.725   1.671 -0.1271  0.0434 -0.2592
 5410ntf    fn424441   0.491   4.326   1.869  0.4637 -0.1390  0.3697
 5410ntf    fn424442   0.607   4.309   1.687 -0.0348 -0.0467  0.2676
 5410ntf    fn424443   0.703   4.349   1.873 -0.0536  0.3936  0.2553
 5410ntf    on524444   0.569   4.611   1.896  0.2951 -0.1208  0.1251
 5410ntf    on524445   0.723   4.578   1.711 -0.1992  0.3504  0.0527
 5410ntf    on524446   0.286   4.493   1.792  0.1008  0.6298  0.1953
 5410ntf    on524447   0.261   4.498   1.553  0.1850  0.7331 -0.4152
 5410ntf    fn424448   0.320   4.793   1.775 -0.3218 -0.1258 -0.0636
 5410ntf    fn424449   0.312   4.791   1.562  0.3904 -0.2413 -0.2564
 5410ntf    fn424450   0.145   4.745   1.679 -0.1590 -0.3189  0.1220
 5411ntf    cn124451   6.041   3.232   2.894 -0.3986  0.0902 -0.0342
 5411ntf    sn224452   6.034   3.255   2.714  0.0015  0.3455 -0.0183
 5411ntf    nn324453   6.156   3.177   2.653  0.0845  0.2431  0.2786
 5411ntf    sn224454   6.163   3.027   2.606 -0.0591  0.2726  0.1619
 5411ntf    cn124455   6.325   2.988   2.680 -0.2598  0.0699  0.4968
 5411ntf    fn424456   6.159   3.266   2.944 -0.5484 -0.3127  0.5992
 5411ntf    fn424457   5.956   3.311   2.957 -0.5898  0.2814 -0.5266
 5411ntf    fn424458   6.016   3.110   2.938  0.1154 -0.0302 -0.0632
 5411ntf    on524459   5.901   3.210   2.681 -0.0443 -0.0826  0.7274
 5411ntf    on524460   6.058   3.396   2.697  0.3738  0.2569 -0.2307
 5411ntf    on524461   6.184   3.004   2.466  0.1791 -0.6854  0.3476
 5411ntf    on524462   6.069   2.937   2.668  0.2790 -0.3677 -0.2479
 5411ntf    fn424463   6.321   2.985   2.812  0.7243  0.0749  0.5364
 5411ntf    fn424464   6.358   2.867   2.637 -0.9089  0.0351  0.0679
 5411ntf    fn424465   6.425   3.069   2.649 -0.2970 -0.0099  0.1634
 5412ntf    cn124466   3.828   4.830   6.392  0.1525  0.2652 -0.0487
 5412ntf    sn224467   3.888   4.687   6.486 -0.0283  0.1966 -0.0359
 5412ntf    nn324468   3.787   4.572   6.453  0.2008 -0.1391  0.4260
 5412ntf    sn224469   3.814   4.419   6.428  0.1759  0.0042 -0.4991
 5412ntf    cn124470   3.808   4.366   6.602  0.1178  0.2216 -0.4344
 5412ntf    fn424471   3.713   4.877   6.440  0.4044  0.5737  0.2594
 5412ntf    fn424472   3.910   4.934   6.387  0.3818  0.1034  0.3419
 5412ntf    fn424473   3.812   4.806   6.263 -0.2224  1.2859 -0.2045
 5412ntf    on524474   4.022   4.673   6.434  0.0636  0.1032  0.2253
 5412ntf    on524475   3.884   4.736   6.622  0.7910 -0.6112  0.2859
 5412ntf    on524476   3.946   4.377   6.387  0.3610 -0.3180  0.4085
 5412ntf    on524477   3.704   4.346   6.370 -0.2400  0.2616 -0.0428
 5412ntf    fn424478   3.706   4.418   6.667  0.3922 -0.2808  0.4094
 5412ntf    fn424479   3.787   4.236   6.617  0.5099  0.2384  0.2565
 5412ntf    fn424480   3.919   4.399   6.665  0.1580 -0.2524 -0.2495
 5413ntf    cn124481   6.915   3.353   1.855  0.4510 -0.1658  0.3996
 5413ntf    sn224482   6.797   3.424   1.736  0.3876 -0.1858  0.4502
 5413ntf    nn324483   6.724   3.536   1.817 -0.0109 -0.2200  0.1452
 5413ntf    sn224484   6.593   3.609   1.771  0.2361 -0.1585 -0.4639
 5413ntf    cn124485   6.483   3.542   1.899  0.4065  0.2799 -0.0830
 5413ntf    fn424486   6.984   3.253   1.803 -0.1742 -0.3430 -0.1064
 5413ntf    fn424487   6.992   3.445   1.912 -0.3212  0.3666  0.6043
 5413ntf    fn424488   6.846   3.308   1.959  0.4921  0.4213  0.6890
 5413ntf    on524489   6.890   3.479   1.640  0.0680 -0.3931  0.0155
 5413ntf    on524490   6.705   3.320   1.697  0.8928 -0.5311  0.1688
 5413ntf    on524491   6.535   3.571   1.645 -0.5167 -0.3954 -0.0487
 5413ntf    on524492   6.590   3.749   1.807  0.5355 -0.2180 -0.2025
 5413ntf    fn424493   6.359   3.583   1.884  0.3227  0.1262  0.1939
 5413ntf    fn424494   6.484   3.410   1.907 -0.0478  0.2865  0.0593
 5413ntf    fn424495   6.521   3.582   2.019 -0.4224 -0.2143  0.3527
 5414ntf    cn124496   1.527   2.335   0.806  0.2783 -0.0427 -0.1985
 5414ntf    sn224497   1.610   2.486   0.750  0.2199 -0.0962 -0.4320
 5414ntf    nn324498   1.717   2.430   0.650 -0.3377 -0.6000 -0.7518
 5414ntf    sn224499   1.836   2.515   0.593 -0.2628 -0.1816  0.0194
 5414ntf    cn124500   1.794   2.542   0.419 -0.0221 -0.1915 -0.0403
 5414ntf    fn424501   1.622   2.254   0.849 -0.1443 -0.4349  0.0069
 5414ntf    fn424502   1.454   2.363   0.912 -0.0763 -0.2516 -0.3862
 5414ntf    fn424503   1.452   2.281   0.711 -0.0818  0.0369  0.0380
 5414ntf    on524504   1.497   2.555   0.694 -0.1491  0.2835  0.7454
 5414ntf    on524505   1.661   2.537   0.875 -0.6093 -0.1534 -0.0675
 5414ntf    on524506   1.953   2.430   0.593 -0.1286 -0.0011  0.1159
 5414ntf    on524507   1.854   2.646   0.651  0.0485 -0.0453 -0.3813
 5414ntf    fn424508   1.887   2.613   0.356 -0.0883  0.1859  0.2912
 5414ntf    fn424509   1.758   2.435   0.350  0.2234 -0.5335  0.3549
 5414ntf    fn424510   1.692   2.625   0.414  0.3327  0.2766  0.3839
 5415ntf    cn124511   7.273   3.634   5.362 -0.2206  0.3882  0.1140
 5415ntf    sn224512   7.226   3.473   5.433  0.2520  0.3007  0.2265
 5415ntf    nn324513   7.362   3.401   5.467  0.0610 -0.5514 -0.7543
 5415ntf    sn224514   7.405   3.326   5.598  0.0478  0.2670 -0.2718
 5415ntf    cn124515   7.564   3.256   5.545  0.1170  0.1004  0.1564
 5415ntf    fn424516   7.319   3.726   5.445  0.0408  0.2248  0.1485
 5415ntf    fn424517   7.363   3.622   5.266 -0.3079 -0.3350  0.1149
 5415ntf    fn424518   7.167   3.686   5.302 -0.4412 -0.5831 -0.3618
 5415ntf    on524519   7.140   3.502   5.545  0.6206  0.2282  0.5329
 5415ntf    on524520   7.166   3.406   5.320 -0.5194  0.6228  0.4387
 5415ntf    on524521   7.340   3.198   5.614 -0.0423  0.3095 -0.2973
 5415ntf    on524522   7.443   3.401   5.715  0.2342  0.2391 -0.3136
 5415ntf    fn424523   7.613   3.171   5.635 -0.8977 -0.9482 -0.2553
 5415ntf    fn424524   7.554   3.197   5.427  0.0189  0.0092  0.2088
 5415ntf    fn424525   7.648   3.354   5.517  0.3636 -0.1610 -0.0325
 5416ntf    cn124526   4.687   2.147   3.759 -0.3155 -0.3259  0.0210
 5416ntf    sn224527   4.544   2.259   3.754 -0.1369 -0.0827  0.3290
 5416ntf    nn324528   4.444   2.182   3.662 -0.0663  0.1806  0.0301
 5416ntf    sn224529   4.329   2.085   3.709  0.0570  0.2028  0.3774
 5416ntf    cn124530   4.190   2.202   3.716 -0.0445  0.1118 -0.1051
 5416ntf    fn424531   4.787   2.197   3.830 -0.0866  0.2754 -0.7217
 5416ntf    fn424532   4.661   2.027   3.809 -0.4359 -0.2343  0.1820
 5416ntf    fn424533   4.731   2.131   3.635 -0.3118  0.0323 -0.0252
 5416ntf    on524534   4.512   2.286   3.892 -0.3811  0.8542  0.0954
 5416ntf    on524535   4.590   2.376   3.683  0.1109 -0.2273  0.2492
 5416ntf    on524536   4.351   2.034   3.842  0.0916  0.0929  0.3294
 5416ntf    on524537   4.295   1.987   3.609 -0.2965  0.3466  0.3544
 5416ntf    fn424538   4.184   2.279   3.608 -0.1531  0.2247 -0.0185
 5416ntf    fn424539   4.075   2.135   3.717  0.3140 -0.5155 -0.0707
 5416ntf    fn424540   4.196   2.278   3.823 -0.3776 -0.1596  0.1101
 5417ntf    cn124541   6.602   1.915   3.679  0.1061  0.3925  0.4010
 5417ntf    sn224542   6.442   1.952   3.755 -0.2713 -0.3166 -0.0423
 5417ntf    nn324543   6.379   1.809   3.740 -0.0183 -0.4288 -0.0363
 5417ntf    sn224544   6.302   1.743   3.619 -0.2147 -0.1094 -0.0860
 5417ntf    cn124545   6.373   1.576   3.608  0.2100  0.0536  0.1410
 5417ntf    fn424546   6.688   2.015   3.690  0.2541  0.3068  0.0669
 5417ntf    fn424547   6.660   1.811   3.736  0.0948  0.2075  0.0815
 5417ntf    fn424548   6.586   1.893   3.549 -0.4171  0.7238  0.4094
 5417ntf    on524549   6.473   1.982   3.892  0.2206 -0.0040 -0.2200
 5417ntf    on524550   6.386   2.059   3.676  0.1704 -0.2972 -0.3326
 5417ntf    on524551   6.314   1.805   3.490 -0.3492 -0.0393 -0.0655
 5417ntf    on524552   6.164   1.713   3.651 -0.0877  0.2077  0.8047
 5417ntf    fn424553   6.366   1.505   3.719  0.4939  0.3625  0.3549
 5417ntf    fn424554   6.320   1.502   3.511  0.3347  0.3473 -0.1542
 5417ntf    fn424555   6.500   1.567   3.573  0.0141  0.5821 -0.7541
 5418ntf    cn124556   2.868   6.508   4.225 -0.0245 -0.0378 -0.1003
 5418ntf    sn224557   2.929   6.366   4.129  0.0348 -0.2951  0.3153
 5418ntf    nn324558   2.936   6.423   3.983 -0.2407 -0.1954  0.3414
 5418ntf    sn224559   3.063   6.443   3.893 -0.2873  0.1081  0.3425
 5418ntf    cn124560   3.070   6.282   3.810 -0.2470  0.2715  0.0293
 5418ntf    fn424561   2.761   6.569   4.178 -0.1219 -0.0022  0.1650
 5418ntf    fn424562   2.822   6.469   4.343 -0.5163 -0.1690 -0.3341
 5418ntf    fn424563   2.961   6.601   4.238  0.1588 -0.2858  0.4073
 5418ntf    on524564   3.055   6.329   4.190  0.1943 -0.4963 -0.1322
 5418ntf    on524565   2.822   6.271   4.140  0.0392 -0.3140  0.1947
 5418ntf    on524566   3.193   6.456   3.955 -0.4149 -0.5351  0.7582
 5418ntf    on524567   3.034   6.534   3.786 -0.1196 -0.2412 -0.0013
 5418ntf    fn424568   2.959   6.268   3.739  0.1810  0.1953 -0.6347
 5418ntf    fn424569   3.169   6.281   3.722 -0.2558  0.3239  0.0190
 5418ntf    fn424570   3.082   6.174   3.886 -0.1282  0.1437 -0.1695
 5419ntf    cn124571   2.683   2.382   6.316  0.0809 -0.0145 -0.5720
 5419ntf    sn224572   2.602   2.219   6.310  0.0578 -0.0164 -0.2248
 5419ntf    nn324573   2.611   2.183   6.462  0.6692  0.2314 -0.2023
 5419ntf    sn224574   2.572   2.051   6.537  0.2908  0.4637  0.0131
 5419ntf    cn124575   2.725   1.959   6.574  0.0066  0.0033  0.0569
 5419ntf    fn424576   2.743   2.413   6.202 -0.0859 -0.4155 -0.7745
 5419ntf    fn424577   2.603   2.486   6.327 -0.0301 -0.0806 -0.7457
 5419ntf    fn424578   2.774   2.384   6.411 -0.2277 -0.2319 -0.2651
 5419ntf    on524579   2.463   2.241   6.278 -0.0496 -0.4795 -0.0869
 5419ntf    on524580   2.686   2.143   6.221  0.4722 -0.6968  0.7289
 5419ntf    on524581   2.509   1.954   6.452  0.4371  0.0037  0.4229
 5419ntf    on524582   2.505   2.083   6.661  0.0700  0.2698 -0.0550
 5419ntf    fn424583   2.798   1.946   6.464  0.0804 -0.3143  0.1419
 5419ntf    fn424584   2.798   2.040   6.649 -0.0871 -0.0626  0.2209
 5419ntf    fn424585   2.712   1.846   6.642  0.6597 -0.1347 -0.0421
 5420ntf    cn124586   7.101   6.164   7.537 -0.6506 -0.2212 -0.2268
 5420ntf    sn224587   7.141   6.166   7.714 -0.0423  0.2115 -0.3683
 5420ntf    nn324588   7.281   6.236   7.707  0.2188 -0.2513  0.1405
 5420ntf    sn224589   7.344   6.345   7.801 -0.0097  0.0494 -0.0532
 5420ntf    cn124590   7.521   6.329   7.763  0.0263 -0.0876  0.1655
 5420ntf    fn424591   6.986   6.101   7.513 -0.6481 -0.0763 -0.6195
 5420ntf    fn424592   7.085   6.290   7.499 -0.0557 -0.1617 -0.2791
 5420ntf    fn424593   7.199   6.115   7.463 -0.8672  0.0839 -0.7222
 5420ntf    on524594   7.035   6.250   7.762  0.0650  0.3888 -0.4430
 5420ntf    on524595   7.126   6.027   7.751 -0.5200  0.3578 -0.0043
 5420ntf    on524596   7.333   6.302   7.938 -0.0026  0.1285 -0.0276
 5420ntf    on524597   7.308   6.481   7.770 -0.1258  0.1430  0.4847
 5420ntf    fn424598   7.553   6.201   7.770 -0.0662 -0.1236 -0.0717
 5420ntf    fn424599   7.565   6.364   7.643 -0.8398 -0.4462 -0.2606
 5420ntf    fn424600   7.600   6.389   7.852  0.3474 -0.3747  0.0748
 5421ntf    cn124601   0.155   4.354   0.790  0.1569  0.4746 -0.0141
 5421ntf    sn224602   0.239   4.206   0.852 -0.0077  0.1942 -0.4548
 5421ntf    nn324603   0.259   4.128   0.718 -0.1036  0.1786 -0.4606
 5421ntf    sn224604   0.394   4.077   0.655 -0.2598 -0.1353 -0.5435
 5421ntf    cn124605   0.310   3.966   0.538  0.1799 -0.7698 -0.2607
 5421ntf    fn424606   0.130   4.446   0.883 -0.2502  0.2460  0.1049
 5421ntf    fn424607   0.228   4.416   0.699  0.5025  0.2395  0.1038
 5421ntf    fn424608   0.036   4.323   0.740  0.2207  0.0618  0.0902
 5421ntf    on524609   0.352   4.258   0.926  0.3489 -0.1245 -0.7725
 5421ntf    on524610   0.135   4.142   0.929  0.2028  0.4151  0.0221
 5421ntf    on524611   0.469   3.983   0.735  0.6764  0.3363 -0.8486
 5421ntf    on524612   0.456   4.183   0.579  0.6886 -0.2239  0.0934
 5421ntf    fn424613   0.399   3.871   0.515  0.8750 -0.2563  0.2657
 5421ntf    fn424614   0.203   3.921   0.601 -0.2815  0.9992  0.2748
 5421ntf    fn424615   0.272   4.030   0.429  0.1145 -0.0627  0.1740
 5422ntf    cn124616   2.047   6.613   6.466  0.4889 -0.1656 -0.2653
 5422ntf    sn224617   2.037   6.435   6.502  0.0452 -0.0569  0.1662
 5422ntf    nn324618   1.999   6.394   6.355 -0.2289 -0.7903  0.4326
 5422ntf    sn224619   2.091   6.321   6.251  0.0577  0.1414  0.0162
 5422ntf    cn124620   2.106   6.154   6.320 -0.3480  0.2644  0.4091
 5422ntf    fn424621   1.937   6.659   6.408  0.5505 -0.5534 -0.6976
 5422ntf    fn424622   2.064   6.680   6.578  0.1378  0.1992 -0.4285
 5422ntf    fn424623   2.148   6.647   6.388  0.2198  0.5182 -0.3200
 5422ntf    on524624   2.172   6.405   6.544  0.2191 -0.2934 -0.5413
 5422ntf    on524625   1.926   6.421   6.593 -0.0109 -0.3854  0.0520
 5422ntf    on524626   2.224   6.376   6.247  0.2492 -0.2955  0.3590
 5422ntf    on524627   2.026   6.301   6.124  0.0072 -0.7722  0.1759
 5422ntf    fn424628   2.037   6.058   6.261  0.2387 -0.3711  0.7357
 5422ntf    fn424629   2.230   6.107   6.324 -0.4276 -0.0199 -0.3232
 5422ntf    fn424630   2.064   6.146   6.446 -0.2751 -0.6843  0.3836
 5423ntf    cn124631   5.902   4.468   6.598  0.0954  0.0001 -0.0013
 5423ntf    sn224632   5.759   4.580   6.606  0.3475  0.3262 -0.0551
 5423ntf    nn324633   5.805   4.728   6.630  0.1504  0.4283 -0.3078
 5423ntf    sn224634   5.744   4.836   6.726 -0.1312  0.2531 -0.2881
 5423ntf    cn124635   5.608   4.887   6.617 -0.2004  0.4468 -0.1109
 5423ntf    fn424636   6.002   4.533   6.541 -0.2893  0.5580 -0.0451
 5423ntf    fn424637   5.954   4.422   6.711  0.0371 -0.2250 -0.0661
 5423ntf    fn424638   5.863   4.361   6.530 -0.6459  0.1742  0.1424
 5423ntf    on524639   5.699   4.570   6.475  0.1622  0.0189  0.0528
 5423ntf    on524640   5.689   4.518   6.715  0.0258  0.0064 -0.4382
 5423ntf    on524641   5.826   4.954   6.736  0.6058 -0.2572 -0.2216
 5423ntf    on524642   5.665   4.785   6.835  0.2583  0.0936 -0.0783
 5423ntf    fn424643   5.639   4.883   6.489  0.0427 -0.6459 -0.0287
 5423ntf    fn424644   5.502   4.808   6.628  0.3994 -0.3056  0.4177
 5423ntf    fn424645   5.569   5.011   6.638  0.0337  0.5458 -0.2542
 5424ntf    cn124646   3.035   3.703   3.965 -0.0502  0.0163 -0.1073
 5424ntf    sn224647   2.929   3.824   4.049 -0.0572  0.0541 -0.1704
 5424ntf    nn324648   3.028   3.861   4.165 -0.1765 -0.3038  0.0458
 5424ntf    sn224649   3.000   3.895   4.316 -0.2744  0.2512 -0.0958
 5424ntf    cn124650   2.976   4.075   4.296  0.4002  0.3567  0.0414
 5424ntf    fn424651   2.981   3.666   3.850  0.3215 -0.8866 -0.0064
 5424ntf    fn424652   3.159   3.742   3.939  0.0617 -0.1626  0.1486
 5424ntf    fn424653   3.044   3.595   4.040  0.0973 -0.0068 -0.1561
 5424ntf    on524654   2.923   3.940   3.963 -0.4508  0.5237  0.4832
 5424ntf    on524655   2.810   3.751   4.083  0.1087  0.1609  0.6516
 5424ntf    on524656   3.119   3.895   4.397 -0.4549 -0.2237  0.1711
 5424ntf    on524657   2.878   3.844   4.374  0.0127  0.0496  0.3274
 5424ntf    fn424658   2.887   4.106   4.203  0.2165 -0.1180  0.0557
 5424ntf    fn424659   2.933   4.133   4.406 -1.0146  0.2383 -0.4253
 5424ntf    fn424660   3.090   4.129   4.256  0.9710 -0.4875  0.4843
 5425ntf    cn124661   0.761   3.022   2.201 -0.3008 -0.1912  0.5311
 5425ntf    sn224662   0.877   2.913   2.288  0.5574  0.0482 -0.2937
 5425ntf    nn324663   0.854   2.974   2.431 -0.2197  0.2259 -0.4878
 5425ntf    sn224664   0.841   2.894   2.565  0.1748  0.1159 -0.5114
 5425ntf    cn124665   0.967   2.978   2.665 -0.2670  0.1176  0.0489
 5425ntf    fn424666   0.813   3.144   2.189 -0.0940 -0.3162  0.1315
 5425ntf    fn424667   0.737   2.983   2.077 -0.0633 -0.2867  0.5144
 5425ntf    fn424668   0.653   3.050   2.272 -0.1606  1.0349  0.2932
 5425ntf    on524669   0.816   2.785   2.264 -0.1880  0.2528  0.4743
 5425ntf    on524670   1.008   2.940   2.234  0.6013 -0.0160 -0.2204
 5425ntf    on524671   0.868   2.753   2.567  0.2018  0.1253 -0.1322
 5425ntf    on524672   0.720   2.929   2.636 -0.0128 -0.4111 -0.5709
 5425ntf    fn424673   1.076   2.994   2.593 -0.4206  0.0295 -0.2024
 5425ntf    fn424674   0.939   3.100   2.710 -0.3994 -0.0100  0.3196
 5425ntf    fn424675   1.010   2.908   2.769 -0.1918  0.5762  0.3306
 5426ntf    cn124676   1.689   5.599   2.142 -0.1363 -0.4622  0.3062
 5426ntf    sn224677   1.564   5.581   2.011  0.1270 -0.1117  0.0036
 5426ntf    nn324678   1.649   5.606   1.882  0.0861  0.5705  0.1076
 5426ntf    sn224679   1.641   5.546   1.737  0.0632  0.0317  0.3301
 5426ntf    cn124680   1.552   5.681   1.654  0.5480  0.0333 -0.1898
 5426ntf    fn424681   1.639   5.635   2.259  0.0185 -0.1164  0.2674
 5426ntf    fn424682   1.745   5.481   2.167 -0.8258 -0.8565  0.0064
 5426ntf    fn424683   1.788   5.678   2.105 -0.8833  0.2716 -0.1398
 5426ntf    on524684   1.513   5.446   2.011 -0.0115 -0.0597 -0.5130
 5426ntf    on524685   1.470   5.687   2.035 -0.5064 -0.7166  0.2467
 5426ntf    on524686   1.558   5.431   1.715  0.3388 -0.0781 -0.1401
 5426ntf    on524687   1.771   5.534   1.677 -0.4130 -1.3319 -0.4567
 5426ntf    fn424688   1.477   5.748   1.739  0.5032 -0.1405 -0.0926
 5426ntf    fn424689   1.622   5.781   1.603  0.3432 -0.0377 -0.6134
 5426ntf    fn424690   1.473   5.635   1.559 -0.3036 -0.1649  0.6096
 5427ntf    cn124691   0.915   4.122   3.900  0.2235  0.0763 -0.8264
 5427ntf    sn224692   0.745   4.114   3.964  0.5327 -0.0423 -0.0052
 5427ntf    nn324693   0.768   4.083   4.116  0.0434 -0.2085  0.0374
 5427ntf    sn224694   0.768   3.942   4.187 -0.0328 -0.1579  0.1373
 5427ntf    cn124695   0.590   3.931   4.224 -0.1215 -0.0575 -0.2500
 5427ntf    fn424696   0.958   3.997   3.889  0.2172  0.0165 -0.1831
 5427ntf    fn424697   0.920   4.162   3.774  0.2631  0.3649 -0.7330
 5427ntf    fn424698   0.997   4.187   3.981  0.0600 -0.3433 -0.3163
 5427ntf    on524699   0.688   4.247   3.955  0.3618 -0.0869  0.3926
 5427ntf    on524700   0.683   4.012   3.883 -0.0920  0.2445  0.1054
 5427ntf    on524701   0.819   3.952   4.321 -0.0142 -0.2483  0.1365
 5427ntf    on524702   0.812   3.830   4.107  0.4048  0.1249 -0.0242
 5427ntf    fn424703   0.518   3.981   4.125  0.1957  0.2630 -0.3200
 5427ntf    fn424704   0.541   3.808   4.233  0.2712 -0.1661  0.4588
 5427ntf    fn424705   0.560   3.990   4.338  0.2393  0.2019 -0.2864
 5428ntf    cn124706   0.537   0.873   6.472  0.1763  0.2033 -0.1013
 5428ntf    sn224707   0.686   0.961   6.527  0.2128  0.2095 -0.2105
 5428ntf    nn324708   0.662   0.949   6.682  0.1100 -0.2183 -0.2593
 5428ntf    sn224709   0.763   0.908   6.794  0.0512  0.2814 -0.0226
 5428ntf    cn124710   0.656   0.860   6.933  0.2788  0.4590  0.2161
 5428ntf    fn424711   0.532   0.761   6.543 -0.1010  0.1566 -0.1910
 5428ntf    fn424712   0.421   0.935   6.484 -0.0570 -0.2290 -0.0830
 5428ntf    fn424713   0.548   0.836   6.346  0.5405 -0.3681  0.0905
 5428ntf    on524714   0.794   0.884   6.472  0.9104  0.5138  0.7188
 5428ntf    on524715   0.666   1.095   6.476 -0.0620  0.0913 -0.4196
 5428ntf    on524716   0.829   1.027   6.844 -0.5349  0.6138 -0.0332
 5428ntf    on524717   0.847   0.793   6.769 -0.4313 -0.2009  0.5590
 5428ntf    fn424718   0.606   0.964   6.997  0.2276  0.5244  0.0717
 5428ntf    fn424719   0.555   0.784   6.894  0.3257  0.4017  0.2065
 5428ntf    fn424720   0.727   0.791   7.020  0.7234  0.2981 -0.2630
 5429ntf    cn124721   2.709   4.212   0.754  0.2204 -0.0704 -0.0375
 5429ntf    sn224722   2.751   4.336   0.880 -0.0199  0.1185 -0.1418
 5429ntf    nn324723   2.861   4.424   0.811  0.0570 -0.0044 -0.1763
 5429ntf    sn224724   3.014   4.387   0.818  0.0769  0.1295  0.1116
 5429ntf    cn124725   3.079   4.533   0.904 -0.1529  0.1894  0.1847
 5429ntf    fn424726   2.811   4.132   0.724 -0.1796 -0.2780 -0.8802
 5429ntf    fn424727   2.612   4.129   0.788  0.5203 -0.7122 -0.7246
 5429ntf    fn424728   2.675   4.278   0.644 -0.0381  0.0275  0.1025
 5429ntf    on524729   2.636   4.421   0.893 -0.5401 -0.5942 -0.0193
 5429ntf    on524730   2.791   4.260   0.996  0.7389  0.2249 -0.3309
 5429ntf    on524731   3.088   4.403   0.696 -0.5313  0.5167 -0.2098
 5429ntf    on524732   3.052   4.266   0.888 -0.0588 -0.2657 -0.4855
 5429ntf    fn424733   3.030   4.648   0.859 -0.1521  0.0118 -0.2823
 5429ntf    fn424734   3.048   4.534   1.032 -0.3076 -0.2135  0.1508
 5429ntf    fn424735   3.209   4.553   0.893 -0.0282 -0.6837 -0.0095
 5430ntf    cn124736   0.035   2.487   4.208 -0.1809  0.5561  0.1305
 5430ntf    sn224737   0.145   2.549   4.077 -0.1987  0.1545 -0.0775
 5430ntf    nn324738   0.203   2.413   4.026 -0.1312  0.3275 -0.4659
 5430ntf    sn224739   0.271   2.384   3.887  0.1239  0.0106 -0.2798
 5430ntf    cn124740   0.133   2.310   3.794 -0.3087  0.4908 -0.0337
 5430ntf    fn424741  -0.067   2.414   4.165  0.1192  0.4890 -0.4837
 5430ntf    fn424742   0.098   2.410   4.296 -0.1205  0.4816  0.0225
 5430ntf    fn424743  -0.018   2.586   4.277  0.0591  0.0572  1.0482
 5430ntf    on524744   0.056   2.619   3.987 -0.3646 -0.0170 -0.0490
 5430ntf    on524745   0.239   2.625   4.156  0.0490 -0.1436 -0.0850
 5430ntf    on524746   0.365   2.276   3.891  0.0977 -0.0191 -0.4462
 5430ntf    on524747   0.308   2.505   3.817  0.4781 -0.0522 -0.2014
 5430ntf    fn424748   0.151   2.286   3.665 -0.5061  0.3537 -0.0365
 5430ntf    fn424749   0.096   2.192   3.841  0.5955  0.3578  0.3880
 5430ntf    fn424750   0.022   2.380   3.800 -0.7492 -0.2076  0.1064
 5431ntf    cn124751   6.157   4.402   6.324 -0.1981  0.2834  0.1189
 5431ntf    sn224752   6.274   4.379   6.187 -0.3067  0.0887  0.0582
 5431ntf    nn324753   6.198   4.261   6.116  0.3959  0.1221 -0.7667
 5431ntf    sn224754   6.070   4.267   6.026  0.1222  0.1157 -0.3823
 5431ntf    cn124755   6.145   4.210   5.870 -0.1340  0.0821 -0.4945
 5431ntf    fn424756   6.205   4.483   6.417 -0.1715  0.2566  0.1282
 5431ntf    fn424757   6.041   4.452   6.284 -0.7625 -0.6267  0.5844
 5431ntf    fn424758   6.134   4.291   6.391  0.3553  0.1053  0.0176
 5431ntf    on524759   6.282   4.503   6.115  1.0354 -0.0263 -0.0273
 5431ntf    on524760   6.394   4.341   6.259 -0.2362  0.4479  0.1321
 5431ntf    on524761   6.021   4.398   5.989 -0.7803 -0.1014  0.0312
 5431ntf    on524762   5.976   4.164   6.063  0.8496 -0.5189 -0.2696
 5431ntf    fn424763   6.066   4.197   5.765 -0.2650  0.0989 -0.3989
 5431ntf    fn424764   6.246   4.293   5.846 -0.0326  0.0989 -0.0216
 5431ntf    fn424765   6.185   4.087   5.895  0.0478  0.2152 -0.1045
 5432ntf    cn124766   1.930   1.135   7.444  0.0018 -0.0173  0.1838
 5432ntf    sn224767   1.963   0.962   7.399  0.2156  0.0384  0.1234
 5432ntf    nn324768   1.817   0.910   7.371  0.1826  0.2304 -0.0622
 5432ntf    sn224769   1.721   0.909   7.247 -0.3578  0.3712  0.3485
 5432ntf    cn124770   1.815   0.807   7.130 -0.2116  0.6082  0.2566
 5432ntf    fn424771   2.040   1.192   7.488  0.2755  0.0327 -0.5448
 5432ntf    fn424772   1.884   1.208   7.344 -0.9101 -0.2422  0.4224
 5432ntf    fn424773   1.849   1.156   7.547  0.1337 -0.1709  0.3183
 5432ntf    on524774   2.046   0.978   7.283  0.5105  0.3583  0.3788
 5432ntf    on524775   2.034   0.914   7.515  0.2816  0.1874  0.1449
 5432ntf    on524776   1.708   1.040   7.186  0.4562  0.2932 -0.0183
 5432ntf    on524777   1.599   0.836   7.270 -0.0737 -0.1864  0.1117
 5432ntf    fn424778   1.942   0.832   7.103  0.1543 -0.5367  0.8263
 5432ntf    fn424779   1.799   0.678   7.157 -0.3520  0.5421 -0.1299
 5432ntf    fn424780   1.749   0.820   7.016 -0.1353 -0.5165  0.0670
 5433ntf    cn124781   7.193   0.506   2.706  0.2169 -0.0076 -0.1022
 5433ntf    sn224782   7.363   0.534   2.647  0.3682 -0.1546  0.2590
 5433ntf    nn324783   7.400   0.617   2.774 -0.1147  0.1001  0.2365
 5433ntf    sn224784   7.414   0.770   2.807  0.0246  0.1753 -0.1676
 5433ntf    cn124785   7.300   0.767   2.949 -0.0648  0.0059 -0.2428
 5433ntf    fn424786   7.123   0.617   2.718 -0.1691 -0.2479 -0.0778
 5433ntf    fn424787   7.111   0.433   2.631 -0.2259  0.1814  0.1952
 5433ntf    fn424788   7.188   0.441   2.821  0.1925  0.2375  0.0353
 5433ntf    on524789   7.426   0.404   2.648 -0.3921 -0.5283  0.3430
 5433ntf    on524790   7.347   0.607   2.524  0.0901  0.3455  0.5889
 5433ntf    on524791   7.358   0.871   2.721 -1.0725  0.0720  0.4172
 5433ntf    on524792   7.543   0.803   2.865  0.1972 -0.1490 -0.3618
 5433ntf    fn424793   7.352   0.712   3.057  0.1076  0.1165 -0.2678
 5433ntf    fn424794   7.242   0.882   2.981 -0.2416 -0.0982 -0.1927
 5433ntf    fn424795   7.195   0.690   2.928 -0.2920  0.2037  0.1649
 5434ntf    cn124796   1.355   7.049   6.784 -0.1179 -0.3093 -0.0672
 5434ntf    sn224797   1.471   7.176   6.844  0.0358 -0.2877 -0.4033
 5434ntf    nn324798   1.577   7.191   6.729 -0.2490 -0.3719 -0.6774
 5434ntf    sn224799   1.729   7.154   6.733 -0.0023  0.6661 -0.1396
 5434ntf    cn124800   1.740   6.976   6.770 -0.2097  0.6321 -0.2423
 5434ntf    fn424801   1.273   7.003   6.877 -0.4514 -0.1993 -0.3065
 5434ntf    fn424802   1.278   7.096   6.687 -0.1932 -0.4897 -0.0938
 5434ntf    fn424803   1.420   6.946   6.733 -0.2790 -0.2858 -0.3208
 5434ntf    on524804   1.384   7.290   6.854  0.5775  0.1225 -0.3522
 5434ntf    on524805   1.525   7.119   6.966 -0.1236  0.6338  0.1118
 5434ntf    on524806   1.801   7.226   6.836  0.4245  0.0074  0.0307
 5434ntf    on524807   1.783   7.167   6.600 -0.0888  0.8147 -0.1601
 5434ntf    fn424808   1.850   6.946   6.837 -0.2016 -0.0615 -0.5687
 5434ntf    fn424809   1.642   6.932   6.847  0.5133  0.4405  0.5809
 5434ntf    fn424810   1.740   6.899   6.663 -0.1975  0.2658  0.0218
 5435ntf    cn124811   5.439   3.966   6.877  0.2722 -0.0468 -0.0892
 5435ntf    sn224812   5.435   3.956   6.695  0.3732  0.3392 -0.1134
 5435ntf    nn324813   5.340   4.077   6.664 -0.0742 -0.0543 -0.2902
 5435ntf    sn224814   5.187   4.081   6.627 -0.1819  0.4898  0.2040
 5435ntf    cn124815   5.190   4.053   6.448  0.0292  0.3857  0.2226
 5435ntf    fn424816   5.316   3.993   6.919 -0.0822 -0.4332 -0.8507
 5435ntf    fn424817   5.467   3.851   6.935  0.6528  0.1373  0.0933
 5435ntf    fn424818   5.531   4.051   6.920  0.1953  0.4582 -0.8910
 5435ntf    on524819   5.573   3.978   6.660  0.3972  0.1140 -0.1641
 5435ntf    on524820   5.374   3.830   6.659  0.0692  0.2766  0.6081
 5435ntf    on524821   5.141   4.218   6.633 -1.1892  0.1801 -0.2718
 5435ntf    on524822   5.110   3.985   6.702 -0.1444  0.1183 -0.2261
 5435ntf    fn424823   5.073   4.051   6.386  0.5887  0.9273 -0.8882
 5435ntf    fn424824   5.260   4.144   6.382  0.5647 -0.1017  0.1117
 5435ntf    fn424825   5.247   3.936   6.426 -0.4019  0.2360 -0.1239
 5436ntf    cn124826   2.311   3.923   4.620  0.4098  0.3701 -0.1337
 5436ntf    sn224827   2.183   3.870   4.739  0.2447 -0.0476 -0.4931
 5436ntf    nn324828   2.078   3.809   4.639 -0.5665 -0.1950  0.4401
 5436ntf    sn224829   2.074   3.664   4.580  0.2004  0.0963 -0.3550
 5436ntf    cn124830   2.002   3.715   4.421 -0.3811  0.1000 -0.0944
 5436ntf    fn424831   2.256   3.995   4.524  0.4644  0.4897 -0.0744
 5436ntf    fn424832   2.410   3.994   4.671 -0.0744  0.7565  0.2744
 5436ntf    fn424833   2.374   3.819   4.567 -0.0796  0.0421 -0.0818
 5436ntf    on524834   2.249   3.770   4.818 -0.8686 -0.5474 -0.1746
 5436ntf    on524835   2.140   3.996   4.796  0.1957 -0.4079  0.2720
 5436ntf    on524836   1.964   3.580   4.622 -0.0880  0.7195  0.1531
 5436ntf    on524837   2.196   3.602   4.536  0.1692 -0.1619 -0.0818
 5436ntf    fn424838   1.963   3.609   4.351  0.4013 -0.3384  0.1228
 5436ntf    fn424839   1.893   3.788   4.441 -0.5090 -0.0599 -0.2048
 5436ntf    fn424840   2.076   3.787   4.339 -0.0188  0.2376  0.3497
 5437ntf    cn124841   0.768   0.923   5.429 -0.1381 -0.3477 -0.0727
 5437ntf    sn224842   0.716   0.917   5.255 -0.1471  0.1252 -0.0861
 5437ntf    nn324843   0.793   1.044   5.202  0.0701 -0.2023 -0.5625
 5437ntf    sn224844   0.730   1.153   5.109 -0.2625  0.0342 -0.0640
 5437ntf    cn124845   0.624   1.234   5.232 -0.1481 -0.0802  0.1098
 5437ntf    fn424846   0.706   1.022   5.489  0.2449  0.0174 -0.2760
 5437ntf    fn424847   0.732   0.820   5.504  0.3811 -0.5274 -0.0634
 5437ntf    fn424848   0.898   0.942   5.444 -0.2643 -0.1644  0.8569
 5437ntf    on524849   0.754   0.788   5.203 -0.6635 -0.0129 -0.1171
 5437ntf    on524850   0.574   0.934   5.267 -0.0811 -0.1069  1.0724
 5437ntf    on524851   0.636   1.111   5.008  0.3829 -0.5289 -0.4388
 5437ntf    on524852   0.824   1.254   5.067 -0.5376  0.4682  0.3528
 5437ntf    fn424853   0.513   1.164   5.252  0.0248 -0.4117 -0.0808
 5437ntf    fn424854   0.685   1.239   5.350  0.1180 -0.2999 -0.0168
 5437ntf    fn424855   0.592   1.356   5.193  0.4417 -0.0795 -0.3783
 5438ntf    cn124856   1.924   7.160   7.432 -0.1005 -0.0992  0.0664
 5438ntf    sn224857   2.012   7.318   7.413 -0.1768 -0.0533  0.0957
 5438ntf    nn324858   2.050   7.318   7.261  0.4312  0.2996  0.2471
 5438ntf    sn224859   2.190   7.326   7.190  0.3512  0.0587  0.0623
 5438ntf    cn124860   2.243   7.152   7.174 -0.2169 -0.1073 -0.0101
 5438ntf    fn424861   2.003   7.055   7.416 -0.6418 -0.5650  0.4054
 5438ntf    fn424862   1.876   7.143   7.554  0.1720 -0.1362  0.1672
 5438ntf    fn424863   1.821   7.145   7.349  0.0054  0.5670 -0.1926
 5438ntf    on524864   1.910   7.417   7.440  0.2818  0.3902  0.2160
 5438ntf    on524865   2.122   7.312   7.506 -0.8524 -0.0667  0.9071
 5438ntf    on524866   2.299   7.397   7.254  0.3439  0.3389 -0.2367
 5438ntf    on524867   2.165   7.371   7.056 -0.2070  0.4944  0.3084
 5438ntf    fn424868   2.227   7.077   7.281 -0.5367 -0.2603 -0.1622
 5438ntf    fn424869   2.181   7.088   7.076  0.0156  0.2436 -0.3915
 5438ntf    fn424870   2.371   7.160   7.141 -0.1051  0.3113  0.5202
 5439ntf    cn124871   0.660   0.963   2.253 -0.4212 -0.0858  0.3384
 5439ntf    sn224872   0.759   0.949   2.102 -0.1501  0.2787  0.4817
 5439ntf    nn324873   0.799   0.797   2.104 -0.0144  0.2880 -0.6205
 5439ntf    sn224874   0.939   0.727   2.121 -0.0851  0.2595 -0.1343
 5439ntf    cn124875   0.960   0.659   1.954  0.0822 -0.5113  0.1999
 5439ntf    fn424876   0.708   0.880   2.344  0.5403  0.3938  0.2727
 5439ntf    fn424877   0.662   1.083   2.309  0.9071  0.0373  0.0360
 5439ntf    fn424878   0.536   0.919   2.236 -0.6790  0.5884  0.4533
 5439ntf    on524879   0.657   0.971   2.002 -0.3476 -0.1618  0.5839
 5439ntf    on524880   0.861   1.051   2.104 -0.0091  0.1611 -0.3701
 5439ntf    on524881   0.938   0.609   2.203 -0.3152 -0.0320 -0.5534
 5439ntf    on524882   1.054   0.812   2.133  0.2209 -0.1675 -0.0361
 5439ntf    fn424883   1.069   0.586   1.937  0.1676 -0.3090 -0.1302
 5439ntf    fn424884   0.863   0.577   1.915  0.3793 -0.6429 -0.2731
 5439ntf    fn424885   0.966   0.754   1.863 -0.0912 -0.1982  0.5134
 5440ntf    cn124886   4.019   5.318   4.840  0.1611 -0.3639 -0.1115
 5440ntf    sn224887   4.127   5.389   4.712 -0.0986 -0.4702 -0.3917
 5440ntf    nn324888   4.254   5.431   4.793 -0.3180 -0.9172  0.1937
 5440ntf    sn224889   4.398   5.372   4.812  0.1282  0.0543 -0.0862
 5440ntf    cn124890   4.407   5.359   4.993 -0.0837 -0.1739 -0.0922
 5440ntf    fn424891   3.977   5.406   4.929  0.1235 -0.0205 -0.4617
 5440ntf    fn424892   3.912   5.253   4.795 -0.4771  0.5976 -0.0172
 5440ntf    fn424893   4.091   5.229   4.906  0.6205 -0.4424 -0.7095
 5440ntf    on524894   4.143   5.279   4.620  0.3160 -0.3788 -0.4303
 5440ntf    on524895   4.071   5.513   4.665 -0.4166 -0.2959  0.4429
 5440ntf    on524896   4.497   5.471   4.779 -0.4486  0.3274 -1.0161
 5440ntf    on524897   4.418   5.239   4.760  0.2411  0.2626 -0.5873
 5440ntf    fn424898   4.491   5.265   5.034 -0.0571 -0.0184  0.2099
 5440ntf    fn424899   4.428   5.470   5.061 -0.5943 -0.1083 -0.0436
 5440ntf    fn424900   4.293   5.317   5.046 -0.3338 -0.1203 -0.5858
 5441ntf    cn124901   2.371   3.049   7.203  0.3584  0.2804  0.1152
 5441ntf    sn224902   2.422   3.076   7.031 -0.5050 -0.3066 -0.2434
 5441ntf    nn324903   2.349   3.214   7.016 -0.4418 -0.2703 -0.2200
 5441ntf    sn224904   2.216   3.239   6.936 -0.0542  0.1177 -0.7489
 5441ntf    cn124905   2.250   3.403   6.865  0.1779  0.3552 -0.0948
 5441ntf    fn424906   2.445   3.117   7.289  0.1261  0.1994  0.3826
 5441ntf    fn424907   2.244   3.083   7.220  0.0940 -0.4483 -0.3628
 5441ntf    fn424908   2.371   2.922   7.242  0.5971  0.1913 -0.1773
 5441ntf    on524909   2.565   3.089   7.044 -0.6389 -0.4193  1.5883
 5441ntf    on524910   2.362   2.969   6.955  0.0860 -0.6910 -0.1787
 5441ntf    on524911   2.106   3.259   7.027  0.2009  0.3760 -0.4980
 5441ntf    on524912   2.193   3.163   6.815 -0.2112 -0.5923 -0.2828
 5441ntf    fn424913   2.334   3.400   6.763 -0.2614  0.3724 -0.4596
 5441ntf    fn424914   2.139   3.458   6.818  0.1772 -0.1235 -0.6668
 5441ntf    fn424915   2.304   3.486   6.952 -0.2072  0.5288 -0.0176
 5442ntf    cn124916   5.206   5.278   5.141 -0.4424  0.0359 -0.0074
 5442ntf    sn224917   5.167   5.455   5.123 -0.2568  0.0677 -0.1047
 5442ntf    nn324918   5.039   5.456   5.214  0.2267  0.7067  0.5711
 5442ntf    sn224919   4.891   5.491   5.177  0.2266  0.1164  0.0004
 5442ntf    cn124920   4.820   5.361   5.283 -0.2677  0.3258 -0.0679
 5442ntf    fn424921   5.319   5.255   5.076 -0.2756  0.2679  0.1946
 5442ntf    fn424922   5.227   5.241   5.266  0.5120  0.4076 -0.0433
 5442ntf    fn424923   5.113   5.200   5.091  0.0089 -0.4087 -0.1606
 5442ntf    on524924   5.273   5.522   5.193 -0.4408 -0.2188  0.4579
 5442ntf    on524925   5.162   5.452   4.979 -0.1049 -0.3366 -0.1021
 5442ntf    on524926   4.844   5.461   5.044 -0.6072  0.1346  0.2831
 5442ntf    on524927   4.832   5.611   5.233  0.3386  0.3306 -0.3370
 5442ntf    fn424928   4.688   5.365   5.289 -0.3085  0.0300 -0.6711
 5442ntf    fn424929   4.832   5.241   5.230 -0.7666  0.3462 -0.2263
 5442ntf    fn424930   4.863   5.353   5.408 -0.3018 -0.3635 -0.0951
 5443ntf    cn124931   5.531   5.712   4.840  0.3281 -0.3463 -0.3388
 5443ntf    sn224932   5.684   5.801   4.795  0.2726  0.0596  0.2641
 5443ntf    nn324933   5.740   5.824   4.940 -0.0224  0.6435  0.2916
 5443ntf    sn224934   5.890   5.833   4.987  0.0417  0.2590  0.1694
 5443ntf    cn124935   5.928   5.656   4.975  0.0393  0.2834 -0.2310
 5443ntf    fn424936   5.558   5.589   4.881 -0.6394 -0.3277  0.3936
 5443ntf    fn424937   5.454   5.770   4.931  0.6622  0.4402 -0.5417
 5443ntf    fn424938   5.444   5.705   4.741 -0.2262  0.1499  0.1031
 5443ntf    on524939   5.750   5.712   4.703 -0.3793 -0.4584  0.2889
 5443ntf    on524940   5.633   5.924   4.740 -0.4664 -0.0439  0.6972
 5443ntf    on524941   5.908   5.860   5.127 -0.0990 -0.3823  0.3130
 5443ntf    on524942   5.978   5.897   4.892  0.2252  0.0073  0.1693
 5443ntf    fn424943   5.840   5.584   5.042  0.4904 -0.1197 -0.0614
 5443ntf    fn424944   5.932   5.599   4.856 -0.3094  0.6496 -0.4182
 5443ntf    fn424945   6.045   5.619   5.025 -0.3731 -0.2544  0.3521
 5444ntf    cn124946   1.477   7.052   0.690  0.1917 -0.1045 -0.5062
 5444ntf    sn224947   1.458   6.973   0.528  0.1935 -0.4563 -0.3357
 5444ntf    nn324948   1.602   6.998   0.469  0.2379 -0.0199 -0.0498
 5444ntf    sn224949   1.674   6.917   0.355  0.2919  0.1368 -0.1276
 5444ntf    cn124950   1.771   6.804   0.459 -0.0511 -0.1975 -0.1679
 5444ntf    fn424951   1.535   7.171   0.686  0.3338 -0.1362  0.3559
 5444ntf    fn424952   1.360   7.074   0.748  0.4895 -0.0253  0.0798
 5444ntf    fn424953   1.548   6.983   0.778  0.1636  0.1710 -0.2650
 5444ntf    on524954   1.438   6.835   0.564 -0.2589 -0.4638 -0.6047
 5444ntf    on524955   1.356   7.048   0.459 -0.0021 -0.2628  0.1594
 5444ntf    on524956   1.764   7.007   0.289 -0.4007  1.3353  0.5365
 5444ntf    on524957   1.586   6.833   0.277 -0.3009  0.3538  0.2952
 5444ntf    fn424958   1.696   6.731   0.540  0.3739 -0.4940 -0.0360
 5444ntf    fn424959   1.842   6.725   0.380  0.2222  0.3221 -0.4388
 5444ntf    fn424960   1.859   6.856   0.543  0.0035 -0.4235 -0.0825
 5445ntf    cn124961   2.472   3.008   5.204 -0.1131 -0.3107 -0.3181
 5445ntf    sn224962   2.578   3.027   5.350 -0.1294  0.2672 -0.3812
 5445ntf    nn324963   2.475   2.976   5.457  0.2524 -0.2282 -0.2430
 5445ntf    sn224964   2.474   2.827   5.506 -0.2258 -0.0858  0.2000
 5445ntf    cn124965   2.621   2.819   5.613  0.1581 -0.0680 -0.3183
 5445ntf    fn424966   2.534   3.059   5.099  0.2032  0.3050  0.1634
 5445ntf    fn424967   2.445   2.882   5.171  0.1345 -0.5978  0.5441
 5445ntf    fn424968   2.355   3.066   5.223  0.0549 -0.3017  0.7673
 5445ntf    on524969   2.692   2.945   5.319 -0.1053 -0.0310  0.4498
 5445ntf    on524970   2.606   3.169   5.347 -0.4729  0.3498  0.1639
 5445ntf    on524971   2.498   2.724   5.408  0.6568 -0.0863  0.4037
 5445ntf    on524972   2.373   2.793   5.602 -0.6443  0.4761 -0.0397
 5445ntf    fn424973   2.635   2.929   5.685  0.1406  0.2350 -0.7734
 5445ntf    fn424974   2.625   2.720   5.701 -0.1435 -0.3249 -0.5898
 5445ntf    fn424975   2.735   2.807   5.547  0.4171  0.0108  0.1111
 5446ntf    cn124976   2.126   6.620   4.674 -0.2514  0.1669  0.1808
 5446ntf    sn224977   2.184   6.669   4.839 -0.0619  0.1314  0.1240
 5446ntf    nn324978   2.099   6.563   4.917  0.0769 -0.0363  0.0463
 5446ntf    sn224979   1.958   6.569   4.984  0.1325  0.5316  0.1145
 5446ntf    cn124980   1.883   6.421   4.909 -0.0669  0.5496  0.2778
 5446ntf    fn424981   2.182   6.693   4.579 -0.2749  0.0549  0.0820
 5446ntf    fn424982   2.162   6.498   4.638 -0.3544  0.2470 -0.1932
 5446ntf    fn424983   1.994   6.622   4.669 -0.2290 -0.0826 -0.5608
 5446ntf    on524984   2.326   6.644   4.840 -0.0172  0.3747  0.0848
 5446ntf    on524985   2.142   6.805   4.865 -0.7108 -0.2065  0.8518
 5446ntf    on524986   1.866   6.671   4.940 -0.3421 -0.1458 -0.4822
 5446ntf    on524987   1.961   6.544   5.126 -0.8307 -0.0211  0.0490
 5446ntf    fn424988   1.951   6.313   4.942 -0.4409  0.3200  0.2969
 5446ntf    fn424989   1.762   6.405   4.961 -0.1187 -0.2630 -0.0901
 5446ntf    fn424990   1.882   6.419   4.777  0.1062 -0.3563  0.2867
 5447ntf    cn124991   1.832   1.934   5.218 -0.1879  0.1455 -0.0872
 5447ntf    sn224992   1.849   2.018   5.058 -0.1014  0.2242 -0.0370
 5447ntf    nn324993   1.877   2.158   5.122 -0.3767  0.1688  0.2051
 5447ntf    sn224994   2.015   2.225   5.157 -0.3850  0.1414  0.2926
 5447ntf    cn124995   1.970   2.301   5.315  0.2978  0.7683  0.1897
 5447ntf    fn424996   1.788   2.000   5.324 -0.3036  0.1875 -0.1612
 5447ntf    fn424997   1.754   1.829   5.201  0.0602 -0.0508 -0.0074
 5447ntf    fn424998   1.941   1.872   5.261 -0.2274  0.3730  0.3428
 5447ntf    on524999   1.958   1.958   4.984 -0.0505  0.8812 -0.5088
 5447ntf    on525000   1.717   2.005   5.003  0.1580  0.8611 -0.8450
 5447ntf    on525001   2.039   2.346   5.082 -0.5274  0.3730  0.6198
 5447ntf    on525002   2.129   2.143   5.191 -0.1051  0.2986 -0.2446
 5447ntf    fn425003   2.075   2.340   5.387  0.3711  0.3788  0.2971
 5447ntf    fn425004   1.898   2.412   5.305 -0.4550  0.2586 -0.0967
 5447ntf    fn425005   1.898   2.220   5.391  0.2450  0.9396  0.3258
 5448ntf    cn125006   3.229   5.585   3.454  0.3401 -0.2997 -0.2952
 5448ntf    sn225007   3.286   5.550   3.624 -0.1271  0.0100 -0.0750
 5448ntf    nn325008   3.356   5.689   3.644 -0.0612 -0.0398  0.0371
 5448ntf    sn225009   3.464   5.736   3.748  0.2118  0.0699 -0.2945
 5448ntf    cn125010   3.585   5.794   3.626  0.3263  0.2596 -0.0923
 5448ntf    fn425011   3.121   5.660   3.446  0.1916 -0.5066 -0.2272
 5448ntf    fn425012   3.324   5.642   3.381 -0.1366  0.3201 -0.4332
 5448ntf    fn425013   3.200   5.475   3.386 -0.1925 -0.5349  0.3061
 5448ntf    on525014   3.163   5.538   3.698 -0.0572 -0.1389  0.0146
 5448ntf    on525015   3.370   5.438   3.591 -0.4312 -0.1053 -0.4829
 5448ntf    on525016   3.546   5.640   3.817  0.4182 -0.3192 -1.0714
 5448ntf    on525017   3.430   5.857   3.820  0.2790 -0.2657  0.3046
 5448ntf    fn425018   3.617   5.706   3.532  0.6617 -0.0692  0.3207
 5448ntf    fn425019   3.546   5.905   3.566  0.8115  0.5305  0.0834
 5448ntf    fn425020   3.703   5.825   3.678  0.3299 -0.1610  0.1541
 5449ntf    cn125021   7.017   0.586   1.454 -0.1214  0.1932  0.1202
 5449ntf    sn225022   7.044   0.465   1.322  0.0333  0.1580  0.1835
 5449ntf    nn325023   6.919   0.374   1.347 -0.1188  0.3087 -0.0202
 5449ntf    sn225024   6.904   0.220   1.373  0.0916  0.3295  0.2289
 5449ntf    cn125025   6.882   0.161   1.203 -0.2495  0.1105  0.3466
 5449ntf    fn425026   7.092   0.692   1.428  0.8746 -0.4549  0.2708
 5449ntf    fn425027   6.890   0.617   1.471 -0.2350 -0.3992  0.3586
 5449ntf    fn425028   7.047   0.540   1.575  0.8431  0.3654 -0.0426
 5449ntf    on525029   7.050   0.548   1.204  0.0891  0.3929  0.3509
 5449ntf    on525030   7.170   0.408   1.363 -0.2094 -0.2678  0.3476
 5449ntf    on525031   6.778   0.195   1.440 -0.0520  0.6922  0.0928
 5449ntf    on525032   7.019   0.143   1.413  0.4020  0.6965  0.0449
 5449ntf    fn425033   6.987   0.191   1.128 -0.1814 -0.2001  0.3169
 5449ntf    fn425034   6.870   0.029   1.204 -0.1592  0.1034  0.5141
 5449ntf    fn425035   6.774   0.209   1.144 -0.0463  0.1339 -0.0091
 5450ntf    cn125036   4.822   0.140   0.324  0.2629  0.2959 -0.0282
 5450ntf    sn225037   4.689   0.217   0.226 -0.1629 -0.1427  0.2012
 5450ntf    nn325038   4.670   0.107   0.116 -0.9450 -0.1438  0.3297
 5450ntf    sn225039   4.663   0.131  -0.039  0.0232  0.1047  0.3132
 5450ntf    cn125040   4.596  -0.030  -0.093 -0.0122  0.2090  0.0433
 5450ntf    fn425041   4.838   0.218   0.429  0.2201  0.7012 -0.3213
 5450ntf    fn425042   4.789   0.017   0.361 -0.1017  0.3256 -0.2447
 5450ntf    fn425043   4.933   0.136   0.252  0.2417 -0.2296 -0.0343
 5450ntf    on525044   4.581   0.202   0.320 -0.2149 -0.6796  0.0588
 5450ntf    on525045   4.735   0.349   0.191  0.6499 -0.5614 -0.3460
 5450ntf    on525046   4.790   0.126  -0.106 -0.0792 -0.1282  0.1318
 5450ntf    on525047   4.558   0.217  -0.089  0.6646  0.4224 -0.5088
 5450ntf    fn425048   4.668  -0.136  -0.058 -0.2229  0.0603  0.0245
 5450ntf    fn425049   4.473  -0.056  -0.051 -0.3831  0.2670 -0.9911
 5450ntf    fn425050   4.596  -0.036  -0.225  0.5424  0.1058  0.0435
 5451ntf    cn125051   6.841   5.911   1.052 -0.2811  0.1497  0.4283
 5451ntf    sn225052   6.804   6.089   1.060  0.1964  0.2725 -0.0825
 5451ntf    nn325053   6.654   6.076   1.103 -0.0170 -0.3498 -0.9747
 5451ntf    sn225054   6.546   6.188   1.085  0.1201 -0.0622 -0.0869
 5451ntf    cn125055   6.424   6.076   1.009  0.0705  0.0112 -0.1155
 5451ntf    fn425056   6.831   5.853   1.171 -0.1120 -0.1317  0.3061
 5451ntf    fn425057   6.759   5.847   0.970  0.3965  0.2083 -0.3055
 5451ntf    fn425058   6.967   5.893   1.017 -0.3726 -0.3108  0.3311
 5451ntf    on525059   6.884   6.132   1.172 -0.0227  0.0406  0.1645
 5451ntf    on525060   6.827   6.140   0.927  0.0395  0.4337 -0.0466
 5451ntf    on525061   6.568   6.287   0.982  0.0618  0.1106  0.0658
 5451ntf    on525062   6.476   6.224   1.206  0.4166 -0.4155  0.1910
 5451ntf    fn425063   6.468   5.989   0.919 -0.7925 -0.6158  0.0537
 5451ntf    fn425064   6.362   5.996   1.094 -0.5319  0.5782 -0.0182
 5451ntf    fn425065   6.328   6.136   0.942  0.1367  0.2800  0.0283
 5452ntf    cn125066   1.036   7.390   2.810  0.0810  0.2973 -0.3401
 5452ntf    sn225067   1.091   7.217   2.802  0.1386  0.3163 -0.3705
 5452ntf    nn325068   1.114   7.196   2.648  0.0679 -0.1449 -0.3212
 5452ntf    sn225069   1.003   7.162   2.541 -0.2588 -0.1551  0.0185
 5452ntf    cn125070   0.999   6.981   2.555  0.0787 -0.1569  0.1179
 5452ntf    fn425071   0.974   7.433   2.918  0.3959  0.2488 -0.1408
 5452ntf    fn425072   1.139   7.471   2.791  0.4918 -0.1644 -0.1103
 5452ntf    fn425073   0.940   7.412   2.722  0.2327  0.5274 -0.4498
 5452ntf    on525074   1.221   7.228   2.863 -0.0992 -0.3441  0.2654
 5452ntf    on525075   0.984   7.144   2.867 -0.0976  0.4805 -0.5745
 5452ntf    on525076   1.054   7.198   2.411 -0.9594  0.1008 -0.1872
 5452ntf    on525077   0.876   7.221   2.574 -0.1592  0.2056 -0.2363
 5452ntf    fn425078   0.902   6.932   2.631 -0.1573 -0.1930 -0.2040
 5452ntf    fn425079   0.978   6.924   2.437 -0.6408 -0.0134  0.1690
 5452ntf    fn425080   1.112   6.925   2.593 -0.1592 -0.7128  0.0116
 5453ntf    cn125081   0.850   4.158   3.331 -0.0166 -0.3606  0.0996
 5453ntf    sn225082   0.754   4.272   3.434 -0.1912 -0.2635 -0.1705
 5453ntf    nn325083   0.714   4.396   3.345  0.2123  0.0808  0.1233
 5453ntf    sn225084   0.779   4.538   3.331  0.0181  0.1350 -0.2166
 5453ntf    cn125085   0.837   4.540   3.159  0.0277  0.1662 -0.2129
 5453ntf    fn425086   0.783   4.129   3.221  0.1919 -0.1707 -0.0784
 5453ntf    fn425087   0.960   4.218   3.288 -0.4914  0.2004 -0.3489
 5453ntf    fn425088   0.887   4.043   3.386  0.0861 -0.2635  0.2367
 5453ntf    on525089   0.639   4.197   3.479 -0.3715 -0.1352 -0.4157
 5453ntf    on525090   0.845   4.309   3.540 -0.1001  0.6322 -0.5501
 5453ntf    on525091   0.891   4.576   3.412  0.0977 -0.3637 -0.0891
 5453ntf    on525092   0.674   4.637   3.325 -0.2994 -0.1996 -0.2031
 5453ntf    fn425093   0.914   4.436   3.127 -0.2453 -0.0813 -0.0700
 5453ntf    fn425094   0.742   4.539   3.067  0.3336  0.1878 -0.5371
 5453ntf    fn425095   0.914   4.645   3.135 -0.5323  0.6339  0.0448
 5454ntf    cn125096   6.946   5.658   7.591 -0.0023 -0.1300  0.2709
 5454ntf    sn225097   6.807   5.610   7.698 -0.1347 -0.1070  0.1096
 5454ntf    nn325098   6.755   5.754   7.734 -0.4442 -0.1946  0.0161
 5454ntf    sn225099   6.636   5.830   7.667 -0.2331 -0.1196 -0.2757
 5454ntf    cn125100   6.498   5.769   7.769 -0.4960  0.1655 -0.4559
 5454ntf    fn425101   6.991   5.564   7.509 -0.5499  0.2707 -0.4984
 5454ntf    fn425102   6.912   5.760   7.515  0.0592 -0.2825  0.0357
 5454ntf    fn425103   7.045   5.702   7.667  0.2318 -0.4909  0.1797
 5454ntf    on525104   6.720   5.535   7.611  0.1930 -0.0022 -0.3124
 5454ntf    on525105   6.871   5.549   7.812  0.1786  0.2430  0.1224
 5454ntf    on525106   6.590   5.808   7.532 -0.2598  0.1566 -0.3131
 5454ntf    on525107   6.631   5.971   7.698 -0.1995 -0.0552 -0.5599
 5454ntf    fn425108   6.480   5.638   7.772  0.2663  0.0622  0.4113
 5454ntf    fn425109   6.513   5.817   7.892 -0.4574  0.3209 -0.5199
 5454ntf    fn425110   6.385   5.824   7.729 -0.5234  0.1801 -0.3594
 5455ntf    cn125111   6.608   2.256   5.131  0.1315  0.2717 -0.1497
 5455ntf    sn225112   6.428   2.282   5.128  0.0414 -0.3079  0.1856
 5455ntf    nn325113   6.399   2.224   4.984 -0.3819  0.0810  0.1149
 5455ntf    sn225114   6.346   2.303   4.859 -0.3301  0.1419  0.1317
 5455ntf    cn125115   6.507   2.351   4.789 -0.0298  0.0058  0.7241
 5455ntf    fn425116   6.661   2.264   5.009 -0.2705 -0.0143 -0.3426
 5455ntf    fn425117   6.672   2.342   5.210  0.3542  0.1041 -0.1463
 5455ntf    fn425118   6.643   2.140   5.182  0.3142  0.2757 -0.2631
 5455ntf    on525119   6.381   2.199   5.236 -0.0381 -0.2820  0.1703
 5455ntf    on525120   6.402   2.422   5.148  0.5185 -0.1097 -0.5434
 5455ntf    on525121   6.283   2.430   4.884  0.2357  0.4280  0.1292
 5455ntf    on525122   6.284   2.217   4.762  0.1540 -0.3944  0.2873
 5455ntf    fn425123   6.502   2.417   4.675  0.0066  0.0125  0.7262
 5455ntf    fn425124   6.585   2.424   4.868  0.4891  0.0342  0.1949
 5455ntf    fn425125   6.587   2.248   4.767 -0.0084  0.3061 -0.7092
 5456ntf    cn125126   7.360   5.273   7.486 -0.1395 -0.3379  0.0179
 5456ntf    sn225127   7.450   5.376   7.606 -0.2548 -0.3268  0.0950
 5456ntf    nn325128   7.505   5.270   7.707  0.0787 -0.4781 -0.2444
 5456ntf    sn225129   7.601   5.155   7.659  0.4740 -0.2199 -0.0767
 5456ntf    cn125130   7.747   5.181   7.765  0.0981  0.1273  0.3606
 5456ntf    fn425131   7.437   5.254   7.380 -0.2156  0.6016 -0.2189
 5456ntf    fn425132   7.338   5.148   7.521  0.3540 -0.0939  1.2444
 5456ntf    fn425133   7.241   5.326   7.462 -0.1153 -0.2195  0.1589
 5456ntf    on525134   7.549   5.455   7.537 -0.1692 -0.3002  0.2486
 5456ntf    on525135   7.341   5.453   7.661 -0.1956 -0.3052  0.1807
 5456ntf    on525136   7.649   5.161   7.523  0.0771  0.4528 -0.1918
 5456ntf    on525137   7.545   5.028   7.698  0.2781 -0.1666 -0.1829
 5456ntf    fn425138   7.827   5.076   7.770 -0.5388 -0.4003 -0.1934
 5456ntf    fn425139   7.818   5.286   7.728  0.1770 -0.1067 -0.1712
 5456ntf    fn425140   7.716   5.202   7.891  0.3608  0.3706  0.3868
 5457ntf    cn125141   2.327   2.678   0.340  0.5831 -0.0060 -0.1780
 5457ntf    sn225142   2.409   2.829   0.282  0.3804  0.1253 -0.1261
 5457ntf    nn325143   2.330   2.849   0.148  0.1696  0.4373  0.0441
 5457ntf    sn225144   2.395   2.831   0.006  0.1715 -0.1330  0.1141
 5457ntf    cn125145   2.252   2.836  -0.106  0.2189  0.0094  0.0589
 5457ntf    fn425146   2.361   2.651   0.465 -0.3019 -0.4018 -0.0084
 5457ntf    fn425147   2.194   2.679   0.346  0.5837 -0.3656 -0.0093
 5457ntf    fn425148   2.363   2.572   0.269  0.6597  0.1051 -0.3031
 5457ntf    on525149   2.371   2.928   0.379 -0.5532  0.0286 -0.3838
 5457ntf    on525150   2.550   2.797   0.272  0.3256 -0.1803  0.0572
 5457ntf    on525151   2.445   2.699  -0.023  0.0258 -0.0967 -0.3049
 5457ntf    on525152   2.475   2.944  -0.036 -0.1496  0.2037  0.3993
 5457ntf    fn425153   2.209   2.959  -0.128  0.2192 -0.0205 -0.1037
 5457ntf    fn425154   2.266   2.779  -0.224 -0.2014 -0.0406  0.0324
 5457ntf    fn425155   2.152   2.773  -0.047 -0.0973  0.3910 -0.0691
 5458ntf    cn125156   4.220   2.265   0.116 -0.2031 -0.4977  0.3463
 5458ntf    sn225157   4.114   2.396   0.183  0.0601 -0.0037 -0.1970
 5458ntf    nn325158   4.087   2.331   0.323  0.0652  0.0291 -0.1806
 5458ntf    sn225159   4.160   2.381   0.453  0.1727  0.1009 -0.2689
 5458ntf    cn125160   4.053   2.519   0.506 -0.0032 -0.0507 -0.2308
 5458ntf    fn425161   4.163   2.145   0.113 -0.1570 -0.5089 -0.3874
 5458ntf    fn425162   4.236   2.302  -0.010 -0.0815 -0.5586  0.3436
 5458ntf    fn425163   4.339   2.252   0.171  0.2664 -0.2899 -0.6115
 5458ntf    on525164   4.188   2.520   0.182 -0.1819  0.1418 -0.2085
 5458ntf    on525165   3.999   2.390   0.095  0.0959 -0.2058 -0.2309
 5458ntf    on525166   4.298   2.418   0.436  0.3780 -0.7922 -0.5715
 5458ntf    on525167   4.141   2.281   0.555 -0.3569  0.1425 -0.3237
 5458ntf    fn425168   3.924   2.488   0.508 -0.0262  0.0739  0.2644
 5458ntf    fn425169   4.073   2.557   0.631 -0.7649 -0.1692 -0.0627
 5458ntf    fn425170   4.069   2.626   0.430 -0.0027 -0.0492 -0.2282
 5459ntf    cn125171   1.734   4.638   1.536 -0.0628 -0.3331  0.1919
 5459ntf    sn225172   1.692   4.784   1.436 -0.3169 -0.2810  0.3749
 5459ntf    nn325173   1.676   4.712   1.298  0.3520 -0.0324  0.1652
 5459ntf    sn225174   1.581   4.736   1.175  0.7319 -0.0761 -0.1381
 5459ntf    cn125175   1.481   4.586   1.198  0.2518  0.2787  0.0843
 5459ntf    fn425176   1.637   4.551   1.558 -0.1556 -0.1777  0.4163
 5459ntf    fn425177   1.840   4.570   1.495 -0.0546 -0.0272 -0.3017
 5459ntf    fn425178   1.773   4.676   1.657 -0.8685  0.5671  0.1789
 5459ntf    on525179   1.565   4.820   1.494 -0.4173 -0.2432  0.1297
 5459ntf    on525180   1.805   4.872   1.450 -0.5610  0.1045 -0.0631
 5459ntf    on525181   1.645   4.718   1.047  0.6139  0.5664 -0.2914
 5459ntf    on525182   1.492   4.848   1.193  0.5630 -0.1927 -0.2468
 5459ntf    fn425183   1.419   4.588   1.315  0.0874  0.2794 -0.0019
 5459ntf    fn425184   1.382   4.604   1.112  0.2551 -0.3762 -0.0640
 5459ntf    fn425185   1.524   4.461   1.187  0.0174  0.1861  0.2017
 5460ntf    cn125186   6.549   3.563   7.220  0.1634  0.3777  0.2598
 5460ntf    sn225187   6.610   3.710   7.130 -0.4544  0.2699 -0.3450
 5460ntf    nn325188   6.681   3.650   7.004 -0.5020  0.2824 -0.3780
 5460ntf    sn225189   6.834   3.643   6.969 -0.3172 -0.0680  0.4841
 5460ntf    cn125190   6.851   3.463   6.983 -0.2231 -0.0742  0.2963
 5460ntf    fn425191   6.472   3.482   7.149  0.4242  0.1708  0.2105
 5460ntf    fn425192   6.644   3.492   7.278 -0.1128 -0.0022  0.2441
 5460ntf    fn425193   6.465   3.597   7.315  0.3199  0.3913  0.3932
 5460ntf    on525194   6.492   3.786   7.097 -0.4539  0.1496 -0.6194
 5460ntf    on525195   6.699   3.761   7.231 -0.9530  0.6144 -0.0733
 5460ntf    on525196   6.940   3.688   7.056 -0.0066 -0.0752  0.1099
 5460ntf    on525197   6.863   3.666   6.830 -0.8120 -0.4664  0.3138
 5460ntf    fn425198   6.776   3.397   6.897 -0.1094 -0.1385  0.2468
 5460ntf    fn425199   6.974   3.419   6.965 -0.2438 -0.0291  0.0433
 5460ntf    fn425200   6.809   3.421   7.102 -0.4621  0.6081  0.4583
 5461ntf    cn125201   7.583   3.188   4.307  0.1879 -0.1134 -0.1535
 5461ntf    sn225202   7.731   3.293   4.317  0.0721  0.0546 -0.2056
 5461ntf    nn325203   7.690   3.394   4.204 -0.1993  0.6237  0.3862
 5461ntf    sn225204   7.770   3.416   4.071 -0.0295 -0.1032  0.3610
 5461ntf    cn125205   7.927   3.469   4.145  0.0040  0.3106  0.0032
 5461ntf    fn425206   7.600   3.081   4.383 -0.5237 -0.1247 -0.0045
 5461ntf    fn425207   7.471   3.251   4.339 -0.0607 -0.6446  0.0301
 5461ntf    fn425208   7.555   3.136   4.188  0.2993 -0.3195 -0.0901
 5461ntf    on525209   7.722   3.352   4.449 -0.7010 -0.1301 -0.1707
 5461ntf    on525210   7.847   3.215   4.285  0.1684 -0.1876  0.6973
 5461ntf    on525211   7.724   3.536   4.004  0.1687 -0.1184  0.1934
 5461ntf    on525212   7.799   3.297   3.994 -0.5130 -0.3238  0.5204
 5461ntf    fn425213   7.990   3.558   4.070 -0.0962 -0.0372 -0.4951
 5461ntf    fn425214   7.917   3.517   4.268 -0.1566 -0.1262  0.1609
 5461ntf    fn425215   8.012   3.368   4.160 -0.0773  0.1714 -0.4801
 5462ntf    cn125216   0.579   0.538   1.115  0.2261  0.2720  0.2825
 5462ntf    sn225217   0.674   0.609   0.978 -0.2146 -0.0320 -0.1834
 5462ntf    nn325218   0.563   0.689   0.901  0.0879  0.7332  0.1633
 5462ntf    sn225219   0.494   0.826   0.934 -0.4667  0.3807  0.4763
 5462ntf    cn125220   0.454   0.896   0.771 -0.0679 -0.0265  0.2026
 5462ntf    fn425221   0.534   0.633   1.195  0.5221  0.5582  0.1104
 5462ntf    fn425222   0.479   0.464   1.069  0.9467 -0.6143  0.1104
 5462ntf    fn425223   0.654   0.460   1.191 -0.2229 -0.4830 -0.0405
 5462ntf    on525224   0.781   0.682   1.043  0.0871 -0.1958 -0.4929
 5462ntf    on525225   0.718   0.496   0.901  0.1103  0.2149 -0.3661
 5462ntf    on525226   0.593   0.925   0.969  0.3062 -0.2395  0.0636
 5462ntf    on525227   0.372   0.817   1.011 -0.0501 -0.3596  1.0526
 5462ntf    fn425228   0.545   0.867   0.679 -0.3672  0.3580 -0.2237
 5462ntf    fn425229   0.338   0.843   0.735  0.0073 -0.3332  0.4110
 5462ntf    fn425230   0.433   1.026   0.771  0.2347  0.0267 -0.4012
 5463ntf    cn125231   4.712   5.791   2.821 -0.0259 -0.3429  0.4092
 5463ntf    sn225232   4.650   5.957   2.782  0.2000 -0.4462 -0.4283
 5463ntf    nn325233   4.787   6.033   2.775  0.2276 -0.4187  0.2678
 5463ntf    sn225234   4.842   6.149   2.865 -0.0398 -0.0247 -0.0714
 5463ntf    cn125235   4.856   6.282   2.741  0.3414  0.2879  0.3052
 5463ntf    fn425236   4.778   5.782   2.935  0.4829 -0.4097  0.1099
 5463ntf    fn425237   4.620   5.697   2.839 -0.4546  0.0676  0.3766
 5463ntf    fn425238   4.781   5.746   2.717 -0.9770  0.1532 -0.4534
 5463ntf    on525239   4.583   5.939   2.656 -0.8007 -0.6867  0.1269
 5463ntf    on525240   4.572   5.982   2.901  0.1343  0.4709 -0.6544
 5463ntf    on525241   4.976   6.138   2.916 -0.1234 -0.2697  0.0939
 5463ntf    on525242   4.743   6.206   2.954 -0.2861 -0.8538  0.1915
 5463ntf    fn425243   4.951   6.254   2.654  0.0930  0.7896 -0.1332
 5463ntf    fn425244   4.760   6.284   2.650 -0.0759 -0.0427  0.7298
 5463ntf    fn425245   4.874   6.406   2.785  0.5221  0.3047  0.1848
 5464ntf    cn125246   6.064   2.002   6.035  0.0333  0.1332 -0.1951
 5464ntf    sn225247   5.910   1.906   6.046  0.0138  0.1774 -0.0854
 5464ntf    nn325248   5.811   2.025   6.070 -0.2131  0.0279 -0.2699
 5464ntf    sn225249   5.763   2.079   6.209  0.1007 -0.0761 -0.1216
 5464ntf    cn125250   5.605   1.992   6.232  0.0221  0.1518  0.2185
 5464ntf    fn425251   6.060   2.086   5.933  0.5024 -0.0915 -0.3998
 5464ntf    fn425252   6.096   2.061   6.149 -0.5271  0.1257 -0.0306
 5464ntf    fn425253   6.167   1.925   6.004 -0.0081 -0.0130  0.0257
 5464ntf    on525254   5.892   1.855   5.912  0.7116  0.2979 -0.2290
 5464ntf    on525255   5.937   1.806   6.147 -0.4598 -0.1552 -0.2816
 5464ntf    on525256   5.732   2.220   6.209 -0.2622 -0.1540  0.5056
 5464ntf    on525257   5.845   2.033   6.319  0.1608  0.5291  0.0911
 5464ntf    fn425258   5.612   1.861   6.218 -0.4305  0.1191  0.2800
 5464ntf    fn425259   5.540   2.012   6.345 -0.6136  0.0669 -0.1265
 5464ntf    fn425260   5.513   2.027   6.143 -0.3136 -0.6879  0.2242
 5465ntf    cn125261   1.344   1.944   5.417 -0.0706  0.0255  0.1135
 5465ntf    sn225262   1.372   2.110   5.348  0.4166 -0.0184  0.2024
 5465ntf    nn325263   1.292   2.198   5.451 -0.0201 -0.0219 -0.1306
 5465ntf    sn225264   1.341   2.273   5.580 -0.2217 -0.2798  0.0974
 5465ntf    cn125265   1.230   2.229   5.717 -0.1380  0.2543  0.3400
 5465ntf    fn425266   1.217   1.917   5.445 -0.0542  0.0521  0.2134
 5465ntf    fn425267   1.386   1.845   5.340  0.2192  0.2446 -0.0084
 5465ntf    fn425268   1.409   1.917   5.529  0.0323  0.2739  0.1124
 5465ntf    on525269   1.513   2.137   5.347  0.4263 -0.0767  0.0420
 5465ntf    on525270   1.309   2.110   5.218  0.5943 -0.6675  0.1121
 5465ntf    on525271   1.315   2.415   5.570 -0.7997 -0.4061 -0.1969
 5465ntf    on525272   1.471   2.232   5.628  0.2451  0.5091 -0.4694
 5465ntf    fn425273   1.299   2.234   5.830  0.2786 -0.2173  0.1134
 5465ntf    fn425274   1.124   2.306   5.731 -0.1418  0.4451 -0.6832
 5465ntf    fn425275   1.181   2.107   5.702 -0.8104  0.6407 -0.7392
 5466ntf    cn125276   3.482   2.750   6.629 -0.2036  0.3968  0.1361
 5466ntf    sn225277   3.506   2.655   6.782 -0.1713 -0.0058 -0.1149
 5466ntf    nn325278   3.355   2.641   6.823 -0.1864 -0.0549 -0.1870
 5466ntf    sn225279   3.258   2.519   6.807  0.2553 -0.3857 -0.3435
 5466ntf    cn125280   3.321   2.383   6.910  0.0852 -0.1174  0.1124
 5466ntf    fn425281   3.467   2.676   6.520  0.2367  0.0560  0.3070
 5466ntf    fn425282   3.364   2.810   6.636 -0.2187  0.3812  0.0202
 5466ntf    fn425283   3.574   2.840   6.600 -0.0092  0.0406 -0.3770
 5466ntf    on525284   3.572   2.531   6.751  0.1026 -0.2235  1.2798
 5466ntf    on525285   3.578   2.757   6.855 -0.1296 -0.0821 -0.0497
 5466ntf    on525286   3.249   2.461   6.675 -0.7529 -0.0023 -0.4536
 5466ntf    on525287   3.128   2.541   6.865  0.3195  0.1075 -0.3855
 5466ntf    fn425288   3.429   2.330   6.856  0.0993  0.3133 -0.2882
 5466ntf    fn425289   3.360   2.421   7.031 -0.0871 -0.3178  0.2311
 5466ntf    fn425290   3.230   2.288   6.925  0.3556 -0.4317 -0.2366
 5467ntf    cn125291   1.163   4.592   4.641  0.2587  0.5058 -0.0971
 5467ntf    sn225292   1.160   4.579   4.460 -0.1280  0.1678 -0.0693
 5467ntf    nn325293   1.006   4.547   4.464 -0.0697 -0.0857  0.1956
 5467ntf    sn225294   0.934   4.469   4.349 -0.0748  0.0697  0.0926
 5467ntf    cn125295   0.943   4.302   4.419  0.1159 -0.0014 -0.0986
 5467ntf    fn425296   1.276   4.645   4.684  0.0518 -0.1384  1.3130
 5467ntf    fn425297   1.074   4.675   4.693  0.1118  0.0389  0.4079
 5467ntf    fn425298   1.140   4.474   4.698  0.4399  0.4105 -0.2210
 5467ntf    on525299   1.201   4.709   4.412 -0.4659  0.3179  0.0389
 5467ntf    on525300   1.241   4.463   4.435 -0.3606 -0.2121  0.8943
 5467ntf    on525301   0.990   4.459   4.216  0.4249  0.0992  0.2989
 5467ntf    on525302   0.793   4.499   4.357  0.0135  0.4799  0.1084
 5467ntf    fn425303   0.902   4.213   4.329  0.4986 -0.1482 -0.1290
 5467ntf    fn425304   1.070   4.273   4.439  0.1146 -0.3830 -0.6256
 5467ntf    fn425305   0.877   4.280   4.532 -0.3241  0.2285 -0.3087
 5468ntf    cn125306   4.978   5.293   4.352  0.1815  0.2234 -0.4510
 5468ntf    sn225307   4.909   5.454   4.401  0.1333 -0.1108  0.5902
 5468ntf    nn325308   4.773   5.441   4.323 -0.0452  0.5030  0.7899
 5468ntf    sn225309   4.631   5.494   4.362 -0.3558  0.1242  0.1868
 5468ntf    cn125310   4.559   5.348   4.445 -0.0645 -0.2456 -0.2075
 5468ntf    fn425311   4.987   5.293   4.220  0.0224  0.4511 -0.4626
 5468ntf    fn425312   5.098   5.275   4.404  0.1705  0.5461 -0.3110
 5468ntf    fn425313   4.909   5.184   4.380 -0.3576  0.6184 -0.2161
 5468ntf    on525314   4.879   5.449   4.542  0.1013  0.1522  0.5933
 5468ntf    on525315   5.005   5.550   4.354  0.0636  0.1367  0.9469
 5468ntf    on525316   4.542   5.500   4.249 -0.1253 -0.2890 -0.0206
 5468ntf    on525317   4.622   5.604   4.454 -0.5296  0.7249 -0.5412
 5468ntf    fn425318   4.430   5.361   4.470 -0.0800 -0.1956 -0.3136
 5468ntf    fn425319   4.575   5.248   4.360  0.3153 -0.7538  0.4602
 5468ntf    fn425320   4.625   5.299   4.549 -0.5501 -0.6102 -0.0684
 5469ntf    cn125321   2.995   0.155   4.388  0.4157  0.4774  0.2666
 5469ntf    sn225322   3.123   0.042   4.452  0.0748 -0.0035  0.1074
 5469ntf    nn325323   3.233   0.062   4.342  0.0422 -0.4760 -0.0121
 5469ntf    sn225324   3.387   0.078   4.370 -0.0753  0.2728  0.2156
 5469ntf    cn125325   3.453  -0.005   4.223  0.0713  0.2159  0.3143
 5469ntf    fn425326   2.974   0.136   4.258 -0.4799 -0.5816  0.5536
 5469ntf    fn425327   2.882   0.137   4.452  0.3610 -0.2418 -0.0236
 5469ntf    fn425328   3.020   0.284   4.403 -0.4126  0.6640  0.0803
 5469ntf    on525329   3.143   0.102   4.582  0.3006  0.4120 -0.1148
 5469ntf    on525330   3.064  -0.089   4.447  0.7030 -0.2873  0.0966
 5469ntf    on525331   3.445  -0.002   4.474 -0.3749 -0.3261 -0.0740
 5469ntf    on525332   3.438   0.211   4.348 -0.1278  0.4168  0.9292
 5469ntf    fn425333   3.423   0.067   4.116  0.3148 -0.6019 -0.3101
 5469ntf    fn425334   3.585  -0.010   4.227  0.0523 -0.7992 -0.0659
 5469ntf    fn425335   3.399  -0.123   4.199 -0.2959  0.3976  0.2448
 5470ntf    cn125336   2.065   1.618   4.929  0.0148  0.0351 -0.2683
 5470ntf    sn225337   2.155   1.503   5.038  0.1529 -0.1733 -0.6012
 5470ntf    nn325338   2.030   1.441   5.110  0.2331 -0.2071 -0.4919
 5470ntf    sn225339   2.002   1.295   5.158  0.2004 -0.1424 -0.3132
 5470ntf    cn125340   2.093   1.289   5.315  0.0822 -0.0970 -0.2427
 5470ntf    fn425341   2.137   1.715   4.876  0.3040 -0.0727 -0.0739
 5470ntf    fn425342   2.007   1.555   4.828 -0.8364  0.0028  0.2278
 5470ntf    fn425343   1.968   1.680   4.994  0.1310 -0.2320  0.1623
 5470ntf    on525344   2.226   1.412   4.952  0.1442 -0.8669  0.1122
 5470ntf    on525345   2.243   1.587   5.115  0.0119 -0.3578 -0.2348
 5470ntf    on525346   2.049   1.190   5.071  0.7032 -0.3655  0.2203
 5470ntf    on525347   1.865   1.277   5.201  0.5071  0.1208  0.7954
 5470ntf    fn425348   2.099   1.172   5.377 -0.7760 -0.0407 -0.0410
 5470ntf    fn425349   2.221   1.317   5.301  0.0740  0.2548  0.3344
 5470ntf    fn425350   2.051   1.377   5.405  0.1616  0.2444 -0.5374
 5471ntf    cn125351   0.178   7.250   4.544  0.2413  0.0263  0.5811
 5471ntf    sn225352   0.097   7.396   4.617  0.1528  0.1533  0.2296
 5471ntf    nn325353   0.022   7.454   4.491  0.7393 -0.0684 -0.2264
 5471ntf    sn225354   0.062   7.557   4.380  0.1430  0.1652 -0.2268
 5471ntf    cn125355  -0.076   7.522   4.266 -0.0638  0.3408 -0.0302
 5471ntf    fn425356   0.090   7.158   4.507 -0.0093  0.3897  0.2663
 5471ntf    fn425357   0.248   7.279   4.435  0.2293 -0.3805  0.4644
 5471ntf    fn425358   0.253   7.180   4.628  0.4794  0.1910  0.5084
 5471ntf    on525359   0.001   7.349   4.713 -0.0638 -0.4446 -0.2690
 5471ntf    on525360   0.209   7.474   4.661  0.0650  0.4451 -0.0609
 5471ntf    on525361   0.172   7.510   4.299  0.1977  0.5728 -0.3918
 5471ntf    on525362   0.061   7.692   4.430  0.2881 -0.0362  0.3248
 5471ntf    fn425363  -0.193   7.557   4.317 -0.2785 -0.2738 -0.0958
 5471ntf    fn425364  -0.056   7.589   4.154  0.5607 -0.0828 -0.1762
 5471ntf    fn425365  -0.076   7.391   4.245  0.4727  0.2735  0.3467
 5472ntf    cn125366   5.358   1.843   7.220 -0.1992  0.0221 -0.2034
 5472ntf    sn225367   5.424   1.958   7.345 -0.3017 -0.3579  0.2043
 5472ntf    nn325368   5.299   2.023   7.414 -0.4545 -0.2089 -0.2131
 5472ntf    sn225369   5.282   2.085   7.557  0.3072  0.2261 -0.3076
 5472ntf    cn125370   5.192   1.950   7.639  0.0272  0.4858 -0.1881
 5472ntf    fn425371   5.291   1.905   7.125 -0.1388  0.7206  0.2037
 5472ntf    fn425372   5.449   1.762   7.168  0.1700  0.1895  0.1721
 5472ntf    fn425373   5.276   1.761   7.285 -0.1702  0.0128 -0.1773
 5472ntf    on525374   5.511   1.871   7.420  0.0597 -0.5421 -0.4238
 5472ntf    on525375   5.494   2.044   7.254 -0.0289 -0.0180  0.7303
 5472ntf    on525376   5.200   2.203   7.555 -0.5272 -0.3478 -0.5399
 5472ntf    on525377   5.408   2.097   7.628 -0.0288  1.0128  0.1661
 5472ntf    fn425378   5.243   1.831   7.613 -0.3892  0.3803 -0.5511
 5472ntf    fn425379   5.196   1.964   7.770 -0.0453  0.5342 -0.1907
 5472ntf    fn425380   5.067   1.956   7.594  0.1199  0.8108 -0.4013
 5473ntf    cn125381   4.288   6.967   4.791  0.3323  0.3309  0.3739
 5473ntf    sn225382   4.249   6.817   4.887 -0.0332  0.2988  0.1735
 5473ntf    nn325383   4.385   6.812   4.965 -0.1230  0.0865  0.3164
 5473ntf    sn225384   4.420   6.713   5.081 -0.1808 -0.1330  0.1481
 5473ntf    cn125385   4.387   6.813   5.229 -0.2060 -0.4316  0.3454
 5473ntf    fn425386   4.201   6.995   4.695  0.2278 -0.1353  0.3259
 5473ntf    fn425387   4.306   7.075   4.865 -0.0615  0.4461  0.3038
 5473ntf    fn425388   4.406   6.954   4.731 -0.0317 -0.4791 -0.1943
 5473ntf    on525389   4.127   6.852   4.956 -0.1572  0.1611  0.0258
 5473ntf    on525390   4.245   6.727   4.774  0.8079 -0.6580  0.8944
 5473ntf    on525391   4.562   6.688   5.077 -0.2141 -0.2601 -0.2482
 5473ntf    on525392   4.327   6.604   5.095 -0.1016 -0.1783  0.3326
 5473ntf    fn425393   4.270   6.875   5.233  0.2136  0.3897  0.1598
 5473ntf    fn425394   4.391   6.740   5.339 -0.5859 -0.6234  0.2345
 5473ntf    fn425395   4.469   6.916   5.244  0.0073 -0.5868  0.2621
 5474ntf    cn125396   6.409   5.407   3.985 -0.1726  0.2665 -0.6557
 5474ntf    sn225397   6.398   5.452   4.161  0.0488 -0.2153 -0.5191
 5474ntf    nn325398   6.447   5.318   4.227 -0.3333  0.2271  0.6917
 5474ntf    sn225399   6.559   5.288   4.333  0.1451 -0.3749  0.0319
 5474ntf    cn125400   6.474   5.327   4.489  0.2022 -0.0165 -0.0266
 5474ntf    fn425401   6.375   5.502   3.899  0.6869  0.2244 -1.0528
 5474ntf    fn425402   6.534   5.387   3.947 -0.0858 -0.1904 -0.1424
 5474ntf    fn425403   6.343   5.299   3.947  0.2323 -0.4120  0.5436
 5474ntf    on525404   6.478   5.571   4.169  0.0693 -0.2937  0.6372
 5474ntf    on525405   6.257   5.470   4.181  0.1522 -0.0949  0.1178
 5474ntf    on525406   6.672   5.377   4.320 -0.2332  0.0913 -0.0819
 5474ntf    on525407   6.577   5.145   4.342  0.2780 -0.3521  0.1372
 5474ntf    fn425408   6.357   5.267   4.503  0.4851 -0.6401 -0.3005
 5474ntf    fn425409   6.545   5.311   4.599  0.4934  0.6321 -0.1158
 5474ntf    fn425410   6.439   5.455   4.495 -0.1808 -0.1436  0.5539
 5475ntf    cn125411   4.077   1.273   2.858 -0.2293 -0.2303 -0.0152
 5475ntf    sn225412   3.955   1.388   2.928  0.1474 -0.0117  0.2836
 5475ntf    nn325413   3.904   1.467   2.802  0.8681  0.5295  0.3265
 5475ntf    sn225414   3.883   1.623   2.794  0.0879  0.4178  0.1123
 5475ntf    cn125415   3.714   1.633   2.859  0.0724  0.0614  0.1303
 5475ntf    fn425416   4.127   1.208   2.962 -0.9023 -0.2996  0.2699
 5475ntf    fn425417   4.031   1.179   2.777 -0.2089  0.2566 -0.5950
 5475ntf    fn425418   4.177   1.338   2.801 -0.6878  0.6295  0.1446
 5475ntf    on525419   3.863   1.292   2.982 -0.2720  0.2619  0.0575
 5475ntf    on525420   4.042   1.461   3.017  0.4025 -0.1428  0.1423
 5475ntf    on525421   3.870   1.670   2.658  0.6751 -0.1598 -0.1519
 5475ntf    on525422   3.962   1.712   2.876  0.5636 -0.0087  0.1278
 5475ntf    fn425423   3.626   1.579   2.776 -0.4960  0.4546  0.4656
 5475ntf    fn425424   3.703   1.578   2.979 -0.3773 -0.3921 -0.1143
 5475ntf    fn425425   3.663   1.755   2.864 -0.6436 -0.2363  0.2592
 5476ntf    cn125426   1.483   3.861   4.473  0.3147  0.1636  0.1894
 5476ntf    sn225427   1.407   3.704   4.421 -0.2519  0.5241 -0.0737
 5476ntf    nn325428   1.453   3.704   4.271  0.1970 -0.4516  0.0613
 5476ntf    sn225429   1.561   3.626   4.187  0.2095  0.0428 -0.3832
 5476ntf    cn125430   1.456   3.486   4.139 -0.1361  0.2785 -0.3174
 5476ntf    fn425431   1.606   3.852   4.521  0.3466 -0.0947  0.0638
 5476ntf    fn425432   1.488   3.948   4.373 -0.0919 -0.4484 -0.3736
 5476ntf    fn425433   1.409   3.926   4.561 -0.3750 -0.2746 -0.0583
 5476ntf    on525434   1.467   3.605   4.506  0.1299  0.7402 -0.0894
 5476ntf    on525435   1.266   3.730   4.436 -0.2156  0.2140  0.8289
 5476ntf    on525436   1.662   3.560   4.265  0.1299  0.4343  0.0605
 5476ntf    on525437   1.595   3.675   4.056  0.3170 -0.5087 -0.5642
 5476ntf    fn425438   1.437   3.401   4.238 -0.1748  0.2922 -0.3124
 5476ntf    fn425439   1.334   3.523   4.101 -0.2811  0.7533  0.5759
 5476ntf    fn425440   1.512   3.412   4.045 -0.0397 -0.4457  0.2981
 5477ntf    cn125441   0.230   0.992   2.108 -0.1574  0.0464  0.1594
 5477ntf    sn225442   0.141   1.030   1.955  0.0721 -0.1720 -0.0278
 5477ntf    nn325443   0.105   1.183   1.963  0.0006 -0.1541 -0.5867
 5477ntf    sn225444  -0.033   1.250   1.992  0.1522 -0.0536 -0.0813
 5477ntf    cn125445  -0.112   1.259   1.829  0.0574  0.2801 -0.0176
 5477ntf    fn425446   0.331   1.073   2.138  0.4039 -0.6710  0.2536
 5477ntf    fn425447   0.152   0.981   2.214  0.4957 -0.4296  0.6031
 5477ntf    fn425448   0.278   0.869   2.100 -0.5048 -0.0824  0.0675
 5477ntf    on525449   0.239   1.001   1.852 -0.5551  0.0766 -0.7028
 5477ntf    on525450   0.033   0.936   1.965 -0.2447  0.1959  0.0288
 5477ntf    on525451  -0.006   1.385   2.034  0.3138 -0.0434 -0.2176
 5477ntf    on525452  -0.136   1.191   2.074  0.0603  0.3095  0.0654
 5477ntf    fn425453  -0.103   1.145   1.763  0.7091  0.4113 -0.1628
 5477ntf    fn425454  -0.242   1.279   1.838 -0.0779 -0.5010 -0.1746
 5477ntf    fn425455  -0.057   1.356   1.756 -0.5387  0.9038  0.3523
 5478ntf    cn125456   0.192   3.209   6.009 -0.1099 -0.3545 -0.0020
 5478ntf    sn225457   0.349   3.117   5.998 -0.0315 -0.2411  0.1682
 5478ntf    nn325458   0.301   2.998   5.907 -0.5632  0.1772 -0.1086
 5478ntf    sn225459   0.252   2.856   5.955  0.1288 -0.0509 -0.0610
 5478ntf    cn125460   0.287   2.766   5.801 -0.3463  0.0260 -0.2175
 5478ntf    fn425461   0.101   3.144   6.080  0.0246 -0.3261  0.1937
 5478ntf    fn425462   0.198   3.333   6.053 -0.2765 -0.0108 -0.9280
 5478ntf    fn425463   0.133   3.220   5.890 -0.2189  0.9124  0.1607
 5478ntf    on525464   0.436   3.210   5.930 -0.3838  0.3972  0.5847
 5478ntf    on525465   0.381   3.084   6.134 -0.3597 -0.3379  0.2224
 5478ntf    on525466   0.110   2.849   5.980  0.1859 -0.1790  0.2242
 5478ntf    on525467   0.330   2.795   6.059  0.1034  0.0800  0.0338
 5478ntf    fn425468   0.280   2.634   5.814  0.6651 -0.0487 -0.3245
 5478ntf    fn425469   0.202   2.788   5.702 -0.1744  0.1730 -0.3333
 5478ntf    fn425470   0.410   2.778   5.755 -0.2662  0.9447  0.2271
 5479ntf    cn125471   5.815   1.103   7.433 -0.4955 -0.0271  0.5355
 5479ntf    sn225472   5.781   0.970   7.554  0.0984 -0.3092  0.3944
 5479ntf    nn325473   5.803   1.055   7.684  0.4550  0.3104 -0.0566
 5479ntf    sn225474   5.742   1.047   7.829 -0.2288  0.2182 -0.3426
 5479ntf    cn125475   5.863   0.931   7.900 -0.3348  0.1378 -0.2928
 5479ntf    fn425476   5.832   1.058   7.310 -0.4503 -0.7540  0.7981
 5479ntf    fn425477   5.725   1.200   7.436 -0.1015  0.3610 -0.0913
 5479ntf    fn425478   5.927   1.163   7.470 -0.5192 -0.0897  0.7106
 5479ntf    on525479   5.643   0.940   7.526 -0.1974  0.7164  0.7029
 5479ntf    on525480   5.883   0.870   7.532 -0.0624 -0.4320  0.2014
 5479ntf    on525481   5.619   0.972   7.841  0.0368 -0.0861  0.5548
 5479ntf    on525482   5.763   1.160   7.916  0.0180 -0.3641  0.3646
 5479ntf    fn425483   5.983   0.958   7.850  0.3390 -0.1795  1.0949
 5479ntf    fn425484   5.885   0.962   8.026  0.0612  0.0247 -0.3298
 5479ntf    fn425485   5.833   0.802   7.894  0.3048 -0.0221 -0.1203
 5480ntf    cn125486   5.434   4.890   5.092  0.1408  0.4971 -0.0905
 5480ntf    sn225487   5.518   4.891   5.253 -0.3273  0.0946  0.1597
 5480ntf    nn325488   5.452   4.766   5.321 -0.0165 -0.1905 -0.0559
 5480ntf    sn225489   5.338   4.761   5.429 -0.1403 -0.2118 -0.1890
 5480ntf    cn125490   5.197   4.698   5.332 -0.3958 -0.0412  0.0694
 5480ntf    fn425491   5.485   4.973   5.003 -0.1006  0.1532 -0.5568
 5480ntf    fn425492   5.439   4.778   5.021 -0.4784  0.4240 -0.0259
 5480ntf    fn425493   5.307   4.924   5.105  0.0893  0.1804  0.2603
 5480ntf    on525494   5.655   4.863   5.217 -0.4908 -0.3995 -0.0944
 5480ntf    on525495   5.493   5.017   5.318  0.1066  0.1097  0.3061
 5480ntf    on525496   5.287   4.883   5.486  0.1391 -0.2658  0.1799
 5480ntf    on525497   5.353   4.650   5.520  0.2977  0.2364  0.2855
 5480ntf    fn425498   5.170   4.781   5.232  0.2108 -0.2601 -0.2859
 5480ntf    fn425499   5.222   4.578   5.281 -0.0615 -0.0306  0.2066
 5480ntf    fn425500   5.090   4.684   5.408 -0.0631  0.0442  0.5511
 5481ntf    cn125501   0.676   1.903   1.854  0.1924  0.3034 -0.4719
 5481ntf    sn225502   0.852   1.865   1.879  0.1341  0.3065 -0.0477
 5481ntf    nn325503   0.864   1.951   2.009 -0.2529  0.1785  0.0721
 5481ntf    sn225504   0.928   1.917   2.149  0.3683  0.2093 -0.2025
 5481ntf    cn125505   0.776   1.888   2.244  0.2493 -0.0482 -0.4695
 5481ntf    fn425506   0.648   2.026   1.814  0.3274  0.6644  0.5230
 5481ntf    fn425507   0.614   1.827   1.765 -0.2134  0.1094 -0.0228
 5481ntf    fn425508   0.618   1.895   1.972  0.2298  0.2879 -0.4547
 5481ntf    on525509   0.856   1.721   1.892  0.5110  0.3479  0.2929
 5481ntf    on525510   0.926   1.923   1.769 -0.2481 -0.0088 -0.4759
 5481ntf    on525511   0.982   2.038   2.205  0.5221 -0.0599  0.2285
 5481ntf    on525512   1.013   1.802   2.161  0.1012  0.1015  0.7336
 5481ntf    fn425513   0.702   1.998   2.248  0.2215 -0.0919  0.5390
 5481ntf    fn425514   0.694   1.799   2.189  0.0983  0.0426 -0.3926
 5481ntf    fn425515   0.800   1.840   2.365 -0.0308  0.0399 -0.3774
 5482ntf    cn125516   4.801   3.666   0.539 -0.1422  0.2022  0.3108
 5482ntf    sn225517   4.932   3.601   0.430 -0.2919  0.0967  0.1925
 5482ntf    nn325518   5.039   3.541   0.529  0.2685  0.2209 -0.3331
 5482ntf    sn225519   5.056   3.392   0.573  0.6523  0.3287 -0.1040
 5482ntf    cn125520   5.222   3.395   0.647  0.5542 -0.0815  0.1420
 5482ntf    fn425521   4.851   3.761   0.616 -0.0444  0.1868  0.2676
 5482ntf    fn425522   4.698   3.713   0.471 -0.3550  0.0092  0.4981
 5482ntf    fn425523   4.757   3.570   0.619  0.7070 -0.8256 -0.4246
 5482ntf    on525524   4.873   3.502   0.344  0.1099  0.4542 -0.5020
 5482ntf    on525525   4.993   3.718   0.371 -0.0771 -0.3485 -0.4754
 5482ntf    on525526   5.069   3.303   0.460 -0.7970 -0.5270  0.3629
 5482ntf    on525527   4.966   3.353   0.679 -0.3681 -0.0776 -1.0994
 5482ntf    fn425528   5.287   3.506   0.616  0.6347 -0.3569 -0.7129
 5482ntf    fn425529   5.221   3.390   0.779 -0.3286 -0.3665  0.1298
 5482ntf    fn425530   5.295   3.290   0.613 -0.3480 -0.4756 -0.6490
 5483ntf    cn125531   2.977   5.088   0.479  0.2752  0.1103  0.2127
 5483ntf    sn225532   2.818   5.102   0.391  0.3873 -0.2321 -0.0469
 5483ntf    nn325533   2.719   5.109   0.512  0.1376  0.6197 -0.2969
 5483ntf    sn225534   2.646   5.218   0.598 -0.0293  0.4542 -0.2283
 5483ntf    cn125535   2.467   5.195   0.574  0.0214 -0.2888  0.0711
 5483ntf    fn425536   2.980   4.989   0.567  0.0524  0.0063  0.1045
 5483ntf    fn425537   3.078   5.077   0.394  0.0938  0.0270  0.0062
 5483ntf    fn425538   3.010   5.193   0.552  0.1945  0.4683 -0.2642
 5483ntf    on525539   2.840   5.227   0.322  0.3510 -0.3831 -0.3330
 5483ntf    on525540   2.795   4.988   0.305 -0.5434 -0.0451 -0.0539
 5483ntf    on525541   2.668   5.354   0.554 -0.0894  0.4496 -0.2735
 5483ntf    on525542   2.652   5.199   0.741  0.4310  1.0305 -0.1679
 5483ntf    fn425543   2.399   5.270   0.659 -0.3718  0.1043 -0.5812
 5483ntf    fn425544   2.436   5.247   0.456  0.0162 -0.0875  0.1604
 5483ntf    fn425545   2.429   5.070   0.591 -0.1470 -0.2331  0.1006
 5484ntf    cn125546   4.917   0.169   1.877 -0.2074 -0.0357  0.2457
 5484ntf    sn225547   4.812   0.265   1.991  0.0168  0.0621  0.3694
 5484ntf    nn325548   4.723   0.341   1.886 -0.0377 -0.2215  0.2115
 5484ntf    sn225549   4.584   0.405   1.922 -0.0133  0.1523 -0.3492
 5484ntf    cn125550   4.476   0.263   1.885  0.0082  0.1312 -0.3313
 5484ntf    fn425551   4.847   0.063   1.840 -0.1402  0.0147 -0.0284
 5484ntf    fn425552   4.965   0.241   1.777 -0.1211  0.3534  0.5621
 5484ntf    fn425553   5.025   0.120   1.936 -0.3094 -0.6806 -0.0917
 5484ntf    on525554   4.754   0.165   2.076 -0.1900  0.0137  0.1718
 5484ntf    on525555   4.907   0.359   2.046 -0.0294  0.6147 -0.4707
 5484ntf    on525556   4.529   0.498   1.826  0.0324  0.4120 -0.1216
 5484ntf    on525557   4.556   0.436   2.059 -0.5549 -0.6012 -0.2839
 5484ntf    fn425558   4.375   0.293   1.805 -0.1289  0.1828 -0.1414
 5484ntf    fn425559   4.536   0.156   1.836 -0.6929 -0.5115  0.1836
 5484ntf    fn425560   4.426   0.227   2.002  0.7291 -0.3417 -0.1627
 5485ntf    cn125561   3.691   5.059   1.409 -0.2374  0.2112 -0.2065
 5485ntf    sn225562   3.709   5.158   1.257 -0.1323  0.3019 -0.1342
 5485ntf    nn325563   3.558   5.166   1.215 -0.1286  0.6052 -0.0940
 5485ntf    sn225564   3.446   5.261   1.269 -0.3424  0.3038 -0.0081
 5485ntf    cn125565   3.473   5.396   1.152  0.1554  0.2278  0.0191
 5485ntf    fn425566   3.812   5.041   1.458 -0.3644  0.4333  0.1848
 5485ntf    fn425567   3.625   5.131   1.498  0.1133 -0.0958  0.3017
 5485ntf    fn425568   3.636   4.939   1.400 -0.1469  0.1396  0.1692
 5485ntf    on525569   3.778   5.277   1.300  0.2544  0.0816 -0.1393
 5485ntf    on525570   3.777   5.075   1.161  0.1232  0.2399  0.0961
 5485ntf    on525571   3.457   5.324   1.398  0.0007  0.5093 -0.1389
 5485ntf    on525572   3.316   5.212   1.230 -0.1832 -0.1584  0.0334
 5485ntf    fn425573   3.416   5.369   1.035 -0.4454  0.0536  0.3497
 5485ntf    fn425574   3.426   5.514   1.191 -0.4147 -0.0936  0.3153
 5485ntf    fn425575   3.603   5.404   1.129  0.2474 -0.1990  0.3853
 5486ntf    cn125576   6.494   4.905   6.940 -0.3422  0.1425  0.0105
 5486ntf    sn225577   6.327   4.926   7.008 -0.2005  0.1608  0.3547
 5486ntf    nn325578   6.309   4.812   7.114  0.1679 -0.0625  0.1792
 5486ntf    sn225579   6.238   4.676   7.079 -0.1496  0.0238  0.4811
 5486ntf    cn125580   6.068   4.724   7.123 -0.2855  0.1299 -0.1417
 5486ntf    fn425581   6.585   4.880   7.032 -0.2455 -0.4052 -0.2249
 5486ntf    fn425582   6.515   4.811   6.848 -0.0153  0.4851 -0.2735
 5486ntf    fn425583   6.533   5.017   6.881 -0.1572  0.0665 -0.0130
 5486ntf    on525584   6.343   5.048   7.083 -0.5054  0.0640  0.5745
 5486ntf    on525585   6.245   4.930   6.889 -0.3102 -0.0312  0.4235
 5486ntf    on525586   6.264   4.579   7.182  0.1093 -0.1219  0.2807
 5486ntf    on525587   6.216   4.627   6.945  0.4658 -0.7242  0.6505
 5486ntf    fn425588   6.063   4.797   7.233  0.1046  0.0762 -0.0877
 5486ntf    fn425589   6.008   4.794   7.029 -0.1264  0.5051  0.0351
 5486ntf    fn425590   5.991   4.619   7.150  0.1111 -0.0477  0.3198
 5487ntf    cn125591   6.615   2.655   2.637  0.3283  0.1866 -0.2868
 5487ntf    sn225592   6.706   2.738   2.770 -0.2597  0.1047  0.1661
 5487ntf    nn325593   6.811   2.625   2.801  0.2233  0.2318 -0.9708
 5487ntf    sn225594   6.968   2.621   2.798  0.2340 -0.0580 -0.2058
 5487ntf    cn125595   6.996   2.478   2.907 -0.0044 -0.1258 -0.2326
 5487ntf    fn425596   6.508   2.725   2.603 -0.0209  0.0428  0.4982
 5487ntf    fn425597   6.692   2.646   2.529 -0.1540  0.1314 -0.6334
 5487ntf    fn425598   6.577   2.533   2.671  0.4017  0.2753  0.1124
 5487ntf    on525599   6.757   2.856   2.704  0.1489  0.0977  0.4658
 5487ntf    on525600   6.628   2.761   2.889 -0.0403 -0.1251  0.3568
 5487ntf    on525601   7.042   2.731   2.854  0.2219 -0.3719  0.4323
 5487ntf    on525602   7.013   2.577   2.669  0.3902 -0.1557 -0.1177
 5487ntf    fn425603   6.932   2.367   2.874  0.0431 -0.3128  0.2947
 5487ntf    fn425604   7.126   2.455   2.913 -0.0076 -0.2129 -0.4925
 5487ntf    fn425605   6.954   2.508   3.029  0.6360  0.0166 -0.0430
 5488ntf    cn125606   5.642   3.449   1.803  0.5011  0.2755  0.0890
 5488ntf    sn225607   5.658   3.458   1.622 -0.0570  0.0511  0.0278
 5488ntf    nn325608   5.781   3.362   1.604 -0.2798 -0.2280 -0.0196
 5488ntf    sn225609   5.902   3.381   1.506 -0.3093  0.0575 -0.0015
 5488ntf    cn125610   6.015   3.466   1.621 -0.3392  0.5889 -0.3583
 5488ntf    fn425611   5.752   3.470   1.874  0.8131  0.7565 -0.5315
 5488ntf    fn425612   5.549   3.535   1.841 -0.0101 -0.0960 -0.3275
 5488ntf    fn425613   5.599   3.328   1.833  0.1984  0.3507 -0.0442
 5488ntf    on525614   5.536   3.399   1.573  0.2051 -0.1882 -0.3387
 5488ntf    on525615   5.679   3.598   1.593 -0.2331  0.0528 -0.0902
 5488ntf    on525616   5.884   3.471   1.395 -0.1812  0.3351  0.2005
 5488ntf    on525617   5.977   3.260   1.482  0.3819  0.4226  0.2609
 5488ntf    fn425618   6.117   3.512   1.550  0.6911  0.1139  0.7721
 5488ntf    fn425619   5.957   3.567   1.682 -0.4820  0.3074 -0.0250
 5488ntf    fn425620   6.062   3.388   1.717 -0.4033  0.2002 -0.6377
 5489ntf    cn125621   1.013   4.625   6.952  0.1666  0.1568 -0.0154
 5489ntf    sn225622   0.957   4.464   7.013  0.2172  0.1845  0.1064
 5489ntf    nn325623   0.872   4.430   6.886  0.5070  0.5337 -0.1807
 5489ntf    sn225624   0.920   4.352   6.758 -0.0632 -0.1346  0.0029
 5489ntf    cn125625   0.772   4.389   6.659  0.2031 -0.0862 -0.3776
 5489ntf    fn425626   1.071   4.702   7.043 -0.3026  0.4319  0.0542
 5489ntf    fn425627   1.094   4.626   6.847  0.5381 -0.1288  0.2652
 5489ntf    fn425628   0.910   4.697   6.912 -0.2030 -0.1130  0.4472
 5489ntf    on525629   1.081   4.395   7.039  0.1059  0.1463  0.5473
 5489ntf    on525630   0.882   4.489   7.134  0.3301  0.0059  0.2132
 5489ntf    on525631   0.923   4.212   6.789  0.2784 -0.0194  0.5137
 5489ntf    on525632   1.035   4.410   6.692  0.1855  0.3663  0.8631
 5489ntf    fn425633   0.790   4.386   6.527 -0.0240 -0.1581 -0.4057
 5489ntf    fn425634   0.666   4.319   6.694  0.1900  0.3540  0.4847
 5489ntf    fn425635   0.739   4.515   6.682  0.1669 -0.1233 -0.2299
 5490ntf    cn125636   0.597   3.930   2.071  0.1147 -0.2140  0.2691
 5490ntf    sn225637   0.638   3.892   2.244 -0.0061 -0.2425  0.2915
 5490ntf    nn325638   0.678   4.034   2.296 -0.3283 -0.0232 -0.0536
 5490ntf    sn225639   0.591   4.138   2.375 -0.1481  0.1271 -0.0520
 5490ntf    cn125640   0.664   4.125   2.541 -0.6360 -0.2709  0.1324
 5490ntf    fn425641   0.699   3.981   2.004 -0.2942  0.2123 -0.0345
 5490ntf    fn425642   0.561   3.817   2.012 -0.1790 -0.0667  0.1649
 5490ntf    fn425643   0.494   4.012   2.061  0.1342 -0.2638 -0.3850
 5490ntf    on525644   0.517   3.827   2.288 -0.1674 -0.2773 -0.1949
 5490ntf    on525645   0.756   3.810   2.230  0.0694 -0.2661  1.0722
 5490ntf    on525646   0.457   4.093   2.402 -0.0075 -0.5825 -0.5028
 5490ntf    on525647   0.608   4.271   2.323 -0.0155  0.2540  0.3095
 5490ntf    fn425648   0.767   4.207   2.555 -0.4476 -0.4069 -0.4252
 5490ntf    fn425649   0.598   4.183   2.640 -0.5599  0.9293 -0.5006
 5490ntf    fn425650   0.696   4.001   2.576  0.4233 -0.0690 -0.0746
 5491ntf    cn125651   7.250   1.398   4.794 -0.1758 -0.1247 -0.1525
 5491ntf    sn225652   7.428   1.401   4.831 -0.1672 -0.2981 -0.1803
 5491ntf    nn325653   7.469   1.514   4.731 -0.1775 -0.0831  0.0581
 5491ntf    sn225654   7.508   1.665   4.748 -0.0938 -0.0546 -0.3637
 5491ntf    cn125655   7.440   1.746   4.600 -0.0227 -0.0247 -0.3799
 5491ntf    fn425656   7.198   1.520   4.793  0.0114 -0.0451 -0.1491
 5491ntf    fn425657   7.228   1.357   4.670  0.0873  0.4653 -0.4000
 5491ntf    fn425658   7.176   1.325   4.876  0.1367  0.1328  0.3645
 5491ntf    on525659   7.443   1.440   4.969 -0.0925  0.2485 -0.3421
 5491ntf    on525660   7.485   1.272   4.798  0.7003  0.0129  0.0980
 5491ntf    on525661   7.650   1.682   4.727  0.0336 -0.0908  0.4476
 5491ntf    on525662   7.447   1.735   4.858 -0.1231 -0.2816 -0.2351
 5491ntf    fn425663   7.427   1.658   4.503 -0.0199  0.0806 -0.4753
 5491ntf    fn425664   7.319   1.797   4.614  0.1260  0.1532  0.3432
 5491ntf    fn425665   7.517   1.844   4.556  0.0903  0.1420  0.1786
 5492ntf    cn125666   2.415   6.875   6.528  0.1191  0.3227  0.2720
 5492ntf    sn225667   2.587   6.850   6.477  0.0446  0.2653  0.0485
 5492ntf    nn325668   2.654   6.958   6.570  0.0368  0.1528  0.1848
 5492ntf    sn225669   2.790   6.957   6.648  0.0478 -0.0896  0.1651
 5492ntf    cn125670   2.755   6.874   6.807  0.3675  0.0479  0.3075
 5492ntf    fn425671   2.394   6.815   6.644  0.4192 -0.2138  0.0462
 5492ntf    fn425672   2.379   7.002   6.537 -0.3988  0.1908  0.1051
 5492ntf    fn425673   2.337   6.819   6.437  0.2507  0.3379  0.1502
 5492ntf    on525674   2.605   6.717   6.528 -0.2653  0.3236  0.3113
 5492ntf    on525675   2.586   6.872   6.334 -0.6129 -0.5056 -0.0720
 5492ntf    on525676   2.824   7.084   6.708  0.3750 -0.0980 -0.0060
 5492ntf    on525677   2.895   6.879   6.590  0.2083  0.4133 -0.2268
 5492ntf    fn425678   2.736   6.743   6.803 -0.3821  0.1446  0.5166
 5492ntf    fn425679   2.854   6.894   6.892 -0.0610  0.3494  0.7452
 5492ntf    fn425680   2.646   6.921   6.864 -0.0750 -0.1150 -0.3822
 5493ntf    cn125681   1.777   0.088   5.840 -0.1862  0.5417 -0.3067
 5493ntf    sn225682   1.621   0.027   5.912  0.1716  0.1173  0.1147
 5493ntf    nn325683   1.671  -0.122   5.912  0.2881  0.1543 -0.2861
 5493ntf    sn225684   1.640  -0.249   5.826  0.0717  0.0511 -0.0564
 5493ntf    cn125685   1.541  -0.343   5.945 -0.4090  0.3723 -0.2005
 5493ntf    fn425686   1.879   0.068   5.922 -0.3491 -0.2136 -0.2779
 5493ntf    fn425687   1.801   0.042   5.718 -0.0861  0.3379 -0.2104
 5493ntf    fn425688   1.781   0.220   5.832 -0.2597  0.6078  0.6661
 5493ntf    on525689   1.618   0.087   6.043  0.0533  0.2979  0.0296
 5493ntf    on525690   1.512   0.053   5.821  0.3962 -0.2053 -0.2549
 5493ntf    on525691   1.753  -0.338   5.813 -0.2053 -0.2255 -0.6341
 5493ntf    on525692   1.559  -0.233   5.707  0.2192 -0.3649 -0.2159
 5493ntf    fn425693   1.428  -0.283   5.978 -0.6099 -0.1571  0.0998
 5493ntf    fn425694   1.509  -0.465   5.905 -0.2459  0.1359  0.3681
 5493ntf    fn425695   1.603  -0.358   6.061 -0.9117 -0.5974 -0.0398
 5494ntf    cn125696   1.598   4.999   5.126  0.0633 -0.3911 -0.0161
 5494ntf    sn225697   1.717   4.940   5.001  0.0679 -0.4755  0.0287
 5494ntf    nn325698   1.640   4.811   4.955  0.0705 -0.3396 -0.3590
 5494ntf    sn225699   1.681   4.660   4.964  0.7045 -0.1388  0.2548
 5494ntf    cn125700   1.572   4.599   4.832  0.2307 -0.1135  0.6336
 5494ntf    fn425701   1.650   5.067   5.226  0.2057 -0.3086 -0.1457
 5494ntf    fn425702   1.499   5.076   5.083  0.0752 -0.6340 -0.4905
 5494ntf    fn425703   1.543   4.893   5.184  0.0478 -0.4321 -0.1050
 5494ntf    on525704   1.719   5.050   4.908 -0.2795  0.3941  1.0280
 5494ntf    on525705   1.827   4.918   5.092  0.4253 -0.0469 -0.2990
 5494ntf    on525706   1.626   4.586   5.075 -0.3819  0.2463 -0.0162
 5494ntf    on525707   1.805   4.615   4.905  0.1697 -0.3960 -0.6978
 5494ntf    fn425708   1.556   4.468   4.826  0.1073 -0.0833  0.2674
 5494ntf    fn425709   1.451   4.652   4.848  0.1318 -0.0541 -0.2647
 5494ntf    fn425710   1.606   4.644   4.712 -0.1859 -0.1939  0.4828
 5495ntf    cn125711   4.847   2.469   6.788  0.2086  0.1049  0.2344
 5495ntf    sn225712   4.987   2.358   6.756  0.0434  0.0191 -0.1990
 5495ntf    nn325713   5.029   2.326   6.904 -0.5171 -0.4824 -0.1435
 5495ntf    sn225714   5.174   2.311   6.962 -0.4020  0.2607 -0.2269
 5495ntf    cn125715   5.169   2.141   7.026  0.0883  0.3140 -0.0449
 5495ntf    fn425716   4.776   2.502   6.681  0.1777 -0.6171  0.0309
 5495ntf    fn425717   4.765   2.418   6.878 -0.0655  0.1532  0.0142
 5495ntf    fn425718   4.891   2.585   6.833 -0.3290  0.3391  0.1631
 5495ntf    on525719   4.918   2.250   6.690 -0.5470  0.2277  0.0705
 5495ntf    on525720   5.079   2.442   6.684  0.3123 -0.2436 -0.1631
 5495ntf    on525721   5.199   2.389   7.081 -0.2638 -0.2920  0.1118
 5495ntf    on525722   5.285   2.309   6.871 -0.5256 -0.7319 -0.3677
 5495ntf    fn425723   5.271   2.112   7.105 -0.2985 -1.0975 -0.0310
 5495ntf    fn425724   5.059   2.104   7.089  0.2710  0.3397  0.2951
 5495ntf    fn425725   5.176   2.056   6.925 -0.7282 -0.2521  0.3631
 5496ntf    cn125726   5.785   1.778   4.231  0.0660  0.2326 -0.1134
 5496ntf    sn225727   5.637   1.882   4.207  0.0991  0.2759 -0.1292
 5496ntf    nn325728   5.610   1.845   4.057  0.2662 -0.0560 -0.0789
 5496ntf    sn225729   5.476   1.812   3.983  0.1349  0.1329  0.0746
 5496ntf    cn125730   5.459   1.637   4.029  0.4084  0.0718 -0.0533
 5496ntf    fn425731   5.841   1.785   4.350  0.3217 -0.0068 -0.2212
 5496ntf    fn425732   5.767   1.648   4.214  0.0818  0.2185 -0.0189
 5496ntf    fn425733   5.878   1.817   4.146  0.2328  0.0471 -0.0156
 5496ntf    on525734   5.550   1.829   4.310  0.1213  0.1626 -0.1676
 5496ntf    on525735   5.682   2.017   4.230  0.0120  0.2039  0.4918
 5496ntf    on525736   5.489   1.811   3.839  0.3908 -0.3059  0.1015
 5496ntf    on525737   5.366   1.887   4.039 -0.1323 -0.2305  0.0398
 5496ntf    fn425738   5.569   1.566   4.006  0.2135 -0.0467 -0.6275
 5496ntf    fn425739   5.445   1.626   4.160  0.2321 -0.4112 -0.1131
 5496ntf    fn425740   5.354   1.577   3.976 -0.0700  0.5028  0.3889
 5497ntf    cn125741   3.241   3.873   2.707  0.3518  0.2387 -0.1723
 5497ntf    sn225742   3.111   3.843   2.583  0.2970  0.0440 -0.0685
 5497ntf    nn325743   3.181   3.870   2.445  0.1523 -0.5217 -0.2541
 5497ntf    sn225744   3.160   3.974   2.330 -0.4290 -0.2886  0.0570
 5497ntf    cn125745   3.236   3.870   2.202 -0.1144  0.2354 -0.1856
 5497ntf    fn425746   3.305   3.985   2.678  0.2219  0.2879 -0.2726
 5497ntf    fn425747   3.203   3.897   2.832  1.0055  0.3775  0.0026
 5497ntf    fn425748   3.331   3.777   2.698 -0.1241 -0.2331  0.0282
 5497ntf    on525749   3.104   3.700   2.596  0.5818  0.0086 -0.2987
 5497ntf    on525750   2.998   3.928   2.610 -0.0638 -0.1315 -1.0033
 5497ntf    on525751   3.238   4.094   2.345 -0.2130 -0.4949  0.5978
 5497ntf    on525752   3.023   3.987   2.286 -0.3350  0.2294 -0.0927
 5497ntf    fn425753   3.359   3.837   2.238  0.0736  0.3294 -0.7233
 5497ntf    fn425754   3.177   3.752   2.191  0.3197  0.0396 -0.4643
 5497ntf    fn425755   3.250   3.921   2.080 -0.0000  0.3709 -0.1156
 5498ntf    cn125756   4.399   4.233   2.010 -0.2782  0.0656 -0.2026
 5498ntf    sn225757   4.508   4.241   1.865  0.1387  0.0642  0.1094
 5498ntf    nn325758   4.439   4.130   1.778  0.4036  0.1101 -0.1583
 5498ntf    sn225759   4.350   4.146   1.649 -0.1382  0.1764  0.2245
 5498ntf    cn125760   4.465   4.139   1.509  0.1034 -0.1469  0.4352
 5498ntf    fn425761   4.276   4.267   1.973 -0.2229  0.1462 -0.3089
 5498ntf    fn425762   4.381   4.117   2.071  0.0698 -0.0756 -0.3694
 5498ntf    fn425763   4.437   4.319   2.103  0.0568 -0.5798  0.2671
 5498ntf    on525764   4.506   4.376   1.815 -0.0607  0.0637  0.1150
 5498ntf    on525765   4.634   4.195   1.917  0.0380  0.1009  0.3859
 5498ntf    on525766   4.280   4.271   1.629  0.0731  0.2399 -0.1133
 5498ntf    on525767   4.268   4.027   1.643  0.2445 -0.0652 -0.2599
 5498ntf    fn425768   4.544   4.037   1.536  0.8465  0.1362 -0.6176
 5498ntf    fn425769   4.404   4.114   1.394  0.1488  0.6818  0.2248
 5498ntf    fn425770   4.541   4.246   1.496 -0.1887 -0.0176 -0.3092
 5499ntf    cn125771   4.372   2.357   5.641  0.3029 -0.0606  0.0190
 5499ntf    sn225772   4.451   2.222   5.548  0.1218 -0.3700  0.3149
 5499ntf    nn325773   4.592   2.212   5.616  0.6816  0.2512 -0.7334
 5499ntf    sn225774   4.676   2.081   5.639  0.0030 -0.0965 -0.1950
 5499ntf    cn125775   4.611   2.041   5.804  0.0952 -0.1023 -0.1609
 5499ntf    fn425776   4.463   2.451   5.660 -0.2864  0.4640  0.2588
 5499ntf    fn425777   4.272   2.415   5.576  0.1974 -0.1187  0.1265
 5499ntf    fn425778   4.319   2.321   5.756 -0.0171 -0.0245 -0.1158
 5499ntf    on525779   4.352   2.117   5.557  0.2055 -0.4072  0.8543
 5499ntf    on525780   4.474   2.282   5.419 -0.0328  0.1196  0.5133
 5499ntf    on525781   4.817   2.097   5.661 -0.0506 -0.4405  0.4243
 5499ntf    on525782   4.647   1.967   5.556 -0.1265 -0.0052 -0.2758
 5499ntf    fn425783   4.518   2.120   5.854 -0.0278 -0.5749  0.3688
 5499ntf    fn425784   4.554   1.922   5.803  0.0756 -0.0945  0.0447
 5499ntf    fn425785   4.706   2.036   5.896 -0.0716  0.2473  0.0321
 5500ntf    cn125786   5.962   1.199   5.564 -0.1874 -0.0952  0.2999
 5500ntf    sn225787   6.105   1.244   5.667  0.1217 -0.0479 -0.1476
 5500ntf    nn325788   6.062   1.177   5.802  0.1354  0.2281 -0.0054
 5500ntf    sn225789   5.965   1.236   5.911 -0.0540 -0.3499  0.1462
 5500ntf    cn125790   6.072   1.326   6.027 -0.0247 -0.4154  0.1687
 5500ntf    fn425791   5.852   1.185   5.636 -0.4604  0.4266 -0.0086
 5500ntf    fn425792   5.941   1.297   5.477  0.2366 -0.0617  0.2305
 5500ntf    fn425793   5.966   1.086   5.495 -0.0220  0.0926  0.0007
 5500ntf    on525794   6.225   1.190   5.608  0.4474  0.6558 -0.1332
 5500ntf    on525795   6.103   1.387   5.681 -0.2633 -0.0663  0.0009
 5500ntf    on525796   5.917   1.127   5.991  0.0599 -0.4114  0.1300
 5500ntf    on525797   5.868   1.338   5.880  0.3021 -0.1702 -0.4026
 5500ntf    fn425798   6.156   1.254   6.099  0.3472 -0.1595 -0.0070
 5500ntf    fn425799   6.142   1.417   5.962  0.1720 -0.2132  0.6551
 5500ntf    fn425800   5.988   1.388   6.109  0.0103 -0.1065 -0.0285
 5501ntf    cn125801   3.562   5.588   6.880  0.0479 -0.2699  0.3206
 5501ntf    sn225802   3.525   5.641   6.710  0.0342 -0.1739  0.3529
 5501ntf    nn325803   3.485   5.792   6.718 -0.2347 -0.2514  0.4958
 5501ntf    sn225804   3.562   5.925   6.686 -0.3781 -0.2854  0.0048
 5501ntf    cn125805   3.583   5.890   6.509 -0.1260 -0.4439  0.0653
 5501ntf    fn425806   3.592   5.459   6.884 -0.5480 -0.4259 -0.1298
 5501ntf    fn425807   3.655   5.656   6.944 -0.3244  0.3088  0.2548
 5501ntf    fn425808   3.454   5.599   6.955 -0.3863 -0.1732 -0.3029
 5501ntf    on525809   3.646   5.613   6.637 -0.0654  0.4870 -0.0696
 5501ntf    on525810   3.411   5.560   6.673 -0.1153 -0.0746  0.5989
 5501ntf    on525811   3.692   5.941   6.747 -0.1364 -0.2271 -0.5195
 5501ntf    on525812   3.477   6.040   6.697  0.1572  0.1592 -0.4380
 5501ntf    fn425813   3.592   5.995   6.429 -0.4689 -0.0400  0.5545
 5501ntf    fn425814   3.693   5.819   6.489  0.0577 -0.1359 -0.0307
 5501ntf    fn425815   3.486   5.816   6.458 -0.3489  0.1477 -0.3869
 5502ntf    cn125816   6.918   7.147   6.867 -0.5987  0.4942 -0.1419
 5502ntf    sn225817   7.073   7.202   6.944 -0.3756  0.0085 -0.2370
 5502ntf    nn325818   7.178   7.147   6.842  0.0364  0.3206  0.0118
 5502ntf    sn225819   7.188   7.173   6.688  0.2577 -0.2184 -0.0694
 5502ntf    cn125820   7.365   7.215   6.674  0.1898  0.1726  0.2163
 5502ntf    fn425821   6.891   7.214   6.757 -0.2305  0.8762 -0.0042
 5502ntf    fn425822   6.925   7.020   6.832  0.3309  0.6814 -0.6792
 5502ntf    fn425823   6.812   7.165   6.943 -0.8169 -0.5081 -0.1938
 5502ntf    on525824   7.061   7.346   6.952 -0.5504  0.0119 -0.5452
 5502ntf    on525825   7.080   7.131   7.070 -0.7383 -0.2181 -0.3431
 5502ntf    on525826   7.125   7.293   6.638 -0.0280 -0.2503  0.2168
 5502ntf    on525827   7.191   7.062   6.596  0.5570  0.1686 -0.5356
 5502ntf    fn425828   7.394   7.223   6.545 -0.4286  0.0095  0.0648
 5502ntf    fn425829   7.391   7.335   6.724  0.2571  0.2851 -0.0908
 5502ntf    fn425830   7.437   7.118   6.730 -0.1404 -0.3959 -0.3309
 5503ntf    cn125831   7.213   6.732   0.959  0.0807 -0.0372 -0.4270
 5503ntf    sn225832   7.088   6.666   0.844 -0.3675 -0.0873  0.0838
 5503ntf    nn325833   7.141   6.520   0.819 -0.7790 -0.1483 -0.4347
 5503ntf    sn225834   7.210   6.470   0.687 -0.1282 -0.2102 -0.0744
 5503ntf    cn125835   7.067   6.425   0.584  0.0650 -0.4198 -0.2509
 5503ntf    fn425836   7.233   6.649   1.060  0.2418  0.1492 -0.3058
 5503ntf    fn425837   7.335   6.762   0.918  0.1023  0.3150 -0.1077
 5503ntf    fn425838   7.173   6.844   1.018 -0.0813 -0.2152 -0.1996
 5503ntf    on525839   6.967   6.668   0.923 -0.2023 -0.1814  0.3416
 5503ntf    on525840   7.094   6.756   0.732  0.2526  0.0851  0.2488
 5503ntf    on525841   7.265   6.339   0.712  0.6043  0.0040 -0.5278
 5503ntf    on525842   7.291   6.560   0.609 -0.0209  0.3042  0.6171
 5503ntf    fn425843   7.005   6.531   0.534 -0.4583 -0.5000  0.2192
 5503ntf    fn425844   7.111   6.348   0.485  0.2614 -0.3856 -0.1916
 5503ntf    fn425845   6.982   6.348   0.650 -0.1280 -0.1579 -0.1937
 5504ntf    cn125846   5.308   5.347   3.232  0.1965 -0.0922  0.0022
 5504ntf    sn225847   5.376   5.280   3.387  0.1114  0.2665  0.1969
 5504ntf    nn325848   5.261   5.316   3.487  0.1737 -0.4603  0.5359
 5504ntf    sn225849   5.144   5.222   3.531  0.0768 -0.6951 -0.2113
 5504ntf    cn125850   5.080   5.284   3.690  0.1045 -0.1991 -0.3940
 5504ntf    fn425851   5.384   5.338   3.124 -0.1421 -0.3802 -0.2091
 5504ntf    fn425852   5.198   5.287   3.192  0.2327 -0.2997  0.2135
 5504ntf    fn425853   5.272   5.474   3.247  0.1052 -0.1250  0.0556
 5504ntf    on525854   5.385   5.138   3.361 -0.3039  0.2854 -0.0652
 5504ntf    on525855   5.497   5.352   3.418  0.4376  0.0945 -0.6513
 5504ntf    on525856   5.187   5.093   3.578  0.4712 -0.6018 -0.3183
 5504ntf    on525857   5.027   5.239   3.448  0.2307  0.1945 -0.2542
 5504ntf    fn425858   4.960   5.229   3.702  0.1046 -0.1625 -0.2203
 5504ntf    fn425859   5.159   5.252   3.790  0.3703  0.4845 -0.3762
 5504ntf    fn425860   5.052   5.414   3.685  0.3778 -0.1520 -0.7463
 5505ntf    cn125861   1.034   2.292   6.263  0.2524 -0.0926  0.2149
 5505ntf    sn225862   1.107   2.420   6.370  0.2130  0.1556 -0.0526
 5505ntf    nn325863   1.132   2.530   6.261  0.0961 -0.1322 -0.3720
 5505ntf    sn225864   1.033   2.639   6.207  0.0352  0.0269  0.0553
 5505ntf    cn125865   1.080   2.776   6.316 -0.2662  0.5648 -0.4866
 5505ntf    fn425866   0.974   2.342   6.156 -0.1166 -0.9917 -0.0097
 5505ntf    fn425867   1.127   2.214   6.209  0.0448 -0.2492  0.0854
 5505ntf    fn425868   0.948   2.206   6.315 -0.1859  0.1457 -0.1106
 5505ntf    on525869   1.008   2.442   6.473 -0.2296 -0.5660 -0.3124
 5505ntf    on525870   1.230   2.364   6.419  0.2158  0.0046 -0.2298
 5505ntf    on525871   0.893   2.628   6.237 -0.0097  0.2432 -0.0716
 5505ntf    on525872   1.064   2.695   6.078  0.1441  0.4734  0.2738
 5505ntf    fn425873   1.081   2.743   6.444 -0.9037  0.2445 -0.5599
 5505ntf    fn425874   1.198   2.826   6.283  0.1553 -0.2853 -0.2756
 5505ntf    fn425875   0.992   2.875   6.304 -0.5459  0.3725 -0.0375
 5506ntf    cn125876   5.907   4.408   1.622 -0.0911 -0.3663  0.0518
 5506ntf    sn225877   6.054   4.301   1.639  0.1213 -0.1299 -0.2990
 5506ntf    nn325878   5.976   4.170   1.678  0.1663 -0.0955 -0.0917
 5506ntf    sn225879   6.012   4.054   1.778  0.0715 -0.0427  0.0032
 5506ntf    cn125880   5.862   4.046   1.881  0.1209  0.4935  0.1244
 5506ntf    fn425881   5.833   4.380   1.516 -0.3032  0.6911 -0.0830
 5506ntf    fn425882   5.834   4.409   1.733 -0.2765  0.1388 -0.0762
 5506ntf    fn425883   5.945   4.534   1.609 -0.0995 -0.3656  0.0327
 5506ntf    on525884   6.108   4.299   1.505  0.0033  0.6802 -0.3641
 5506ntf    on525885   6.133   4.373   1.736  0.2005 -0.0080 -0.4532
 5506ntf    on525886   6.105   4.082   1.884  0.4856 -1.0960 -0.0765
 5506ntf    on525887   6.016   3.925   1.715 -0.2581  0.0156 -0.1415
 5506ntf    fn425888   5.844   3.930   1.942 -0.2213  0.3680 -0.2132
 5506ntf    fn425889   5.856   4.136   1.978  0.0827  0.1200  0.4709
 5506ntf    fn425890   5.755   4.070   1.807  0.3051 -0.1402 -0.3659
 5507ntf    cn125891   7.265   1.692   6.616  0.3487 -0.2929 -0.1728
 5507ntf    sn225892   7.370   1.778   6.737  0.2098 -0.2240 -0.1015
 5507ntf    nn325893   7.283   1.907   6.762  1.0534  0.2503  0.4059
 5507ntf    sn225894   7.175   1.933   6.873  0.2685 -0.1953 -0.2446
 5507ntf    cn125895   7.247   2.076   6.958  0.0797  0.1231 -0.6172
 5507ntf    fn425896   7.169   1.616   6.665  0.0454  0.3001  0.1655
 5507ntf    fn425897   7.204   1.779   6.536  0.8504  0.1304 -0.1015
 5507ntf    fn425898   7.343   1.621   6.536  0.2453 -0.3599 -0.2145
 5507ntf    on525899   7.382   1.684   6.845  0.2725  0.1812  0.2455
 5507ntf    on525900   7.490   1.815   6.667  0.3584 -0.4576  0.0300
 5507ntf    on525901   7.165   1.829   6.973  0.3697  0.2734  0.2548
 5507ntf    on525902   7.051   1.978   6.815 -0.1496 -1.0292 -0.0193
 5507ntf    fn425903   7.247   2.179   6.875 -0.3163  0.1854 -0.5387
 5507ntf    fn425904   7.170   2.111   7.060  0.0120 -0.1464 -0.5772
 5507ntf    fn425905   7.370   2.064   7.007  0.0539 -0.1415 -0.6189
 5508ntf    cn125906   1.920   0.293   6.626  0.2053 -0.3616  0.0898
 5508ntf    sn225907   1.917   0.258   6.447  0.1316  0.0595  0.0082
 5508ntf    nn325908   1.946   0.405   6.400 -0.5655  0.0320 -0.5246
 5508ntf    sn225909   1.990   0.464   6.262 -0.0425  0.1819 -0.2934
 5508ntf    cn125910   2.167   0.482   6.299 -0.0243  0.0283 -0.3034
 5508ntf    fn425911   1.920   0.183   6.699 -0.1413  0.0098  0.6533
 5508ntf    fn425912   2.033   0.358   6.646 -0.3292  0.2568  1.1670
 5508ntf    fn425913   1.820   0.361   6.678  0.2382 -0.3820  0.1795
 5508ntf    on525914   2.029   0.169   6.427 -0.0303 -0.1661  0.0937
 5508ntf    on525915   1.778   0.219   6.437  0.1274  0.2616 -0.7858
 5508ntf    on525916   1.953   0.602   6.247 -0.1951  0.2371  0.5654
 5508ntf    on525917   1.973   0.372   6.152  0.0840 -0.3199  0.1021
 5508ntf    fn425918   2.191   0.571   6.394  0.4970 -0.1951 -0.2177
 5508ntf    fn425919   2.222   0.366   6.333 -0.2883  0.1342  0.5096
 5508ntf    fn425920   2.232   0.534   6.196  0.0445  0.1053 -0.2209
 5509ntf    cn125921   4.919   2.258   0.353 -0.1195 -0.2073  0.2761
 5509ntf    sn225922   4.792   2.380   0.396  0.0484  0.1012 -0.1011
 5509ntf    nn325923   4.723   2.399   0.256  0.4914  0.2503 -0.2995
 5509ntf    sn225924   4.716   2.512   0.146 -0.4279  0.4682 -0.0275
 5509ntf    cn125925   4.805   2.431   0.009 -0.0304  0.2130  0.3756
 5509ntf    fn425926   4.934   2.147   0.423  0.3580 -0.2089  0.1754
 5509ntf    fn425927   4.898   2.206   0.232 -0.0417 -0.1774  0.2503
 5509ntf    fn425928   5.044   2.299   0.361 -0.1672  0.0127 -0.0664
 5509ntf    on525929   4.707   2.301   0.482 -0.2056 -0.2085 -0.6339
 5509ntf    on525930   4.856   2.497   0.450 -0.0263  0.0289  0.1459
 5509ntf    on525931   4.769   2.641   0.182 -0.4075  0.3757  0.2795
 5509ntf    on525932   4.580   2.525   0.102 -0.6114  0.0222  0.4003
 5509ntf    fn425933   4.825   2.517  -0.089 -0.4085  0.0885  0.1850
 5509ntf    fn425934   4.926   2.410   0.057 -0.0453 -0.0467  0.2961
 5509ntf    fn425935   4.750   2.320  -0.037  0.2621  0.1213  0.2487
 5510ntf    cn125936   5.179   4.940   4.059 -0.0005  0.2397  0.1689
 5510ntf    sn225937   5.172   4.760   4.035  0.1429  0.2713 -0.1141
 5510ntf    nn325938   5.063   4.755   3.922 -0.1595 -0.4554  0.1994
 5510ntf    sn225939   5.073   4.735   3.767 -0.3068  0.2988  0.0892
 5510ntf    cn125940   4.988   4.576   3.748  0.1795 -0.0449  0.7738
 5510ntf    fn425941   5.066   4.986   4.108 -0.0246  0.1909  0.1585
 5510ntf    fn425942   5.275   4.990   4.135 -0.1132 -0.2485  0.6383
 5510ntf    fn425943   5.190   4.997   3.940  0.1939 -0.1873 -0.0216
 5510ntf    on525944   5.306   4.717   4.002  0.1040 -0.2851  0.4325
 5510ntf    on525945   5.121   4.711   4.161 -0.3841  0.4682 -0.2516
 5510ntf    on525946   5.204   4.707   3.713 -0.6889 -0.4124 -0.4858
 5510ntf    on525947   4.991   4.824   3.689  0.1920  0.3348 -0.4018
 5510ntf    fn425948   5.059   4.483   3.811  0.2752 -0.4576  0.0683
 5510ntf    fn425949   4.865   4.567   3.796 -0.2301  0.0258 -0.2457
 5510ntf    fn425950   4.983   4.528   3.625 -0.1513 -0.2018  0.8453
 5511ntf    cn125951   5.355   0.119   1.531 -0.1168  0.2042 -0.1724
 5511ntf    sn225952   5.522   0.115   1.604 -0.0711 -0.2164 -0.2980
 5511ntf    nn325953   5.557   0.268   1.608  0.2407 -0.2964  0.1083
 5511ntf    sn225954   5.512   0.367   1.721  0.1291 -0.0472 -0.1528
 5511ntf    cn125955   5.637   0.332   1.848  0.1544 -0.0652 -0.1825
 5511ntf    fn425956   5.315   0.003   1.483 -0.1196 -0.0411  0.4121
 5511ntf    fn425957   5.273   0.153   1.629  0.0314 -0.0527  0.0433
 5511ntf    fn425958   5.337   0.207   1.434  0.2765  0.5228  0.0381
 5511ntf    on525959   5.508   0.037   1.724 -0.0881 -0.4240 -0.4338
 5511ntf    on525960   5.597   0.043   1.504  0.3183 -0.0543 -0.1267
 5511ntf    on525961   5.388   0.318   1.778  0.1962 -0.5874 -0.4640
 5511ntf    on525962   5.530   0.508   1.695  0.4670 -0.1619 -0.5407
 5511ntf    fn425963   5.755   0.380   1.812  0.0650  0.4478  0.2027
 5511ntf    fn425964   5.604   0.380   1.966  0.7895  0.1222 -0.0789
 5511ntf    fn425965   5.651   0.201   1.861  0.0894 -0.0010  0.5220
 5512ntf    cn125966   7.335   0.271   4.305 -0.2687 -0.3651 -0.0869
 5512ntf    sn225967   7.209   0.232   4.431 -0.2113 -0.3374 -0.0211
 5512ntf    nn325968   7.117   0.356   4.401 -0.3025 -0.4142 -0.0569
 5512ntf    sn225969   7.045   0.443   4.511  0.0021  0.0556 -0.2253
 5512ntf    cn125970   6.903   0.345   4.566 -0.0033 -0.0184 -0.3674
 5512ntf    fn425971   7.425   0.178   4.277  0.3117  0.1785 -0.0448
 5512ntf    fn425972   7.287   0.311   4.189 -0.3460 -0.0290  0.0610
 5512ntf    fn425973   7.409   0.371   4.348 -0.3059 -0.2605 -0.2660
 5512ntf    on525974   7.151   0.111   4.379  0.3090 -0.3365 -0.6220
 5512ntf    on525975   7.283   0.224   4.555 -0.0671 -0.6389 -0.1264
 5512ntf    on525976   6.975   0.557   4.457 -0.4676 -0.1738 -0.1103
 5512ntf    on525977   7.127   0.452   4.629 -0.4375 -0.5301  0.1317
 5512ntf    fn425978   6.821   0.405   4.651  0.0638 -0.2891 -0.1090
 5512ntf    fn425979   6.829   0.314   4.461 -0.4071 -0.4315  0.0295
 5512ntf    fn425980   6.933   0.226   4.616 -0.0110  0.1199 -0.0306
 5513ntf    cn125981   3.806   0.173   3.557 -0.4628  0.2699 -0.1695
 5513ntf    sn225982   3.883   0.296   3.666 -0.0482 -0.1175 -0.0213
 5513ntf    nn325983   4.018   0.317   3.588 -0.0644 -0.0166 -0.0212
 5513ntf    sn225984   4.045   0.409   3.464  0.2112 -0.2058 -0.1014
 5513ntf    cn125985   4.094   0.567   3.539  0.1735 -0.1418 -0.2099
 5513ntf    fn425986   3.875   0.060   3.563 -0.5155  0.2325 -0.2627
 5513ntf    fn425987   3.683   0.137   3.591 -0.3329 -0.0818 -0.0634
 5513ntf    fn425988   3.809   0.206   3.429 -0.2623 -0.0281 -0.2440
 5513ntf    on525989   3.792   0.408   3.673 -0.2537 -0.3038  0.3469
 5513ntf    on525990   3.909   0.220   3.785 -0.1859 -0.3765 -0.1568
 5513ntf    on525991   3.919   0.431   3.396  0.2061  0.0050 -0.0241
 5513ntf    on525992   4.161   0.370   3.387  0.2039  0.0851 -0.2612
 5513ntf    fn425993   4.193   0.563   3.627  0.0139 -0.3335 -0.0382
 5513ntf    fn425994   4.123   0.663   3.453  0.2396 -0.2821 -0.3429
 5513ntf    fn425995   3.984   0.616   3.596  0.2196  0.1293 -0.3526
 5514ntf    cn125996   6.954   2.968   1.908  0.5862  0.0309 -0.1666
 5514ntf    sn225997   7.013   2.839   2.023  0.0530  0.0256  0.1048
 5514ntf    nn325998   6.963   2.904   2.157 -0.3579  1.1643 -0.5853
 5514ntf    sn225999   7.049   2.946   2.281 -0.3900  0.1896 -0.2263
 5514ntf    cn126000   7.067   2.780   2.354 -0.0781  0.2008 -0.2750
 5514ntf    fn426001   7.014   3.084   1.927 -0.2639  0.4136  0.2601
 5514ntf    fn426002   6.987   2.933   1.785 -0.3518 -0.0501 -0.4041
 5514ntf    fn426003   6.823   2.988   1.911  0.5432 -0.3000  0.4224
 5514ntf    on526004   6.940   2.724   1.976  0.3681 -0.1114 -0.0480
 5514ntf    on526005   7.156   2.838   2.009  0.0365  0.4855 -0.1465
 5514ntf    on526006   6.963   3.017   2.372 -0.1331 -0.3346  0.4322
 5514ntf    on526007   7.186   2.985   2.256 -0.3885  0.5664  0.3536
 5514ntf    fn426008   7.135   2.699   2.276  0.1796  0.3040 -0.1590
 5514ntf    fn426009   7.131   2.779   2.470  0.5986  0.2371 -0.6438
 5514ntf    fn426010   6.950   2.719   2.362  0.1669 -0.3219 -0.6463
 5515ntf    cn126011   2.126   1.559   4.442  0.0595  0.1078 -0.0641
 5515ntf    sn226012   2.071   1.675   4.313  0.0511  0.0241 -0.1358
 5515ntf    nn326013   2.099   1.812   4.385 -0.3517  0.1778 -0.2670
 5515ntf    sn226014   2.037   1.953   4.355 -0.2461  0.2563 -0.1152
 5515ntf    cn126015   2.167   2.030   4.254  0.4375 -0.4305  0.2337
 5515ntf    fn426016   2.101   1.432   4.416  0.3269  0.1579 -0.5869
 5515ntf    fn426017   2.254   1.565   4.475 -0.0856  0.0922  0.5058
 5515ntf    fn426018   2.055   1.588   4.550  0.2994 -0.5460  0.2739
 5515ntf    on526019   2.173   1.649   4.215  0.3703 -0.7792  0.3999
 5515ntf    on526020   1.934   1.635   4.292  0.0586 -0.1260  0.0927
 5515ntf    on526021   2.045   2.024   4.481  0.2045 -0.2197  0.1302
 5515ntf    on526022   1.912   1.949   4.283 -0.3536 -0.8510  0.1175
 5515ntf    fn426023   2.288   2.014   4.306  0.6680 -0.5991 -0.3504
 5515ntf    fn426024   2.182   1.980   4.132 -0.1852  0.3184 -0.1554
 5515ntf    fn426025   2.140   2.155   4.221 -0.4546 -0.5203  0.6116
 5516ntf    cn126026   7.284   4.813   7.048 -0.1442  0.0260 -0.6472
 5516ntf    sn226027   7.104   4.822   7.070 -0.0856 -0.1945 -0.0534
 5516ntf    nn326028   7.068   4.704   6.972  0.1170 -0.4971  0.2343
 5516ntf    sn226029   6.922   4.664   6.931 -0.0432  0.3570 -0.0493
 5516ntf    cn126030   6.911   4.749   6.770 -0.2604  0.3271 -0.0506
 5516ntf    fn426031   7.345   4.707   7.099 -0.3336  0.1072 -0.2477
 5516ntf    fn426032   7.322   4.829   6.923 -0.0951 -0.1562 -0.6557
 5516ntf    fn426033   7.342   4.907   7.122 -0.3944 -0.1710 -0.1986
 5516ntf    on526034   7.087   4.805   7.212 -0.2376  0.5148  0.0182
 5516ntf    on526035   7.070   4.951   7.016 -0.6325 -0.4257 -0.2706
 5516ntf    on526036   6.811   4.715   7.007  0.2236  0.2944  0.3825
 5516ntf    on526037   6.920   4.523   6.902 -0.4601  0.3060  0.2207
 5516ntf    fn426038   6.999   4.707   6.681 -0.0831  0.7517 -0.0775
 5516ntf    fn426039   6.791   4.742   6.715 -0.3898  0.3703  0.2231
 5516ntf    fn426040   6.944   4.876   6.779  0.6610  0.0942 -0.0081
 5517ntf    cn126041   2.233   5.473   6.735  0.0381  0.1907 -0.1139
 5517ntf    sn226042   2.153   5.607   6.828  0.3702  0.2196  0.1337
 5517ntf    nn326043   2.251   5.726   6.800 -0.2286  0.6061 -0.3406
 5517ntf    sn226044   2.215   5.876   6.769  0.1304  0.7264 -0.1841
 5517ntf    cn126045   2.203   5.868   6.588  0.2622 -0.0674 -0.1641
 5517ntf    fn426046   2.159   5.365   6.723 -0.3021  0.4680 -0.5207
 5517ntf    fn426047   2.260   5.506   6.610  0.5844 -0.3492 -0.1439
 5517ntf    fn426048   2.351   5.447   6.790 -0.2109 -0.3252  0.1813
 5517ntf    on526049   2.024   5.627   6.767  0.3663  0.3980  0.2000
 5517ntf    on526050   2.168   5.553   6.961  0.4771 -0.3103 -0.0888
 5517ntf    on526051   2.327   5.962   6.794  0.2478  0.5270 -0.0161
 5517ntf    on526052   2.081   5.910   6.810 -0.1215 -0.0911 -0.2992
 5517ntf    fn426053   2.318   5.839   6.529  0.2903  0.2146 -0.2506
 5517ntf    fn426054   2.111   5.788   6.538  0.2898 -0.2278  0.0414
 5517ntf    fn426055   2.165   5.985   6.539  0.0857 -0.0197  0.0869
 5518ntf    cn126056   2.052   4.310   3.582  0.8451 -0.3202 -0.4101
 5518ntf    sn226057   2.069   4.204   3.729  0.5822 -0.1972 -0.2898
 5518ntf    nn326058   1.948   4.242   3.822  0.2302 -0.7506 -0.5110
 5518ntf    sn226059   1.798   4.198   3.823  0.0952 -0.2892 -0.2903
 5518ntf    cn126060   1.718   4.360   3.846  0.4134 -0.1896  0.1215
 5518ntf    fn426061   2.040   4.436   3.621 -0.2403 -0.6495  0.3679
 5518ntf    fn426062   2.153   4.295   3.498  0.8649 -0.5194 -0.3498
 5518ntf    fn426063   1.938   4.281   3.522  0.0615  0.6345  0.5688
 5518ntf    on526064   2.062   4.072   3.671  0.3056 -0.2370 -0.1696
 5518ntf    on526065   2.202   4.231   3.775  0.5843 -0.2261 -0.2784
 5518ntf    on526066   1.760   4.128   3.943 -0.6960 -0.0506 -0.3956
 5518ntf    on526067   1.752   4.150   3.695  0.3621 -0.4722 -0.3176
 5518ntf    fn426068   1.762   4.449   3.759 -0.8793 -0.0896 -0.4500
 5518ntf    fn426069   1.587   4.346   3.835  0.3732  0.2058  0.0925
 5518ntf    fn426070   1.744   4.412   3.965 -0.4315  0.2998  0.1002
 5519ntf    cn126071   0.391   7.051   1.147 -0.4952 -0.1855 -0.0595
 5519ntf    sn226072   0.357   7.064   1.325 -0.1424 -0.1077  0.0041
 5519ntf    nn326073   0.224   7.147   1.318  0.1037  0.3236  0.4088
 5519ntf    sn226074   0.089   7.124   1.395  0.0711 -0.0187  0.2505
 5519ntf    cn126075  -0.001   7.281   1.385  0.1944  0.0314 -0.1040
 5519ntf    fn426076   0.423   7.168   1.094  0.6675 -0.3734  0.2009
 5519ntf    fn426077   0.494   6.970   1.124 -0.3569 -0.0792  0.1873
 5519ntf    fn426078   0.287   7.001   1.082 -0.4875 -0.3088  0.0233
 5519ntf    on526079   0.326   6.927   1.356 -0.2600  0.0157  0.4317
 5519ntf    on526080   0.479   7.119   1.379 -0.2727  0.2529 -0.0644
 5519ntf    on526081   0.109   7.112   1.537 -0.4227 -0.0887  0.3153
 5519ntf    on526082  -0.002   7.030   1.334 -0.1883  0.3054  0.1363
 5519ntf    fn426083   0.065   7.387   1.429 -0.0757 -0.0055  0.4083
 5519ntf    fn426084  -0.039   7.309   1.261 -0.2270  0.4254  0.1097
 5519ntf    fn426085  -0.114   7.277   1.455  0.2057  0.0012 -0.0873
 5520ntf    cn126086   2.890   4.653   3.502  0.3344 -0.2260  0.2644
 5520ntf    sn226087   2.816   4.815   3.467 -0.1588 -0.5538 -0.2184
 5520ntf    nn326088   2.912   4.916   3.540 -0.3541 -0.3990 -0.1756
 5520ntf    sn226089   3.026   5.004   3.478 -0.2257 -0.2106  0.3282
 5520ntf    cn126090   3.164   4.886   3.492 -0.1832 -0.1753  0.2120
 5520ntf    fn426091   2.817   4.554   3.454 -0.5848  0.5803 -0.0320
 5520ntf    fn426092   3.011   4.642   3.448  0.2325 -0.4118  0.0740
 5520ntf    fn426093   2.904   4.634   3.632 -0.0769 -0.6062  0.2535
 5520ntf    on526094   2.811   4.823   3.323  0.1777 -0.1075 -0.2063
 5520ntf    on526095   2.686   4.801   3.529 -0.1116 -0.2219 -0.0428
 5520ntf    on526096   3.058   5.112   3.569  0.3577 -0.3757  0.3248
 5520ntf    on526097   3.023   5.036   3.337 -0.3994 -0.4284  0.2825
 5520ntf    fn426098   3.184   4.816   3.382  0.3221 -0.5204  0.5180
 5520ntf    fn426099   3.277   4.952   3.511 -0.5240  0.6124 -0.4503
 5520ntf    fn426100   3.152   4.800   3.593 -0.5784 -0.6648 -0.2415
 5521ntf    cn126101   1.759   5.996   1.804 -0.1151  0.3146 -0.4403
 5521ntf    sn226102   1.699   6.086   1.950 -0.1480  0.3015 -0.4456
 5521ntf    nn326103   1.716   6.238   1.914  0.0753  0.2379 -0.6111
 5521ntf    sn226104   1.703   6.367   2.002  0.6960 -0.1547  0.0645
 5521ntf    cn126105   1.871   6.383   2.071  0.5752 -0.3682  0.4120
 5521ntf    fn426106   1.686   6.017   1.696 -0.5039  0.1391 -0.2151
 5521ntf    fn426107   1.880   6.031   1.766  0.3400  0.1340  0.7966
 5521ntf    fn426108   1.769   5.865   1.823  0.0953  0.3298 -0.4410
 5521ntf    on526109   1.562   6.042   1.958  0.0244 -0.2677 -0.5261
 5521ntf    on526110   1.782   6.046   2.061  0.0613  0.2628 -0.6146
 5521ntf    on526111   1.622   6.355   2.121  0.5764 -0.1658 -0.0179
 5521ntf    on526112   1.691   6.484   1.919  0.0723 -0.4106 -0.2117
 5521ntf    fn426113   1.888   6.508   2.112 -0.4617 -0.0550 -0.0665
 5521ntf    fn426114   1.884   6.304   2.176  0.0726 -0.6834  0.2433
 5521ntf    fn426115   1.958   6.347   1.978  0.4263 -0.1971  0.2045
 5522ntf    cn126116   2.523   4.200   3.302  0.1865 -0.0933  0.1161
 5522ntf    sn226117   2.616   4.152   3.153  0.1615  0.1429  0.0229
 5522ntf    nn326118   2.753   4.225   3.173  0.1741  0.3241 -0.6843
 5522ntf    sn226119   2.846   4.290   3.065  0.1996  0.6038 -0.4929
 5522ntf    cn126120   2.976   4.342   3.182 -0.1878 -0.0204  0.2215
 5522ntf    fn426121   2.529   4.327   3.341  0.5313  0.0649 -0.4341
 5522ntf    fn426122   2.395   4.183   3.275 -0.0068 -0.1788  1.0608
 5522ntf    fn426123   2.545   4.121   3.405  0.4534 -0.6152 -0.3336
 5522ntf    on526124   2.626   4.010   3.177  0.4124  0.1335 -0.1409
 5522ntf    on526125   2.540   4.206   3.043 -0.1594 -0.0681  0.1394
 5522ntf    on526126   2.798   4.417   3.015  0.7077  1.0543  0.1436
 5522ntf    on526127   2.897   4.188   2.977  0.6747  0.0774  0.3699
 5522ntf    fn426128   3.046   4.243   3.234  0.1725  0.3089  0.3731
 5522ntf    fn426129   3.062   4.420   3.118  0.5903 -0.0313  1.2359
 5522ntf    fn426130   2.941   4.421   3.283  0.2769  0.0719  0.3105
 5523ntf    cn126131   0.619   2.549   7.579  0.1739  0.3912  0.1672
 5523ntf    sn226132   0.630   2.514   7.401  0.2047 -0.1713  0.2797
 5523ntf    nn326133   0.778   2.546   7.358  0.0188 -0.2681 -0.4420
 5523ntf    sn226134   0.837   2.691   7.349  0.2346 -0.3442 -0.2556
 5523ntf    cn126135   1.006   2.662   7.410  0.0738  0.1398  0.4223
 5523ntf    fn426136   0.688   2.464   7.653 -0.1349  0.4400  0.5151
 5523ntf    fn426137   0.650   2.669   7.627 -0.1231  0.4235  0.2815
 5523ntf    fn426138   0.494   2.530   7.618  0.2788  0.0085  0.3188
 5523ntf    on526139   0.604   2.372   7.393  0.0728 -0.1294 -0.0535
 5523ntf    on526140   0.535   2.606   7.344  0.2575 -0.4505 -0.2619
 5523ntf    on526141   0.783   2.789   7.439 -0.6714 -0.3092 -0.8227
 5523ntf    on526142   0.869   2.737   7.216 -0.0224  0.5557 -0.0131
 5523ntf    fn426143   1.076   2.576   7.338 -0.2066  0.5378 -0.3343
 5523ntf    fn426144   1.078   2.772   7.396  0.0893 -0.0134 -0.8178
 5523ntf    fn426145   1.012   2.628   7.538 -0.1334  0.7664  0.6003
 5524ntf    cn126146   1.668   2.090   1.244 -0.2401 -0.2463 -0.1466
 5524ntf    sn226147   1.801   2.199   1.305  0.0059 -0.2679 -0.6435
 5524ntf    nn326148   1.861   2.099   1.409 -0.1224 -0.0310 -0.3426
 5524ntf    sn226149   2.003   2.031   1.415 -0.2012 -0.2205 -0.6071
 5524ntf    cn126150   2.000   1.910   1.280 -0.2907 -0.4739 -0.3784
 5524ntf    fn426151   1.708   1.974   1.196  0.4068 -0.1145  0.0605
 5524ntf    fn426152   1.587   2.055   1.342 -0.2776  0.1547 -0.0335
 5524ntf    fn426153   1.599   2.149   1.148 -0.2610  0.1147  0.0863
 5524ntf    on526154   1.883   2.213   1.187  0.2311  0.0324 -0.4517
 5524ntf    on526155   1.746   2.319   1.361 -0.5657 -0.5121 -0.6747
 5524ntf    on526156   2.021   1.963   1.541  0.5721  0.2275 -0.4683
 5524ntf    on526157   2.104   2.131   1.387  0.2434 -0.5115 -0.0522
 5524ntf    fn426158   1.914   1.815   1.311 -0.3567 -0.3551 -0.1949
 5524ntf    fn426159   1.967   1.967   1.165 -0.0361 -0.2654 -0.3488
 5524ntf    fn426160   2.110   1.844   1.250 -0.2642 -0.3732 -0.5036
 5525ntf    cn126161   6.481   3.718   0.400  0.1777 -0.2037  0.3806
 5525ntf    sn226162   6.429   3.628   0.550 -0.2528 -0.2671  0.1947
 5525ntf    nn326163   6.437   3.738   0.661  0.3236  0.0182 -0.1224
 5525ntf    sn226164   6.548   3.772   0.768  0.2276 -0.1362  0.0268
 5525ntf    cn126165   6.550   3.953   0.771 -0.0325 -0.1331  0.0792
 5525ntf    fn426166   6.448   3.846   0.408 -0.1110 -0.3007  0.7936
 5525ntf    fn426167   6.612   3.711   0.384  0.1123  0.2626 -0.3849
 5525ntf    fn426168   6.431   3.670   0.287 -0.1548  0.5014  0.2203
 5525ntf    on526169   6.295   3.595   0.510 -0.2650 -0.0201  0.0226
 5525ntf    on526170   6.527   3.523   0.558  0.1126  0.0852  0.3834
 5525ntf    on526171   6.686   3.741   0.738  0.1927 -0.0846 -0.1925
 5525ntf    on526172   6.498   3.733   0.897 -0.0219  0.0102 -0.0228
 5525ntf    fn426173   6.666   3.997   0.818 -0.1685  0.2353  0.0784
 5525ntf    fn426174   6.533   4.014   0.655 -0.5490  0.2564  0.3542
 5525ntf    fn426175   6.456   4.008   0.846 -0.1820 -0.2892  0.0070
 5526ntf    cn126176   2.714   5.584   7.405  0.1972  0.0262  0.3820
 5526ntf    sn226177   2.709   5.550   7.583  0.3877 -0.0391  0.3753
 5526ntf    nn326178   2.564   5.604   7.608  0.3739 -0.0616  0.3428
 5526ntf    sn226179   2.503   5.668   7.737 -0.1807 -0.5339  0.3185
 5526ntf    cn126180   2.477   5.516   7.834  0.1063 -0.4585  0.5148
 5526ntf    fn426181   2.829   5.539   7.358 -0.1245 -0.7045  0.2863
 5526ntf    fn426182   2.616   5.522   7.342  0.5533  0.1327 -0.2905
 5526ntf    fn426183   2.707   5.712   7.372 -0.1709 -0.1532 -0.2526
 5526ntf    on526184   2.728   5.407   7.587  0.4068 -0.0641 -0.5573
 5526ntf    on526185   2.812   5.635   7.636 -0.0158  1.0303 -0.5219
 5526ntf    on526186   2.366   5.706   7.710  0.2186  0.6310 -0.1290
 5526ntf    on526187   2.582   5.762   7.813 -0.3584 -0.3424  0.2710
 5526ntf    fn426188   2.421   5.541   7.951 -0.5407 -0.2140  0.1583
 5526ntf    fn426189   2.396   5.431   7.774  0.7280 -0.5529 -0.2043
 5526ntf    fn426190   2.583   5.439   7.849 -0.0687 -0.7899  0.0677
 5527ntf    cn126191   4.027   6.200   1.602  0.1071 -0.0371 -0.0447
 5527ntf    sn226192   4.176   6.296   1.644  0.0807  0.0669 -0.1875
 5527ntf    nn326193   4.279   6.217   1.556  0.0579  0.3135 -0.4385
 5527ntf    sn226194   4.358   6.251   1.425 -0.1231  0.0612 -0.6146
 5527ntf    cn126195   4.414   6.083   1.386  0.2123  0.0649 -0.1586
 5527ntf    fn426196   3.916   6.234   1.666  0.2459  0.3466 -0.0057
 5527ntf    fn426197   3.996   6.208   1.474 -0.9187 -0.4776  0.1627
 5527ntf    fn426198   4.040   6.070   1.625  0.3209  0.0123  0.1152
 5527ntf    on526199   4.151   6.429   1.596 -0.5592  0.2239  0.5468
 5527ntf    on526200   4.179   6.270   1.786 -0.1640  0.4622 -0.1084
 5527ntf    on526201   4.479   6.326   1.446  0.0624 -0.3056 -0.3620
 5527ntf    on526202   4.269   6.285   1.316 -0.1433  0.5349 -0.4514
 5527ntf    fn426203   4.307   6.007   1.397  0.0930  0.2152 -0.2778
 5527ntf    fn426204   4.454   6.077   1.260 -0.2447 -0.1916 -0.2949
 5527ntf    fn426205   4.498   6.021   1.467  0.4524  0.2173 -0.2901
 5528ntf    cn126206   5.221   6.296   3.843 -0.1653 -0.1495  0.2610
 5528ntf    sn226207   5.073   6.355   3.756  0.1309  0.0976 -0.0801
 5528ntf    nn326208   5.001   6.220   3.723 -0.0939  0.1588  0.1492
 5528ntf    sn226209   4.849   6.190   3.696 -0.1610  0.5437  0.0985
 5528ntf    cn126210   4.834   6.138   3.522  0.1450 -0.6888  0.4324
 5528ntf    fn426211   5.281   6.213   3.759 -0.1707  0.1177 -0.0063
 5528ntf    fn426212   5.311   6.390   3.868 -0.4058  0.0395  0.4201
 5528ntf    fn426213   5.196   6.231   3.955 -0.0392 -0.3664  0.1634
 5528ntf    on526214   5.010   6.430   3.863 -0.0042  0.1394 -0.1892
 5528ntf    on526215   5.123   6.424   3.640  0.8856  0.4818  0.4610
 5528ntf    on526216   4.758   6.301   3.708 -0.0537  0.6146  0.2688
 5528ntf    on526217   4.815   6.072   3.772 -0.4091  0.1726 -0.5814
 5528ntf    fn426218   4.716   6.171   3.473  0.2297 -0.1227  0.5966
 5528ntf    fn426219   4.918   6.203   3.443  0.2551 -0.7372  0.5084
 5528ntf    fn426220   4.848   6.008   3.500 -0.0691 -0.5889 -0.3058
 5529ntf    cn126221   0.858   5.969   5.521  0.2006  0.0469  0.4772
 5529ntf    sn226222   0.728   6.066   5.603  0.0800  0.2101  0.0986
 5529ntf    nn326223   0.703   6.154   5.476 -0.3796  0.0118  0.0525
 5529ntf    sn226224   0.794   6.273   5.430 -0.0257 -0.3506 -0.1944
 5529ntf    cn126225   0.675   6.409   5.443  0.4152  0.0317 -0.1034
 5529ntf    fn426226   0.850   5.841   5.554 -0.2992 -0.0174  0.1172
 5529ntf    fn426227   0.854   5.974   5.388 -0.1245  0.0024  0.4832
 5529ntf    fn426228   0.978   6.015   5.551 -0.0624  0.5739  0.7323
 5529ntf    on526229   0.618   5.977   5.627  0.4512 -0.3987 -0.4319
 5529ntf    on526230   0.779   6.135   5.719  0.0251 -0.4895  0.5459
 5529ntf    on526231   0.813   6.277   5.287  0.4211  0.5116 -0.1182
 5529ntf    on526232   0.911   6.309   5.507 -0.0712 -0.4473 -0.0806
 5529ntf    fn426233   0.572   6.392   5.361  0.4141  0.8402 -0.2743
 5529ntf    fn426234   0.637   6.433   5.567 -0.3907 -0.3727 -0.2642
 5529ntf    fn426235   0.718   6.523   5.391  0.0992  0.0489 -0.3360
 5530ntf    cn126236   5.791   6.085   7.396  0.2866 -0.0307  0.1549
 5530ntf    sn226237   5.891   6.149   7.259 -0.4380  0.3334 -0.2148
 5530ntf    nn326238   5.771   6.189   7.166 -0.7584 -0.3400 -0.0984
 5530ntf    sn226239   5.708   6.119   7.040 -0.3611 -0.2541 -0.3480
 5530ntf    cn126240   5.541   6.102   7.111 -0.2620 -0.2383 -0.1102
 5530ntf    fn426241   5.864   6.044   7.498  0.0382 -0.2295  0.2528
 5530ntf    fn426242   5.703   6.168   7.451 -0.3470 -0.1871 -0.6088
 5530ntf    fn426243   5.712   5.983   7.366 -0.2175  0.4270 -0.0945
 5530ntf    on526244   5.962   6.260   7.316  0.1684 -0.3033  0.2992
 5530ntf    on526245   5.972   6.033   7.225 -0.5786  0.3547 -0.6282
 5530ntf    on526246   5.762   5.990   7.006  0.1529 -0.1718  0.1351
 5530ntf    on526247   5.697   6.213   6.930 -0.0740  0.0726 -0.1019
 5530ntf    fn426248   5.447   6.068   7.025 -0.2440  1.0278 -0.6620
 5530ntf    fn426249   5.535   6.026   7.218  0.2021  0.3854  0.3699
 5530ntf    fn426250   5.500   6.217   7.161  0.4505 -0.0222 -0.0018
 5531ntf    cn126251   4.693   4.068   6.025 -0.1101 -0.0124  0.2259
 5531ntf    sn226252   4.785   4.208   5.956  0.4932 -0.4674  0.1041
 5531ntf    nn326253   4.934   4.159   5.972  0.3761 -0.5606  0.9485
 5531ntf    sn226254   5.016   4.058   5.884  0.1328 -0.0688  0.1379
 5531ntf    cn126255   5.055   3.934   6.012  0.2252  0.0051  0.1823
 5531ntf    fn426256   4.739   4.046   6.148  0.7784  0.1530 -0.0695
 5531ntf    fn426257   4.565   4.099   6.034 -0.1852 -0.3625  0.4206
 5531ntf    fn426258   4.698   3.961   5.947 -0.0307  0.1994 -0.0595
 5531ntf    on526259   4.744   4.227   5.819 -0.1351 -0.4426  0.2953
 5531ntf    on526260   4.745   4.314   6.045  0.3702  0.4807 -1.0471
 5531ntf    on526261   5.145   4.117   5.857  0.0764  0.1319  0.3043
 5531ntf    on526262   4.949   3.987   5.779  0.3919  0.0390 -0.1024
 5531ntf    fn426263   4.945   3.892   6.072  0.4109 -0.4811  0.1849
 5531ntf    fn426264   5.123   3.834   5.959  0.4658  0.1758  0.1659
 5531ntf    fn426265   5.121   3.986   6.114 -0.2355  0.3321  0.3187
 5532ntf    cn126266   5.082   7.223   0.262 -0.5273  0.4194  0.0806
 5532ntf    sn226267   5.054   7.363   0.150 -0.1379  0.2059 -0.2870
 5532ntf    nn326268   5.156   7.337   0.034  0.0646 -0.1583 -0.0298
 5532ntf    sn226269   5.301   7.394   0.023  0.1601 -0.3438  0.2785
 5532ntf    cn126270   5.266   7.559  -0.045 -0.0979 -0.4898  0.0547
 5532ntf    fn426271   4.974   7.203   0.336 -0.6383 -0.3727 -0.2823
 5532ntf    fn426272   5.121   7.109   0.209 -0.3741  0.3862  0.2639
 5532ntf    fn426273   5.173   7.250   0.354 -0.0311 -0.2787 -0.1973
 5532ntf    on526274   4.914   7.353   0.114 -0.1962 -0.0921  0.0196
 5532ntf    on526275   5.091   7.478   0.229  0.4412  0.2014 -0.5507
 5532ntf    on526276   5.370   7.319  -0.080 -0.3880  0.1186 -0.4325
 5532ntf    on526277   5.367   7.407   0.151  0.3766 -0.0249  0.1364
 5532ntf    fn426278   5.374   7.613  -0.100 -0.5823  0.7021  0.2553
 5532ntf    fn426279   5.164   7.574  -0.128  0.3634  0.1286 -0.4151
 5532ntf    fn426280   5.240   7.649   0.049 -0.0832 -0.2133 -0.2059
 5533ntf    cn126281   5.477   5.411   2.438 -0.2433 -0.4730 -0.1122
 5533ntf    sn226282   5.544   5.535   2.554  0.4915 -0.3870 -0.6238
 5533ntf    nn326283   5.560   5.664   2.467  0.0865  0.1768  0.1315
 5533ntf    sn226284   5.686   5.691   2.377  0.3432 -0.0940  0.4103
 5533ntf    cn126285   5.780   5.801   2.489  0.4455  0.1478  0.0885
 5533ntf    fn426286   5.467   5.294   2.499 -0.2624  0.1364  1.0806
 5533ntf    fn426287   5.354   5.435   2.398 -0.1782  0.0661  0.0012
 5533ntf    fn426288   5.543   5.390   2.325  0.2587 -0.0365  0.0916
 5533ntf    on526289   5.440   5.554   2.652  0.6101 -0.0242 -0.5669
 5533ntf    on526290   5.665   5.479   2.608  0.1326 -0.5212  0.0458
 5533ntf    on526291   5.667   5.775   2.261  0.3178  0.2402  0.6545
 5533ntf    on526292   5.778   5.580   2.368 -0.0024 -0.3749  0.3219
 5533ntf    fn426293   5.903   5.817   2.444  0.4987 -0.2389  0.0858
 5533ntf    fn426294   5.725   5.921   2.496 -0.6267 -0.3788  0.9903
 5533ntf    fn426295   5.783   5.742   2.607 -0.7043  0.2909  0.1999
 5534ntf    cn126296   1.264   6.860   5.962  0.4264  0.2135 -0.1791
 5534ntf    sn226297   1.176   7.017   5.986  0.2325  0.1036 -0.1678
 5534ntf    nn326298   1.252   7.074   6.111  0.3538  0.2982 -0.3315
 5534ntf    sn226299   1.199   7.089   6.258 -0.1545 -0.1159 -0.4693
 5534ntf    cn126300   1.322   7.198   6.336 -0.1863 -0.0885 -0.4575
 5534ntf    fn426301   1.205   6.776   5.878  0.0912 -0.0658  0.3272
 5534ntf    fn426302   1.385   6.877   5.912  0.1911 -0.0151 -0.8463
 5534ntf    fn426303   1.276   6.798   6.078  0.0206  0.2024 -0.1404
 5534ntf    on526304   1.207   7.071   5.856  0.0553 -0.1258 -0.3070
 5534ntf    on526305   1.047   6.960   6.015  0.1992  0.0928 -0.3367
 5534ntf    on526306   1.207   6.963   6.328  0.2888 -0.1072 -0.4972
 5534ntf    on526307   1.079   7.168   6.260  0.2530  0.5066  0.1575
 5534ntf    fn426308   1.289   7.224   6.461  0.1705 -0.3209 -0.3125
 5534ntf    fn426309   1.440   7.139   6.349 -0.1726  0.0397  0.0142
 5534ntf    fn426310   1.335   7.320   6.285  0.3759 -0.0184 -0.1545
 5535ntf    cn126311   1.173   2.147   0.832  0.1237  0.1175  0.2404
 5535ntf    sn226312   1.043   2.051   0.749  0.2897  0.1752 -0.0852
 5535ntf    nn326313   1.084   2.071   0.599 -0.4842  0.1985 -0.3008
 5535ntf    sn226314   1.040   1.966   0.491 -0.2317 -0.4475  0.2163
 5535ntf    cn126315   0.948   2.082   0.384  0.0818 -0.2276  0.1834
 5535ntf    fn426316   1.140   2.175   0.957 -0.9210  0.8299 -0.1745
 5535ntf    fn426317   1.289   2.084   0.833 -0.0267 -0.1612  0.3016
 5535ntf    fn426318   1.198   2.264   0.776 -0.3890  0.4476  0.6877
 5535ntf    on526319   1.060   1.922   0.812  0.5663  0.5436  0.5995
 5535ntf    on526320   0.924   2.125   0.782  0.5892  0.6084  0.0166
 5535ntf    on526321   0.934   1.874   0.525 -0.3091 -0.5162 -0.1976
 5535ntf    on526322   1.149   1.939   0.400 -0.0900  0.5072  0.0913
 5535ntf    fn426323   0.832   2.118   0.435 -0.2153 -0.5665 -0.2501
 5535ntf    fn426324   1.017   2.192   0.360  0.3421 -0.5044 -0.3705
 5535ntf    fn426325   0.910   2.032   0.268  0.5692  0.3748 -0.2427
 5536ntf    cn126326   6.307   4.182   3.454 -0.0505 -0.5760  0.4062
 5536ntf    sn226327   6.427   4.275   3.554  0.0261  0.1577 -0.3525
 5536ntf    nn326328   6.339   4.386   3.621  0.2489  0.1091  0.0273
 5536ntf    sn226329   6.386   4.503   3.714 -0.0668  0.3253 -0.0813
 5536ntf    cn126330   6.367   4.430   3.879 -0.0322  0.2006 -0.1327
 5536ntf    fn426331   6.366   4.094   3.375 -0.1654 -0.1480 -0.1614
 5536ntf    fn426332   6.225   4.112   3.531 -0.5531  0.1882  0.5741
 5536ntf    fn426333   6.224   4.263   3.389  0.2077  0.2698  1.1093
 5536ntf    on526334   6.478   4.172   3.642 -0.3106 -0.1764 -0.5414
 5536ntf    on526335   6.524   4.335   3.466  0.3166 -0.2709 -0.3311
 5536ntf    on526336   6.293   4.613   3.721  0.1484  0.4541  0.9442
 5536ntf    on526337   6.527   4.537   3.714  0.0621 -0.2051  0.0454
 5536ntf    fn426338   6.252   4.370   3.903  0.0676  0.0179 -0.1048
 5536ntf    fn426339   6.462   4.340   3.905 -0.0163  0.3304  0.2715
 5536ntf    fn426340   6.373   4.526   3.970  0.2008 -0.2760  0.3610
 5537ntf    cn126341   3.548   5.054   0.784  0.2237  0.0497 -0.2427
 5537ntf    sn226342   3.593   5.018   0.612  0.0441 -0.0822 -0.2624
 5537ntf    nn326343   3.470   4.936   0.558 -0.2788  0.0765  0.2272
 5537ntf    sn226344   3.448   4.780   0.551  0.1798  0.0169  0.0536
 5537ntf    cn126345   3.266   4.784   0.541  0.1860 -0.3869 -0.2214
 5537ntf    fn426346   3.433   5.118   0.796  0.0588 -0.2757 -0.0733
 5537ntf    fn426347   3.541   4.949   0.865 -0.5482  0.0080 -0.3544
 5537ntf    fn426348   3.636   5.137   0.837  0.0413  0.2420 -0.2417
 5537ntf    on526349   3.599   5.149   0.553  0.1415 -0.1862 -0.4872
 5537ntf    on526350   3.717   4.946   0.618 -0.4085 -0.8578  0.0106
 5537ntf    on526351   3.463   4.713   0.678 -0.1196  0.1566  0.1674
 5537ntf    on526352   3.484   4.712   0.429 -0.7889 -0.3590 -0.0339
 5537ntf    fn426353   3.219   4.864   0.447 -0.5840 -0.2637  0.2619
 5537ntf    fn426354   3.208   4.666   0.526  0.2166 -0.4535  0.1564
 5537ntf    fn426355   3.204   4.826   0.650  0.0960  0.3673 -0.5607
 5538ntf    cn126356   2.036   5.816   3.223 -0.3721  0.6228 -0.2604
 5538ntf    sn226357   2.165   5.819   3.095 -0.0354 -0.3249  0.0464
 5538ntf    nn326358   2.072   5.785   2.974 -0.3677  0.2557  0.1339
 5538ntf    sn226359   2.077   5.828   2.823  0.0130  0.1417  0.1130
 5538ntf    cn126360   2.067   5.672   2.730  0.2579  0.1713  0.0355
 5538ntf    fn426361   1.928   5.746   3.191 -0.0330 -0.1727  0.2983
 5538ntf    fn426362   2.087   5.769   3.336  0.0953 -0.0058 -0.7235
 5538ntf    fn426363   1.993   5.939   3.248 -0.1647  0.6967 -0.2692
 5538ntf    on526364   2.208   5.957   3.087  0.6630 -0.5699 -0.5289
 5538ntf    on526365   2.259   5.716   3.132 -0.3020 -0.7152 -0.3572
 5538ntf    on526366   2.202   5.892   2.789  0.1648  0.1243  0.6392
 5538ntf    on526367   1.958   5.901   2.787  0.0016 -0.0381 -0.2172
 5538ntf    fn426368   2.074   5.568   2.812  0.3910 -0.3023 -0.5744
 5538ntf    fn426369   1.957   5.662   2.658 -0.0236  0.0398  0.4780
 5538ntf    fn426370   2.152   5.653   2.631 -0.1326 -0.8726 -0.1074
 5539ntf    cn126371   5.663   0.950   1.216 -0.1066  0.2577  0.2987
 5539ntf    sn226372   5.763   1.056   1.107 -0.0203 -0.0904  0.0376
 5539ntf    nn326373   5.696   1.194   1.141 -0.0900  0.0308 -0.5919
 5539ntf    sn226374   5.559   1.247   1.085 -0.1561  0.3389 -0.1383
 5539ntf    cn126375   5.609   1.396   0.993 -0.2182  0.4420 -0.0071
 5539ntf    fn426376   5.693   0.825   1.188  0.4396  0.3838  0.3217
 5539ntf    fn426377   5.695   0.970   1.343 -0.5809 -0.1816  0.4903
 5539ntf    fn426378   5.533   0.976   1.205 -0.1528 -0.1520 -0.1431
 5539ntf    on526379   5.897   1.042   1.159  0.1484  0.3716 -0.2650
 5539ntf    on526380   5.740   1.006   0.974  0.0895  0.1525 -0.0727
 5539ntf    on526381   5.476   1.295   1.194 -0.4048 -0.1701 -0.1010
 5539ntf    on526382   5.487   1.172   0.985  0.2758  0.0668 -0.2474
 5539ntf    fn426383   5.679   1.372   0.883 -0.1760  0.5984 -0.0139
 5539ntf    fn426384   5.505   1.472   0.965 -0.2555  0.5982  0.5461
 5539ntf    fn426385   5.693   1.466   1.068  0.0729 -0.6696  0.7460
 5540ntf    cn126386   3.272   2.277   0.229 -0.1897 -0.4133 -0.0074
 5540ntf    sn226387   3.185   2.324   0.076  0.0336  0.3903  0.1091
 5540ntf    nn326388   3.288   2.431   0.025  0.0051  0.0625 -0.6426
 5540ntf    sn226389   3.305   2.584   0.057 -0.0640 -0.0866  0.1301
 5540ntf    cn126390   3.484   2.599   0.026 -0.0813  0.2767  0.2073
 5540ntf    fn426391   3.257   2.152   0.269 -0.3570 -0.3974 -0.0216
 5540ntf    fn426392   3.400   2.310   0.224 -0.3730  0.3379  0.2501
 5540ntf    fn426393   3.221   2.347   0.329  0.0281 -0.3287  0.0460
 5540ntf    on526394   3.187   2.200   0.003 -0.1556  0.5521 -0.1695
 5540ntf    on526395   3.056   2.379   0.108 -0.0126  0.2089  0.2408
 5540ntf    on526396   3.282   2.612   0.196  0.4648 -0.3271  0.2695
 5540ntf    on526397   3.245   2.677  -0.036 -0.0991  0.1233  0.3615
 5540ntf    fn426398   3.555   2.524   0.109 -0.4638  0.1302  0.4045
 5540ntf    fn426399   3.518   2.575  -0.099 -0.6011 -0.2822  0.1684
 5540ntf    fn426400   3.525   2.723   0.046  0.6393  0.1367 -0.3881
 5541ntf    cn126401   3.060   2.701   4.911 -0.1692 -0.1112 -0.5921
 5541ntf    sn226402   2.959   2.556   4.952 -0.1454 -0.0859 -0.4421
 5541ntf    nn326403   2.824   2.596   4.883 -0.2475  0.4783  0.0838
 5541ntf    sn226404   2.678   2.552   4.921 -0.1962  0.0049 -0.2568
 5541ntf    cn126405   2.620   2.709   4.993  0.1741 -0.1115  0.3022
 5541ntf    fn426406   3.045   2.727   4.782  0.6080  0.1525 -0.6365
 5541ntf    fn426407   3.017   2.815   4.962  0.4510 -0.1699  0.0679
 5541ntf    fn426408   3.188   2.682   4.941 -0.3219 -0.3898 -0.1023
 5541ntf    on526409   3.026   2.442   4.893  0.3728  0.1411 -0.2918
 5541ntf    on526410   2.950   2.555   5.096  0.1023 -0.1571 -0.4268
 5541ntf    on526411   2.658   2.449   5.020 -0.0099  0.4051  0.2043
 5541ntf    on526412   2.600   2.532   4.801  0.1894  0.2588 -0.5509
 5541ntf    fn426413   2.496   2.711   5.039  0.1195  0.1246  0.1447
 5541ntf    fn426414   2.699   2.750   5.091  0.2362 -0.3165  0.3398
 5541ntf    fn426415   2.631   2.803   4.901  0.6968 -0.2477  0.2202
 5542ntf    cn126416   6.727   5.381   1.459  0.0493 -0.0214 -0.0925
 5542ntf    sn226417   6.668   5.396   1.288 -0.0888 -0.2890 -0.0697
 5542ntf    nn326418   6.796   5.338   1.216  0.1266 -0.0050  0.0794
 5542ntf    sn226419   6.831   5.342   1.063  0.1201 -0.1302  0.0747
 5542ntf    cn126420   6.942   5.485   1.073 -0.3057  0.2458 -0.5576
 5542ntf    fn426421   6.825   5.464   1.491  0.0996 -0.0554 -0.1596
 5542ntf    fn426422   6.631   5.422   1.541  0.0280  0.2938 -0.2716
 5542ntf    fn426423   6.765   5.262   1.501  0.1450  0.0273 -0.0414
 5542ntf    on526424   6.563   5.299   1.273 -0.3273  0.0808 -0.8763
 5542ntf    on526425   6.643   5.537   1.269  0.0381 -0.2238  0.2466
 5542ntf    on526426   6.722   5.381   0.977 -0.0158 -0.1604  0.2317
 5542ntf    on526427   6.918   5.232   1.029 -0.1539 -0.6352  0.9496
 5542ntf    fn426428   7.033   5.490   0.977 -0.0753  0.2376 -0.3387
 5542ntf    fn426429   6.873   5.599   1.067 -0.2165  0.3227 -0.1092
 5542ntf    fn426430   7.009   5.486   1.186 -0.4755  0.4259 -0.4571
 5543ntf    cn126431   5.987   5.376   3.514  0.2142  0.4338  0.0030
 5543ntf    sn226432   6.112   5.411   3.386  0.2283  0.1016 -0.0746
 5543ntf    nn326433   6.048   5.546   3.338 -0.1759  0.1089  0.4709
 5543ntf    sn226434   6.099   5.691   3.304 -0.3489  0.0206 -0.1849
 5543ntf    cn126435   5.951   5.782   3.359 -0.0960  0.2221  0.1612
 5543ntf    fn426436   5.865   5.365   3.463  0.2051 -0.2286  0.1531
 5543ntf    fn426437   5.999   5.258   3.571  0.1186  0.0909 -0.6741
 5543ntf    fn426438   5.986   5.465   3.611  0.3130  0.3082  0.1184
 5543ntf    on526439   6.241   5.418   3.450  0.1364  0.5404  0.0709
 5543ntf    on526440   6.078   5.298   3.304  0.4865  0.0811 -0.1523
 5543ntf    on526441   6.102   5.705   3.161  0.0190  0.0998 -0.1695
 5543ntf    on526442   6.209   5.744   3.381 -0.3290  0.5672 -0.5867
 5543ntf    fn426443   5.839   5.727   3.315  0.0073  0.2579 -0.1483
 5543ntf    fn426444   5.936   5.783   3.491 -1.0201  0.0855  0.0609
 5543ntf    fn426445   5.956   5.907   3.316  0.1979  0.2119  0.1639
 5544ntf    cn126446   5.142   2.228   5.547 -0.1120  0.1005  0.4489
 5544ntf    sn226447   5.281   2.343   5.568  0.1588 -0.1205 -0.1249
 5544ntf    nn326448   5.391   2.237   5.605 -0.0674 -0.3340 -0.0637
 5544ntf    sn226449   5.524   2.261   5.683 -0.0335 -0.5352 -0.0574
 5544ntf    cn126450   5.505   2.224   5.860  0.1421  0.0132  0.0804
 5544ntf    fn426451   5.134   2.144   5.649  0.1707  0.0495  0.4306
 5544ntf    fn426452   5.026   2.291   5.542 -0.4054 -0.4449  0.2720
 5544ntf    fn426453   5.160   2.159   5.435  0.1504 -0.3453  0.7608
 5544ntf    on526454   5.302   2.401   5.437  0.4119  0.1502  0.0337
 5544ntf    on526455   5.244   2.433   5.674  0.8847  0.1391 -0.0825
 5544ntf    on526456   5.567   2.399   5.688  0.6145 -0.7479  0.5344
 5544ntf    on526457   5.618   2.156   5.651  0.1992 -0.1243 -0.7443
 5544ntf    fn426458   5.619   2.240   5.924 -0.0916 -0.5464  0.6552
 5544ntf    fn426459   5.417   2.298   5.926  0.0471  0.3791 -0.4516
 5544ntf    fn426460   5.473   2.098   5.886 -0.6594  0.1633 -0.1372
 5545ntf    cn126461   4.882   3.282   1.468 -0.3992  0.0655  0.0283
 5545ntf    sn226462   4.851   3.450   1.532 -0.1373 -0.0081  0.3487
 5545ntf    nn326463   4.734   3.493   1.437  0.1040  0.4228  0.2459
 5545ntf    sn226464   4.583   3.455   1.457  0.1985 -0.2958 -0.3469
 5545ntf    cn126465   4.519   3.579   1.574  0.0608 -0.1816 -0.5438
 5545ntf    fn426466   4.965   3.218   1.548 -0.2664  0.1344 -0.0550
 5545ntf    fn426467   4.768   3.214   1.458 -0.5700  0.4352 -0.5901
 5545ntf    fn426468   4.938   3.285   1.348  0.1699 -0.0914  0.2885
 5545ntf    on526469   4.822   3.418   1.669  0.0248 -0.0826  0.3666
 5545ntf    on526470   4.972   3.523   1.503 -0.3420  0.1096 -0.2328
 5545ntf    on526471   4.552   3.327   1.516  0.0941  0.1419  0.5687
 5545ntf    on526472   4.503   3.481   1.339  0.6007 -0.0041 -0.5576
 5545ntf    fn426473   4.404   3.543   1.630  0.1707  0.5273  0.1536
 5545ntf    fn426474   4.609   3.596   1.668 -0.2072  0.4812 -0.3996
 5545ntf    fn426475   4.499   3.700   1.524 -0.0266  0.3106  0.6688
 5546ntf    cn126476   3.467   4.541   3.514 -0.3404  0.3564  0.0930
 5546ntf    sn226477   3.589   4.666   3.463  0.1514 -0.2365 -0.1873
 5546ntf    nn326478   3.509   4.742   3.351 -0.0611  0.0502  0.1554
 5546ntf    sn226479   3.514   4.716   3.196 -0.0462 -0.3672  0.2249
 5546ntf    cn126480   3.607   4.861   3.138 -0.2264 -0.1925  0.3748
 5546ntf    fn426481   3.441   4.454   3.419  0.1951  0.0759  0.2019
 5546ntf    fn426482   3.504   4.470   3.619  0.0021  0.2626 -0.0899
 5546ntf    fn426483   3.350   4.591   3.551 -0.6424 -0.4666  0.2597
 5546ntf    on526484   3.596   4.756   3.575 -0.5207 -0.2351 -0.1436
 5546ntf    on526485   3.709   4.597   3.423 -0.0542 -0.7057  0.0027
 5546ntf    on526486   3.383   4.742   3.143  0.2160 -0.4193 -0.4607
 5546ntf    on526487   3.588   4.598   3.156  0.0796 -0.0926 -0.3620
 5546ntf    fn426488   3.634   4.843   3.010 -0.7089  0.4236  0.1813
 5546ntf    fn426489   3.541   4.975   3.150 -0.0239 -0.0100 -0.2310
 5546ntf    fn426490   3.724   4.879   3.198  0.1596 -0.1216 -0.3898
 5547ntf    cn126491   1.565   3.801   0.860  0.0553 -0.0584 -0.0178
 5547ntf    sn226492   1.487   3.938   0.771  0.3010  0.0821 -0.0163
 5547ntf    nn326493   1.447   3.858   0.642  0.2727  0.4221 -0.2217
 5547ntf    sn226494   1.328   3.876   0.541  0.1570  0.4711 -0.0779
 5547ntf    cn126495   1.396   3.974   0.403  0.1114 -0.4745 -0.7880
 5547ntf    fn426496   1.605   3.845   0.978  0.1838  0.1697 -0.1485
 5547ntf    fn426497   1.482   3.700   0.885 -0.1074  0.1067  0.1095
 5547ntf    fn426498   1.664   3.745   0.793 -0.1015  0.1490 -0.4260
 5547ntf    on526499   1.370   3.984   0.842  0.0911 -0.7439  0.1803
 5547ntf    on526500   1.588   4.035   0.736  0.1207  0.6086  0.8735
 5547ntf    on526501   1.219   3.952   0.596  0.0157  0.0875  0.1798
 5547ntf    on526502   1.271   3.754   0.489  0.2167  0.1586  0.5836
 5547ntf    fn426503   1.442   4.090   0.445 -0.1958 -0.4536 -0.5017
 5547ntf    fn426504   1.492   3.903   0.347  0.4877 -0.4701 -0.1535
 5547ntf    fn426505   1.297   4.002   0.319 -0.5722 -0.2903  0.0587
 5548ntf    cn126506   1.755   1.253   2.710  0.5430  0.0240  0.1155
 5548ntf    sn226507   1.697   1.092   2.646 -0.1868  0.2854  0.1062
 5548ntf    nn326508   1.832   1.012   2.646 -0.3133  0.0720  0.1153
 5548ntf    sn226509   1.857   0.857   2.650 -0.3475  0.0761  0.4637
 5548ntf    cn126510   1.870   0.827   2.829 -0.2311 -0.4321  0.3697
 5548ntf    fn426511   1.653   1.337   2.717 -0.1963 -0.8312 -0.1621
 5548ntf    fn426512   1.819   1.233   2.824  0.6491  0.2847  0.1017
 5548ntf    fn426513   1.838   1.316   2.629 -0.2216  0.4866 -0.3246
 5548ntf    on526514   1.605   1.042   2.745  0.0037  0.2025  0.2419
 5548ntf    on526515   1.653   1.124   2.512 -0.0449 -0.0212 -0.0147
 5548ntf    on526516   1.990   0.826   2.604 -0.5627  0.1977 -0.2445
 5548ntf    on526517   1.745   0.776   2.608 -0.2681  0.2163 -0.0286
 5548ntf    fn426518   1.963   0.908   2.877  0.3689 -0.3368 -0.9100
 5548ntf    fn426519   1.758   0.857   2.891  0.0520 -0.2614  0.8033
 5548ntf    fn426520   1.908   0.705   2.865  0.6091 -0.0901  0.6568
 5549ntf    cn126521   0.765   5.589   1.137  0.1690  0.2968 -0.2928
 5549ntf    sn226522   0.816   5.508   1.292  0.2510  0.0358 -0.4547
 5549ntf    nn326523   0.919   5.615   1.342 -0.3876  0.2939  0.3418
 5549ntf    sn226524   1.057   5.612   1.418 -0.1611 -0.1287 -0.0770
 5549ntf    cn126525   1.024   5.749   1.534  0.1387 -0.0829 -0.0462
 5549ntf    fn426526   0.855   5.592   1.041  0.2257  0.2624 -0.2409
 5549ntf    fn426527   0.659   5.517   1.103  0.1514  0.0158  0.3374
 5549ntf    fn426528   0.732   5.715   1.162  0.1024  0.0464  0.9978
 5549ntf    on526529   0.692   5.500   1.366  0.6686  0.4235  0.3025
 5549ntf    on526530   0.877   5.383   1.254 -0.0283 -0.4100  0.5222
 5549ntf    on526531   1.170   5.663   1.344 -0.1250 -0.1027 -0.0034
 5549ntf    on526532   1.060   5.484   1.484 -0.0380 -0.3770 -0.5605
 5549ntf    fn426533   0.911   5.726   1.598  0.0226  0.2927 -0.1137
 5549ntf    fn426534   1.123   5.765   1.621  0.1336  0.4553 -0.1356
 5549ntf    fn426535   1.010   5.872   1.486  0.0179 -0.1197 -0.1048
 5550ntf    cn126536   0.362   6.906   7.325  0.1234 -0.5849 -0.1291
 5550ntf    sn226537   0.528   6.906   7.251  0.2017  0.1717  0.0323
 5550ntf    nn326538   0.506   6.982   7.115 -0.6121 -0.1704 -0.0329
 5550ntf    sn226539   0.512   7.135   7.083  0.0275 -0.2584 -0.3378
 5550ntf    cn126540   0.671   7.149   6.994  0.1359  0.2857 -0.0647
 5550ntf    fn426541   0.353   6.843   7.441 -0.5393  0.1801  0.2423
 5550ntf    fn426542   0.325   7.032   7.343  0.0983 -0.5576 -0.3667
 5550ntf    fn426543   0.274   6.847   7.247 -0.1356  0.0311 -0.3112
 5550ntf    on526544   0.614   6.973   7.346  0.2128  1.2648 -0.7351
 5550ntf    on526545   0.560   6.767   7.226 -0.8669 -0.0509 -0.1385
 5550ntf    on526546   0.516   7.220   7.199 -0.2777 -0.3136 -0.2870
 5550ntf    on526547   0.410   7.159   6.984  0.0249 -0.0731 -0.2900
 5550ntf    fn426548   0.689   7.265   6.934  0.1174  0.1124 -0.4029
 5550ntf    fn426549   0.766   7.131   7.084 -0.5292 -0.2567  0.5501
 5550ntf    fn426550   0.683   7.065   6.893  0.5229  0.4859 -0.1858
 5551ntf    cn126551   7.324   4.484   6.093 -0.2025  0.1513  0.1846
 5551ntf    sn226552   7.486   4.415   6.138 -0.0382  0.0823 -0.4928
 5551ntf    nn326553   7.582   4.471   6.027  0.0457 -0.0623 -0.4951
 5551ntf    sn226554   7.611   4.411   5.885 -0.0482 -0.0378 -0.5254
 5551ntf    cn126555   7.759   4.307   5.909  0.1172  0.3899  0.3473
 5551ntf    fn426556   7.318   4.614   6.114  0.4059  0.2107  0.0276
 5551ntf    fn426557   7.297   4.458   5.966 -0.3982 -0.7171  0.3939
 5551ntf    fn426558   7.222   4.444   6.166 -0.2840 -0.1543 -0.0911
 5551ntf    on526559   7.514   4.462   6.272  0.0033 -0.0526 -0.4531
 5551ntf    on526560   7.458   4.273   6.137 -0.7466  0.2259 -0.8341
 5551ntf    on526561   7.654   4.509   5.789 -0.1812  0.4687 -0.0761
 5551ntf    on526562   7.505   4.328   5.835 -0.1893  0.0417 -0.3568
 5551ntf    fn426563   7.731   4.203   5.985  0.2001  0.3672  0.3461
 5551ntf    fn426564   7.815   4.257   5.801  0.3321  0.0086  0.6356
 5551ntf    fn426565   7.857   4.376   5.967  0.1918 -0.2610  1.0047
 5552ntf    cn126566   3.745   2.290   4.809 -0.3084  0.2667 -0.1598
 5552ntf    sn226567   3.676   2.457   4.830 -0.1426  0.2716  0.3498
 5552ntf    nn326568   3.768   2.522   4.720 -0.0660 -0.4906 -0.0450
 5552ntf    sn226569   3.884   2.628   4.727 -0.1704 -0.4047  0.3913
 5552ntf    cn126570   3.801   2.790   4.734  0.0983 -0.2531  0.0472
 5552ntf    fn426571   3.730   2.246   4.685  0.1863 -0.4445  0.0308
 5552ntf    fn426572   3.876   2.283   4.818 -0.3360 -0.2425 -0.1334
 5552ntf    fn426573   3.692   2.198   4.888  0.4731 -0.3627 -0.3610
 5552ntf    on526574   3.539   2.448   4.786 -0.0672 -0.3902  0.2366
 5552ntf    on526575   3.701   2.491   4.968  0.8268 -0.1470  0.2859
 5552ntf    on526576   3.957   2.641   4.604 -0.2318 -0.5832  0.3363
 5552ntf    on526577   3.963   2.625   4.848  0.4412  0.6740  0.0356
 5552ntf    fn426578   3.884   2.885   4.692 -0.4667  0.0525 -0.3861
 5552ntf    fn426579   3.699   2.798   4.650 -0.1950 -0.3305  0.3977
 5552ntf    fn426580   3.757   2.826   4.853  0.0419  0.2276 -0.1172
 5553ntf    cn126581   4.217   4.150   0.880  0.0737 -0.1962  0.5357
 5553ntf    sn226582   4.251   3.986   0.808 -0.1279  0.0083 -0.0343
 5553ntf    nn326583   4.406   3.988   0.783 -0.1034 -0.0200  0.1155
 5553ntf    sn226584   4.473   4.069   0.667 -0.2671 -0.2228 -0.1229
 5553ntf    cn126585   4.478   3.937   0.543  0.4370 -0.2670 -0.0525
 5553ntf    fn426586   4.087   4.166   0.899  0.1742  0.3510  0.7910
 5553ntf    fn426587   4.280   4.186   0.990  0.5690  0.1845  0.1357
 5553ntf    fn426588   4.243   4.247   0.794 -0.4428 -0.5596 -0.0387
 5553ntf    on526589   4.216   3.903   0.921  0.4426  0.3730  0.4152
 5553ntf    on526590   4.178   3.980   0.684  0.3861  0.0867 -0.3424
 5553ntf    on526591   4.613   4.086   0.696 -0.1021 -0.7634 -0.5747
 5553ntf    on526592   4.408   4.183   0.607  0.2764 -0.1155 -0.5182
 5553ntf    fn426593   4.500   3.820   0.601  0.1350 -0.4188 -0.2360
 5553ntf    fn426594   4.367   3.926   0.470  0.4402  0.5894 -0.1901
 5553ntf    fn426595   4.581   3.955   0.462  0.3021  0.4397 -0.0728
 5554ntf    cn126596   5.465   4.918   1.491 -0.3009 -0.1140  0.0663
 5554ntf    sn226597   5.428   4.759   1.412  0.0937 -0.0922 -0.1684
 5554ntf    nn326598   5.425   4.663   1.537 -0.0669 -0.4239 -0.4242
 5554ntf    sn226599   5.375   4.515   1.544 -0.2395 -0.3390  0.1782
 5554ntf    cn126600   5.527   4.424   1.499 -0.3957 -0.4095 -0.2090
 5554ntf    fn426601   5.516   5.006   1.406 -0.2392  0.1205  0.3448
 5554ntf    fn426602   5.357   4.973   1.544  0.1041  0.3116  0.4569
 5554ntf    fn426603   5.555   4.907   1.587  0.0683 -0.1176 -0.2756
 5554ntf    on526604   5.294   4.787   1.366  0.0573 -0.3787 -0.2407
 5554ntf    on526605   5.538   4.752   1.320  0.5034  0.0448  0.3065
 5554ntf    on526606   5.273   4.477   1.450 -0.3086 -0.1634  0.1833
 5554ntf    on526607   5.349   4.470   1.679 -0.0236 -0.0108  0.3292
 5554ntf    fn426608   5.580   4.461   1.384  0.5407 -0.2559  0.2678
 5554ntf    fn426609   5.622   4.447   1.588 -0.1170  0.0955 -0.6355
 5554ntf    fn426610   5.520   4.292   1.495  0.0904 -0.4315 -0.3197
 5555ntf    cn126611   1.152   5.326   2.571  0.2162 -0.4355  0.7247
 5555ntf    sn226612   1.175   5.157   2.509 -0.0782 -0.2491  0.1032
 5555ntf    nn326613   1.330   5.140   2.532 -0.0120 -0.1654 -0.2654
 5555ntf    sn226614   1.411   5.034   2.615  0.2145  0.2892  0.1017
 5555ntf    cn126615   1.504   5.152   2.717  0.1754  0.3742  0.0396
 5555ntf    fn426616   1.236   5.404   2.505 -0.4801 -0.2203  0.0794
 5555ntf    fn426617   1.029   5.374   2.569  0.3433 -0.1287  0.3043
 5555ntf    fn426618   1.195   5.328   2.696 -0.0124 -0.2135  0.7999
 5555ntf    on526619   1.088   5.084   2.596  0.0046  0.1016  0.4819
 5555ntf    on526620   1.136   5.166   2.370  0.6388 -0.2424 -0.1072
 5555ntf    on526621   1.512   4.970   2.535 -0.5822 -0.2219 -0.5160
 5555ntf    on526622   1.338   4.953   2.710  0.0849  0.1253 -0.1363
 5555ntf    fn426623   1.619   5.103   2.760  0.0189 -0.1203 -0.0879
 5555ntf    fn426624   1.535   5.263   2.653  0.3745  0.2290 -0.1191
 5555ntf    fn426625   1.427   5.186   2.819  0.1530 -0.2108  0.2220
 5556ntf    cn126626   4.689   3.266   6.422  0.3245  0.0840 -0.2275
 5556ntf    sn226627   4.722   3.117   6.521  0.0640  0.2402  0.0962
 5556ntf    nn326628   4.580   3.094   6.583  0.3649 -0.0361  0.6921
 5556ntf    sn226629   4.548   3.019   6.717 -0.3694 -0.4565  0.2903
 5556ntf    cn126630   4.683   2.897   6.727  0.0171 -0.0472  0.0952
 5556ntf    fn426631   4.793   3.326   6.367  0.5119  0.7088  0.7889
 5556ntf    fn426632   4.604   3.225   6.329  0.1117 -0.1198  0.0561
 5556ntf    fn426633   4.629   3.365   6.486  0.0325 -0.2362 -0.0059
 5556ntf    on526634   4.771   3.010   6.437  0.2293  0.0261  0.4639
 5556ntf    on526635   4.811   3.177   6.617  0.6877 -0.0486 -0.2982
 5556ntf    on526636   4.427   2.941   6.712 -0.2434 -0.6206 -0.2576
 5556ntf    on526637   4.571   3.104   6.831 -0.8741  0.5514 -0.3491
 5556ntf    fn426638   4.807   2.938   6.745  0.0479  0.0076 -0.2277
 5556ntf    fn426639   4.668   2.829   6.840 -0.3178 -0.5006 -0.2157
 5556ntf    fn426640   4.685   2.824   6.617 -0.6965 -0.0666  0.0867
 5557ntf    cn126641   5.442   7.023   6.666  0.3962 -0.1656  0.2188
 5557ntf    sn226642   5.451   7.155   6.791  0.0787 -0.2783  0.3628
 5557ntf    nn326643   5.302   7.142   6.839 -0.1165  0.3981 -0.0531
 5557ntf    sn226644   5.245   7.110   6.982 -0.0685 -0.1825 -0.1612
 5557ntf    cn126645   5.188   7.277   7.025  0.0338 -0.1626 -0.1012
 5557ntf    fn426646   5.535   7.044   6.575  0.0824 -0.3126 -0.1358
 5557ntf    fn426647   5.458   6.900   6.713  0.7477 -0.4587 -0.6564
 5557ntf    fn426648   5.331   7.019   6.595  0.3100  0.4636  0.3107
 5557ntf    on526649   5.558   7.120   6.882  0.0363 -0.2566  0.4213
 5557ntf    on526650   5.464   7.273   6.710  0.2667 -0.0546  0.7173
 5557ntf    on526651   5.339   7.073   7.085 -0.2684  0.1482  0.1429
 5557ntf    on526652   5.124   7.033   6.964 -0.3401  0.1359  0.2696
 5557ntf    fn426653   5.285   7.359   7.061  0.0818 -0.2536 -0.0230
 5557ntf    fn426654   5.126   7.337   6.925  0.9589  0.3017 -0.4026
 5557ntf    fn426655   5.105   7.273   7.128 -0.0829  0.3398 -0.1717
 5558ntf    cn126656   5.900   0.234   2.071 -0.4589 -0.4504  0.3774
 5558ntf    sn226657   5.911   0.370   2.191  0.2385 -0.3354  0.1874
 5558ntf    nn326658   5.803   0.464   2.125  0.5109 -0.0918  0.0861
 5558ntf    sn226659   5.831   0.605   2.063 -0.1164  0.0172  0.0476
 5558ntf    cn126660   5.812   0.707   2.212  0.1285  0.3659 -0.1584
 5558ntf    fn426661   5.781   0.176   2.081 -0.5106 -0.4833 -0.3939
 5558ntf    fn426662   5.911   0.279   1.948  0.2852 -0.5441  0.4068
 5558ntf    fn426663   5.990   0.139   2.088  0.0935  0.0412  0.2107
 5558ntf    on526664   5.868   0.308   2.313  0.2257 -0.3993  0.1504
 5558ntf    on526665   6.047   0.416   2.188 -0.0042  0.3847 -0.2174
 5558ntf    on526666   5.715   0.645   1.986 -0.1365 -0.3306 -0.1012
 5558ntf    on526667   5.963   0.625   2.010  0.1437 -0.5521  0.4706
 5558ntf    fn426668   5.685   0.708   2.251  0.0762 -0.3770 -0.3081
 5558ntf    fn426669   5.879   0.665   2.318  0.9600  0.1057 -0.7878
 5558ntf    fn426670   5.839   0.834   2.185 -0.3761  0.4001 -0.5128
 5559ntf    cn126671   2.853   0.767   0.846 -0.1120 -0.0323  0.0797
 5559ntf    sn226672   2.970   0.905   0.827  0.0598 -0.1471  0.2907
 5559ntf    nn326673   3.097   0.828   0.875  0.3360  0.0620 -0.0958
 5559ntf    sn226674   3.223   0.885   0.950  0.2314  0.0893  0.0611
 5559ntf    cn126675   3.348   0.875   0.817 -0.0414 -0.2187 -0.1731
 5559ntf    fn426676   2.892   0.671   0.765 -0.0329 -0.0180  0.1008
 5559ntf    fn426677   2.846   0.729   0.973  0.1757 -0.1100  0.0715
 5559ntf    fn426678   2.732   0.796   0.801 -0.1382 -0.4416 -0.1080
 5559ntf    on526679   2.973   0.937   0.686 -0.0967  0.4018  0.4080
 5559ntf    on526680   2.924   1.000   0.926  0.5065  0.2248  0.1468
 5559ntf    on526681   3.275   0.797   1.052  0.2053 -0.1117 -0.0965
 5559ntf    on526682   3.211   1.025   0.980  0.4317  0.2259 -0.4871
 5559ntf    fn426683   3.464   0.922   0.859 -0.5086  0.1728  0.7146
 5559ntf    fn426684   3.367   0.747   0.787 -0.0672 -0.2450 -0.0782
 5559ntf    fn426685   3.317   0.935   0.703  0.0213  0.2654  0.0634
 5560ntf    cn126686   6.473   0.843   2.559  0.2299 -0.2642 -0.0116
 5560ntf    sn226687   6.550   0.991   2.485  0.1069 -0.1983 -0.0078
 5560ntf    nn326688   6.427   1.087   2.469  0.3773  0.1165 -0.1918
 5560ntf    sn226689   6.322   1.100   2.353 -0.0097 -0.2205  0.1203
 5560ntf    cn126690   6.182   1.024   2.442 -0.0447 -0.4511 -0.1306
 5560ntf    fn426691   6.395   0.866   2.664  0.0980  0.3143 -0.2329
 5560ntf    fn426692   6.398   0.783   2.469 -0.7773  0.3773  0.3833
 5560ntf    fn426693   6.559   0.755   2.607  0.3778 -0.1640 -0.0913
 5560ntf    on526694   6.641   1.035   2.588  0.0110  0.0457 -0.0273
 5560ntf    on526695   6.608   0.944   2.362  0.5539  0.1943  0.0517
 5560ntf    on526696   6.325   1.012   2.239 -0.3137  0.1874 -0.2065
 5560ntf    on526697   6.282   1.237   2.331  0.2314 -0.0743  0.5778
 5560ntf    fn426698   6.077   0.986   2.371 -0.1105 -0.4497 -0.0347
 5560ntf    fn426699   6.223   0.917   2.508 -0.2744 -0.6034 -0.2345
 5560ntf    fn426700   6.130   1.113   2.524  0.0688 -0.4095 -0.1034
 5561ntf    cn126701   2.851   0.270   7.358  0.1794 -0.4075 -0.1740
 5561ntf    sn226702   2.715   0.187   7.270 -0.0801 -0.2432  0.0706
 5561ntf    nn326703   2.782   0.054   7.219  0.5332  0.1683 -0.2056
 5561ntf    sn226704   2.777  -0.020   7.081 -0.1659  0.0934 -0.1438
 5561ntf    cn126705   2.615  -0.101   7.099  0.0770 -0.3156  0.2418
 5561ntf    fn426706   2.923   0.191   7.437 -0.1188  0.0094  0.5197
 5561ntf    fn426707   2.942   0.316   7.273  0.2338  0.0055  0.1056
 5561ntf    fn426708   2.807   0.379   7.418  0.3000 -0.3606 -0.1708
 5561ntf    on526709   2.606   0.158   7.359 -0.1073 -0.1162  0.0793
 5561ntf    on526710   2.687   0.277   7.161 -0.2383 -0.1689  0.1723
 5561ntf    on526711   2.867  -0.133   7.081 -0.3348 -0.0462 -0.8087
 5561ntf    on526712   2.760   0.046   6.954  0.1757  0.3470 -0.0590
 5561ntf    fn426713   2.615  -0.169   7.212  0.2977 -0.4652  0.1518
 5561ntf    fn426714   2.517  -0.013   7.113  0.1624 -0.1797  0.0022
 5561ntf    fn426715   2.594  -0.183   6.997 -0.2532 -0.2782  0.2792
 5562ntf    cn126716   4.150   5.694   1.125 -0.2462  0.1322 -0.1776
 5562ntf    sn226717   4.237   5.567   1.029 -0.0740  0.0505  0.0854
 5562ntf    nn326718   4.287   5.479   1.149 -0.2809 -0.2314 -0.0324
 5562ntf    sn226719   4.434   5.473   1.202 -0.2238  0.0103 -0.1642
 5562ntf    cn126720   4.507   5.375   1.068 -0.0526 -0.1606  0.0526
 5562ntf    fn426721   4.078   5.775   1.050 -0.2653 -0.1155 -0.4258
 5562ntf    fn426722   4.070   5.645   1.218  0.1246  0.3184  0.2482
 5562ntf    fn426723   4.234   5.766   1.199 -0.4796  0.2443 -0.0239
 5562ntf    on526724   4.132   5.513   0.945 -0.2946  0.6142 -0.0024
 5562ntf    on526725   4.340   5.637   0.956 -0.1363 -0.1540 -0.2020
 5562ntf    on526726   4.450   5.387   1.317  0.3226  0.0072 -0.2387
 5562ntf    on526727   4.506   5.598   1.206 -0.1918 -0.0240  0.5795
 5562ntf    fn426728   4.624   5.319   1.098 -0.1788 -0.3100  0.2678
 5562ntf    fn426729   4.428   5.272   1.044 -0.0204 -0.1834  0.0413
 5562ntf    fn426730   4.522   5.432   0.949  0.1007 -0.4930 -0.0894
 5563ntf    cn126731   3.981   2.460   2.216 -0.0391 -0.0996  0.0487
 5563ntf    sn226732   4.031   2.437   2.043 -0.4234 -0.2760 -0.0396
 5563ntf    nn326733   3.907   2.509   1.979 -0.3969  0.2949  0.5417
 5563ntf    sn226734   3.900   2.619   1.867  0.1122 -0.1334  0.0827
 5563ntf    cn126735   3.723   2.600   1.829  0.1389  0.2446 -0.2386
 5563ntf    fn426736   3.855   2.428   2.238 -0.2977  0.8295 -0.0286
 5563ntf    fn426737   4.043   2.385   2.306 -0.1774 -0.3354 -0.0509
 5563ntf    fn426738   3.987   2.587   2.254 -0.4389 -0.1075  0.1411
 5563ntf    on526739   4.160   2.499   2.026 -0.0989 -0.6551  0.9715
 5563ntf    on526740   4.040   2.293   2.038  0.3989 -0.2320  0.1002
 5563ntf    on526741   3.972   2.575   1.750  0.0817 -0.3289  0.1375
 5563ntf    on526742   3.917   2.755   1.912  0.2557 -0.1350  0.0332
 5563ntf    fn426743   3.646   2.628   1.933  0.7030  0.1755  0.2006
 5563ntf    fn426744   3.686   2.664   1.719  0.0479  0.2650 -0.1961
 5563ntf    fn426745   3.707   2.470   1.809  0.1422  0.1034  0.6138
 5564ntf    cn126746   2.730   0.192   0.920 -0.4871  0.2088  0.3323
 5564ntf    sn226747   2.561   0.127   0.916 -0.4999  0.2692 -0.1610
 5564ntf    nn326748   2.599  -0.016   0.862  0.6211  0.5580 -0.1618
 5564ntf    sn226749   2.607  -0.064   0.713  0.1532 -0.2697  0.0746
 5564ntf    cn126750   2.740  -0.188   0.732 -0.2226 -0.6805  0.0400
 5564ntf    fn426751   2.802   0.098   0.860 -0.1845  0.2174  0.6795
 5564ntf    fn426752   2.745   0.316   0.874 -0.2831 -0.0899 -0.4226
 5564ntf    fn426753   2.788   0.192   1.039 -0.2766  0.6440  0.2327
 5564ntf    on526754   2.510   0.129   1.051 -0.2032 -0.0670 -0.0416
 5564ntf    on526755   2.489   0.219   0.832 -0.5827  0.3826  0.0343
 5564ntf    on526756   2.662   0.029   0.617 -0.4830 -0.2635 -0.2871
 5564ntf    on526757   2.493  -0.140   0.667 -0.0975  0.1509  0.0046
 5564ntf    fn426758   2.711  -0.296   0.661  0.2100 -0.2705 -0.7767
 5564ntf    fn426759   2.858  -0.133   0.708 -0.3022 -0.1561  0.8284
 5564ntf    fn426760   2.753  -0.228   0.857  0.1373 -0.6414  0.0166
 5565ntf    cn126761   2.846   7.123   3.350  0.0747  0.4987  0.2918
 5565ntf    sn226762   2.954   7.047   3.476 -0.1563  0.2591  0.3475
 5565ntf    nn326763   2.970   6.901   3.421 -0.3119  0.5065 -0.3766
 5565ntf    sn226764   3.075   6.853   3.316  0.0960 -0.1099  0.2983
 5565ntf    cn126765   3.181   6.751   3.423  0.4138  0.2374  0.3192
 5565ntf    fn426766   2.829   7.253   3.366 -0.2737  0.3975  0.7707
 5565ntf    fn426767   2.897   7.101   3.230 -0.4901 -0.1102  0.1545
 5565ntf    fn426768   2.722   7.076   3.351  0.3129 -0.1756 -0.5484
 5565ntf    on526769   3.077   7.123   3.470  0.3250 -0.5432 -0.1081
 5565ntf    on526770   2.872   7.048   3.595  0.5164 -0.3314  0.8184
 5565ntf    on526771   3.146   6.958   3.246 -0.2205 -0.1516 -0.0853
 5565ntf    on526772   3.024   6.746   3.234 -0.6257  0.1717  0.3770
 5565ntf    fn426773   3.234   6.826   3.519  0.8463  0.5550 -0.1649
 5565ntf    fn426774   3.120   6.658   3.495  0.3274  0.3798  0.4327
 5565ntf    fn426775   3.266   6.681   3.351 -0.0079 -0.0455  0.0924
 5566ntf    cn126776   1.276   0.635   1.641 -0.1764  0.2692  0.1268
 5566ntf    sn226777   1.435   0.716   1.609 -0.0696 -0.0318 -0.0983
 5566ntf    nn326778   1.539   0.600   1.627  0.0316  0.1498  0.4930
 5566ntf    sn226779   1.696   0.597   1.612 -0.0148  0.0749  0.0108
 5566ntf    cn126780   1.713   0.598   1.431 -0.2996 -0.0646 -0.0175
 5566ntf    fn426781   1.287   0.559   1.749 -0.3499  0.1028  0.0271
 5566ntf    fn426782   1.173   0.716   1.658 -0.0182  0.4090  0.4366
 5566ntf    fn426783   1.251   0.560   1.535  0.1599  0.3174  0.0116
 5566ntf    on526784   1.424   0.754   1.470 -0.0445  0.1473 -0.0513
 5566ntf    on526785   1.442   0.823   1.704 -0.0375  0.1372 -0.2892
 5566ntf    on526786   1.750   0.470   1.654 -0.1095 -0.0960 -0.3768
 5566ntf    on526787   1.756   0.713   1.672  0.4822 -0.2607  0.1637
 5566ntf    fn426788   1.682   0.718   1.385  0.3947  0.3566  0.6106
 5566ntf    fn426789   1.837   0.572   1.393 -0.1213  0.4131  0.2277
 5566ntf    fn426790   1.630   0.514   1.371 -0.1415 -0.2219 -0.0162
 5567ntf    cn126791   5.600   1.154   3.467 -0.0041 -0.0846  0.1090
 5567ntf    sn226792   5.772   1.159   3.407 -0.0114  0.0013  0.0969
 5567ntf    nn326793   5.852   1.142   3.542  0.2049  0.0314 -0.0275
 5567ntf    sn226794   5.971   1.051   3.587  0.0264 -0.1457  0.0893
 5567ntf    cn126795   6.050   1.158   3.711 -0.1258  0.1422 -0.0624
 5567ntf    fn426796   5.523   1.232   3.395  0.2584  0.5099  0.4630
 5567ntf    fn426797   5.553   1.030   3.462 -0.0254 -0.0612 -0.2501
 5567ntf    fn426798   5.584   1.198   3.591  0.0382  0.2698 -0.0098
 5567ntf    on526799   5.783   1.049   3.315 -0.0685 -0.1515  0.2719
 5567ntf    on526800   5.785   1.290   3.348 -0.4856 -0.5068 -1.1543
 5567ntf    on526801   6.071   1.028   3.486 -0.5835 -0.3880 -0.4652
 5567ntf    on526802   5.933   0.942   3.672 -0.2502 -0.0483  0.0899
 5567ntf    fn426803   6.083   1.276   3.661  0.1453  0.1817  0.2084
 5567ntf    fn426804   5.970   1.184   3.814 -0.3926 -0.4509 -0.1197
 5567ntf    fn426805   6.161   1.109   3.762 -0.4734 -0.1427  0.4396
 5568ntf    cn126806   2.030   4.384   2.164 -0.1264 -0.0111  0.1078
 5568ntf    sn226807   1.921   4.477   2.276 -0.0109  0.0834  0.1422
 5568ntf    nn326808   1.794   4.385   2.284 -0.1167  0.1987 -0.1974
 5568ntf    sn226809   1.669   4.403   2.378 -0.0647 -0.0038 -0.0892
 5568ntf    cn126810   1.538   4.471   2.272 -0.1042  0.3313  0.1702
 5568ntf    fn426811   2.061   4.265   2.213 -0.1242  0.1229  0.4372
 5568ntf    fn426812   1.971   4.345   2.053  0.3076  0.2869 -0.2310
 5568ntf    fn426813   2.142   4.448   2.134 -0.1017 -0.0230  0.1744
 5568ntf    on526814   1.987   4.483   2.404  0.0760  0.1115  0.0963
 5568ntf    on526815   1.898   4.600   2.204  0.5043  0.3801  0.4760
 5568ntf    on526816   1.676   4.508   2.477 -0.3564  0.1871 -0.2719
 5568ntf    on526817   1.617   4.278   2.427 -0.4990  0.4959  0.7458
 5568ntf    fn426818   1.582   4.568   2.193  0.4943 -0.2115 -0.1757
 5568ntf    fn426819   1.485   4.378   2.194 -0.2487  0.2615  0.3487
 5568ntf    fn426820   1.436   4.519   2.341 -0.5318  0.1570 -0.3371
 5569ntf    cn126821   4.935   7.015   4.767 -0.5490  0.0092  0.0030
 5569ntf    sn226822   4.965   6.836   4.768 -0.2220  0.0644  0.2521
 5569ntf    nn326823   4.998   6.822   4.921 -0.0270  0.3271  0.2348
 5569ntf    sn226824   5.115   6.738   4.985 -0.0760 -0.1127 -0.2486
 5569ntf    cn126825   5.009   6.638   5.095 -0.1583 -0.0594 -0.2783
 5569ntf    fn426826   4.946   7.071   4.648 -0.0880  0.0633  0.0684
 5569ntf    fn426827   4.813   7.039   4.813 -0.2308  0.0663  0.8339
 5569ntf    fn426828   5.022   7.082   4.840 -0.3081 -0.2064 -0.0843
 5569ntf    on526829   4.840   6.771   4.736 -0.3564  0.2257  0.4494
 5569ntf    on526830   5.074   6.813   4.676 -0.4621  0.2663 -0.0838
 5569ntf    on526831   5.200   6.817   5.070 -0.1603 -0.5887  0.2848
 5569ntf    on526832   5.171   6.626   4.913  0.3999 -0.1194  0.1296
 5569ntf    fn426833   4.943   6.544   5.029 -0.1754 -0.3146  0.1043
 5569ntf    fn426834   5.075   6.574   5.189 -0.0138  0.2596 -0.1609
 5569ntf    fn426835   4.918   6.707   5.162  0.0779  0.2710 -0.2923
 5570ntf    cn126836   5.595   3.959   2.551  0.3376  0.0773  0.3038
 5570ntf    sn226837   5.728   3.914   2.435  0.2391  0.0929  0.1847
 5570ntf    nn326838   5.682   3.797   2.342 -0.6695  0.3929  0.2412
 5570ntf    sn226839   5.684   3.643   2.376  0.0029  0.3469  0.0076
 5570ntf    cn126840   5.524   3.598   2.303  0.1467  0.4681 -0.3873
 5570ntf    fn426841   5.626   4.039   2.652 -0.0255  0.4398  0.1291
 5570ntf    fn426842   5.494   4.013   2.485  0.1450 -0.6679 -0.0281
 5570ntf    fn426843   5.550   3.848   2.607  0.5858 -0.2928 -0.2233
 5570ntf    on526844   5.734   4.031   2.350  0.3643 -0.0558 -0.0108
 5570ntf    on526845   5.836   3.886   2.527  0.3026  0.5776  0.2629
 5570ntf    on526846   5.682   3.604   2.514 -0.2139  0.7356  0.1154
 5570ntf    on526847   5.779   3.577   2.290  0.0631 -0.2519  0.5306
 5570ntf    fn426848   5.527   3.615   2.172  0.2615  0.3481 -0.4004
 5570ntf    fn426849   5.488   3.472   2.319  0.3507  0.4473 -0.0813
 5570ntf    fn426850   5.427   3.673   2.354 -0.0931 -0.3663  0.4128
 5571ntf    cn126851   4.393   6.032   3.792 -0.0355 -0.5905 -0.0527
 5571ntf    sn226852   4.242   6.132   3.776  0.2930 -0.1002 -0.1113
 5571ntf    nn326853   4.161   6.072   3.896  0.2695 -0.4761 -0.3115
 5571ntf    sn226854   4.068   5.946   3.896 -0.1926 -0.1445  0.5268
 5571ntf    cn126855   3.912   6.032   3.864 -0.1147 -0.1137  0.2252
 5571ntf    fn426856   4.462   6.052   3.903  0.2412  0.7595 -0.4500
 5571ntf    fn426857   4.376   5.901   3.789  0.5107 -0.6863  0.8090
 5571ntf    fn426858   4.472   6.061   3.690  0.2942 -0.1152  0.3352
 5571ntf    on526859   4.289   6.266   3.802  0.1401 -0.0512 -0.0888
 5571ntf    on526860   4.195   6.100   3.643 -0.1371  0.0192  0.0116
 5571ntf    on526861   4.062   5.889   4.029 -0.2980 -0.2017  0.4977
 5571ntf    on526862   4.080   5.854   3.786 -0.2570  0.0773  0.3364
 5571ntf    fn426863   3.805   5.957   3.888  0.1915 -0.5477  0.2357
 5571ntf    fn426864   3.900   6.130   3.952 -0.3553  0.2892 -0.2532
 5571ntf    fn426865   3.899   6.083   3.743 -0.5676 -0.0226  0.3083
 5572ntf    cn126866   6.606   1.027   1.494  0.2177  0.1794  0.2955
 5572ntf    sn226867   6.753   0.920   1.499  0.3645  0.3545 -0.2403
 5572ntf    nn326868   6.866   1.027   1.485  0.2155  0.5578  0.0908
 5572ntf    sn226869   6.973   1.054   1.373  0.0606 -0.0117 -0.1984
 5572ntf    cn126870   7.129   1.070   1.466 -0.0302 -0.1192 -0.0275
 5572ntf    fn426871   6.503   0.983   1.565 -0.3543  0.3952 -0.3860
 5572ntf    fn426872   6.626   1.146   1.550 -0.0806  0.1368  0.4923
 5572ntf    fn426873   6.567   1.048   1.369  0.1488 -0.2186  0.2497
 5572ntf    on526874   6.736   0.865   1.631 -0.2034  0.1914 -0.3753
 5572ntf    on526875   6.745   0.816   1.399  0.2987 -0.2445  0.3862
 5572ntf    on526876   6.964   1.180   1.305  0.5315 -0.0324 -0.3046
 5572ntf    on526877   7.003   0.946   1.282 -0.4503 -0.2390 -0.1022
 5572ntf    fn426878   7.112   1.153   1.568  0.1736  0.6812 -0.6364
 5572ntf    fn426879   7.167   0.956   1.521  0.0922 -0.0175  0.0989
 5572ntf    fn426880   7.233   1.107   1.394  0.1669  0.0539  0.3414
 5573ntf    cn126881   4.239   2.592   2.581  0.1492 -0.3309 -0.0539
 5573ntf    sn226882   4.242   2.767   2.631 -0.0593 -0.4178  0.2695
 5573ntf    nn326883   4.394   2.801   2.609 -0.1275 -0.0906  0.2922
 5573ntf    sn226884   4.492   2.896   2.687  0.1592 -0.2453  0.1202
 5573ntf    cn126885   4.581   2.780   2.796 -0.3903 -0.0451  0.7867
 5573ntf    fn426886   4.315   2.569   2.475  0.2742 -0.6574  0.1070
 5573ntf    fn426887   4.293   2.516   2.675 -0.2469  0.0080  0.4565
 5573ntf    fn426888   4.120   2.542   2.551  0.1001 -0.0087 -0.4077
 5573ntf    on526889   4.152   2.832   2.538  0.1452 -0.4152  0.0715
 5573ntf    on526890   4.209   2.759   2.771 -0.4707 -0.0025  0.2000
 5573ntf    on526891   4.418   2.975   2.781  0.7747 -0.0184  0.4219
 5573ntf    on526892   4.588   2.959   2.599  0.1225  0.5898  0.6768
 5573ntf    fn426893   4.642   2.840   2.896 -0.2182 -0.2919  0.8305
 5573ntf    fn426894   4.499   2.689   2.845 -0.0324 -0.7910  0.0260
 5573ntf    fn426895   4.672   2.719   2.721 -0.4839 -0.0159  0.6470
 5574ntf    cn126896   0.554   7.489   3.049 -0.1316  0.3193 -0.2820
 5574ntf    sn226897   0.413   7.558   3.141 -0.2007 -0.3938  0.1586
 5574ntf    nn326898   0.283   7.502   3.073  0.1322 -0.3513 -0.5211
 5574ntf    sn226899   0.213   7.363   3.095 -0.2025 -0.1108 -0.0615
 5574ntf    cn126900   0.078   7.396   3.212 -0.2402 -0.0553 -0.1211
 5574ntf    fn426901   0.673   7.515   3.099 -0.4793  0.0624  0.7091
 5574ntf    fn426902   0.544   7.357   3.047  0.7443  0.2480  0.0092
 5574ntf    fn426903   0.561   7.528   2.923  0.8035  0.4161 -0.2056
 5574ntf    on526904   0.441   7.516   3.276 -0.0318 -0.5472  0.0762
 5574ntf    on526905   0.419   7.702   3.128 -0.6250 -0.3848  0.0506
 5574ntf    on526906   0.290   7.260   3.161  0.0854 -0.1022 -0.3762
 5574ntf    on526907   0.153   7.326   2.969 -0.2104  0.3543 -0.1952
 5574ntf    fn426908   0.119   7.458   3.321 -0.4440 -0.6255  0.2826
 5574ntf    fn426909  -0.008   7.478   3.153 -0.1989  0.2479  0.2377
 5574ntf    fn426910   0.017   7.283   3.245  0.1822 -0.1701  0.2841
 5575ntf    cn126911   2.430   2.395   3.579  0.3576 -0.2320 -0.1140
 5575ntf    sn226912   2.380   2.559   3.520  0.0370 -0.1101  0.4969
 5575ntf    nn326913   2.450   2.572   3.380 -0.8417  0.4238  0.0943
 5575ntf    sn226914   2.404   2.518   3.240  0.0599 -0.2295  0.0393
 5575ntf    cn126915   2.322   2.661   3.163  0.2989 -0.1007  0.0203
 5575ntf    fn426916   2.398   2.305   3.487 -0.0120  0.0544 -0.2706
 5575ntf    fn426917   2.562   2.388   3.586  0.3537 -0.0813  0.0910
 5575ntf    fn426918   2.380   2.364   3.697  0.1745 -0.2497 -0.1952
 5575ntf    on526919   2.236   2.562   3.510  0.0847  0.1749 -0.1619
 5575ntf    on526920   2.432   2.659   3.610 -0.0041 -0.1118  0.5228
 5575ntf    on526921   2.309   2.410   3.244 -0.0439 -0.1450 -0.1615
 5575ntf    on526922   2.506   2.504   3.140 -0.1123  0.3072 -0.2158
 5575ntf    fn426923   2.217   2.708   3.228  0.4660 -0.4804  0.5774
 5575ntf    fn426924   2.401   2.766   3.155  0.0679  0.0519 -0.2812
 5575ntf    fn426925   2.279   2.628   3.042 -0.4023  0.5421  0.0859
 5576ntf    cn126926   4.392   5.089   6.442  0.2446 -0.1096 -0.1655
 5576ntf    sn226927   4.552   5.148   6.504 -0.0710  0.4183  0.1503
 5576ntf    nn326928   4.652   5.073   6.409 -0.2915  0.0984  0.1706
 5576ntf    sn226929   4.744   4.948   6.431  0.0789  0.3121 -0.1538
 5576ntf    cn126930   4.784   4.911   6.258  0.0895 -0.8582  0.0929
 5576ntf    fn426931   4.378   5.110   6.312 -0.2050  0.5354 -0.0167
 5576ntf    fn426932   4.362   4.963   6.468 -0.3815  0.0337 -0.1704
 5576ntf    fn426933   4.295   5.158   6.501  0.0272 -0.2785 -0.3238
 5576ntf    on526934   4.540   5.290   6.481 -0.1865  0.4087  0.1481
 5576ntf    on526935   4.543   5.103   6.641  0.1650 -0.9065 -0.2593
 5576ntf    on526936   4.679   4.829   6.479 -0.4786  0.6502 -0.0516
 5576ntf    on526937   4.872   4.978   6.489  0.2988  0.0408 -0.4954
 5576ntf    fn426938   4.865   4.998   6.200 -0.2912 -0.1986  0.5329
 5576ntf    fn426939   4.825   4.788   6.232  0.0006 -1.0638  0.9093
 5576ntf    fn426940   4.672   4.925   6.189  0.2158 -0.0389  0.0423
 5577ntf    cn126941   5.838   5.095   1.751 -0.0585  0.1915 -0.6016
 5577ntf    sn226942   6.018   5.071   1.751 -0.1083 -0.1993 -0.1861
 5577ntf    nn326943   6.060   5.209   1.689  0.3512 -0.1691  0.1845
 5577ntf    sn226944   6.144   5.327   1.749 -0.1312  0.2001  0.1469
 5577ntf    cn126945   6.128   5.442   1.609  0.1888 -0.1951 -0.2161
 5577ntf    fn426946   5.789   5.167   1.651 -0.1083  0.2427 -0.5405
 5577ntf    fn426947   5.770   4.981   1.754  0.7070 -0.2599  0.0985
 5577ntf    fn426948   5.802   5.170   1.853  0.2341 -0.0392 -0.3277
 5577ntf    on526949   6.055   5.039   1.886 -0.6330 -0.5458 -0.1212
 5577ntf    on526950   6.033   4.966   1.653  0.2266 -0.3243 -0.0022
 5577ntf    on526951   6.287   5.305   1.757 -0.2226 -0.4489  0.0393
 5577ntf    on526952   6.082   5.396   1.860 -0.0071  0.3245  0.1397
 5577ntf    fn426953   5.999   5.464   1.588  0.0672 -0.5959  0.0886
 5577ntf    fn426954   6.185   5.560   1.627 -0.0167 -0.1036 -0.1577
 5577ntf    fn426955   6.166   5.392   1.492  0.6817  0.3882 -0.3092
 5578ntf    cn126956   3.371   6.316   0.200 -0.4508  0.0385  0.0316
 5578ntf    sn226957   3.487   6.441   0.262 -0.2951 -0.1567  0.1366
 5578ntf    nn326958   3.629   6.385   0.227 -0.1885 -0.0260  0.3562
 5578ntf    sn226959   3.696   6.268   0.308  0.0788 -0.1917 -0.0960
 5578ntf    cn126960   3.817   6.351   0.415  0.0174 -0.1191 -0.0820
 5578ntf    fn426961   3.385   6.196   0.254 -0.3621  0.0757  0.0902
 5578ntf    fn426962   3.245   6.347   0.228 -0.4876 -0.2400  0.1741
 5578ntf    fn426963   3.381   6.297   0.069  0.1659 -0.0049  0.0829
 5578ntf    on526964   3.453   6.554   0.180 -0.2696  0.1765  0.5782
 5578ntf    on526965   3.455   6.460   0.402 -0.0300  0.3818  0.1247
 5578ntf    on526966   3.774   6.195   0.213 -0.4343 -0.7878 -0.0645
 5578ntf    on526967   3.617   6.200   0.408 -0.1367  0.3359  0.0969
 5578ntf    fn426968   3.911   6.419   0.352 -0.4422 -0.0723 -0.7264
 5578ntf    fn426969   3.747   6.436   0.488  0.3285  0.2590 -0.2165
 5578ntf    fn426970   3.867   6.255   0.491  0.3988  0.0117 -0.1634
 5579ntf    cn126971   2.317   3.524   1.011 -0.3699 -0.2513  0.2830
 5579ntf    sn226972   2.322   3.368   0.917 -0.0718 -0.1702  0.1637
 5579ntf    nn326973   2.470   3.369   0.865 -0.1301 -0.5504 -0.0126
 5579ntf    sn226974   2.588   3.265   0.868  0.3037 -0.0521  0.3105
 5579ntf    cn126975   2.593   3.255   0.686 -0.0397  0.5033  0.2669
 5579ntf    fn426976   2.359   3.624   0.936  0.1012 -0.5840  0.0992
 5579ntf    fn426977   2.193   3.560   1.039 -0.1387  0.7029  0.1092
 5579ntf    fn426978   2.394   3.527   1.118 -0.0842 -0.4402  0.0875
 5579ntf    on526979   2.282   3.262   1.006 -1.0309 -0.7574 -0.9369
 5579ntf    on526980   2.226   3.397   0.814  0.0899  0.0862  0.0865
 5579ntf    on526981   2.558   3.128   0.902  0.2564 -0.0313  0.3536
 5579ntf    on526982   2.718   3.317   0.904  0.3072  0.5379 -0.5277
 5579ntf    fn426983   2.675   3.159   0.647 -0.8626 -0.1289  0.0505
 5579ntf    fn426984   2.471   3.234   0.638 -0.0883  0.4911  0.3940
 5579ntf    fn426985   2.627   3.363   0.619  0.1993 -0.1032 -0.6135
 5580ntf    cn126986   7.029   3.578   3.795 -0.4088  0.1895 -0.0857
 5580ntf    sn226987   7.139   3.720   3.772 -0.1267  0.0278  0.2541
 5580ntf    nn326988   7.140   3.730   3.615 -0.0341 -0.0036  0.2527
 5580ntf    sn226989   7.054   3.831   3.531  0.2895  0.1395  0.0924
 5580ntf    cn126990   7.116   3.804   3.363 -0.3756 -0.2922 -0.0856
 5580ntf    fn426991   7.071   3.465   3.741  0.1874  0.2986  0.1426
 5580ntf    fn426992   7.011   3.556   3.925  1.2657  0.0460  0.1401
 5580ntf    fn426993   6.911   3.602   3.740 -0.1479  0.6143 -0.4546
 5580ntf    on526994   7.081   3.835   3.838  0.7268  0.6779 -0.1008
 5580ntf    on526995   7.264   3.677   3.830 -0.4572 -0.1756  0.8240
 5580ntf    on526996   7.080   3.971   3.556  0.5273 -0.0179  0.7565
 5580ntf    on526997   6.917   3.789   3.527  0.2360  0.3666 -0.4678
 5580ntf    fn426998   7.115   3.679   3.320 -0.4079 -0.2469 -0.2192
 5580ntf    fn426999   7.040   3.877   3.282  0.9329  0.9367 -0.2446
 5580ntf    fn427000   7.241   3.842   3.340 -0.2700 -0.2336  0.5679
 5581ntf    cn127001   3.278   1.768   4.821 -0.0343  0.1080 -0.2651
 5581ntf    sn227002   3.170   1.903   4.876 -0.0765 -0.1845  0.3774
 5581ntf    nn327003   3.230   1.948   5.014 -0.4199 -0.5417  0.6469
 5581ntf    sn227004   3.218   2.094   5.071 -0.1258 -0.1925 -0.1749
 5581ntf    cn127005   3.380   2.169   5.036  0.0622 -0.4835  0.0763
 5581ntf    fn427006   3.247   1.708   4.707 -0.1415  0.3090 -0.3425
 5581ntf    fn427007   3.402   1.813   4.820 -0.1995  0.5971  0.3588
 5581ntf    fn427008   3.278   1.668   4.909 -0.0332 -0.3952 -0.8295
 5581ntf    on527009   3.179   2.003   4.773 -0.3891 -0.7151 -0.1770
 5581ntf    on527010   3.036   1.851   4.895 -0.0365 -0.4631 -0.0941
 5581ntf    on527011   3.217   2.079   5.214  1.0843  0.4638 -0.0884
 5581ntf    on527012   3.115   2.176   5.011 -0.2864 -0.1748  0.1241
 5581ntf    fn427013   3.411   2.172   4.908 -0.5289  0.4966 -0.0486
 5581ntf    fn427014   3.375   2.297   5.066  0.0043 -0.4131 -0.2366
 5581ntf    fn427015   3.481   2.112   5.100  0.4692 -0.2120 -0.3182
 5582ntf    cn127016   1.551   3.402   5.452 -0.0587 -0.0200 -0.1356
 5582ntf    sn227017   1.687   3.293   5.400  0.2409  0.0942  0.4062
 5582ntf    nn327018   1.762   3.295   5.538  0.2445  0.4929  0.3985
 5582ntf    sn227019   1.750   3.194   5.658  0.1604  0.0082 -0.0174
 5582ntf    cn127020   1.926   3.162   5.688  0.0668 -0.2520  0.2653
 5582ntf    fn427021   1.607   3.515   5.491  0.1138  0.0394 -0.5518
 5582ntf    fn427022   1.473   3.428   5.348 -0.3558 -0.1595  0.0505
 5582ntf    fn427023   1.485   3.357   5.557 -0.2608 -0.0074 -0.2573
 5582ntf    on527024   1.626   3.174   5.347  0.1112  0.2377  0.2345
 5582ntf    on527025   1.755   3.375   5.302  0.5417 -0.4085  0.1903
 5582ntf    on527026   1.703   3.061   5.625  1.2065 -0.4585  0.3414
 5582ntf    on527027   1.699   3.242   5.784 -0.3067 -0.1060 -0.1613
 5582ntf    fn427028   1.958   3.098   5.799  0.3897 -0.3260  0.1312
 5582ntf    fn427029   1.974   3.087   5.590  0.0180 -0.2891  0.2695
 5582ntf    fn427030   1.999   3.273   5.694 -0.0207 -0.2071  0.5132
 5583ntf    cn127031   0.086   3.551   1.441  0.1806 -0.2166 -0.0987
 5583ntf    sn227032   0.016   3.717   1.418  0.1096 -0.2092  0.1695
 5583ntf    nn327033   0.031   3.734   1.263 -0.3956  0.2590  0.1684
 5583ntf    sn227034  -0.075   3.694   1.154 -0.0551 -0.0256 -0.0621
 5583ntf    cn127035   0.041   3.597   1.053 -0.3942 -0.3420 -0.1503
 5583ntf    fn427036   0.215   3.553   1.410  0.1774 -0.1196 -0.1043
 5583ntf    fn427037   0.078   3.496   1.561 -0.0340  0.2804  0.1158
 5583ntf    fn427038   0.025   3.466   1.360 -0.1459 -0.0238 -0.0556
 5583ntf    on527039  -0.118   3.711   1.472  0.1619  0.4400  0.3727
 5583ntf    on527040   0.099   3.821   1.472  0.5954 -0.3705 -0.2605
 5583ntf    on527041  -0.118   3.802   1.070 -0.1377 -0.1012 -0.1173
 5583ntf    on527042  -0.169   3.590   1.188  0.5352 -0.6260 -0.2376
 5583ntf    fn427043  -0.013   3.561   0.938 -0.4729  0.1990 -0.2870
 5583ntf    fn427044   0.154   3.663   1.034 -0.3508 -0.6174 -0.9004
 5583ntf    fn427045   0.072   3.485   1.115  0.1151 -0.3663 -0.4445
 5584ntf    cn127046   2.964   0.221   5.255 -0.0800  0.3152  0.3970
 5584ntf    sn227047   2.871   0.094   5.345 -0.1182 -0.1967 -0.3582
 5584ntf    nn327048   2.966  -0.031   5.342 -0.1595 -0.2205 -0.6467
 5584ntf    sn227049   2.929  -0.181   5.310  0.2232 -0.4148 -0.1945
 5584ntf    cn127050   2.996  -0.252   5.464  0.2124  0.3891  0.1924
 5584ntf    fn427051   2.895   0.334   5.262  0.0596  0.4518 -0.3427
 5584ntf    fn427052   3.086   0.239   5.301  0.2877 -0.5278 -0.2320
 5584ntf    fn427053   2.975   0.188   5.128  0.5133 -0.2610  0.5946
 5584ntf    on527054   2.883   0.147   5.479  0.2077  0.1303 -0.5158
 5584ntf    on527055   2.741   0.090   5.283 -0.0829 -0.5144 -0.4164
 5584ntf    on527056   3.017  -0.248   5.218  0.7604  0.4518 -0.3285
 5584ntf    on527057   2.788  -0.210   5.298  0.1757 -0.1192 -0.3604
 5584ntf    fn427058   2.952  -0.374   5.489  0.5017  0.2036 -0.1772
 5584ntf    fn427059   3.127  -0.256   5.478  0.2966 -0.4922 -0.6772
 5584ntf    fn427060   2.952  -0.181   5.566  0.1553  0.1959  0.3038
 5585ntf    cn127061   4.590   3.807   0.036 -0.5421  0.2617 -0.2812
 5585ntf    sn227062   4.486   3.660   0.010 -0.1613 -0.1044  0.2588
 5585ntf    nn327063   4.566   3.611  -0.115  0.0355  0.4594  0.1613
 5585ntf    sn227064   4.552   3.475  -0.193 -0.0374  0.3721  0.3267
 5585ntf    cn127065   4.475   3.537  -0.346 -0.3987  0.1172  0.4028
 5585ntf    fn427066   4.591   3.885  -0.071  0.2952 -0.3320 -0.7162
 5585ntf    fn427067   4.527   3.872   0.133 -0.1063  0.2102  0.0378
 5585ntf    fn427068   4.711   3.783   0.082 -0.4713 -0.0990 -0.6463
 5585ntf    on527069   4.514   3.586   0.132  0.2789 -0.3794 -0.0059
 5585ntf    on527070   4.351   3.707  -0.010  0.0032 -0.0925 -0.8866
 5585ntf    on527071   4.457   3.387  -0.130 -0.1081  0.0531 -0.2208
 5585ntf    on527072   4.677   3.416  -0.233 -0.0078  0.6847 -0.0480
 5585ntf    fn427073   4.470   3.441  -0.436  0.0561  0.3912  0.0811
 5585ntf    fn427074   4.351   3.575  -0.320 -0.6962 -0.3397 -0.3305
 5585ntf    fn427075   4.536   3.644  -0.396  0.6385 -0.5700  0.1598
 5586ntf    cn127076   4.369   1.031   6.262 -0.2324 -0.0975 -0.2853
 5586ntf    sn227077   4.541   0.975   6.251 -0.1742  0.0168  0.0382
 5586ntf    nn327078   4.628   1.104   6.277  0.2032 -0.1833 -0.2203
 5586ntf    sn227079   4.783   1.118   6.299  0.1859  0.0038 -0.2234
 5586ntf    cn127080   4.775   1.173   6.472 -0.2577 -0.4329 -0.1044
 5586ntf    fn427081   4.278   0.935   6.269 -0.7129  0.3406 -0.4250
 5586ntf    fn427082   4.344   1.107   6.367 -0.4718 -0.1158 -0.3294
 5586ntf    fn427083   4.339   1.106   6.158 -0.3073  0.2488 -0.0167
 5586ntf    on527084   4.555   0.877   6.356  0.3765 -0.2249 -0.2538
 5586ntf    on527085   4.548   0.932   6.114  0.2235  0.8023 -0.1943
 5586ntf    on527086   4.828   1.235   6.228  0.7379  0.0927  0.2709
 5586ntf    on527087   4.853   0.993   6.290 -0.2135 -0.2798  0.5338
 5586ntf    fn427088   4.892   1.212   6.520 -0.1762  0.1980 -0.8076
 5586ntf    fn427089   4.697   1.278   6.493 -0.2419 -0.1722 -1.2916
 5586ntf    fn427090   4.727   1.084   6.558 -0.6693  0.0498  0.1713
 5587ntf    cn127091   7.309   0.509   0.773 -0.4810 -0.0767  0.0224
 5587ntf    sn227092   7.450   0.452   0.673 -0.2292  0.3996  0.1037
 5587ntf    nn327093   7.403   0.530   0.545 -0.1158 -0.0621 -0.2194
 5587ntf    sn227094   7.453   0.668   0.491  0.3546 -0.1252  0.0524
 5587ntf    cn127095   7.307   0.724   0.399 -0.0205 -0.2938  0.5434
 5587ntf    fn427096   7.311   0.465   0.898  0.2712 -0.1479 -0.0120
 5587ntf    fn427097   7.294   0.640   0.775  0.2494  0.0098 -0.0422
 5587ntf    fn427098   7.194   0.462   0.726 -0.4302 -0.0244 -0.1557
 5587ntf    on527099   7.559   0.503   0.751 -0.2813  0.3493  0.2097
 5587ntf    on527100   7.427   0.310   0.663  0.3264  0.3728 -0.9033
 5587ntf    on527101   7.550   0.647   0.386 -0.1428  0.2715 -0.4966
 5587ntf    on527102   7.477   0.778   0.582 -0.2537 -0.1251  0.2160
 5587ntf    fn427103   7.317   0.851   0.361  0.7041 -0.5230 -0.0508
 5587ntf    fn427104   7.299   0.658   0.285  0.1606  0.2282  0.2277
 5587ntf    fn427105   7.196   0.712   0.470 -0.6239  0.1670 -0.3062
 5588ntf    cn127106   5.509   0.716   4.872 -0.5259 -0.1733  0.2144
 5588ntf    sn227107   5.485   0.735   4.693  0.3022 -0.3407  0.0787
 5588ntf    nn327108   5.369   0.632   4.670 -0.4820  0.6392 -0.4740
 5588ntf    sn227109   5.315   0.576   4.534 -0.2613  0.0374 -0.3207
 5588ntf    cn127110   5.166   0.681   4.524 -0.2603 -0.0014 -0.7837
 5588ntf    fn427111   5.606   0.800   4.905 -0.5888 -0.1233  0.2708
 5588ntf    fn427112   5.410   0.760   4.947 -0.4919  0.5976 -0.1772
 5588ntf    fn427113   5.553   0.595   4.903  0.2368  0.0452  0.0054
 5588ntf    on527114   5.452   0.875   4.682  1.0386 -0.0830  1.0266
 5588ntf    on527115   5.611   0.702   4.631  0.3470  0.3195 -0.1981
 5588ntf    on527116   5.255   0.445   4.540  0.0174 -0.0604  0.3689
 5588ntf    on527117   5.388   0.612   4.415 -0.1267  0.1327 -0.2094
 5588ntf    fn427118   5.126   0.692   4.399 -0.1950 -0.4592 -0.8478
 5588ntf    fn427119   5.065   0.636   4.597  0.1315 -0.1288 -0.3129
 5588ntf    fn427120   5.194   0.807   4.551 -0.5125  0.0416 -0.7177
 5589ntf    cn127121   5.635   4.433   2.856 -0.3582 -0.4307 -0.1799
 5589ntf    sn227122   5.648   4.386   3.032  0.0372 -0.2645 -0.1638
 5589ntf    nn327123   5.805   4.382   3.039  0.0435 -0.1476 -0.2468
 5589ntf    sn227124   5.902   4.268   3.087  0.4872  0.2953 -0.0779
 5589ntf    cn127125   6.049   4.375   3.093  0.7165 -0.0142 -0.1787
 5589ntf    fn427126   5.688   4.341   2.777 -0.0649 -0.3450 -0.0850
 5589ntf    fn427127   5.510   4.442   2.814 -0.4597  0.3451  0.2684
 5589ntf    fn427128   5.688   4.547   2.817 -0.3131 -0.2640  0.3571
 5589ntf    on527129   5.589   4.488   3.114  0.5317 -0.2915  0.2273
 5589ntf    on527130   5.589   4.255   3.028 -0.2433 -0.1434  0.0127
 5589ntf    on527131   5.927   4.172   2.983  0.3367  0.3818 -0.1942
 5589ntf    on527132   5.893   4.220   3.222 -0.6446 -0.1369 -0.2967
 5589ntf    fn427133   6.140   4.312   3.166 -0.0992 -0.3403  0.5783
 5589ntf    fn427134   6.101   4.416   2.979  1.1691  0.3390  0.1480
 5589ntf    fn427135   6.019   4.489   3.154  0.0081  0.0059 -0.5589
 5590ntf    cn127136   4.574   2.518   1.276  0.2554  0.1158 -0.1383
 5590ntf    sn227137   4.696   2.391   1.230 -0.1738 -0.2028 -0.4004
 5590ntf    nn327138   4.808   2.470   1.154  0.0624  0.2023  0.3607
 5590ntf    sn227139   4.796   2.546   1.017 -0.6510 -0.1204  0.2398
 5590ntf    cn127140   4.840   2.426   0.887  0.1210  0.1752  0.2249
 5590ntf    fn427141   4.621   2.641   1.260  0.0452  0.2250  0.0734
 5590ntf    fn427142   4.462   2.515   1.206 -0.3007  0.1394  0.7254
 5590ntf    fn427143   4.536   2.507   1.403 -0.0523  0.2916 -0.2140
 5590ntf    on527144   4.739   2.344   1.359  0.2629  0.5992 -0.2509
 5590ntf    on527145   4.632   2.293   1.145 -0.0446 -0.5580 -0.0910
 5590ntf    on527146   4.911   2.632   1.009 -0.9681  0.2417 -0.5257
 5590ntf    on527147   4.667   2.602   0.988 -0.6282 -0.0238  0.3263
 5590ntf    fn427148   4.954   2.371   0.925 -0.1338 -0.4762  0.0533
 5590ntf    fn427149   4.750   2.330   0.879  0.5397 -0.1890 -0.2055
 5590ntf    fn427150   4.859   2.474   0.764  0.1175  0.0822  0.1883
 5591ntf    cn127151   3.001   3.652   3.283 -0.2191 -0.1520 -0.0314
 5591ntf    sn227152   3.098   3.801   3.245 -0.1992 -0.3285 -0.6833
 5591ntf    nn327153   3.236   3.776   3.315 -0.4893 -0.4961 -0.1743
 5591ntf    sn227154   3.268   3.760   3.468  0.2648 -0.0407 -0.2846
 5591ntf    cn127155   3.267   3.579   3.484  0.0390 -0.0362 -0.2534
 5591ntf    fn427156   3.033   3.552   3.202  0.1955 -0.0937  0.0557
 5591ntf    fn427157   3.018   3.609   3.406  0.1175  0.5012  0.1572
 5591ntf    fn427158   2.871   3.669   3.270 -0.3114 -0.8953 -0.1117
 5591ntf    on527159   3.102   3.813   3.101  0.0866  0.7775 -0.5985
 5591ntf    on527160   3.018   3.901   3.311  0.3560 -0.2127 -0.1809
 5591ntf    on527161   3.170   3.806   3.563  0.0851  0.5077 -0.7306
 5591ntf    on527162   3.405   3.791   3.501  0.2969 -0.2921 -0.1806
 5591ntf    fn427163   3.235   3.516   3.372 -0.7977  0.3195 -0.2217
 5591ntf    fn427164   3.385   3.536   3.526 -0.2527  0.3030  0.9552
 5591ntf    fn427165   3.181   3.543   3.578  0.4247 -0.0253  0.1073
 5592ntf    cn127166   2.325   4.025   0.334 -0.0339 -0.0727 -0.0314
 5592ntf    sn227167   2.222   4.081   0.196  0.1658 -0.0126 -0.1570
 5592ntf    nn327168   2.208   4.229   0.247 -0.2294  0.0138 -0.3349
 5592ntf    sn227169   2.237   4.363   0.171 -0.0993 -0.0081 -0.3256
 5592ntf    cn127170   2.244   4.477   0.312  0.1872  0.2515 -0.5495
 5592ntf    fn427171   2.334   4.102   0.441  0.0682  0.0956 -0.1607
 5592ntf    fn427172   2.275   3.912   0.382 -0.4327  0.1412  0.0553
 5592ntf    fn427173   2.450   4.016   0.291  0.1913 -0.1976  0.6414
 5592ntf    on527174   2.299   4.060   0.076 -0.0370  0.4941 -0.3822
 5592ntf    on527175   2.109   3.992   0.210  0.1587 -0.0048 -0.1668
 5592ntf    on527176   2.118   4.400   0.096 -0.2592 -0.0411 -0.0880
 5592ntf    on527177   2.363   4.370   0.101  0.0781 -0.2541 -0.0294
 5592ntf    fn427178   2.128   4.486   0.374  0.5900 -0.6678  0.3657
 5592ntf    fn427179   2.338   4.443   0.399 -0.1073  0.6759 -0.0552
 5592ntf    fn427180   2.285   4.600   0.282 -0.1737  0.3799 -0.5229
 5593ntf    cn127181   0.482   3.641   7.130  0.2038 -0.4942  0.3480
 5593ntf    sn227182   0.521   3.781   7.240 -0.0290  0.0589 -0.2682
 5593ntf    nn327183   0.471   3.739   7.382  0.0701  0.0170 -0.2457
 5593ntf    sn227184   0.322   3.740   7.432  0.2334 -0.2162  0.2554
 5593ntf    cn127185   0.349   3.760   7.611  0.1858 -0.0409  0.2433
 5593ntf    fn427186   0.543   3.532   7.173 -0.2484 -0.6188  0.6797
 5593ntf    fn427187   0.355   3.607   7.122 -0.0702  0.5372  0.0946
 5593ntf    fn427188   0.530   3.659   7.008  0.2688 -0.1038  0.4282
 5593ntf    on527189   0.665   3.784   7.237 -0.0074 -0.5004  0.1127
 5593ntf    on527190   0.457   3.898   7.185  0.2145  0.3933  0.1637
 5593ntf    on527191   0.249   3.616   7.420  0.2454 -0.1756 -0.2604
 5593ntf    on527192   0.246   3.862   7.418  0.7739  0.1728  0.6376
 5593ntf    fn427193   0.427   3.864   7.636  0.4954 -0.3494  0.5616
 5593ntf    fn427194   0.235   3.794   7.669  0.3302  0.3222  0.3177
 5593ntf    fn427195   0.407   3.655   7.666 -0.1637 -0.3868 -0.0435
 5594ntf    cn127196   3.799   1.838   3.560 -0.0314  0.2012  0.5107
 5594ntf    sn227197   3.720   1.957   3.448 -0.0897 -0.2572  0.0601
 5594ntf    nn327198   3.837   2.003   3.354 -0.4476  0.0391 -0.2449
 5594ntf    sn227199   3.878   1.937   3.218  0.2902 -0.0886  0.0365
 5594ntf    cn127200   3.784   2.040   3.102  0.5726  0.0396 -0.0790
 5594ntf    fn427201   3.706   1.766   3.622 -0.3757 -0.0764 -0.3056
 5594ntf    fn427202   3.883   1.751   3.506  0.1217  0.6373  0.0414
 5594ntf    fn427203   3.871   1.908   3.645 -0.3757  0.1736  0.8308
 5594ntf    on527204   3.618   1.877   3.384 -0.1814  0.1618 -0.3224
 5594ntf    on527205   3.668   2.064   3.530 -0.2406 -0.2371 -0.0600
 5594ntf    on527206   3.836   1.801   3.195 -0.1391  0.0236  0.1538
 5594ntf    on527207   4.009   1.979   3.174  0.1037  0.1612 -0.2884
 5594ntf    fn427208   3.654   2.027   3.123  0.5195  0.8473  0.1139
 5594ntf    fn427209   3.815   2.169   3.099  0.1335  0.1529  0.1826
 5594ntf    fn427210   3.797   2.001   2.976  0.4047  0.1606 -0.1347
 5595ntf    cn127211   3.718   7.325   7.496  0.0045 -0.0851 -0.0258
 5595ntf    sn227212   3.790   7.304   7.331  0.4458 -0.0152  0.1558
 5595ntf    nn327213   3.921   7.386   7.358  0.6049 -0.1550 -0.1818
 5595ntf    sn227214   3.985   7.505   7.278  0.2137  0.3050  0.1825
 5595ntf    cn127215   4.154   7.438   7.287  0.0027 -0.2745 -0.1256
 5595ntf    fn427216   3.606   7.255   7.506 -0.1371  0.1699  0.1870
 5595ntf    fn427217   3.796   7.283   7.595  0.2638  0.0725 -0.1638
 5595ntf    fn427218   3.673   7.447   7.521 -0.2223 -0.1349 -0.1961
 5595ntf    on527219   3.810   7.162   7.313  0.3072 -0.0348  0.1550
 5595ntf    on527220   3.703   7.373   7.240  0.4074 -0.5663 -0.2373
 5595ntf    on527221   3.993   7.625   7.358  0.3552  0.0352  0.5788
 5595ntf    on527222   3.956   7.511   7.137 -0.6926  0.4210  0.3709
 5595ntf    fn427223   4.195   7.409   7.410  0.0058  0.3628  0.0267
 5595ntf    fn427224   4.167   7.328   7.215  0.0400 -0.0681 -0.4368
 5595ntf    fn427225   4.241   7.523   7.236 -0.1630  0.1748  0.3280
 5596ntf    cn127226   4.348   6.226   0.034 -0.1826  0.3900  0.0109
 5596ntf    sn227227   4.443   6.344  -0.067 -0.0961  0.2096 -0.1203
 5596ntf    nn327228   4.338   6.383  -0.177 -0.1493  0.0902 -0.1118
 5596ntf    sn227229   4.328   6.342  -0.328  0.2993  0.2079 -0.1773
 5596ntf    cn127230   4.185   6.231  -0.304  0.0888  0.4393 -0.3631
 5596ntf    fn427231   4.416   6.192   0.142 -0.3264 -0.1034 -0.0528
 5596ntf    fn427232   4.229   6.269   0.074 -0.5327 -0.5119 -0.0425
 5596ntf    fn427233   4.320   6.112  -0.026 -0.2581  0.2524  0.3083
 5596ntf    on527234   4.466   6.445   0.034  0.0676  0.3910 -0.3412
 5596ntf    on527235   4.561   6.274  -0.112  0.1900  0.6786 -0.1081
 5596ntf    on527236   4.429   6.252  -0.377 -0.0333 -0.2520 -0.0289
 5596ntf    on527237   4.285   6.446  -0.418 -0.5737  0.3402  0.3819
 5596ntf    fn427238   4.082   6.301  -0.258 -0.0733  0.3240 -0.5484
 5596ntf    fn427239   4.147   6.168  -0.414 -0.2692 -0.4054  0.2340
 5596ntf    fn427240   4.212   6.134  -0.219 -0.5719  0.3470 -0.2578
 5597ntf    cn127241   5.351   5.247   1.725  0.2037  0.4330 -0.2686
 5597ntf    sn227242   5.239   5.352   1.627 -0.2013  0.1961 -0.0658
 5597ntf    nn327243   5.103   5.290   1.673  0.2243  0.0444  1.0183
 5597ntf    sn227244   4.980   5.365   1.736 -0.4904 -0.3784  0.1536
 5597ntf    cn127245   5.031   5.379   1.910 -0.4041  0.0142  0.0983
 5597ntf    fn427246   5.477   5.275   1.698  0.3144  0.2561  0.0558
 5597ntf    fn427247   5.344   5.281   1.853  0.4511  0.4128 -0.2503
 5597ntf    fn427248   5.336   5.116   1.716  0.1590  0.3892  0.3793
 5597ntf    on527249   5.260   5.488   1.670  0.0313  0.0454  0.3058
 5597ntf    on527250   5.269   5.318   1.490 -0.0582  0.0650 -0.0026
 5597ntf    on527251   4.858   5.288   1.745 -0.5480 -0.3724 -0.5453
 5597ntf    on527252   4.957   5.499   1.690 -0.0015 -0.2130  0.3815
 5597ntf    fn427253   5.112   5.483   1.921 -0.2361 -0.1017 -0.0347
 5597ntf    fn427254   4.930   5.399   1.994 -0.9914 -0.4987 -0.4687
 5597ntf    fn427255   5.098   5.269   1.941 -0.1370 -0.0211 -0.5968
 5598ntf    cn127256   3.959   1.607   0.668  0.2430 -0.3450  0.3205
 5598ntf    sn227257   3.968   1.668   0.497 -0.2680 -0.1591  0.3578
 5598ntf    nn327258   4.083   1.580   0.436 -0.4520  0.0539 -0.3096
 5598ntf    sn227259   4.187   1.621   0.326 -0.2949  0.3455 -0.0546
 5598ntf    cn127260   4.179   1.460   0.241 -0.2973 -0.0158  0.6211
 5598ntf    fn427261   3.849   1.647   0.729  0.0314 -0.2896 -0.0893
 5598ntf    fn427262   3.948   1.475   0.672  0.6239 -0.3718  0.5071
 5598ntf    fn427263   4.056   1.644   0.750  0.2961  0.4461 -0.0897
 5598ntf    on527264   3.838   1.641   0.442 -0.1670 -0.1700  0.1239
 5598ntf    on527265   3.993   1.809   0.518  0.4051 -0.1868 -0.1965
 5598ntf    on527266   4.329   1.628   0.350 -0.4065  0.3864  0.6132
 5598ntf    on527267   4.146   1.721   0.230  0.0804  0.6519  0.1031
 5598ntf    fn427268   4.060   1.437   0.189  0.1053 -0.6020 -0.0570
 5598ntf    fn427269   4.268   1.467   0.143 -0.3574 -0.1675  0.5558
 5598ntf    fn427270   4.220   1.364   0.322  0.5783 -0.1372  0.0509
 5599ntf    cn127271   7.243   5.825   6.583 -0.3660 -0.2046  0.0929
 5599ntf    sn227272   7.164   5.988   6.582  0.0697  0.0066 -0.1429
 5599ntf    nn327273   7.239   6.068   6.694 -0.1742 -0.4338  0.3350
 5599ntf    sn227274   7.175   6.183   6.779  0.2878  0.0591  0.0241
 5599ntf    cn127275   7.110   6.088   6.921  0.1956  0.1843  0.0659
 5599ntf    fn427276   7.325   5.812   6.480 -0.9139 -0.1204 -0.3540
 5599ntf    fn427277   7.312   5.804   6.694  0.3615  0.4146 -0.2334
 5599ntf    fn427278   7.156   5.725   6.575 -0.1269 -0.4122  0.0651
 5599ntf    on527279   7.187   6.037   6.448  0.8845 -0.3647 -0.1447
 5599ntf    on527280   7.033   5.940   6.619 -0.0575 -0.2381 -0.8753
 5599ntf    on527281   7.057   6.248   6.728  0.2718 -0.2887 -0.3812
 5599ntf    on527282   7.278   6.267   6.834  0.0413  0.2314  0.2227
 5599ntf    fn427283   7.205   6.027   6.990 -0.2424  0.0837  0.5767
 5599ntf    fn427284   7.052   6.161   7.015 -0.0372  0.6623 -0.4378
 5599ntf    fn427285   7.015   6.003   6.886 -0.0237  0.3424  0.2759
 5600ntf    cn127286   2.209   1.035   5.768  0.5055 -0.1696  0.0611
 5600ntf    sn227287   2.295   1.132   5.895 -0.2220  0.2789  0.2131
 5600ntf    nn327288   2.434   1.142   5.822 -0.1960 -0.3163  0.1830
 5600ntf    sn227289   2.561   1.052   5.841  0.0171 -0.1217 -0.3045
 5600ntf    cn127290   2.649   1.073   5.683  0.3854  0.2319 -0.0567
 5600ntf    fn427291   2.091   1.009   5.821  0.2883 -0.0440 -0.3557
 5600ntf    fn427292   2.185   1.090   5.650  0.4166  0.1136  0.2116
 5600ntf    fn427293   2.270   0.919   5.748  0.3992 -0.1394 -0.4561
 5600ntf    on527294   2.239   1.265   5.898 -0.6048  0.1321 -0.1990
 5600ntf    on527295   2.301   1.057   6.017  0.0910 -0.4194 -0.2231
 5600ntf    on527296   2.532   0.911   5.837 -0.4703 -0.0523  0.4528
 5600ntf    on527297   2.659   1.098   5.937 -0.1433 -0.3558 -0.0239
 5600ntf    fn427298   2.561   1.064   5.585  0.6932 -0.2554 -0.2897
 5600ntf    fn427299   2.702   1.193   5.671  0.3076  0.2585 -0.1340
 5600ntf    fn427300   2.738   0.977   5.665 -0.5055 -0.6003 -0.0989
 5601ntf    cn127301   6.362   3.339   3.538 -0.4559  0.1093 -0.3514
 5601ntf    sn227302   6.335   3.518   3.548 -0.1883  0.1307 -0.0117
 5601ntf    nn327303   6.310   3.537   3.394 -0.2920  0.3631  0.0329
 5601ntf    sn227304   6.180   3.551   3.308 -0.4950 -0.2025  0.2420
 5601ntf    cn127305   6.234   3.475   3.151  0.0958  0.1112  0.2902
 5601ntf    fn427306   6.402   3.285   3.652 -0.1995  0.6825 -0.1677
 5601ntf    fn427307   6.253   3.274   3.498 -0.2587  0.0707 -0.8225
 5601ntf    fn427308   6.458   3.303   3.455 -0.3066 -0.2650 -0.0231
 5601ntf    on527309   6.226   3.537   3.641 -0.6969  0.4442 -0.6623
 5601ntf    on527310   6.465   3.572   3.580  0.0510 -0.4228 -0.0390
 5601ntf    on527311   6.159   3.691   3.280 -0.3797 -0.3296 -0.5189
 5601ntf    on527312   6.066   3.476   3.355 -0.6199 -0.2191 -0.0797
 5601ntf    fn427313   6.263   3.348   3.172  0.0166 -0.0523 -0.5943
 5601ntf    fn427314   6.148   3.469   3.051  0.2171 -0.7089  0.2341
 5601ntf    fn427315   6.337   3.546   3.110 -0.2388  0.2854 -0.2534
 5602ntf    cn127316   6.255   2.145   7.302  0.4462  0.0603 -0.1923
 5602ntf    sn227317   6.414   2.134   7.389  0.3419  0.1120  0.0067
 5602ntf    nn327318   6.435   1.978   7.384 -1.2052 -0.0892 -0.8356
 5602ntf    sn227319   6.506   1.879   7.285 -0.1604 -0.1592 -0.0282
 5602ntf    cn127320   6.441   1.724   7.353  0.0632 -0.3398 -0.2274
 5602ntf    fn427321   6.154   2.078   7.357  0.2127  0.6822  0.1540
 5602ntf    fn427322   6.205   2.267   7.289 -0.2212 -0.2301 -0.4031
 5602ntf    fn427323   6.253   2.091   7.181  0.6320 -0.0244 -0.1573
 5602ntf    on527324   6.513   2.208   7.315 -0.1010  0.6415 -0.0636
 5602ntf    on527325   6.382   2.182   7.521 -0.3451  0.3480 -0.2383
 5602ntf    on527326   6.650   1.872   7.293 -0.1379 -0.2623 -0.4607
 5602ntf    on527327   6.440   1.877   7.157 -0.6789  0.2216  0.2265
 5602ntf    fn427328   6.331   1.680   7.294 -0.2628  0.1954 -0.0257
 5602ntf    fn427329   6.536   1.632   7.337  0.1131 -0.1901 -0.7965
 5602ntf    fn427330   6.419   1.738   7.483  0.4020  0.6173 -0.2652
 5603ntf    cn127331   6.072   2.976   6.270  0.2666 -0.6029  0.2140
 5603ntf    sn227332   5.960   2.873   6.369 -0.0477 -0.4416  0.0274
 5603ntf    nn327333   5.931   2.988   6.472 -0.2826 -0.2020 -0.3028
 5603ntf    sn227334   5.911   2.979   6.627 -0.0886  0.1342 -0.2590
 5603ntf    cn127335   6.032   3.106   6.678 -0.3737  0.2702  0.0876
 5603ntf    fn427336   6.013   3.084   6.221  0.4002 -0.4160  0.4620
 5603ntf    fn427337   6.160   3.025   6.357  0.2694 -0.3177  0.0522
 5603ntf    fn427338   6.135   2.922   6.167 -0.1128  0.0558 -0.3720
 5603ntf    on527339   5.856   2.848   6.272 -0.7144  0.1643  0.5673
 5603ntf    on527340   6.041   2.765   6.420  0.6149  0.0663  0.0589
 5603ntf    on527341   5.952   2.861   6.700 -0.1361  0.1465 -0.2117
 5603ntf    on527342   5.786   3.040   6.664 -0.3996 -0.2108 -0.7458
 5603ntf    fn427343   6.156   3.077   6.642 -0.3676 -0.2905  0.5349
 5603ntf    fn427344   6.022   3.227   6.627 -0.4413  0.3461  0.2825
 5603ntf    fn427345   6.044   3.121   6.809 -0.2079  0.5189  0.0442
 5604ntf    cn127346   2.995   4.067   1.950  0.2495 -0.2575  0.4418
 5604ntf    sn227347   2.872   4.140   1.837  0.0319 -0.2195  0.7024
 5604ntf    nn327348   2.757   4.160   1.942 -0.2781  0.5732  0.2137
 5604ntf    sn227349   2.615   4.092   1.946  0.1771 -0.4287 -0.3047
 5604ntf    cn127350   2.523   4.240   1.896  0.0285 -0.2595  0.4505
 5604ntf    fn427351   3.099   4.016   1.885 -0.1846  0.0143 -0.4779
 5604ntf    fn427352   3.039   4.156   2.037  0.2430  0.0776  0.1037
 5604ntf    fn427353   2.948   3.969   2.026 -0.6220 -0.2887 -0.1269
 5604ntf    on527354   2.931   4.267   1.803  0.0505 -0.3901  0.0858
 5604ntf    on527355   2.856   4.038   1.736  0.3417  0.1763  0.2507
 5604ntf    on527356   2.576   4.063   2.082 -0.1704  0.1565 -0.2756
 5604ntf    on527357   2.580   3.993   1.847  0.3995 -0.8611  0.0426
 5604ntf    fn427358   2.393   4.220   1.905  0.0324 -0.3013  0.4099
 5604ntf    fn427359   2.544   4.353   1.962 -0.0902  0.1227 -0.1541
 5604ntf    fn427360   2.547   4.268   1.769 -0.1705 -0.5584  0.3469
 5605ntf    cn127361   7.035   4.803   4.301  0.0350  0.1085  0.0924
 5605ntf    sn227362   7.088   4.977   4.301  0.3620  0.0090 -0.0286
 5605ntf    nn327363   7.242   4.978   4.269  0.4579  0.2063  0.4324
 5605ntf    sn227364   7.333   5.076   4.187 -0.1840  0.0691 -0.4576
 5605ntf    cn127365   7.360   4.977   4.036 -0.4616 -0.4695 -0.1576
 5605ntf    fn427366   7.088   4.759   4.188  0.0398 -0.1967  0.2128
 5605ntf    fn427367   7.089   4.733   4.400 -0.5643  0.0956  0.4136
 5605ntf    fn427368   6.905   4.776   4.300  0.0379  0.0861  0.1888
 5605ntf    on527369   7.002   5.032   4.199  0.5470 -0.0056 -0.1928
 5605ntf    on527370   7.050   5.022   4.433  0.1048  0.0613 -0.1206
 5605ntf    on527371   7.463   5.086   4.249 -0.2815  0.1325 -0.2622
 5605ntf    on527372   7.278   5.199   4.138  0.3899  0.7247  0.5168
 5605ntf    fn427373   7.417   5.049   3.941  0.1144 -0.6195  0.0694
 5605ntf    fn427374   7.441   4.874   4.052  0.1417  0.0590  0.2570
 5605ntf    fn427375   7.248   4.934   3.981 -0.4540 -0.4634 -0.1782
 5606ntf    cn127376   2.600   2.398   3.922  0.0476  0.1764  0.5322
 5606ntf    sn227377   2.529   2.291   4.052 -0.0175  0.1207  0.4505
 5606ntf    nn327378   2.661   2.237   4.118 -0.2717 -0.7178  0.2846
 5606ntf    sn227379   2.756   2.116   4.087  0.3469 -0.2010  0.1473
 5606ntf    cn127380   2.678   1.977   4.174 -0.2274 -0.0582 -0.1329
 5606ntf    fn427381   2.692   2.481   3.968  0.1222  0.4751 -0.1467
 5606ntf    fn427382   2.650   2.319   3.829 -0.2648  0.0874  0.4381
 5606ntf    fn427383   2.509   2.473   3.863  0.0155 -0.0735  0.2614
 5606ntf    on527384   2.477   2.392   4.141 -0.0916 -0.0714  0.6241
 5606ntf    on527385   2.442   2.197   3.987  0.3201  0.0284  0.1275
 5606ntf    on527386   2.883   2.137   4.151  0.4118 -0.1850  0.0130
 5606ntf    on527387   2.752   2.072   3.950 -0.9805 -0.7125  0.3387
 5606ntf    fn427388   2.626   2.014   4.290  0.2806  0.4212 -0.0526
 5606ntf    fn427389   2.584   1.925   4.097 -0.3939 -0.1388  0.1220
 5606ntf    fn427390   2.766   1.881   4.199  0.0055  0.2296  0.1606
 5607ntf    cn127391   4.565   0.153   6.489 -0.2923  0.0592  0.2867
 5607ntf    sn227392   4.536   0.329   6.522 -0.1060  0.1503 -0.0397
 5607ntf    nn327393   4.677   0.388   6.560 -0.0741 -0.0847  0.2035
 5607ntf    sn227394   4.776   0.361   6.679  0.3706  0.2268 -0.0934
 5607ntf    cn127395   4.935   0.315   6.603  0.2257 -0.0030 -0.2603
 5607ntf    fn427396   4.689   0.139   6.445 -0.3919  0.6417 -0.1954
 5607ntf    fn427397   4.551   0.074   6.594  0.0410 -0.2302  0.1147
 5607ntf    fn427398   4.481   0.112   6.395 -0.3912  0.6287  0.1237
 5607ntf    on527399   4.490   0.382   6.396  0.0523  0.0804 -0.1270
 5607ntf    on527400   4.439   0.330   6.629  0.0153 -0.0419  0.0726
 5607ntf    on527401   4.736   0.245   6.755 -0.5395  0.4209 -0.2697
 5607ntf    on527402   4.793   0.480   6.758 -0.2114  0.0033  0.3750
 5607ntf    fn427403   5.035   0.345   6.684  0.1785 -0.1140 -0.1599
 5607ntf    fn427404   4.947   0.186   6.574 -0.1022 -0.1210  0.1163
 5607ntf    fn427405   4.957   0.370   6.485 -0.4683  0.0341 -0.3733
 5608ntf    cn127406   6.835   1.219   4.763  0.2358 -0.2624  0.3818
 5608ntf    sn227407   6.912   1.063   4.712 -0.1306 -0.4654  0.4443
 5608ntf    nn327408   6.852   0.964   4.818 -0.5533  0.0085  0.6505
 5608ntf    sn227409   6.719   0.881   4.815 -0.2709 -0.4319  0.0340
 5608ntf    cn127410   6.799   0.722   4.780  0.3969 -0.0776 -0.0549
 5608ntf    fn427411   6.903   1.328   4.731 -0.5733  0.1008 -0.1326
 5608ntf    fn427412   6.725   1.245   4.694  0.1994 -0.6853  0.2814
 5608ntf    fn427413   6.805   1.232   4.892  0.7965 -0.0807  0.4981
 5608ntf    on527414   6.875   1.046   4.574 -0.6643 -0.9874  0.6507
 5608ntf    on527415   7.054   1.083   4.733 -0.1416  0.5953 -0.4296
 5608ntf    on527416   6.630   0.903   4.704  0.5383  0.0523 -0.5257
 5608ntf    on527417   6.655   0.865   4.944 -0.3557  0.4226  0.1020
 5608ntf    fn427418   6.914   0.744   4.717  0.2342 -0.0531 -0.3452
 5608ntf    fn427419   6.828   0.656   4.890 -0.0181  0.1904  0.2153
 5608ntf    fn427420   6.722   0.643   4.706  0.2160 -0.2097  0.2748
 5609ntf    cn127421   0.023   3.892   4.875 -0.0273 -0.2095  0.1673
 5609ntf    sn227422   0.195   3.952   4.872  0.0109 -0.3242  0.0697
 5609ntf    nn327423   0.219   3.958   5.027  0.6027  0.3699 -0.0443
 5609ntf    sn227424   0.194   4.084   5.116 -0.1749  0.0999  0.1343
 5609ntf    cn127425   0.371   4.101   5.158 -0.1278  0.2462 -0.1253
 5609ntf    fn427426  -0.036   3.856   4.762 -0.3540 -0.3705  0.3862
 5609ntf    fn427427   0.003   3.794   4.961  0.2612 -0.6244 -0.2383
 5609ntf    fn427428  -0.056   3.987   4.923 -0.2154 -0.1999 -0.1568
 5609ntf    on527429   0.269   3.844   4.812  0.1043  0.0542 -0.4951
 5609ntf    on527430   0.196   4.078   4.802 -0.7654 -0.4031 -0.1012
 5609ntf    on527431   0.131   4.061   5.244 -0.3130  0.3121  0.1053
 5609ntf    on527432   0.154   4.206   5.050 -0.5342  0.0871  0.3268
 5609ntf    fn427433   0.442   4.129   5.050  0.6768  0.6105  0.4883
 5609ntf    fn427434   0.393   4.198   5.245  0.0781 -0.1497  0.2662
 5609ntf    fn427435   0.421   3.988   5.205 -0.1300  0.1023 -0.4670
 5610ntf    cn127436   0.144   2.953   7.086  0.0116  0.0008 -0.1241
 5610ntf    sn227437   0.135   2.992   6.909 -0.3612  0.4172 -0.0143
 5610ntf    nn327438   0.153   3.148   6.910 -0.1616  0.3944  0.1646
 5610ntf    sn227439   0.291   3.223   6.920  0.1041 -0.0701 -0.0165
 5610ntf    cn127440   0.358   3.200   6.753  0.6374 -0.1026  0.1990
 5610ntf    fn427441   0.046   3.015   7.150 -0.4550 -0.3325 -0.5098
 5610ntf    fn427442   0.128   2.824   7.112 -0.0223 -0.0045 -0.1733
 5610ntf    fn427443   0.249   2.993   7.155  0.1124 -0.3953 -0.0471
 5610ntf    on527444   0.235   2.910   6.846 -1.1553 -0.3382 -0.3019
 5610ntf    on527445   0.000   2.956   6.873 -0.1612 -0.0057 -0.3413
 5610ntf    on527446   0.393   3.158   6.999 -0.0551 -0.1107  0.1581
 5610ntf    on527447   0.273   3.364   6.940 -0.5030 -0.1014 -0.3091
 5610ntf    fn427448   0.484   3.236   6.737  0.7148 -0.1459  0.7053
 5610ntf    fn427449   0.358   3.074   6.712 -0.4123 -0.2137  0.5039
 5610ntf    fn427450   0.285   3.267   6.665  0.5161 -0.4927  0.0008
 5611ntf    cn127451   0.664   0.633   5.953  0.1433 -0.4006 -0.2089
 5611ntf    sn227452   0.753   0.565   6.096 -0.0507  0.0545  0.1306
 5611ntf    nn327453   0.880   0.499   6.031 -0.2044  0.0295 -0.1482
 5611ntf    sn227454   1.035   0.523   6.037 -0.1772 -0.2160  0.1614
 5611ntf    cn127455   1.064   0.578   5.866  0.0197 -0.5981  0.0699
 5611ntf    fn427456   0.712   0.748   5.907 -0.6465 -0.0023 -0.0512
 5611ntf    fn427457   0.661   0.555   5.846 -0.2924 -0.2163 -0.3361
 5611ntf    fn427458   0.541   0.669   5.985  0.4498  0.6919 -0.2198
 5611ntf    on527459   0.782   0.683   6.173 -0.2329  0.0124  0.2656
 5611ntf    on527460   0.654   0.474   6.148 -0.1806 -0.3238 -0.7644
 5611ntf    on527461   1.111   0.401   6.053 -0.1141 -0.2137 -0.1201
 5611ntf    on527462   1.075   0.634   6.120  0.4656  0.0714 -0.5192
 5611ntf    fn427463   1.041   0.476   5.785 -0.2175 -0.6485  0.1962
 5611ntf    fn427464   0.979   0.672   5.828  0.5570 -0.0713  0.1491
 5611ntf    fn427465   1.189   0.618   5.850 -0.0919 -0.4292 -0.3921
 5612ntf    cn127466   2.510   5.277   6.325 -0.0750  0.3177  0.4051
 5612ntf    sn227467   2.634   5.402   6.279  0.1466  0.0008  0.1362
 5612ntf    nn327468   2.629   5.383   6.123  0.0089 -0.2139  0.1660
 5612ntf    sn227469   2.628   5.498   6.016  0.3202 -0.2509  0.1233
 5612ntf    cn127470   2.452   5.497   5.970  0.2475 -0.3908  0.4030
 5612ntf    fn427471   2.488   5.270   6.456 -0.0904 -0.1588  0.3799
 5612ntf    fn427472   2.395   5.290   6.261  0.3169 -0.4261 -0.4654
 5612ntf    fn427473   2.544   5.151   6.302 -0.1629  0.4595 -0.5294
 5612ntf    on527474   2.576   5.520   6.340  0.6305  0.0968  0.4135
 5612ntf    on527475   2.753   5.351   6.341  0.0347 -0.4927 -0.0482
 5612ntf    on527476   2.684   5.464   5.887 -0.4777  0.2216 -0.3543
 5612ntf    on527477   2.649   5.634   6.058  1.2700 -0.3840  0.1205
 5612ntf    fn427478   2.415   5.609   5.910  0.2009 -0.3212  0.5587
 5612ntf    fn427479   2.424   5.399   5.886  0.4326 -0.4770  0.4398
 5612ntf    fn427480   2.369   5.494   6.073  0.0870 -0.6975  0.2644
 5613ntf    cn127481   1.508   5.656   5.591 -0.1077  0.0253  0.0947
 5613ntf    sn227482   1.512   5.836   5.614  0.1934  0.0515 -0.1467
 5613ntf    nn327483   1.611   5.837   5.736  0.1841  0.0116 -0.1382
 5613ntf    sn227484   1.659   5.963   5.818  0.1662  0.0077 -0.1217
 5613ntf    cn127485   1.646   5.915   5.992 -0.2798 -0.1510 -0.1971
 5613ntf    fn427486   1.450   5.612   5.480  0.1873 -0.4299  0.1152
 5613ntf    fn427487   1.633   5.611   5.585 -0.2828 -0.4073 -0.3457
 5613ntf    fn427488   1.458   5.593   5.696  0.0936 -0.1347  0.0975
 5613ntf    on527489   1.579   5.872   5.492  0.6307  0.0036  0.0748
 5613ntf    on527490   1.376   5.871   5.646  0.2834  0.6049 -0.3606
 5613ntf    on527491   1.576   6.080   5.812  0.0381 -0.0894 -0.2690
 5613ntf    on527492   1.800   5.979   5.792  0.0704  0.4581 -0.3843
 5613ntf    fn427493   1.699   6.007   6.071 -0.1614 -0.0901 -0.3475
 5613ntf    fn427494   1.523   5.901   6.040 -0.1949 -0.1000  0.0390
 5613ntf    fn427495   1.712   5.804   6.022  0.3447  0.3117  0.1847
 5614ntf    cn127496   4.972   4.073   4.084  0.0932 -0.0619 -0.0451
 5614ntf    sn227497   4.895   4.223   4.152  0.1692 -0.1394  0.2136
 5614ntf    nn327498   4.771   4.163   4.228 -0.2206  0.0846 -0.2408
 5614ntf    sn227499   4.616   4.184   4.214 -0.2074  0.0475 -0.4367
 5614ntf    cn127500   4.555   4.019   4.259 -0.4596  0.3258  0.2492
 5614ntf    fn427501   4.887   3.975   4.060 -0.0563  0.1258 -0.2889
 5614ntf    fn427502   5.039   4.083   3.971  0.0051  0.2948 -0.0666
 5614ntf    fn427503   5.058   4.014   4.166 -0.0174 -0.0798  0.0575
 5614ntf    on527504   4.996   4.274   4.241  0.6641  0.3381 -0.6189
 5614ntf    on527505   4.862   4.301   4.036  0.1912  0.6316  0.7177
 5614ntf    on527506   4.565   4.208   4.081  0.0368  0.4730 -0.4548
 5614ntf    on527507   4.565   4.269   4.318  0.0283 -0.2722 -0.0581
 5614ntf    fn427508   4.426   3.997   4.245 -0.3395 -0.3525  0.1421
 5614ntf    fn427509   4.612   3.919   4.194  0.3713  0.4714  0.7364
 5614ntf    fn427510   4.594   3.998   4.384  0.0036  0.2898  0.1029
 5615ntf    cn127511   5.567   7.148   2.464  0.4405 -0.0390 -0.3311
 5615ntf    sn227512   5.419   7.047   2.431  0.1751  0.1298  0.3222
 5615ntf    nn327513   5.314   7.134   2.509 -0.0394  0.1084  0.0602
 5615ntf    sn227514   5.163   7.108   2.543  0.0108 -0.1420  0.0941
 5615ntf    cn127515   5.106   7.273   2.593  0.0916 -0.2016  0.3863
 5615ntf    fn427516   5.674   7.098   2.405  0.1526 -0.8923 -0.1424
 5615ntf    fn427517   5.544   7.274   2.430 -0.0735  0.1441  0.6430
 5615ntf    fn427518   5.583   7.153   2.595 -1.1515  0.3470 -0.1308
 5615ntf    on527519   5.413   7.057   2.287 -0.0808 -0.8070  0.2672
 5615ntf    on527520   5.446   6.919   2.490  0.5880 -0.2736 -0.7099
 5615ntf    on527521   5.145   7.029   2.662 -0.0316  0.0862  0.2410
 5615ntf    on527522   5.077   7.071   2.434 -0.1593 -0.7177  0.4192
 5615ntf    fn427523   4.976   7.278   2.566  0.1072  0.3106  0.3841
 5615ntf    fn427524   5.122   7.292   2.723  0.4531  0.3646  0.2630
 5615ntf    fn427525   5.158   7.378   2.531 -0.4194 -0.3465 -0.3101
 5616ntf    cn127526   5.764   0.720   5.671  0.0955  0.3257 -0.0831
 5616ntf    sn227527   5.733   0.753   5.847 -0.1791 -0.1835 -0.0354
 5616ntf    nn327528   5.641   0.632   5.886 -0.0107 -0.2957  0.0124
 5616ntf    sn227529   5.603   0.583   6.031 -0.2746 -0.1431 -0.0051
 5616ntf    cn127530   5.708   0.436   6.045 -0.3110 -0.1937 -0.2669
 5616ntf    fn427531   5.872   0.780   5.623  0.5741 -0.3122  0.1615
 5616ntf    fn427532   5.784   0.590   5.654  0.2393  0.2316  0.7519
 5616ntf    fn427533   5.660   0.755   5.598  0.2360  0.1581 -0.3658
 5616ntf    on527534   5.864   0.752   5.906 -0.3023 -0.1450  0.2421
 5616ntf    on527535   5.662   0.879   5.849 -0.0605 -0.1208  0.2218
 5616ntf    on527536   5.470   0.529   6.035 -0.3172 -0.0563 -0.2267
 5616ntf    on527537   5.643   0.672   6.138  0.2888 -0.6960  0.2512
 5616ntf    fn427538   5.670   0.342   5.960 -0.2440 -0.2613 -0.2228
 5616ntf    fn427539   5.833   0.458   6.007 -0.1598 -0.6394 -0.0333
 5616ntf    fn427540   5.714   0.376   6.163  0.0314  1.1138  0.4053
 5617ntf    cn127541   4.953   1.921   2.421  0.0067  0.2386 -0.0560
 5617ntf    sn227542   5.040   1.789   2.511 -0.0161  0.2452 -0.0246
 5617ntf    nn327543   5.166   1.858   2.574 -0.1575  0.2995  0.1976
 5617ntf    sn227544   5.317   1.849   2.534 -0.1786 -0.1377  0.2054
 5617ntf    cn127545   5.384   1.819   2.700  0.0450  0.3159  0.1991
 5617ntf    fn427546   4.835   1.887   2.371  0.1122  0.3242 -0.3666
 5617ntf    fn427547   4.939   2.021   2.507 -0.2105 -0.1953  0.4161
 5617ntf    fn427548   5.026   1.975   2.324 -0.0690 -0.1049 -0.3051
 5617ntf    on527549   4.950   1.751   2.617  0.2176  0.1446  0.1356
 5617ntf    on527550   5.054   1.688   2.408 -0.3321  0.7738 -0.5965
 5617ntf    on527551   5.359   1.982   2.495  0.8619 -0.3760  0.4784
 5617ntf    on527552   5.360   1.740   2.450 -0.0911  0.0991 -0.0601
 5617ntf    fn427553   5.357   1.913   2.788 -0.7526  0.2462  0.0335
 5617ntf    fn427554   5.330   1.707   2.746  0.5926  0.1145  0.3688
 5617ntf    fn427555   5.516   1.807   2.705  0.0357  0.1338  0.0518
 5618ntf    cn127556   6.817   0.295   0.352  0.1758 -0.3961  0.1253
 5618ntf    sn227557   6.742   0.130   0.362 -0.3576 -0.1734 -0.1983
 5618ntf    nn327558   6.871   0.062   0.419 -0.5945 -0.1307  0.3961
 5618ntf    sn227559   6.873  -0.069   0.505  0.0505 -0.1215  0.4032
 5618ntf    cn127560   6.891   0.008   0.669  0.2928  0.4745  0.0992
 5618ntf    fn427561   6.824   0.356   0.470  0.6233  0.3731 -0.2867
 5618ntf    fn427562   6.943   0.283   0.314  0.0721  0.1714 -0.4215
 5618ntf    fn427563   6.769   0.387   0.270 -0.3965 -0.1420  0.7419
 5618ntf    on527564   6.632   0.152   0.452 -0.2573  0.8036 -0.2949
 5618ntf    on527565   6.713   0.099   0.224 -0.5714  0.5183 -0.3151
 5618ntf    on527566   6.991  -0.149   0.487 -0.0263  0.0611 -0.9442
 5618ntf    on527567   6.754  -0.151   0.504 -0.1549  0.1772  0.3171
 5618ntf    fn427568   6.792   0.092   0.690 -0.3328 -0.3747  0.6241
 5618ntf    fn427569   6.871  -0.083   0.763  0.1024  0.2401 -0.1653
 5618ntf    fn427570   7.007   0.066   0.698  0.3940  0.2737  0.1041
 5619ntf    cn127571   3.017   4.849   3.871  0.6562 -0.1860  0.1202
 5619ntf    sn227572   2.938   4.921   4.018  0.1632 -0.2403 -0.1154
 5619ntf    nn327573   2.876   4.793   4.085  0.1884 -0.1638  0.0535
 5619ntf    sn227574   2.924   4.724   4.218  0.0575 -0.2895  0.0353
 5619ntf    cn127575   2.962   4.557   4.157  0.2612 -0.1066 -0.3497
 5619ntf    fn427576   2.930   4.771   3.808  0.2825  0.4205 -0.1301
 5619ntf    fn427577   3.060   4.942   3.787  0.4224 -0.3416 -0.1715
 5619ntf    fn427578   3.114   4.764   3.901  0.4313 -0.3075  0.5011
 5619ntf    on527579   3.051   4.985   4.082 -0.2358  0.1164  0.2389
 5619ntf    on527580   2.839   5.008   3.959  0.0217 -0.2267  0.1387
 5619ntf    on527581   2.820   4.692   4.312  0.0034 -0.5064 -0.0980
 5619ntf    on527582   3.056   4.742   4.274  0.0524 -0.1602  0.0057
 5619ntf    fn427583   2.867   4.489   4.095 -0.1654  0.0823  0.0931
 5619ntf    fn427584   3.053   4.562   4.061  0.3321  0.2188 -0.2648
 5619ntf    fn427585   3.005   4.475   4.252 -0.4967 -0.0142  0.0870
 5620ntf    cn127586   3.100   4.906   7.071 -0.2755 -0.0208 -0.0924
 5620ntf    sn227587   3.095   4.803   7.221  0.1106  0.2883  0.1349
 5620ntf    nn327588   3.097   4.922   7.323  0.3658  0.0475  0.4131
 5620ntf    sn227589   3.194   4.948   7.443  0.4852  0.0589  0.3145
 5620ntf    cn127590   3.096   4.879   7.580  0.1898  0.1494  0.1477
 5620ntf    fn427591   2.992   4.980   7.053 -0.3030 -0.0865 -0.1958
 5620ntf    fn427592   3.199   4.993   7.080 -0.0342 -0.3329  0.3232
 5620ntf    fn427593   3.122   4.833   6.963  0.0791 -0.1905  0.0935
 5620ntf    on527594   2.961   4.751   7.213  0.2202  0.0527 -0.2030
 5620ntf    on527595   3.210   4.717   7.217 -0.2344 -0.1909  0.5463
 5620ntf    on527596   3.204   5.086   7.481 -0.5137  0.1382  0.3097
 5620ntf    on527597   3.316   4.870   7.450  0.3541 -0.1622  0.1349
 5620ntf    fn427598   3.158   4.887   7.696  0.0395  0.1681  0.2272
 5620ntf    fn427599   2.982   4.944   7.596  0.3481  0.4120  0.2104
 5620ntf    fn427600   3.071   4.749   7.569 -0.6766  0.3091  0.1972
 5621ntf    cn127601   3.727   7.081   5.063 -0.4181  0.3101 -0.0919
 5621ntf    sn227602   3.674   7.192   4.929 -0.0190  0.0469 -0.4708
 5621ntf    nn327603   3.656   7.334   4.995  0.3492 -0.2137  0.1966
 5621ntf    sn227604   3.535   7.430   5.021  0.2928 -0.0655 -0.6001
 5621ntf    cn127605   3.504   7.363   5.187  0.5373  0.0380 -0.5124
 5621ntf    fn427606   3.759   6.961   5.020  0.6472  0.3260  0.6215
 5621ntf    fn427607   3.826   7.138   5.130 -0.0772 -0.8611  0.4265
 5621ntf    fn427608   3.632   7.060   5.153 -0.9575  0.2017 -0.6761
 5621ntf    on527609   3.789   7.192   4.842  0.0459 -0.5037 -0.3862
 5621ntf    on527610   3.546   7.145   4.884 -0.0139 -0.2766 -0.1531
 5621ntf    on527611   3.413   7.419   4.944  0.0882 -0.3405 -0.2346
 5621ntf    on527612   3.573   7.563   5.062  0.1769 -0.2826  0.2312
 5621ntf    fn427613   3.598   7.362   5.280  0.0023  0.3831  0.0374
 5621ntf    fn427614   3.412   7.441   5.239  0.2372 -0.1366 -0.7757
 5621ntf    fn427615   3.456   7.240   5.184 -0.3842  0.3788 -0.0051
 5622ntf    cn127616   2.712   1.056   3.938 -0.3579  0.1796  0.2908
 5622ntf    sn227617   2.806   1.177   4.036 -0.1041 -0.1988  0.5205
 5622ntf    nn327618   2.951   1.144   3.986 -0.0503 -0.1784  0.6626
 5622ntf    sn227619   3.073   1.242   3.970 -0.3487  0.1210  0.2058
 5622ntf    cn127620   3.190   1.168   4.087 -0.1181  0.0824 -0.0493
 5622ntf    fn427621   2.726   1.069   3.807  0.0242  0.5073  0.3630
 5622ntf    fn427622   2.750   0.930   3.955 -0.7006  0.0492  0.0960
 5622ntf    fn427623   2.582   1.056   3.962 -0.3807 -0.2312  0.1683
 5622ntf    on527624   2.763   1.314   4.017  0.0627 -0.2743 -0.4827
 5622ntf    on527625   2.774   1.127   4.167  0.3340 -0.0126  0.7005
 5622ntf    on527626   3.052   1.368   4.036 -0.3851  0.1010  0.2323
 5622ntf    on527627   3.142   1.232   3.843 -0.2089  0.4953  0.2515
 5622ntf    fn427628   3.200   1.036   4.073 -0.0686  0.0781  0.0270
 5622ntf    fn427629   3.315   1.212   4.078 -0.0944  0.0807  0.2724
 5622ntf    fn427630   3.151   1.187   4.211  0.4322  0.1408  0.1169
 5623ntf    cn127631   0.412   3.548   1.759 -0.1064 -0.0832  0.2268
 5623ntf    sn227632   0.550   3.430   1.761 -0.1584 -0.1413  0.4641
 5623ntf    nn327633   0.597   3.454   1.909 -0.1261  0.1574  0.4066
 5623ntf    sn227634   0.555   3.361   2.028 -0.1386  0.1700  0.4118
 5623ntf    cn127635   0.621   3.441   2.178  0.2250  0.0184  0.3336
 5623ntf    fn427636   0.386   3.603   1.642  0.3428 -1.2481 -0.4310
 5623ntf    fn427637   0.299   3.496   1.804 -0.2192  0.0081  0.0496
 5623ntf    fn427638   0.431   3.649   1.843 -0.2258  0.2387 -0.1300
 5623ntf    on527639   0.494   3.299   1.739 -0.0693 -0.1620  0.3605
 5623ntf    on527640   0.639   3.474   1.656  0.0616 -0.7754  0.3762
 5623ntf    on527641   0.628   3.236   2.028  0.1723  0.3472 -0.4484
 5623ntf    on527642   0.415   3.349   2.059 -0.1181 -0.7430  0.1745
 5623ntf    fn427643   0.573   3.384   2.287  0.7230 -0.4404  0.3171
 5623ntf    fn427644   0.752   3.456   2.188  0.2608  0.0951 -0.1789
 5623ntf    fn427645   0.568   3.562   2.181 -0.2409 -0.1713  0.0051
 5624ntf    cn127646   6.831   3.485   6.285  0.0207  0.0594  0.0678
 5624ntf    sn227647   6.783   3.576   6.136  0.0544 -0.1246 -0.0572
 5624ntf    nn327648   6.901   3.680   6.132  0.0038 -0.0582  0.1733
 5624ntf    sn227649   7.007   3.694   6.018 -0.1836  0.1438  0.0234
 5624ntf    cn127650   7.000   3.872   5.982  0.2453  0.2063  0.2421
 5624ntf    fn427651   6.946   3.421   6.270  0.0417  0.1755 -0.2561
 5624ntf    fn427652   6.841   3.574   6.382  0.3816 -0.1070  0.1859
 5624ntf    fn427653   6.742   3.397   6.328 -0.0996 -0.2867 -0.8736
 5624ntf    on527654   6.785   3.472   6.037 -0.1854  0.1152 -0.3158
 5624ntf    on527655   6.661   3.650   6.162  0.3363  0.5142 -0.5149
 5624ntf    on527656   6.975   3.629   5.894 -0.0199 -0.1602  0.1406
 5624ntf    on527657   7.143   3.679   6.064 -0.0989  0.5502 -0.0902
 5624ntf    fn427658   6.874   3.905   5.957  0.2841  0.2837  0.1472
 5624ntf    fn427659   7.030   3.942   6.091 -0.3164  0.3578  0.3049
 5624ntf    fn427660   7.060   3.921   5.875 -0.5541  0.9499  0.1255
 5625ntf    cn127661   5.658   5.561   1.133 -0.0302 -0.1662  0.1262
 5625ntf    sn227662   5.522   5.678   1.160  0.0964  0.0044  0.0191
 5625ntf    nn327663   5.579   5.799   1.077 -0.3476 -0.0997 -0.4474
 5625ntf    sn227664   5.575   5.952   1.109  0.4447 -0.1523 -0.0527
 5625ntf    cn127665   5.742   5.989   1.170  0.1968  0.0728  0.5001
 5625ntf    fn427666   5.664   5.451   1.207 -0.7280 -0.3637 -0.1017
 5625ntf    fn427667   5.650   5.516   1.009 -0.6215  0.0160  0.0946
 5625ntf    fn427668   5.778   5.615   1.143  0.2020 -0.5515 -0.5282
 5625ntf    on527669   5.413   5.613   1.091  0.5336 -0.6641 -0.0434
 5625ntf    on527670   5.522   5.691   1.303 -0.5004 -0.1342  0.0356
 5625ntf    on527671   5.490   6.001   1.215 -0.0599 -0.0333 -0.5059
 5625ntf    on527672   5.568   6.031   0.988  0.3363  0.1899  0.1740
 5625ntf    fn427673   5.742   6.104   1.236 -0.2008  0.2285  0.2345
 5625ntf    fn427674   5.780   5.908   1.267 -0.1513 -0.3703  0.2713
 5625ntf    fn427675   5.832   5.998   1.073 -0.3448  0.4504  0.0191
 5626ntf    cn127676   4.145   2.669   3.916 -0.0602  0.1643 -0.3563
 5626ntf    sn227677   3.985   2.755   3.922 -0.0984  0.0535  0.3601
 5626ntf    nn327678   4.009   2.883   3.834 -0.3404  0.3465  0.7169
 5626ntf    sn227679   3.920   2.942   3.719 -0.0064 -0.1306  0.2059
 5626ntf    cn127680   3.956   3.117   3.749 -0.0837 -0.0699 -0.0591
 5626ntf    fn427681   4.183   2.646   3.791 -0.4210 -0.8517 -0.2852
 5626ntf    fn427682   4.243   2.737   3.973  0.5120 -1.0860  0.1976
 5626ntf    fn427683   4.143   2.556   3.984  0.2354  0.1156 -0.4269
 5626ntf    on527684   3.891   2.657   3.872  0.5807 -0.7791  0.7001
 5626ntf    on527685   3.959   2.792   4.059 -0.4424 -0.1950  0.3621
 5626ntf    on527686   3.777   2.925   3.732 -0.1483  0.7734 -0.1408
 5626ntf    on527687   3.972   2.922   3.586 -0.6009  0.4840 -0.1235
 5626ntf    fn427688   4.079   3.133   3.796  0.1102 -0.1799 -0.5214
 5626ntf    fn427689   3.945   3.191   3.640 -0.2646  0.2851  0.2001
 5626ntf    fn427690   3.876   3.172   3.838 -0.2703 -0.1082 -0.2015
 5627ntf    cn127691   0.079   5.866   6.270  0.1491 -0.1892  0.1214
 5627ntf    sn227692   0.243   5.906   6.337  0.1084  0.3841 -0.1152
 5627ntf    nn327693   0.276   5.783   6.428 -0.2870  0.1887 -0.2349
 5627ntf    sn227694   0.242   5.769   6.580 -0.1764  0.2552 -0.2036
 5627ntf    cn127695   0.329   5.611   6.607 -0.0757  0.3959  0.3048
 5627ntf    fn427696   0.077   5.754   6.200  0.2432  0.2710 -0.6385
 5627ntf    fn427697  -0.012   5.840   6.361 -0.1998  0.6988  0.0426
 5627ntf    fn427698   0.022   5.963   6.199 -0.0779 -0.4356 -0.0354
 5627ntf    on527699   0.339   5.912   6.229  0.1966 -0.1065 -0.0665
 5627ntf    on527700   0.219   6.028   6.410 -0.7314 -0.0454  0.3352
 5627ntf    on527701   0.105   5.727   6.597  0.1906 -0.7527  0.4028
 5627ntf    on527702   0.304   5.851   6.681  0.3302  0.0390 -0.3335
 5627ntf    fn427703   0.330   5.570   6.733  0.5542 -0.2415  0.0970
 5627ntf    fn427704   0.266   5.516   6.541 -0.1173 -0.0568  0.9834
 5627ntf    fn427705   0.456   5.623   6.571 -0.0100 -0.6196  0.1689
 5628ntf    cn127706   7.108   1.387   0.492 -0.0220 -0.0618 -0.5151
 5628ntf    sn227707   7.209   1.412   0.641 -0.2561 -0.1283 -0.3438
 5628ntf    nn327708   7.227   1.568   0.625  0.1375 -0.0962  0.3975
 5628ntf    sn227709   7.349   1.650   0.571 -0.1448  0.2222  0.2413
 5628ntf    cn127710   7.299   1.810   0.642 -0.1225  0.3793 -0.0963
 5628ntf    fn427711   7.058   1.265   0.504  0.2679 -0.1266  0.0411
 5628ntf    fn427712   7.007   1.472   0.489  0.3850  0.4547  0.2267
 5628ntf    fn427713   7.178   1.401   0.380  0.0299  0.4953 -0.4160
 5628ntf    on527714   7.128   1.383   0.756 -0.2750  0.4818 -0.1981
 5628ntf    on527715   7.332   1.338   0.630  0.3968  0.8887 -0.0713
 5628ntf    on527716   7.342   1.673   0.429 -0.0670 -0.1934  0.1675
 5628ntf    on527717   7.477   1.626   0.634 -0.1038  0.2575  0.1719
 5628ntf    fn427718   7.206   1.868   0.569 -0.0917 -0.1935 -0.6003
 5628ntf    fn427719   7.254   1.793   0.765 -0.2471  0.1429 -0.1742
 5628ntf    fn427720   7.397   1.899   0.648 -0.6866  0.9931  0.0386
 5629ntf    cn127721   3.369   2.352   2.062 -0.4604 -0.1066  0.3196
 5629ntf    sn227722   3.280   2.474   1.960  0.2826 -0.0960 -0.3257
 5629ntf    nn327723   3.264   2.597   2.056  0.0159 -0.2598 -0.1587
 5629ntf    sn227724   3.262   2.751   2.028  0.1512 -0.2369 -0.0464
 5629ntf    cn127725   3.085   2.785   2.049  0.2319  0.1416  0.0267
 5629ntf    fn427726   3.491   2.394   2.089 -0.3266 -0.1576 -0.1894
 5629ntf    fn427727   3.311   2.317   2.175 -0.2266  0.2619  0.5570
 5629ntf    fn427728   3.391   2.243   1.992  0.1598  0.1781  0.0667
 5629ntf    on527729   3.372   2.497   1.851  0.6615  0.4499  0.1041
 5629ntf    on527730   3.159   2.404   1.924  0.2309  0.2077 -0.7485
 5629ntf    on527731   3.279   2.808   1.897  0.1670  0.0456  0.0784
 5629ntf    on527732   3.332   2.830   2.126 -0.2185 -0.1812  0.1757
 5629ntf    fn427733   3.004   2.703   1.984  0.0534  0.2329  0.1320
 5629ntf    fn427734   3.040   2.769   2.172 -0.5317  0.5217 -0.1965
 5629ntf    fn427735   3.055   2.910   2.016  0.2367  0.1588  0.0875
 5630ntf    cn127736   5.857   0.043   6.128 -0.1442 -0.0781  0.3511
 5630ntf    sn227737   5.938  -0.108   6.066 -0.5216 -0.1360 -0.0032
 5630ntf    nn327738   5.852  -0.221   6.132 -0.2464 -0.5056 -0.2715
 5630ntf    sn227739   5.903  -0.358   6.190  0.1409 -0.2815 -0.0807
 5630ntf    cn127740   5.880  -0.325   6.367 -0.0448  0.2406 -0.2007
 5630ntf    fn427741   5.940   0.143   6.102 -0.8015  0.3410 -0.1512
 5630ntf    fn427742   5.736   0.067   6.081 -0.1003 -0.0613  0.2450
 5630ntf    fn427743   5.843   0.034   6.259 -0.2019 -0.8615  0.2993
 5630ntf    on527744   5.921  -0.101   5.923  0.2797 -0.1043 -0.0996
 5630ntf    on527745   6.073  -0.099   6.115 -0.9061 -0.0535  1.0690
 5630ntf    on527746   6.043  -0.387   6.173  0.3325  0.1731  0.6635
 5630ntf    on527747   5.806  -0.461   6.167  0.1796 -0.3918  0.2468
 5630ntf    fn427748   5.912  -0.430   6.440 -0.3390 -0.2811 -0.8149
 5630ntf    fn427749   5.966  -0.232   6.406 -0.1264  0.3693 -0.3279
 5630ntf    fn427750   5.761  -0.284   6.408 -0.1361 -0.1064 -0.1185
 5631ntf    cn127751   0.480   1.069   3.203  0.0949 -0.2160  0.1690
 5631ntf    sn227752   0.472   1.114   3.379  0.0493  0.5941 -0.0335
 5631ntf    nn327753   0.331   1.179   3.398 -0.2310  0.0728 -0.2983
 5631ntf    sn227754   0.191   1.109   3.408 -0.1856  0.0207 -0.0181
 5631ntf    cn127755   0.098   1.195   3.277 -0.5163 -0.2448  0.0393
 5631ntf    fn427756   0.381   0.987   3.172 -0.2154 -0.0187  0.6353
 5631ntf    fn427757   0.462   1.180   3.132 -0.5497 -0.4529 -0.0469
 5631ntf    fn427758   0.593   1.015   3.162  0.0067 -0.1038 -0.2302
 5631ntf    on527759   0.506   0.988   3.441  0.4002  0.5358 -0.3417
 5631ntf    on527760   0.576   1.213   3.392  0.1068  0.5171  0.0958
 5631ntf    on527761   0.116   1.145   3.527 -0.6578 -0.1591 -0.2583
 5631ntf    on527762   0.187   0.970   3.370 -0.5351  0.0796 -0.1998
 5631ntf    fn427763  -0.024   1.146   3.262 -0.3907 -0.5615  0.0613
 5631ntf    fn427764   0.077   1.321   3.314 -0.6688 -0.2916  0.1133
 5631ntf    fn427765   0.162   1.199   3.162  0.3181  0.1905  0.5036
 5632ntf    cn127766   2.735   6.486   1.759  0.0633 -0.1563  0.1111
 5632ntf    sn227767   2.584   6.570   1.703  0.3793  0.1807 -0.2487
 5632ntf    nn327768   2.467   6.490   1.771  0.0735  0.9008  0.0889
 5632ntf    sn227769   2.318   6.536   1.787 -0.0715  0.3818  0.2387
 5632ntf    cn127770   2.236   6.418   1.675 -0.1218  0.7384 -0.1028
 5632ntf    fn427771   2.846   6.539   1.708 -0.0848 -0.1076 -0.1632
 5632ntf    fn427772   2.742   6.494   1.891 -0.0312 -0.1143  0.1134
 5632ntf    fn427773   2.738   6.356   1.737  0.2436 -0.2400  0.6287
 5632ntf    on527774   2.603   6.701   1.761  0.6350  0.0315  0.0075
 5632ntf    on527775   2.584   6.556   1.560 -0.0991 -0.1321 -0.2205
 5632ntf    on527776   2.285   6.662   1.725 -0.3284 -0.0171 -0.4392
 5632ntf    on527777   2.269   6.502   1.919 -0.8210  0.2018 -0.0827
 5632ntf    fn427778   2.285   6.296   1.692 -0.9451  0.3932 -0.1664
 5632ntf    fn427779   2.105   6.413   1.691 -0.0289 -0.1766  0.4856
 5632ntf    fn427780   2.236   6.446   1.546 -0.0343  0.3063 -0.1977
 5633ntf    cn127781   0.045   4.628   6.860  0.0911 -0.0952  0.3523
 5633ntf    sn227782   0.224   4.656   6.844 -0.0091  0.2798 -0.1542
 5633ntf    nn327783   0.250   4.804   6.892  0.0318  0.2109  0.0357
 5633ntf    sn227784   0.293   4.859   7.033  0.3044  0.1957 -0.0402
 5633ntf    cn127785   0.166   4.989   7.041  0.2579  0.1495 -0.0255
 5633ntf    fn427786   0.005   4.504   6.841  0.1912 -0.0637 -0.0819
 5633ntf    fn427787   0.011   4.662   6.983  0.0621 -0.0124  0.3218
 5633ntf    fn427788  -0.022   4.705   6.775 -0.2350 -0.0761  0.6236
 5633ntf    on527789   0.269   4.545   6.924 -1.2998  0.0963  0.3448
 5633ntf    on527790   0.257   4.650   6.704  0.5635 -0.4709  0.0107
 5633ntf    on527791   0.409   4.944   7.039  0.2791  0.3272 -1.0999
 5633ntf    on527792   0.254   4.785   7.151  0.5335  0.1572  0.0123
 5633ntf    fn427793   0.157   5.046   6.922  0.3372  0.5839  0.1766
 5633ntf    fn427794   0.053   4.924   7.061  0.3957  0.0004  0.2811
 5633ntf    fn427795   0.185   5.091   7.123 -0.6657 -0.1949  0.6287
 5634ntf    cn127796   4.093   5.221   2.503  0.3021  0.0999 -0.0229
 5634ntf    sn227797   4.005   5.374   2.547  0.0887 -0.0220 -0.0232
 5634ntf    nn327798   3.871   5.357   2.467 -0.0947  0.3388  0.2015
 5634ntf    sn227799   3.809   5.463   2.369 -0.2075  0.0772 -0.0121
 5634ntf    cn127800   3.635   5.411   2.381 -0.2967  0.3808  0.0009
 5634ntf    fn427801   4.017   5.114   2.521 -0.1441  0.4395  0.1486
 5634ntf    fn427802   4.133   5.223   2.377  0.0269 -0.1667 -0.1166
 5634ntf    fn427803   4.196   5.206   2.584  0.2183 -0.3524 -0.0004
 5634ntf    on527804   3.986   5.362   2.689 -0.1973  0.1215 -0.0475
 5634ntf    on527805   4.092   5.483   2.509 -0.0795  0.1063 -0.0411
 5634ntf    on527806   3.841   5.447   2.229  0.2433  0.1091  0.0838
 5634ntf    on527807   3.805   5.599   2.414 -0.7240  0.1986 -0.4213
 5634ntf    fn427808   3.591   5.414   2.505  0.6835 -0.5522  0.3800
 5634ntf    fn427809   3.561   5.494   2.309 -0.2259  0.1034 -0.3963
 5634ntf    fn427810   3.611   5.291   2.332  0.4172  0.1536  0.1965
 5635ntf    cn127811   2.861   1.817   7.067 -0.1116  0.1590  0.0453
 5635ntf    sn227812   2.845   1.723   7.222  0.1613  0.2552  0.1318
 5635ntf    nn327813   2.703   1.660   7.199  0.0796  0.2288  0.7028
 5635ntf    sn227814   2.560   1.720   7.223 -0.1392  0.0238 -0.0702
 5635ntf    cn127815   2.525   1.662   7.391  0.2877 -0.4341 -0.1369
 5635ntf    fn427816   2.968   1.891   7.043  0.0846  0.0286  0.5152
 5635ntf    fn427817   2.829   1.741   6.963 -0.6512  0.3920  0.0372
 5635ntf    fn427818   2.768   1.911   7.070  0.1956  0.4666 -0.1190
 5635ntf    on527819   2.949   1.624   7.212  0.5722  0.6525  0.4202
 5635ntf    on527820   2.849   1.818   7.330 -0.3284 -0.2746  0.6248
 5635ntf    on527821   2.461   1.660   7.137  0.3810 -0.6698 -0.2008
 5635ntf    on527822   2.552   1.864   7.230 -0.3820 -0.0142  0.4652
 5635ntf    fn427823   2.586   1.739   7.480 -0.6626  0.5855 -0.3541
 5635ntf    fn427824   2.394   1.667   7.413  0.3349 -0.0470  0.0515
 5635ntf    fn427825   2.556   1.535   7.415  0.5818 -0.4855 -0.7648
 5636ntf    cn127826   1.035   3.040   1.210 -0.0509  0.2207  0.2062
 5636ntf    sn227827   0.860   3.062   1.166 -0.0558 -0.1261  0.0477
 5636ntf    nn327828   0.871   3.148   1.035  0.2678 -0.0112  0.1482
 5636ntf    sn227829   0.898   3.098   0.889 -0.0960  0.2833 -0.0230
 5636ntf    cn127830   0.736   3.078   0.809 -0.0549  0.0715 -0.0523
 5636ntf    fn427831   1.057   2.993   1.332 -0.1101  0.4385  0.3023
 5636ntf    fn427832   1.104   2.970   1.121  0.1106  0.2601  0.3012
 5636ntf    fn427833   1.091   3.159   1.222 -0.0765  0.2286  0.2496
 5636ntf    on527834   0.808   2.928   1.151 -0.5039  0.0470  0.0274
 5636ntf    on527835   0.806   3.136   1.278 -0.5626  0.3231 -0.4861
 5636ntf    on527836   0.964   2.971   0.874  0.3352  0.5449 -0.3489
 5636ntf    on527837   0.955   3.202   0.806  0.2535  0.2474  0.1700
 5636ntf    fn427838   0.670   2.981   0.871 -0.0196  0.2739  0.3024
 5636ntf    fn427839   0.657   3.183   0.814 -0.2760 -0.0914 -0.1085
 5636ntf    fn427840   0.738   3.026   0.687 -0.7026  0.3131 -0.1686
 5637ntf    cn127841   3.166   5.769   5.182  0.2111 -0.2073  0.3395
 5637ntf    sn227842   3.165   5.933   5.260 -0.2116  0.0593 -0.2197
 5637ntf    nn327843   3.097   6.017   5.146 -0.1881  0.0183 -0.2640
 5637ntf    sn227844   2.950   6.073   5.147 -0.3237 -0.3378 -0.0122
 5637ntf    cn127845   2.968   6.227   5.241  0.0297 -0.1005 -0.4629
 5637ntf    fn427846   3.209   5.673   5.263 -0.4533 -0.5379  0.3095
 5637ntf    fn427847   3.044   5.728   5.152  0.4450 -0.5009 -0.2380
 5637ntf    fn427848   3.230   5.766   5.066 -0.0741  0.3828  0.1635
 5637ntf    on527849   3.095   5.912   5.384  0.0629 -0.0310 -0.0784
 5637ntf    on527850   3.305   5.968   5.268 -0.0128 -0.6919 -0.3049
 5637ntf    on527851   2.852   6.005   5.227  0.1613 -0.1472  0.7634
 5637ntf    on527852   2.918   6.125   5.017  0.3026 -0.2519 -0.1387
 5637ntf    fn427853   3.057   6.308   5.184  0.2713 -0.0404 -0.0112
 5637ntf    fn427854   2.857   6.298   5.255 -0.0295 -0.3130  0.1803
 5637ntf    fn427855   3.021   6.186   5.356  0.1676  0.0722 -0.4639
 5638ntf    cn127856   5.652   6.447   0.294  0.0978  0.3031  0.1056
 5638ntf    sn227857   5.821   6.515   0.303  0.2225 -0.0069  0.1271
 5638ntf    nn327858   5.815   6.607   0.430  0.0986  0.0472  0.0825
 5638ntf    sn227859   5.784   6.761   0.426  0.0646  0.0401  0.0691
 5638ntf    cn127860   5.954   6.821   0.405  0.0843  0.0012  0.1209
 5638ntf    fn427861   5.570   6.541   0.339 -0.0324  0.3601 -0.2405
 5638ntf    fn427862   5.616   6.414   0.171 -0.6156  0.2269  0.3305
 5638ntf    fn427863   5.632   6.343   0.372  0.1022  0.1469 -0.1018
 5638ntf    on527864   5.905   6.401   0.329  0.1150 -0.1375 -0.0937
 5638ntf    on527865   5.829   6.577   0.173 -0.1034  0.3698  0.2833
 5638ntf    on527866   5.748   6.807   0.558  0.3902  0.7152 -0.0760
 5638ntf    on527867   5.712   6.817   0.314  0.4198 -0.7266 -0.5581
 5638ntf    fn427868   6.006   6.742   0.314 -1.0306 -0.2172 -0.3451
 5638ntf    fn427869   5.967   6.946   0.363  0.5247 -0.0391  0.1305
 5638ntf    fn427870   6.030   6.812   0.513  0.1684  0.5249  0.1083
 5639ntf    cn127871   4.252   2.636   6.041 -0.0849  0.4527 -0.5998
 5639ntf    sn227872   4.114   2.539   6.111  0.2456  0.4970  0.1197
 5639ntf    nn327873   4.159   2.557   6.261  0.4837 -0.1859  0.1305
 5639ntf    sn227874   4.117   2.651   6.379 -0.0832 -0.2727  0.0038
 5639ntf    cn127875   4.270   2.743   6.417 -0.0425 -0.3614  0.0587
 5639ntf    fn427876   4.367   2.609   6.101 -0.4916 -0.0909 -0.0482
 5639ntf    fn427877   4.272   2.612   5.913  0.2550 -0.1224 -0.4413
 5639ntf    fn427878   4.227   2.765   6.054  0.2487  0.4529  0.0858
 5639ntf    on527879   3.994   2.603   6.064  0.0554  0.1392  0.1240
 5639ntf    on527880   4.135   2.406   6.062 -0.1343  0.4805  0.0027
 5639ntf    on527881   4.093   2.583   6.504 -0.5329 -0.2765 -0.0825
 5639ntf    on527882   4.023   2.752   6.340  0.3109 -0.0737 -0.4336
 5639ntf    fn427883   4.369   2.662   6.448  0.7523  0.7734  0.5339
 5639ntf    fn427884   4.309   2.822   6.319 -0.0487 -0.0326  0.3191
 5639ntf    fn427885   4.248   2.810   6.529 -0.2673 -0.5504  0.1307
 5640ntf    cn127886   3.300   1.107   7.356  0.0977  0.0529  0.4572
 5640ntf    sn227887   3.411   0.963   7.372  0.1007 -0.0169 -0.1616
 5640ntf    nn327888   3.429   0.967   7.528  0.3664 -0.5036 -0.1781
 5640ntf    sn227889   3.540   1.039   7.614  0.2038 -0.1078 -0.2951
 5640ntf    cn127890   3.501   0.963   7.775 -0.3972  0.0057 -0.3855
 5640ntf    fn427891   3.355   1.220   7.397 -0.2972  0.7278 -0.8167
 5640ntf    fn427892   3.270   1.135   7.231  0.6101  0.3783  0.4071
 5640ntf    fn427893   3.189   1.082   7.425 -0.0717  0.0531  0.1838
 5640ntf    on527894   3.341   0.844   7.333  0.2146  0.0675 -0.6194
 5640ntf    on527895   3.530   0.983   7.293 -0.1794 -0.0515 -0.5948
 5640ntf    on527896   3.517   1.177   7.647  0.2394 -0.2063  0.1395
 5640ntf    on527897   3.676   0.999   7.587  0.1999 -0.5955  0.3727
 5640ntf    fn427898   3.563   1.015   7.880 -0.2356 -0.1928 -0.3835
 5640ntf    fn427899   3.372   0.970   7.805 -0.3810 -0.0052 -0.3149
 5640ntf    fn427900   3.542   0.838   7.781 -0.4133  0.0068 -0.2500
 5641ntf    cn127901   4.416   7.566   5.992  0.1416  0.1921  0.5269
 5641ntf    sn227902   4.480   7.580   5.823  0.1031 -0.1419  0.4854
 5641ntf    nn327903   4.532   7.435   5.792  0.0036  0.0167 -0.4549
 5641ntf    sn227904   4.461   7.312   5.724 -0.0748 -0.4844  0.5120
 5641ntf    cn127905   4.508   7.173   5.831  0.4518 -0.4158  0.3760
 5641ntf    fn427906   4.305   7.495   5.995 -0.0961  0.5389  0.0582
 5641ntf    fn427907   4.507   7.521   6.078  0.2639 -0.0095  0.2901
 5641ntf    fn427908   4.374   7.683   6.039 -0.4220  0.2321 -0.0634
 5641ntf    on527909   4.375   7.628   5.737  0.3764 -0.2428  0.0902
 5641ntf    on527910   4.590   7.671   5.840 -0.3052  0.4314  0.0788
 5641ntf    on527911   4.521   7.277   5.598 -0.0799 -0.1211  0.4070
 5641ntf    on527912   4.318   7.317   5.738 -0.1937 -0.0957 -0.7348
 5641ntf    fn427913   4.454   7.183   5.951  0.1481 -0.5791  0.2537
 5641ntf    fn427914   4.468   7.055   5.787  0.1048 -0.0977 -0.1673
 5641ntf    fn427915   4.636   7.163   5.863  0.5181  0.3701  0.3822
 5642ntf    cn127916   0.270   2.811   0.621  0.6131 -0.1845 -0.0954
 5642ntf    sn227917   0.220   2.699   0.756  0.0695  0.0601 -0.0936
 5642ntf    nn327918   0.078   2.650   0.711  0.1591 -0.2950  0.0080
 5642ntf    sn227919  -0.052   2.642   0.800  0.4030 -0.1420  0.3805
 5642ntf    cn127920  -0.169   2.746   0.709  0.2327 -0.4724  0.2194
 5642ntf    fn427921   0.389   2.852   0.661  0.5751  0.0750 -0.2486
 5642ntf    fn427922   0.283   2.761   0.499 -0.3326 -0.0899 -0.2344
 5642ntf    fn427923   0.200   2.922   0.617 -0.0374 -0.5867  0.0398
 5642ntf    on527924   0.327   2.603   0.767 -0.3978 -0.4343  0.1222
 5642ntf    on527925   0.219   2.785   0.872  0.4782 -0.1966  0.1031
 5642ntf    on527926  -0.054   2.713   0.925 -0.6549  0.2464  0.1479
 5642ntf    on527927  -0.109   2.510   0.796 -0.2208  0.1478 -0.6077
 5642ntf    fn427928  -0.199   2.703   0.587 -0.0326 -0.2222  0.1945
 5642ntf    fn427929  -0.288   2.759   0.767  0.3371  0.8169  0.1893
 5642ntf    fn427930  -0.117   2.867   0.696 -0.4325 -0.2504 -0.5314
 5643ntf    cn127931   6.965   1.620   5.788  0.0037  0.4440 -0.2204
 5643ntf    sn227932   6.906   1.541   5.941 -0.3602  0.1988 -0.4848
 5643ntf    nn327933   7.046   1.521   6.009 -0.7049  0.3987  0.2964
 5643ntf    sn227934   7.100   1.578   6.144  0.0320  0.1033  0.1321
 5643ntf    cn127935   7.275   1.609   6.104 -0.0075  0.2297  0.0554
 5643ntf    fn427936   6.989   1.749   5.804  0.2075  0.3880 -0.0698
 5643ntf    fn427937   7.085   1.572   5.761  0.1031  0.1794  0.6537
 5643ntf    fn427938   6.887   1.606   5.682 -0.3659  0.2322  0.0773
 5643ntf    on527939   6.822   1.642   6.002 -0.1186  0.0888  0.0358
 5643ntf    on527940   6.840   1.426   5.884 -0.2296  0.2797 -0.8042
 5643ntf    on527941   7.110   1.480   6.249  0.1707 -0.1299 -0.1007
 5643ntf    on527942   7.053   1.708   6.187  0.2231  0.1850  0.0951
 5643ntf    fn427943   7.341   1.506   6.055 -0.2552 -0.0380  0.2767
 5643ntf    fn427944   7.294   1.706   6.016  0.2201  0.0292 -0.1170
 5643ntf    fn427945   7.336   1.651   6.213 -0.2303  0.0725  0.2424
 5644ntf    cn127946   3.238   1.404   2.961  0.7282 -0.4815 -0.2831
 5644ntf    sn227947   3.244   1.236   3.029  0.2852 -0.3688  0.0387
 5644ntf    nn327948   3.096   1.222   3.078  0.1507  0.1319 -0.2273
 5644ntf    sn227949   3.034   1.188   3.218  0.0484 -0.2750 -0.3703
 5644ntf    cn127950   2.887   1.293   3.204  0.2473  0.1339  0.5292
 5644ntf    fn427951   3.355   1.443   2.914  0.5651  0.0718 -0.2347
 5644ntf    fn427952   3.156   1.415   2.857 -0.0586  0.4186  0.4235
 5644ntf    fn427953   3.208   1.494   3.053 -0.0563 -0.0785 -0.9126
 5644ntf    on527954   3.266   1.153   2.913  0.4637  0.1818 -0.3212
 5644ntf    on527955   3.339   1.240   3.138 -0.2774  0.2557  0.5075
 5644ntf    on527956   3.102   1.239   3.335 -0.1881 -0.1328 -0.2962
 5644ntf    on527957   2.975   1.057   3.225 -0.5124  0.0116  0.3813
 5644ntf    fn427958   2.799   1.287   3.303 -0.1961  0.1280  0.1352
 5644ntf    fn427959   2.930   1.418   3.195  0.2210  0.1594  0.7357
 5644ntf    fn427960   2.824   1.256   3.094  0.2799  0.6560  0.3317
 5645ntf    cn127961   4.104   5.366   7.554  0.2886  0.2469  0.0582
 5645ntf    sn227962   4.038   5.256   7.683 -0.0285  0.2384 -0.1109
 5645ntf    nn327963   4.145   5.278   7.796  0.1431 -0.6699 -0.0848
 5645ntf    sn227964   4.162   5.200   7.931 -0.1887 -0.0985  0.2961
 5645ntf    cn127965   4.182   5.341   8.043  0.1496 -0.2771  0.4616
 5645ntf    fn427966   4.201   5.306   7.486 -0.2104 -0.4017 -0.1019
 5645ntf    fn427967   4.015   5.405   7.464 -0.0011  0.1883  0.3197
 5645ntf    fn427968   4.146   5.477   7.612  0.2306 -0.0026  0.5835
 5645ntf    on527969   3.907   5.311   7.709 -0.1875 -0.0747 -0.2453
 5645ntf    on527970   4.053   5.127   7.621  0.5869  0.1818  0.1495
 5645ntf    on527971   4.291   5.136   7.941 -0.0877  0.0729  0.1174
 5645ntf    on527972   4.046   5.136   7.987 -0.2583 -0.0517  0.2062
 5645ntf    fn427973   4.179   5.296   8.168 -0.6210 -0.7041  0.2930
 5645ntf    fn427974   4.302   5.394   8.030 -0.0836  0.1109 -0.1483
 5645ntf    fn427975   4.088   5.431   8.018  0.3478 -0.2204 -0.0946
 5646ntf    cn127976   5.079   2.239   3.613 -0.4115 -0.2534  0.0771
 5646ntf    sn227977   5.017   2.387   3.527 -0.0566 -0.0848  0.1125
 5646ntf    nn327978   4.998   2.500   3.634 -0.2129 -0.1807  0.1867
 5646ntf    sn227979   5.107   2.555   3.733 -0.0586 -0.1833  0.0184
 5646ntf    cn127980   5.060   2.474   3.889  0.3546 -0.2164  0.1295
 5646ntf    fn427981   5.083   2.134   3.532  0.2946 -0.0570 -0.1494
 5646ntf    fn427982   5.204   2.252   3.654 -0.3265  0.1125 -0.2950
 5646ntf    fn427983   5.010   2.210   3.723 -0.0640  0.2925  0.4390
 5646ntf    on527984   5.121   2.401   3.428  0.0517 -0.2612  0.2000
 5646ntf    on527985   4.894   2.334   3.474  0.3382 -0.5517 -0.3438
 5646ntf    on527986   5.091   2.695   3.761 -0.1129 -0.1241 -0.3059
 5646ntf    on527987   5.244   2.509   3.724  0.0676  0.0978  0.4618
 5646ntf    fn427988   5.119   2.519   3.998 -0.5096  0.4642  0.3346
 5646ntf    fn427989   4.929   2.465   3.906  0.3065  0.1277 -0.0373
 5646ntf    fn427990   5.101   2.349   3.893  0.2333 -0.2748 -0.3764
 5647ntf    cn127991   7.170   2.233   1.734 -0.1476 -0.1859 -0.3799
 5647ntf    sn227992   7.021   2.136   1.696 -0.2285 -0.1071 -0.2663
 5647ntf    nn327993   7.056   1.994   1.755 -0.0980 -0.0010 -0.0883
 5647ntf    sn227994   7.085   1.856   1.687 -0.1673 -0.0547 -0.0074
 5647ntf    cn127995   7.133   1.780   1.845  0.5186  0.0170 -0.1804
 5647ntf    fn427996   7.275   2.198   1.663  0.3738  0.1991  0.1907
 5647ntf    fn427997   7.150   2.358   1.695 -0.7239 -0.1603 -0.0199
 5647ntf    fn427998   7.195   2.240   1.864 -0.0684 -0.2083 -0.3943
 5647ntf    on527999   6.923   2.200   1.780  0.4313 -0.4279  0.7758
 5647ntf    on528000   7.011   2.157   1.554 -0.6547 -0.0092 -0.2228
 5647ntf    on528001   7.204   1.861   1.606  0.2674 -0.1124  0.6184
 5647ntf    on528002   6.970   1.783   1.639  0.1316  0.1300 -1.0207
 5647ntf    fn428003   7.223   1.845   1.917  0.4011 -0.3041  0.2623
 5647ntf    fn428004   7.038   1.753   1.933  0.1431  0.1842 -0.5367
 5647ntf    fn428005   7.192   1.663   1.827  0.5356 -0.0006 -0.0172
 5648ntf    cn128006   6.370   2.627   5.918 -0.2132  0.1237  0.6547
 5648ntf    sn228007   6.545   2.671   5.932 -0.0768 -0.1615 -0.0683
 5648ntf    nn328008   6.531   2.792   6.031 -0.0848 -0.0555 -0.1992
 5648ntf    sn228009   6.562   2.944   6.011 -0.0447 -0.0343  0.0252
 5648ntf    cn128010   6.650   2.989   6.164 -0.0384  0.1391 -0.0289
 5648ntf    fn428011   6.308   2.606   6.033 -0.5251 -0.4916  0.3817
 5648ntf    fn428012   6.295   2.724   5.869  0.1445  0.2154  0.2854
 5648ntf    fn428013   6.358   2.518   5.842 -0.0437  0.3160  0.3507
 5648ntf    on528014   6.607   2.556   5.994  0.4142  0.2951  0.2900
 5648ntf    on528015   6.591   2.694   5.797  0.5785 -0.3185  0.1217
 5648ntf    on528016   6.442   3.024   6.006  0.2434  0.4090  0.1133
 5648ntf    on528017   6.667   2.973   5.916 -0.1109 -0.1431 -0.0805
 5648ntf    fn428018   6.755   2.914   6.194  0.4902  0.8062 -0.1865
 5648ntf    fn428019   6.697   3.112   6.179  0.0754  0.1243 -0.2671
 5648ntf    fn428020   6.576   2.965   6.272 -0.3866  0.4811 -0.1881
 5649ntf    cn128021   5.557   1.872   5.121  0.0421  0.1491 -0.7855
 5649ntf    sn228022   5.389   1.803   5.125  0.1657 -0.0981  0.3116
 5649ntf    nn328023   5.341   1.768   4.980  0.1148  0.1105  0.2770
 5649ntf    sn228024   5.303   1.875   4.872  0.3581  0.0952  0.1773
 5649ntf    cn128025   5.123   1.866   4.892  0.3413 -0.0951 -0.0569
 5649ntf    fn428026   5.647   1.778   5.095  1.0300  0.7373  0.4199
 5649ntf    fn428027   5.574   1.964   5.028  0.1659  0.7292 -0.1925
 5649ntf    fn428028   5.594   1.930   5.233  0.0392 -0.1037 -0.6521
 5649ntf    on528029   5.395   1.686   5.209  0.1949 -0.2844  0.0516
 5649ntf    on528030   5.302   1.905   5.179 -0.5353 -0.5132 -0.0068
 5649ntf    on528031   5.311   1.822   4.739 -0.1082  0.1658  0.1198
 5649ntf    on528032   5.349   2.012   4.882  0.5842  0.0248  0.1189
 5649ntf    fn428033   5.078   1.882   5.015 -0.0951  0.3247 -0.2673
 5649ntf    fn428034   5.068   1.958   4.814  0.5243  0.1366  0.0845
 5649ntf    fn428035   5.060   1.755   4.860  0.0310 -0.0585  0.4222
 5650ntf    cn128036   3.791   1.617   6.490 -0.0596  0.2566 -0.3828
 5650ntf    sn228037   3.751   1.603   6.313 -0.0895  0.1946 -0.3717
 5650ntf    nn328038   3.821   1.464   6.291 -0.2158  0.0436  0.1598
 5650ntf    sn228039   3.972   1.420   6.280 -0.2815 -0.2093  0.2792
 5650ntf    cn128040   3.991   1.448   6.102  0.0481  0.7330  0.4613
 5650ntf    fn428041   3.687   1.661   6.560 -0.2315 -0.1523 -0.3764
 5650ntf    fn428042   3.822   1.504   6.550  0.5649  0.3759 -0.4787
 5650ntf    fn428043   3.891   1.698   6.521 -0.1200 -0.0942  0.7924
 5650ntf    on528044   3.608   1.591   6.303 -0.1668  0.6056  0.2034
 5650ntf    on528045   3.818   1.717   6.255 -0.4902  0.5136 -0.2092
 5650ntf    on528046   3.991   1.278   6.298  0.8945 -0.0347  0.4672
 5650ntf    on528047   4.072   1.502   6.342 -0.2572  0.4034 -0.5561
 5650ntf    fn428048   4.101   1.392   6.054 -0.4415 -0.0629  0.2613
 5650ntf    fn428049   3.888   1.393   6.040  0.3884  0.0402  0.5090
 5650ntf    fn428050   3.986   1.577   6.072 -0.0150  0.4975 -0.6019
 5651ntf    cn128051   6.713   0.100   5.824  0.5855  0.0617  0.0025
 5651ntf    sn228052   6.796   0.237   5.909  0.0451  0.1353  0.4107
 5651ntf    nn328053   6.844   0.174   6.045  0.7148 -0.3659 -0.0486
 5651ntf    sn228054   6.844   0.233   6.191 -0.0077 -0.1941 -0.1126
 5651ntf    cn128055   7.014   0.297   6.199 -0.0683 -0.0261 -0.1878
 5651ntf    fn428056   6.680   0.125   5.698  0.7230  0.2728  0.0083
 5651ntf    fn428057   6.789  -0.008   5.820  0.5266  0.0277 -0.2270
 5651ntf    fn428058   6.604   0.062   5.887  0.5526  0.5741  0.2526
 5651ntf    on528059   6.907   0.261   5.820 -0.0944  0.1647  0.2436
 5651ntf    on528060   6.695   0.339   5.915 -0.3049 -0.1917  0.1260
 5651ntf    on528061   6.851   0.122   6.283 -0.2787 -0.0750  0.0528
 5651ntf    on528062   6.755   0.344   6.214  0.0291 -0.2038  0.0815
 5651ntf    fn428063   7.034   0.382   6.299  0.0467 -0.2161 -0.0496
 5651ntf    fn428064   7.101   0.202   6.228 -0.3491 -0.2465 -0.0606
 5651ntf    fn428065   7.054   0.353   6.086 -0.3811 -0.4780 -0.5237
 5652ntf    cn128066   1.098   4.344   2.451  0.6761  0.2470 -0.2690
 5652ntf    sn228067   1.094   4.525   2.464 -0.1758  0.2058  0.0746
 5652ntf    nn328068   0.954   4.531   2.535  0.0647 -0.4498  0.6082
 5652ntf    sn228069   0.922   4.544   2.688 -0.0602 -0.3128  0.5707
 5652ntf    cn128070   0.942   4.725   2.692 -0.1716 -0.2970  0.4267
 5652ntf    fn428071   1.196   4.303   2.372  0.0136 -0.7134 -0.6001
 5652ntf    fn428072   1.120   4.281   2.565 -0.0794  0.1535 -0.1710
 5652ntf    fn428073   0.992   4.297   2.387  0.4383 -0.1034  0.3830
 5652ntf    on528074   1.205   4.568   2.546  0.0940  0.9491 -0.6645
 5652ntf    on528075   1.097   4.569   2.327  0.2675  0.0699  0.0421
 5652ntf    on528076   1.017   4.489   2.782  0.2295 -0.3040  0.2840
 5652ntf    on528077   0.780   4.533   2.709 -0.2081  0.0658 -0.2100
 5652ntf    fn428078   1.069   4.751   2.662 -0.3749  0.5600  0.2798
 5652ntf    fn428079   0.864   4.794   2.611  0.2841  0.0952  0.3152
 5652ntf    fn428080   0.923   4.775   2.813  0.3586  0.3773  0.2373
 5653ntf    cn128081   6.390   4.414   4.373  0.0536 -0.0842 -0.1939
 5653ntf    sn228082   6.514   4.481   4.488 -0.1128  0.1777 -0.1679
 5653ntf    nn328083   6.563   4.343   4.546 -0.3956 -0.1612 -0.7263
 5653ntf    sn228084   6.669   4.236   4.503  0.0573 -0.1794  0.3997
 5653ntf    cn128085   6.723   4.191   4.670 -0.0588  0.0130  0.4890
 5653ntf    fn428086   6.444   4.397   4.254 -0.0401 -0.0502 -0.2413
 5653ntf    fn428087   6.345   4.296   4.414 -0.7980  0.2777 -0.0798
 5653ntf    fn428088   6.289   4.498   4.357  0.3273  0.2804 -0.0082
 5653ntf    on528089   6.596   4.556   4.397 -0.0149 -0.6201 -0.7450
 5653ntf    on528090   6.438   4.562   4.580  0.8216  0.4946  0.3384
 5653ntf    on528091   6.787   4.287   4.437 -0.2073  0.4575  0.4124
 5653ntf    on528092   6.606   4.116   4.453  0.2788 -0.2695  0.3304
 5653ntf    fn428093   6.808   4.277   4.724  0.4114  0.1396 -0.4346
 5653ntf    fn428094   6.618   4.173   4.748 -0.1248  0.3554  0.4785
 5653ntf    fn428095   6.789   4.076   4.674 -0.7610 -0.4211 -0.2068
 5654ntf    cn128096   5.528   0.074   3.888  0.2382 -0.1056  0.2234
 5654ntf    sn228097   5.435  -0.046   3.789 -0.2007  0.2522  0.1990
 5654ntf    nn328098   5.499  -0.014   3.649 -0.1957 -0.2063  0.0931
 5654ntf    sn228099   5.426  -0.039   3.513 -0.2388 -0.0005  0.0776
 5654ntf    cn128100   5.504   0.101   3.429 -0.0531 -0.1009  0.0819
 5654ntf    fn428101   5.546   0.023   4.009  0.2739  0.3005  0.3917
 5654ntf    fn428102   5.647   0.098   3.837 -0.1824  0.2744 -0.5936
 5654ntf    fn428103   5.465   0.188   3.912  0.4195  0.1446 -0.4581
 5654ntf    on528104   5.480  -0.173   3.840 -0.0653 -0.0405 -0.6297
 5654ntf    on528105   5.296  -0.010   3.805 -0.3497  0.0438 -0.5669
 5654ntf    on528106   5.285  -0.007   3.509 -0.4431 -0.8459  0.1564
 5654ntf    on528107   5.467  -0.158   3.443 -0.6031 -0.2106  0.2165
 5654ntf    fn428108   5.459   0.114   3.305 -0.1501 -0.6195  0.0609
 5654ntf    fn428109   5.474   0.217   3.485  0.5998  0.0202  0.1840
 5654ntf    fn428110   5.636   0.097   3.425  0.0055  1.2262  0.1180
 5655ntf    cn128111   5.462   5.532   6.422  0.1973 -0.3062 -0.2702
 5655ntf    sn228112   5.289   5.570   6.381  0.3039  0.0453 -0.3953
 5655ntf    nn328113   5.271   5.472   6.260  0.4087 -0.3610 -0.0876
 5655ntf    sn228114   5.176   5.349   6.237  0.1721 -0.2156  0.0967
 5655ntf    cn128115   5.267   5.220   6.327  0.0460 -0.2309  0.2010
 5655ntf    fn428116   5.556   5.602   6.360  0.0732 -0.4917 -0.6671
 5655ntf    fn428117   5.501   5.528   6.549  0.0869  0.0481 -0.2256
 5655ntf    fn428118   5.482   5.409   6.376 -0.2811 -0.7232  0.5996
 5655ntf    on528119   5.212   5.538   6.499  0.3147  0.2417 -0.3350
 5655ntf    on528120   5.304   5.707   6.342 -0.3931  0.0918 -0.5092
 5655ntf    on528121   5.168   5.299   6.102  0.0246 -0.3264  0.1465
 5655ntf    on528122   5.048   5.352   6.302  0.6469 -0.5270  1.0746
 5655ntf    fn428123   5.197   5.107   6.323  0.0880 -0.2579  0.2386
 5655ntf    fn428124   5.388   5.181   6.290  0.1445  0.4153 -0.1690
 5655ntf    fn428125   5.276   5.233   6.459  0.6116  0.0761  0.1328
 5656ntf    cn128126   1.337   5.791   7.485 -0.1824 -0.1523  0.1915
 5656ntf    sn228127   1.416   5.673   7.372 -0.2422  0.1538 -0.1706
 5656ntf    nn328128   1.498   5.774   7.284  0.6123 -0.4544 -0.0889
 5656ntf    sn228129   1.490   5.805   7.130 -0.2419 -0.2241 -0.0064
 5656ntf    cn128130   1.664   5.781   7.084 -0.2167 -0.0278 -0.0126
 5656ntf    fn428131   1.431   5.846   7.560  0.1956 -0.0229 -0.3755
 5656ntf    fn428132   1.277   5.884   7.413 -0.9856 -0.8253 -0.0184
 5656ntf    fn428133   1.248   5.741   7.570  0.1063 -0.5047  0.2858
 5656ntf    on528134   1.494   5.601   7.469 -0.6383  0.1073  0.1163
 5656ntf    on528135   1.305   5.604   7.312  0.0679 -0.5745  0.0862
 5656ntf    on528136   1.472   5.945   7.102  0.6316 -0.2207 -0.6021
 5656ntf    on528137   1.410   5.713   7.052 -0.0568 -0.3581 -0.0394
 5656ntf    fn428138   1.724   5.676   7.138  0.4554  0.5485  0.3836
 5656ntf    fn428139   1.689   5.777   6.954 -0.0907  0.3111 -0.0003
 5656ntf    fn428140   1.736   5.886   7.120  0.0787 -0.2622  0.0882
 5657ntf    cn128141   5.880   2.795   4.318  0.0149  0.2576 -0.2191
 5657ntf    sn228142   5.724   2.846   4.240  0.0288  0.2504 -0.2509
 5657ntf    nn328143   5.774   2.842   4.092 -1.1700  1.8795 -0.7303
 5657ntf    sn228144   5.701   2.766   3.975 -0.3429 -0.1129  0.0018
 5657ntf    cn128145   5.782   2.603   3.981  0.8426  0.4569 -0.1052
 5657ntf    fn428146   5.864   2.789   4.449  0.1776  0.0599 -0.2075
 5657ntf    fn428147   5.923   2.674   4.286 -0.1893  0.0843  0.1621
 5657ntf    fn428148   5.977   2.880   4.286  0.2180  0.1413  0.0787
 5657ntf    on528149   5.629   2.745   4.282  0.7870 -0.6205 -0.6010
 5657ntf    on528150   5.705   2.984   4.278 -0.5735  0.2347 -0.4734
 5657ntf    on528151   5.744   2.816   3.847  0.3028  0.8746  0.5892
 5657ntf    on528152   5.561   2.733   3.984 -0.3324 -0.1392  0.0734
 5657ntf    fn428153   5.765   2.529   3.873  0.1636  0.3480  0.0691
 5657ntf    fn428154   5.912   2.601   4.005  0.7801  0.1903  0.2273
 5657ntf    fn428155   5.722   2.531   4.075 -0.1616  0.4604 -0.7302
 5658ntf    cn128156   7.375   6.866   5.123 -0.3359  0.5969 -0.0647
 5658ntf    sn228157   7.198   6.865   5.081 -0.3308  0.0395 -0.0770
 5658ntf    nn328158   7.138   6.733   5.141  0.1811 -0.0717  0.1982
 5658ntf    sn228159   7.050   6.728   5.270  0.5235  0.2186  0.4440
 5658ntf    cn128160   7.084   6.559   5.326  0.1273 -0.1069 -0.2905
 5658ntf    fn428161   7.392   6.948   5.225 -0.0834  0.3557  0.0889
 5658ntf    fn428162   7.413   6.747   5.166  0.0983  0.6646 -0.2554
 5658ntf    fn428163   7.455   6.909   5.027  0.5867  0.9546  0.8473
 5658ntf    on528164   7.150   6.991   5.129 -0.2145  0.0915 -0.0962
 5658ntf    on528165   7.209   6.853   4.937  0.1607  0.3719 -0.0709
 5658ntf    on528166   6.908   6.707   5.250  0.5301  0.3299  0.2818
 5658ntf    on528167   7.083   6.817   5.379 -0.0319  0.6858  0.2422
 5658ntf    fn428168   7.008   6.526   5.429  0.4721  0.1831  0.0629
 5658ntf    fn428169   7.058   6.466   5.235  0.0982 -0.5861  0.2002
 5658ntf    fn428170   7.210   6.532   5.358  0.1718  0.5369  0.0927
 5659ntf    cn128171   3.384   4.839   6.076 -0.4882  0.2447 -0.2820
 5659ntf    sn228172   3.302   4.688   6.016 -0.1273 -0.0901  0.0591
 5659ntf    nn328173   3.235   4.731   5.881 -0.0843 -0.0579  0.0479
 5659ntf    sn228174   3.219   4.651   5.747  0.0671 -0.1734  0.0987
 5659ntf    cn128175   3.044   4.604   5.753  0.0252 -0.0700 -0.3175
 5659ntf    fn428176   3.443   4.819   6.193  0.0877  0.3790 -0.5435
 5659ntf    fn428177   3.477   4.889   5.997 -0.1267 -0.4558 -0.3082
 5659ntf    fn428178   3.298   4.939   6.088 -0.4336  0.2807 -0.1843
 5659ntf    on528179   3.414   4.598   6.006  0.0806  0.0933  0.6774
 5659ntf    on528180   3.208   4.657   6.122  0.0186 -0.4062  0.0948
 5659ntf    on528181   3.297   4.530   5.737  0.1333 -0.0540 -0.8663
 5659ntf    on528182   3.225   4.730   5.627  0.2604 -0.3307  0.0042
 5659ntf    fn428183   3.004   4.534   5.857 -0.0607  0.2605 -0.1246
 5659ntf    fn428184   2.962   4.708   5.743 -0.1600 -0.1683  0.1440
 5659ntf    fn428185   3.022   4.531   5.645 -0.4186 -0.4291  0.0169
 5660ntf    cn128186   6.578   0.934   4.230 -0.0966 -0.0682 -0.2538
 5660ntf    sn228187   6.423   1.015   4.280  0.0755  0.1287 -0.0358
 5660ntf    nn328188   6.325   0.963   4.170  0.3033 -0.4480  0.0296
 5660ntf    sn228189   6.281   1.031   4.035  0.0237 -0.1492  0.2697
 5660ntf    cn128190   6.299   0.881   3.934 -0.0263  0.1214 -0.1418
 5660ntf    fn428191   6.614   0.978   4.110 -0.5195  1.2257  0.0785
 5660ntf    fn428192   6.680   0.959   4.310  0.0198 -0.5799 -0.2400
 5660ntf    fn428193   6.561   0.804   4.220  0.2368 -0.0948 -0.5044
 5660ntf    on528194   6.389   0.953   4.406  0.5700  0.6170  0.3484
 5660ntf    on528195   6.457   1.155   4.275 -0.6229  0.2681 -1.0659
 5660ntf    on528196   6.379   1.122   3.983 -0.4012 -0.2979 -0.8163
 5660ntf    on528197   6.141   1.063   4.022  0.1040  0.1393  0.1091
 5660ntf    fn428198   6.276   0.914   3.808 -0.9703  0.3252  0.0773
 5660ntf    fn428199   6.423   0.835   3.944  0.1441  0.7608  0.8787
 5660ntf    fn428200   6.228   0.779   3.979 -0.1096  0.3133  0.1619
 5661ntf    cn128201   5.273   0.450   4.940 -0.3768  0.1152  0.3418
 5661ntf    sn228202   5.181   0.294   4.957 -0.2804  0.0398  0.1735
 5661ntf    nn328203   5.058   0.341   5.042  0.1203  0.4066  0.5504
 5661ntf    sn228204   4.949   0.248   5.106  0.0642  0.2123  0.1753
 5661ntf    cn128205   4.816   0.265   4.984 -0.1025  0.1414  0.3460
 5661ntf    fn428206   5.376   0.419   4.864 -0.2990  0.6357  0.2351
 5661ntf    fn428207   5.205   0.544   4.877 -0.0624 -0.1596 -0.4285
 5661ntf    fn428208   5.318   0.492   5.057  0.5194 -0.3042  0.1584
 5661ntf    on528209   5.150   0.248   4.823  0.2079  0.3181 -0.0354
 5661ntf    on528210   5.268   0.207   5.030 -0.5994  0.3306  0.9060
 5661ntf    on528211   4.900   0.305   5.229 -0.2718 -0.1247  0.1991
 5661ntf    on528212   4.977   0.107   5.112  0.7479  0.3326 -0.1195
 5661ntf    fn428213   4.696   0.237   5.031 -0.0790 -0.1874  0.2153
 5661ntf    fn428214   4.811   0.387   4.934  0.0047  0.0571  0.1267
 5661ntf    fn428215   4.834   0.186   4.879  1.3130  0.4252  0.3585
 5662ntf    cn128216   4.211   0.336   5.216 -0.0564 -0.3725 -0.7297
 5662ntf    sn228217   4.144   0.473   5.117 -0.1194  0.1117 -0.0254
 5662ntf    nn328218   4.253   0.478   5.004 -0.1429 -0.0424 -0.0540
 5662ntf    sn228219   4.324   0.604   4.943  0.1160 -0.1194  0.0859
 5662ntf    cn128220   4.313   0.550   4.770 -0.0165  0.0852  0.0304
 5662ntf    fn428221   4.325   0.371   5.274  0.1877 -0.5363 -1.1023
 5662ntf    fn428222   4.121   0.316   5.311  0.3813 -0.3376 -0.3051
 5662ntf    fn428223   4.228   0.221   5.152  0.2550 -0.5743 -0.2861
 5662ntf    on528224   4.023   0.418   5.062 -0.0085 -0.2062  0.0500
 5662ntf    on528225   4.128   0.583   5.208  0.6653  0.3539 -0.1693
 5662ntf    on528226   4.460   0.615   4.988 -0.2676 -0.8894  1.4953
 5662ntf    on528227   4.242   0.723   4.945  0.6608  0.2521  0.4166
 5662ntf    fn428228   4.358   0.647   4.692 -0.0411 -0.2271 -0.3767
 5662ntf    fn428229   4.392   0.445   4.754 -0.1747 -0.0361  0.0435
 5662ntf    fn428230   4.188   0.517   4.744 -0.2572  0.5193  0.6202
 5663ntf    cn128231   0.923   5.696   2.361 -0.2524  0.1643  0.1442
 5663ntf    sn228232   0.818   5.642   2.499 -0.0248 -0.4060  0.0988
 5663ntf    nn328233   0.913   5.655   2.623 -0.0171  0.2015  0.0328
 5663ntf    sn228234   0.950   5.781   2.710  0.1248  0.0927  0.1312
 5663ntf    cn128235   0.824   5.763   2.839 -0.4378 -0.0618 -0.4333
 5663ntf    fn428236   0.916   5.828   2.353 -0.7957  0.1098 -0.3477
 5663ntf    fn428237   1.051   5.672   2.383 -0.4256 -0.7657  0.1678
 5663ntf    fn428238   0.895   5.648   2.241 -0.9367  0.0966  0.3246
 5663ntf    on528239   0.706   5.733   2.493  0.3263  0.0456  0.3423
 5663ntf    on528240   0.776   5.510   2.458 -0.4507 -0.2014 -0.1372
 5663ntf    on528241   0.917   5.903   2.641  0.7534  0.0150 -0.3105
 5663ntf    on528242   1.079   5.775   2.774  0.2069  0.1434 -0.0282
 5663ntf    fn428243   0.701   5.804   2.811 -0.3167  0.9526  0.4618
 5663ntf    fn428244   0.811   5.649   2.905  0.1969  0.0496 -0.1129
 5663ntf    fn428245   0.852   5.845   2.940 -0.2292 -0.1585 -0.4129
 5664ntf    cn128246   1.884   3.911   6.936 -0.2700  0.0364  0.0712
 5664ntf    sn228247   1.973   3.838   6.795  0.0195 -0.0852  0.3150
 5664ntf    nn328248   1.870   3.888   6.688 -0.4429 -0.4133  0.6039
 5664ntf    sn228249   1.824   3.808   6.561 -0.0265 -0.0991  0.2542
 5664ntf    cn128250   1.662   3.750   6.619 -0.2102  0.3909  0.2330
 5664ntf    fn428251   1.956   3.893   7.046  0.1543  0.6793 -0.0919
 5664ntf    fn428252   1.870   4.042   6.919  0.2157  0.1046  0.1573
 5664ntf    fn428253   1.761   3.866   6.949 -0.1231 -0.2953  0.3242
 5664ntf    on528254   2.102   3.900   6.781  0.0353 -0.2726 -0.3717
 5664ntf    on528255   1.963   3.696   6.816 -0.0793 -0.0484  0.5257
 5664ntf    on528256   1.898   3.689   6.527  0.3675 -0.0042  0.7520
 5664ntf    on528257   1.789   3.898   6.454 -0.5273  0.3254  0.7741
 5664ntf    fn428258   1.615   3.647   6.551  0.1346  0.0723  0.4745
 5664ntf    fn428259   1.666   3.712   6.746  0.3405 -0.3874 -0.0138
 5664ntf    fn428260   1.566   3.842   6.618 -0.4265  0.1621 -0.0775
 5665ntf    cn128261   4.432   4.656   5.378 -0.0593 -0.0184  0.0770
 5665ntf    sn228262   4.574   4.610   5.275  0.2011  0.3229  0.2807
 5665ntf    nn328263   4.528   4.468   5.227  0.6111  0.0570  0.6646
 5665ntf    sn228264   4.527   4.329   5.300 -0.3989 -0.2285  0.1219
 5665ntf    cn128265   4.670   4.249   5.222 -0.1060 -0.0510  0.4795
 5665ntf    fn428266   4.421   4.573   5.480 -0.0415 -0.1703 -0.0450
 5665ntf    fn428267   4.446   4.775   5.435  0.1380  0.3254 -0.6792
 5665ntf    fn428268   4.321   4.657   5.305  0.4322  0.7331 -0.6833
 5665ntf    on528269   4.572   4.695   5.158 -0.3508 -0.4777 -0.3030
 5665ntf    on528270   4.691   4.612   5.360  0.0917  0.6601  0.4239
 5665ntf    on528271   4.416   4.248   5.255 -0.7137  0.3876 -0.2217
 5665ntf    on528272   4.553   4.340   5.441 -0.6302  0.0958  0.1419
 5665ntf    fn428273   4.669   4.276   5.092  0.0480 -0.2562  0.4351
 5665ntf    fn428274   4.792   4.288   5.258 -0.1014  0.2300  0.1718
 5665ntf    fn428275   4.671   4.117   5.219  0.3271 -0.0474  0.2399
 5666ntf    cn128276   4.391   6.062   0.916 -0.2032  0.2521  0.2424
 5666ntf    sn228277   4.432   6.231   0.864 -0.2562  0.2140  0.0761
 5666ntf    nn328278   4.420   6.209   0.709  0.1262 -1.0463  0.2111
 5666ntf    sn228279   4.537   6.197   0.605  0.0611  0.0200  0.0024
 5666ntf    cn128280   4.435   6.249   0.464 -0.2413 -0.4456  0.0491
 5666ntf    fn428281   4.263   6.038   0.894  0.0017 -0.5135 -0.1518
 5666ntf    fn428282   4.460   5.976   0.843 -0.1244  0.1508  0.4341
 5666ntf    fn428283   4.416   6.026   1.041  0.1977 -0.3736 -0.0074
 5666ntf    on528284   4.328   6.318   0.913 -0.2242  0.0661  0.4074
 5666ntf    on528285   4.563   6.239   0.924 -0.3440 -0.2127  0.3289
 5666ntf    on528286   4.567   6.061   0.569 -0.6911 -0.2214  0.2729
 5666ntf    on528287   4.646   6.291   0.609 -0.3146  0.4489  0.2705
 5666ntf    fn428288   4.376   6.365   0.484 -0.0361 -0.3342  0.0066
 5666ntf    fn428289   4.505   6.254   0.351  0.0121 -0.1335  0.2208
 5666ntf    fn428290   4.329   6.171   0.445 -0.4116 -0.1224 -0.3396
 5667ntf    cn128291   1.992   2.004   5.573  0.1987  0.1631 -0.1298
 5667ntf    sn228292   2.038   2.007   5.749  0.3726 -0.0896 -0.1716
 5667ntf    nn328293   1.984   2.140   5.810  0.3559 -0.2944  0.2679
 5667ntf    sn228294   2.054   2.281   5.810  0.1016 -0.1652 -0.2556
 5667ntf    cn128295   2.141   2.257   5.967 -0.1386  0.0242 -0.0932
 5667ntf    fn428296   1.866   2.039   5.553  0.0790  0.0658  0.4326
 5667ntf    fn428297   2.060   2.098   5.509 -0.5329  0.6094 -0.2715
 5667ntf    fn428298   2.015   1.890   5.511  0.4370 -0.0086  0.2687
 5667ntf    on528299   1.971   1.892   5.805  0.0897  0.2129  0.1132
 5667ntf    on528300   2.182   2.003   5.753  0.3661 -0.1627 -0.0063
 5667ntf    on528301   1.971   2.397   5.833  0.6437  0.2434 -0.3411
 5667ntf    on528302   2.154   2.306   5.710  0.0446 -0.4685 -0.3906
 5667ntf    fn428303   2.056   2.239   6.067 -0.3810 -0.4217 -0.3772
 5667ntf    fn428304   2.223   2.154   5.969  0.0174  0.1501  0.2230
 5667ntf    fn428305   2.209   2.366   6.001 -0.1166 -0.0507  0.1031
 5668ntf    cn128306   2.020   6.323   0.883 -0.5224  0.0936 -0.1968
 5668ntf    sn228307   2.190   6.385   0.868 -0.4669 -0.1028 -0.3878
 5668ntf    nn328308   2.242   6.332   0.729 -0.0109 -0.0456 -0.2402
 5668ntf    sn228309   2.346   6.221   0.689  0.1909  0.1423 -0.2419
 5668ntf    cn128310   2.238   6.122   0.582 -0.0243 -0.0441  0.1442
 5668ntf    fn428311   1.944   6.331   0.774 -0.4121 -0.1067 -0.2895
 5668ntf    fn428312   2.017   6.195   0.915  0.0435  0.2286  0.4006
 5668ntf    fn428313   1.945   6.392   0.967 -0.3194 -0.3005  0.3122
 5668ntf    on528314   2.176   6.528   0.861 -0.3756 -0.0849 -0.2060
 5668ntf    on528315   2.253   6.345   0.991 -0.6456  0.5012 -0.0960
 5668ntf    on528316   2.383   6.121   0.786 -0.4194  0.0739 -0.0735
 5668ntf    on528317   2.445   6.273   0.599  0.3004  0.1269 -0.1302
 5668ntf    fn428318   2.200   6.191   0.476 -0.3093 -0.2079  0.1384
 5668ntf    fn428319   2.294   6.006   0.549  0.0751  0.0359  0.0314
 5668ntf    fn428320   2.128   6.088   0.647 -0.2498  0.6805  0.1466
 5669ntf    cn128321   5.185   2.658   2.503 -0.0738 -0.1089 -0.3030
 5669ntf    sn228322   5.168   2.479   2.479  0.1332 -0.1327 -0.2733
 5669ntf    nn328323   5.155   2.466   2.323  0.3193 -0.1272 -0.2895
 5669ntf    sn228324   5.028   2.468   2.231 -0.0857 -0.0329  0.2681
 5669ntf    cn128325   5.054   2.616   2.130  0.3656 -0.0015  0.4282
 5669ntf    fn428326   5.293   2.710   2.447 -0.3773  0.4397 -0.3831
 5669ntf    fn428327   5.076   2.721   2.462 -0.2086  0.0111  0.2355
 5669ntf    fn428328   5.197   2.697   2.628  0.0546 -0.5276 -0.1838
 5669ntf    on528329   5.298   2.440   2.529  0.3491  0.3590 -0.4450
 5669ntf    on528330   5.058   2.431   2.559  0.3716 -0.4820 -0.1503
 5669ntf    on528331   4.903   2.474   2.302 -0.0192  0.0424  0.3792
 5669ntf    on528332   5.046   2.362   2.134 -0.1360  0.3683 -0.1790
 5669ntf    fn428333   5.184   2.629   2.107  0.1843  0.4629 -0.3594
 5669ntf    fn428334   5.009   2.604   2.006  0.5817  0.6168  0.2819
 5669ntf    fn428335   5.001   2.720   2.192 -0.1157  0.0231 -0.0191
 5670ntf    cn128336   1.520   3.159   3.903  0.1969  0.2259  0.0195
 5670ntf    sn228337   1.488   3.072   3.747 -0.2894  0.0630  0.2069
 5670ntf    nn328338   1.456   3.194   3.653 -0.1403 -0.0574 -0.0009
 5670ntf    sn228339   1.540   3.271   3.545 -0.3112 -0.3711 -0.3543
 5670ntf    cn128340   1.478   3.441   3.555 -0.0681 -0.3230  0.3578
 5670ntf    fn428341   1.621   3.244   3.905  0.1750  0.2526 -0.0165
 5670ntf    fn428342   1.423   3.243   3.936  0.1863  0.0707  0.3919
 5670ntf    fn428343   1.530   3.074   4.004  0.5171 -0.0756 -0.2666
 5670ntf    on528344   1.604   2.992   3.716  0.1391  0.7446  0.0144
 5670ntf    on528345   1.369   3.000   3.784 -0.0599 -0.3725  0.0983
 5670ntf    on528346   1.497   3.227   3.414  0.8423 -0.5031 -0.6962
 5670ntf    on528347   1.682   3.272   3.570 -0.4225  0.2377  0.2588
 5670ntf    fn428348   1.475   3.503   3.672 -0.0682  0.4178 -0.0240
 5670ntf    fn428349   1.547   3.522   3.475 -0.3210 -0.1196  0.3438
 5670ntf    fn428350   1.353   3.452   3.513  0.0975  0.5612  0.0653
 5671ntf    cn128351   0.215   0.676   7.521  0.3526  0.0077  0.0626
 5671ntf    sn228352   0.376   0.703   7.602  0.0648  0.3916  0.5077
 5671ntf    nn328353   0.481   0.638   7.505  0.5427  0.4246  1.0003
 5671ntf    sn228354   0.629   0.687   7.488  0.5985  0.0872  0.4888
 5671ntf    cn128355   0.603   0.818   7.365 -0.0166 -0.0993  0.4163
 5671ntf    fn428356   0.227   0.710   7.394 -0.3522  0.2009  0.0444
 5671ntf    fn428357   0.177   0.549   7.528 -0.0363  0.1183 -0.0355
 5671ntf    fn428358   0.113   0.743   7.572  0.3822  0.0441  0.0737
 5671ntf    on528359   0.366   0.846   7.619  0.4139  0.4939 -0.1227
 5671ntf    on528360   0.375   0.631   7.727 -0.1819  0.2966  0.4517
 5671ntf    on528361   0.715   0.589   7.427 -0.1334 -0.1295 -0.2117
 5671ntf    on528362   0.684   0.764   7.597  0.8469 -0.1521  0.5329
 5671ntf    fn428363   0.539   0.924   7.411 -0.3232  0.0529 -0.3350
 5671ntf    fn428364   0.717   0.876   7.331 -0.3158 -0.0404 -0.5092
 5671ntf    fn428365   0.551   0.774   7.251 -0.4197 -0.1496  0.6186
 5672ntf    cn128366   6.279   3.297   4.747 -0.2742  0.0615 -0.1027
 5672ntf    sn228367   6.279   3.472   4.797 -0.0114 -0.0179  0.1770
 5672ntf    nn328368   6.162   3.533   4.711  0.1257  0.2309  0.1653
 5672ntf    sn228369   6.023   3.592   4.752  0.1786  0.2265  0.3494
 5672ntf    cn128370   6.075   3.751   4.824  0.3981  0.1889  0.2754
 5672ntf    fn428371   6.152   3.259   4.741 -0.3383  0.2335  0.1377
 5672ntf    fn428372   6.323   3.285   4.623 -0.0439 -0.0606 -0.0079
 5672ntf    fn428373   6.344   3.215   4.826  0.4059  0.5153 -0.1813
 5672ntf    on528374   6.263   3.465   4.940 -0.9406 -0.2546  0.0668
 5672ntf    on528375   6.407   3.511   4.744 -0.1588  0.1951 -0.0286
 5672ntf    on528376   5.958   3.518   4.857 -1.2825  0.4079 -0.4027
 5672ntf    on528377   5.945   3.629   4.637  0.0243  0.4118  0.5137
 5672ntf    fn428378   6.098   3.752   4.955 -0.5922  0.0124  0.4595
 5672ntf    fn428379   6.185   3.796   4.765  0.1445  0.0759 -0.2893
 5672ntf    fn428380   5.975   3.836   4.809 -0.1090 -0.4471 -0.0255
 5673ntf    cn128381   2.066   2.391   6.958 -0.2252  0.5029 -0.0533
 5673ntf    sn228382   2.046   2.323   6.791  0.1056  0.2044  0.0275
 5673ntf    nn328383   2.090   2.449   6.709 -0.1005  0.3469  0.1343
 5673ntf    sn228384   2.016   2.574   6.649 -0.1666  0.0660 -0.3778
 5673ntf    cn128385   2.010   2.510   6.479 -0.1437  0.2016 -0.4292
 5673ntf    fn428386   1.972   2.356   7.043 -0.2351 -0.5550 -0.4904
 5673ntf    fn428387   2.183   2.354   7.009 -0.4204  0.0730  0.0795
 5673ntf    fn428388   2.070   2.524   6.961 -0.3923  0.5014  0.3054
 5673ntf    on528389   2.143   2.216   6.784 -0.6724 -0.4745 -0.5641
 5673ntf    on528390   1.909   2.279   6.791  0.1748 -0.0245 -0.5083
 5673ntf    on528391   2.100   2.691   6.643 -0.2856  0.1526 -0.3492
 5673ntf    on528392   1.874   2.591   6.670 -0.1920 -0.8049  0.2264
 5673ntf    fn428393   2.123   2.478   6.419 -0.0150 -0.0344 -0.0616
 5673ntf    fn428394   1.929   2.406   6.469 -0.2078  0.0894  1.1223
 5673ntf    fn428395   1.961   2.605   6.400 -0.3056  0.3021 -0.2096
 5674ntf    cn128396   0.900   5.013   3.312  0.3894  0.0100 -0.5024
 5674ntf    sn228397   0.910   5.076   3.482  0.0697 -0.2188 -0.3983
 5674ntf    nn328398   0.903   5.230   3.451  0.4780 -0.2104 -0.4463
 5674ntf    sn228399   0.938   5.344   3.553  0.0223 -0.0252 -0.4922
 5674ntf    cn128400   0.769   5.367   3.614  0.0480 -0.0556 -0.4078
 5674ntf    fn428401   1.002   5.054   3.239  0.2254  0.2589 -0.5919
 5674ntf    fn428402   0.918   4.881   3.311 -0.0715 -0.0581  0.0389
 5674ntf    fn428403   0.784   5.039   3.255  0.1212 -0.2159 -0.0620
 5674ntf    on528404   0.786   5.027   3.537  0.4511 -0.6738  0.0629
 5674ntf    on528405   1.037   5.028   3.529  0.0090 -0.1565 -0.1680
 5674ntf    on528406   0.965   5.474   3.497 -0.1210  0.5278  0.6875
 5674ntf    on528407   1.002   5.302   3.676 -0.5063  0.1240 -0.1635
 5674ntf    fn428408   0.678   5.375   3.518 -0.1914 -0.0595 -0.1838
 5674ntf    fn428409   0.735   5.277   3.704  0.5121 -0.0112 -0.1874
 5674ntf    fn428410   0.770   5.484   3.676  0.3822 -0.4004  0.2374
 5675ntf    cn128411   4.069   0.914   3.677  0.3734 -0.2247 -0.1520
 5675ntf    sn228412   4.205   1.035   3.684  0.2525 -0.0943 -0.0342
 5675ntf    nn328413   4.310   0.974   3.585  0.3229  0.7569 -0.4881
 5675ntf    sn228414   4.442   0.889   3.600 -0.0593  0.2699  0.1577
 5675ntf    cn128415   4.434   0.774   3.459  0.1129  0.0543  0.3236
 5675ntf    fn428416   3.962   0.960   3.741  0.1767  0.1026 -0.7128
 5675ntf    fn428417   4.030   0.883   3.555 -0.6501 -0.1275  0.1351
 5675ntf    fn428418   4.107   0.803   3.739  0.4428 -0.0068  0.1996
 5675ntf    on528419   4.145   1.152   3.625 -0.3235 -0.0627  0.5991
 5675ntf    on528420   4.239   1.041   3.824  0.3298 -0.5023 -0.0339
 5675ntf    on528421   4.452   0.799   3.712 -0.5831  0.4487  0.3515
 5675ntf    on528422   4.559   0.962   3.560  0.2925 -0.2605  0.2077
 5675ntf    fn428423   4.549   0.714   3.435  0.3572  0.7707 -0.3136
 5675ntf    fn428424   4.344   0.678   3.475  0.1231  0.0564  0.3962
 5675ntf    fn428425   4.401   0.834   3.346  0.8639  0.0733  0.1123
 5676ntf    cn128426   4.700   1.811   4.811  0.0195  0.2735  0.2103
 5676ntf    sn228427   4.580   1.759   4.685  0.1316  0.0122  0.2103
 5676ntf    nn328428   4.523   1.629   4.752 -0.4821 -0.0518 -0.4227
 5676ntf    sn228429   4.514   1.484   4.694  0.1718 -0.2329 -0.0743
 5676ntf    cn128430   4.375   1.510   4.581  0.0055  0.1291  0.2135
 5676ntf    fn428431   4.656   1.841   4.932  0.5688  0.0837  0.4602
 5676ntf    fn428432   4.788   1.714   4.827 -0.3115 -0.0900 -0.1676
 5676ntf    fn428433   4.768   1.914   4.763  0.1213 -0.2359 -0.7615
 5676ntf    on528434   4.478   1.861   4.680  0.0965 -0.0238  0.1955
 5676ntf    on528435   4.657   1.735   4.565  0.5656 -0.1169  0.5148
 5676ntf    on528436   4.467   1.394   4.797 -0.2160 -0.1368 -0.1676
 5676ntf    on528437   4.625   1.436   4.615  0.2078  0.3497 -0.3795
 5676ntf    fn428438   4.401   1.570   4.466 -0.0514 -0.7009 -0.2431
 5676ntf    fn428439   4.330   1.395   4.534  0.7814  0.1860 -0.7065
 5676ntf    fn428440   4.265   1.568   4.628  0.0821  0.1554  0.3584
 5677ntf    cn128441   1.798   3.523   1.014  0.2826 -0.1612  0.1631
 5677ntf    sn228442   1.758   3.510   1.190  0.2244  0.4234  0.1950
 5677ntf    nn328443   1.902   3.506   1.254  0.3224 -0.2162 -0.0505
 5677ntf    sn228444   2.009   3.617   1.286  0.0183  0.0781 -0.0463
 5677ntf    cn128445   1.954   3.644   1.457 -0.0346 -0.5275  0.0334
 5677ntf    fn428446   1.697   3.528   0.928  0.2142 -0.2759  0.2374
 5677ntf    fn428447   1.869   3.630   0.983 -0.1584 -0.0679 -0.5503
 5677ntf    fn428448   1.881   3.427   0.974  0.6979  0.1662  0.2353
 5677ntf    on528449   1.687   3.632   1.219  0.3325  0.4954  0.1577
 5677ntf    on528450   1.690   3.384   1.203  0.1774  0.4396  0.1034
 5677ntf    on528451   1.989   3.747   1.226 -0.1326  0.4389  0.7701
 5677ntf    on528452   2.145   3.578   1.308  0.0665 -0.0947 -0.6286
 5677ntf    fn428453   1.825   3.671   1.472  0.0115 -0.0649 -0.3954
 5677ntf    fn428454   1.977   3.532   1.524  0.5411 -0.3095  0.2049
 5677ntf    fn428455   2.027   3.739   1.513 -0.6858 -0.0951  0.1485
 5678ntf    cn128456   0.819   0.389   4.592  0.0277  0.0555 -0.2769
 5678ntf    sn228457   0.699   0.519   4.635  0.1107 -0.0611  0.3136
 5678ntf    nn328458   0.661   0.579   4.495  0.3594 -0.1733  0.1972
 5678ntf    sn228459   0.683   0.730   4.461  0.0099 -0.1381  0.1222
 5678ntf    cn128460   0.843   0.713   4.377  0.0605  0.0206  0.1855
 5678ntf    fn428461   0.934   0.449   4.562  0.0040 -0.0726 -0.6237
 5678ntf    fn428462   0.838   0.306   4.693  0.2692  0.5761  0.1150
 5678ntf    fn428463   0.784   0.313   4.490 -0.2147 -0.4590  0.1854
 5678ntf    on528464   0.590   0.441   4.689  0.2529 -0.5294 -0.0660
 5678ntf    on528465   0.767   0.604   4.730  0.2605  0.1866 -0.0132
 5678ntf    on528466   0.711   0.827   4.565 -0.1482 -0.6030  0.5995
 5678ntf    on528467   0.586   0.769   4.362 -0.1036  0.3035  0.4040
 5678ntf    fn428468   0.823   0.659   4.258 -0.3214 -0.0003  0.2589
 5678ntf    fn428469   0.906   0.828   4.356  0.2507 -0.0176  0.5439
 5678ntf    fn428470   0.927   0.636   4.444  0.4826  0.0195 -0.3271
 5679ntf    cn128471   0.408   6.904   2.008 -0.0586 -0.6989 -0.3622
 5679ntf    sn228472   0.475   6.887   2.176 -0.2126  0.0916 -0.2173
 5679ntf    nn328473   0.620   6.929   2.132 -0.0073 -0.1123  0.2487
 5679ntf    sn228474   0.739   6.832   2.101 -0.0800 -0.1181 -0.0169
 5679ntf    cn128475   0.851   6.953   2.024 -0.3898  0.1344 -0.0700
 5679ntf    fn428476   0.460   6.823   1.917  0.6794 -0.1600 -0.4243
 5679ntf    fn428477   0.277   6.919   1.995  0.0615  0.2606 -0.5290
 5679ntf    fn428478   0.450   7.024   1.974 -0.4153 -0.3335  0.4490
 5679ntf    on528479   0.403   6.983   2.256  0.0706  0.2019 -0.0926
 5679ntf    on528480   0.461   6.745   2.200 -0.0792  0.0198 -0.5604
 5679ntf    on528481   0.716   6.743   1.990  0.3119 -0.1184 -0.1012
 5679ntf    on528482   0.803   6.770   2.214 -0.0469  0.0733  0.0687
 5679ntf    fn428483   0.838   7.070   2.084 -0.6847 -0.1142  0.3578
 5679ntf    fn428484   0.976   6.913   2.012 -0.4836  0.0779 -0.8721
 5679ntf    fn428485   0.813   6.985   1.901  0.7523  0.8500 -0.2500
 5680ntf    cn128486   7.074   6.232   4.882  0.3015  0.1125  0.1970
 5680ntf    sn228487   7.158   6.095   4.797 -0.2755  0.0510 -0.2803
 5680ntf    nn328488   7.124   6.153   4.655 -0.2072  0.4955 -0.1174
 5680ntf    sn228489   7.062   6.073   4.535 -0.0292  0.0276  0.0999
 5680ntf    cn128490   6.896   6.146   4.541 -0.0676 -0.0673  0.1766
 5680ntf    fn428491   7.126   6.252   5.003  0.2418  0.3631  0.1804
 5680ntf    fn428492   7.068   6.346   4.816 -0.1686  0.3731  0.6814
 5680ntf    fn428493   6.947   6.202   4.906  0.3137  0.2575  0.4559
 5680ntf    on528494   7.295   6.119   4.837 -0.3853  0.0109  0.1181
 5680ntf    on528495   7.104   5.967   4.837  0.2097 -0.1421 -0.2352
 5680ntf    on528496   7.045   5.930   4.535 -0.2851  0.0562 -0.6707
 5680ntf    on528497   7.101   6.141   4.413  0.0168  0.5315  0.3918
 5680ntf    fn428498   6.895   6.278   4.536 -0.4690 -0.0823 -0.2573
 5680ntf    fn428499   6.821   6.107   4.439  0.0720  0.2357 -0.0429
 5680ntf    fn428500   6.827   6.111   4.648  0.4466 -1.0851  0.1893
 5681ntf    cn128501   6.955   4.336   5.979 -0.0283  0.2132 -0.1782
 5681ntf    sn228502   6.961   4.313   5.799  0.0422  0.1205 -0.1644
 5681ntf    nn328503   6.825   4.237   5.779 -0.0769  0.1109  0.6662
 5681ntf    sn228504   6.683   4.294   5.743  0.0704 -0.2644 -0.5619
 5681ntf    cn128505   6.582   4.170   5.830 -0.0333  0.0753 -0.1921
 5681ntf    fn428506   6.949   4.225   6.051  0.5034 -0.1778 -0.7261
 5681ntf    fn428507   7.064   4.400   6.018 -0.2529  0.6435 -0.2498
 5681ntf    fn428508   6.857   4.414   6.022 -0.1417  0.1240 -0.2736
 5681ntf    on528509   6.967   4.445   5.740  0.1275  0.1430 -0.1045
 5681ntf    on528510   7.075   4.227   5.783 -0.0939 -0.0454 -0.2479
 5681ntf    on528511   6.649   4.286   5.604  0.5811  0.8476 -0.7556
 5681ntf    on528512   6.646   4.413   5.815 -0.5773 -0.6287 -0.2837
 5681ntf    fn428513   6.453   4.199   5.824 -0.0708  0.0265  0.3463
 5681ntf    fn428514   6.608   4.053   5.772 -0.0616 -0.2750  0.4966
 5681ntf    fn428515   6.602   4.154   5.960 -0.3960  0.1463 -0.1264
 5682ntf    cn128516   3.528   4.731   4.079  0.1130 -0.0997  0.1382
 5682ntf    sn228517   3.546   4.636   4.233 -0.1030 -0.1552  0.1304
 5682ntf    nn328518   3.650   4.530   4.180  0.0224 -0.1153  0.2976
 5682ntf    sn228519   3.806   4.549   4.175 -0.0136  0.1371  0.0894
 5682ntf    cn128520   3.846   4.463   4.330  0.3455  0.1287 -0.0083
 5682ntf    fn428521   3.460   4.843   4.099 -0.9742 -0.6864 -0.1387
 5682ntf    fn428522   3.648   4.771   4.042  0.0443 -0.1386 -0.1333
 5682ntf    fn428523   3.471   4.672   3.975  0.3107  0.5464 -0.3468
 5682ntf    on528524   3.597   4.719   4.339  0.5644 -0.4298  0.0303
 5682ntf    on528525   3.416   4.578   4.256 -0.4401  0.3932 -0.3566
 5682ntf    on528526   3.859   4.683   4.187  0.5305 -0.1233  0.6707
 5682ntf    on528527   3.859   4.469   4.068  0.0491  0.5343 -0.1785
 5682ntf    fn428528   3.978   4.453   4.332  0.4070  0.9067 -0.1631
 5682ntf    fn428529   3.794   4.522   4.436 -0.3974 -0.2467 -0.1515
 5682ntf    fn428530   3.810   4.336   4.345 -0.5327  0.3637 -0.0843
 5683ntf    cn128531   7.441   0.389   5.925 -0.5238 -0.0897  0.1250
 5683ntf    sn228532   7.591   0.455   5.847 -0.2465  0.0253  0.7456
 5683ntf    nn328533   7.555   0.602   5.804 -0.1282 -0.2459 -0.3295
 5683ntf    sn228534   7.534   0.661   5.661  0.1683  0.1025 -0.2292
 5683ntf    cn128535   7.682   0.766   5.656  0.2761 -0.0375  0.0232
 5683ntf    fn428536   7.441   0.258   5.943  0.1164 -0.1379 -0.2143
 5683ntf    fn428537   7.427   0.441   6.046  0.1053 -0.2357  0.2662
 5683ntf    fn428538   7.329   0.411   5.859 -0.4786  0.5897  0.2646
 5683ntf    on528539   7.690   0.456   5.952  0.3219 -0.6286  0.2249
 5683ntf    on528540   7.613   0.354   5.746  0.3559  0.0794  0.8158
 5683ntf    on528541   7.424   0.754   5.647  0.1366  0.1306  0.1937
 5683ntf    on528542   7.557   0.571   5.551  0.4948  0.1041 -0.1635
 5683ntf    fn428543   7.668   0.830   5.541  0.4237 -0.2405 -0.1071
 5683ntf    fn428544   7.705   0.847   5.758  0.5966  0.0252 -0.0953
 5683ntf    fn428545   7.790   0.690   5.644  0.6285  0.4429  0.0896
 5684ntf    cn128546   2.195   5.610   4.966 -0.0007 -0.3425  0.3319
 5684ntf    sn228547   2.121   5.774   4.937 -0.0602 -0.3841  0.2521
 5684ntf    nn328548   2.251   5.859   4.919 -0.0840 -0.4549 -0.2639
 5684ntf    sn228549   2.277   5.985   5.009  0.0235 -0.5383 -0.1795
 5684ntf    cn128550   2.147   6.093   4.943  0.2373 -0.2154 -0.0761
 5684ntf    fn428551   2.260   5.561   4.862  0.6357  0.0499  0.5413
 5684ntf    fn428552   2.287   5.617   5.060  0.2088  0.8569  0.0527
 5684ntf    fn428553   2.103   5.519   4.997 -0.1087 -0.3844 -0.1085
 5684ntf    on528554   2.040   5.765   4.818  0.0123  0.4937  0.1336
 5684ntf    on528555   2.049   5.799   5.059  0.0704  0.6981  0.1092
 5684ntf    on528556   2.400   6.048   4.968 -0.2585  0.0264 -0.1643
 5684ntf    on528557   2.253   5.968   5.150 -0.1799 -0.2485 -0.1793
 5684ntf    fn428558   2.139   6.097   4.811 -0.1981 -0.3443 -0.0535
 5684ntf    fn428559   2.028   6.065   4.994 -0.0140  0.2353 -0.4086
 5684ntf    fn428560   2.175   6.217   4.979 -0.3685 -0.0008 -0.3322
 5685ntf    cn128561   1.420   2.016   2.973  0.0163 -0.1373 -0.2380
 5685ntf    sn228562   1.473   2.077   3.136  0.2616 -0.1459 -0.3148
 5685ntf    nn328563   1.348   2.049   3.227  0.3148  0.3161 -0.0960
 5685ntf    sn228564   1.326   1.923   3.319 -0.0702  0.3359 -0.1615
 5685ntf    cn128565   1.418   1.973   3.467 -0.3976  0.1276  0.1143
 5685ntf    fn428566   1.512   2.008   2.879  0.8321 -0.0873  0.5482
 5685ntf    fn428567   1.386   1.889   2.993 -0.2132 -0.0091  0.2110
 5685ntf    fn428568   1.316   2.075   2.917  0.0938  0.3667  0.1408
 5685ntf    on528569   1.593   1.998   3.152  0.4522  0.1759 -0.1418
 5685ntf    on528570   1.488   2.219   3.118  0.3768 -0.1152  0.0159
 5685ntf    on528571   1.390   1.808   3.260  0.5387  0.7947 -0.4100
 5685ntf    on528572   1.193   1.905   3.372  0.4810 -0.5321  0.9747
 5685ntf    fn428573   1.544   1.996   3.434 -0.5224  0.1069 -0.3866
 5685ntf    fn428574   1.371   2.088   3.514 -0.3475  0.1791  0.0400
 5685ntf    fn428575   1.413   1.883   3.564  0.1923  0.4666  0.4647
 5686ntf    cn128576   0.208   2.209   2.127  0.4688 -0.3100  0.0411
 5686ntf    sn228577   0.161   2.383   2.108 -0.1005 -0.4309  0.3143
 5686ntf    nn328578   0.011   2.382   2.154 -0.2576  0.5132 -0.1452
 5686ntf    sn228579  -0.094   2.494   2.184 -0.4822  0.2954 -0.1220
 5686ntf    cn128580  -0.178   2.507   2.023  0.2037 -0.0346 -0.5084
 5686ntf    fn428581   0.190   2.165   2.250  0.6289  0.7417  0.4435
 5686ntf    fn428582   0.132   2.126   2.057 -0.3317  0.0842  0.4311
 5686ntf    fn428583   0.335   2.192   2.094  0.5502  0.5968 -0.1392
 5686ntf    on528584   0.248   2.451   2.201 -0.1430 -0.4117  0.3400
 5686ntf    on528585   0.179   2.413   1.968  0.6750 -1.2461  0.2316
 5686ntf    on528586  -0.040   2.626   2.209 -0.2050  0.1546  0.0225
 5686ntf    on528587  -0.189   2.452   2.284 -0.2749 -0.1980 -0.1327
 5686ntf    fn428588  -0.105   2.584   1.944  0.2531  0.4654  0.0161
 5686ntf    fn428589  -0.198   2.391   1.963 -0.3353 -0.2193  0.0205
 5686ntf    fn428590  -0.292   2.573   2.034  0.2872  0.0739 -0.2948
 5687ntf    cn128591   4.243   0.291   1.397 -0.1817  0.1021 -0.0027
 5687ntf    sn228592   4.195   0.304   1.222  0.1262 -0.0100 -0.0967
 5687ntf    nn328593   4.048   0.251   1.234  0.1795 -0.1955 -0.2650
 5687ntf    sn228594   3.915   0.331   1.262  0.4308  0.1440 -0.0376
 5687ntf    cn128595   3.839   0.237   1.398  0.0473 -0.1546 -0.4541
 5687ntf    fn428596   4.226   0.168   1.441 -0.1394  0.0787 -0.0512
 5687ntf    fn428597   4.372   0.322   1.404 -0.1092 -0.2745  0.3225
 5687ntf    fn428598   4.183   0.366   1.487 -0.4243  0.3860 -0.3960
 5687ntf    on528599   4.212   0.444   1.191  0.4323  0.0735  0.4420
 5687ntf    on528600   4.287   0.213   1.157 -0.0878  0.2302 -0.7466
 5687ntf    on528601   3.817   0.318   1.156  0.7381 -0.2990 -0.2744
 5687ntf    on528602   3.930   0.467   1.307  0.3953  0.1721 -0.1105
 5687ntf    fn428603   3.898   0.254   1.515  0.1489  0.3061 -0.5677
 5687ntf    fn428604   3.714   0.274   1.419  0.4965  1.0872  0.1475
 5687ntf    fn428605   3.838   0.106   1.378 -0.1909 -0.1783 -0.2893
 5688ntf    cn128606   3.711   3.992   3.352 -0.0203  0.1614 -0.2377
 5688ntf    sn228607   3.828   3.958   3.216  0.0835 -0.3174 -0.0313
 5688ntf    nn328608   3.952   4.041   3.265 -0.0656 -0.2432  0.2246
 5688ntf    sn228609   4.085   3.994   3.333  0.3590  0.1481 -0.3277
 5688ntf    cn128610   4.211   3.996   3.202  0.1506 -0.0984 -0.5308
 5688ntf    fn428611   3.668   4.117   3.354 -0.2856  0.0576  0.7325
 5688ntf    fn428612   3.605   3.916   3.326  0.0637 -0.0258 -0.0354
 5688ntf    fn428613   3.761   3.974   3.473 -0.1045 -0.1607 -0.2485
 5688ntf    on528614   3.852   3.816   3.206  0.1704 -0.2954 -0.1313
 5688ntf    on528615   3.756   4.016   3.106 -0.4588 -0.0112  0.4732
 5688ntf    on528616   4.085   3.863   3.393 -0.1865  0.2257 -0.1545
 5688ntf    on528617   4.133   4.106   3.411  0.0271  0.1355 -0.1052
 5688ntf    fn428618   4.234   4.116   3.153  0.6756  0.0233  0.0046
 5688ntf    fn428619   4.327   3.944   3.239 -0.0647  0.2178  0.6128
 5688ntf    fn428620   4.166   3.923   3.101  0.1761 -0.4094 -0.3212
 5689ntf    cn128621   2.842   1.053   2.436 -0.0112 -0.3133 -0.6685
 5689ntf    sn228622   2.745   1.074   2.589 -0.0698 -0.2115 -0.7195
 5689ntf    nn328623   2.733   1.231   2.584 -0.0204 -0.1935 -0.3458
 5689ntf    sn228624   2.770   1.336   2.694  0.2868 -0.2528 -0.3912
 5689ntf    cn128625   2.703   1.266   2.848  0.1246  0.0323 -0.3309
 5689ntf    fn428626   2.880   0.929   2.413 -0.5939 -0.6820  0.2513
 5689ntf    fn428627   2.773   1.089   2.329 -0.5382  0.4967 -0.0731
 5689ntf    fn428628   2.952   1.126   2.443 -0.2150 -0.0684  0.1848
 5689ntf    on528629   2.616   1.018   2.557 -0.3771  0.3107 -0.4206
 5689ntf    on528630   2.825   1.010   2.690 -0.6089 -0.2202 -0.2962
 5689ntf    on528631   2.695   1.457   2.672 -0.3609 -0.5200  0.2940
 5689ntf    on528632   2.914   1.345   2.705  0.1974 -0.3006  1.0235
 5689ntf    fn428633   2.587   1.205   2.831  0.1841 -0.0747 -0.3533
 5689ntf    fn428634   2.791   1.181   2.898 -0.0065  0.0555 -0.0617
 5689ntf    fn428635   2.675   1.361   2.936 -0.0222  0.1282 -0.4795
 5690ntf    cn128636   4.262   0.368   5.967  0.4816  0.2324 -0.2004
 5690ntf    sn228637   4.212   0.537   6.012 -0.2984 -0.0686  0.0932
 5690ntf    nn328638   4.066   0.500   6.057 -0.2386 -0.4187  0.0021
 5690ntf    sn228639   3.958   0.571   6.146 -0.0066 -0.1465  0.0677
 5690ntf    cn128640   3.817   0.490   6.066 -0.1028 -0.0837  0.1743
 5690ntf    fn428641   4.206   0.331   5.853  0.2409  1.1020 -0.3725
 5690ntf    fn428642   4.392   0.357   5.948  0.5074  0.0243  0.0896
 5690ntf    fn428643   4.225   0.277   6.056 -0.1542  0.4089 -0.2760
 5690ntf    on528644   4.304   0.582   6.114  0.0270  0.9682 -0.6417
 5690ntf    on528645   4.223   0.603   5.885 -0.0881  0.3932  0.3484
 5690ntf    on528646   3.944   0.714   6.129  0.4783 -0.1289 -0.2301
 5690ntf    on528647   3.941   0.518   6.279  0.0252  0.1868  0.2047
 5690ntf    fn428648   3.798   0.525   5.940 -0.4153 -0.7046  0.0405
 5690ntf    fn428649   3.826   0.358   6.065 -0.5766 -0.1170 -0.1622
 5690ntf    fn428650   3.702   0.513   6.128  0.0042  0.0028  0.3393
 5691ntf    cn128651   2.280   0.976   1.270 -0.0236 -0.0403  0.0229
 5691ntf    sn228652   2.415   1.096   1.250 -0.1589  0.1207  0.0776
 5691ntf    nn328653   2.336   1.228   1.282 -0.3327 -0.1617  0.8558
 5691ntf    sn228654   2.379   1.350   1.371  0.5577  0.0840  0.1006
 5691ntf    cn128655   2.277   1.468   1.277  0.2182 -0.3189 -0.0397
 5691ntf    fn428656   2.221   0.981   1.389 -0.3063  0.2440 -0.1292
 5691ntf    fn428657   2.182   1.001   1.185 -0.0643  0.0957  0.1100
 5691ntf    fn428658   2.321   0.851   1.255  0.0269 -0.0896  0.5520
 5691ntf    on528659   2.495   1.047   1.360 -0.1870 -0.1423 -0.0193
 5691ntf    on528660   2.466   1.084   1.116  0.4077  0.0174  0.2991
 5691ntf    on528661   2.510   1.408   1.355  0.6953 -0.3164 -0.2563
 5691ntf    on528662   2.323   1.342   1.503 -0.2306  0.1964 -0.2212
 5691ntf    fn428663   2.151   1.435   1.303  0.0137  0.0228 -0.5997
 5691ntf    fn428664   2.285   1.592   1.321  0.0152 -0.2212 -0.2782
 5691ntf    fn428665   2.305   1.479   1.148 -0.3580  0.8904 -0.0658
 5692ntf    cn128666   1.623   6.599   0.001  0.3434  0.4500 -0.2380
 5692ntf    sn228667   1.682   6.473  -0.115 -0.0454  0.2021 -0.1680
 5692ntf    nn328668   1.624   6.336  -0.066  0.1637  0.2825  0.3097
 5692ntf    sn228669   1.698   6.210  -0.010  0.1087  0.1743  0.1400
 5692ntf    cn128670   1.577   6.079  -0.045  0.4205  0.0389 -0.4598
 5692ntf    fn428671   1.625   6.724  -0.044 -0.0019  0.1935 -0.9791
 5692ntf    fn428672   1.494   6.580   0.027  0.5613  0.0141  0.5597
 5692ntf    fn428673   1.693   6.611   0.113  0.7036  0.2528 -0.4421
 5692ntf    on528674   1.617   6.515  -0.237  0.4677  0.3256 -0.4029
 5692ntf    on528675   1.825   6.483  -0.106 -0.0613 -0.3055  0.6780
 5692ntf    on528676   1.711   6.192   0.132  0.0933 -0.2994  0.0858
 5692ntf    on528677   1.809   6.165  -0.091 -0.1059 -0.4483  0.1857
 5692ntf    fn428678   1.525   6.085  -0.166 -0.0400 -0.0193 -0.2670
 5692ntf    fn428679   1.631   5.960  -0.028  0.3997  0.0737 -0.1378
 5692ntf    fn428680   1.465   6.088   0.026  0.2472 -0.0078 -0.7263
 5693ntf    cn128681   2.629   5.379   4.738  1.1086 -0.1612 -0.4141
 5693ntf    sn228682   2.641   5.208   4.677 -0.2126 -0.3940 -0.0544
 5693ntf    nn328683   2.719   5.234   4.543 -0.3045  0.1188 -0.0123
 5693ntf    sn228684   2.716   5.158   4.406 -0.2745  0.0410  0.0294
 5693ntf    cn128685   2.642   5.289   4.303 -0.1282  0.0908 -0.0121
 5693ntf    fn428686   2.587   5.378   4.864  0.3572  0.5620 -0.6513
 5693ntf    fn428687   2.742   5.448   4.737  0.9087  0.1724 -0.2130
 5693ntf    fn428688   2.531   5.446   4.680  0.4990 -0.1762  0.5697
 5693ntf    on528689   2.728   5.146   4.773 -0.1323 -0.5638 -0.2369
 5693ntf    on528690   2.503   5.168   4.663 -0.3861  0.1479  0.0783
 5693ntf    on528691   2.623   5.047   4.401  0.2847 -0.4348  0.1100
 5693ntf    on528692   2.842   5.132   4.340  0.0728  0.5786  0.4790
 5693ntf    fn428693   2.660   5.266   4.174 -0.3043  0.0632 -0.0321
 5693ntf    fn428694   2.513   5.303   4.328 -0.1151  0.2825 -0.0576
 5693ntf    fn428695   2.691   5.411   4.317  0.0909 -0.0140  0.1315
 5694ntf    cn128696   2.565   5.637   1.782  0.1940 -0.2170  0.0862
 5694ntf    sn228697   2.520   5.728   1.632  0.1661 -0.0372  0.2037
 5694ntf    nn328698   2.551   5.621   1.521  0.0162  0.1908 -0.0587
 5694ntf    sn228699   2.682   5.617   1.434 -0.0222 -0.3123 -0.0940
 5694ntf    cn128700   2.644   5.473   1.330 -0.3025 -0.0424 -0.3655
 5694ntf    fn428701   2.570   5.712   1.891  0.8559  0.3350 -0.3182
 5694ntf    fn428702   2.486   5.534   1.804  0.2825 -0.3130 -0.0419
 5694ntf    fn428703   2.683   5.578   1.773  0.1851 -0.3473  0.7742
 5694ntf    on528704   2.377   5.744   1.642  0.0779 -0.4612 -0.3078
 5694ntf    on528705   2.606   5.844   1.636 -0.0388  0.1244 -0.0014
 5694ntf    on528706   2.797   5.574   1.510  0.3807  0.5915 -0.1909
 5694ntf    on528707   2.692   5.723   1.338  0.2610 -0.4328 -0.1954
 5694ntf    fn428708   2.615   5.357   1.386  0.3324 -0.0585 -0.0641
 5694ntf    fn428709   2.540   5.500   1.253 -0.4207  0.4725 -0.0287
 5694ntf    fn428710   2.740   5.448   1.243 -0.1107 -0.1959 -0.1099
 5695ntf    cn128711   7.239   0.517   6.824  0.2132 -0.0584  0.0449
 5695ntf    sn228712   7.330   0.630   6.933  0.0122  0.0188  0.1323
 5695ntf    nn328713   7.216   0.687   7.025 -0.1275 -0.1749  0.0795
 5695ntf    sn228714   7.172   0.836   7.049 -0.0572 -0.1613  0.1217
 5695ntf    cn128715   7.215   0.855   7.225 -0.0659  0.3712  0.0672
 5695ntf    fn428716   7.149   0.584   6.753  0.6248  0.4800  0.0279
 5695ntf    fn428717   7.309   0.441   6.741  0.2087 -0.2691  0.2332
 5695ntf    fn428718   7.165   0.430   6.891  0.0584 -0.1251 -0.2093
 5695ntf    on528719   7.410   0.541   7.014 -0.4705 -0.4253  0.1259
 5695ntf    on528720   7.402   0.710   6.837  0.2518  0.0419  0.3318
 5695ntf    on528721   7.029   0.856   7.043 -0.0676 -0.3806 -0.4380
 5695ntf    on528722   7.262   0.935   6.996 -0.2558 -0.0860 -0.0769
 5695ntf    fn428723   7.345   0.842   7.243 -0.0903 -0.1251 -0.0846
 5695ntf    fn428724   7.185   0.976   7.269  0.3673  0.4569  0.1279
 5695ntf    fn428725   7.149   0.769   7.301 -0.1107  0.3492  0.0034
 5696ntf    cn128726   0.460   4.284   3.116  0.2869 -0.2054 -0.2798
 5696ntf    sn228727   0.298   4.303   3.036  0.0462 -0.1986  0.2006
 5696ntf    nn328728   0.196   4.295   3.155 -0.2441  0.1445 -0.0221
 5696ntf    sn228729   0.048   4.346   3.169 -0.1725  0.3425  0.0169
 5696ntf    cn128730  -0.011   4.197   3.255  0.1784  0.1801 -0.0199
 5696ntf    fn428731   0.484   4.155   3.137 -0.1005 -0.2269  0.0534
 5696ntf    fn428732   0.552   4.335   3.037 -0.3237  0.0205 -0.8540
 5696ntf    fn428733   0.469   4.348   3.232 -0.0747 -0.1513 -0.2795
 5696ntf    on528734   0.292   4.429   2.966 -0.5481 -0.0872  0.4478
 5696ntf    on528735   0.280   4.187   2.951 -0.4249  0.3203 -0.4126
 5696ntf    on528736  -0.036   4.352   3.052 -0.3500 -0.1663  0.1141
 5696ntf    on528737   0.030   4.446   3.271 -0.4134 -0.0588  0.3692
 5696ntf    fn428738  -0.142   4.188   3.240  0.1957  0.4685 -0.3622
 5696ntf    fn428739   0.028   4.084   3.197 -0.5441  0.2610 -0.6811
 5696ntf    fn428740   0.021   4.188   3.383 -0.1397  0.0866  0.0539
 5697ntf    cn128741   6.048   4.680   4.422 -0.0420  0.2052 -0.2487
 5697ntf    sn228742   5.904   4.610   4.336 -0.2209  0.1665  0.0797
 5697ntf    nn328743   5.928   4.458   4.363  0.3437  0.2195 -0.1221
 5697ntf    sn228744   5.856   4.335   4.297 -0.0940  0.4236 -0.0270
 5697ntf    cn128745   5.993   4.275   4.193 -0.2554 -0.2732  0.1554
 5697ntf    fn428746   6.153   4.678   4.343  0.3919 -0.6603  0.3350
 5697ntf    fn428747   6.027   4.806   4.457  0.6635  0.1883  0.2641
 5697ntf    fn428748   6.086   4.621   4.534 -0.2660  0.5712  0.0255
 5697ntf    on528749   5.791   4.673   4.401 -0.0897  0.3917  0.0895
 5697ntf    on528750   5.924   4.652   4.200 -0.4472  0.4300  0.1258
 5697ntf    on528751   5.739   4.364   4.218  0.2399  0.9650 -0.3258
 5697ntf    on528752   5.843   4.224   4.388 -0.2294 -0.1656 -0.7501
 5697ntf    fn428753   6.100   4.239   4.263 -0.0930 -0.8015 -0.3524
 5697ntf    fn428754   5.948   4.184   4.109  0.4078  0.4376 -1.0022
 5697ntf    fn428755   6.027   4.374   4.112  0.2821 -0.1897  0.4770
 5698ntf    cn128756   0.634   6.966   4.157 -0.1010 -0.3563 -0.1433
 5698ntf    sn228757   0.754   6.868   4.252 -0.2616 -0.0568  0.3727
 5698ntf    nn328758   0.661   6.778   4.341 -0.9116  0.2085 -0.0364
 5698ntf    sn228759   0.620   6.627   4.329  0.0448 -0.0230 -0.4344
 5698ntf    cn128760   0.770   6.545   4.391 -0.2186 -0.2866 -0.1404
 5698ntf    fn428761   0.689   7.043   4.064 -0.5107  0.1860  0.0551
 5698ntf    fn428762   0.552   6.878   4.103 -0.2500 -0.1836 -0.2012
 5698ntf    fn428763   0.565   7.039   4.243  0.1778 -0.2291 -0.0254
 5698ntf    on528764   0.829   6.810   4.144  0.2612  0.6915  0.3285
 5698ntf    on528765   0.813   6.975   4.329 -0.4527  0.1362  0.2537
 5698ntf    on528766   0.600   6.568   4.198  0.0063  0.3113 -0.5805
 5698ntf    on528767   0.532   6.579   4.432  0.6260 -0.6716 -0.2278
 5698ntf    fn428768   0.882   6.578   4.327 -0.0054 -0.2607  0.2402
 5698ntf    fn428769   0.784   6.579   4.518  0.6030 -0.4183 -0.1898
 5698ntf    fn428770   0.764   6.413   4.396 -0.2314 -0.2816 -0.0343
 5699ntf    cn128771   6.504   7.052   7.235 -0.1123  0.0491  0.1574
 5699ntf    sn228772   6.397   7.021   7.379 -0.0323 -0.1177  0.1815
 5699ntf    nn328773   6.396   7.163   7.445  0.0102  0.0579 -0.1928
 5699ntf    sn228774   6.435   7.205   7.591  0.0598 -0.1422 -0.1486
 5699ntf    cn128775   6.578   7.314   7.567  0.0826 -0.2019 -0.2869
 5699ntf    fn428776   6.445   7.133   7.149 -0.5620 -0.1097  0.3154
 5699ntf    fn428777   6.620   7.108   7.264 -0.1344  0.0605  0.2226
 5699ntf    fn428778   6.530   6.940   7.169 -0.6308  0.1266 -0.1795
 5699ntf    on528779   6.267   6.985   7.327 -0.0139  0.1159 -0.0293
 5699ntf    on528780   6.474   6.918   7.445  0.0729  0.1145  0.4212
 5699ntf    on528781   6.481   7.100   7.679 -0.4990  0.3011  0.6845
 5699ntf    on528782   6.329   7.291   7.636  0.3343 -0.0317  0.3008
 5699ntf    fn428783   6.627   7.366   7.679 -0.3535  0.0908 -0.2312
 5699ntf    fn428784   6.677   7.249   7.508  0.4142 -0.3761  0.4510
 5699ntf    fn428785   6.548   7.413   7.484  0.2916  0.0108 -0.1110
 5700ntf    cn128786   4.966   1.156   0.678 -0.0877  0.0649  0.6489
 5700ntf    sn228787   4.902   1.014   0.584  0.2978  0.2395  0.1230
 5700ntf    nn328788   5.018   1.007   0.478  0.0779 -0.4581 -0.0780
 5700ntf    sn228789   5.011   0.981   0.324  0.0608  0.3521 -0.2205
 5700ntf    cn128790   5.119   1.121   0.283  0.2722  0.2983  0.1494
 5700ntf    fn428791   5.077   1.121   0.740  0.4573  0.4811 -0.0852
 5700ntf    fn428792   4.999   1.261   0.605 -0.3572 -0.0315  0.3875
 5700ntf    fn428793   4.879   1.206   0.765 -0.5619 -0.1977  0.3325
 5700ntf    on528794   4.889   0.907   0.679  0.3298  0.2992  0.1941
 5700ntf    on528795   4.777   1.074   0.541  0.2124 -0.6533 -0.9333
 5700ntf    on528796   4.896   1.013   0.243 -0.2112 -0.3541 -0.1215
 5700ntf    on528797   5.080   0.860   0.286 -0.3353  0.1869 -0.4193
 5700ntf    fn428798   5.068   1.232   0.331  0.4359  0.2639  0.4083
 5700ntf    fn428799   5.243   1.106   0.329  0.1934 -0.1749  0.2132
 5700ntf    fn428800   5.128   1.134   0.152 -0.3365 -0.2591  0.0482
 5701ntf    cn128801   5.470   1.087   5.236  0.0360  0.0405 -0.1281
 5701ntf    sn228802   5.315   1.155   5.303 -0.0003 -0.0191 -0.1516
 5701ntf    nn328803   5.214   1.145   5.182  0.2835  0.2550 -0.4126
 5701ntf    sn228804   5.110   1.245   5.121 -0.0196  0.1817 -0.0197
 5701ntf    cn128805   5.191   1.298   4.967 -0.0767  0.2260 -0.0340
 5701ntf    fn428806   5.483   1.109   5.106 -0.6889 -0.1602 -0.2412
 5701ntf    fn428807   5.574   1.139   5.297  0.5201 -0.1501 -0.7799
 5701ntf    fn428808   5.483   0.955   5.241  0.5320  0.1119  0.5649
 5701ntf    on528809   5.289   1.063   5.411  0.3030  0.3476  0.2312
 5701ntf    on528810   5.354   1.289   5.339 -0.5293  0.1478 -0.1903
 5701ntf    on528811   5.086   1.367   5.195 -0.1965  0.0213  0.1895
 5701ntf    on528812   4.990   1.183   5.073 -0.1535 -0.1009  0.6608
 5701ntf    fn428813   5.104   1.360   4.889 -0.7125 -0.4467  0.1322
 5701ntf    fn428814   5.287   1.387   4.990  0.0165 -0.0183  0.5358
 5701ntf    fn428815   5.248   1.204   4.894 -1.0232 -0.2877 -0.1237
 5702ntf    cn128816   3.351   3.457   3.911 -0.0808  0.2537  0.3332
 5702ntf    sn228817   3.340   3.276   3.896 -0.0465  0.2815 -0.0349
 5702ntf    nn328818   3.248   3.241   4.018  0.1517  0.3563  0.1369
 5702ntf    sn228819   3.278   3.201   4.167  0.1562 -0.3113 -0.0377
 5702ntf    cn128820   3.258   3.020   4.164  0.4446 -0.3576  0.6133
 5702ntf    fn428821   3.231   3.512   3.894 -0.0119  0.5480  0.7841
 5702ntf    fn428822   3.393   3.489   4.032 -0.4139  0.1698  0.4727
 5702ntf    fn428823   3.445   3.501   3.830 -0.0122 -0.4710  0.0096
 5702ntf    on528824   3.275   3.261   3.769  0.2688  0.0801 -0.1750
 5702ntf    on528825   3.478   3.233   3.907 -0.0049  0.2766 -0.5599
 5702ntf    on528826   3.186   3.254   4.265 -0.6777 -0.6803 -0.6103
 5702ntf    on528827   3.418   3.208   4.201  0.2762 -0.0169 -0.5939
 5702ntf    fn428828   3.158   2.968   4.094  0.3574  0.5801  0.0256
 5702ntf    fn428829   3.368   2.967   4.113 -0.0743 -0.6112 -0.2652
 5702ntf    fn428830   3.246   2.976   4.288 -0.0637  0.2604  0.7955
 5703ntf    cn128831   0.413   4.811   0.165 -0.3045 -0.0681  0.0415
 5703ntf    sn228832   0.257   4.729   0.206 -0.3288 -0.0472 -0.0076
 5703ntf    nn328833   0.299   4.578   0.220 -0.1048  0.0399  0.2626
 5703ntf    sn228834   0.223   4.449   0.174 -0.0095  0.0099  0.1874
 5703ntf    cn128835   0.257   4.344   0.318 -0.6958 -0.2185  0.1882
 5703ntf    fn428836   0.461   4.777   0.046 -0.3272  0.5493 -0.1436
 5703ntf    fn428837   0.422   4.942   0.173 -0.3148 -0.0531 -0.1732
 5703ntf    fn428838   0.512   4.770   0.243 -0.1780  0.1316 -0.0150
 5703ntf    on528839   0.216   4.776   0.336  0.2628  0.4119  0.0134
 5703ntf    on528840   0.173   4.749   0.091 -0.2948 -0.0262 -0.0284
 5703ntf    on528841   0.288   4.388   0.061  0.0823 -0.4519  0.4879
 5703ntf    on528842   0.079   4.450   0.177 -0.0406 -0.0452 -0.7894
 5703ntf    fn428843   0.217   4.391   0.435 -0.6795  0.5739 -0.1158
 5703ntf    fn428844   0.199   4.226   0.307 -0.9333 -0.1441  0.6171
 5703ntf    fn428845   0.388   4.328   0.331 -0.6243  0.1214 -0.0834
 5704ntf    cn128846   3.096   5.731   0.876  0.1821  0.3789  0.3707
 5704ntf    sn228847   3.212   5.832   0.778  0.3720 -0.3213 -0.1362
 5704ntf    nn328848   3.343   5.831   0.865 -0.1382 -0.7221  0.6382
 5704ntf    sn228849   3.377   5.926   0.985  0.2552 -0.0813  0.0191
 5704ntf    cn128850   3.546   5.870   1.023  0.2277  0.0364  0.3140
 5704ntf    fn428851   3.065   5.783   0.993 -0.1853 -0.1696  0.5214
 5704ntf    fn428852   2.980   5.723   0.814  0.0515 -0.0271  0.6634
 5704ntf    fn428853   3.151   5.612   0.894  0.0015  0.2393 -0.0051
 5704ntf    on528854   3.219   5.756   0.656  0.3246  0.0121 -0.3451
 5704ntf    on528855   3.150   5.961   0.761  0.1615 -0.3256  0.5486
 5704ntf    on528856   3.298   5.914   1.105 -0.0466  0.9822 -0.0607
 5704ntf    on528857   3.404   6.063   0.946  0.5041 -0.1415 -0.0236
 5704ntf    fn428858   3.548   5.740   1.046 -0.3544 -0.1748 -0.7938
 5704ntf    fn428859   3.634   5.904   0.930 -0.2783 -0.0989 -0.2189
 5704ntf    fn428860   3.594   5.924   1.134 -0.3021  0.0648  0.5309
 5705ntf    cn128861   4.881   6.935   0.106 -0.3605  0.2028 -0.2255
 5705ntf    sn228862   4.736   6.831   0.141 -0.2288 -0.0092 -0.3145
 5705ntf    nn328863   4.713   6.875   0.290 -0.1928  0.0434 -0.3243
 5705ntf    sn228864   4.626   6.988   0.355 -0.0305 -0.0412  0.0388
 5705ntf    cn128865   4.709   7.011   0.516  0.1001  0.0959 -0.0476
 5705ntf    fn428866   4.854   7.063   0.085  0.2677  0.3662 -0.0451
 5705ntf    fn428867   4.961   6.939   0.211 -1.0454 -0.0205  0.3146
 5705ntf    fn428868   4.953   6.891   0.004  0.3353  0.5073  0.1258
 5705ntf    on528869   4.634   6.872   0.048 -0.3647 -0.2591 -0.2751
 5705ntf    on528870   4.777   6.692   0.136  0.2134  0.0670  0.8028
 5705ntf    on528871   4.491   6.944   0.379 -0.1664  0.4221  0.1510
 5705ntf    on528872   4.645   7.114   0.287  0.1738 -0.2689 -0.3273
 5705ntf    fn428873   4.694   6.903   0.590  0.5671  0.4668  0.5916
 5705ntf    fn428874   4.837   7.035   0.496  0.0047  0.3694 -0.3608
 5705ntf    fn428875   4.659   7.111   0.587 -0.0111 -0.3227  0.4698
 5706ntf    cn128876   4.243   0.023   4.063  0.1501 -0.0493  0.0079
 5706ntf    sn228877   4.200   0.118   4.212  0.1555 -0.0735  0.0247
 5706ntf    nn328878   4.173  -0.005   4.305  0.2978 -0.3335 -0.2762
 5706ntf    sn228879   4.271  -0.078   4.403  0.4302  0.2400  0.0251
 5706ntf    cn128880   4.196  -0.035   4.563  0.4401 -0.0041  0.0954
 5706ntf    fn428881   4.132  -0.023   4.007  0.1008  0.2236 -0.1199
 5706ntf    fn428882   4.303   0.096   3.970 -0.3553 -0.0247 -0.3085
 5706ntf    fn428883   4.324  -0.081   4.075 -0.0977 -0.2590 -0.1293
 5706ntf    on528884   4.311   0.206   4.242 -0.1969  0.3741  0.0293
 5706ntf    on528885   4.085   0.197   4.176 -0.0055 -0.0736  0.5341
 5706ntf    on528886   4.407  -0.035   4.416  0.6067 -0.2193 -0.2791
 5706ntf    on528887   4.241  -0.219   4.390  0.4634  0.2708 -0.3933
 5706ntf    fn428888   4.234   0.085   4.601  0.6235 -0.0516  0.0620
 5706ntf    fn428889   4.064  -0.046   4.560  0.5018 -0.8082 -0.0111
 5706ntf    fn428890   4.237  -0.126   4.651  0.3272  0.0897  0.2472
 5707ntf    cn128891   3.860   6.329   4.304  0.0870  0.2436 -0.2934
 5707ntf    sn228892   3.915   6.459   4.418 -0.3294  0.0787  0.0975
 5707ntf    nn328893   3.851   6.403   4.550  0.0001  0.1723  0.2972
 5707ntf    sn228894   3.751   6.463   4.655 -0.1194  0.2355  0.1477
 5707ntf    cn128895   3.865   6.494   4.793  0.1300  0.0246 -0.0103
 5707ntf    fn428896   3.922   6.212   4.307  0.0203  0.2182  0.1143
 5707ntf    fn428897   3.734   6.299   4.331  0.0734 -0.0795 -0.6960
 5707ntf    fn428898   3.857   6.366   4.177  0.1841 -0.2473 -0.4413
 5707ntf    on528899   4.058   6.456   4.405 -0.3674 -0.4350 -0.2513
 5707ntf    on528900   3.858   6.578   4.359  0.0154  0.0086 -0.3807
 5707ntf    on528901   3.660   6.366   4.710 -0.9992  0.6697 -0.5000
 5707ntf    on528902   3.692   6.592   4.624 -0.0940  0.2481  0.1536
 5707ntf    fn428903   3.961   6.579   4.762  0.2653 -0.3360 -0.5965
 5707ntf    fn428904   3.796   6.544   4.895 -0.0846 -0.1024 -0.0932
 5707ntf    fn428905   3.921   6.383   4.837 -0.4087 -0.0569  0.4891
 5708ntf    cn128906   4.583   5.690   6.408  0.1273  0.1943 -0.4283
 5708ntf    sn228907   4.599   5.871   6.392  0.1477  0.2666  0.3530
 5708ntf    nn328908   4.702   5.883   6.274 -0.6253 -0.3072 -0.3925
 5708ntf    sn228909   4.854   5.921   6.280 -0.6360 -0.2878 -0.2344
 5708ntf    cn128910   4.890   5.929   6.102 -0.0552  0.0423 -0.1049
 5708ntf    fn428911   4.575   5.650   6.534 -0.1119  0.5248 -0.3370
 5708ntf    fn428912   4.481   5.646   6.337 -0.1025  0.1603 -0.0801
 5708ntf    fn428913   4.694   5.641   6.355  0.2444  0.4797 -0.4512
 5708ntf    on528914   4.473   5.914   6.337  0.1225 -0.2228  0.0158
 5708ntf    on528915   4.637   5.910   6.525 -0.7523  0.1043  0.6644
 5708ntf    on528916   4.939   5.817   6.331 -0.2342  0.1698  0.0360
 5708ntf    on528917   4.874   6.058   6.322 -0.1700 -0.5371  0.3778
 5708ntf    fn428918   4.856   6.045   6.049 -0.0098  0.1325  0.0625
 5708ntf    fn428919   5.013   5.903   6.061 -0.1391  0.5069 -0.6601
 5708ntf    fn428920   4.819   5.839   6.036  0.2051 -0.1767 -0.0866
 5709ntf    cn128921   0.944   1.578   6.868  0.2290 -0.1089 -0.2736
 5709ntf    sn228922   1.016   1.506   6.717  0.4296  0.2135 -0.3328
 5709ntf    nn328923   1.125   1.609   6.670  0.3313  0.5056  0.0681
 5709ntf    sn228924   1.197   1.623   6.531 -0.0179 -0.2264 -0.1943
 5709ntf    cn128925   1.097   1.750   6.450 -0.1362 -0.1477  0.0723
 5709ntf    fn428926   0.848   1.504   6.921  0.1317  0.0683 -0.2008
 5709ntf    fn428927   1.039   1.597   6.958  0.1008 -0.0392 -0.1528
 5709ntf    fn428928   0.882   1.693   6.850  0.0640 -0.0396  0.6956
 5709ntf    on528929   1.056   1.379   6.771 -0.3422 -0.1893 -0.6843
 5709ntf    on528930   0.904   1.505   6.626  0.2286  0.1839 -0.0866
 5709ntf    on528931   1.195   1.500   6.456 -0.0270 -0.1526 -0.3137
 5709ntf    on528932   1.321   1.695   6.544  0.2020 -0.6838  0.2960
 5709ntf    fn428933   1.148   1.784   6.332 -0.1493 -0.1863  0.0562
 5709ntf    fn428934   0.968   1.720   6.441 -0.2928  0.4547  0.2143
 5709ntf    fn428935   1.102   1.864   6.518  0.2975 -0.0095 -0.1840
 5710ntf    cn128936   0.995   4.983   6.248 -0.4888  0.0884 -0.0091
 5710ntf    sn228937   1.140   5.093   6.258 -0.3330 -0.1174  0.0099
 5710ntf    nn328938   1.128   5.130   6.410 -0.5652 -0.2615  0.0277
 5710ntf    sn228939   1.199   5.078   6.540 -0.0620  0.4288  0.0330
 5710ntf    cn128940   1.076   4.952   6.586  0.1288  0.2887  0.1625
 5710ntf    fn428941   1.019   4.869   6.311 -0.0179 -0.0579 -0.4526
 5710ntf    fn428942   0.889   5.042   6.301 -0.2542 -0.2218  0.8172
 5710ntf    fn428943   0.973   4.957   6.121  0.2981  0.5415 -0.2480
 5710ntf    on528944   1.253   5.016   6.213 -0.0053  0.0057  0.6110
 5710ntf    on528945   1.109   5.198   6.164  0.2664 -0.6826 -0.8268
 5710ntf    on528946   1.207   5.182   6.640  0.6591  0.5793 -0.1736
 5710ntf    on528947   1.321   5.003   6.521 -0.7259 -0.4973 -0.6853
 5710ntf    fn428948   0.955   5.005   6.590 -0.0077 -0.0238  0.1836
 5710ntf    fn428949   1.071   4.850   6.502 -0.4234  0.1384  0.3787
 5710ntf    fn428950   1.102   4.901   6.705  0.3184  0.1808  0.0765
 5711ntf    cn128951   0.307   3.459   0.506 -0.1497 -0.2380 -0.2730
 5711ntf    sn228952   0.146   3.415   0.434 -0.3457 -0.2112  0.1490
 5711ntf    nn328953   0.115   3.305   0.541 -0.1916  0.0986  0.5160
 5711ntf    sn228954  -0.009   3.209   0.557 -0.1288  0.0013  0.4216
 5711ntf    cn128955   0.037   3.084   0.433 -0.3859  0.5985 -0.2860
 5711ntf    fn428956   0.369   3.558   0.444  0.5543 -0.4839  0.0257
 5711ntf    fn428957   0.298   3.506   0.629  0.0849  0.3098 -0.4604
 5711ntf    fn428958   0.394   3.359   0.506 -0.1862 -0.2742  0.2762
 5711ntf    on528959   0.067   3.535   0.450 -0.2075 -0.0311 -0.5246
 5711ntf    on528960   0.182   3.370   0.302  0.0302 -0.1012  0.2128
 5711ntf    on528961  -0.131   3.269   0.509  0.0626  0.0682  0.0152
 5711ntf    on528962  -0.005   3.149   0.688 -0.2341 -0.5458  0.1730
 5711ntf    fn428963  -0.015   3.111   0.315 -0.9333 -0.0658 -0.1994
 5711ntf    fn428964   0.168   3.072   0.420 -0.3254  0.2974  0.5430
 5711ntf    fn428965  -0.011   2.967   0.471 -0.1466  0.7495  0.5092
 5712ntf    cn128966   1.964   7.271   1.193  0.0511  0.5138 -0.3914
 5712ntf    sn228967   1.818   7.163   1.195 -0.0555  0.6567 -0.3723
 5712ntf    nn328968   1.827   7.101   1.051 -0.2139  0.6771 -0.3917
 5712ntf    sn228969   1.927   6.998   0.986 -0.2592  0.1322  0.3823
 5712ntf    cn128970   1.810   6.888   0.902  0.2055 -0.0830  0.0144
 5712ntf    fn428971   1.994   7.300   1.318 -0.3507 -0.1107 -0.1443
 5712ntf    fn428972   2.066   7.217   1.130  0.0490  0.2950 -0.2057
 5712ntf    fn428973   1.948   7.384   1.125 -0.2475  0.0983 -1.0267
 5712ntf    on528974   1.839   7.071   1.304  0.2147  0.6423 -0.4365
 5712ntf    on528975   1.708   7.255   1.213 -0.4300  0.0612  0.4864
 5712ntf    on528976   1.999   6.912   1.076  0.5004  0.0177 -0.3247
 5712ntf    on528977   2.002   7.059   0.879 -0.4865 -0.2618 -0.0039
 5712ntf    fn428978   1.697   6.864   0.967 -0.1360  0.3624 -0.4110
 5712ntf    fn428979   1.765   6.942   0.790  0.2652 -0.2352 -0.0829
 5712ntf    fn428980   1.864   6.770   0.876 -0.1908 -0.2264 -0.1743
 5713ntf    cn128981   6.578   7.549   4.605  0.4740 -0.1852  0.0411
 5713ntf    sn228982   6.598   7.387   4.525 -0.0372 -0.2730  0.0884
 5713ntf    nn328983   6.474   7.385   4.430  0.1279 -0.1122 -0.1302
 5713ntf    sn228984   6.443   7.263   4.335 -0.2003 -0.3333  0.2583
 5713ntf    cn128985   6.493   7.316   4.168  0.3395 -0.0302  0.5110
 5713ntf    fn428986   6.489   7.557   4.702 -0.0753  0.1254 -0.4841
 5713ntf    fn428987   6.692   7.595   4.654  0.2497 -0.3056  0.6838
 5713ntf    fn428988   6.542   7.621   4.500  0.0419 -0.4442  0.0083
 5713ntf    on528989   6.725   7.396   4.458  0.5509 -0.2170  1.1749
 5713ntf    on528990   6.588   7.295   4.637 -0.5721 -0.5824 -0.2084
 5713ntf    on528991   6.301   7.243   4.320 -0.1104 -0.4101 -0.5203
 5713ntf    on528992   6.535   7.152   4.328 -0.1478 -0.2387 -0.5856
 5713ntf    fn428993   6.620   7.347   4.150  0.0201  1.0251 -0.0031
 5713ntf    fn428994   6.462   7.236   4.067  0.3101  0.5243  0.0806
 5713ntf    fn428995   6.433   7.432   4.147  0.2645 -0.2696 -0.6425
 5714ntf    cn128996   6.478   0.603   6.786 -0.2070  0.0721  0.1286
 5714ntf    sn228997   6.346   0.718   6.736 -0.0181  0.1201 -0.2561
 5714ntf    nn328998   6.230   0.615   6.716  0.1993 -0.1981  0.1066
 5714ntf    sn228999   6.143   0.594   6.587  0.5253 -0.1141 -0.1279
 5714ntf    cn129000   6.012   0.479   6.638  0.2609  0.4891  0.5672
 5714ntf    fn429001   6.495   0.587   6.917 -0.3934 -0.0723  0.1357
 5714ntf    fn429002   6.475   0.485   6.726 -0.2060  0.1028  0.0682
 5714ntf    fn429003   6.591   0.657   6.744 -0.3227  0.0144 -0.2562
 5714ntf    on529004   6.336   0.798   6.855  0.3673 -0.5862  0.2583
 5714ntf    on529005   6.395   0.778   6.614 -0.6024  0.7149 -0.2015
 5714ntf    on529006   6.204   0.531   6.473  1.1434  0.4008 -0.0865
 5714ntf    on529007   6.074   0.718   6.559  0.6730 -0.0142 -0.0515
 5714ntf    fn429008   6.046   0.352   6.641 -0.3291  0.3303  0.7960
 5714ntf    fn429009   5.976   0.517   6.760  0.0889  0.1878  0.6098
 5714ntf    fn429010   5.898   0.484   6.570  0.5053 -0.0069  0.1241
 5715ntf    cn129011   3.477   5.419   4.568  0.0609  0.0102  0.3504
 5715ntf    sn229012   3.405   5.285   4.668 -0.4067  0.2907  0.3909
 5715ntf    nn329013   3.457   5.322   4.812  0.1263  0.0858  0.2531
 5715ntf    sn229014   3.376   5.305   4.946 -0.1393  0.1013  0.0956
 5715ntf    cn129015   3.302   5.471   4.956 -0.3821 -0.0301  0.4782
 5715ntf    fn429016   3.421   5.537   4.588  0.2839  0.2485 -0.4241
 5715ntf    fn429017   3.607   5.437   4.587  0.1835 -0.6678  0.1854
 5715ntf    fn429018   3.458   5.384   4.442  0.1642  0.8719  0.0905
 5715ntf    on529019   3.262   5.295   4.653 -0.4010  0.3772  0.3927
 5715ntf    on529020   3.476   5.176   4.606 -0.4682  0.2585  0.3775
 5715ntf    on529021   3.453   5.299   5.067  0.1450 -0.6610 -0.1188
 5715ntf    on529022   3.262   5.217   4.934 -0.0977 -0.0211  0.5934
 5715ntf    fn429023   3.384   5.574   4.946  0.1287 -0.4456  0.3631
 5715ntf    fn429024   3.212   5.493   4.861 -0.1444 -0.1356  0.2276
 5715ntf    fn429025   3.233   5.491   5.067 -0.5210 -0.0376  0.3935
 5716ntf    cn129026   2.615   0.215   3.532 -0.2548  0.0337  0.0228
 5716ntf    sn229027   2.711   0.122   3.409 -0.0192  0.5803 -0.2091
 5716ntf    nn329028   2.837   0.077   3.492  0.1414  0.2264 -0.6436
 5716ntf    sn229029   2.992   0.073   3.470  0.2113  0.1826 -0.1543
 5716ntf    cn129030   3.037  -0.095   3.523 -0.0578  0.1698  0.0346
 5716ntf    fn429031   2.668   0.335   3.551 -0.2206  0.0006  0.1387
 5716ntf    fn429032   2.489   0.239   3.501 -0.3065 -0.3862 -0.0939
 5716ntf    fn429033   2.607   0.157   3.651  0.5986  0.0884  0.1108
 5716ntf    on529034   2.622   0.014   3.373  0.4148  0.1873 -0.1130
 5716ntf    on529035   2.741   0.224   3.311  0.0060  0.0249 -0.7850
 5716ntf    on529036   3.066   0.151   3.566 -0.1191  0.3036  0.0011
 5716ntf    on529037   3.041   0.080   3.334  0.2978 -0.5510 -0.1693
 5716ntf    fn429038   3.158  -0.131   3.484 -0.0591  0.3667 -0.1509
 5716ntf    fn429039   3.040  -0.110   3.655 -0.4896  0.1037  0.0381
 5716ntf    fn429040   2.959  -0.194   3.484 -0.0512 -0.1099  0.7180
 5717ntf    cn129041   5.815   5.096   5.432  0.2668  0.1154 -0.4555
 5717ntf    sn229042   5.944   5.129   5.557 -0.2789  0.1563  0.1002
 5717ntf    nn329043   6.033   5.243   5.495  0.0001 -0.1991 -0.1569
 5717ntf    sn229044   6.067   5.383   5.557 -0.2381 -0.1901 -0.0439
 5717ntf    cn129045   6.239   5.406   5.501 -0.2978  0.2034 -0.0721
 5717ntf    fn429046   5.867   5.037   5.325  0.4991  0.3127 -0.4542
 5717ntf    fn429047   5.719   5.022   5.485  0.1854  0.3919 -0.2172
 5717ntf    fn429048   5.752   5.206   5.397  0.2923  0.2173 -0.1821
 5717ntf    on529049   5.863   5.166   5.670  0.0634  0.4426  0.2537
 5717ntf    on529050   6.015   5.004   5.568 -0.1295  0.1486 -0.8267
 5717ntf    on529051   6.072   5.382   5.701  0.0265  0.4375 -0.0438
 5717ntf    on529052   6.000   5.497   5.499 -0.2577 -0.1996 -0.0392
 5717ntf    fn429053   6.290   5.527   5.512 -0.2629  0.2200 -0.4098
 5717ntf    fn429054   6.324   5.328   5.565 -0.3594 -0.0355 -0.2788
 5717ntf    fn429055   6.242   5.388   5.370 -0.3088 -0.3496  0.0005
 5718ntf    cn129056   4.139   0.880   2.650  0.1528 -0.2790  0.2223
 5718ntf    sn229057   4.306   0.952   2.643  0.0188  0.0162  0.0226
 5718ntf    nn329058   4.381   0.869   2.532  0.1891  0.2738 -0.0550
 5718ntf    sn229059   4.429   0.720   2.544 -0.0705  0.1884 -0.0615
 5718ntf    cn129060   4.597   0.739   2.610  0.2522 -0.3651 -0.7085
 5718ntf    fn429061   4.080   0.864   2.532  0.4366  0.5609 -0.0425
 5718ntf    fn429062   4.125   0.761   2.704 -0.4260 -0.2667  0.1063
 5718ntf    fn429063   4.057   0.955   2.721  0.2788 -0.1217  0.2026
 5718ntf    on529064   4.287   1.088   2.599 -0.1413  0.0974  0.3457
 5718ntf    on529065   4.361   0.934   2.775  0.4107  0.3510 -0.0924
 5718ntf    on529066   4.453   0.652   2.419 -0.1686 -0.5777  0.3317
 5718ntf    on529067   4.351   0.643   2.637 -0.1701 -0.2369 -0.4941
 5718ntf    fn429068   4.695   0.697   2.532  0.3646 -0.1240 -0.6964
 5718ntf    fn429069   4.624   0.863   2.647 -0.3489 -0.3680 -0.2391
 5718ntf    fn429070   4.599   0.663   2.718  0.0683 -0.2039 -0.5909
 5719ntf    cn129071   7.181   2.682   4.942 -0.1099  0.1574  0.4185
 5719ntf    sn229072   7.294   2.759   4.823 -0.1176 -0.1106  0.2384
 5719ntf    nn329073   7.236   2.698   4.691 -0.5054  0.0483  0.3363
 5719ntf    sn229074   7.171   2.755   4.560  0.1042  0.3039  0.1414
 5719ntf    cn129075   7.319   2.788   4.460  0.0275  0.2235  0.0025
 5719ntf    fn429076   7.184   2.731   5.065 -0.3079 -0.0127  0.4916
 5719ntf    fn429077   7.055   2.695   4.902  0.1103 -0.1624 -0.3825
 5719ntf    fn429078   7.195   2.552   4.956 -0.5120  0.1874  1.1782
 5719ntf    on529079   7.267   2.899   4.845 -1.4325 -0.4095  0.5963
 5719ntf    on529080   7.426   2.710   4.854  0.0037  0.0945  0.0531
 5719ntf    on529081   7.101   2.881   4.577  0.1814  0.3091  0.4210
 5719ntf    on529082   7.105   2.652   4.483  0.1476  0.4830 -0.1374
 5719ntf    fn429083   7.282   2.858   4.354 -0.0232  0.1467 -0.0313
 5719ntf    fn429084   7.408   2.861   4.524  0.3338  0.1110 -0.2944
 5719ntf    fn429085   7.383   2.676   4.433 -0.5372 -0.0270 -0.3244
 5720ntf    cn129086   1.951   3.511   1.957 -0.4654  0.1357 -0.1143
 5720ntf    sn229087   1.931   3.370   1.845  0.0357 -0.1177  0.1101
 5720ntf    nn329088   1.791   3.403   1.781  0.0708 -0.1339  0.0241
 5720ntf    sn229089   1.675   3.310   1.732 -0.0776  0.0433  0.0408
 5720ntf    cn129090   1.665   3.376   1.563 -0.0198 -0.0604 -0.0029
 5720ntf    fn429091   1.888   3.503   2.073 -0.0810 -0.3998  0.0643
 5720ntf    fn429092   2.079   3.523   1.990 -0.6335  0.2578  0.5000
 5720ntf    fn429093   1.910   3.621   1.896 -0.7279 -0.0300 -0.2368
 5720ntf    on529094   2.043   3.367   1.753 -0.2883 -0.0774 -0.2885
 5720ntf    on529095   1.918   3.255   1.931  0.2881 -0.3201 -0.1179
 5720ntf    on529096   1.544   3.342   1.784  0.0297  0.2460  0.1852
 5720ntf    on529097   1.711   3.176   1.695 -0.3251 -0.1882  0.6308
 5720ntf    fn429098   1.775   3.349   1.494 -0.2688  0.0123 -0.4281
 5720ntf    fn429099   1.562   3.332   1.493 -0.2991  0.7960 -0.1460
 5720ntf    fn429100   1.646   3.507   1.568 -0.7621 -0.1698  0.0851
 5721ntf    cn129101   6.136   0.005   3.098 -0.2633 -0.4481 -0.1552
 5721ntf    sn229102   5.961   0.052   3.086 -0.0952  0.2324 -0.0132
 5721ntf    nn329103   5.969   0.182   3.174 -0.4159  0.2737 -0.0427
 5721ntf    sn229104   5.905   0.321   3.139 -0.0957  0.4592  0.1009
 5721ntf    cn129105   5.735   0.260   3.118  0.2146 -0.3006 -0.2535
 5721ntf    fn429106   6.167  -0.038   3.219 -1.2023 -0.3706  0.1138
 5721ntf    fn429107   6.166  -0.096   3.018  0.0343  0.0358 -0.6657
 5721ntf    fn429108   6.213   0.109   3.068 -0.0881 -0.4490  0.2797
 5721ntf    on529109   5.930   0.069   2.946 -0.2837 -0.2081 -0.0253
 5721ntf    on529110   5.886  -0.049   3.155  0.3508  0.0325  0.1821
 5721ntf    on529111   5.957   0.384   3.021  0.5198 -0.2762 -0.0294
 5721ntf    on529112   5.891   0.391   3.264 -0.2436 -0.2535  0.4947
 5721ntf    fn429113   5.643   0.355   3.115  0.2285 -0.2694  0.2043
 5721ntf    fn429114   5.714   0.191   3.007 -0.1306  0.6590 -0.7970
 5721ntf    fn429115   5.691   0.188   3.220 -0.3668  0.2988 -0.0672
 5722ntf    cn129116   2.483   5.949   6.034 -1.0927  0.0500 -0.3032
 5722ntf    sn229117   2.524   6.069   5.904  0.7172  0.0557  0.2556
 5722ntf    nn329118   2.590   5.975   5.797  0.1647  0.2504 -0.2597
 5722ntf    sn229119   2.744   5.956   5.772  0.0633 -0.5148 -0.3186
 5722ntf    cn129120   2.791   6.106   5.680  0.2998 -0.5753 -0.2979
 5722ntf    fn429121   2.408   5.996   6.133  0.1279  0.4375  0.4569
 5722ntf    fn429122   2.435   5.838   5.981 -0.0019 -0.0618 -1.0781
 5722ntf    fn429123   2.592   5.907   6.095 -0.5837  0.8953 -0.6077
 5722ntf    on529124   2.394   6.115   5.864  0.3819 -0.2677  0.9545
 5722ntf    on529125   2.613   6.166   5.964 -0.1580  0.7708  0.4130
 5722ntf    on529126   2.759   5.856   5.670 -0.5998 -0.8036 -0.1404
 5722ntf    on529127   2.826   5.945   5.891 -0.1324  0.4435 -0.0860
 5722ntf    fn429128   2.755   6.219   5.738 -0.1543 -0.6548 -0.4188
 5722ntf    fn429129   2.923   6.107   5.669  0.3158  0.6281 -0.0724
 5722ntf    fn429130   2.738   6.105   5.559  0.4077  0.3722 -0.3555
 5723ntf    cn129131   3.411   0.826   6.952  0.2996 -0.1646  0.2233
 5723ntf    sn229132   3.324   0.720   6.833  0.3335 -0.2283  0.2556
 5723ntf    nn329133   3.198   0.813   6.824  0.2600 -0.2958  0.5621
 5723ntf    sn229134   3.051   0.793   6.876 -0.0102 -0.0773 -0.0998
 5723ntf    cn129135   3.034   0.928   6.997  0.0318 -0.0926 -0.0773
 5723ntf    fn429136   3.335   0.830   7.059 -0.5217  0.0095 -0.3599
 5723ntf    fn429137   3.531   0.779   6.982  0.4082  0.3104  0.5408
 5723ntf    fn429138   3.429   0.948   6.905 -0.5417 -0.1848 -0.1666
 5723ntf    on529139   3.415   0.719   6.722 -0.1576 -0.9519 -0.1498
 5723ntf    on529140   3.300   0.592   6.896 -0.0469 -0.4511 -0.3342
 5723ntf    on529141   3.010   0.671   6.941  0.7696 -0.5178 -0.4204
 5723ntf    on529142   2.966   0.840   6.769  0.3242 -0.2406 -0.4400
 5723ntf    fn429143   2.929   1.008   6.987 -0.1776 -0.4268 -0.6468
 5723ntf    fn429144   3.046   0.885   7.121  0.6640  0.1984 -0.0351
 5723ntf    fn429145   3.134   1.013   6.982 -0.0055  0.0035  0.2154
 5724ntf    cn129146   7.382   1.374   0.026 -0.3802  0.1173 -0.3711
 5724ntf    sn229147   7.372   1.487  -0.116 -0.1091 -0.0265 -0.5060
 5724ntf    nn329148   7.216   1.479  -0.138 -0.1692  0.7066 -0.3896
 5724ntf    sn229149   7.124   1.431  -0.255  0.5400 -0.1407 -0.6166
 5724ntf    cn129150   7.075   1.264  -0.202 -0.3011  0.1523 -0.4404
 5724ntf    fn429151   7.509   1.369   0.063 -0.2951  0.1389 -0.6570
 5724ntf    fn429152   7.323   1.419   0.136 -0.1404  0.0115 -0.1987
 5724ntf    fn429153   7.336   1.251   0.011 -0.0380 -0.0735  0.1254
 5724ntf    on529154   7.418   1.616  -0.072 -0.1033 -0.1280 -0.2118
 5724ntf    on529155   7.458   1.413  -0.204  0.9671  0.7398 -0.1108
 5724ntf    on529156   7.181   1.414  -0.386  0.8263 -0.6076 -0.4333
 5724ntf    on529157   7.005   1.512  -0.250  0.5077 -0.2289  0.0947
 5724ntf    fn429158   6.973   1.269  -0.118 -0.0788  0.3322 -0.1797
 5724ntf    fn429159   7.029   1.200  -0.308  0.2050 -0.8234 -0.0846
 5724ntf    fn429160   7.174   1.188  -0.156 -0.5068 -0.0254 -0.2926
 5725ntf    cn129161   4.169   5.001   6.747 -0.1801 -0.3352 -0.0777
 5725ntf    sn229162   4.074   5.153   6.775  0.2442 -0.1587  0.4110
 5725ntf    nn329163   4.104   5.178   6.927  0.0877  0.1586  0.3905
 5725ntf    sn229164   4.012   5.173   7.054  0.1886 -0.2222  0.4480
 5725ntf    cn129165   3.984   5.352   7.071  0.5125 -0.1196 -0.0700
 5725ntf    fn429166   4.132   4.938   6.636  0.2168 -0.2330 -0.2670
 5725ntf    fn429167   4.299   5.024   6.737 -0.3012  0.5438  0.2870
 5725ntf    fn429168   4.147   4.920   6.849  0.0284  0.2681  0.4496
 5725ntf    on529169   4.142   5.251   6.694  0.1902 -0.4124  0.0590
 5725ntf    on529170   3.942   5.113   6.734  0.2860 -0.9331  1.0048
 5725ntf    on529171   4.085   5.143   7.174  0.2696  0.2494  0.5193
 5725ntf    on529172   3.886   5.104   7.040 -0.2947  0.6723  0.3077
 5725ntf    fn429173   3.907   5.392   6.971 -0.0344 -1.1229 -0.0616
 5725ntf    fn429174   3.916   5.381   7.181 -0.3967 -0.1680 -0.6058
 5725ntf    fn429175   4.097   5.418   7.083  0.6741 -0.5399  0.7532
 5726ntf    cn129176   6.609   1.188   7.214 -0.0732 -0.2520  0.0330
 5726ntf    sn229177   6.480   1.152   7.091  0.0837  0.3609 -0.3152
 5726ntf    nn329178   6.349   1.166   7.178  0.1959 -0.5938  0.0150
 5726ntf    sn229179   6.218   1.246   7.145  0.3638 -0.1489  0.4179
 5726ntf    cn129180   6.237   1.407   7.227  0.0802  0.0074  0.1806
 5726ntf    fn429181   6.727   1.147   7.173  0.1602  0.6066 -0.1812
 5726ntf    fn429182   6.615   1.317   7.246  0.2824 -0.1435 -0.4673
 5726ntf    fn429183   6.587   1.133   7.332  0.1639 -0.5912 -0.0821
 5726ntf    on529184   6.501   1.256   6.993  0.3204  0.5045 -0.1146
 5726ntf    on529185   6.504   1.018   7.045  0.1996  0.1306  0.4038
 5726ntf    on529186   6.101   1.199   7.216 -0.2500  0.1227 -0.3935
 5726ntf    on529187   6.201   1.276   7.005  0.6458  0.0061  0.4172
 5726ntf    fn429188   6.360   1.455   7.210 -0.1556  0.3562 -0.6070
 5726ntf    fn429189   6.154   1.501   7.185  0.5783  0.5487  0.3874
 5726ntf    fn429190   6.214   1.400   7.357 -0.2179 -0.4671  0.1042
 5727ntf    cn129191   3.359   6.738   5.574 -0.5492  0.1551 -0.1952
 5727ntf    sn229192   3.266   6.814   5.711 -0.2315  0.2129 -0.0095
 5727ntf    nn329193   3.386   6.886   5.782  0.2732 -0.2857 -0.3457
 5727ntf    sn229194   3.412   7.040   5.794 -0.1905 -0.2183 -0.1762
 5727ntf    cn129195   3.319   7.080   5.945 -0.1544  0.2625 -0.2796
 5727ntf    fn429196   3.463   6.665   5.611 -0.1394  0.7226 -0.2126
 5727ntf    fn429197   3.290   6.654   5.499 -0.4038  0.2008 -0.3804
 5727ntf    fn429198   3.414   6.837   5.506 -0.6414  0.3955  0.0765
 5727ntf    on529199   3.181   6.906   5.640 -0.3695  0.1236  0.0407
 5727ntf    on529200   3.209   6.703   5.783  0.2909 -0.0544 -0.0037
 5727ntf    on529201   3.357   7.129   5.694 -0.1344 -0.0151 -0.0269
 5727ntf    on529202   3.546   7.073   5.838 -0.3302  0.1120  0.0075
 5727ntf    fn429203   3.187   7.070   5.937 -0.1782  0.3759 -0.0429
 5727ntf    fn429204   3.338   6.993   6.042 -0.1320  0.4810 -0.0892
 5727ntf    fn429205   3.343   7.200   5.997  0.3070 -0.0545  0.2469
 5728ntf    cn129206   2.865   0.965   1.915 -0.2358  0.2419 -0.1112
 5728ntf    sn229207   2.996   1.090   1.907 -0.0643  0.0583 -0.1908
 5728ntf    nn329208   2.951   1.189   2.021 -0.1328 -0.0842 -0.0942
 5728ntf    sn229209   3.020   1.208   2.161 -0.0312 -0.1350 -0.1376
 5728ntf    cn129210   3.181   1.270   2.102 -0.1042 -0.1363 -0.3414
 5728ntf    fn429211   2.883   0.867   1.827  0.5771  0.4700 -0.2087
 5728ntf    fn429212   2.847   0.909   2.033  0.7416  0.0396 -0.0537
 5728ntf    fn429213   2.745   1.013   1.883 -0.3037 -0.2404 -0.6108
 5728ntf    on529214   3.120   1.018   1.916 -0.3965 -0.4616  0.2774
 5728ntf    on529215   2.967   1.142   1.776 -0.3743  0.8204  0.1710
 5728ntf    on529216   3.040   1.082   2.226  0.0493  0.2093  0.5112
 5728ntf    on529217   2.955   1.316   2.231  0.0788 -0.3080  0.2307
 5728ntf    fn429218   3.273   1.180   2.072  0.4715  0.2576  0.2219
 5728ntf    fn429219   3.158   1.339   1.992  0.1738  0.2109 -0.1829
 5728ntf    fn429220   3.249   1.351   2.182 -0.4686  0.1704 -0.3383
 5729ntf    cn129221   3.330   0.413   6.089  0.2519 -0.2812 -0.1389
 5729ntf    sn229222   3.311   0.566   5.992 -0.2480 -0.0637  0.3008
 5729ntf    nn329223   3.154   0.575   5.995 -0.2624 -0.2059 -0.0461
 5729ntf    sn229224   3.061   0.665   6.083 -0.1568 -0.1068 -0.0344
 5729ntf    cn129225   3.057   0.806   5.968  0.2540 -0.1093 -0.0523
 5729ntf    fn429226   3.281   0.302   6.037  0.2375 -0.3924  0.1151
 5729ntf    fn429227   3.460   0.391   6.099  0.2570 -0.1677  0.0498
 5729ntf    fn429228   3.290   0.425   6.214  0.7204  0.5738 -0.0584
 5729ntf    on529229   3.383   0.658   6.077  0.2308 -0.2130  0.0630
 5729ntf    on529230   3.367   0.535   5.863  0.5118 -0.4554  0.7123
 5729ntf    on529231   3.121   0.713   6.204  0.0341  0.1984 -0.2507
 5729ntf    on529232   2.920   0.632   6.086 -0.2167  0.1338 -0.1287
 5729ntf    fn429233   2.978   0.904   6.008  0.7412  0.2468  0.0507
 5729ntf    fn429234   3.169   0.871   5.941  0.1416  0.0514 -0.1376
 5729ntf    fn429235   3.005   0.766   5.853  0.6442 -0.4630 -0.1055
 5730ntf    cn129236   6.252   6.340   1.409  0.1173 -0.3549  0.0384
 5730ntf    sn229237   6.156   6.389   1.556 -0.3159  0.0905 -0.3894
 5730ntf    nn329238   6.274   6.399   1.659 -0.3747 -0.0005 -0.3136
 5730ntf    sn229239   6.370   6.519   1.688 -0.7618  0.3688 -0.5472
 5730ntf    cn129240   6.285   6.606   1.823 -0.0310  0.3365 -0.0570
 5730ntf    fn429241   6.347   6.426   1.376  0.2554 -0.4249  0.2490
 5730ntf    fn429242   6.311   6.222   1.423 -0.4835 -0.6319  0.2698
 5730ntf    fn429243   6.168   6.332   1.307 -0.1832 -0.6186  0.3045
 5730ntf    on529244   6.099   6.514   1.512  0.1639  0.3867 -0.1752
 5730ntf    on529245   6.070   6.277   1.587  0.4015 -0.5114 -0.5590
 5730ntf    on529246   6.367   6.627   1.592  0.5395  0.1154 -0.8931
 5730ntf    on529247   6.501   6.475   1.731 -0.6930  0.3570 -0.7647
 5730ntf    fn429248   6.365   6.694   1.881  0.7076  0.1231 -0.7279
 5730ntf    fn429249   6.180   6.669   1.772 -0.0793  0.5193  0.2631
 5730ntf    fn429250   6.240   6.527   1.919 -0.5707  0.3121 -0.3221
 5731ntf    cn129251   3.430   2.806   5.174  0.0962 -0.3568 -0.4761
 5731ntf    sn229252   3.467   2.712   5.325  0.1154 -0.1096 -0.3260
 5731ntf    nn329253   3.471   2.835   5.422  0.3506 -0.2090 -0.2091
 5731ntf    sn229254   3.354   2.916   5.488  0.2827 -0.4286 -0.0624
 5731ntf    cn129255   3.349   3.083   5.417  0.1534 -0.3463  0.1366
 5731ntf    fn429256   3.481   2.751   5.065  0.3996  0.1100 -0.5741
 5731ntf    fn429257   3.300   2.822   5.155  0.0943 -0.9324 -0.9755
 5731ntf    fn429258   3.495   2.921   5.187 -0.0265 -0.3856  0.4504
 5731ntf    on529259   3.364   2.613   5.341  0.4886 -0.4986 -0.3110
 5731ntf    on529260   3.596   2.655   5.296  0.1795 -0.2989  0.3157
 5731ntf    on529261   3.378   2.944   5.628  0.8583 -0.4225 -0.1633
 5731ntf    on529262   3.227   2.856   5.454 -0.2259  0.7847 -0.3343
 5731ntf    fn429263   3.374   3.079   5.287  0.0070 -0.2880  0.1082
 5731ntf    fn429264   3.236   3.146   5.445 -0.0785 -0.3784 -0.7024
 5731ntf    fn429265   3.445   3.159   5.469 -0.1338 -0.1539  0.3861
 5732ntf    cn129266   3.532   2.973   2.683  0.3140 -0.0149  0.1870
 5732ntf    sn229267   3.439   3.128   2.659  0.1048 -0.2189 -0.3335
 5732ntf    nn329268   3.310   3.057   2.604 -0.5075 -0.0594  0.8529
 5732ntf    sn229269   3.166   3.118   2.588 -0.4531 -0.2290 -0.4637
 5732ntf    cn129270   3.150   3.096   2.409  0.3276 -0.1666 -0.5460
 5732ntf    fn429271   3.663   2.982   2.698  0.3648  0.0867 -0.2963
 5732ntf    fn429272   3.490   2.893   2.779  0.0410 -0.0221  0.0628
 5732ntf    fn429273   3.532   2.901   2.572  0.0499  0.4055 -0.0896
 5732ntf    on529274   3.437   3.183   2.792 -0.5382 -1.1526  0.0522
 5732ntf    on529275   3.520   3.193   2.559  0.4818 -0.4448 -0.1763
 5732ntf    on529276   3.152   3.260   2.604 -0.5538 -0.2926  0.0423
 5732ntf    on529277   3.066   3.037   2.653 -0.3755  0.1247  0.1055
 5732ntf    fn429278   3.048   3.159   2.354  0.0662  0.2101  0.3616
 5732ntf    fn429279   3.253   3.158   2.354  0.1138  0.3973 -0.3100
 5732ntf    fn429280   3.148   2.968   2.373  0.2036 -0.4035  0.2746
 5733ntf    cn129281   4.848   3.669   3.159  0.3650 -0.0256 -0.2797
 5733ntf    sn229282   4.719   3.791   3.117  0.2367  0.0101  0.2170
 5733ntf    nn329283   4.807   3.916   3.085 -0.0216  0.1906  0.2140
 5733ntf    sn229284   4.812   4.042   3.179  0.0435  0.1180  0.3069
 5733ntf    cn129285   4.672   4.129   3.102 -0.2479 -0.2099  0.4659
 5733ntf    fn429286   4.936   3.731   3.236 -0.1138 -0.2579  0.4609
 5733ntf    fn429287   4.806   3.558   3.217 -0.5385  0.2704 -0.3506
 5733ntf    fn429288   4.925   3.627   3.060  0.1848 -0.3936 -0.2666
 5733ntf    on529289   4.661   3.751   2.991  0.1962 -0.2832  0.3277
 5733ntf    on529290   4.627   3.795   3.229  0.3923 -0.0365  0.3470
 5733ntf    on529291   4.930   4.123   3.163  0.2253 -0.1624  0.2185
 5733ntf    on529292   4.762   4.027   3.314 -0.3983 -0.2716  0.1025
 5733ntf    fn429293   4.669   4.257   3.134 -0.4739 -0.2351  0.5469
 5733ntf    fn429294   4.691   4.124   2.971 -0.6052  0.5472  0.3828
 5733ntf    fn429295   4.551   4.083   3.129 -0.3669 -0.4123 -0.3898
 5734ntf    cn129296   4.263   6.623   2.761  0.1867 -0.1756 -0.0976
 5734ntf    sn229297   4.428   6.578   2.824  0.4209  0.1046 -0.4985
 5734ntf    nn329298   4.514   6.697   2.770 -0.0229  0.6732  0.0271
 5734ntf    sn229299   4.582   6.713   2.629 -0.1208  0.0624 -0.0922
 5734ntf    cn129300   4.550   6.886   2.582  0.3300  0.0218 -0.5580
 5734ntf    fn429301   4.256   6.652   2.632  0.6196 -0.1108 -0.1079
 5734ntf    fn429302   4.162   6.539   2.775 -0.3867  0.5434  0.1356
 5734ntf    fn429303   4.230   6.735   2.824  0.1276 -0.6042  0.6410
 5734ntf    on529304   4.415   6.594   2.967  0.1467  0.6658 -0.5844
 5734ntf    on529305   4.454   6.448   2.767  0.1425 -0.0900 -0.1884
 5734ntf    on529306   4.520   6.625   2.532 -0.9707  0.4382  0.0962
 5734ntf    on529307   4.725   6.705   2.641 -0.0854 -0.1627 -0.6074
 5734ntf    fn429308   4.612   6.925   2.472  0.4332  0.8135 -0.2263
 5734ntf    fn429309   4.421   6.910   2.561  0.4298  1.0107 -0.1022
 5734ntf    fn429310   4.608   6.963   2.672 -0.2158 -0.3617  0.1340
 5735ntf    cn129311   2.825   3.126   2.162 -0.2337 -0.2184 -0.0756
 5735ntf    sn229312   2.693   3.120   2.038 -0.1910 -0.0565 -0.1290
 5735ntf    nn329313   2.583   3.181   2.133 -0.0013  0.0988 -0.0069
 5735ntf    sn229314   2.430   3.188   2.098  0.0035  0.0050 -0.0449
 5735ntf    cn129315   2.369   3.037   2.179 -0.0412 -0.1267 -0.3228
 5735ntf    fn429316   2.941   3.086   2.112  0.0062  0.1974  0.1365
 5735ntf    fn429317   2.854   3.248   2.207 -0.2329 -0.3431  0.2706
 5735ntf    fn429318   2.801   3.058   2.273 -0.3287 -0.2702 -0.1280
 5735ntf    on529319   2.732   3.203   1.927  0.0972 -0.3430 -0.2400
 5735ntf    on529320   2.682   2.977   2.022  0.3541 -0.2327  0.9663
 5735ntf    on529321   2.403   3.180   1.956  0.4243  0.3464 -0.1448
 5735ntf    on529322   2.354   3.288   2.167 -0.6376 -0.0685 -0.6316
 5735ntf    fn429323   2.361   3.066   2.308  0.6724 -0.6419 -0.1571
 5735ntf    fn429324   2.247   2.997   2.145 -0.1203  0.1411 -0.3591
 5735ntf    fn429325   2.447   2.930   2.172  0.1516 -0.0066  0.0108
 5736ntf    cn129326   0.066   1.434   2.941 -0.0518 -0.2913  0.1877
 5736ntf    sn229327   0.123   1.486   2.776 -0.3546  0.1270  0.2143
 5736ntf    nn329328  -0.008   1.541   2.709  0.0990  0.1387 -0.6682
 5736ntf    sn229329  -0.024   1.693   2.671 -0.0780  0.3645  0.2932
 5736ntf    cn129330  -0.177   1.685   2.574  0.4048 -0.0614 -0.4526
 5736ntf    fn429331   0.032   1.306   2.939 -0.9018 -0.0817  0.9032
 5736ntf    fn429332   0.153   1.461   3.037 -0.2668  0.1429  0.2619
 5736ntf    fn429333  -0.047   1.495   2.974  0.0067  0.1489 -0.4011
 5736ntf    on529334   0.225   1.585   2.803 -0.0466 -0.1625  0.1101
 5736ntf    on529335   0.172   1.361   2.725  0.3311  0.3323  0.3517
 5736ntf    on529336   0.072   1.740   2.574 -0.0042 -0.5386 -0.0813
 5736ntf    on529337  -0.059   1.781   2.779  0.0470  0.3416  0.3528
 5736ntf    fn429338  -0.184   1.792   2.496  0.4495  0.1717 -0.1405
 5736ntf    fn429339  -0.178   1.578   2.497  0.3761 -0.2566 -0.1821
 5736ntf    fn429340  -0.280   1.688   2.657  0.2487  0.4128 -0.6568
 5737ntf    cn129341   6.157   3.576   0.941  0.1365 -0.2892 -0.2604
 5737ntf    sn229342   6.025   3.458   0.903  0.0007 -0.2266  0.0220
 5737ntf    nn329343   6.089   3.325   0.958  0.1444 -0.1256  0.0989
 5737ntf    sn229344   6.194   3.232   0.888  0.0369  0.0070 -0.2415
 5737ntf    cn129345   6.086   3.155   0.763 -0.0717 -0.0542 -0.1103
 5737ntf    fn429346   6.195   3.552   1.065  0.2908  0.5665 -0.1331
 5737ntf    fn429347   6.260   3.567   0.858  0.3987 -0.4876  0.0822
 5737ntf    fn429348   6.111   3.700   0.935 -0.0612 -0.3346  0.3114
 5737ntf    on529349   5.924   3.508   0.994 -0.4950 -0.0074 -0.6374
 5737ntf    on529350   6.001   3.467   0.761  0.1854  0.0447  0.0074
 5737ntf    on529351   6.242   3.130   0.978 -0.3198  0.0318 -0.0198
 5737ntf    on529352   6.284   3.307   0.804 -0.1840  0.2467 -0.2674
 5737ntf    fn429353   6.133   3.038   0.724 -0.7926 -0.3019 -0.2438
 5737ntf    fn429354   5.965   3.125   0.808  0.0140 -0.5591 -0.2081
 5737ntf    fn429355   6.067   3.236   0.660  0.5213  0.9078  0.5153
 5738ntf    cn129356   6.586   7.028   6.675  0.0133  0.1428  0.1971
 5738ntf    sn229357   6.513   7.124   6.539  0.0338 -0.0683  0.0361
 5738ntf    nn329358   6.583   7.043   6.425  0.3785 -0.1842  0.3270
 5738ntf    sn229359   6.697   7.095   6.331  0.1366 -0.1518  0.0492
 5738ntf    cn129360   6.600   7.193   6.213 -0.1299  0.0163  0.4062
 5738ntf    fn429361   6.718   7.020   6.664  0.0541  0.8013  0.1286
 5738ntf    fn429362   6.573   7.079   6.796  0.1927  0.1477  0.2147
 5738ntf    fn429363   6.532   6.907   6.682  0.0094  0.1657  0.5721
 5738ntf    on529364   6.373   7.092   6.548 -0.0609  0.3534  0.1142
 5738ntf    on529365   6.548   7.263   6.560  0.2471 -0.1053 -0.0764
 5738ntf    on529366   6.750   7.000   6.236  0.2265 -0.3184  0.2661
 5738ntf    on529367   6.790   7.179   6.403  0.3846 -0.2069 -0.2056
 5738ntf    fn429368   6.486   7.237   6.263 -0.0494  0.3959  0.2642
 5738ntf    fn429369   6.655   7.299   6.155  0.3127 -0.5275 -0.1807
 5738ntf    fn429370   6.558   7.119   6.111  0.3562 -0.1708  0.3387
 5739ntf    cn129371   3.309   6.628   2.437 -0.1954  0.1044 -0.4249
 5739ntf    sn229372   3.246   6.459   2.414 -0.4714  0.1445  0.0331
 5739ntf    nn329373   3.363   6.409   2.323  0.1144  1.0917  0.2584
 5739ntf    sn229374   3.507   6.367   2.369 -0.0347  0.1474 -0.1160
 5739ntf    cn129375   3.610   6.498   2.295  0.1130  0.2566  0.2806
 5739ntf    fn429376   3.219   6.708   2.492  0.1117  0.0913  0.0992
 5739ntf    fn429377   3.407   6.616   2.525 -0.4448 -0.0932 -0.1719
 5739ntf    fn429378   3.362   6.686   2.331  0.1779  0.1477 -0.2147
 5739ntf    on529379   3.239   6.391   2.541 -0.1671 -0.0159 -0.0374
 5739ntf    on529380   3.121   6.478   2.344 -0.5223 -0.3354 -0.0112
 5739ntf    on529381   3.547   6.244   2.304 -0.7782 -0.7575  1.1038
 5739ntf    on529382   3.543   6.383   2.508  0.5785 -0.1533 -0.2359
 5739ntf    fn429383   3.740   6.474   2.302  0.0835  0.1245  0.3902
 5739ntf    fn429384   3.580   6.509   2.167 -0.1452 -0.0045  0.3149
 5739ntf    fn429385   3.598   6.618   2.349  0.0299  0.6346 -0.5775
 5740ntf    cn129386   3.531   3.477   0.351  0.1023 -0.2936  0.0105
 5740ntf    sn229387   3.695   3.479   0.273  0.0597 -0.2416 -0.0768
 5740ntf    nn329388   3.689   3.339   0.203 -0.1305 -0.2805  0.0146
 5740ntf    sn229389   3.698   3.303   0.050 -0.1566 -0.1581 -0.0159
 5740ntf    cn129390   3.520   3.285   0.015 -0.2217  0.2748  0.0860
 5740ntf    fn429391   3.435   3.458   0.262  0.1016 -0.3074  0.0140
 5740ntf    fn429392   3.532   3.369   0.427  0.4530 -0.2596  0.0533
 5740ntf    fn429393   3.500   3.586   0.419 -0.6673 -0.2147 -0.4525
 5740ntf    on529394   3.700   3.598   0.191 -0.9051 -0.0294  0.1590
 5740ntf    on529395   3.792   3.484   0.378  0.1036 -0.3760 -0.1118
 5740ntf    on529396   3.749   3.169   0.035 -0.0970 -0.1307 -0.0533
 5740ntf    on529397   3.739   3.409  -0.038  0.0195 -0.0752  0.1651
 5740ntf    fn429398   3.493   3.277  -0.115  0.1448 -0.6400  0.0548
 5740ntf    fn429399   3.470   3.173   0.065 -0.0865  0.4198  0.5492
 5740ntf    fn429400   3.444   3.386   0.053 -0.1871  0.2314  0.2717
 5741ntf    cn129401   7.251   4.395   6.928 -0.1861  0.0214  0.0865
 5741ntf    sn229402   7.311   4.250   6.836 -0.0394 -0.1560  0.4617
 5741ntf    nn329403   7.259   4.124   6.915 -0.4419 -0.3363 -0.0827
 5741ntf    sn229404   7.319   4.054   7.043 -0.0705  0.0685 -0.0321
 5741ntf    cn129405   7.214   4.124   7.174 -0.2975  0.0424 -0.1998
 5741ntf    fn429406   7.120   4.398   6.947 -0.1444 -0.8848  0.6028
 5741ntf    fn429407   7.305   4.418   7.046  0.0216 -0.1596  0.0273
 5741ntf    fn429408   7.278   4.505   6.860 -0.3306 -0.0726 -0.1244
 5741ntf    on529409   7.248   4.244   6.707  0.3293 -0.0350  0.2766
 5741ntf    on529410   7.454   4.266   6.826 -0.0194 -0.7716 -0.4308
 5741ntf    on529411   7.451   4.098   7.080  0.0977 -0.1585 -0.3598
 5741ntf    on529412   7.289   3.914   7.057  0.2018  0.0406  0.2619
 5741ntf    fn429413   7.232   4.067   7.292 -0.3141 -0.4098 -0.4122
 5741ntf    fn429414   7.240   4.253   7.180 -0.6452  0.1262 -0.4579
 5741ntf    fn429415   7.087   4.119   7.138 -0.5191  0.5184  0.5024
 5742ntf    cn129416   4.427   1.576   2.998  0.2717 -0.1469 -0.0659
 5742ntf    sn229417   4.542   1.717   3.003 -0.1954  0.2263  0.3681
 5742ntf    nn329418   4.617   1.686   3.137  0.1661  0.4249  0.2135
 5742ntf    sn229419   4.735   1.777   3.185  0.2523  0.3651  0.1163
 5742ntf    cn129420   4.648   1.861   3.321 -0.0584 -0.4124  0.4043
 5742ntf    fn429421   4.358   1.563   3.111 -0.3456 -0.2072 -0.4457
 5742ntf    fn429422   4.346   1.571   2.893  0.4892  0.6361 -0.2752
 5742ntf    fn429423   4.506   1.470   2.997  0.7110  0.1810 -0.6512
 5742ntf    on529424   4.623   1.690   2.887 -1.0931 -0.2055 -0.1671
 5742ntf    on529425   4.466   1.840   3.001  0.3339  0.5497 -0.5845
 5742ntf    on529426   4.772   1.890   3.104 -0.5107  0.7437  0.2880
 5742ntf    on529427   4.842   1.701   3.245 -0.2359 -0.6272 -0.2601
 5742ntf    fn429428   4.542   1.919   3.266  0.5083 -0.0750 -0.3623
 5742ntf    fn429429   4.612   1.768   3.407 -0.0295 -0.3730  0.4588
 5742ntf    fn429430   4.702   1.956   3.396 -0.1152  0.0944 -0.1909
 5743ntf    cn129431   3.017   3.044   5.747  0.3424  0.1099  0.2717
 5743ntf    sn229432   2.960   3.178   5.856  0.2557 -0.0842  0.4665
 5743ntf    nn329433   3.097   3.214   5.924  0.4500 -0.2530  0.1654
 5743ntf    sn229434   3.160   3.166   6.059  0.0877 -0.4557  0.2624
 5743ntf    cn129435   3.331   3.219   6.026 -0.1305 -0.0820 -0.2848
 5743ntf    fn429436   2.920   2.995   5.672  0.6828 -0.1172 -0.0242
 5743ntf    fn429437   3.116   3.090   5.673  0.0075  0.3097 -0.0520
 5743ntf    fn429438   3.063   2.939   5.815 -0.3536 -0.1843  0.2935
 5743ntf    on529439   2.905   3.287   5.780  0.1631 -0.2979  0.2254
 5743ntf    on529440   2.870   3.111   5.946 -0.0121 -0.1199  0.1755
 5743ntf    on529441   3.172   3.022   6.064 -0.1308 -0.4796  0.1327
 5743ntf    on529442   3.124   3.231   6.183  0.4287  0.3145 -0.0402
 5743ntf    fn429443   3.410   3.189   6.128  0.4506  0.3448 -0.6109
 5743ntf    fn429444   3.380   3.164   5.916  0.1472  0.1185 -0.2592
 5743ntf    fn429445   3.335   3.351   6.026 -0.0481 -0.0732  0.7548
 5744ntf    cn129446   2.106   5.052   0.424  0.0324 -0.3696  0.4408
 5744ntf    sn229447   1.973   4.929   0.444 -0.0802 -0.3726 -0.3249
 5744ntf    nn329448   1.958   4.925   0.600  0.5296  0.5760 -0.2319
 5744ntf    sn229449   1.842   4.978   0.690  0.3316  0.1002 -0.2037
 5744ntf    cn129450   1.741   4.827   0.697 -0.0646  0.3877  0.3969
 5744ntf    fn429451   2.066   5.155   0.498  0.3759 -0.2824  0.5052
 5744ntf    fn429452   2.222   5.021   0.479  0.4482  0.3417 -0.0178
 5744ntf    fn429453   2.129   5.101   0.304 -0.3398  0.1105  0.5609
 5744ntf    on529454   1.867   4.990   0.366 -0.3651 -0.0747  0.2883
 5744ntf    on529455   2.038   4.817   0.380  0.6372 -0.2244  0.1372
 5744ntf    on529456   1.758   5.081   0.633  0.3419  0.5232  0.5189
 5744ntf    on529457   1.873   4.997   0.830 -0.6130 -0.3349  0.0761
 5744ntf    fn429458   1.724   4.768   0.580 -0.3487  0.0453  0.6067
 5744ntf    fn429459   1.787   4.729   0.774 -0.4280 -0.3072 -0.2545
 5744ntf    fn429460   1.618   4.852   0.739 -0.2369 -0.1146  0.2015
 5745ntf    cn129461   5.204   1.326   6.404  0.3647 -0.2392  0.0342
 5745ntf    sn229462   5.236   1.501   6.443  0.0939 -0.1702 -0.0506
 5745ntf    nn329463   5.133   1.582   6.356 -0.1013 -0.4513 -0.0819
 5745ntf    sn229464   5.140   1.633   6.207 -0.2632 -0.1020  0.0310
 5745ntf    cn129465   5.201   1.802   6.236 -0.2534 -0.0682 -0.1875
 5745ntf    fn429466   5.073   1.308   6.416  0.2476  0.5190 -0.0059
 5745ntf    fn429467   5.234   1.284   6.283 -0.1621 -0.3419 -0.0627
 5745ntf    fn429468   5.256   1.238   6.488 -0.3436 -0.6301  0.0768
 5745ntf    on529469   5.204   1.521   6.582  0.1240 -0.0039 -0.0670
 5745ntf    on529470   5.373   1.527   6.405  0.0247  0.5393  0.1599
 5745ntf    on529471   5.007   1.646   6.152 -0.4413  0.2434  0.5281
 5745ntf    on529472   5.238   1.561   6.129  0.2113  0.3108  0.2429
 5745ntf    fn429473   5.215   1.876   6.127  0.0333 -0.1937 -0.2360
 5745ntf    fn429474   5.135   1.867   6.330  0.1325 -0.1895  0.1678
 5745ntf    fn429475   5.322   1.779   6.284 -0.0029 -0.2704 -0.8955
 5746ntf    cn129476   7.025   6.285   3.950 -0.0214  0.3085 -0.1485
 5746ntf    sn229477   7.047   6.401   3.811 -0.2691  0.2662 -0.2231
 5746ntf    nn329478   6.898   6.392   3.763 -0.3050 -0.3295 -0.0153
 5746ntf    sn229479   6.851   6.426   3.617 -0.3398 -0.4474 -0.0310
 5746ntf    cn129480   6.710   6.534   3.655  0.1706  0.1262  0.2515
 5746ntf    fn429481   7.135   6.276   4.023  0.2987  0.1114 -0.6485
 5746ntf    fn429482   6.932   6.325   4.035 -0.0568  0.4189 -0.2380
 5746ntf    fn429483   7.001   6.159   3.919  1.0063 -0.0029  0.2959
 5746ntf    on529484   7.077   6.529   3.870  0.5297  0.1855 -0.4516
 5746ntf    on529485   7.145   6.338   3.726 -0.3770 -0.8689  0.4664
 5746ntf    on529486   6.784   6.316   3.550 -0.0625 -0.4959 -0.2310
 5746ntf    on529487   6.939   6.517   3.549 -0.5236  0.0261  0.3640
 5746ntf    fn429488   6.607   6.475   3.715  0.0015 -0.1419 -0.2928
 5746ntf    fn429489   6.738   6.632   3.739 -0.4806  0.4220  0.1281
 5746ntf    fn429490   6.656   6.591   3.548  0.6939  0.2534  0.0550
 5747ntf    cn129491   1.578   3.756   0.004 -0.2708  0.5609  0.0668
 5747ntf    sn229492   1.454   3.868  -0.068 -0.2961  0.5424  0.0819
 5747ntf    nn329493   1.375   3.767  -0.159 -0.0870  0.0703  0.4204
 5747ntf    sn229494   1.345   3.781  -0.312  0.1237 -0.2187  0.3512
 5747ntf    cn129495   1.507   3.736  -0.382 -0.0908 -0.0436 -0.2689
 5747ntf    fn429496   1.538   3.640   0.054  0.0739  0.5965  0.4205
 5747ntf    fn429497   1.677   3.734  -0.082 -0.1859 -0.1466  0.3424
 5747ntf    fn429498   1.628   3.815   0.110 -0.1278  0.1945  0.2063
 5747ntf    on529499   1.380   3.911   0.048 -0.5491  0.0212  0.1198
 5747ntf    on529500   1.529   3.975  -0.128  0.3573  0.1375  0.1634
 5747ntf    on529501   1.311   3.911  -0.365  0.3775 -0.2102  0.2092
 5747ntf    on529502   1.262   3.674  -0.362  0.1717 -0.1756  0.1798
 5747ntf    fn429503   1.601   3.821  -0.345  0.1416 -0.3918 -0.0492
 5747ntf    fn429504   1.545   3.621  -0.329  0.7494  0.7789  0.9583
 5747ntf    fn429505   1.509   3.730  -0.514 -0.0481 -0.0600 -0.2676
 5748ntf    cn129506   5.998   1.321   5.022 -0.3533  0.5418  0.4499
 5748ntf    sn229507   6.092   1.458   5.096  0.2293  0.3518  0.0763
 5748ntf    nn329508   6.183   1.384   5.199 -0.2626 -0.0132  0.2546
 5748ntf    sn229509   6.308   1.294   5.168 -0.4883 -0.1924 -0.1266
 5748ntf    cn129510   6.236   1.129   5.195  0.0551 -0.4795 -0.4112
 5748ntf    fn429511   5.924   1.251   5.106  0.5433 -0.3218  0.5412
 5748ntf    fn429512   5.909   1.372   4.939 -0.3337  0.2166  0.2251
 5748ntf    fn429513   6.060   1.238   4.939 -0.5831  0.4436  0.3752
 5748ntf    on529514   6.154   1.529   4.987  0.4155 -0.1059 -0.1179
 5748ntf    on529515   5.983   1.515   5.172 -0.3308 -0.3780 -0.1735
 5748ntf    on529516   6.409   1.308   5.269 -0.0699 -0.0970 -0.5589
 5748ntf    on529517   6.350   1.292   5.030 -0.5124  0.7250 -0.1525
 5748ntf    fn429518   6.332   1.038   5.198  0.4166 -0.0786  0.2848
 5748ntf    fn429519   6.172   1.121   5.310  0.2854  0.2503 -0.2267
 5748ntf    fn429520   6.143   1.106   5.103  0.4088 -0.1230 -0.8584
 5749ntf    cn129521   7.147   7.217   2.526 -0.0226  0.0863 -0.3104
 5749ntf    sn229522   7.096   7.123   2.674  0.3046  0.1397 -0.1623
 5749ntf    nn329523   7.220   7.033   2.709 -0.2788 -0.4819  0.3122
 5749ntf    sn229524   7.240   6.885   2.662 -0.0666 -0.2962 -0.1922
 5749ntf    cn129525   7.395   6.882   2.567  0.2784 -0.0243  0.3584
 5749ntf    fn429526   7.045   7.283   2.474  0.1857  0.7925  0.1618
 5749ntf    fn429527   7.241   7.309   2.545 -0.2833  0.2648  0.1316
 5749ntf    fn429528   7.193   7.139   2.429 -0.3338 -0.1732 -0.2514
 5749ntf    on529529   7.085   7.230   2.770  0.3619 -0.4738  0.5256
 5749ntf    on529530   6.970   7.066   2.635  0.2330  0.4219 -0.3515
 5749ntf    on529531   7.142   6.839   2.566 -0.1429 -0.1423 -0.1884
 5749ntf    on529532   7.278   6.801   2.773 -0.0456  0.2821  0.2406
 5749ntf    fn429533   7.431   6.767   2.512 -0.1798 -0.2516  0.5203
 5749ntf    fn429534   7.400   6.971   2.469  0.0187 -0.6325 -0.2121
 5749ntf    fn429535   7.494   6.917   2.647  0.5773 -0.1949  0.0645
 5750ntf    cn129536   2.512   0.320   4.415 -0.0438  0.1652  0.4150
 5750ntf    sn229537   2.540   0.461   4.526 -0.7385  0.4154  0.2755
 5750ntf    nn329538   2.573   0.581   4.430 -0.3290 -0.1795 -0.3319
 5750ntf    sn229539   2.479   0.678   4.351 -0.4243 -0.3369 -0.4107
 5750ntf    cn129540   2.534   0.645   4.181 -0.0289  0.1731 -0.3842
 5750ntf    fn429541   2.522   0.210   4.487  0.3498 -0.0288  0.0648
 5750ntf    fn429542   2.388   0.326   4.370  0.1618 -0.4724 -0.2512
 5750ntf    fn429543   2.595   0.307   4.313 -0.1072 -0.3224  0.4236
 5750ntf    on529544   2.414   0.459   4.597 -0.8159 -0.1279  0.1204
 5750ntf    on529545   2.662   0.426   4.595 -0.3830  0.3881 -0.3647
 5750ntf    on529546   2.516   0.816   4.367 -0.0595 -0.4705 -0.1110
 5750ntf    on529547   2.340   0.639   4.349 -0.4383 -0.3332  0.3553
 5750ntf    fn429548   2.550   0.515   4.164  0.3460  0.1685 -0.0070
 5750ntf    fn429549   2.448   0.690   4.090 -0.6914  0.4582  0.3735
 5750ntf    fn429550   2.655   0.685   4.146  0.1572 -0.1658 -0.1362
 5751ntf    cn129551   6.229   2.485   1.409 -0.1841 -0.2700 -0.1982
 5751ntf    sn229552   6.223   2.524   1.587  0.0625 -0.1171 -0.2231
 5751ntf    nn329553   6.377   2.512   1.615  0.1745  0.7720 -0.4271
 5751ntf    sn229554   6.465   2.387   1.577 -0.0608  0.4873 -0.0443
 5751ntf    cn129555   6.553   2.382   1.735  0.0236  0.2101 -0.0999
 5751ntf    fn429556   6.241   2.355   1.386  0.2737 -0.1816 -0.4751
 5751ntf    fn429557   6.115   2.508   1.346  0.0123 -0.4998 -0.6399
 5751ntf    fn429558   6.322   2.554   1.344  0.1859 -0.5663  0.0112
 5751ntf    on529559   6.175   2.660   1.585  0.0336 -0.1208  0.2349
 5751ntf    on529560   6.143   2.422   1.650  0.8564 -0.8484 -0.3754
 5751ntf    on529561   6.569   2.405   1.479  0.7103 -0.0537  0.6680
 5751ntf    on529562   6.393   2.262   1.576  0.0382  0.4311 -0.5465
 5751ntf    fn429563   6.476   2.322   1.825 -0.0476 -0.3221 -0.5079
 5751ntf    fn429564   6.665   2.313   1.725  0.0209  0.1313  0.3691
 5751ntf    fn429565   6.575   2.506   1.775  0.0413  0.0127  0.5154
 5752ntf    cn129566   5.756   2.381   1.542 -0.2329 -0.1566  0.3776
 5752ntf    sn229567   5.591   2.367   1.616 -0.3102  0.1534  0.2653
 5752ntf    nn329568   5.623   2.429   1.757  0.1853 -0.0680  0.2519
 5752ntf    sn229569   5.590   2.573   1.808 -0.0795 -0.1544  0.3291
 5752ntf    cn129570   5.426   2.531   1.874  0.0027 -0.5009  0.3164
 5752ntf    fn429571   5.756   2.372   1.410 -0.3701 -0.3172  0.3870
 5752ntf    fn429572   5.815   2.492   1.583  0.0739 -0.1871  0.0275
 5752ntf    fn429573   5.837   2.285   1.585 -0.0377  0.0486  0.4663
 5752ntf    on529574   5.494   2.426   1.527  0.2240  0.0292 -0.4057
 5752ntf    on529575   5.593   2.223   1.609  0.3995  0.1505  0.4304
 5752ntf    on529576   5.570   2.681   1.715  0.2581  0.0766  0.5198
 5752ntf    on529577   5.650   2.607   1.935 -0.0160  0.5471  0.1186
 5752ntf    fn429578   5.340   2.487   1.784 -0.0170 -0.1055  0.1382
 5752ntf    fn429579   5.445   2.426   1.951  0.0320 -0.6623  0.0881
 5752ntf    fn429580   5.367   2.623   1.950  0.7278  0.2551 -0.0196
 5753ntf    cn129581   7.528   2.708   7.254 -0.2547 -0.2831  0.4761
 5753ntf    sn229582   7.369   2.663   7.330 -0.4772 -0.4484 -0.0790
 5753ntf    nn329583   7.328   2.558   7.221  0.1856 -0.3430 -0.4336
 5753ntf    sn229584   7.196   2.535   7.139 -0.1187 -0.3609  0.0542
 5753ntf    cn129585   7.237   2.371   7.070  0.1595 -0.1760 -0.2204
 5753ntf    fn429586   7.614   2.608   7.259  0.1291  0.0520  0.5933
 5753ntf    fn429587   7.506   2.732   7.126 -0.6754 -0.5146  0.5013
 5753ntf    fn429588   7.589   2.811   7.310 -0.5007  0.0475  0.1415
 5753ntf    on529589   7.397   2.605   7.459 -0.7629  0.4873  0.4138
 5753ntf    on529590   7.298   2.789   7.327  0.2428 -0.0566 -1.1476
 5753ntf    on529591   7.186   2.634   7.036 -0.1678 -1.1356 -0.7003
 5753ntf    on529592   7.087   2.513   7.230  0.1249  0.1725  0.4793
 5753ntf    fn429593   7.353   2.370   7.006  0.1591 -0.3623 -0.2177
 5753ntf    fn429594   7.247   2.280   7.165  0.2615  0.1411  0.0775
 5753ntf    fn429595   7.136   2.339   6.991 -0.0121  0.4084 -0.2499
 5754ntf    cn129596   6.765   1.594   0.741  0.2286 -0.1706  0.6033
 5754ntf    sn229597   6.602   1.674   0.736  0.1493 -0.3468  0.3251
 5754ntf    nn329598   6.548   1.631   0.595  0.8324 -0.7252  0.1719
 5754ntf    sn229599   6.480   1.493   0.562 -0.1560 -0.2520  0.1830
 5754ntf    cn129600   6.311   1.560   0.552 -0.2094 -0.4374 -0.1814
 5754ntf    fn429601   6.750   1.475   0.685  0.1202  0.1020  0.0448
 5754ntf    fn429602   6.855   1.656   0.666 -0.0492  0.1741  0.5549
 5754ntf    fn429603   6.804   1.588   0.867  0.5279  0.0609  0.5233
 5754ntf    on529604   6.529   1.635   0.854 -0.3182  0.3225  0.2607
 5754ntf    on529605   6.645   1.811   0.739 -0.6241 -0.0939  0.0600
 5754ntf    on529606   6.470   1.391   0.663 -0.4127 -0.4359 -0.0262
 5754ntf    on529607   6.515   1.451   0.429  1.1994  0.5841  0.2579
 5754ntf    fn429608   6.284   1.620   0.667  0.5889  0.5826 -0.5056
 5754ntf    fn429609   6.306   1.654   0.460 -0.2854  0.1638  0.4319
 5754ntf    fn429610   6.219   1.465   0.540 -0.2873 -0.4265  0.2947
 5755ntf    cn129611   4.365   5.952   2.014 -0.1298 -0.4733  0.0603
 5755ntf    sn229612   4.302   5.813   2.112  0.2219 -0.5525  0.1743
 5755ntf    nn329613   4.431   5.750   2.176  0.0262 -0.4221  0.7056
 5755ntf    sn229614   4.534   5.825   2.268  0.1345  0.2160  0.0788
 5755ntf    cn129615   4.575   5.695   2.388 -0.1124  0.1378  0.0800
 5755ntf    fn429616   4.276   5.987   1.922 -0.0074  0.2714  0.2151
 5755ntf    fn429617   4.380   6.064   2.083 -0.1721 -0.3625 -0.1071
 5755ntf    fn429618   4.480   5.928   1.954 -0.0922 -0.1245 -0.0133
 5755ntf    on529619   4.204   5.873   2.199  0.4148 -0.0194  0.0303
 5755ntf    on529620   4.241   5.727   2.014  0.3810 -0.2442 -0.1976
 5755ntf    on529621   4.481   5.930   2.352 -0.6356  0.7053 -0.9938
 5755ntf    on529622   4.654   5.858   2.196  0.2765 -0.1786  0.1309
 5755ntf    fn429623   4.610   5.586   2.321  0.1207  0.1600  0.1653
 5755ntf    fn429624   4.675   5.736   2.464 -0.1651  0.4403 -0.0113
 5755ntf    fn429625   4.477   5.660   2.470 -0.2310 -0.3963 -0.2814
 5756ntf    cn129626   6.544   5.648   4.958 -0.1670  0.1373 -0.0970
 5756ntf    sn229627   6.669   5.517   4.937 -0.3382  0.0046 -0.2860
 5756ntf    nn329628   6.780   5.587   5.023 -0.2845 -0.4921  0.0536
 5756ntf    sn229629   6.797   5.583   5.179  0.1596 -0.5358  0.0056
 5756ntf    cn129630   6.844   5.757   5.202 -0.3345 -0.3592 -0.3062
 5756ntf    fn429631   6.442   5.638   4.874 -0.0113 -0.3704 -0.2292
 5756ntf    fn429632   6.490   5.670   5.076  0.1566  0.2963  0.0239
 5756ntf    fn429633   6.606   5.762   4.932 -0.7061  0.3471 -0.4654
 5756ntf    on529634   6.622   5.391   4.990  0.2488 -0.2436 -0.3581
 5756ntf    on529635   6.718   5.512   4.802  0.5837  0.8272  0.0062
 5756ntf    on529636   6.914   5.509   5.219  0.4185  0.0225  0.2898
 5756ntf    on529637   6.675   5.567   5.253  0.0768  0.2932  0.0572
 5756ntf    fn429638   6.748   5.842   5.168  0.0775 -0.0558 -0.7361
 5756ntf    fn429639   6.861   5.776   5.332 -0.9530 -0.3913 -0.2186
 5756ntf    fn429640   6.949   5.805   5.137 -0.3677  0.3831  0.1726
 5757ntf    cn129641   5.820   5.763   4.262 -0.1308  0.1168 -0.2344
 5757ntf    sn229642   5.717   5.885   4.174  0.1264  0.2790 -0.3112
 5757ntf    nn329643   5.825   5.959   4.088  0.4149 -0.1887 -0.3565
 5757ntf    sn229644   5.907   6.091   4.114  0.0500  0.0654 -0.4914
 5757ntf    cn129645   5.784   6.221   4.083 -0.4129 -0.2725 -0.0867
 5757ntf    fn429646   5.837   5.649   4.198  0.7890  0.0764  0.0616
 5757ntf    fn429647   5.940   5.803   4.302 -0.2034  0.3190 -0.2180
 5757ntf    fn429648   5.756   5.732   4.374 -0.2496  0.9249 -0.0720
 5757ntf    on529649   5.631   5.793   4.104 -0.1913  0.0250  0.4003
 5757ntf    on529650   5.674   5.972   4.281  0.2068 -0.1900  0.1074
 5757ntf    on529651   6.000   6.119   4.007  0.2258  0.0121 -0.3540
 5757ntf    on529652   5.964   6.116   4.244 -0.0879  0.1450 -0.4469
 5757ntf    fn429653   5.669   6.215   4.149 -0.1832 -1.0406  0.2500
 5757ntf    fn429654   5.834   6.339   4.117 -0.0296 -0.4109 -0.1628
 5757ntf    fn429655   5.744   6.235   3.958 -0.1008  0.5026 -0.1046
 5758ntf    cn129656   1.279   2.880   0.103  0.3412  0.0449  0.0135
 5758ntf    sn229657   1.420   2.797   0.183  0.2178  0.0378  0.2239
 5758ntf    nn329658   1.522   2.863   0.084 -0.1862  0.3740  0.0259
 5758ntf    sn229659   1.630   2.801  -0.013 -0.1770  0.0847  0.2198
 5758ntf    cn129660   1.788   2.859   0.055  0.0686 -0.5836  0.2283
 5758ntf    fn429661   1.168   2.809   0.117  0.2370  0.1206 -0.4308
 5758ntf    fn429662   1.262   3.003   0.148 -0.1171  0.0504 -0.1644
 5758ntf    fn429663   1.288   2.884  -0.029  0.0419 -0.1983 -0.0152
 5758ntf    on529664   1.427   2.854   0.316  0.2121  0.5069  0.0259
 5758ntf    on529665   1.386   2.659   0.165  0.3014  0.0725 -0.2130
 5758ntf    on529666   1.623   2.859  -0.145 -0.0679  0.6107  0.4412
 5758ntf    on529667   1.648   2.658  -0.020 -0.1933  0.0982 -0.1061
 5758ntf    fn429668   1.788   2.991   0.047  0.2080 -0.5721  0.4043
 5758ntf    fn429669   1.805   2.830   0.183  0.6623  0.4861  0.4089
 5758ntf    fn429670   1.892   2.813  -0.012  0.0503 -0.4606  0.1145
 5759ntf    cn129671   2.492   6.468   2.436  0.1759 -0.2880  0.0975
 5759ntf    sn229672   2.572   6.607   2.523  0.3114 -0.1745 -0.2087
 5759ntf    nn329673   2.448   6.660   2.603  0.3616 -0.3342 -0.0237
 5759ntf    sn229674   2.400   6.628   2.749 -0.2550 -0.1647 -0.1865
 5759ntf    cn129675   2.489   6.753   2.846  0.1052 -0.4288 -0.1768
 5759ntf    fn429676   2.392   6.500   2.356  0.5071 -0.0973 -0.2427
 5759ntf    fn429677   2.581   6.413   2.355  0.0892  0.3431 -0.4334
 5759ntf    fn429678   2.441   6.375   2.515 -0.0220 -0.4237 -0.1922
 5759ntf    on529679   2.670   6.527   2.592  1.0392  0.7014 -0.2184
 5759ntf    on529680   2.622   6.695   2.420 -0.1361  0.1824 -0.1256
 5759ntf    on529681   2.457   6.509   2.805  0.1979 -0.0834 -0.4696
 5759ntf    on529682   2.259   6.653   2.771 -0.0121  0.7594  0.3831
 5759ntf    fn429683   2.451   6.879   2.832  0.1831 -0.4371 -0.4680
 5759ntf    fn429684   2.505   6.730   2.975 -0.1349  0.4761  0.0261
 5759ntf    fn429685   2.616   6.740   2.809 -0.0279 -0.3096 -0.6890
 5760ntf    cn129686   7.181   3.936   5.002 -0.0410 -0.1334 -0.2371
 5760ntf    sn229687   7.068   4.066   4.945  0.0263  0.0198 -0.0197
 5760ntf    nn329688   7.068   4.147   5.080 -0.0223 -0.8197  0.4915
 5760ntf    sn229689   6.954   4.227   5.152  0.0161 -0.1862 -0.1393
 5760ntf    cn129690   6.914   4.103   5.279 -0.0920  0.0360  0.0434
 5760ntf    fn429691   7.216   3.858   4.901 -0.0424 -0.4664  0.0165
 5760ntf    fn429692   7.286   3.989   5.062  0.0561 -0.6864  0.0857
 5760ntf    fn429693   7.118   3.854   5.085 -0.5060 -0.0074 -0.4630
 5760ntf    on529694   7.148   4.128   4.842 -0.1025 -0.2929 -0.3084
 5760ntf    on529695   6.945   4.000   4.910 -0.2798  0.3290  0.4563
 5760ntf    on529696   6.832   4.237   5.076 -0.2765  0.5034  0.4078
 5760ntf    on529697   6.998   4.345   5.222 -0.5574  0.0553 -0.1831
 5760ntf    fn429698   7.019   4.068   5.351  0.3570  0.0022 -0.6233
 5760ntf    fn429699   6.821   4.134   5.368  0.0804 -0.4635  0.3967
 5760ntf    fn429700   6.877   3.989   5.222  0.0357  0.0535 -0.0752
 5761ntf    cn129701   3.263   5.409   2.155 -0.1459 -0.2245  0.1429
 5761ntf    sn229702   3.141   5.300   2.076 -0.0007 -0.1495 -0.1838
 5761ntf    nn329703   3.240   5.237   1.972  0.3713  0.1350 -0.0030
 5761ntf    sn229704   3.304   5.096   1.945  0.0860  0.0027  0.0147
 5761ntf    cn129705   3.255   5.081   1.770  0.0031 -0.4618  0.0753
 5761ntf    fn429706   3.205   5.497   2.235 -0.3865 -0.5920  0.3806
 5761ntf    fn429707   3.352   5.338   2.222 -0.0448 -0.2330 -0.0016
 5761ntf    fn429708   3.344   5.476   2.075  0.4663 -0.3188  0.6745
 5761ntf    on529709   3.089   5.203   2.169  0.1750 -0.2104 -0.1487
 5761ntf    on529710   3.042   5.385   2.015 -0.4474 -0.2276  0.4227
 5761ntf    on529711   3.249   4.975   2.002 -0.6470  0.5661  0.5202
 5761ntf    on529712   3.448   5.099   1.935  0.0265  0.4088 -0.7727
 5761ntf    fn429713   3.132   5.124   1.746  0.2183  0.1613  0.0514
 5761ntf    fn429714   3.333   5.161   1.699 -0.3985 -0.1154  0.0133
 5761ntf    fn429715   3.272   4.957   1.727  0.2003 -0.3684 -0.1180
 5762ntf    cn129716   5.284   7.109   4.500 -0.0090 -0.0738 -0.3353
 5762ntf    sn229717   5.445   7.186   4.536  0.0050 -0.3002  0.0835
 5762ntf    nn329718   5.506   7.217   4.395 -0.2365 -0.0717  0.0284
 5762ntf    sn229719   5.543   7.352   4.324  0.2339 -0.1799  0.0639
 5762ntf    cn129720   5.392   7.372   4.224  0.1931  0.3046  0.2243
 5762ntf    fn429721   5.228   7.136   4.383  0.1671 -0.1370 -0.4335
 5762ntf    fn429722   5.292   6.980   4.529  0.0756  0.0157  0.0535
 5762ntf    fn429723   5.194   7.156   4.585 -0.1474 -0.3304 -0.3381
 5762ntf    on529724   5.406   7.298   4.618  0.0555  0.1029 -0.4481
 5762ntf    on529725   5.520   7.080   4.599 -0.2561 -0.6658 -0.2089
 5762ntf    on529726   5.646   7.341   4.224  0.3382  0.3367  0.1157
 5762ntf    on529727   5.545   7.462   4.417 -0.1780 -0.2957  0.2109
 5762ntf    fn429728   5.287   7.357   4.303 -0.1326  0.4004 -0.1901
 5762ntf    fn429729   5.386   7.498   4.181 -0.2746  0.2112  0.0183
 5762ntf    fn429730   5.375   7.291   4.121  0.1349  0.5828  0.0142
 5763ntf    cn129731   4.067   7.019   6.127  0.1538 -0.0299  0.0974
 5763ntf    sn229732   4.189   7.095   6.238  0.1302  0.0002  0.1034
 5763ntf    nn329733   4.102   7.156   6.354  0.4756  0.2180  0.2502
 5763ntf    sn229734   4.026   7.293   6.347  0.0375 -0.0414 -0.2168
 5763ntf    cn129735   4.160   7.416   6.352 -0.1908  0.1873  0.3988
 5763ntf    fn429736   3.997   6.928   6.193  0.3305 -0.1127  0.1710
 5763ntf    fn429737   3.977   7.097   6.070  0.1498 -0.2229 -0.1668
 5763ntf    fn429738   4.118   6.964   6.018 -0.3323 -0.1319 -0.0816
 5763ntf    on529739   4.263   6.982   6.287  0.1933 -0.2024 -0.4447
 5763ntf    on529740   4.260   7.192   6.158 -0.0564  0.2283  0.2150
 5763ntf    on529741   3.940   7.311   6.461 -0.0690 -0.3450 -0.2480
 5763ntf    on529742   3.957   7.323   6.224  0.0035  0.1331 -0.1553
 5763ntf    fn429743   4.210   7.441   6.232 -0.2450 -0.0597  0.3238
 5763ntf    fn429744   4.105   7.530   6.390 -0.5355  0.3254 -0.5005
 5763ntf    fn429745   4.263   7.384   6.429  0.4440  0.4406 -0.3342
 5764ntf    cn129746   3.563   7.386   0.391 -0.0632 -0.0661  0.4073
 5764ntf    sn229747   3.668   7.525   0.337  0.0021 -0.2495  0.0621
 5764ntf    nn329748   3.577   7.570   0.217  0.0581  0.0398  0.1289
 5764ntf    sn229749   3.489   7.700   0.203  0.1996  0.0888 -0.3461
 5764ntf    cn129750   3.619   7.818   0.159  0.3614  0.0258 -0.0380
 5764ntf    fn429751   3.442   7.423   0.430 -0.0642  0.4269 -0.0449
 5764ntf    fn429752   3.539   7.303   0.291  0.0514  0.2404  0.1215
 5764ntf    fn429753   3.622   7.318   0.488 -0.3463 -0.1201  0.5418
 5764ntf    on529754   3.665   7.609   0.453  0.1052  0.2024 -0.2590
 5764ntf    on529755   3.791   7.466   0.289 -0.3071 -0.6274 -0.2780
 5764ntf    on529756   3.439   7.756   0.326  0.5510 -0.3795  0.0121
 5764ntf    on529757   3.404   7.708   0.087  0.3881  0.4462 -0.4597
 5764ntf    fn429758   3.574   7.941   0.137 -0.0939 -0.2455 -0.6332
 5764ntf    fn429759   3.727   7.821   0.237  0.1153  0.0365  0.3039
 5764ntf    fn429760   3.668   7.781   0.042  0.2535  0.4517 -0.2215
 5765ntf    cn129761   2.370   2.936   3.895 -0.2488  0.1826  0.4561
 5765ntf    sn229762   2.313   2.818   4.021 -0.2550 -0.3008  0.0016
 5765ntf    nn329763   2.449   2.770   4.085 -0.2467  0.1067  0.2908
 5765ntf    sn229764   2.538   2.846   4.189  0.1284  0.2039 -0.0989
 5765ntf    cn129765   2.461   2.801   4.347  0.6310  0.2431  0.1600
 5765ntf    fn429766   2.410   3.049   3.952  0.0291  0.2029  0.2191
 5765ntf    fn429767   2.473   2.892   3.826 -0.3621  0.3274  0.1934
 5765ntf    fn429768   2.271   2.968   3.813  0.1266  0.3328  0.0577
 5765ntf    on529769   2.224   2.901   4.098  0.1580 -0.0875  0.2573
 5765ntf    on529770   2.255   2.713   3.941  0.2317 -0.7143  0.1828
 5765ntf    on529771   2.532   2.990   4.181 -0.1120  0.2368  0.6084
 5765ntf    on529772   2.666   2.783   4.209 -0.1381 -0.3075 -0.0088
 5765ntf    fn429773   2.406   2.680   4.348  0.1399  0.4629 -0.0582
 5765ntf    fn429774   2.546   2.821   4.447  0.3954  0.8161  0.2509
 5765ntf    fn429775   2.354   2.874   4.372  0.0540 -0.3257 -0.6012
 5766ntf    cn129776   3.500   7.077   1.690  0.1133 -0.1338  0.4389
 5766ntf    sn229777   3.643   6.965   1.697  0.0595 -0.2365 -0.0577
 5766ntf    nn329778   3.597   6.880   1.821 -0.6321  0.2099  0.0008
 5766ntf    sn229779   3.535   6.736   1.830  0.0308 -0.0848 -0.0521
 5766ntf    cn129780   3.421   6.778   1.965  0.1603  0.1388 -0.0113
 5766ntf    fn429781   3.387   7.012   1.669  0.3340 -0.4498  0.2204
 5766ntf    fn429782   3.492   7.150   1.800 -0.7044  0.6597 -0.1386
 5766ntf    fn429783   3.508   7.161   1.588 -0.1211 -0.2492  0.3267
 5766ntf    on529784   3.656   6.903   1.568  0.3487 -0.0042 -0.1425
 5766ntf    on529785   3.754   7.054   1.725 -0.0167 -0.0912 -0.2145
 5766ntf    on529786   3.617   6.628   1.880  0.7481  0.1563 -0.6859
 5766ntf    on529787   3.454   6.706   1.715 -0.2071  0.1115  0.0644
 5766ntf    fn429788   3.487   6.802   2.077  0.5144 -0.2801 -0.1258
 5766ntf    fn429789   3.353   6.888   1.938 -0.0115  0.0980  0.2484
 5766ntf    fn429790   3.333   6.681   1.986 -0.2061  0.6082  0.6561
 5767ntf    cn129791   1.335   0.017   7.506  0.0987  0.3736  0.0060
 5767ntf    sn229792   1.438   0.155   7.565  0.1538  0.2869  0.1131
 5767ntf    nn329793   1.342   0.272   7.523 -0.3056 -0.1140  0.0324
 5767ntf    sn229794   1.208   0.325   7.584 -0.1901  0.0959  0.1075
 5767ntf    cn129795   1.266   0.489   7.637  0.1431 -0.0015  0.0419
 5767ntf    fn429796   1.225   0.004   7.579  0.1159 -0.3771 -0.0976
 5767ntf    fn429797   1.296   0.038   7.382 -0.0870 -0.2916 -0.0511
 5767ntf    fn429798   1.388  -0.104   7.511  0.2429  0.4444  0.2384
 5767ntf    on529799   1.459   0.136   7.706 -0.4758  0.3836  0.2206
 5767ntf    on529800   1.554   0.139   7.481  0.1830 -0.3828  0.2791
 5767ntf    on529801   1.162   0.264   7.707  0.3488  0.1190  0.3245
 5767ntf    on529802   1.118   0.352   7.474 -0.0471 -0.0043 -0.0343
 5767ntf    fn429803   1.173   0.545   7.711  0.3710  0.6049 -0.1266
 5767ntf    fn429804   1.374   0.478   7.713  0.1415  0.1328  0.0634
 5767ntf    fn429805   1.282   0.578   7.541  0.1244 -0.5150 -0.4403
 5768ntf    cn129806   0.413   4.667   5.737 -0.4440 -0.1450  0.0589
 5768ntf    sn229807   0.497   4.623   5.581 -0.2516 -0.2320  0.1863
 5768ntf    nn329808   0.579   4.499   5.630  0.0236 -0.0797  0.1119
 5768ntf    sn229809   0.547   4.347   5.611 -0.0533 -0.0361 -0.1133
 5768ntf    cn129810   0.611   4.307   5.445  0.4317 -0.1821  0.1066
 5768ntf    fn429811   0.371   4.792   5.738  0.5361  0.1994 -0.5633
 5768ntf    fn429812   0.310   4.592   5.773  0.1287 -0.7843  0.3785
 5768ntf    fn429813   0.496   4.664   5.839  0.0012  0.2505 -0.2909
 5768ntf    on529814   0.387   4.599   5.491 -0.2444  0.2272  0.0497
 5768ntf    on529815   0.585   4.726   5.533 -0.2446 -0.1553  0.3624
 5768ntf    on529816   0.407   4.313   5.599  0.0752 -0.5906 -0.0871
 5768ntf    on529817   0.634   4.273   5.700 -0.3615 -0.2408  0.0186
 5768ntf    fn429818   0.574   4.186   5.405 -0.3479 -0.0488  0.3995
 5768ntf    fn429819   0.567   4.394   5.356  0.2182 -0.2630  0.1314
 5768ntf    fn429820   0.743   4.314   5.442  0.4259 -0.3393 -0.5951
 5769ntf    cn129821   5.334   0.053   7.084 -0.0802 -0.2379 -0.1469
 5769ntf    sn229822   5.428   0.201   7.131 -0.0264 -0.2609 -0.1830
 5769ntf    nn329823   5.349   0.318   7.063  0.0568 -0.3991 -0.5197
 5769ntf    sn229824   5.411   0.427   6.968  0.0535  0.0225 -0.0461
 5769ntf    cn129825   5.409   0.346   6.805  0.3228  0.0182 -0.0469
 5769ntf    fn429826   5.355  -0.045   7.169 -0.2364 -0.0200  0.1441
 5769ntf    fn429827   5.204   0.080   7.077 -0.0568 -0.0296  0.1930
 5769ntf    fn429828   5.366   0.007   6.964  0.3686  0.1102 -0.1647
 5769ntf    on529829   5.407   0.215   7.273 -0.1113  0.4597 -0.2612
 5769ntf    on529830   5.562   0.170   7.088  0.0878  0.6675 -0.5259
 5769ntf    on529831   5.546   0.465   6.998  0.0025  0.3450 -0.2267
 5769ntf    on529832   5.321   0.534   6.936 -0.1516 -0.2819 -0.5006
 5769ntf    fn429833   5.297   0.280   6.781  0.1353  0.2856  0.0888
 5769ntf    fn429834   5.418   0.439   6.712 -0.1067  0.4120  0.3044
 5769ntf    fn429835   5.505   0.256   6.786  0.3752  0.0019  0.2892
 5770ntf    cn129836   3.331   3.163   6.745  0.0576 -0.1001  0.0836
 5770ntf    sn229837   3.508   3.203   6.755  0.0151  0.0831  0.0986
 5770ntf    nn329838   3.505   3.342   6.828 -0.7229  0.0150  0.2025
 5770ntf    sn229839   3.551   3.369   6.975 -0.1297 -0.0286  0.0279
 5770ntf    cn129840   3.575   3.549   6.957 -0.2680 -0.0483 -0.3585
 5770ntf    fn429841   3.258   3.236   6.663  0.3025 -0.5148 -0.5074
 5770ntf    fn429842   3.327   3.037   6.705 -0.7165 -0.1136  0.1997
 5770ntf    fn429843   3.269   3.168   6.862 -0.3250 -0.1293 -0.1168
 5770ntf    on529844   3.572   3.097   6.828 -0.3053 -0.2891 -0.1629
 5770ntf    on529845   3.541   3.225   6.616  0.0178 -0.4705  0.0107
 5770ntf    on529846   3.682   3.324   7.017 -0.1241 -0.4067 -0.3953
 5770ntf    on529847   3.440   3.365   7.068  0.4359 -0.2591  0.7044
 5770ntf    fn429848   3.468   3.610   6.908 -0.5612  0.1543  0.5184
 5770ntf    fn429849   3.616   3.595   7.074  0.3722 -0.1892 -0.5223
 5770ntf    fn429850   3.673   3.563   6.869  0.0492  0.0005  0.0002
 5771ntf    cn129851   0.764   7.068   5.686 -0.3357 -0.2389 -0.0761
 5771ntf    sn229852   0.728   7.241   5.641  0.0282 -0.0982  0.1646
 5771ntf    nn329853   0.869   7.309   5.645 -0.1887  0.3493  0.2632
 5771ntf    sn229854   0.975   7.350   5.537  0.1412 -0.0113  0.4481
 5771ntf    cn129855   0.911   7.517   5.508  0.2651  0.0339  0.4350
 5771ntf    fn429856   0.849   7.013   5.601  0.4691  0.4926  0.2463
 5771ntf    fn429857   0.809   7.055   5.809  0.2411  0.6319 -0.1843
 5771ntf    fn429858   0.658   6.989   5.692 -0.4507 -0.0639  0.2085
 5771ntf    on529859   0.657   7.224   5.516  0.1680  0.0633  0.0632
 5771ntf    on529860   0.649   7.291   5.751 -0.0098 -0.2442  0.2040
 5771ntf    on529861   0.959   7.300   5.403 -0.0031  0.6076  0.2357
 5771ntf    on529862   1.105   7.362   5.597  0.2228  0.3059  0.2091
 5771ntf    fn429863   0.985   7.607   5.571  0.1296  0.2078  0.3460
 5771ntf    fn429864   0.909   7.549   5.379  0.7285 -0.3622  0.3262
 5771ntf    fn429865   0.782   7.521   5.536  0.0250  0.0840 -0.6274
 5772ntf    cn129866   0.239   5.984   3.966 -0.2993  0.2671 -0.1940
 5772ntf    sn229867   0.257   5.970   4.146 -0.4040  0.0236 -0.2019
 5772ntf    nn329868   0.359   6.086   4.174 -0.1532 -0.3424  0.4350
 5772ntf    sn229869   0.513   6.065   4.196 -0.0784 -0.3933 -0.1123
 5772ntf    cn129870   0.565   6.239   4.206  0.5485 -0.5589 -0.4008
 5772ntf    fn429871   0.133   5.922   3.917 -0.4799  0.4467 -0.0344
 5772ntf    fn429872   0.239   6.108   3.921  0.0923  0.1593 -0.4986
 5772ntf    fn429873   0.348   5.930   3.913 -0.1418  0.3326  0.0578
 5772ntf    on529874   0.123   6.001   4.188 -0.3638  0.6704 -0.5413
 5772ntf    on529875   0.294   5.835   4.179 -0.1140 -0.0029 -0.6253
 5772ntf    on529876   0.577   6.001   4.084  0.0364 -0.5351  0.0328
 5772ntf    on529877   0.542   6.021   4.330 -1.1400  0.0806  0.2804
 5772ntf    fn429878   0.514   6.312   4.108  0.0251 -0.2226  0.1072
 5772ntf    fn429879   0.528   6.292   4.322  0.0541 -0.1643 -0.7297
 5772ntf    fn429880   0.696   6.256   4.201  0.4877 -0.1199 -0.5872
 5773ntf    cn129881   1.704   2.316   2.771 -0.2048  0.0917 -0.1405
 5773ntf    sn229882   1.677   2.489   2.821  0.1093  0.0927  0.0236
 5773ntf    nn329883   1.750   2.567   2.706  0.4133  0.3227  0.3687
 5773ntf    sn229884   1.703   2.588   2.558  0.0661 -0.4936  0.3562
 5773ntf    cn129885   1.610   2.743   2.570 -0.0409 -0.5242 -0.0543
 5773ntf    fn429886   1.680   2.291   2.643  0.2841  0.4241 -0.3034
 5773ntf    fn429887   1.826   2.274   2.798 -0.2837  0.3792  0.6859
 5773ntf    fn429888   1.621   2.242   2.842 -0.0546 -0.3106 -0.3861
 5773ntf    on529889   1.533   2.494   2.823  0.0921 -0.1561 -0.4213
 5773ntf    on529890   1.747   2.497   2.947 -0.0313 -0.5071  0.1423
 5773ntf    on529891   1.605   2.495   2.508  0.2202 -0.2005 -0.5148
 5773ntf    on529892   1.818   2.622   2.478 -0.3009  0.3576  0.1767
 5773ntf    fn429893   1.676   2.842   2.628 -1.2512  0.2403  0.0671
 5773ntf    fn429894   1.563   2.790   2.456 -0.6405  0.2927  0.5132
 5773ntf    fn429895   1.502   2.724   2.644  0.0186 -0.4238  0.0595
 5774ntf    cn129896   3.712   6.791   4.020  0.0343  0.4309  0.0343
 5774ntf    sn229897   3.846   6.855   3.916 -0.2712  0.3948 -0.3816
 5774ntf    nn329898   3.943   6.732   3.901 -0.4045  0.1618  0.6272
 5774ntf    sn229899   4.098   6.713   3.919 -0.2999  0.1763 -0.2267
 5774ntf    cn129900   4.120   6.534   3.902  0.3056  0.2443 -0.2019
 5774ntf    fn429901   3.614   6.878   4.040  0.0599  0.4779 -0.0429
 5774ntf    fn429902   3.658   6.685   3.963  0.3170  0.0811  0.4060
 5774ntf    fn429903   3.751   6.763   4.144 -0.4704  0.3663  0.1827
 5774ntf    on529904   3.780   6.876   3.789 -0.1823  0.0795 -0.4813
 5774ntf    on529905   3.895   6.968   3.991  0.0385  0.3292 -0.4832
 5774ntf    on529906   4.156   6.744   4.047  0.1998 -0.6367 -0.2521
 5774ntf    on529907   4.180   6.754   3.807  0.0047  0.2533  0.0233
 5774ntf    fn429908   4.028   6.471   3.973  0.2195  0.3963 -0.1790
 5774ntf    fn429909   4.110   6.495   3.776  0.2835 -0.3072 -0.0343
 5774ntf    fn429910   4.242   6.494   3.933  0.4473  0.5680 -0.3362
 5775ntf    cn129911   0.510   3.381   3.079  0.1927  0.1359  0.4575
 5775ntf    sn229912   0.412   3.280   3.194 -0.0199  0.1747  0.3098
 5775ntf    nn329913   0.383   3.374   3.316 -0.0900  0.4715  0.0653
 5775ntf    sn229914   0.256   3.388   3.407 -0.1994 -0.1244  0.0059
 5775ntf    cn129915   0.194   3.537   3.323 -0.1441 -0.0407  0.1139
 5775ntf    fn429916   0.438   3.464   3.006  0.0666  0.3109  0.7764
 5775ntf    fn429917   0.612   3.438   3.142  0.1975  0.1133  0.4700
 5775ntf    fn429918   0.568   3.303   2.990 -0.2384 -0.4672  0.7023
 5775ntf    on529919   0.303   3.235   3.110 -0.2095  0.2368  0.5216
 5775ntf    on529920   0.508   3.177   3.223 -0.2736 -0.0081  0.5070
 5775ntf    on529921   0.285   3.434   3.540  0.1044  0.6117 -0.3051
 5775ntf    on529922   0.152   3.290   3.389 -0.2380 -0.1533  0.3819
 5775ntf    fn429923   0.102   3.603   3.392  0.2767  0.3704  0.2883
 5775ntf    fn429924   0.289   3.629   3.313 -0.2538  0.0718  0.1064
 5775ntf    fn429925   0.139   3.506   3.207  0.3962 -0.2080 -0.1009
 5776ntf    cn129926   7.331   5.307   3.787  0.3757  0.0616 -0.1074
 5776ntf    sn229927   7.500   5.277   3.728  0.5327 -0.0294  0.3756
 5776ntf    nn329928   7.489   5.125   3.692 -0.4788  0.0665  0.2608
 5776ntf    sn229929   7.437   5.067   3.556  0.3170  0.0433 -0.0340
 5776ntf    cn129930   7.438   4.891   3.602 -0.1549 -0.1379 -0.7020
 5776ntf    fn429931   7.258   5.200   3.815  0.1187  0.2534 -0.0377
 5776ntf    fn429932   7.336   5.382   3.896  0.5088  0.1536 -0.1767
 5776ntf    fn429933   7.268   5.382   3.698  0.2347 -0.0780 -0.1256
 5776ntf    on529934   7.530   5.372   3.623  0.2617  0.1777  0.4839
 5776ntf    on529935   7.584   5.295   3.843  0.9723 -0.6629  0.1560
 5776ntf    on529936   7.533   5.060   3.448  0.7165  0.0189  0.3198
 5776ntf    on529937   7.297   5.084   3.525  0.2286  0.1854  0.4368
 5776ntf    fn429938   7.328   4.850   3.662  0.3177 -0.3067  0.0549
 5776ntf    fn429939   7.449   4.809   3.498  0.1560 -0.4515 -0.4248
 5776ntf    fn429940   7.542   4.873   3.682 -0.5289  0.8213  0.0106
 5777ntf    cn129941   1.840   1.511   1.126  0.5114 -0.4436 -0.2081
 5777ntf    sn229942   1.754   1.591   0.988  0.0183 -0.3879  0.1313
 5777ntf    nn329943   1.742   1.479   0.878  0.3093 -0.9477  0.6658
 5777ntf    sn229944   1.820   1.456   0.744 -0.1286  0.3422  0.1719
 5777ntf    cn129945   1.880   1.285   0.754  0.4937  0.5620  0.2551
 5777ntf    fn429946   1.961   1.474   1.087  0.4519  0.0016 -0.8284
 5777ntf    fn429947   1.853   1.596   1.226  0.0314 -0.4909 -0.1056
 5777ntf    fn429948   1.786   1.402   1.178  0.5742 -0.0344  0.7237
 5777ntf    on529949   1.626   1.622   1.048  0.1215 -0.2069  0.2594
 5777ntf    on529950   1.837   1.700   0.943  0.2086 -0.6045 -0.0460
 5777ntf    on529951   1.938   1.532   0.712  0.0357  0.1212  0.2559
 5777ntf    on529952   1.721   1.449   0.639 -0.1659 -0.1528  0.2372
 5777ntf    fn429953   1.952   1.247   0.858  0.1262  0.1704  0.3741
 5777ntf    fn429954   1.778   1.200   0.757  0.3035  0.7838  0.0526
 5777ntf    fn429955   1.948   1.254   0.644  0.3974  0.4561  0.2244
 5778ntf    cn129956   4.392   4.584   7.051  0.1051 -0.1263  0.2907
 5778ntf    sn229957   4.389   4.730   7.161  0.1621  0.3616 -0.3493
 5778ntf    nn329958   4.525   4.703   7.236 -0.6201 -0.0528  0.9430
 5778ntf    sn229959   4.672   4.752   7.215 -0.7524 -0.0908 -0.1467
 5778ntf    cn129960   4.752   4.589   7.204  0.2483  0.3723  0.1410
 5778ntf    fn429961   4.288   4.572   6.971  0.1193  0.0093  0.2517
 5778ntf    fn429962   4.492   4.596   6.965 -0.0691  0.0869  0.1166
 5778ntf    fn429963   4.411   4.475   7.123  0.4084 -0.0658  0.3026
 5778ntf    on529964   4.398   4.840   7.068  0.1716  0.9594  0.3575
 5778ntf    on529965   4.275   4.712   7.247  0.7001 -0.2692  0.2429
 5778ntf    on529966   4.741   4.801   7.331  0.2286 -0.4011 -0.5841
 5778ntf    on529967   4.703   4.808   7.086  0.2531  0.0653  0.1507
 5778ntf    fn429968   4.705   4.507   7.112  0.8151  0.1493  0.0412
 5778ntf    fn429969   4.880   4.583   7.170  0.4207 -0.0084  0.8504
 5778ntf    fn429970   4.738   4.524   7.318  0.3288 -0.2337 -0.1871
 5779ntf    cn129971   3.987   4.343   2.135 -0.0073 -0.0997 -0.1346
 5779ntf    sn229972   3.868   4.389   2.005 -0.0426 -0.0388 -0.0815
 5779ntf    nn329973   3.841   4.247   1.942  1.0071 -0.2919  0.0083
 5779ntf    sn229974   3.827   4.207   1.791  0.0673 -0.0124  0.0111
 5779ntf    cn129975   3.897   4.040   1.804  0.1220  0.0134  0.0553
 5779ntf    fn429976   4.082   4.269   2.082  0.5611  0.1672  0.5052
 5779ntf    fn429977   4.044   4.451   2.186 -0.1120 -0.1629  0.1193
 5779ntf    fn429978   3.937   4.271   2.234 -0.6038  0.6745  0.1377
 5779ntf    on529979   3.755   4.427   2.085 -0.1143  0.2534 -0.3178
 5779ntf    on529980   3.944   4.485   1.929  0.3877  0.2004  0.6492
 5779ntf    on529981   3.913   4.280   1.702 -0.6153  0.2821 -0.4096
 5779ntf    on529982   3.692   4.189   1.744  0.0582  0.3307 -0.0932
 5779ntf    fn429983   3.897   3.966   1.694 -0.9110  0.0821 -0.0006
 5779ntf    fn429984   4.020   4.057   1.850 -0.1453  0.3859  0.6382
 5779ntf    fn429985   3.830   3.962   1.888  0.0590 -0.0979 -0.0976
 5780ntf    cn129986   4.867   6.447   1.082 -0.1100 -0.4595  0.3257
 5780ntf    sn229987   4.916   6.546   1.227  0.0405  0.2286 -0.1874
 5780ntf    nn329988   5.059   6.485   1.249 -0.2467 -0.3434  0.1373
 5780ntf    sn229989   5.100   6.374   1.352 -0.1192 -0.1837  0.2605
 5780ntf    cn129990   5.255   6.323   1.273 -0.4789 -0.1771 -0.4644
 5780ntf    fn429991   4.863   6.318   1.112  0.6171 -0.5210  0.1864
 5780ntf    fn429992   4.755   6.489   1.025  0.5544  0.2552 -0.4765
 5780ntf    fn429993   4.956   6.457   0.985 -0.3108 -0.1659  0.1695
 5780ntf    on529994   4.922   6.681   1.178  0.1365  0.2567 -0.0963
 5780ntf    on529995   4.816   6.518   1.328  0.0843  0.2611 -0.1347
 5780ntf    on529996   5.018   6.256   1.340 -1.0084  0.4127  0.3640
 5780ntf    on529997   5.146   6.414   1.482  0.1982 -0.2213  0.1599
 5780ntf    fn429998   5.318   6.225   1.337  0.0915  0.5080  0.0454
 5780ntf    fn429999   5.230   6.264   1.157 -0.1752 -0.3164 -0.4606
 5780ntf    fn430000   5.349   6.415   1.257  0.1594 -0.8095 -0.4361
 5781ntf    cn130001   3.523   1.943   2.168  0.1839 -0.1050  0.1490
 5781ntf    sn230002   3.624   1.793   2.149  0.3423  0.0795 -0.4933
 5781ntf    nn330003   3.536   1.700   2.058 -0.3794 -0.1488  0.4277
 5781ntf    sn230004   3.585   1.608   1.941 -0.3420  0.0593  0.2798
 5781ntf    cn130005   3.452   1.484   1.949 -0.4431  0.1065 -0.5121
 5781ntf    fn430006   3.399   1.910   2.199  0.1926 -0.4377 -0.1601
 5781ntf    fn430007   3.575   2.026   2.257  0.7113 -0.1904 -0.0782
 5781ntf    fn430008   3.507   2.014   2.057  0.1216  0.7055  0.6694
 5781ntf    on530009   3.749   1.835   2.090  0.4287  0.2105 -0.2161
 5781ntf    on530010   3.641   1.739   2.281 -0.2964  0.7106 -0.1454
 5781ntf    on530011   3.697   1.523   1.972 -0.4178 -0.3770 -0.5774
 5781ntf    on530012   3.573   1.661   1.807  0.1166  0.0020  0.2159
 5781ntf    fn430013   3.328   1.531   1.952 -0.5905 -0.3004  0.3769
 5781ntf    fn430014   3.455   1.391   1.855  0.1645 -0.1286 -0.2660
 5781ntf    fn430015   3.462   1.420   2.065 -0.0750  0.6926 -0.2121
 5782ntf    cn130016   5.282   1.111   6.822  0.2086  0.1912  0.3671
 5782ntf    sn230017   5.434   1.145   6.917  0.4924  0.2473 -0.1036
 5782ntf    nn330018   5.399   1.282   6.984 -0.1298  0.1990 -0.3225
 5782ntf    sn230019   5.332   1.319   7.121  0.1461 -0.1713 -0.0879
 5782ntf    cn130020   5.207   1.445   7.082  0.3112  0.1103  0.2834
 5782ntf    fn430021   5.245   1.221   6.760 -0.2180  0.1753  0.5911
 5782ntf    fn430022   5.295   1.020   6.727 -0.1862  0.1040  0.3948
 5782ntf    fn430023   5.185   1.065   6.900 -0.3382  0.2570 -0.2685
 5782ntf    on530024   5.437   1.028   7.002  0.0756  0.1355 -0.2364
 5782ntf    on530025   5.531   1.161   6.812  0.4053  0.9167 -0.0826
 5782ntf    on530026   5.428   1.380   7.211 -0.1767 -0.3217  0.3620
 5782ntf    on530027   5.259   1.211   7.183 -0.2082  0.2726  0.2767
 5782ntf    fn430028   5.110   1.384   7.016  0.6919 -0.2855  0.0854
 5782ntf    fn430029   5.151   1.516   7.178 -0.6993 -0.2253 -0.0519
 5782ntf    fn430030   5.264   1.540   7.008  0.2973  0.1391  0.3096
 5783ntf    cn130031   5.629   3.316   4.862  0.0090 -0.3814  0.0132
 5783ntf    sn230032   5.593   3.454   4.974 -0.0116 -0.4062  0.0379
 5783ntf    nn330033   5.463   3.399   5.042 -0.1559  0.3195  0.3591
 5783ntf    sn230034   5.311   3.430   5.016 -0.1647  0.1219  0.1756
 5783ntf    cn130035   5.282   3.554   5.145  0.4192  0.4529 -0.0076
 5783ntf    fn430036   5.630   3.194   4.914 -0.5029 -0.4073 -0.0393
 5783ntf    fn430037   5.549   3.308   4.757  0.2591 -0.9304 -0.1412
 5783ntf    fn430038   5.750   3.334   4.811  0.1475 -1.0223  0.0993
 5783ntf    on530039   5.703   3.444   5.066 -0.0146 -0.6736  0.0131
 5783ntf    on530040   5.583   3.572   4.890 -0.3761 -0.1634  0.4193
 5783ntf    on530041   5.218   3.324   5.043 -0.9392  0.6715 -0.2910
 5783ntf    on530042   5.297   3.510   4.897 -0.4001 -0.0399  0.0947
 5783ntf    fn430043   5.341   3.517   5.257  0.4290  0.6175  0.0428
 5783ntf    fn430044   5.334   3.674   5.124  0.8552  0.3116  0.2411
 5783ntf    fn430045   5.152   3.564   5.168  0.4167  0.0018  0.1873
 5784ntf    cn130046   3.589   6.494   6.240 -0.1002 -0.1383 -0.1651
 5784ntf    sn230047   3.643   6.456   6.410  0.0012 -0.3419 -0.2434
 5784ntf    nn330048   3.773   6.542   6.418 -0.2820  0.0734 -0.0690
 5784ntf    sn230049   3.818   6.653   6.519 -0.0189 -0.0426 -0.0559
 5784ntf    cn130050   3.725   6.800   6.465  0.0761  0.1112  0.1962
 5784ntf    fn430051   3.490   6.414   6.207 -0.1432 -0.1367 -0.0420
 5784ntf    fn430052   3.549   6.620   6.228  0.2857  0.0521  0.4767
 5784ntf    fn430053   3.688   6.480   6.154 -0.1247  0.0725 -0.2283
 5784ntf    on530054   3.541   6.504   6.500  0.2379  0.1290 -0.2272
 5784ntf    on530055   3.669   6.314   6.409 -0.1384 -0.3680 -0.3781
 5784ntf    on530056   3.957   6.687   6.502  0.0010  0.0865  0.3394
 5784ntf    on530057   3.776   6.631   6.656  0.1674  0.2017  0.0404
 5784ntf    fn430058   3.594   6.786   6.454  0.0598  0.1895  0.2995
 5784ntf    fn430059   3.742   6.892   6.559  0.1895 -0.0627  0.3482
 5784ntf    fn430060   3.764   6.846   6.347  0.4116 -0.3493  0.1237
 5785ntf    cn130061   2.119   5.040   5.776  0.0979 -0.1361 -0.4626
 5785ntf    sn230062   1.938   5.025   5.757  0.0194  0.3044 -0.0660
 5785ntf    nn330063   1.904   5.175   5.729  0.0003  0.2632 -0.2570
 5785ntf    sn230064   1.885   5.256   5.595 -0.3772  0.1441 -0.2775
 5785ntf    cn130065   1.705   5.279   5.602 -0.4127 -0.1978 -0.0294
 5785ntf    fn430066   2.179   4.931   5.820 -0.2609  0.1036  0.6401
 5785ntf    fn430067   2.197   5.081   5.678  0.1782 -0.2070 -0.4277
 5785ntf    fn430068   2.145   5.111   5.884 -0.0819 -0.3494 -0.2766
 5785ntf    on530069   1.911   4.929   5.654 -0.3520 -0.3985  0.6730
 5785ntf    on530070   1.918   4.976   5.891 -0.5549  0.3585 -0.1325
 5785ntf    on530071   1.910   5.182   5.473  0.2526 -0.1733  0.0413
 5785ntf    on530072   1.937   5.389   5.609  1.1547 -0.4710  0.1301
 5785ntf    fn430073   1.675   5.392   5.540  0.0242 -0.4170 -0.6485
 5785ntf    fn430074   1.639   5.189   5.532 -0.0149 -0.0720 -0.5727
 5785ntf    fn430075   1.657   5.288   5.725 -0.7426  0.7386 -0.2174
 5786ntf    cn130076   6.709   6.895   3.433  0.1349  0.2578 -0.3361
 5786ntf    sn230077   6.607   6.927   3.286 -0.0784 -0.1764 -0.2852
 5786ntf    nn330078   6.648   7.075   3.252 -0.5299  0.1492  0.5442
 5786ntf    sn230079   6.560   7.199   3.212 -0.2699  0.0491 -0.3701
 5786ntf    cn130080   6.591   7.221   3.035  0.3885  0.1510 -0.2453
 5786ntf    fn430081   6.750   6.770   3.440 -1.0398 -0.1198  0.1084
 5786ntf    fn430082   6.817   6.971   3.428  0.5517 -0.3466 -0.5989
 5786ntf    fn430083   6.657   6.920   3.553  0.4025  0.9050 -0.3534
 5786ntf    on530084   6.651   6.834   3.185  0.0567 -0.4838  0.0555
 5786ntf    on530085   6.475   6.917   3.345  0.2325  0.5486  0.5609
 5786ntf    on530086   6.612   7.323   3.263 -0.3535 -0.2317  0.4151
 5786ntf    on530087   6.416   7.182   3.216 -0.1727 -0.8069 -0.2980
 5786ntf    fn430088   6.720   7.227   3.008  0.5076 -0.3410  0.2200
 5786ntf    fn430089   6.547   7.115   2.969 -0.2452  0.5356 -0.4542
 5786ntf    fn430090   6.535   7.330   2.983 -0.2242  0.0205  0.1294
 5787ntf    cn130091   2.583   6.831   4.526 -0.1422 -0.3749  0.0395
 5787ntf    sn230092   2.765   6.839   4.516 -0.1558 -0.3429 -0.1832
 5787ntf    nn330093   2.799   6.860   4.364 -0.1701 -0.3621 -0.1895
 5787ntf    sn230094   2.915   6.939   4.294 -0.2156 -0.1106  0.0182
 5787ntf    cn130095   2.842   7.092   4.227  0.0579 -0.0923 -0.2426
 5787ntf    fn430096   2.515   6.908   4.444 -0.4775 -0.3962  0.2959
 5787ntf    fn430097   2.538   6.707   4.510 -0.3277 -0.3128  0.0859
 5787ntf    fn430098   2.526   6.866   4.640 -0.3526 -0.2818 -0.0946
 5787ntf    on530099   2.789   6.953   4.601 -0.9131 -0.3205  0.0095
 5787ntf    on530100   2.807   6.708   4.560  0.2345 -0.2856 -0.3880
 5787ntf    on530101   2.955   6.877   4.170 -0.7929 -0.4063 -0.0235
 5787ntf    on530102   3.022   6.988   4.377 -0.1089 -0.4333  0.0694
 5787ntf    fn430103   2.895   7.133   4.113 -0.3552  0.8590 -0.0975
 5787ntf    fn430104   2.711   7.074   4.213 -0.1086  0.3627  0.6345
 5787ntf    fn430105   2.847   7.185   4.321 -0.3781 -0.0576 -0.2483
 5788ntf    cn130106   6.002   3.852   7.220 -0.3199 -0.2090  0.3159
 5788ntf    sn230107   5.957   3.683   7.270 -0.2809 -0.2399  0.2474
 5788ntf    nn330108   5.932   3.626   7.125 -0.0483  0.2237  0.0239
 5788ntf    sn230109   5.811   3.566   7.047  0.0467  0.0816 -0.0127
 5788ntf    cn130110   5.755   3.719   6.966 -0.3353  0.0177  0.1247
 5788ntf    fn430111   6.020   3.928   7.326  0.7416  0.0632 -0.0468
 5788ntf    fn430112   6.106   3.856   7.138 -0.5240  0.3207  0.0794
 5788ntf    fn430113   5.904   3.902   7.146 -0.1950  0.3050  0.4935
 5788ntf    on530114   6.077   3.640   7.337 -0.0558 -0.2610 -0.1625
 5788ntf    on530115   5.836   3.702   7.346 -0.5196 -0.1073 -0.1589
 5788ntf    on530116   5.693   3.516   7.113 -0.1084 -0.5068 -0.7209
 5788ntf    on530117   5.849   3.485   6.934  0.0034 -0.3690  0.2879
 5788ntf    fn430118   5.844   3.762   6.878  0.0391  0.1082  0.5405
 5788ntf    fn430119   5.647   3.693   6.895 -0.2738 -0.2381  0.1211
 5788ntf    fn430120   5.739   3.818   7.052 -0.6580  0.3845 -0.3532
 5789ntf    cn130121   3.498   1.477   0.924 -0.1906 -0.3373 -0.0702
 5789ntf    sn230122   3.407   1.568   1.052  0.0017  0.2282 -0.3309
 5789ntf    nn330123   3.526   1.639   1.125 -0.5986  0.2495  0.6462
 5789ntf    sn230124   3.584   1.782   1.094  0.0420 -0.1944 -0.2494
 5789ntf    cn130125   3.483   1.874   1.215 -0.2316 -0.5822 -0.1799
 5789ntf    fn430126   3.412   1.458   0.825 -0.1043  0.3100 -0.2701
 5789ntf    fn430127   3.609   1.530   0.875 -0.3759 -0.0185 -0.1442
 5789ntf    fn430128   3.536   1.353   0.952  0.3484 -0.1675 -0.0332
 5789ntf    on530129   3.311   1.642   0.975 -0.3845  0.0886  0.0139
 5789ntf    on530130   3.357   1.464   1.139 -0.0796  0.4428 -0.1214
 5789ntf    on530131   3.560   1.841   0.965 -0.3365  0.4259  0.0977
 5789ntf    on530132   3.717   1.792   1.147  0.1001 -0.6373 -0.3101
 5789ntf    fn430133   3.468   1.811   1.330  0.1202  0.1294  0.2632
 5789ntf    fn430134   3.542   1.991   1.234 -0.7514 -0.3835  0.2292
 5789ntf    fn430135   3.361   1.897   1.171 -0.1107  0.6763  0.1032
 5790ntf    cn130136   3.311   6.558   7.049 -0.1318 -0.2091  0.1637
 5790ntf    sn230137   3.433   6.430   7.091  0.0616 -0.0627  0.0453
 5790ntf    nn330138   3.345   6.334   7.178  0.5886 -0.7618 -0.1846
 5790ntf    sn230139   3.349   6.313   7.334  0.0196  0.0647 -0.0554
 5790ntf    cn130140   3.527   6.292   7.362  0.0466 -0.2526 -0.4471
 5790ntf    fn430141   3.286   6.657   7.132  0.4392 -0.1375  0.2516
 5790ntf    fn430142   3.342   6.613   6.933 -0.1448  0.2599  0.3831
 5790ntf    fn430143   3.195   6.495   7.039  0.0607 -0.6021  0.3931
 5790ntf    on530144   3.466   6.365   6.967 -0.2016 -0.4641  0.1870
 5790ntf    on530145   3.536   6.508   7.155  0.3688 -0.1345 -0.3591
 5790ntf    on530146   3.295   6.183   7.364  0.7463 -0.3520 -0.5161
 5790ntf    on530147   3.306   6.430   7.406  0.1822  0.1427 -0.0861
 5790ntf    fn430148   3.580   6.411   7.386 -0.0419 -0.3215  0.1018
 5790ntf    fn430149   3.543   6.213   7.467  0.3567  0.1656 -0.1750
 5790ntf    fn430150   3.602   6.241   7.266  0.0178 -0.4908 -0.3434
 5791ntf    cn130151   4.609   6.331   5.614 -0.1730 -0.0188  0.1873
 5791ntf    sn230152   4.493   6.254   5.498  0.0250  0.1013 -0.0924
 5791ntf    nn330153   4.523   6.104   5.533  0.0921  0.1023 -0.1447
 5791ntf    sn230154   4.600   5.991   5.457 -0.3360 -0.1653 -0.1880
 5791ntf    cn130155   4.520   5.848   5.535  0.0121 -0.2352  0.0434
 5791ntf    fn430156   4.571   6.440   5.679  0.3409  0.2825 -0.0085
 5791ntf    fn430157   4.645   6.246   5.709 -0.3918  0.3296  0.5874
 5791ntf    fn430158   4.721   6.367   5.553 -0.3989 -0.2538 -0.3684
 5791ntf    on530159   4.359   6.291   5.537 -0.1017 -0.6740  0.2371
 5791ntf    on530160   4.549   6.294   5.372  0.3379 -0.0316  0.0046
 5791ntf    on530161   4.736   5.980   5.505 -0.5630  0.0914  0.5117
 5791ntf    on530162   4.574   5.978   5.315  0.2312 -0.7980 -0.2410
 5791ntf    fn430163   4.506   5.862   5.666 -0.2623 -0.3636  0.0278
 5791ntf    fn430164   4.394   5.842   5.495 -0.0115 -0.5094  0.1537
 5791ntf    fn430165   4.582   5.732   5.514 -0.4392 -0.4190 -0.2801
 5792ntf    cn130166   6.638   5.747   2.693  0.3469 -0.0761  0.4464
 5792ntf    sn230167   6.709   5.584   2.656 -0.1164 -0.2011  0.0871
 5792ntf    nn330168   6.595   5.498   2.722 -0.3764  0.2875  0.2783
 5792ntf    sn230169   6.621   5.388   2.831 -0.0770  0.2107  0.1319
 5792ntf    cn130170   6.627   5.495   2.978  0.3275  0.0184  0.2551
 5792ntf    fn430171   6.506   5.750   2.685  0.3596 -0.2921  0.1599
 5792ntf    fn430172   6.660   5.780   2.819 -0.4283 -0.0396  0.5778
 5792ntf    fn430173   6.686   5.852   2.629 -0.2495 -0.0065  0.1047
 5792ntf    on530174   6.702   5.571   2.513 -0.4893  0.2161  0.0663
 5792ntf    on530175   6.837   5.582   2.724  0.0242 -0.6887 -0.1874
 5792ntf    on530176   6.741   5.311   2.815  0.1458  0.6443 -0.3380
 5792ntf    on530177   6.499   5.313   2.849 -0.1616  0.2962 -0.0727
 5792ntf    fn430178   6.696   5.608   2.975 -0.0031  0.2441  0.8948
 5792ntf    fn430179   6.507   5.529   3.021  0.4201  0.1685  0.3950
 5792ntf    fn430180   6.686   5.419   3.069  0.2073 -0.2855  0.0812
 5793ntf    cn130181   0.291   2.822   5.290 -0.2769 -0.2144  0.3674
 5793ntf    sn230182   0.405   2.704   5.211 -0.1404 -0.0682  0.3446
 5793ntf    nn330183   0.531   2.738   5.299  0.1829  0.0213 -0.1506
 5793ntf    sn230184   0.571   2.656   5.427 -0.0939  0.1183  0.0007
 5793ntf    cn130185   0.663   2.523   5.343 -0.4855 -0.0145 -0.2178
 5793ntf    fn430186   0.286   2.819   5.422 -0.3954  0.3081  0.3776
 5793ntf    fn430187   0.325   2.943   5.246  0.0113 -0.5298 -0.2932
 5793ntf    fn430188   0.167   2.803   5.249 -0.1906  0.3496 -0.1845
 5793ntf    on530189   0.336   2.579   5.229 -0.1190 -0.0206  0.7952
 5793ntf    on530190   0.420   2.760   5.080  0.4253 -0.0469  0.4166
 5793ntf    on530191   0.469   2.588   5.502  0.5357 -0.7730  0.0724
 5793ntf    on530192   0.677   2.719   5.502 -0.2742  0.0045  0.3507
 5793ntf    fn430193   0.708   2.427   5.422 -0.2769  0.0959 -0.2023
 5793ntf    fn430194   0.581   2.458   5.262 -0.2964 -0.2495 -0.2217
 5793ntf    fn430195   0.765   2.573   5.277  0.1968 -0.4179  0.5151
 5794ntf    cn130196   4.322   3.482   4.667  0.1084  0.0515 -0.7132
 5794ntf    sn230197   4.175   3.459   4.563  0.0793 -0.1989 -0.6164
 5794ntf    nn330198   4.098   3.589   4.606  0.0296 -0.2456 -0.5653
 5794ntf    sn230199   4.095   3.736   4.551  0.0837 -0.0873 -0.1560
 5794ntf    cn130200   4.109   3.826   4.708  0.0632  0.1468 -0.2877
 5794ntf    fn430201   4.395   3.373   4.656  0.3063  0.0101  0.7816
 5794ntf    fn430202   4.397   3.585   4.629  0.0214  0.2743 -0.2890
 5794ntf    fn430203   4.284   3.496   4.793 -0.0836 -0.5063 -0.7098
 5794ntf    on530204   4.214   3.469   4.425  0.0280  0.0036 -0.6168
 5794ntf    on530205   4.102   3.345   4.612 -0.1099 -0.0562 -0.5648
 5794ntf    on530206   3.966   3.780   4.502 -0.0234 -0.4796 -0.2334
 5794ntf    on530207   4.215   3.780   4.484 -0.2906  0.5411 -0.4196
 5794ntf    fn430208   4.227   3.817   4.767  0.0574 -0.5093 -0.3638
 5794ntf    fn430209   4.099   3.955   4.684  0.0488  0.2449  0.2305
 5794ntf    fn430210   4.012   3.788   4.790  0.3256 -0.4843 -0.2656
 5795ntf    cn130211   6.308   0.423   0.467  0.0559 -0.0561 -0.3001
 5795ntf    sn230212   6.180   0.539   0.412 -0.0398 -0.0481 -0.0641
 5795ntf    nn330213   6.056   0.484   0.491 -0.3420  0.1294 -0.4081
 5795ntf    sn230214   5.989   0.520   0.628 -0.0643  0.0656 -0.2540
 5795ntf    cn130215   5.993   0.363   0.720  0.1714  0.2332  0.0251
 5795ntf    fn430216   6.275   0.302   0.426 -0.0869 -0.1007 -0.0591
 5795ntf    fn430217   6.426   0.466   0.426  0.1436 -0.2209 -0.2231
 5795ntf    fn430218   6.314   0.418   0.599 -0.0727  0.3969 -0.2758
 5795ntf    on530219   6.226   0.671   0.448 -0.2989 -0.0233  0.1838
 5795ntf    on530220   6.182   0.522   0.269  0.0945 -0.2418 -0.0393
 5795ntf    on530221   5.846   0.534   0.622  0.0210  0.6882 -1.0274
 5795ntf    on530222   6.067   0.600   0.719 -0.4986 -0.0795  0.2519
 5795ntf    fn430223   5.929   0.264   0.660  0.3912  0.2920 -0.3125
 5795ntf    fn430224   6.120   0.327   0.730 -0.0200 -0.5399 -0.2690
 5795ntf    fn430225   5.938   0.367   0.840  0.1720 -0.8202  0.0662
 5796ntf    cn130226   2.896   6.509   0.298  0.6040  0.2557 -0.1344
 5796ntf    sn230227   2.916   6.690   0.305 -0.0959  0.3331 -0.0813
 5796ntf    nn330228   3.043   6.709   0.395 -0.3427  0.5890  0.2143
 5796ntf    sn230229   3.057   6.717   0.551 -0.2570 -0.2105  0.2509
 5796ntf    cn130230   3.072   6.898   0.557 -0.2009 -0.2060 -0.0346
 5796ntf    fn430231   2.783   6.474   0.240  0.5764 -0.2746  0.2334
 5796ntf    fn430232   2.996   6.460   0.226  0.6091 -0.7959  0.5663
 5796ntf    fn430233   2.896   6.451   0.417  0.3692 -0.6189 -0.5508
 5796ntf    on530234   2.950   6.711   0.166  0.0369 -0.6641 -0.2120
 5796ntf    on530235   2.795   6.750   0.355 -0.3533  0.0351 -0.3376
 5796ntf    on530236   3.188   6.673   0.591 -0.1483  0.0823  0.2132
 5796ntf    on530237   2.944   6.685   0.635 -0.1531  0.2380  0.5638
 5796ntf    fn430238   3.139   6.935   0.450 -0.3038  0.2551  0.0589
 5796ntf    fn430239   2.958   6.964   0.550  0.1394  0.3700 -0.2108
 5796ntf    fn430240   3.142   6.937   0.662 -0.3819 -0.5220  0.2058
 5797ntf    cn130241   1.321   0.579   5.316 -0.0583  0.3605  0.0696
 5797ntf    sn230242   1.253   0.556   5.483 -0.0413  0.0480  0.0342
 5797ntf    nn330243   1.377   0.578   5.576  0.5134  0.4698 -0.8009
 5797ntf    sn230244   1.464   0.471   5.651 -0.1207  0.2247 -0.4092
 5797ntf    cn130245   1.627   0.552   5.644  0.3117 -0.5756  0.1851
 5797ntf    fn430246   1.373   0.699   5.297 -0.2454  0.4194 -0.0632
 5797ntf    fn430247   1.412   0.485   5.293 -0.1818  0.2297  0.1146
 5797ntf    fn430248   1.224   0.567   5.228  0.0329  0.0959  0.0037
 5797ntf    on530249   1.161   0.667   5.496  0.3079  0.3546 -0.1213
 5797ntf    on530250   1.210   0.418   5.480  0.0451  0.0135  0.3573
 5797ntf    on530251   1.483   0.347   5.580  0.2932 -0.1933  0.4194
 5797ntf    on530252   1.433   0.471   5.792 -0.6323  1.0526 -0.5144
 5797ntf    fn430253   1.676   0.549   5.522  0.4683 -0.0170  0.2295
 5797ntf    fn430254   1.625   0.681   5.675  0.4362 -0.3700 -0.6360
 5797ntf    fn430255   1.717   0.507   5.730  0.4915 -0.4698  0.0534
 5798ntf    cn130256   5.895   6.592   3.889 -0.1043 -0.2140 -0.1528
 5798ntf    sn230257   5.775   6.672   3.779 -0.4317 -0.5092 -0.0121
 5798ntf    nn330258   5.663   6.714   3.881 -0.5178 -0.0237 -0.3008
 5798ntf    sn230259   5.532   6.643   3.931 -0.1221 -0.3650  0.2694
 5798ntf    cn130260   5.414   6.698   3.804 -0.1232 -0.1587  0.3610
 5798ntf    fn430261   5.826   6.525   3.980 -0.1280 -0.3214 -0.2502
 5798ntf    fn430262   5.974   6.501   3.833  0.5990  0.1963  0.1660
 5798ntf    fn430263   5.974   6.676   3.953 -0.1236  0.4027 -0.9241
 5798ntf    on530264   5.843   6.791   3.734 -0.2591 -0.5660  0.0990
 5798ntf    on530265   5.742   6.574   3.678  0.1143 -0.6867 -0.0213
 5798ntf    on530266   5.470   6.702   4.046 -0.7516  0.6854 -0.5929
 5798ntf    on530267   5.541   6.499   3.923 -0.3415 -0.3893  0.4767
 5798ntf    fn430268   5.429   6.644   3.684 -0.0908  0.0419  0.2720
 5798ntf    fn430269   5.287   6.683   3.835 -0.0496 -0.4716  0.5087
 5798ntf    fn430270   5.433   6.829   3.793  0.2487 -0.2463 -0.0640
 5799ntf    cn130271   4.997   4.348   2.432 -0.1470  0.2288  0.0189
 5799ntf    sn230272   4.949   4.196   2.520 -0.0429  0.2984  0.1970
 5799ntf    nn330273   5.055   4.099   2.458 -0.4489 -0.2515  0.3592
 5799ntf    sn230274   5.045   3.973   2.365  0.3555  0.0810 -0.1936
 5799ntf    cn130275   5.167   3.879   2.462  0.1738 -0.2038 -0.2389
 5799ntf    fn430276   4.977   4.337   2.302 -0.0948 -0.1788  0.0437
 5799ntf    fn430277   4.926   4.455   2.464  0.1987  0.4371  0.0872
 5799ntf    fn430278   5.119   4.392   2.457 -0.4248  0.8385  0.3315
 5799ntf    on530279   4.975   4.235   2.656  0.3653  0.5631  0.0441
 5799ntf    on530280   4.813   4.179   2.473 -0.0875  1.2926 -0.0729
 5799ntf    on530281   5.100   3.987   2.233  0.5686  0.3119 -0.0816
 5799ntf    on530282   4.925   3.896   2.389  0.7211 -0.5522 -0.3635
 5799ntf    fn430283   5.284   3.867   2.400  0.1959  0.1133 -0.2586
 5799ntf    fn430284   5.190   3.932   2.581 -0.6539  0.3859 -0.3323
 5799ntf    fn430285   5.125   3.756   2.485  0.5032 -0.2004  0.3912
 5800ntf    cn130286   0.104   5.798   1.915  0.0920  0.2739  0.2998
 5800ntf    sn230287   0.079   5.932   1.795  0.3245  0.1129  0.0722
 5800ntf    nn330288  -0.023   6.024   1.871  0.4405  0.6488 -0.4160
 5800ntf    sn230289   0.009   6.142   1.969 -0.1220 -0.0515  0.6264
 5800ntf    cn130290   0.021   6.282   1.854 -0.4483 -0.0276  0.6209
 5800ntf    fn430291   0.192   5.708   1.876  0.1598  0.4969 -0.0640
 5800ntf    fn430292   0.152   5.834   2.033 -0.0269  0.0443  0.4188
 5800ntf    fn430293  -0.005   5.731   1.950  0.0191  0.2362  0.0004
 5800ntf    on530294   0.211   5.989   1.781  0.5664 -0.4290  0.0977
 5800ntf    on530295   0.021   5.865   1.681  0.2968 -0.3488  0.3522
 5800ntf    on530296   0.134   6.145   2.042  0.3546 -0.4170 -0.1668
 5800ntf    on530297  -0.109   6.181   2.042 -0.2707  0.7445 -0.0296
 5800ntf    fn430298   0.128   6.284   1.776 -0.6616  0.3257  0.3310
 5800ntf    fn430299  -0.087   6.290   1.778 -0.0653 -0.4649  0.0150
 5800ntf    fn430300   0.031   6.399   1.914  0.2577  0.2184  0.0347
 5801ntf    cn130301   1.850   5.740   3.807  0.2341  0.0107 -0.2940
 5801ntf    sn230302   1.983   5.863   3.825  0.1321  0.0691  0.0738
 5801ntf    nn330303   2.065   5.816   3.950  0.1487  0.2056  0.1144
 5801ntf    sn230304   2.216   5.782   3.978  0.1919  0.1365 -0.1930
 5801ntf    cn130305   2.202   5.631   4.079 -0.3395  0.0225 -0.4327
 5801ntf    fn430306   1.773   5.776   3.706 -0.1351  0.4639  0.1452
 5801ntf    fn430307   1.901   5.621   3.781  0.1629 -0.2827  0.8728
 5801ntf    fn430308   1.770   5.725   3.912  0.4140 -0.0528 -0.1659
 5801ntf    on530309   2.065   5.848   3.707  0.6035  0.4941  0.3460
 5801ntf    on530310   1.916   5.988   3.848  0.1140 -0.0542  0.6953
 5801ntf    on530311   2.275   5.875   4.071  0.4548  0.6317 -0.8473
 5801ntf    on530312   2.287   5.742   3.860  0.3147 -1.0455  0.2719
 5801ntf    fn430313   2.311   5.564   4.112 -0.6189 -0.5286 -0.6150
 5801ntf    fn430314   2.140   5.649   4.195  0.7320  0.0228  0.1511
 5801ntf    fn430315   2.110   5.554   4.023 -0.5130 -0.1916  0.1381
 5802ntf    cn130316   0.964   7.363   3.446 -0.5566 -0.2631  0.1257
 5802ntf    sn230317   0.953   7.542   3.470 -0.2337 -0.2792  0.4069
 5802ntf    nn330318   0.849   7.543   3.588 -0.6886  0.0242  0.0104
 5802ntf    sn230319   0.870   7.572   3.740 -0.2892 -0.1090 -0.0189
 5802ntf    cn130320   0.859   7.753   3.742  0.1094 -0.0847  0.1192
 5802ntf    fn430321   0.851   7.297   3.430 -0.3693 -0.5621  0.0127
 5802ntf    fn430322   1.035   7.330   3.338 -0.1174 -0.1066  0.3631
 5802ntf    fn430323   1.029   7.315   3.551  0.5006  0.2242 -0.2943
 5802ntf    on530324   1.085   7.593   3.496 -0.1344 -0.1382 -0.3466
 5802ntf    on530325   0.900   7.583   3.342 -0.3616 -0.0569  0.5291
 5802ntf    on530326   0.995   7.535   3.804 -0.1258 -0.3987 -0.5004
 5802ntf    on530327   0.748   7.528   3.802  0.2040 -0.4581  0.7289
 5802ntf    fn430328   0.746   7.792   3.686 -0.1039 -1.0495 -0.1305
 5802ntf    fn430329   0.859   7.807   3.863 -0.2985  0.2133 -0.0139
 5802ntf    fn430330   0.953   7.812   3.670  0.2665 -0.3075  0.1412
 5803ntf    cn130331   1.246   1.325   1.596 -0.0337  0.1555 -0.3097
 5803ntf    sn230332   1.415   1.357   1.539  0.1305  0.0676  0.1259
 5803ntf    nn330333   1.454   1.476   1.634  0.3258 -0.1447  0.3132
 5803ntf    sn230334   1.407   1.625   1.627 -0.0873 -0.2953 -0.2585
 5803ntf    cn130335   1.564   1.672   1.549 -0.0584 -0.0557 -0.0580
 5803ntf    fn430336   1.182   1.440   1.607 -0.0556  0.0861  0.3147
 5803ntf    fn430337   1.173   1.247   1.517  0.5154 -0.1374 -0.5294
 5803ntf    fn430338   1.238   1.265   1.714  1.3074 -0.7587 -0.6650
 5803ntf    on530339   1.491   1.239   1.573 -0.0230 -0.0173  0.1763
 5803ntf    on530340   1.403   1.396   1.401 -0.5022  0.3065  0.2487
 5803ntf    on530341   1.408   1.695   1.754  0.1009 -0.2390 -0.2904
 5803ntf    on530342   1.304   1.668   1.537  0.5403  1.3897 -0.2131
 5803ntf    fn430343   1.668   1.617   1.610 -0.0200 -0.2353 -0.2860
 5803ntf    fn430344   1.568   1.628   1.424  0.0677  0.7992 -0.3650
 5803ntf    fn430345   1.596   1.801   1.551 -0.4537  0.0365  0.4195
 5804ntf    cn130346   2.013   5.312   2.962  0.5593 -0.1695 -0.1099
 5804ntf    sn230347   1.922   5.222   3.091  0.2070  0.2880 -0.0331
 5804ntf    nn330348   1.797   5.314   3.114  0.0122 -0.0776  0.3874
 5804ntf    sn230349   1.660   5.289   3.186 -0.2632 -0.3494 -0.2267
 5804ntf    cn130350   1.672   5.424   3.307 -0.2654 -0.3979 -0.1729
 5804ntf    fn430351   2.142   5.283   2.973  0.4799 -0.2933  0.5666
 5804ntf    fn430352   1.971   5.276   2.843  0.2392  0.0194 -0.0555
 5804ntf    fn430353   2.000   5.443   2.978 -0.4024 -0.2984  0.2161
 5804ntf    on530354   1.890   5.090   3.043 -0.1612  0.0848  0.7543
 5804ntf    on530355   2.015   5.230   3.201 -0.0411 -0.5647  0.2506
 5804ntf    on530356   1.644   5.170   3.267 -0.5373 -0.3566 -0.2890
 5804ntf    on530357   1.547   5.328   3.105 -0.2318  0.9688  0.3398
 5804ntf    fn430358   1.793   5.473   3.327 -0.6684  0.6469 -0.2225
 5804ntf    fn430359   1.601   5.529   3.269  0.1193 -0.2213 -0.4126
 5804ntf    fn430360   1.624   5.391   3.426  0.3027 -0.1048  0.1428
 5805ntf    cn130361   0.175   0.043   5.337  0.1074  0.0076 -0.3992
 5805ntf    sn230362   0.159  -0.050   5.182  0.1824  0.0005 -0.4023
 5805ntf    nn330363   0.035  -0.141   5.215  0.0719  0.2723 -0.0612
 5805ntf    sn230364  -0.073  -0.192   5.114  0.1617 -0.0735  0.0150
 5805ntf    cn130365   0.007  -0.353   5.089 -0.2164 -0.2758  0.1065
 5805ntf    fn430366   0.247   0.154   5.332 -0.3662  0.3485  0.1514
 5805ntf    fn430367   0.054   0.079   5.378  0.2414  0.0687 -0.0511
 5805ntf    fn430368   0.229  -0.018   5.442 -0.3684 -0.2723 -0.3098
 5805ntf    on530369   0.135   0.047   5.078  0.7850 -0.3664 -0.8860
 5805ntf    on530370   0.278  -0.131   5.175 -0.1118 -0.4190 -0.5900
 5805ntf    on530371  -0.090  -0.122   4.989  0.7578 -0.9371 -0.5607
 5805ntf    on530372  -0.198  -0.223   5.179  0.2309 -0.6770 -0.1365
 5805ntf    fn430373   0.058  -0.398   5.203  0.8250 -0.3146 -0.3683
 5805ntf    fn430374  -0.070  -0.453   5.047 -0.3384 -0.0179 -0.2857
 5805ntf    fn430375   0.110  -0.352   5.007 -0.0632  0.1829  0.3020
 5806ntf    cn130376   0.658   1.538   0.932  0.0027 -0.2201 -0.2460
 5806ntf    sn230377   0.514   1.430   0.903 -0.2013 -0.0435  0.1075
 5806ntf    nn330378   0.430   1.440   1.035 -0.5055 -0.2447 -0.0671
 5806ntf    sn230379   0.329   1.545   1.094 -0.0071  0.0651  0.2503
 5806ntf    cn130380   0.177   1.479   1.019  0.1813  0.1756 -0.2348
 5806ntf    fn430381   0.626   1.666   0.940  0.4051 -0.1178 -0.2919
 5806ntf    fn430382   0.724   1.516   1.044  0.2221 -0.4720 -0.4237
 5806ntf    fn430383   0.748   1.532   0.836  0.2589 -0.0827 -0.0138
 5806ntf    on530384   0.447   1.477   0.784  0.1650  0.5592  0.1368
 5806ntf    on530385   0.574   1.301   0.883 -0.6801 -0.2743  0.1539
 5806ntf    on530386   0.335   1.678   1.039  0.0847  0.1067  0.3606
 5806ntf    on530387   0.311   1.527   1.236  0.3914  0.4131  0.3477
 5806ntf    fn430388   0.172   1.502   0.889  0.2915  0.1199 -0.2493
 5806ntf    fn430389   0.179   1.347   1.027 -0.4286  0.1659 -0.2278
 5806ntf    fn430390   0.063   1.521   1.072 -0.2645 -0.9897 -0.2391
 5807ntf    cn130391   7.213   6.700   2.018 -0.0267 -0.0373 -0.3445
 5807ntf    sn230392   7.076   6.587   1.982 -0.1436  0.0717 -0.2390
 5807ntf    nn330393   6.957   6.690   1.973 -0.1594  0.1105  0.3396
 5807ntf    sn230394   6.802   6.670   1.966 -0.1132 -0.1197 -0.1247
 5807ntf    cn130395   6.766   6.795   1.839  0.3536  0.2239  0.0788
 5807ntf    fn430396   7.328   6.638   2.041 -0.0224  0.0600 -0.1005
 5807ntf    fn430397   7.230   6.794   1.926 -0.0944  0.2447 -0.0714
 5807ntf    fn430398   7.196   6.769   2.130  0.6506 -0.2022 -0.1352
 5807ntf    on530399   7.119   6.526   1.859  0.3606  0.0361 -0.0462
 5807ntf    on530400   7.058   6.491   2.088 -0.6353 -0.1465 -0.5183
 5807ntf    on530401   6.729   6.722   2.079  0.5098  0.9939 -0.2183
 5807ntf    on530402   6.752   6.549   1.905  0.0426 -0.2091 -0.0755
 5807ntf    fn430403   6.840   6.766   1.733  0.0015  0.1688 -0.1547
 5807ntf    fn430404   6.640   6.792   1.801  0.5411  0.0938 -0.5423
 5807ntf    fn430405   6.796   6.919   1.872  0.3316  0.2920 -0.1571
 5808ntf    cn130406   6.253   4.440   5.550  0.2961 -0.1206  0.0285
 5808ntf    sn230407   6.306   4.396   5.382 -0.2465 -0.1917 -0.1245
 5808ntf    nn330408   6.177   4.453   5.313 -0.4497 -0.0856  0.3358
 5808ntf    sn230409   6.169   4.571   5.209  0.0719 -0.3466 -0.0100
 5808ntf    cn130410   6.203   4.723   5.302 -0.1092 -0.2638 -0.0783
 5808ntf    fn430411   6.279   4.566   5.582  0.1569 -0.2508  0.6721
 5808ntf    fn430412   6.122   4.433   5.571  0.1673  0.0438 -0.6973
 5808ntf    fn430413   6.311   4.367   5.644 -0.4132 -0.0008  0.5743
 5808ntf    on530414   6.433   4.461   5.365 -0.1441 -0.4638 -0.4167
 5808ntf    on530415   6.305   4.252   5.392 -0.0228 -0.1613  0.3461
 5808ntf    on530416   6.034   4.597   5.164  0.1567  0.6831  0.2917
 5808ntf    on530417   6.261   4.570   5.098 -0.0011 -0.2380 -0.0714
 5808ntf    fn430418   6.240   4.822   5.223 -0.3882  0.0653  0.1972
 5808ntf    fn430419   6.096   4.775   5.362  0.0231 -0.2275  0.1293
 5808ntf    fn430420   6.291   4.712   5.400 -0.4949 -0.0535  0.2956
 5809ntf    cn130421   6.430   6.702   6.944 -0.1409 -0.3811 -0.0596
 5809ntf    sn230422   6.384   6.527   6.957 -0.5314 -0.2870 -0.1465
 5809ntf    nn330423   6.298   6.514   6.827 -0.0742  0.3459 -0.5178
 5809ntf    sn230424   6.190   6.405   6.791 -0.0022  0.0779  0.0575
 5809ntf    cn130425   6.039   6.454   6.878  0.0019 -0.0072  0.1126
 5809ntf    fn430426   6.490   6.727   6.829  0.0996 -0.2625  0.0925
 5809ntf    fn430427   6.321   6.777   6.946  0.1942  0.1065  0.0951
 5809ntf    fn430428   6.500   6.746   7.047  0.1099 -0.1472 -0.3276
 5809ntf    on530429   6.512   6.460   6.957 -0.3889 -0.0245  0.3366
 5809ntf    on530430   6.308   6.534   7.080 -0.5547 -0.2972 -0.1602
 5809ntf    on530431   6.221   6.275   6.844 -0.2885 -0.0520 -0.0949
 5809ntf    on530432   6.148   6.422   6.654 -0.3882 -0.3549  0.1236
 5809ntf    fn430433   6.013   6.584   6.875 -0.3935 -0.0938 -0.3086
 5809ntf    fn430434   5.934   6.399   6.819  0.1758  0.0027 -0.2082
 5809ntf    fn430435   6.039   6.420   7.006 -0.1260 -0.3238  0.0283
 5810ntf    cn130436   0.277   5.780   0.694  0.0851 -0.5286  0.2503
 5810ntf    sn230437   0.204   5.640   0.603 -0.3748 -0.2168  0.1386
 5810ntf    nn330438   0.220   5.671   0.450 -0.1604  0.1286  0.2290
 5810ntf    sn230439   0.339   5.635   0.354 -0.3624 -0.2251  0.1080
 5810ntf    cn130440   0.420   5.795   0.324 -0.3366 -0.1488  0.5708
 5810ntf    fn430441   0.219   5.894   0.661  0.5653 -0.3859 -0.1028
 5810ntf    fn430442   0.282   5.775   0.826  0.1039 -0.0879  0.2661
 5810ntf    fn430443   0.401   5.802   0.654 -0.0928 -0.4813 -0.2733
 5810ntf    on530444   0.273   5.524   0.653  0.0584 -0.0900 -0.1576
 5810ntf    on530445   0.064   5.653   0.634 -0.2063  0.8745  0.4876
 5810ntf    on530446   0.290   5.603   0.222  0.2276 -0.0782 -0.1501
 5810ntf    on530447   0.434   5.546   0.416 -0.2559 -0.3526 -0.2348
 5810ntf    fn430448   0.529   5.786   0.251 -0.3914 -0.7427  0.5563
 5810ntf    fn430449   0.340   5.878   0.258  0.7295  0.5163  0.0881
 5810ntf    fn430450   0.460   5.855   0.435  0.4269  0.2804  0.0709
 5811ntf    cn130451   1.527   5.777   1.259  0.0907  0.2337  0.1292
 5811ntf    sn230452   1.688   5.699   1.225 -0.1170 -0.0184 -0.2761
 5811ntf    nn330453   1.793   5.806   1.270 -0.1967  0.1753 -0.5444
 5811ntf    sn230454   1.885   5.901   1.186  0.1721  0.3904  0.0972
 5811ntf    cn130455   1.769   6.036   1.146 -0.0515  0.3077  0.4672
 5811ntf    fn430456   1.502   5.873   1.171  0.0710 -0.1584 -0.3007
 5811ntf    fn430457   1.431   5.690   1.235  0.1712  0.0181  0.5828
 5811ntf    fn430458   1.509   5.819   1.383 -0.0817  0.4959  0.0175
 5811ntf    on530459   1.685   5.577   1.301 -0.4672  0.3005  0.2265
 5811ntf    on530460   1.677   5.684   1.082 -0.2265  0.4558 -0.3177
 5811ntf    on530461   1.932   5.843   1.063 -0.5727  0.3444 -0.1686
 5811ntf    on530462   1.984   5.967   1.267  0.3249  0.4025 -0.0981
 5811ntf    fn430463   1.829   6.146   1.103 -0.3446  0.3719  0.2181
 5811ntf    fn430464   1.678   5.995   1.060  0.1731 -0.3504  0.5355
 5811ntf    fn430465   1.713   6.079   1.258  0.1080 -0.2466  0.7657
 5812ntf    cn130466   0.558   2.088   5.903 -0.1683 -0.4200  0.0551
 5812ntf    sn230467   0.641   2.158   5.756 -0.1626 -0.4563  0.0415
 5812ntf    nn330468   0.674   2.019   5.691 -0.5245 -0.4570 -0.1470
 5812ntf    sn230469   0.732   1.994   5.548  0.0200 -0.0061 -0.0078
 5812ntf    cn130470   0.884   1.905   5.594  0.0200  0.2700  0.5349
 5812ntf    fn430471   0.629   1.996   5.966  0.5493 -0.1061 -0.2731
 5812ntf    fn430472   0.531   2.182   5.992  0.1302  0.6316 -0.9271
 5812ntf    fn430473   0.441   2.040   5.864 -0.0018 -0.4743 -0.3904
 5812ntf    on530474   0.537   2.225   5.682 -0.3836 -0.3856  0.4136
 5812ntf    on530475   0.752   2.237   5.804 -0.0849 -0.2207 -0.5258
 5812ntf    on530476   0.794   2.110   5.487  0.7616 -0.2221  0.3235
 5812ntf    on530477   0.657   1.906   5.463 -0.4485  0.5871 -0.2186
 5812ntf    fn430478   0.846   1.795   5.656 -0.0563 -0.0279 -0.0292
 5812ntf    fn430479   0.966   1.881   5.493 -0.8119 -0.9547  0.1297
 5812ntf    fn430480   0.949   1.971   5.688  0.4428 -0.0505  0.4687
 5813ntf    cn130481   0.039   2.079   3.472  0.0215 -0.1778 -0.0243
 5813ntf    sn230482   0.140   1.928   3.471  0.2180 -0.0463 -0.0326
 5813ntf    nn330483   0.048   1.837   3.383 -0.2065  0.1227  0.2315
 5813ntf    sn230484   0.075   1.719   3.283 -0.0093  0.1104  0.3003
 5813ntf    cn130485  -0.079   1.626   3.309  0.0298 -0.0958 -0.1972
 5813ntf    fn430486  -0.005   2.107   3.351 -0.0490 -0.3204 -0.0320
 5813ntf    fn430487  -0.069   2.074   3.549  0.3439 -0.1050  0.4339
 5813ntf    fn430488   0.105   2.186   3.512 -0.4176  0.1659 -0.2094
 5813ntf    on530489   0.264   1.976   3.416  0.1971 -0.2386 -0.2475
 5813ntf    on530490   0.138   1.887   3.610 -0.7509 -0.3446 -0.1254
 5813ntf    on530491   0.184   1.630   3.317 -0.0120  0.4106  1.1179
 5813ntf    on530492   0.070   1.762   3.145  0.2032  0.6268  0.4493
 5813ntf    fn430493  -0.093   1.590   3.435  0.7583  0.1185 -0.0526
 5813ntf    fn430494  -0.186   1.698   3.277 -0.0465 -0.0749  0.1097
 5813ntf    fn430495  -0.093   1.509   3.249  0.0149 -0.3230  0.2544
 5814ntf    cn130496   5.333   4.792   0.162 -0.0507  0.1112  0.2725
 5814ntf    sn230497   5.491   4.704   0.144 -0.2230 -0.1353 -0.0481
 5814ntf    nn330498   5.554   4.785   0.025  0.0556 -0.0183  0.1764
 5814ntf    sn230499   5.657   4.903   0.019  0.1360 -0.1058 -0.1562
 5814ntf    cn130500   5.535   5.028  -0.031  0.1390  0.0169  0.1415
 5814ntf    fn430501   5.250   4.751   0.068  0.7470 -0.3273 -0.2531
 5814ntf    fn430502   5.283   4.746   0.275  0.3599  0.5013  0.6199
 5814ntf    fn430503   5.344   4.924   0.165 -0.2432  0.1373 -0.0865
 5814ntf    on530504   5.548   4.719   0.276 -0.5007 -0.0646  0.0643
 5814ntf    on530505   5.445   4.572   0.111  0.6757 -0.6070  0.5381
 5814ntf    on530506   5.754   4.883  -0.086  0.2408  0.0967 -0.0980
 5814ntf    on530507   5.707   4.959   0.142  0.2368 -0.2590 -0.1274
 5814ntf    fn430508   5.598   5.130  -0.088 -0.2189 -0.1778 -0.6241
 5814ntf    fn430509   5.449   4.989  -0.124  0.3740 -0.1875  0.0062
 5814ntf    fn430510   5.460   5.073   0.068  0.2800  0.3243  0.1073
 5815ntf    cn130511   2.420   2.059   2.367  0.0942 -0.1405  0.0717
 5815ntf    sn230512   2.570   2.076   2.266  0.1534 -0.1597  0.1565
 5815ntf    nn330513   2.691   2.102   2.363  0.2351  0.5155 -0.1148
 5815ntf    sn230514   2.835   2.150   2.325  0.4311  0.0953  0.0892
 5815ntf    cn130515   2.835   2.289   2.442 -0.0855  0.1062  0.0775
 5815ntf    fn430516   2.384   2.172   2.427 -0.4688  0.1520 -0.7867
 5815ntf    fn430517   2.319   2.022   2.290 -0.3206  1.1762 -0.0458
 5815ntf    fn430518   2.432   1.970   2.464  0.3288  0.0478  0.2160
 5815ntf    on530519   2.567   1.962   2.177  0.0958 -0.1395  0.1323
 5815ntf    on530520   2.544   2.200   2.197  0.7376 -0.4795 -0.6527
 5815ntf    on530521   2.854   2.204   2.193 -0.5802  0.3310  0.0357
 5815ntf    on530522   2.931   2.064   2.390  0.3052  0.0066  0.1598
 5815ntf    fn430523   2.825   2.265   2.572 -0.0820 -0.5306 -0.0383
 5815ntf    fn430524   2.941   2.369   2.435 -0.1704  0.2395  0.2900
 5815ntf    fn430525   2.732   2.370   2.422 -0.3520 -0.2068  0.1816
 5816ntf    cn130526   4.510   1.146   6.918 -0.1794 -0.2565 -0.0128
 5816ntf    sn230527   4.346   1.224   6.919 -0.0312  0.0554  0.0007
 5816ntf    nn330528   4.336   1.276   7.067 -0.3162  0.1592 -0.0542
 5816ntf    sn230529   4.234   1.374   7.134 -0.1278  0.4386 -0.1738
 5816ntf    cn130530   4.193   1.264   7.273  0.2355  0.3459 -0.1390
 5816ntf    fn430531   4.519   1.045   7.004  1.5367  0.0612  0.2185
 5816ntf    fn430532   4.535   1.086   6.802  0.0942  0.0505 -0.1120
 5816ntf    fn430533   4.614   1.222   6.951 -0.6929  0.4040  0.0957
 5816ntf    on530534   4.356   1.327   6.819  0.1709 -0.1818 -0.2240
 5816ntf    on530535   4.258   1.113   6.893 -0.3658  0.4657 -0.6178
 5816ntf    on530536   4.107   1.392   7.067 -0.4763 -0.3697  0.2467
 5816ntf    on530537   4.297   1.490   7.191 -0.0231  0.5604 -0.5378
 5816ntf    fn430538   4.298   1.243   7.350  0.0190 -0.5682 -0.0756
 5816ntf    fn430539   4.101   1.313   7.355  0.1061 -0.1472  0.0163
 5816ntf    fn430540   4.146   1.148   7.229 -0.2313  0.1955  0.7346
 5817ntf    cn130541   3.350   0.826   4.190 -0.3466  0.0770  0.1078
 5817ntf    sn230542   3.465   0.806   4.330 -0.4536 -0.2395  0.1523
 5817ntf    nn330543   3.459   0.956   4.377 -0.2542 -0.1462 -0.1143
 5817ntf    sn230544   3.576   1.052   4.418 -0.2943 -0.1438 -0.0040
 5817ntf    cn130545   3.492   1.148   4.548 -0.1277 -0.0067  0.0018
 5817ntf    fn430546   3.379   0.910   4.093 -0.4745  0.4279  0.3683
 5817ntf    fn430547   3.347   0.708   4.130  0.3302  0.0113  0.1956
 5817ntf    fn430548   3.227   0.864   4.221 -0.2358  0.3253  0.2481
 5817ntf    on530549   3.396   0.720   4.423  0.0946 -0.2045  0.5964
 5817ntf    on530550   3.589   0.754   4.279 -0.3373  0.1540  0.0323
 5817ntf    on530551   3.610   1.144   4.312 -0.5573  0.3750  0.3551
 5817ntf    on530552   3.693   0.989   4.472 -0.3169 -0.1895 -0.0090
 5817ntf    fn430553   3.420   1.066   4.622 -0.0263 -0.3918 -0.3224
 5817ntf    fn430554   3.583   1.207   4.624  0.4228 -0.2716 -0.4429
 5817ntf    fn430555   3.404   1.239   4.510  0.1758  0.2694 -0.0462
 5818ntf    cn130556   1.164   4.047   1.169  0.1929 -0.0047  0.2362
 5818ntf    sn230557   1.207   4.219   1.210 -0.0228  0.0846  0.0895
 5818ntf    nn330558   1.070   4.292   1.189  0.1979  0.5824  0.3598
 5818ntf    sn230559   1.014   4.361   1.060  0.1322 -0.2450 -0.0624
 5818ntf    cn130560   1.002   4.536   1.111 -0.1851 -0.3062  0.0760
 5818ntf    fn430561   1.100   4.033   1.055 -0.0345 -0.1768  0.3841
 5818ntf    fn430562   1.263   3.959   1.168 -0.0322 -0.2527 -0.4344
 5818ntf    fn430563   1.077   4.003   1.258 -0.5142  0.2299 -0.3331
 5818ntf    on530564   1.248   4.217   1.348 -0.0471  0.1029  0.0967
 5818ntf    on530565   1.310   4.255   1.115 -0.1324 -0.6547 -0.3180
 5818ntf    on530566   0.875   4.326   1.039  0.1586 -0.2266 -0.2693
 5818ntf    on530567   1.099   4.364   0.945  0.1043  0.7220 -0.0650
 5818ntf    fn430568   1.120   4.591   1.130  0.0377 -0.6765 -0.2174
 5818ntf    fn430569   0.954   4.609   1.011 -0.3712 -0.1731  0.2616
 5818ntf    fn430570   0.926   4.561   1.216 -0.3056 -0.3321 -0.0032
 5819ntf    cn130571   1.101   0.560   3.766 -0.0968 -0.1374  0.5733
 5819ntf    sn230572   0.993   0.673   3.673  0.1296 -0.3837  0.0094
 5819ntf    nn330573   1.077   0.805   3.677  0.0045 -0.2990 -0.1358
 5819ntf    sn230574   1.140   0.869   3.548  0.1139 -0.0631  0.0339
 5819ntf    cn130575   0.988   0.939   3.476 -0.1137 -0.4913  0.0983
 5819ntf    fn430576   1.144   0.598   3.885  0.3754  0.1779  0.3050
 5819ntf    fn430577   1.038   0.445   3.787  0.4208 -0.5164  0.0654
 5819ntf    fn430578   1.208   0.522   3.700 -0.3308  0.2348 -0.0250
 5819ntf    on530579   0.980   0.606   3.546  0.4540 -0.0572 -0.1984
 5819ntf    on530580   0.874   0.681   3.755  0.0591  0.6434 -0.1803
 5819ntf    on530581   1.184   0.780   3.444 -0.8892 -0.0859 -0.3905
 5819ntf    on530582   1.220   0.986   3.576  0.0691 -0.0909  0.2834
 5819ntf    fn430583   1.001   0.984   3.352  0.2781 -0.3694  0.1840
 5819ntf    fn430584   0.891   0.849   3.471 -0.0549 -0.5222 -0.6747
 5819ntf    fn430585   0.946   1.038   3.553  0.4908 -0.1149 -0.0528
 5820ntf    cn130586   5.200   4.848   0.898 -0.1261 -0.0815 -0.1251
 5820ntf    sn230587   5.042   4.927   0.855  0.0056  0.2942  0.0800
 5820ntf    nn330588   4.944   4.807   0.877 -0.0997  0.4218  0.3096
 5820ntf    sn230589   4.806   4.805   0.952 -0.1105  0.0975  0.2828
 5820ntf    cn130590   4.845   4.707   1.100  0.0296 -0.5418 -0.1738
 5820ntf    fn430591   5.227   4.745   0.819 -0.4596 -0.2270 -0.0502
 5820ntf    fn430592   5.297   4.931   0.862  0.2985 -0.4530  0.1675
 5820ntf    fn430593   5.216   4.803   1.021 -0.2340  0.3311  0.0414
 5820ntf    on530594   5.043   5.032   0.954 -0.0941 -0.0837  0.4842
 5820ntf    on530595   5.061   4.962   0.716  0.9202 -0.2114  0.0675
 5820ntf    on530596   4.710   4.720   0.887  0.0623 -0.1311  0.3278
 5820ntf    on530597   4.753   4.932   0.996 -0.1097  0.1098  0.2488
 5820ntf    fn430598   4.746   4.700   1.188  0.3709 -0.1125  0.2447
 5820ntf    fn430599   4.876   4.582   1.071  0.2758 -0.5092 -0.0495
 5820ntf    fn430600   4.945   4.761   1.167 -0.2582 -0.3213  0.0809
 5821ntf    cn130601   5.642   6.703   5.513 -0.3584  0.3147 -0.1759
 5821ntf    sn230602   5.762   6.802   5.418  0.2638 -0.2315  0.0286
 5821ntf    nn330603   5.833   6.866   5.542 -0.2635  0.1887  0.1216
 5821ntf    sn230604   5.973   6.938   5.536 -0.1974  0.0298 -0.2820
 5821ntf    cn130605   5.925   7.093   5.619  0.0135  0.0657 -0.2274
 5821ntf    fn430606   5.591   6.787   5.601 -0.4659 -0.1678  0.2259
 5821ntf    fn430607   5.540   6.653   5.446 -0.2510 -0.3670  0.1679
 5821ntf    fn430608   5.701   6.604   5.578 -0.3995 -0.0256 -0.6561
 5821ntf    on530609   5.847   6.717   5.339 -0.0525 -0.1421 -0.4139
 5821ntf    on530610   5.676   6.896   5.349  0.1388 -0.3404  0.0357
 5821ntf    on530611   6.024   6.975   5.407  0.0573  0.4221 -0.0735
 5821ntf    on530612   6.063   6.884   5.635 -0.1677 -0.0196 -0.3363
 5821ntf    fn430613   5.844   7.079   5.722  0.4347 -0.3063  0.0560
 5821ntf    fn430614   6.024   7.165   5.671 -0.0225 -0.2808  0.3288
 5821ntf    fn430615   5.858   7.174   5.539  0.0118  0.7419  0.4418
 5822ntf    cn130616   1.216   0.830   4.165  0.5499 -0.2624 -0.1103
 5822ntf    sn230617   1.368   0.908   4.102  0.3849 -0.0167 -0.2058
 5822ntf    nn330618   1.419   0.792   4.010 -0.0650 -0.4285  0.0589
 5822ntf    sn230619   1.514   0.673   4.049  0.3424 -0.1753 -0.1537
 5822ntf    cn130620   1.673   0.759   4.033  0.3292 -0.0655  0.2834
 5822ntf    fn430621   1.233   0.711   4.220 -0.2358 -0.3071  0.0510
 5822ntf    fn430622   1.171   0.904   4.265  0.4919 -0.5160  0.0522
 5822ntf    fn430623   1.120   0.831   4.074  0.7010 -0.0482 -0.2685
 5822ntf    on530624   1.318   1.021   4.029  0.1472  0.0684  0.0850
 5822ntf    on530625   1.453   0.943   4.213  0.2240  0.3082 -0.1836
 5822ntf    on530626   1.516   0.569   3.949 -0.0824 -0.6696  0.3401
 5822ntf    on530627   1.514   0.641   4.190  0.1214  0.6540  0.0355
 5822ntf    fn430628   1.701   0.770   3.904  0.8798  0.3296  0.4350
 5822ntf    fn430629   1.674   0.882   4.082 -0.2360  0.2905 -0.5691
 5822ntf    fn430630   1.779   0.698   4.084 -0.0952 -0.3723  0.8070
 5823ntf    cn130631   4.498   4.892   2.994  0.2492  0.2971 -0.0889
 5823ntf    sn230632   4.424   4.882   2.828  0.2819 -0.0447 -0.0838
 5823ntf    nn330633   4.283   4.946   2.854  0.2813  0.0801 -0.3926
 5823ntf    sn230634   4.174   4.896   2.955  0.2779  0.1379 -0.3678
 5823ntf    cn130635   4.026   4.923   2.854 -0.2003 -0.3381  0.1941
 5823ntf    fn430636   4.420   4.858   3.095  0.6368  0.2520  0.1973
 5823ntf    fn430637   4.600   4.809   3.000  0.0687  0.0621 -0.2262
 5823ntf    fn430638   4.555   5.009   3.019 -0.0902  0.3849  0.2792
 5823ntf    on530639   4.508   4.965   2.745 -0.0763  0.2333 -0.1725
 5823ntf    on530640   4.411   4.743   2.792 -0.1353  0.0071 -0.1383
 5823ntf    on530641   4.160   4.987   3.066 -0.3323 -0.8480  0.3909
 5823ntf    on530642   4.173   4.754   2.983 -0.2406  0.1839 -0.1370
 5823ntf    fn430643   4.041   5.032   2.780  0.0730 -0.0172  0.7218
 5823ntf    fn430644   3.996   4.825   2.770  0.2159 -0.3601  0.0695
 5823ntf    fn430645   3.919   4.940   2.930 -0.3344  0.2480 -0.1183
 5824ntf    cn130646   3.956   3.512   1.685 -0.0279  0.4619 -0.2640
 5824ntf    sn230647   4.112   3.456   1.611 -0.2276 -0.2807 -0.1315
 5824ntf    nn330648   4.070   3.342   1.511  0.2434 -0.1480 -0.4879
 5824ntf    sn230649   4.042   3.190   1.539 -0.3790  0.1010  0.3010
 5824ntf    cn130650   3.886   3.165   1.450 -0.3757  0.6974  0.1216
 5824ntf    fn430651   3.877   3.414   1.724 -0.0631  0.4251 -0.4318
 5824ntf    fn430652   3.969   3.590   1.792  0.1669  0.3898 -0.2359
 5824ntf    fn430653   3.884   3.571   1.591 -0.6254 -0.0442 -0.1321
 5824ntf    on530654   4.153   3.575   1.539  0.4422 -0.6859 -0.4323
 5824ntf    on530655   4.192   3.414   1.723 -0.2426  0.3580  0.1214
 5824ntf    on530656   4.009   3.154   1.675 -0.2471  0.0645  0.3235
 5824ntf    on530657   4.135   3.106   1.468 -0.4621  0.1257  0.1611
 5824ntf    fn430658   3.830   3.051   1.486  0.0885  0.5102  0.2610
 5824ntf    fn430659   3.795   3.254   1.485 -0.5162  0.5719  0.0770
 5824ntf    fn430660   3.901   3.166   1.318 -0.5630 -0.1399  0.0863
 5825ntf    cn130661   2.440   0.265   1.756 -0.0417 -0.1931 -0.2548
 5825ntf    sn230662   2.360   0.418   1.700  0.1152  0.0886  0.2878
 5825ntf    nn330663   2.467   0.522   1.746 -0.1978  0.4044  0.3071
 5825ntf    sn230664   2.597   0.561   1.667 -0.1085 -0.2130  0.1492
 5825ntf    cn130665   2.574   0.730   1.604 -0.1238 -0.1410  0.3480
 5825ntf    fn430666   2.553   0.236   1.693  0.0819  0.0600 -0.1503
 5825ntf    fn430667   2.471   0.270   1.884  0.5209 -0.1512 -0.3904
 5825ntf    fn430668   2.358   0.161   1.745 -0.3135 -0.0350  0.2530
 5825ntf    on530669   2.328   0.405   1.560 -0.2794  0.4759  0.3397
 5825ntf    on530670   2.246   0.424   1.789  0.0391  0.0330  0.1959
 5825ntf    on530671   2.626   0.487   1.546 -0.0527  0.1114 -0.0376
 5825ntf    on530672   2.712   0.574   1.753 -0.2222 -0.3237  0.3182
 5825ntf    fn430673   2.689   0.790   1.580 -0.1134 -0.4336 -0.3614
 5825ntf    fn430674   2.496   0.726   1.497 -0.1008 -0.0256  0.3278
 5825ntf    fn430675   2.506   0.804   1.691 -0.1902 -0.0070  0.1826
 5826ntf    cn130676   6.354   5.045   0.564  0.0364  0.5934 -0.1287
 5826ntf    sn230677   6.475   5.011   0.432 -0.0428 -0.0006 -0.0532
 5826ntf    nn330678   6.368   5.007   0.317  0.3705 -0.2009 -0.4322
 5826ntf    sn230679   6.386   5.084   0.181  0.3086 -0.0964 -0.3815
 5826ntf    cn130680   6.315   5.244   0.230  0.0950 -0.1753 -0.4287
 5826ntf    fn430681   6.242   4.981   0.534  0.4320 -0.4082  0.4983
 5826ntf    fn430682   6.384   4.981   0.676 -0.3330 -0.2248 -0.4904
 5826ntf    fn430683   6.321   5.170   0.591 -0.0916  0.4551  0.3730
 5826ntf    on530684   6.558   5.129   0.435 -0.1157  0.0472  0.1194
 5826ntf    on530685   6.530   4.883   0.467  0.2040  0.1537  0.1309
 5826ntf    on530686   6.299   5.043   0.074 -0.1531 -0.1522  0.0150
 5826ntf    on530687   6.520   5.115   0.137  0.5766 -0.2033  0.3373
 5826ntf    fn430688   6.373   5.314   0.326 -0.1197  0.3455 -0.6753
 5826ntf    fn430689   6.305   5.333   0.133  0.0106  0.6102  0.2857
 5826ntf    fn430690   6.188   5.225   0.263  0.1169  0.0824 -0.1859
 5827ntf    cn130691   5.857   3.815   0.621 -0.6602  0.0573  0.0762
 5827ntf    sn230692   5.805   3.959   0.523 -0.4876  0.1114  0.0640
 5827ntf    nn330693   5.678   3.995   0.607 -0.7079 -0.0312 -0.2036
 5827ntf    sn230694   5.656   4.104   0.719 -0.0259 -0.2600  0.1550
 5827ntf    cn130695   5.532   4.204   0.631  0.0838 -0.2078  0.0596
 5827ntf    fn430696   5.951   3.742   0.565 -0.5545  0.2050  0.0617
 5827ntf    fn430697   5.914   3.856   0.734  0.1426 -0.7400 -0.0342
 5827ntf    fn430698   5.760   3.735   0.663 -0.6275  0.0368  0.1125
 5827ntf    on530699   5.921   4.043   0.532 -0.0933 -0.3872 -0.2773
 5827ntf    on530700   5.771   3.893   0.399 -0.1466 -0.0017  0.0292
 5827ntf    on530701   5.762   4.199   0.740  0.1104 -0.4845  0.5053
 5827ntf    on530702   5.597   4.050   0.839  0.0961 -0.5036  0.1078
 5827ntf    fn430703   5.419   4.138   0.612 -0.0526  0.1462 -0.3556
 5827ntf    fn430704   5.483   4.301   0.705 -0.1519  0.1583 -0.5741
 5827ntf    fn430705   5.577   4.265   0.523  0.5841 -0.2899  0.2183
 5828ntf    cn130706   4.987   3.496   3.775  0.0723 -0.0357 -0.0570
 5828ntf    sn230707   4.920   3.330   3.811  0.0651  0.0853  0.4979
 5828ntf    nn330708   4.934   3.318   3.967 -0.1185  0.3313  0.5340
 5828ntf    sn230709   4.986   3.203   4.060 -0.0272 -0.2355 -0.2110
 5828ntf    cn130710   4.869   3.229   4.196  0.2471  0.4192 -0.0991
 5828ntf    fn430711   5.018   3.513   3.648 -0.1705  0.4845 -0.0483
 5828ntf    fn430712   4.889   3.580   3.802 -0.0673 -0.3167  0.3297
 5828ntf    fn430713   5.088   3.512   3.859  0.6705  0.1819 -0.8131
 5828ntf    on530714   4.781   3.338   3.774  0.0588  0.3231  0.5689
 5828ntf    on530715   5.008   3.253   3.726 -0.0672 -0.0268  0.4628
 5828ntf    on530716   5.116   3.232   4.114  0.0664 -0.1572 -0.4793
 5828ntf    on530717   4.961   3.069   4.012  0.6195 -0.2609 -0.4890
 5828ntf    fn430718   4.927   3.320   4.272  0.3637  0.1343  0.1566
 5828ntf    fn430719   4.750   3.262   4.148  0.3253  0.0802 -0.5259
 5828ntf    fn430720   4.845   3.123   4.271  0.6901  0.4976  0.1558
 5829ntf    cn130721   1.045   5.552   4.579  0.0035 -0.0539  0.2677
 5829ntf    sn230722   1.127   5.714   4.578 -0.3232  0.1105  0.1352
 5829ntf    nn330723   0.993   5.794   4.594 -0.6318 -0.3672 -0.0242
 5829ntf    sn230724   0.943   5.870   4.722 -0.1186  0.1867 -0.1458
 5829ntf    cn130725   1.055   6.013   4.722  0.0192  0.0777 -0.0333
 5829ntf    fn430726   0.966   5.531   4.475  0.4140  0.4487 -0.1523
 5829ntf    fn430727   1.134   5.454   4.578 -0.2920 -0.3221 -0.1167
 5829ntf    fn430728   0.968   5.525   4.683  0.1715 -0.1946  0.3563
 5829ntf    on530729   1.216   5.726   4.690  0.0481  0.3425 -0.1803
 5829ntf    on530730   1.191   5.724   4.449  0.1253 -0.0402  0.3438
 5829ntf    on530731   0.964   5.801   4.847 -0.3431  0.2717 -0.0596
 5829ntf    on530732   0.810   5.926   4.714 -0.2656 -0.1553 -0.1149
 5829ntf    fn430733   1.034   6.079   4.835 -0.1051  0.1673 -0.1085
 5829ntf    fn430734   1.184   5.987   4.708 -0.1211 -0.7096  0.1020
 5829ntf    fn430735   1.022   6.099   4.628  0.4109  0.1033 -0.1475
 5830ntf    cn130736   2.019   7.040   4.104  0.4190  0.2392  0.0870
 5830ntf    sn230737   2.149   7.012   3.981  0.1316 -0.1262 -0.1362
 5830ntf    nn330738   2.236   6.906   4.056  0.2819  0.2671  0.2481
 5830ntf    sn230739   2.334   6.925   4.177  0.2853  0.0590  0.2790
 5830ntf    cn130740   2.249   6.809   4.288  0.3654 -0.0430  0.2344
 5830ntf    fn430741   1.931   6.941   4.110 -0.1861  0.7493 -0.2929
 5830ntf    fn430742   2.076   7.055   4.223 -0.1154  0.4088  0.3264
 5830ntf    fn430743   1.952   7.150   4.075 -0.0700 -0.0635  0.0576
 5830ntf    on530744   2.082   6.974   3.859  0.6439 -0.4349 -0.3281
 5830ntf    on530745   2.221   7.138   3.979 -0.3418  0.1464 -0.1738
 5830ntf    on530746   2.331   7.051   4.247 -0.1724  0.3471 -0.2555
 5830ntf    on530747   2.459   6.862   4.141  0.1426 -0.3499  0.5024
 5830ntf    fn430748   2.219   6.697   4.224 -0.1942  0.1367  0.1696
 5830ntf    fn430749   2.309   6.780   4.402 -0.7038  0.1964  0.8721
 5830ntf    fn430750   2.131   6.863   4.317  0.3421  0.0742 -0.0697
 5831ntf    cn130751   0.070   1.513   5.753 -0.0034 -0.0604 -0.1177
 5831ntf    sn230752   0.144   1.480   5.590 -0.1414 -0.0978 -0.1742
 5831ntf    nn330753   0.262   1.403   5.659 -0.3327 -0.1035  0.1525
 5831ntf    sn230754   0.404   1.453   5.705 -0.1855  0.0309 -0.4398
 5831ntf    cn130755   0.491   1.293   5.698  0.0965  0.1735 -0.1895
 5831ntf    fn430756   0.153   1.566   5.841  0.1476 -0.0316 -0.2786
 5831ntf    fn430757  -0.048   1.572   5.747  0.3326  0.6912  0.5316
 5831ntf    fn430758   0.039   1.402   5.820 -0.3379  0.3021  0.3351
 5831ntf    on530759   0.038   1.402   5.531 -0.6260  0.2919  0.1733
 5831ntf    on530760   0.168   1.616   5.548 -0.6101  0.0737  0.0988
 5831ntf    on530761   0.406   1.482   5.846 -0.1015 -0.2178 -0.3896
 5831ntf    on530762   0.478   1.532   5.609  0.8960 -0.6825 -0.2149
 5831ntf    fn430763   0.623   1.300   5.704  0.1175 -0.1560 -0.2590
 5831ntf    fn430764   0.450   1.209   5.790  0.1166 -0.1705 -0.4927
 5831ntf    fn430765   0.470   1.226   5.586 -0.4079  0.1036 -0.0555
 5832ntf    cn130766   2.964   2.053   3.601  0.0219 -0.3945 -0.3980
 5832ntf    sn230767   2.999   2.155   3.454  0.2739  0.2099  0.0788
 5832ntf    nn330768   3.091   2.058   3.372  0.0145 -0.0998  0.1493
 5832ntf    sn230769   3.063   1.951   3.260 -0.3173  0.1227  0.0146
 5832ntf    cn130770   3.238   1.917   3.222 -0.1739  0.5563  0.2777
 5832ntf    fn430771   2.870   2.094   3.685  0.3195 -0.4362 -0.0423
 5832ntf    fn430772   2.925   1.932   3.562 -0.0279 -0.3606 -0.4529
 5832ntf    fn430773   3.073   2.039   3.675 -0.3958 -0.3469  0.2298
 5832ntf    on530774   2.868   2.177   3.398  0.4677 -0.8060 -0.8088
 5832ntf    on530775   3.073   2.270   3.499  0.0500  0.3015  0.2204
 5832ntf    on530776   2.995   2.004   3.145  0.1201 -0.2174 -0.4043
 5832ntf    on530777   3.016   1.821   3.301  0.4580 -0.2666 -0.3022
 5832ntf    fn430778   3.250   1.823   3.129 -0.1885  0.4239  0.4092
 5832ntf    fn430779   3.303   2.021   3.172 -0.1463  0.4019 -0.0089
 5832ntf    fn430780   3.300   1.879   3.333  0.3106  0.0984 -0.1470
 5833ntf    cn130781   5.546   2.564   0.455  0.4025  0.3625  0.2672
 5833ntf    sn230782   5.625   2.725   0.423  0.1751  0.4166 -0.0196
 5833ntf    nn330783   5.506   2.816   0.377  0.3994  0.7666  0.0914
 5833ntf    sn230784   5.398   2.879   0.472 -0.0223 -0.0498  0.1600
 5833ntf    cn130785   5.486   3.030   0.519 -0.2920  0.0884  0.2246
 5833ntf    fn430786   5.627   2.462   0.479 -0.0080 -0.1276 -0.4015
 5833ntf    fn430787   5.470   2.570   0.563  0.7133 -0.4095  0.5342
 5833ntf    fn430788   5.471   2.524   0.354 -0.0262  0.5148  0.5244
 5833ntf    on530789   5.687   2.754   0.550 -0.1654  0.1259  0.2158
 5833ntf    on530790   5.717   2.705   0.314 -0.1213  0.2688 -0.2452
 5833ntf    on530791   5.364   2.805   0.590  0.1907 -0.4888 -0.0513
 5833ntf    on530792   5.291   2.931   0.389  0.0837 -0.1255 -0.0253
 5833ntf    fn430793   5.608   3.007   0.565 -0.4161 -0.9787  0.0271
 5833ntf    fn430794   5.503   3.106   0.412  0.2149 -0.3251  0.0068
 5833ntf    fn430795   5.417   3.103   0.605  0.5248  0.6915  0.3898
 5834ntf    cn130796   4.570   3.228   5.937 -0.4907  0.1007 -0.2480
 5834ntf    sn230797   4.531   3.234   5.760 -0.1454  0.2788 -0.3189
 5834ntf    nn330798   4.673   3.202   5.702 -0.0277  0.1503  0.0409
 5834ntf    sn230799   4.744   3.232   5.566  0.1788 -0.0266  0.1071
 5834ntf    cn130800   4.729   3.059   5.512  0.3273 -0.0490  0.1380
 5834ntf    fn430801   4.664   3.317   5.963 -0.2070 -0.3305  0.2382
 5834ntf    fn430802   4.467   3.254   6.017 -0.0742 -0.1092  0.3637
 5834ntf    fn430803   4.609   3.107   5.974  0.2322  0.2319 -0.5625
 5834ntf    on530804   4.443   3.120   5.748  0.1416  0.1189 -0.9312
 5834ntf    on530805   4.483   3.367   5.732 -0.0999  0.2707 -0.4372
 5834ntf    on530806   4.886   3.253   5.576  0.1936  0.1092 -0.3345
 5834ntf    on530807   4.665   3.295   5.462  0.3094  0.1559  0.1188
 5834ntf    fn430808   4.631   3.034   5.427 -0.1405  0.0228  0.6549
 5834ntf    fn430809   4.838   3.022   5.446  0.0228 -0.5998 -0.0620
 5834ntf    fn430810   4.717   2.975   5.613  0.5595  0.3231  0.4803
 5835ntf    cn130811   4.282   5.088   5.878  0.5654  0.3111  0.4209
 5835ntf    sn230812   4.192   5.224   5.796 -0.0739 -0.2374  0.2037
 5835ntf    nn330813   4.310   5.322   5.765 -0.4813  0.3366  0.4615
 5835ntf    sn230814   4.357   5.451   5.841  0.0702  0.2174  0.3262
 5835ntf    cn130815   4.291   5.574   5.724 -0.4422  0.1533  0.5474
 5835ntf    fn430816   4.316   5.113   6.003  0.3152  0.4662  0.4602
 5835ntf    fn430817   4.211   4.976   5.878  0.3242  0.4550 -0.3428
 5835ntf    fn430818   4.395   5.059   5.816  0.1893 -0.3746  0.0420
 5835ntf    on530819   4.140   5.151   5.683 -0.2165 -0.4535  0.4084
 5835ntf    on530820   4.094   5.274   5.889 -0.1264 -1.0216  0.5870
 5835ntf    on530821   4.501   5.468   5.840  0.1726 -0.5582  0.8242
 5835ntf    on530822   4.291   5.487   5.964  0.3180  0.8633  0.2752
 5835ntf    fn430823   4.332   5.699   5.736 -0.3980  0.1778  0.1662
 5835ntf    fn430824   4.305   5.548   5.595 -0.6696  0.3822  0.4779
 5835ntf    fn430825   4.160   5.570   5.743 -0.4900 -0.0448  0.1785
 5836ntf    cn130826   2.568   4.090   6.396  0.3016  0.1859  0.0307
 5836ntf    sn230827   2.460   4.120   6.539  0.3172  0.0247  0.0757
 5836ntf    nn330828   2.503   4.269   6.563  0.3417  0.0099  0.1276
 5836ntf    sn230829   2.438   4.400   6.507 -0.2116 -0.2321  0.2004
 5836ntf    cn130830   2.376   4.462   6.667  0.0034  0.0261  0.1841
 5836ntf    fn430831   2.548   3.976   6.332  0.1289  0.1158  0.2082
 5836ntf    fn430832   2.559   4.188   6.307 -0.1410 -0.3563 -0.5316
 5836ntf    fn430833   2.698   4.094   6.423  0.2736 -0.2516  0.2399
 5836ntf    on530834   2.329   4.085   6.490  0.4524  0.6300 -0.7242
 5836ntf    on530835   2.517   4.031   6.638 -0.4144 -0.6287 -0.0762
 5836ntf    on530836   2.318   4.398   6.427 -0.5199  0.6892  0.6219
 5836ntf    on530837   2.533   4.500   6.464 -0.7589 -0.1652 -0.8839
 5836ntf    fn430838   2.468   4.506   6.751 -0.0617 -0.0518  0.2960
 5836ntf    fn430839   2.296   4.566   6.649  0.0796 -0.0032 -0.3477
 5836ntf    fn430840   2.307   4.372   6.734  0.1115 -0.2965 -0.1297
 5837ntf    cn130841   7.550   6.803   6.137 -0.3688  0.4779  0.1138
 5837ntf    sn230842   7.653   6.707   6.253 -0.4319  0.3781  0.0876
 5837ntf    nn330843   7.734   6.626   6.146  0.5400  0.3355  0.8511
 5837ntf    sn230844   7.818   6.499   6.185  0.3357  0.0123  0.2420
 5837ntf    cn130845   7.720   6.367   6.106 -0.1555  0.3598  0.2684
 5837ntf    fn430846   7.614   6.895   6.069  0.0913  0.0280 -0.0687
 5837ntf    fn430847   7.489   6.725   6.049  0.5906 -0.4218  0.2330
 5837ntf    fn430848   7.450   6.874   6.187 -0.1793  0.6460  0.2537
 5837ntf    on530849   7.715   6.812   6.329 -0.4589  0.4868 -0.0405
 5837ntf    on530850   7.555   6.623   6.316 -0.1215  0.1187  0.2232
 5837ntf    on530851   7.817   6.460   6.324 -0.3192 -0.1109  0.2091
 5837ntf    on530852   7.938   6.477   6.108  0.1815  0.2102 -0.0580
 5837ntf    fn430853   7.588   6.376   6.111 -0.1502  0.4616  0.2401
 5837ntf    fn430854   7.748   6.360   5.977 -0.6807  0.9071  0.1149
 5837ntf    fn430855   7.753   6.248   6.153  0.2216  0.1563 -0.4934
 5838ntf    cn130856   0.355   1.926   4.504 -0.0596  0.0458  0.1552
 5838ntf    sn230857   0.509   1.921   4.408 -0.2148 -0.2149 -0.0814
 5838ntf    nn330858   0.559   1.779   4.453 -0.1450 -0.2870 -0.3813
 5838ntf    sn230859   0.573   1.647   4.370  0.0821 -0.5569  0.0872
 5838ntf    cn130860   0.754   1.643   4.349  0.1089 -0.1315  0.2352
 5838ntf    fn430861   0.368   1.979   4.625  0.2664  0.4745 -0.0657
 5838ntf    fn430862   0.258   1.988   4.439  0.2287 -0.3808 -0.6881
 5838ntf    fn430863   0.303   1.805   4.514  0.0515 -0.0266 -0.1412
 5838ntf    on530864   0.457   1.930   4.273 -0.6454 -1.4464 -0.0099
 5838ntf    on530865   0.600   2.025   4.451  0.0714 -0.1497 -0.8186
 5838ntf    on530866   0.528   1.657   4.234  0.3168 -0.0178  0.0480
 5838ntf    on530867   0.535   1.525   4.438 -0.4098 -0.3271  0.2288
 5838ntf    fn430868   0.822   1.678   4.457 -0.2576  0.1538  0.3783
 5838ntf    fn430869   0.797   1.524   4.313 -0.4485 -0.1607 -0.3502
 5838ntf    fn430870   0.797   1.729   4.258 -0.8328  0.0960 -0.0058
 5839ntf    cn130871   4.867   7.411   0.671 -0.2787 -0.1590  0.0479
 5839ntf    sn230872   4.932   7.541   0.780  0.1492  0.0409 -0.4445
 5839ntf    nn330873   4.813   7.571   0.878  0.4213 -0.3407  0.0083
 5839ntf    sn230874   4.813   7.556   1.035  0.2101 -0.2519  0.0174
 5839ntf    cn130875   4.783   7.377   1.055  0.2395 -0.2142  0.3984
 5839ntf    fn430876   4.814   7.318   0.749 -0.1610 -0.4615 -0.2304
 5839ntf    fn430877   4.768   7.457   0.596 -0.5546 -0.0850  0.4504
 5839ntf    fn430878   4.954   7.353   0.591 -0.3517 -0.0999 -0.0743
 5839ntf    on530879   5.053   7.481   0.833  0.0903  0.1939 -0.1328
 5839ntf    on530880   4.957   7.641   0.680 -0.3710  0.2593 -0.3574
 5839ntf    on530881   4.689   7.602   1.090 -0.0737 -0.5729 -0.3423
 5839ntf    on530882   4.937   7.591   1.099  0.1496  0.1045 -0.0597
 5839ntf    fn430883   4.883   7.297   1.021 -0.1813 -0.4761 -0.2404
 5839ntf    fn430884   4.735   7.347   1.174  0.1732 -0.4882  0.3011
 5839ntf    fn430885   4.683   7.345   0.975 -0.0309  0.6868  0.3570
 5840ntf    cn130886   1.101   2.923   4.157  0.1582 -0.3206  0.2057
 5840ntf    sn230887   1.052   2.876   4.325 -0.0876  0.2364  0.2923
 5840ntf    nn330888   1.015   2.725   4.300 -0.0667  0.2104  0.4169
 5840ntf    sn230889   1.072   2.596   4.369 -0.4400 -0.1743  0.0148
 5840ntf    cn130890   0.963   2.597   4.514 -0.1757  0.2101  0.2135
 5840ntf    fn430891   1.172   3.034   4.149 -0.3491  0.0232  0.4325
 5840ntf    fn430892   1.176   2.830   4.101 -0.2454 -0.3886 -0.2267
 5840ntf    fn430893   0.995   2.938   4.080  0.3293  0.0235  0.0333
 5840ntf    on530894   1.179   2.904   4.387  0.0391 -0.0162  0.1495
 5840ntf    on530895   0.942   2.962   4.363 -0.1574  0.2497  0.0638
 5840ntf    on530896   1.202   2.608   4.431 -0.4086  0.0991 -0.1002
 5840ntf    on530897   1.043   2.472   4.302 -0.4023 -0.2753  0.1832
 5840ntf    fn430898   0.968   2.476   4.567 -0.1354  0.2402  0.2787
 5840ntf    fn430899   1.009   2.681   4.606  0.7200 -0.2025  0.1413
 5840ntf    fn430900   0.837   2.632   4.493 -0.1121  0.0521 -0.4377
 5841ntf    cn130901   0.810   5.548   0.316  0.2320  0.1271 -0.1983
 5841ntf    sn230902   0.845   5.372   0.285  0.4382  0.1077  0.1485
 5841ntf    nn330903   0.990   5.354   0.343  0.6323 -0.6548 -0.5531
 5841ntf    sn230904   1.020   5.283   0.480 -0.1856 -0.0856 -0.0658
 5841ntf    cn130905   1.193   5.334   0.502 -0.2103  0.0877 -0.2711
 5841ntf    fn430906   0.833   5.598   0.436  0.3053 -0.0752 -0.1269
 5841ntf    fn430907   0.869   5.630   0.231  0.1283  0.4300  0.0223
 5841ntf    fn430908   0.683   5.580   0.297  0.1030  0.3768  1.0184
 5841ntf    on530909   0.741   5.298   0.352  0.0935  0.3791 -0.0852
 5841ntf    on530910   0.853   5.348   0.143  0.0865  0.4344  0.0719
 5841ntf    on530911   1.042   5.140   0.482 -0.2782 -0.0911  0.9186
 5841ntf    on530912   0.952   5.342   0.592 -0.2293 -0.0847 -0.0926
 5841ntf    fn430913   1.258   5.254   0.585 -0.7333 -0.1305 -0.0668
 5841ntf    fn430914   1.267   5.332   0.392  0.4211 -0.0620  0.1474
 5841ntf    fn430915   1.210   5.458   0.544  0.3184  0.0279 -0.2976
 5842ntf    cn130916   2.885   1.182   4.923 -0.2065  0.0471 -0.3760
 5842ntf    sn230917   2.984   1.174   5.075 -0.3284  0.1123 -0.2924
 5842ntf    nn330918   2.938   1.036   5.134  0.2692 -0.0204 -0.1287
 5842ntf    sn230919   2.813   0.999   5.222  0.1639 -0.1220 -0.3224
 5842ntf    cn130920   2.883   1.035   5.385  0.1528 -0.0740 -0.3282
 5842ntf    fn430921   2.923   1.286   4.851 -0.4730  0.3415 -0.0945
 5842ntf    fn430922   2.913   1.079   4.844 -0.5673 -0.7487  0.5143
 5842ntf    fn430923   2.754   1.179   4.940 -0.2188  0.4136 -0.3971
 5842ntf    on530924   3.119   1.171   5.024 -0.2400  0.5398 -0.0859
 5842ntf    on530925   2.939   1.291   5.145  0.1568  0.0631  0.1026
 5842ntf    on530926   2.792   0.856   5.225  0.1107 -0.1105 -0.1611
 5842ntf    on530927   2.696   1.081   5.208  0.2573  0.0764  0.0537
 5842ntf    fn430928   2.783   1.080   5.460  0.3970 -0.1251  0.0289
 5842ntf    fn430929   2.949   0.933   5.435  0.1360  0.2181  0.3019
 5842ntf    fn430930   2.969   1.135   5.378  0.2941 -0.1724 -0.0401
 5843ntf    cn130931   2.359   3.295   3.135  0.2516 -0.2572  0.2554
 5843ntf    sn230932   2.266   3.323   2.981  0.1618 -0.0140  0.3535
 5843ntf    nn330933   2.135   3.249   3.026  0.0448 -0.0517 -0.0523
 5843ntf    sn230934   2.054   3.142   2.944  0.0873 -0.1665  0.0560
 5843ntf    cn130935   2.144   2.990   2.985  0.2510  0.0405  0.4712
 5843ntf    fn430936   2.489   3.292   3.111  0.2354  0.1086  0.1240
 5843ntf    fn430937   2.337   3.388   3.227  0.2825  0.7500 -0.7407
 5843ntf    fn430938   2.333   3.181   3.197  0.8779 -0.3767  0.3078
 5843ntf    on530939   2.244   3.465   2.969 -0.1206 -0.1144 -0.3259
 5843ntf    on530940   2.354   3.263   2.884 -0.0312  0.1580  0.0708
 5843ntf    on530941   2.058   3.147   2.800  0.5612 -0.3328  0.0634
 5843ntf    on530942   1.924   3.123   3.004 -0.0583 -0.2889 -0.2955
 5843ntf    fn430943   2.261   2.989   2.923 -0.1365 -0.2729 -0.2625
 5843ntf    fn430944   2.168   2.968   3.113  0.4670 -0.0828  0.4100
 5843ntf    fn430945   2.085   2.884   2.930 -0.2225  0.7243 -0.3609
 5844ntf    cn130946   6.792   4.151   0.181 -0.0589 -0.1638 -0.0494
 5844ntf    sn230947   6.888   4.256   0.067 -0.0382  0.0831  0.1941
 5844ntf    nn330948   6.967   4.346   0.167  0.1855  0.0247  0.0695
 5844ntf    sn230949   6.957   4.495   0.217  0.3388  0.0281  0.0920
 5844ntf    cn130950   6.995   4.474   0.393 -0.0063 -0.3103  0.1274
 5844ntf    fn430951   6.866   4.102   0.278 -0.1320 -0.4120 -0.1183
 5844ntf    fn430952   6.697   4.224   0.238  0.3496 -0.2675  0.7701
 5844ntf    fn430953   6.727   4.051   0.122 -0.1827 -0.7688  1.0919
 5844ntf    on530954   6.978   4.172  -0.008 -0.0610 -0.1526  0.4277
 5844ntf    on530955   6.781   4.316  -0.009 -0.1179 -0.0350  0.2128
 5844ntf    on530956   6.823   4.548   0.218  0.5464  0.5519  0.2529
 5844ntf    on530957   7.066   4.581   0.179 -0.0905  0.5990  0.1353
 5844ntf    fn430958   7.103   4.398   0.405  0.2067 -0.0530 -0.1685
 5844ntf    fn430959   7.018   4.587   0.457  0.2731 -0.2263 -0.1191
 5844ntf    fn430960   6.890   4.420   0.453 -0.2628  0.1544  0.0987
 5845ntf    cn130961   5.597   1.250   3.047 -0.1271 -0.1298  0.1005
 5845ntf    sn230962   5.531   1.126   2.931  0.0260 -0.0587 -0.0629
 5845ntf    nn330963   5.606   0.996   2.973  0.0605 -0.0692 -0.1574
 5845ntf    sn230964   5.714   0.918   2.889  0.1093 -0.0587 -0.1045
 5845ntf    cn130965   5.607   0.816   2.784 -0.2183  0.2362 -0.0597
 5845ntf    fn430966   5.547   1.368   3.015  0.2780 -0.0330 -0.1833
 5845ntf    fn430967   5.566   1.235   3.174 -1.1038 -0.5139 -0.1682
 5845ntf    fn430968   5.727   1.271   3.033 -0.1902  0.1544 -0.0619
 5845ntf    on530969   5.391   1.115   2.964  0.0129  0.1177 -0.0606
 5845ntf    on530970   5.559   1.179   2.799 -0.5838  0.4163 -0.0120
 5845ntf    on530971   5.788   0.829   2.976 -0.0857  0.3056  0.4371
 5845ntf    on530972   5.796   0.989   2.795 -0.2770  0.0531 -0.3557
 5845ntf    fn430973   5.523   0.888   2.712 -0.5198 -0.0881 -0.0353
 5845ntf    fn430974   5.674   0.750   2.690 -0.4641 -0.3334  0.1582
 5845ntf    fn430975   5.541   0.721   2.849 -0.0016  0.2855  0.2330
 5846ntf    cn130976   0.996   3.617   6.151  0.1722  0.1767 -0.2976
 5846ntf    sn230977   1.115   3.499   6.082 -0.1588 -0.4255  0.1517
 5846ntf    nn330978   1.153   3.408   6.204  0.0390 -0.1741  0.2787
 5846ntf    sn230979   1.275   3.316   6.240  0.3191  0.0270 -0.1472
 5846ntf    cn130980   1.176   3.163   6.242 -0.4420  0.5129  0.3729
 5846ntf    fn430981   0.940   3.697   6.062 -0.6416 -0.3605 -0.2808
 5846ntf    fn430982   0.892   3.559   6.208  0.0540  0.5335 -0.1494
 5846ntf    fn430983   1.062   3.695   6.236 -0.1199  0.1446 -0.0406
 5846ntf    on530984   1.047   3.429   5.976  0.4896 -0.2131 -0.4175
 5846ntf    on530985   1.218   3.592   6.041 -0.8368  0.0698 -0.4509
 5846ntf    on530986   1.314   3.345   6.376  0.0570 -0.1181 -0.0395
 5846ntf    on530987   1.380   3.295   6.144  0.2495 -0.3794 -0.1340
 5846ntf    fn430988   1.255   3.057   6.245  0.1405  0.9166 -0.3731
 5846ntf    fn430989   1.093   3.152   6.344 -0.5410  0.3616  0.2761
 5846ntf    fn430990   1.104   3.142   6.133  0.2845  0.8961 -0.1969
 5847ntf    cn130991   1.275   1.010   6.316 -0.0069 -0.2768  0.2740
 5847ntf    sn230992   1.358   1.000   6.155  0.3523 -0.0535  0.4437
 5847ntf    nn330993   1.492   1.075   6.188  0.3552  0.3337 -0.4033
 5847ntf    sn230994   1.621   1.005   6.242  0.0111  0.2484  0.3248
 5847ntf    cn130995   1.711   1.001   6.084 -0.2085  0.1276  0.2021
 5847ntf    fn430996   1.348   0.955   6.412  0.1395 -0.5012  0.0369
 5847ntf    fn430997   1.249   1.128   6.370 -0.3665 -0.1801 -0.1059
 5847ntf    fn430998   1.162   0.942   6.319 -0.2388  0.0757 -0.3353
 5847ntf    on530999   1.358   0.860   6.118 -0.0021  0.0183  0.1628
 5847ntf    on531000   1.272   1.086   6.079  1.0106  0.3680  0.1639
 5847ntf    on531001   1.614   0.867   6.283 -0.5131 -0.0287 -0.6713
 5847ntf    on531002   1.696   1.102   6.318  0.4847  0.4700 -0.4157
 5847ntf    fn431003   1.657   0.936   5.983 -0.1256  0.1367  0.1518
 5847ntf    fn431004   1.750   1.120   6.042 -0.2983  0.0493 -0.1036
 5847ntf    fn431005   1.825   0.934   6.090 -0.3499 -0.1173  0.1678
 5848ntf    cn131006   1.187   4.020   6.295 -0.0329  0.0735 -0.1418
 5848ntf    sn231007   1.200   4.125   6.147 -0.0778  0.0664 -0.1510
 5848ntf    nn331008   1.116   4.245   6.205 -0.5860 -0.2946 -0.1308
 5848ntf    sn231009   0.979   4.301   6.150 -0.5732 -0.3604 -0.2311
 5848ntf    cn131010   0.892   4.315   6.309  0.5532  0.2539  0.3505
 5848ntf    fn431011   1.240   4.078   6.402  0.1455 -0.7326  0.2106
 5848ntf    fn431012   1.064   3.982   6.326  0.0922 -0.2111  0.0093
 5848ntf    fn431013   1.256   3.909   6.278  0.0468  0.0346  0.4224
 5848ntf    on531014   1.341   4.152   6.139  0.0463 -0.5824 -0.1203
 5848ntf    on531015   1.147   4.051   6.036  0.2798 -0.0333 -0.2527
 5848ntf    on531016   0.903   4.216   6.062  0.1735 -0.2442 -1.0050
 5848ntf    on531017   0.984   4.438   6.106  0.2578 -0.2602  0.1485
 5848ntf    fn431018   0.763   4.345   6.301  0.5196 -0.0142 -0.1375
 5848ntf    fn431019   0.893   4.202   6.378  0.7256 -0.1907 -0.3747
 5848ntf    fn431020   0.940   4.417   6.378  0.0893  0.6100  0.1532
 5849ntf    cn131021   6.554   6.626   4.574  0.1799 -0.1566  0.0375
 5849ntf    sn231022   6.553   6.784   4.664  0.1095 -0.3050  0.2983
 5849ntf    nn331023   6.697   6.839   4.630  0.1405 -0.5403  0.0505
 5849ntf    sn231024   6.806   6.886   4.732  0.0699  0.0045 -0.1263
 5849ntf    cn131025   6.901   6.732   4.750  0.3293  0.2078  0.2647
 5849ntf    fn431026   6.643   6.538   4.617  0.0018 -0.2498  0.2163
 5849ntf    fn431027   6.437   6.567   4.593  0.0601 -0.0984 -0.4972
 5849ntf    fn431028   6.565   6.638   4.443 -0.1360 -0.2127  0.0054
 5849ntf    on531029   6.441   6.847   4.598  0.3023 -0.4092 -0.1332
 5849ntf    on531030   6.530   6.745   4.801 -0.2741  0.5324  0.4769
 5849ntf    on531031   6.754   6.919   4.862  0.0632 -0.7239  0.0574
 5849ntf    on531032   6.902   6.973   4.668  0.1346 -0.3345 -0.4883
 5849ntf    fn431033   6.820   6.628   4.741 -0.0245  0.5040 -0.0009
 5849ntf    fn431034   6.987   6.716   4.651  0.1404  0.3112  0.0832
 5849ntf    fn431035   6.962   6.721   4.867  0.6295 -0.2663  0.0634
 5850ntf    cn131036   2.770   5.232   6.906 -0.1673  0.5510  0.0052
 5850ntf    sn231037   2.819   5.200   6.733 -0.0833 -0.1299  0.1533
 5850ntf    nn331038   2.694   5.116   6.689 -0.3328  0.0503  0.5076
 5850ntf    sn231039   2.683   4.962   6.661 -0.1739  0.1573 -0.1609
 5850ntf    cn131040   2.502   4.952   6.666 -0.1476 -0.2581 -0.0349
 5850ntf    fn431041   2.877   5.274   6.972  0.2280  0.0621 -0.3111
 5850ntf    fn431042   2.674   5.320   6.927 -0.7657 -0.0567 -0.1551
 5850ntf    fn431043   2.732   5.124   6.972 -0.0695  0.6186  0.1713
 5850ntf    on531044   2.828   5.334   6.683  0.0766 -0.0009  0.5204
 5850ntf    on531045   2.948   5.137   6.753 -0.4149 -0.7544  0.3717
 5850ntf    on531046   2.723   4.871   6.765 -0.9757  0.3825  0.3460
 5850ntf    on531047   2.712   4.918   6.526  0.5495 -0.5639  0.2159
 5850ntf    fn431048   2.458   5.024   6.565 -0.6505 -0.8745 -0.2599
 5850ntf    fn431049   2.455   4.829   6.650 -0.0376 -0.2771 -0.2165
 5850ntf    fn431050   2.445   4.996   6.777 -0.2231  0.1698 -0.2448
 5851ntf    cn131051   6.873   4.396   0.810  0.0324  0.2511  0.2817
 5851ntf    sn231052   6.797   4.380   0.974  0.1862  0.1338  0.3425
 5851ntf    nn331053   6.812   4.226   0.997  0.9546  0.0456 -0.6810
 5851ntf    sn231054   6.873   4.159   1.126  0.2032 -0.1191 -0.4067
 5851ntf    cn131055   7.035   4.105   1.064  0.4892 -0.0948  0.3103
 5851ntf    fn431056   7.002   4.366   0.802 -0.0996 -0.0870 -0.6584
 5851ntf    fn431057   6.808   4.321   0.723  0.2899  0.4629 -0.0972
 5851ntf    fn431058   6.869   4.519   0.762 -0.6133 -0.0436 -0.4450
 5851ntf    on531059   6.884   4.468   1.050  0.2048  0.3169  0.1106
 5851ntf    on531060   6.661   4.427   0.961 -0.1379 -1.0598 -0.6989
 5851ntf    on531061   6.814   4.031   1.158  0.1427  0.0589  0.1994
 5851ntf    on531062   6.911   4.239   1.240 -0.0757 -0.4060 -0.1118
 5851ntf    fn431063   7.017   4.051   0.944 -0.1712 -0.9610  0.7960
 5851ntf    fn431064   7.120   4.207   1.054  0.5166 -0.1165  0.3245
 5851ntf    fn431065   7.090   4.021   1.150 -0.2032 -0.0046  0.8484
 5852ntf    cn131066   2.740   0.670   0.382 -0.5601 -0.3471 -0.0251
 5852ntf    sn231067   2.672   0.739   0.228 -0.3648 -0.3373 -0.1063
 5852ntf    nn331068   2.793   0.828   0.181  0.2475 -1.0927  0.0315
 5852ntf    sn231069   2.900   0.795   0.071  0.1585 -0.4948 -0.2379
 5852ntf    cn131070   2.813   0.812  -0.087 -0.0693 -0.2362 -0.0851
 5852ntf    fn431071   2.663   0.578   0.437  0.0599 -0.5139  0.5679
 5852ntf    fn431072   2.857   0.610   0.371 -0.5695 -0.3363 -0.1912
 5852ntf    fn431073   2.738   0.764   0.475  0.1013  0.3913 -0.7465
 5852ntf    on531074   2.637   0.633   0.138  0.1790 -0.3588 -0.2973
 5852ntf    on531075   2.565   0.817   0.285  0.0234  0.2124 -0.1217
 5852ntf    on531076   2.949   0.659   0.077  0.0002 -0.5531 -0.2674
 5852ntf    on531077   2.996   0.903   0.070  0.0800 -0.4174  0.1598
 5852ntf    fn431078   2.759   0.929  -0.116  0.1472 -0.1004  0.0569
 5852ntf    fn431079   2.888   0.769  -0.187 -0.2877 -0.0916 -0.3119
 5852ntf    fn431080   2.707   0.734  -0.098 -0.1349 -0.1189 -0.2927
 5853ntf    cn131081   2.146   4.768   1.648  0.1098  0.2348  0.3229
 5853ntf    sn231082   2.270   4.884   1.584 -0.0609  0.0907 -0.2808
 5853ntf    nn331083   2.359   4.771   1.521 -0.2865 -0.3726  0.2281
 5853ntf    sn231084   2.427   4.769   1.380 -0.2039  0.2139  0.2605
 5853ntf    cn131085   2.285   4.699   1.291  0.1679  0.0881 -0.2366
 5853ntf    fn431086   2.172   4.726   1.770 -0.4112  0.1535  0.4107
 5853ntf    fn431087   2.026   4.823   1.652  0.0402  0.1677 -0.5522
 5853ntf    fn431088   2.123   4.660   1.574  0.0888  0.7365 -0.4200
 5853ntf    on531089   2.187   4.968   1.501 -0.3936  0.7739  0.7261
 5853ntf    on531090   2.335   4.942   1.699  0.0469  0.2781 -0.4361
 5853ntf    on531091   2.526   4.664   1.372 -0.2506  0.1626  0.3596
 5853ntf    on531092   2.451   4.899   1.321 -0.4038 -0.0265 -0.3572
 5853ntf    fn431093   2.177   4.774   1.300 -0.1188 -0.3202 -0.2430
 5853ntf    fn431094   2.304   4.672   1.163 -0.1320 -0.1837 -0.2238
 5853ntf    fn431095   2.251   4.581   1.338  0.2639  0.2135  0.1513
 5854ntf    cn131096   1.853   0.186   3.039  0.2952  0.2713  0.0348
 5854ntf    sn231097   2.002   0.267   3.106  0.2724  0.5023 -0.1906
 5854ntf    nn331098   2.072   0.150   3.184 -0.0042  0.6410  0.2656
 5854ntf    sn231099   2.047   0.089   3.327  0.0399  0.1666  0.0735
 5854ntf    cn131100   2.164   0.185   3.427  0.0417  0.5691 -0.3135
 5854ntf    fn431101   1.764   0.158   3.133 -0.0477 -0.3747 -0.4762
 5854ntf    fn431102   1.781   0.266   2.962  0.2231  0.2267  0.0563
 5854ntf    fn431103   1.889   0.079   2.971  0.3296  0.1135  0.2981
 5854ntf    on531104   2.080   0.312   2.993  0.1189  0.2522 -0.3991
 5854ntf    on531105   1.946   0.369   3.190 -0.3194 -0.2389  0.3275
 5854ntf    on531106   2.092  -0.047   3.340  0.3527  0.2464 -0.1700
 5854ntf    on531107   1.921   0.118   3.391 -0.2504 -0.6684 -0.1083
 5854ntf    fn431108   2.173   0.148   3.553 -0.3681  0.6307 -0.2658
 5854ntf    fn431109   2.286   0.176   3.377  0.1769  0.4916  0.0295
 5854ntf    fn431110   2.129   0.312   3.440  0.3014  0.5599  0.5438
 5855ntf    cn131111   0.814   6.286   0.453  0.1814 -0.3794  0.2910
 5855ntf    sn231112   0.934   6.327   0.583  0.3251  0.3702 -0.0747
 5855ntf    nn331113   0.874   6.244   0.702  0.4245 -0.0323 -0.3011
 5855ntf    sn231114   0.937   6.193   0.837  0.0554  0.1527 -0.0548
 5855ntf    cn131115   0.995   6.026   0.795 -0.1273  0.1199 -0.1800
 5855ntf    fn431116   0.812   6.154   0.440 -0.6792 -0.3369 -0.0411
 5855ntf    fn431117   0.691   6.331   0.474  0.5970  0.6429  0.5545
 5855ntf    fn431118   0.851   6.336   0.337 -0.2919 -0.2947  0.1752
 5855ntf    on531119   1.057   6.274   0.529  0.1872 -0.2841  0.2400
 5855ntf    on531120   0.924   6.470   0.595 -0.1208  0.3100  0.3084
 5855ntf    on531121   0.835   6.167   0.935 -0.4365 -0.6571 -0.7629
 5855ntf    on531122   1.055   6.264   0.877 -0.0111  0.1563  0.1366
 5855ntf    fn431123   1.026   5.962   0.907 -0.4531  0.1089 -0.0959
 5855ntf    fn431124   0.906   5.954   0.729  0.3545 -0.4289 -0.2477
 5855ntf    fn431125   1.112   6.027   0.733  0.0619  0.6095  0.1841
 5856ntf    cn131126   7.371   1.989   6.275  0.0125  0.1197 -0.1122
 5856ntf    sn231127   7.370   2.143   6.179  0.1253  0.2481  0.0921
 5856ntf    nn331128   7.509   2.202   6.221  0.0208  0.6408 -0.1055
 5856ntf    sn231129   7.652   2.166   6.168 -0.1303  0.0789 -0.1378
 5856ntf    cn131130   7.681   2.297   6.046  0.1243 -0.1293 -0.3014
 5856ntf    fn431131   7.395   2.035   6.397  0.2913  0.0274 -0.1327
 5856ntf    fn431132   7.255   1.925   6.276 -0.1563  0.4237  0.6447
 5856ntf    fn431133   7.464   1.901   6.242  0.2759  0.2651  0.2442
 5856ntf    on531134   7.358   2.109   6.039  0.0001 -0.1066  0.1873
 5856ntf    on531135   7.258   2.215   6.235 -0.2746 -0.3063  0.0111
 5856ntf    on531136   7.664   2.047   6.088  0.0190 -0.0402  0.0598
 5856ntf    on531137   7.759   2.184   6.262 -0.3457 -1.1254  0.3531
 5856ntf    fn431138   7.799   2.294   5.986  0.1955 -0.1142 -0.1605
 5856ntf    fn431139   7.597   2.300   5.944  0.0692 -0.6915 -0.2754
 5856ntf    fn431140   7.663   2.415   6.103  0.1975 -0.2755  0.0251
 5857ntf    cn131141   5.355   4.097   5.237  0.1608  0.0026 -0.2727
 5857ntf    sn231142   5.213   4.077   5.125 -0.1437  0.2733  0.0657
 5857ntf    nn331143   5.293   4.030   4.999 -0.1100 -0.2417  0.2751
 5857ntf    sn231144   5.355   4.115   4.882 -0.2279  0.1078  0.4620
 5857ntf    cn131145   5.500   4.011   4.848 -0.4330 -0.1276  0.3036
 5857ntf    fn431146   5.433   3.990   5.229  0.2928  0.0602  0.2091
 5857ntf    fn431147   5.428   4.202   5.205  0.3939 -0.1666 -0.3045
 5857ntf    fn431148   5.319   4.111   5.363  0.2215  0.0104 -0.2560
 5857ntf    on531149   5.132   3.977   5.191 -0.4091  0.0576 -0.5802
 5857ntf    on531150   5.158   4.210   5.116 -0.1305  0.2929  0.2719
 5857ntf    on531151   5.410   4.240   4.927  0.2008  0.3114 -0.5826
 5857ntf    on531152   5.277   4.129   4.761  0.4349  0.5320  0.0801
 5857ntf    fn431153   5.595   4.018   4.939  0.2761  0.5842 -0.4734
 5857ntf    fn431154   5.479   3.881   4.831  0.9446 -0.3090 -0.1515
 5857ntf    fn431155   5.567   4.046   4.739 -0.6698 -0.2043  0.1311
 5858ntf    cn131156   5.941   2.359   0.995 -0.5444 -0.1040 -0.2557
 5858ntf    sn231157   6.019   2.233   0.890 -0.0250  0.1123 -0.1340
 5858ntf    nn331158   6.103   2.156   0.998 -0.1548  0.1891  0.0215
 5858ntf    sn231159   6.101   2.008   1.051  0.0699  0.1077 -0.1938
 5858ntf    cn131160   6.211   1.914   0.942  0.1032 -0.0914  0.0110
 5858ntf    fn431161   5.857   2.306   1.082 -0.1728  0.2475  0.3260
 5858ntf    fn431162   6.022   2.425   1.077 -0.5875 -0.0330 -0.2703
 5858ntf    fn431163   5.878   2.449   0.922 -0.0585  0.2414 -0.2611
 5858ntf    on531164   5.916   2.164   0.817 -0.5265  0.5921  0.1088
 5858ntf    on531165   6.111   2.303   0.803 -0.3087  0.1060 -0.4414
 5858ntf    on531166   5.979   1.931   1.048  0.2079 -0.1366  0.3921
 5858ntf    on531167   6.164   2.013   1.181 -0.0150  0.4385 -0.1642
 5858ntf    fn431168   6.317   1.992   0.924 -0.0040 -0.0942 -0.6706
 5858ntf    fn431169   6.249   1.794   0.984 -0.0441 -0.2788 -0.3868
 5858ntf    fn431170   6.153   1.890   0.826 -0.9332  0.1726  0.4689
 5859ntf    cn131171   0.918   5.814   6.733 -0.4443 -0.0938 -0.0951
 5859ntf    sn231172   0.989   5.870   6.575  0.0478 -0.2035  0.0864
 5859ntf    nn331173   1.142   5.873   6.610  0.0229 -0.2335  0.1978
 5859ntf    sn231174   1.249   5.758   6.605  0.0581 -0.1979  0.1261
 5859ntf    cn131175   1.378   5.823   6.715  0.2317 -0.5429  0.1261
 5859ntf    fn431176   0.786   5.809   6.728 -0.4351 -0.1378 -0.3108
 5859ntf    fn431177   0.957   5.693   6.770  0.7697  0.1570 -0.5146
 5859ntf    fn431178   0.953   5.897   6.829  0.0936  0.2444 -0.5763
 5859ntf    on531179   0.955   5.774   6.474  0.5420 -0.6811  0.3718
 5859ntf    on531180   0.935   6.004   6.575  0.0853 -0.1878 -0.1741
 5859ntf    on531181   1.328   5.754   6.485  0.1410 -0.3712  0.1874
 5859ntf    on531182   1.208   5.634   6.666 -0.4965 -0.0445  0.0718
 5859ntf    fn431183   1.324   5.869   6.827  0.5716  0.0091  0.0674
 5859ntf    fn431184   1.469   5.735   6.754  0.0451 -0.7247  0.1513
 5859ntf    fn431185   1.445   5.921   6.657 -0.0493 -0.5540 -0.2197
 5860ntf    cn131186   1.487   0.698   0.258  0.2932 -0.1299  0.1560
 5860ntf    sn231187   1.508   0.817   0.394 -0.3840  0.1934 -0.0125
 5860ntf    nn331188   1.592   0.930   0.325 -0.1481 -0.0674 -0.1583
 5860ntf    sn231189   1.533   1.042   0.231 -0.1902  0.0938  0.0588
 5860ntf    cn131190   1.569   0.968   0.068  0.1860  0.0293  0.1692
 5860ntf    fn431191   1.374   0.711   0.189  0.3789 -0.2729 -0.0106
 5860ntf    fn431192   1.585   0.702   0.169  0.0558  0.1654 -0.0972
 5860ntf    fn431193   1.478   0.572   0.297 -0.2216 -0.0909  0.1704
 5860ntf    on531194   1.374   0.846   0.439 -0.1241  1.0435  0.2280
 5860ntf    on531195   1.591   0.737   0.482 -0.1124 -0.0983 -0.5305
 5860ntf    on531196   1.625   1.153   0.235  0.0984 -0.1141 -0.6580
 5860ntf    on531197   1.392   1.071   0.235 -0.1844  0.1380 -0.0441
 5860ntf    fn431198   1.563   1.061  -0.026  0.0539 -0.0323  0.1169
 5860ntf    fn431199   1.693   0.923   0.057 -0.0580 -0.4461 -0.6277
 5860ntf    fn431200   1.486   0.868   0.045  0.3594 -0.0342 -0.1817
 5861ntf    cn131201   2.168   6.807   3.426  0.1246 -0.1729 -0.0230
 5861ntf    sn231202   2.039   6.901   3.339  0.2359  0.0356  0.0353
 5861ntf    nn331203   1.929   6.792   3.314 -0.0360  0.3098  0.0354
 5861ntf    sn231204   1.841   6.772   3.185  0.0969  0.0634 -0.0165
 5861ntf    cn131205   1.947   6.692   3.061 -0.0727 -0.1509 -0.0254
 5861ntf    fn431206   2.270   6.887   3.453  0.1403  0.0308 -0.6542
 5861ntf    fn431207   2.125   6.756   3.540  0.2415  0.0403  0.1185
 5861ntf    fn431208   2.219   6.711   3.350 -0.4697 -0.0110 -0.6427
 5861ntf    on531209   1.995   6.992   3.441 -0.2920 -0.2328  0.0489
 5861ntf    on531210   2.110   6.948   3.222  0.1324 -0.1648 -0.1091
 5861ntf    on531211   1.798   6.891   3.117 -0.1670  0.2001  0.3823
 5861ntf    on531212   1.742   6.670   3.212  0.0611  0.0438 -0.2238
 5861ntf    fn431213   1.874   6.657   2.956 -0.4070  0.0277  0.1462
 5861ntf    fn431214   2.037   6.777   3.013 -0.1512  0.1536  0.3622
 5861ntf    fn431215   2.010   6.585   3.106 -0.0280  0.0485  0.3884
 5862ntf    cn131216   4.091   1.602   1.727 -0.4824  0.1858 -0.2550
 5862ntf    sn231217   4.109   1.422   1.717 -0.0889  0.1886  0.3730
 5862ntf    nn331218   4.263   1.396   1.734 -0.0267 -0.0902 -0.5892
 5862ntf    sn231219   4.344   1.265   1.763  0.1416  0.1072 -0.1584
 5862ntf    cn131220   4.407   1.222   1.598 -0.0310 -0.4029 -0.0944
 5862ntf    fn431221   4.084   1.648   1.851 -0.6694 -0.2453 -0.1075
 5862ntf    fn431222   4.205   1.654   1.684  0.0871 -0.3275  0.6036
 5862ntf    fn431223   3.990   1.660   1.665 -0.2147 -0.0001 -0.8825
 5862ntf    on531224   4.037   1.373   1.832 -0.5152  0.1492  0.0899
 5862ntf    on531225   4.052   1.386   1.590 -0.7069  0.4051  0.5852
 5862ntf    on531226   4.255   1.155   1.795  0.0466  0.2434  0.0509
 5862ntf    on531227   4.467   1.278   1.837 -0.0004 -0.6157  0.2155
 5862ntf    fn431228   4.310   1.214   1.509  0.1845 -0.4256 -0.3300
 5862ntf    fn431229   4.482   1.318   1.546 -0.2598 -0.1488  0.0444
 5862ntf    fn431230   4.483   1.113   1.605  0.7599  0.1661  0.4281
 5863ntf    cn131231   5.388   6.635   5.890  0.2691  0.0829  0.5489
 5863ntf    sn231232   5.311   6.529   6.016 -0.0826 -0.2973  0.0196
 5863ntf    nn331233   5.204   6.447   5.936 -0.0185  0.0575 -0.4311
 5863ntf    sn231234   5.049   6.454   5.962  0.0425 -0.0285 -0.0431
 5863ntf    cn131235   5.007   6.615   5.889 -0.2683 -0.1648 -0.1651
 5863ntf    fn431236   5.301   6.673   5.798  0.3457  0.4286  0.6186
 5863ntf    fn431237   5.439   6.749   5.934  0.3474  0.1704  0.2351
 5863ntf    fn431238   5.479   6.571   5.818  0.0636  0.2416  0.1477
 5863ntf    on531239   5.414   6.440   6.063 -0.5193 -0.6613  0.2938
 5863ntf    on531240   5.263   6.624   6.113  0.4228 -0.3784  0.3537
 5863ntf    on531241   5.005   6.469   6.098  0.1678 -0.5914  0.0640
 5863ntf    on531242   4.979   6.350   5.891 -0.0930  0.2567 -0.3281
 5863ntf    fn431243   4.892   6.660   5.936 -0.0216 -0.2869  0.5650
 5863ntf    fn431244   5.106   6.700   5.913 -0.2626 -0.3057  0.3110
 5863ntf    fn431245   5.006   6.602   5.757  0.8656  0.0671 -0.2113
 5864ntf    cn131246   6.746   4.714   3.095 -0.2416  0.1852 -0.1883
 5864ntf    sn231247   6.663   4.665   2.941  0.0024  0.3962 -0.3893
 5864ntf    nn331248   6.794   4.615   2.870 -0.1128 -0.4727 -0.0038
 5864ntf    sn231249   6.844   4.660   2.728 -0.0802 -0.3683  0.0412
 5864ntf    cn131250   6.893   4.831   2.768 -0.2076 -0.3768  0.2348
 5864ntf    fn431251   6.670   4.778   3.182 -0.3404 -0.4007  0.1560
 5864ntf    fn431252   6.804   4.610   3.152 -0.1371  0.2893 -0.1027
 5864ntf    fn431253   6.839   4.805   3.070 -0.3257  0.4178  0.3462
 5864ntf    on531254   6.578   4.559   2.990  0.0574  0.6604  0.2752
 5864ntf    on531255   6.603   4.785   2.888  0.2762  0.4545 -0.5730
 5864ntf    on531256   6.741   4.670   2.627  0.3630  0.1579 -0.3638
 5864ntf    on531257   6.973   4.604   2.697  0.0377  0.0536 -0.2383
 5864ntf    fn431258   7.014   4.834   2.822 -0.3676 -0.1950  0.5839
 5864ntf    fn431259   6.902   4.909   2.662 -0.5994 -0.3737  0.1998
 5864ntf    fn431260   6.820   4.901   2.854  0.1349  0.1524  0.0998
 5865ntf    cn131261   1.519   6.920   4.756 -0.0022 -0.2298 -0.6471
 5865ntf    sn231262   1.352   6.913   4.827  0.1641  0.1029 -0.2185
 5865ntf    nn331263   1.297   6.775   4.775 -0.6122  0.0298  0.7653
 5865ntf    sn231264   1.237   6.745   4.633  0.4421  0.1746  0.2746
 5865ntf    cn131265   1.352   6.611   4.592  0.2746  0.2680 -0.5133
 5865ntf    fn431266   1.591   7.025   4.794 -0.0481 -0.5607  0.3857
 5865ntf    fn431267   1.588   6.816   4.802 -0.3170 -0.2862 -0.3037
 5865ntf    fn431268   1.516   6.916   4.624 -0.3847  0.4342 -0.6600
 5865ntf    on531269   1.375   6.913   4.970  0.2467 -0.0037 -0.2319
 5865ntf    on531270   1.299   7.035   4.772  0.6713  0.3078 -0.2625
 5865ntf    on531271   1.262   6.843   4.530 -0.8563 -0.2115 -0.4362
 5865ntf    on531272   1.113   6.672   4.639  0.2189  0.5311  0.0728
 5865ntf    fn431273   1.347   6.580   4.464 -0.1954 -0.4059 -0.3350
 5865ntf    fn431274   1.473   6.652   4.628  0.3648 -0.4646  0.0431
 5865ntf    fn431275   1.329   6.500   4.659  0.1458  0.5145 -0.1464
 5866ntf    cn131276   7.139   5.063   2.557 -0.4517 -0.0299  0.0255
 5866ntf    sn231277   7.135   5.079   2.376  0.2304  0.3765  0.0410
 5866ntf    nn331278   7.255   4.990   2.329  0.2263  0.6078 -0.4187
 5866ntf    sn231279   7.408   5.021   2.313  0.3317  0.1994 -0.2186
 5866ntf    cn131280   7.421   5.077   2.140  0.1308  0.6921 -0.0746
 5866ntf    fn431281   7.045   5.131   2.620 -0.2418  0.5595 -0.2878
 5866ntf    fn431282   7.135   4.937   2.597 -0.2552 -0.0297  0.0446
 5866ntf    fn431283   7.257   5.107   2.597 -0.5789 -0.0051  0.3735
 5866ntf    on531284   7.004   5.028   2.343  0.4261 -0.0799 -0.0297
 5866ntf    on531285   7.155   5.219   2.348 -0.1715  0.4218 -0.0339
 5866ntf    on531286   7.485   4.899   2.317  0.6445  0.4187  0.7740
 5866ntf    on531287   7.464   5.129   2.391  0.0324  0.1715  0.0358
 5866ntf    fn431288   7.420   4.978   2.052 -0.2456  0.4798  0.1675
 5866ntf    fn431289   7.325   5.161   2.106 -0.3047  0.0410 -0.4669
 5866ntf    fn431290   7.540   5.126   2.107  0.3855 -0.1149 -0.3708
 5867ntf    cn131291   2.229   0.809   3.518 -0.4490  0.3047  0.1510
 5867ntf    sn231292   2.239   0.884   3.683  0.3972 -0.2594  0.3641
 5867ntf    nn331293   2.215   0.757   3.772 -0.2704  0.0003  0.5659
 5867ntf    sn231294   2.086   0.702   3.841 -0.4000 -0.4092  0.0098
 5867ntf    cn131295   2.107   0.775   4.006 -0.3466 -0.1891 -0.0946
 5867ntf    fn431296   2.309   0.703   3.525 -0.6479  0.1143 -0.4330
 5867ntf    fn431297   2.110   0.762   3.482 -0.1169 -0.2136 -0.2954
 5867ntf    fn431298   2.276   0.891   3.426 -0.0330 -0.6337 -0.4893
 5867ntf    on531299   2.377   0.927   3.687  0.4574 -0.4203 -0.0203
 5867ntf    on531300   2.137   0.986   3.684  0.3273 -0.3293  0.3713
 5867ntf    on531301   2.087   0.560   3.868  0.2799 -0.3177  0.4874
 5867ntf    on531302   1.961   0.754   3.791 -0.0981  0.3812  0.0551
 5867ntf    fn431303   1.994   0.791   4.074  0.0097  0.3571  0.3837
 5867ntf    fn431304   2.181   0.700   4.087  0.0210  0.4231  0.1471
 5867ntf    fn431305   2.161   0.896   4.002 -0.0908 -0.2686  0.7349
 5868ntf    cn131306   6.328   2.084   2.682  0.0419  0.1996  0.0560
 5868ntf    sn231307   6.188   2.113   2.569 -0.1416 -0.2235  0.1751
 5868ntf    nn331308   6.239   2.239   2.493 -0.2701  0.1380  0.6807
 5868ntf    sn231309   6.198   2.299   2.354 -0.1707  0.0409  0.6089
 5868ntf    cn131310   6.362   2.317   2.278 -0.3030 -0.1484  0.2730
 5868ntf    fn431311   6.440   2.068   2.614 -0.1075 -0.2091 -0.0990
 5868ntf    fn431312   6.352   2.189   2.758  0.6077 -0.0486  0.2202
 5868ntf    fn431313   6.310   1.979   2.761  0.4943  0.0574 -0.0300
 5868ntf    on531314   6.177   1.985   2.504 -0.3832 -0.0490 -0.1286
 5868ntf    on531315   6.084   2.145   2.664 -0.0636  1.0429 -0.1590
 5868ntf    on531316   6.164   2.440   2.359 -0.2480  0.0754 -0.4760
 5868ntf    on531317   6.122   2.217   2.263  0.2756  0.1925  0.0929
 5868ntf    fn431318   6.372   2.346   2.150 -0.4217  0.1669  0.3364
 5868ntf    fn431319   6.439   2.403   2.343  0.0191  0.6204 -1.0908
 5868ntf    fn431320   6.428   2.202   2.289  0.1745  0.0172 -0.7683
 5869ntf    cn131321   6.531   3.151   7.363 -0.2414  0.3733 -0.5465
 5869ntf    sn231322   6.503   3.107   7.537  0.0563 -0.0393 -0.6006
 5869ntf    nn331323   6.646   3.127   7.599 -0.0864 -0.0402 -0.2663
 5869ntf    sn231324   6.711   3.065   7.728 -0.5145  0.2836  0.1048
 5869ntf    cn131325   6.663   3.203   7.837  0.1820  0.1511  0.5844
 5869ntf    fn431326   6.591   3.268   7.351  0.3258  0.1876  0.3503
 5869ntf    fn431327   6.608   3.060   7.307 -0.0926 -0.1749  0.5241
 5869ntf    fn431328   6.416   3.150   7.297 -0.4633 -0.3730 -0.1700
 5869ntf    on531329   6.409   3.209   7.577 -0.1927 -0.3454 -0.4039
 5869ntf    on531330   6.442   2.977   7.531  0.2580 -0.1420 -0.4417
 5869ntf    on531331   6.855   3.073   7.717 -0.5043 -0.5512 -0.4027
 5869ntf    on531332   6.644   2.951   7.785  0.1653 -0.1254  0.0993
 5869ntf    fn431333   6.532   3.213   7.826  0.2148  0.0047  0.0402
 5869ntf    fn431334   6.691   3.173   7.963  0.0768  0.0708  0.5888
 5869ntf    fn431335   6.715   3.321   7.808  0.0179  0.2412  0.6592
 5870ntf    cn131336   3.485   3.694   0.997 -0.3215 -0.1759 -0.5006
 5870ntf    sn231337   3.528   3.517   1.003  0.0463 -0.0754 -0.1138
 5870ntf    nn331338   3.473   3.468   1.141 -0.0290  0.1334 -0.0695
 5870ntf    sn231339   3.555   3.425   1.268 -0.0675 -0.2344 -0.1680
 5870ntf    cn131340   3.601   3.257   1.219 -0.0801 -0.4121  0.4286
 5870ntf    fn431341   3.500   3.756   0.882  0.1509  0.3756 -0.1450
 5870ntf    fn431342   3.359   3.711   1.036 -0.2716  0.1120 -0.4599
 5870ntf    fn431343   3.556   3.764   1.084  0.0304 -0.4217 -0.5876
 5870ntf    on531344   3.449   3.454   0.900 -0.1241 -0.7461  0.4268
 5870ntf    on531345   3.670   3.513   0.977  0.1071  0.1911  0.1724
 5870ntf    on531346   3.474   3.402   1.385 -0.0426  0.0444 -0.0944
 5870ntf    on531347   3.678   3.497   1.290 -0.3208  0.2629 -0.3589
 5870ntf    fn431348   3.497   3.191   1.171  0.1243 -0.2903 -0.1813
 5870ntf    fn431349   3.698   3.255   1.130 -0.1642 -0.5974  0.3406
 5870ntf    fn431350   3.641   3.186   1.324 -0.1121 -0.1043  0.6479
 5871ntf    cn131351   7.554   5.866   2.411  0.1413  0.2341 -0.5218
 5871ntf    sn231352   7.665   5.785   2.530 -0.3380  0.3768  0.0305
 5871ntf    nn331353   7.665   5.637   2.479  0.1737  0.4153 -0.0940
 5871ntf    sn231354   7.785   5.552   2.424  0.0354 -0.0989  0.3829
 5871ntf    cn131355   7.893   5.514   2.565 -0.0192 -0.2195  0.3930
 5871ntf    fn431356   7.435   5.809   2.416  0.1426  0.3130  0.8565
 5871ntf    fn431357   7.534   5.995   2.436  0.0369  0.0126  0.5576
 5871ntf    fn431358   7.596   5.855   2.286 -0.1819  0.2260 -0.6310
 5871ntf    on531359   7.791   5.855   2.515  0.0217 -0.2454  0.0985
 5871ntf    on531360   7.607   5.796   2.661  0.1441  0.2762  0.2562
 5871ntf    on531361   7.862   5.617   2.321 -0.1006  0.1078  0.4115
 5871ntf    on531362   7.727   5.426   2.382 -0.4416  0.5006 -0.8266
 5871ntf    fn431363   7.830   5.461   2.668  0.1964 -0.4775  0.3917
 5871ntf    fn431364   7.985   5.425   2.533  0.1906 -0.0457  0.5199
 5871ntf    fn431365   7.952   5.627   2.599 -0.1568 -0.0287  0.0128
 5872ntf    cn131366   3.094   3.712   6.697  0.0771  0.1802 -0.0660
 5872ntf    sn231367   3.114   3.888   6.656  0.2456  0.1816  0.0207
 5872ntf    nn331368   3.120   3.956   6.798 -0.3674 -0.0223  0.1490
 5872ntf    sn231369   3.240   4.015   6.880 -0.3454 -0.2313  0.2678
 5872ntf    cn131370   3.263   3.894   7.014 -0.1633 -0.5221 -0.0237
 5872ntf    fn431371   3.211   3.651   6.696 -0.4650 -0.8934  0.3115
 5872ntf    fn431372   3.038   3.696   6.816  0.3895 -0.4313 -0.0009
 5872ntf    fn431373   3.016   3.644   6.614 -0.2148  0.0736  0.2949
 5872ntf    on531374   3.231   3.897   6.573 -0.1780  0.4837 -0.5517
 5872ntf    on531375   2.986   3.911   6.593  0.2388  0.2207  0.0491
 5872ntf    on531376   3.202   4.129   6.960  0.3942  0.3355 -0.1805
 5872ntf    on531377   3.376   4.018   6.832 -0.6913  0.2806 -0.6942
 5872ntf    fn431378   3.315   3.947   7.124 -0.1809 -0.3755 -0.0869
 5872ntf    fn431379   3.149   3.842   7.056  0.0067 -0.8271  0.0626
 5872ntf    fn431380   3.340   3.793   6.979  0.4140 -0.1185  0.0621
 5873ntf    cn131381   0.192   0.665   3.819  0.1297 -0.1608  0.3529
 5873ntf    sn231382   0.248   0.630   3.988  0.2513  0.0072  0.3474
 5873ntf    nn331383   0.232   0.474   3.979 -0.5954  0.1334 -0.4159
 5873ntf    sn231384   0.170   0.365   4.073 -0.0595 -0.0160 -0.2366
 5873ntf    cn131385   0.007   0.341   3.998 -0.0956 -0.3052 -0.0653
 5873ntf    fn431386   0.218   0.789   3.781 -0.0217 -0.2323  0.0134
 5873ntf    fn431387   0.260   0.589   3.735 -0.6994 -0.6314  0.0954
 5873ntf    fn431388   0.064   0.633   3.809  0.0845 -0.2327  1.0881
 5873ntf    on531389   0.385   0.676   3.994  0.1088  0.6196 -0.8849
 5873ntf    on531390   0.155   0.704   4.069 -0.1385  0.7603 -0.7737
 5873ntf    on531391   0.138   0.401   4.209  0.1901  0.0459 -0.1925
 5873ntf    on531392   0.234   0.237   4.054 -0.1558 -0.2615  0.9725
 5873ntf    fn431393  -0.015   0.226   3.935 -0.4367 -0.0644 -0.3933
 5873ntf    fn431394  -0.082   0.337   4.096  0.2213 -0.3454  0.2231
 5873ntf    fn431395  -0.042   0.432   3.916 -0.5426 -0.2822  0.2237
 5874ntf    cn131396   5.432   3.946   4.093  0.1509 -0.0841 -0.4099
 5874ntf    sn231397   5.552   3.868   3.980 -0.1189 -0.2492 -0.5835
 5874ntf    nn331398   5.500   3.905   3.837 -0.2003 -0.1188 -0.5204
 5874ntf    sn231399   5.530   4.029   3.744  0.0175  0.2257  0.0022
 5874ntf    cn131400   5.355   4.074   3.720  0.0138  0.2636  0.1015
 5874ntf    fn431401   5.464   3.943   4.221 -0.3185 -0.1842 -0.2956
 5874ntf    fn431402   5.411   4.074   4.067 -0.1674 -0.1806 -0.6324
 5874ntf    fn431403   5.311   3.895   4.082 -0.0585  0.2270  0.4469
 5874ntf    on531404   5.683   3.908   4.024 -0.1269 -0.4014 -0.4236
 5874ntf    on531405   5.531   3.726   3.994 -0.4142 -0.1265  0.2559
 5874ntf    on531406   5.575   3.992   3.612 -0.2914 -0.2320  0.0225
 5874ntf    on531407   5.580   4.147   3.810 -0.4175  0.4045  0.0138
 5874ntf    fn431408   5.286   3.975   3.665 -0.2147  0.4255  0.0960
 5874ntf    fn431409   5.293   4.101   3.834 -0.0748  0.4511  0.0088
 5874ntf    fn431410   5.334   4.184   3.650 -0.1874  0.2874  0.1982
 5875ntf    cn131411   1.709   3.736   3.111 -0.3581  0.4035 -0.1935
 5875ntf    sn231412   1.591   3.778   2.978 -0.2295 -0.0271 -0.4456
 5875ntf    nn331413   1.468   3.771   3.075  0.5429 -0.2527  0.5412
 5875ntf    sn231414   1.413   3.894   3.156  0.0605 -0.0734 -0.0471
 5875ntf    cn131415   1.236   3.856   3.170  0.0176  0.0346 -0.3009
 5875ntf    fn431416   1.829   3.724   3.057 -0.2111  0.1227  0.1906
 5875ntf    fn431417   1.727   3.825   3.207  0.0219  0.7117 -0.5465
 5875ntf    fn431418   1.685   3.623   3.175 -0.7667  0.4918 -0.1866
 5875ntf    on531419   1.644   3.908   2.944  0.7093 -0.3001 -0.0478
 5875ntf    on531420   1.603   3.665   2.890  0.1719 -0.2947 -0.0542
 5875ntf    on531421   1.406   4.021   3.088  0.0529  0.0888  0.2582
 5875ntf    on531422   1.460   3.891   3.292  0.1221 -0.0130 -0.0663
 5875ntf    fn431423   1.177   3.950   3.241 -0.2318 -0.2165 -0.1756
 5875ntf    fn431424   1.190   3.854   3.046  0.0991  0.0592 -0.3315
 5875ntf    fn431425   1.219   3.735   3.220  0.7721 -0.0187 -0.1671
 5876ntf    cn131426   0.643   6.033   3.270  0.0122  0.0288 -0.1265
 5876ntf    sn231427   0.646   6.092   3.098  0.0608  0.1232 -0.0933
 5876ntf    nn331428   0.799   6.123   3.082  0.0528  0.2950  0.1531
 5876ntf    sn231429   0.875   6.259   3.063  0.0837  0.2093 -0.3384
 5876ntf    cn131430   1.042   6.212   3.117 -0.0259  0.1454 -0.0572
 5876ntf    fn431431   0.721   5.928   3.282  0.1078  0.2026  0.9662
 5876ntf    fn431432   0.686   6.127   3.353 -0.1372 -0.0780  0.0736
 5876ntf    fn431433   0.522   6.005   3.316  0.2292  0.0925  0.5072
 5876ntf    on531434   0.607   5.972   3.028 -0.2351 -0.4953  1.0992
 5876ntf    on531435   0.560   6.208   3.104  0.1340  0.1711  0.0439
 5876ntf    on531436   0.837   6.366   3.152  0.2595  0.4329 -0.5262
 5876ntf    on531437   0.908   6.294   2.926 -0.0618  0.1796 -0.3807
 5876ntf    fn431438   1.059   6.217   3.248 -0.0419  0.4249 -0.0647
 5876ntf    fn431439   1.074   6.094   3.067  0.6686  0.2202  0.2025
 5876ntf    fn431440   1.137   6.293   3.074 -0.3319  0.8231  0.5243
 5877ntf    cn131441   0.631   4.995   5.852 -0.2230 -0.1300  0.4481
 5877ntf    sn231442   0.537   5.128   5.933  0.0256  0.1846  0.2248
 5877ntf    nn331443   0.404   5.118   5.850  0.1466 -0.1445  0.0692
 5877ntf    sn231444   0.330   5.239   5.782  0.1328 -0.2367 -0.0813
 5877ntf    cn131445   0.307   5.359   5.917  0.0362  0.0483 -0.3530
 5877ntf    fn431446   0.564   4.887   5.816  0.1802 -0.1930 -0.1367
 5877ntf    fn431447   0.687   5.034   5.739 -0.2294 -0.0654  0.4668
 5877ntf    fn431448   0.730   4.948   5.927  0.1817 -0.6234 -0.3868
 5877ntf    on531449   0.521   5.075   6.066  0.2748  0.1228  0.2302
 5877ntf    on531450   0.613   5.248   5.912 -0.0337  0.1317 -0.3172
 5877ntf    on531451   0.193   5.220   5.740  0.1730 -0.0181 -0.3109
 5877ntf    on531452   0.401   5.319   5.686 -0.1878  0.0175 -0.1096
 5877ntf    fn431453   0.304   5.483   5.871  0.0465  0.0459 -0.3585
 5877ntf    fn431454   0.194   5.339   5.983  0.1917 -0.3546 -0.2059
 5877ntf    fn431455   0.399   5.351   6.011 -0.1850  0.1027 -0.1289
 5878ntf    cn131456   4.524   3.749   2.342  0.2647  0.2172  0.1903
 5878ntf    sn231457   4.373   3.845   2.370  0.1392  0.0423  0.1152
 5878ntf    nn331458   4.287   3.742   2.450 -0.1167  0.4217  0.3351
 5878ntf    sn231459   4.165   3.656   2.401  0.4069 -0.1056 -0.0604
 5878ntf    cn131460   4.034   3.780   2.427  0.4121 -0.1902  0.3884
 5878ntf    fn431461   4.491   3.631   2.292  0.2692  0.1371  0.3795
 5878ntf    fn431462   4.605   3.806   2.254 -0.1108  0.2575 -0.1305
 5878ntf    fn431463   4.592   3.721   2.452  0.3024  0.0559  0.1279
 5878ntf    on531464   4.425   3.953   2.450 -0.3437  0.5340 -0.2243
 5878ntf    on531465   4.322   3.876   2.239 -0.3201 -0.4385  0.1789
 5878ntf    on531466   4.143   3.548   2.494  0.2101 -0.1216 -0.1254
 5878ntf    on531467   4.157   3.631   2.259 -0.4712 -0.0148 -0.0308
 5878ntf    fn431468   4.037   3.876   2.336  0.2041 -0.6258 -0.0859
 5878ntf    fn431469   3.913   3.730   2.409  0.2329  0.1975  0.5055
 5878ntf    fn431470   4.037   3.827   2.550  0.2474  0.4501  0.1533
 5879ntf    cn131471   7.072   3.138   0.429 -0.2967 -0.4169  0.1284
 5879ntf    sn231472   7.029   2.988   0.522  0.3570 -0.4844  0.3262
 5879ntf    nn331473   7.009   3.051   0.664 -0.9233  0.1385 -0.1083
 5879ntf    sn231474   7.036   2.990   0.807  0.0656  0.1507 -0.2828
 5879ntf    cn131475   6.896   3.042   0.909  0.1632  0.4881 -0.3192
 5879ntf    fn431476   7.189   3.193   0.459 -0.1462 -0.5768 -0.1670
 5879ntf    fn431477   7.078   3.109   0.300 -0.5646 -0.1959  0.0634
 5879ntf    fn431478   6.984   3.237   0.428  0.1018 -0.0593  0.0434
 5879ntf    on531479   6.898   2.953   0.474  0.4338  0.3515 -0.5351
 5879ntf    on531480   7.141   2.903   0.493  0.2911 -0.6030  0.4181
 5879ntf    on531481   7.147   3.052   0.875  0.1579  0.2562 -0.5277
 5879ntf    on531482   7.024   2.847   0.816  0.1411  0.1469 -0.2388
 5879ntf    fn431483   6.887   2.974   1.022  0.3918 -0.0816 -0.6399
 5879ntf    fn431484   6.898   3.172   0.935  0.0487  0.5531 -0.6362
 5879ntf    fn431485   6.785   3.026   0.839  0.1993 -0.5033 -0.1600
 5880ntf    cn131486   3.744   6.764   2.849  0.1698 -0.1596 -0.0656
 5880ntf    sn231487   3.816   6.856   2.989 -0.1900 -0.1142  0.0904
 5880ntf    nn331488   3.904   6.960   2.911  0.4804  0.0816  1.0968
 5880ntf    sn231489   3.858   7.101   2.861 -0.3910 -0.5947 -0.0508
 5880ntf    cn131490   3.881   7.093   2.680 -0.0803  0.1970 -0.0517
 5880ntf    fn431491   3.838   6.701   2.781  0.4014 -0.3384  0.4180
 5880ntf    fn431492   3.658   6.672   2.890  0.2584 -0.1856  0.0624
 5880ntf    fn431493   3.667   6.847   2.781  0.0241 -0.3268 -0.1062
 5880ntf    on531494   3.702   6.910   3.060 -0.4745 -0.0327 -0.4181
 5880ntf    on531495   3.896   6.759   3.059 -0.0250 -0.2562 -0.2896
 5880ntf    on531496   3.953   7.201   2.904 -0.4322 -0.3452 -0.5338
 5880ntf    on531497   3.718   7.133   2.874 -0.2393  0.2589 -0.4618
 5880ntf    fn431498   4.010   7.105   2.653 -0.0024 -0.5732 -0.0465
 5880ntf    fn431499   3.821   6.988   2.626 -0.0433  0.1827 -0.0650
 5880ntf    fn431500   3.824   7.194   2.618 -0.2062  0.0295 -0.2102
 5881ntf    cn131501   2.179   4.617   2.729  0.0024  0.4642 -0.1602
 5881ntf    sn231502   2.285   4.707   2.847  0.0022  0.1848  0.0551
 5881ntf    nn331503   2.324   4.830   2.758  0.1480  0.5643  0.6471
 5881ntf    sn231504   2.466   4.886   2.722  0.2127 -0.1024 -0.1395
 5881ntf    cn131505   2.421   5.053   2.667  0.4436 -0.0865 -0.2819
 5881ntf    fn431506   2.073   4.682   2.685 -0.4144 -0.0470  0.0695
 5881ntf    fn431507   2.249   4.591   2.619  0.5919  0.2737  0.2544
 5881ntf    fn431508   2.143   4.497   2.774  0.4144  0.2857 -0.3042
 5881ntf    on531509   2.194   4.732   2.956  0.3716 -0.0877  0.4255
 5881ntf    on531510   2.386   4.606   2.865  0.1126  0.3191  0.1826
 5881ntf    on531511   2.514   4.822   2.602  0.4657  0.2140 -0.2087
 5881ntf    on531512   2.560   4.925   2.824  0.1297 -0.5964  0.1273
 5881ntf    fn431513   2.350   5.120   2.756 -0.0852 -0.3151 -0.5251
 5881ntf    fn431514   2.525   5.131   2.640  0.1180  0.5732  0.3258
 5881ntf    fn431515   2.340   5.064   2.562 -0.3338  0.2679  0.3423
 5882ntf    cn131516   3.628   1.683   5.917  0.0469  0.0932  0.1670
 5882ntf    sn231517   3.628   1.763   5.754 -0.1538 -0.2160  0.0146
 5882ntf    nn331518   3.718   1.661   5.676  0.0147 -0.2644  0.2725
 5882ntf    sn231519   3.875   1.658   5.689  0.0319  0.0875  0.1400
 5882ntf    cn131520   3.937   1.746   5.542  0.0085  0.1289  0.1547
 5882ntf    fn431521   3.549   1.578   5.925  0.2704 -0.0887 -0.0014
 5882ntf    fn431522   3.749   1.636   5.944  0.1187 -0.1099 -0.4926
 5882ntf    fn431523   3.588   1.769   6.010  0.3859  0.2426  0.1772
 5882ntf    on531524   3.493   1.745   5.708 -0.3382  0.3217  0.3405
 5882ntf    on531525   3.691   1.891   5.773 -0.4536 -0.0198 -0.2997
 5882ntf    on531526   3.919   1.521   5.682 -0.0774  0.0468  0.2357
 5882ntf    on531527   3.939   1.735   5.792  0.2057 -0.5770  0.5367
 5882ntf    fn431528   4.066   1.768   5.560  0.0528 -0.5002  0.6640
 5882ntf    fn431529   3.930   1.670   5.435 -0.3981 -0.1402  0.3684
 5882ntf    fn431530   3.883   1.862   5.508  0.6857  0.2674 -0.4532
 5883ntf    cn131531   4.736   1.282   1.393  0.0230  0.0521  0.2972
 5883ntf    sn231532   4.681   1.184   1.250 -0.2752  0.0292  0.4258
 5883ntf    nn331533   4.678   1.304   1.149 -0.1599 -0.6316 -0.3737
 5883ntf    sn231534   4.562   1.330   1.046  0.2260  0.0161 -0.6549
 5883ntf    cn131535   4.447   1.431   1.145  0.5146  0.2813 -0.5895
 5883ntf    fn431536   4.666   1.391   1.417  0.0259  0.0376  0.3749
 5883ntf    fn431537   4.736   1.212   1.505  0.4472 -0.1469  0.1759
 5883ntf    fn431538   4.861   1.323   1.379  0.3542 -0.8305  0.5598
 5883ntf    on531539   4.787   1.088   1.228 -0.1195  0.1741  0.5394
 5883ntf    on531540   4.552   1.138   1.294 -0.2841 -0.5110 -0.1528
 5883ntf    on531541   4.479   1.218   1.007  0.1403 -0.2496  0.2679
 5883ntf    on531542   4.602   1.419   0.940  0.3406  0.5143 -0.2010
 5883ntf    fn431543   4.489   1.549   1.186  0.2446 -0.0370  0.6290
 5883ntf    fn431544   4.325   1.430   1.094  0.0560  0.2943  0.4861
 5883ntf    fn431545   4.425   1.371   1.260  0.1674  0.6065 -0.4859
 5884ntf    cn131546   6.502   0.068   2.868 -0.0151  0.4612  0.2522
 5884ntf    sn231547   6.672   0.128   2.889  0.2760 -0.3044  0.1069
 5884ntf    nn331548   6.666   0.249   2.989  0.2153  0.3682 -0.6967
 5884ntf    sn231549   6.707   0.398   2.964  0.0830  0.5369  0.0770
 5884ntf    cn131550   6.879   0.402   3.023  0.1715 -0.2116 -0.1244
 5884ntf    fn431551   6.411   0.152   2.819 -0.5879 -0.0395  0.4472
 5884ntf    fn431552   6.488  -0.034   2.784 -0.3889  0.7789 -0.0811
 5884ntf    fn431553   6.451   0.028   2.983  0.1956  0.1323  0.2319
 5884ntf    on531554   6.731   0.008   2.943  0.1703 -0.2917  0.2501
 5884ntf    on531555   6.721   0.166   2.759  0.1465 -0.1055  0.1165
 5884ntf    on531556   6.639   0.480   3.062 -0.0285  0.0828  0.3837
 5884ntf    on531557   6.700   0.447   2.829  1.0209  0.0780 -0.1450
 5884ntf    fn431558   6.964   0.354   2.933  0.1570 -0.1704 -0.1609
 5884ntf    fn431559   6.912   0.528   3.045  0.1268 -0.2196 -0.0093
 5884ntf    fn431560   6.905   0.336   3.134 -0.4963  0.1064  0.2265
 5885ntf    cn131561   1.726   6.666   4.101  0.1277  0.1524 -0.1278
 5885ntf    sn231562   1.721   6.487   4.067  0.0793  0.0774  0.2625
 5885ntf    nn331563   1.690   6.490   3.913 -0.3082  0.4235  0.3478
 5885ntf    sn231564   1.730   6.378   3.811 -0.4071  0.4164  0.3156
 5885ntf    cn131565   1.614   6.250   3.867  0.0504 -0.0835  0.1235
 5885ntf    fn431566   1.612   6.723   4.065  0.0572 -0.1188 -0.3354
 5885ntf    fn431567   1.738   6.682   4.231  0.4078 -0.4140 -0.0831
 5885ntf    fn431568   1.824   6.723   4.034 -0.1960  0.4053 -0.3921
 5885ntf    on531569   1.856   6.448   4.099  0.0673  0.1909  0.4486
 5885ntf    on531570   1.619   6.437   4.155 -0.0326  0.3885  0.3103
 5885ntf    on531571   1.861   6.323   3.837 -0.3762  0.5254  0.3904
 5885ntf    on531572   1.687   6.403   3.676 -0.6156  0.1572  0.3328
 5885ntf    fn431573   1.642   6.203   3.987 -0.1568 -0.0926  0.1688
 5885ntf    fn431574   1.491   6.295   3.883  0.0935  0.0628  0.0450
 5885ntf    fn431575   1.606   6.143   3.789  0.1440  0.0457 -0.0651
 5886ntf    cn131576   5.033   1.135   3.975  0.1509  0.1647 -0.0535
 5886ntf    sn231577   4.866   1.083   4.023  0.1088  0.3532  0.0037
 5886ntf    nn331578   4.896   1.053   4.174  0.1204 -0.4435 -0.1509
 5886ntf    sn231579   4.965   0.928   4.238  0.2108 -0.1666  0.2992
 5886ntf    cn131580   4.829   0.830   4.309 -0.0726 -0.0006 -0.0161
 5886ntf    fn431581   5.088   1.222   4.058  0.6367 -0.0233 -0.1752
 5886ntf    fn431582   5.117   1.033   3.967  0.2296  0.2555 -0.3955
 5886ntf    fn431583   5.040   1.199   3.860 -0.1048  0.0817 -0.1166
 5886ntf    on531584   4.781   1.196   3.996 -0.1193  0.1238 -0.2504
 5886ntf    on531585   4.849   0.974   3.930  0.4698  0.6629 -0.4270
 5886ntf    on531586   5.041   0.975   4.352  0.4575  0.4789 -0.1282
 5886ntf    on531587   5.038   0.846   4.145  0.2731  0.0345  0.1710
 5886ntf    fn431588   4.754   0.899   4.394 -0.1714  0.3097 -0.3538
 5886ntf    fn431589   4.740   0.807   4.214  0.0696 -0.0137 -0.1460
 5886ntf    fn431590   4.858   0.714   4.365  0.1500 -0.0106 -0.1510
 5887ntf    cn131591   2.206   4.656   6.953 -0.0349 -0.0689 -0.1517
 5887ntf    sn231592   2.028   4.659   6.915 -0.0307  0.1254 -0.1561
 5887ntf    nn331593   1.987   4.532   6.998 -0.0560  0.3408  0.1644
 5887ntf    sn231594   1.931   4.514   7.144 -0.7891 -0.0600 -0.1620
 5887ntf    cn131595   1.836   4.364   7.105 -0.5816 -0.1968 -0.1402
 5887ntf    fn431596   2.268   4.550   6.906  0.0300 -0.5586  0.9872
 5887ntf    fn431597   2.275   4.752   6.894  0.4070 -0.3503 -0.0919
 5887ntf    fn431598   2.231   4.661   7.083  0.0689 -0.8477 -0.1400
 5887ntf    on531599   1.980   4.787   6.963 -0.5358 -0.1092 -0.0310
 5887ntf    on531600   2.037   4.644   6.772  0.0660 -0.0002 -0.1370
 5887ntf    on531601   1.828   4.604   7.191 -0.8042 -0.0570 -0.2012
 5887ntf    on531602   2.035   4.478   7.237 -0.3292 -0.2047 -0.7255
 5887ntf    fn431603   1.717   4.389   7.053 -0.4741 -0.5948 -0.5849
 5887ntf    fn431604   1.898   4.285   7.018 -0.3703  0.0267 -0.1932
 5887ntf    fn431605   1.820   4.292   7.215  0.0361 -0.1283  0.0013
 5888ntf    cn131606   3.004   1.752   6.626  0.4207  0.2192  0.0991
 5888ntf    sn231607   3.135   1.642   6.565 -0.0578 -0.2212 -0.1395
 5888ntf    nn331608   3.117   1.526   6.669 -0.2617 -0.2260 -0.1797
 5888ntf    sn231609   3.045   1.388   6.649 -0.1026 -0.3063 -0.1967
 5888ntf    cn131610   3.095   1.311   6.806  0.3351 -0.0847 -0.2263
 5888ntf    fn431611   2.977   1.869   6.569 -0.4336  0.1034  0.2413
 5888ntf    fn431612   2.887   1.690   6.617  0.5855 -0.1147  0.2622
 5888ntf    fn431613   3.013   1.787   6.753 -0.4625  0.3071  0.1475
 5888ntf    on531614   3.111   1.606   6.427  0.5263  0.3004 -0.3827
 5888ntf    on531615   3.250   1.724   6.590 -0.1005 -0.1396 -0.2097
 5888ntf    on531616   3.104   1.303   6.549 -0.5462 -0.6590 -0.1642
 5888ntf    on531617   2.902   1.398   6.668 -0.0653  0.0729 -0.1079
 5888ntf    fn431618   3.227   1.316   6.809  0.3038  0.5374  0.2467
 5888ntf    fn431619   3.065   1.378   6.916 -0.0257 -0.1245 -0.3006
 5888ntf    fn431620   3.046   1.190   6.829  0.2803 -0.0982 -0.4176
 5889ntf    cn131621   7.465   6.634   5.508  0.0247  0.1969  0.2356
 5889ntf    sn231622   7.635   6.570   5.520 -0.1221 -0.2011  0.1997
 5889ntf    nn331623   7.714   6.698   5.566  0.1143 -0.3353  0.1667
 5889ntf    sn231624   7.835   6.760   5.487 -0.1362 -0.0142  0.0361
 5889ntf    cn131625   7.955   6.794   5.619 -0.1966  0.0644  0.0712
 5889ntf    fn431626   7.426   6.698   5.617 -0.8399  0.4073 -0.1919
 5889ntf    fn431627   7.448   6.715   5.404 -0.0244 -0.0687  0.0338
 5889ntf    fn431628   7.383   6.531   5.494  0.0082  0.2315  0.0689
 5889ntf    on531629   7.631   6.479   5.633  0.5724 -0.1137  0.3001
 5889ntf    on531630   7.676   6.521   5.391 -0.2253  0.2372 -0.0019
 5889ntf    on531631   7.801   6.888   5.430 -0.1404  0.0193  0.1134
 5889ntf    on531632   7.923   6.666   5.423  0.8727  0.5311  0.5918
 5889ntf    fn431633   8.080   6.787   5.577 -0.2719  0.3453 -0.2108
 5889ntf    fn431634   7.935   6.916   5.666  0.3963  0.2531 -0.1572
 5889ntf    fn431635   7.947   6.713   5.723  0.3208 -0.7882 -0.5463
 5890ntf    cn131636   6.947   0.050   1.978  0.2822  0.4548 -0.3660
 5890ntf    sn231637   7.021  -0.070   1.863 -0.0681 -0.0956 -0.0225
 5890ntf    nn331638   7.065  -0.192   1.952  0.1096  0.3716  0.5357
 5890ntf    sn231639   7.008  -0.338   1.950 -0.0193  0.4234  0.3286
 5890ntf    cn131640   7.148  -0.429   1.879 -0.2598  0.2997  0.0103
 5890ntf    fn431641   7.043   0.107   2.049  0.0689 -0.4208  0.6696
 5890ntf    fn431642   6.878   0.147   1.922 -0.1577  0.5238  0.2792
 5890ntf    fn431643   6.876  -0.004   2.076  0.2078  0.4063 -0.4471
 5890ntf    on531644   6.904  -0.086   1.780 -0.1389  0.0659  0.0462
 5890ntf    on531645   7.127   0.008   1.807 -0.1930 -0.1546 -0.3432
 5890ntf    on531646   6.895  -0.361   1.864  0.1149  0.0623  0.2481
 5890ntf    on531647   7.006  -0.403   2.079 -0.0995  0.6282  0.4319
 5890ntf    fn431648   7.185  -0.387   1.759 -0.2448 -0.0069 -0.0924
 5890ntf    fn431649   7.257  -0.424   1.954 -0.5405 -0.1523  0.4538
 5890ntf    fn431650   7.134  -0.560   1.864 -0.5528  0.3405 -0.0690
 5891ntf    cn131651   1.711   2.429   7.286  0.3109 -0.1351  0.0557
 5891ntf    sn231652   1.675   2.260   7.228 -0.1525 -0.0444  0.0804
 5891ntf    nn331653   1.817   2.196   7.207 -0.1344 -0.0489  0.2178
 5891ntf    sn231654   1.887   2.073   7.273  0.1268  0.1258  0.2699
 5891ntf    cn131655   2.056   2.101   7.213 -0.1058 -0.0204 -0.4604
 5891ntf    fn431656   1.799   2.495   7.212 -0.3263 -0.0288 -0.6225
 5891ntf    fn431657   1.599   2.498   7.287  0.0539 -0.5532  0.7614
 5891ntf    fn431658   1.752   2.423   7.411  0.0928  0.2524  0.1473
 5891ntf    on531659   1.602   2.194   7.333 -0.5348 -0.5597 -0.5039
 5891ntf    on531660   1.600   2.288   7.108  0.3668  0.5908 -0.1014
 5891ntf    on531661   1.857   1.948   7.206  0.2491  0.1005  0.2623
 5891ntf    on531662   1.899   2.075   7.417 -0.1528 -0.1849  0.2988
 5891ntf    fn431663   2.138   2.001   7.238 -0.0911  0.1574  0.2173
 5891ntf    fn431664   2.058   2.120   7.082  0.2289 -0.2856 -0.4918
 5891ntf    fn431665   2.126   2.202   7.263 -0.3852  0.1895 -0.4906
 5892ntf    cn131666   1.584   0.663   5.067  0.4969 -0.0027  0.1661
 5892ntf    sn231667   1.741   0.685   4.977  0.2052 -0.0469 -0.3573
 5892ntf    nn331668   1.705   0.681   4.824 -0.2478  0.3808 -0.2663
 5892ntf    sn231669   1.659   0.561   4.734  0.2182  0.0626 -0.0827
 5892ntf    cn131670   1.482   0.598   4.718  0.0868 -0.3192  0.4576
 5892ntf    fn431671   1.605   0.676   5.197 -0.0029 -0.1830  0.2671
 5892ntf    fn431672   1.499   0.760   5.039  0.4668 -0.0607  0.0551
 5892ntf    fn431673   1.519   0.556   5.022  0.7447 -0.0983  0.0329
 5892ntf    on531674   1.783   0.816   5.020 -0.4346  0.1300 -0.2620
 5892ntf    on531675   1.823   0.577   5.025 -0.2486 -0.1647  0.1680
 5892ntf    on531676   1.665   0.425   4.783  0.1755 -0.0071 -0.2708
 5892ntf    on531677   1.707   0.591   4.601  0.6942 -0.5229 -0.0462
 5892ntf    fn431678   1.452   0.683   4.814 -0.0120  0.5101 -0.2940
 5892ntf    fn431679   1.453   0.661   4.605 -0.6786 -0.2031  0.7146
 5892ntf    fn431680   1.405   0.491   4.724 -0.0767 -0.1933  0.6040
 5893ntf    cn131681   2.736   3.694   0.680 -0.2584 -0.0583 -0.0411
 5893ntf    sn231682   2.890   3.738   0.594 -0.1826 -0.1254  0.0603
 5893ntf    nn331683   2.895   3.638   0.473  0.4336  0.5100 -0.4497
 5893ntf    sn231684   2.956   3.493   0.475 -0.1930  0.2462 -0.2892
 5893ntf    cn131685   3.117   3.529   0.399 -0.3450 -0.0891 -0.7755
 5893ntf    fn431686   2.722   3.564   0.695 -0.0981 -0.0840 -0.1129
 5893ntf    fn431687   2.721   3.745   0.801 -0.1786  0.2120 -0.1426
 5893ntf    fn431688   2.632   3.728   0.607 -0.0343  0.5659 -0.0827
 5893ntf    on531689   2.870   3.876   0.556 -0.2583 -0.0469  0.3855
 5893ntf    on531690   2.995   3.718   0.691  0.4552 -0.0327 -0.6002
 5893ntf    on531691   2.882   3.416   0.378  0.1753 -0.2549 -0.1770
 5893ntf    on531692   2.991   3.428   0.598  0.2503 -0.4253 -0.7605
 5893ntf    fn431693   3.186   3.626   0.455  0.4014 -0.4589 -1.0328
 5893ntf    fn431694   3.194   3.421   0.396  0.2892  0.3122  0.4802
 5893ntf    fn431695   3.105   3.582   0.278 -0.1269  0.4429 -0.5684
 5894ntf    cn131696   2.728   7.103   5.968 -0.2366  0.3153  0.2415
 5894ntf    sn231697   2.822   7.234   5.885 -0.3220  0.2413  0.0271
 5894ntf    nn331698   2.700   7.326   5.852 -0.4498  0.0296 -0.0920
 5894ntf    sn231699   2.711   7.481   5.830  0.1977 -0.0437 -0.3003
 5894ntf    cn131700   2.596   7.489   5.690 -0.5611 -0.1615  0.3087
 5894ntf    fn431701   2.796   6.998   6.012 -0.6212 -0.1865 -0.3461
 5894ntf    fn431702   2.660   7.153   6.070  0.1821  0.5532  0.4089
 5894ntf    fn431703   2.648   7.061   5.872 -0.0279  0.0850  0.1683
 5894ntf    on531704   2.908   7.278   5.992 -0.2507 -0.8390  0.4289
 5894ntf    on531705   2.885   7.182   5.766 -0.4333 -0.1143  0.1237
 5894ntf    on531706   2.839   7.521   5.777  0.0811  0.4326 -0.2281
 5894ntf    on531707   2.651   7.568   5.929 -0.0523 -0.5121 -0.0371
 5894ntf    fn431708   2.607   7.608   5.634  0.2392 -0.4781 -0.2260
 5894ntf    fn431709   2.615   7.400   5.594  0.0288  0.3823 -0.0881
 5894ntf    fn431710   2.470   7.479   5.729 -0.5309  0.0114  0.4462
 5895ntf    cn131711   0.066   5.893   3.204  0.0515 -0.4050  0.3271
 5895ntf    sn231712   0.240   5.902   3.256  0.0229 -0.0722  0.3663
 5895ntf    nn331713   0.265   6.057   3.249  0.0610 -0.0844  0.2242
 5895ntf    sn231714   0.210   6.178   3.332 -0.1424 -0.2375  0.3138
 5895ntf    cn131715   0.356   6.218   3.432 -0.0209 -0.0129  0.0475
 5895ntf    fn431716   0.045   5.966   3.096 -0.1625  0.2499  0.8053
 5895ntf    fn431717   0.033   5.766   3.183 -0.1731 -0.3332  0.2418
 5895ntf    fn431718  -0.017   5.946   3.292 -0.0195 -0.2024  0.1380
 5895ntf    on531719   0.232   5.841   3.387  0.0660 -0.2984  0.2652
 5895ntf    on531720   0.309   5.826   3.154 -0.5087  0.0664 -0.0953
 5895ntf    on531721   0.109   6.158   3.433 -0.1260 -1.0944  0.1654
 5895ntf    on531722   0.197   6.301   3.257 -0.3393 -0.3397  0.1788
 5895ntf    fn431723   0.331   6.303   3.530 -0.0808 -0.1121  0.1188
 5895ntf    fn431724   0.410   6.111   3.488  0.4679 -0.1047 -0.5873
 5895ntf    fn431725   0.446   6.282   3.359  0.0352 -0.3855 -0.2109
 5896ntf    cn131726   0.682   6.638   6.845  0.1396  0.2132 -0.1602
 5896ntf    sn231727   0.831   6.536   6.867 -0.2146 -0.3004 -0.1244
 5896ntf    nn331728   0.938   6.649   6.846  0.0219 -0.5141 -0.0737
 5896ntf    sn231729   1.004   6.698   6.713 -0.0362 -0.3144 -0.0289
 5896ntf    cn131730   1.029   6.875   6.745  0.0810 -0.2928 -0.2367
 5896ntf    fn431731   0.567   6.572   6.851  0.0955  0.2549 -0.5152
 5896ntf    fn431732   0.677   6.727   6.943  0.1345 -0.2070  0.2252
 5896ntf    fn431733   0.680   6.717   6.738 -0.3476  0.6668  0.1784
 5896ntf    on531734   0.813   6.479   6.998 -0.5211 -0.7543 -0.3623
 5896ntf    on531735   0.826   6.440   6.759 -0.5997  0.0573 -0.4304
 5896ntf    on531736   0.910   6.694   6.603  0.3967 -0.0483 -0.4126
 5896ntf    on531737   1.135   6.642   6.694 -0.0385 -0.3479  0.0568
 5896ntf    fn431738   1.108   6.889   6.851  0.2121  0.1428 -0.3888
 5896ntf    fn431739   1.084   6.945   6.647  0.3149 -0.1049  0.0248
 5896ntf    fn431740   0.916   6.940   6.768  0.4414  0.4316 -0.4664
 5897ntf    cn131741   3.948   1.640   3.918 -0.4528  0.1875  0.1702
 5897ntf    sn231742   4.074   1.764   3.961  0.1253 -0.2100 -0.3653
 5897ntf    nn331743   4.049   1.766   4.116  0.4446  0.8385 -0.3191
 5897ntf    sn231744   4.141   1.700   4.225 -0.2502 -0.1270 -0.2962
 5897ntf    cn131745   4.063   1.774   4.372  0.1856  0.0199 -0.1350
 5897ntf    fn431746   3.833   1.656   3.981 -0.2474 -0.3736  0.6934
 5897ntf    fn431747   3.920   1.641   3.788 -0.2508  0.0240  0.1253
 5897ntf    fn431748   3.991   1.519   3.946 -0.1911  0.2230 -0.0694
 5897ntf    on531749   4.198   1.702   3.922  0.3252  0.1524 -0.3085
 5897ntf    on531750   4.032   1.885   3.894 -0.5960 -0.4509 -0.3614
 5897ntf    on531751   4.274   1.756   4.222 -0.1483 -0.3505 -0.0118
 5897ntf    on531752   4.126   1.559   4.250  0.2601 -0.0354  0.5784
 5897ntf    fn431753   4.056   1.906   4.371  0.1783  0.0284  0.4894
 5897ntf    fn431754   3.938   1.731   4.387  0.1156  0.1871 -0.2358
 5897ntf    fn431755   4.118   1.748   4.489 -0.3163 -0.0008  0.1028
 5898ntf    cn131756   6.069   7.346   2.565 -0.0564 -0.1035  0.0306
 5898ntf    sn231757   6.152   7.191   2.610 -0.0451 -0.0247  0.2836
 5898ntf    nn331758   6.088   7.086   2.511  0.3305  0.4737 -0.4959
 5898ntf    sn231759   6.099   6.930   2.518 -0.3365  0.4500  0.1412
 5898ntf    cn131760   5.935   6.871   2.567 -0.3474  0.0324 -0.3854
 5898ntf    fn431761   6.102   7.383   2.442  0.3769 -0.2352  0.1088
 5898ntf    fn431762   5.937   7.336   2.559 -0.1194  0.4177  0.4285
 5898ntf    fn431763   6.092   7.450   2.643 -0.0128  0.3250 -0.5448
 5898ntf    on531764   6.290   7.227   2.588 -0.0626  0.1639  0.4896
 5898ntf    on531765   6.105   7.170   2.745 -0.0595 -0.7853  0.1651
 5898ntf    on531766   6.179   6.876   2.626  0.0851  0.0362 -0.3703
 5898ntf    on531767   6.122   6.870   2.389 -0.1725  0.7934  0.0107
 5898ntf    fn431768   5.943   6.740   2.582 -0.0285  0.1023  0.0661
 5898ntf    fn431769   5.887   6.923   2.679  0.0980  0.0359 -0.1967
 5898ntf    fn431770   5.847   6.893   2.470 -0.4574  0.0163 -0.2904
 5899ntf    cn131771   4.250   7.131   2.289  0.1170  0.1754  0.0399
 5899ntf    sn231772   4.412   7.150   2.209 -0.0089  0.1207 -0.2258
 5899ntf    nn331773   4.400   7.304   2.181 -1.0794  0.1201  0.1858
 5899ntf    sn231774   4.352   7.361   2.043  0.1446 -0.1880 -0.3841
 5899ntf    cn131775   4.256   7.506   2.097 -0.0146 -0.5848  0.4038
 5899ntf    fn431776   4.246   7.013   2.349 -0.4520  0.0801 -0.1800
 5899ntf    fn431777   4.227   7.212   2.391 -0.3130  0.0205  0.0664
 5899ntf    fn431778   4.143   7.144   2.213 -0.1046  0.2073  0.3521
 5899ntf    on531779   4.507   7.125   2.314 -0.2057 -0.1386 -0.1101
 5899ntf    on531780   4.415   7.059   2.097 -0.3012 -0.4595  0.2342
 5899ntf    on531781   4.244   7.291   1.979 -0.1193  0.0398 -0.1938
 5899ntf    on531782   4.461   7.413   1.964  0.0445  0.3303 -0.1905
 5899ntf    fn431783   4.324   7.585   2.178  0.2717  0.2186 -0.5963
 5899ntf    fn431784   4.215   7.582   1.997  0.2810  0.1170  0.8107
 5899ntf    fn431785   4.144   7.476   2.161 -0.4119  0.6396  0.2965
 5900ntf    cn131786   2.193   1.085   6.876  0.1133 -0.4090  0.3668
 5900ntf    sn231787   2.050   1.079   6.764  0.3762  0.0866  0.0009
 5900ntf    nn331788   2.108   1.109   6.621 -0.0244 -0.4067 -0.2705
 5900ntf    sn231789   2.072   1.027   6.492 -0.0835 -0.0671 -0.4694
 5900ntf    cn131790   2.097   1.162   6.372 -0.4356  0.2630 -0.1719
 5900ntf    fn431791   2.234   1.211   6.879 -0.0572 -0.3383 -0.0900
 5900ntf    fn431792   2.161   1.046   6.998  0.8842 -0.1400  0.6578
 5900ntf    fn431793   2.295   1.011   6.836  0.7458  0.2707  0.7102
 5900ntf    on531794   1.999   0.947   6.789  0.6140 -0.1027 -0.4926
 5900ntf    on531795   1.964   1.184   6.813  0.1883 -0.0389 -0.0563
 5900ntf    on531796   1.934   0.999   6.463 -0.0563 -0.4550 -0.2244
 5900ntf    on531797   2.172   0.928   6.460  0.4449  0.3556 -0.1468
 5900ntf    fn431798   2.224   1.190   6.352 -0.2426 -1.0153 -0.7893
 5900ntf    fn431799   2.042   1.145   6.253 -0.5283  0.2821 -0.1323
 5900ntf    fn431800   2.050   1.279   6.412 -0.0168  0.3701  0.0084
 5901ntf    cn131801   1.002   4.009   5.411  0.0125  0.2279  0.0513
 5901ntf    sn231802   1.049   4.077   5.250  0.2072 -0.1366 -0.0487
 5901ntf    nn331803   1.091   3.941   5.184 -0.2555 -0.3598  0.1133
 5901ntf    sn231804   1.230   3.868   5.184 -0.2004 -0.2569 -0.1420
 5901ntf    cn131805   1.251   3.820   5.010  0.0675  0.2431 -0.2495
 5901ntf    fn431806   1.112   3.985   5.482  0.1577 -0.1284 -0.2880
 5901ntf    fn431807   0.937   4.103   5.478 -0.1494  0.0592  0.1306
 5901ntf    fn431808   0.933   3.896   5.402  0.1950  0.1017  0.2052
 5901ntf    on531809   0.920   4.119   5.198  0.1640 -0.1902  0.0160
 5901ntf    on531810   1.153   4.175   5.266  0.1483  0.0026 -0.4987
 5901ntf    on531811   1.220   3.747   5.261  0.1197 -0.1413  0.0833
 5901ntf    on531812   1.351   3.944   5.202 -0.5484  0.2521  0.0739
 5901ntf    fn431813   1.144   3.774   4.949  0.2299  0.1372 -0.4539
 5901ntf    fn431814   1.285   3.929   4.943 -0.0540  0.4421  0.0068
 5901ntf    fn431815   1.347   3.731   4.990  0.0485  0.3894 -1.0084
 5902ntf    cn131816   6.783   2.582   4.033 -0.0227  0.1054  0.1904
 5902ntf    sn231817   6.691   2.674   3.906 -0.4294 -0.4419  0.0866
 5902ntf    nn331818   6.613   2.779   3.993 -0.5437 -0.2502 -0.2446
 5902ntf    sn231819   6.543   2.907   3.936 -0.1106  0.0679 -0.0702
 5902ntf    cn131820   6.403   2.830   3.849 -0.4136  0.1068  0.3765
 5902ntf    fn431821   6.854   2.484   3.980 -0.3995  0.0594 -0.2322
 5902ntf    fn431822   6.856   2.655   4.117  0.3201 -0.0387  0.0163
 5902ntf    fn431823   6.692   2.523   4.108  0.0010 -0.4888 -0.2506
 5902ntf    on531824   6.799   2.728   3.827 -0.3017 -0.4553  0.2524
 5902ntf    on531825   6.616   2.568   3.844 -0.0948 -0.2241 -0.7029
 5902ntf    on531826   6.614   2.984   3.837 -0.1391  0.8295  0.4895
 5902ntf    on531827   6.487   2.987   4.042 -0.0283  0.1563 -0.0942
 5902ntf    fn431828   6.456   2.774   3.741 -0.5441  0.3092  0.2070
 5902ntf    fn431829   6.331   2.737   3.909 -0.1773 -0.0778  0.3744
 5902ntf    fn431830   6.311   2.914   3.806 -0.0162  0.5084  0.3014
 5903ntf    cn131831   3.033   4.160   5.744 -0.1536  0.5150  0.3343
 5903ntf    sn231832   3.138   4.127   5.889 -0.1611 -0.4169  0.1322
 5903ntf    nn331833   3.058   4.199   6.003 -0.2826 -0.8631  0.3310
 5903ntf    sn231834   3.065   4.173   6.158  0.1205 -0.0257  0.4561
 5903ntf    cn131835   2.933   4.050   6.172  0.1492 -0.1749 -0.5044
 5903ntf    fn431836   3.081   4.089   5.642 -0.6899 -0.1082  0.5111
 5903ntf    fn431837   2.906   4.129   5.763 -0.1598  0.4123  0.1400
 5903ntf    fn431838   3.038   4.287   5.706  0.5646  0.3729 -0.0818
 5903ntf    on531839   3.118   3.984   5.896  0.0953 -0.4728 -0.2316
 5903ntf    on531840   3.272   4.169   5.859 -0.0669 -0.7362  0.0999
 5903ntf    on531841   3.015   4.283   6.236  0.0321 -0.0357  0.4149
 5903ntf    on531842   3.187   4.108   6.200  0.2830 -0.0464 -0.0355
 5903ntf    fn431843   2.889   4.033   6.296 -0.7882  0.5684 -0.7211
 5903ntf    fn431844   2.833   4.095   6.097  0.5220  0.8645 -0.3825
 5903ntf    fn431845   2.964   3.927   6.133 -1.0476 -0.6522 -0.0292
 5904ntf    cn131846   6.875   5.192   6.456 -0.2611  0.0382 -0.2455
 5904ntf    sn231847   6.962   5.231   6.301  0.0563  0.2965 -0.0034
 5904ntf    nn331848   7.000   5.382   6.319  0.1366  0.3128 -0.3000
 5904ntf    sn231849   6.962   5.505   6.229  0.0303  0.2526 -0.3379
 5904ntf    cn131850   6.785   5.512   6.270  0.0120 -0.2960 -0.3110
 5904ntf    fn431851   6.942   5.207   6.569  0.0044  0.2134 -0.4250
 5904ntf    fn431852   6.762   5.260   6.469 -0.3470 -0.1551  0.0257
 5904ntf    fn431853   6.827   5.069   6.441  0.2776 -0.2198  0.1382
 5904ntf    on531854   7.090   5.164   6.301 -0.0773  0.0352 -0.2750
 5904ntf    on531855   6.863   5.194   6.202  0.4142 -0.6145 -0.0331
 5904ntf    on531856   6.969   5.485   6.086  0.2892 -0.4212 -0.2369
 5904ntf    on531857   7.003   5.631   6.285 -0.2780  0.0303  0.4038
 5904ntf    fn431858   6.760   5.492   6.398  0.3229 -0.1635 -0.2279
 5904ntf    fn431859   6.734   5.630   6.240  0.7721  0.1315  0.0262
 5904ntf    fn431860   6.715   5.420   6.206  0.1438 -0.5835 -0.0485
 5905ntf    cn131861   3.052   5.482   5.998 -0.0645 -0.3634 -0.0080
 5905ntf    sn231862   3.191   5.553   5.906  0.0430 -0.0111  0.4267
 5905ntf    nn331863   3.288   5.430   5.892 -0.4943 -0.3997  0.0901
 5905ntf    sn231864   3.387   5.385   6.005 -0.1419 -0.1701 -0.1265
 5905ntf    cn131865   3.353   5.207   6.020  0.1058 -0.2137 -0.0679
 5905ntf    fn431866   3.009   5.365   5.952 -0.3448 -0.3797  0.2975
 5905ntf    fn431867   3.089   5.457   6.122 -0.4786 -0.6823  0.0557
 5905ntf    fn431868   2.943   5.558   6.001 -0.1752 -0.5168 -0.1133
 5905ntf    on531869   3.128   5.592   5.782  0.5414 -0.5942 -0.0172
 5905ntf    on531870   3.245   5.661   5.985 -0.4383  0.0384  0.6851
 5905ntf    on531871   3.371   5.439   6.138  0.1078  0.1459 -0.2228
 5905ntf    on531872   3.525   5.383   5.965  0.1090  0.6170  0.6583
 5905ntf    fn431873   3.413   5.165   6.130 -0.2869 -0.1718  0.1635
 5905ntf    fn431874   3.225   5.179   6.042  0.0731 -0.0464 -0.0427
 5905ntf    fn431875   3.394   5.136   5.916 -0.4692 -0.4151 -0.1632
 5906ntf    cn131876   6.739   6.100   3.185  0.1082 -0.2337 -0.0775
 5906ntf    sn231877   6.803   6.056   3.021  0.0426  0.0133 -0.1706
 5906ntf    nn331878   6.920   6.157   2.998  0.2663 -0.2042  0.0059
 5906ntf    sn231879   7.065   6.129   2.944  0.0196 -0.0335 -0.7666
 5906ntf    cn131880   7.051   6.142   2.763 -0.3045  0.2993 -0.7192
 5906ntf    fn431881   6.824   6.070   3.281  0.2666  0.5949  0.0469
 5906ntf    fn431882   6.708   6.229   3.195  0.2165 -0.2091 -0.0525
 5906ntf    fn431883   6.625   6.041   3.214  0.2399 -0.2029  0.5160
 5906ntf    on531884   6.837   5.916   3.033  0.0698 -0.0010 -0.4075
 5906ntf    on531885   6.689   6.087   2.937 -0.2434 -1.2477 -0.2710
 5906ntf    on531886   7.112   5.994   2.965 -0.1595 -0.0212 -0.2681
 5906ntf    on531887   7.161   6.231   2.978  0.2836 -0.6609  0.4437
 5906ntf    fn431888   6.978   6.048   2.706  0.2827 -0.4059 -0.3338
 5906ntf    fn431889   6.998   6.260   2.737  0.0335  0.3872 -1.0210
 5906ntf    fn431890   7.165   6.142   2.695  0.2525 -0.1482  0.1837
 5907ntf    cn131891   6.769   0.338   3.953 -0.0092 -0.2691 -0.4306
 5907ntf    sn231892   6.752   0.206   3.829 -0.0964 -0.2598 -0.4284
 5907ntf    nn331893   6.635   0.134   3.904 -0.2914  0.5366  0.0493
 5907ntf    sn231894   6.480   0.158   3.894 -0.3362  0.0993 -0.3582
 5907ntf    cn131895   6.443   0.065   3.743 -0.0073 -0.3294 -0.1770
 5907ntf    fn431896   6.678   0.433   3.936  0.2468  0.0973  0.2286
 5907ntf    fn431897   6.761   0.289   4.076  0.2886  0.0402 -0.2858
 5907ntf    fn431898   6.884   0.402   3.947 -0.1158 -0.0642 -0.2936
 5907ntf    on531899   6.714   0.289   3.717 -0.7495  0.2752  0.1738
 5907ntf    on531900   6.877   0.135   3.823  0.1342  0.0240  0.7490
 5907ntf    on531901   6.439   0.290   3.854 -0.3403  0.2822  0.2359
 5907ntf    on531902   6.408   0.099   4.004  0.2648 -0.2039 -0.1246
 5907ntf    fn431903   6.318   0.086   3.704  0.0885 -0.6532 -0.6714
 5907ntf    fn431904   6.524   0.106   3.647 -0.0045  0.2758  0.0844
 5907ntf    fn431905   6.462  -0.066   3.750  0.5253 -0.2647 -0.3654
 5908ntf    cn131906   3.937   3.344   5.533  0.0038  0.1471 -0.4752
 5908ntf    sn231907   3.913   3.523   5.541 -0.4682  0.0749 -0.2627
 5908ntf    nn331908   4.059   3.578   5.521 -0.3363 -0.2499 -0.1885
 5908ntf    sn231909   4.108   3.699   5.434  0.1841 -0.4452 -0.1695
 5908ntf    cn131910   4.109   3.621   5.270  0.2307 -0.0369 -0.3638
 5908ntf    fn431911   3.825   3.276   5.514 -0.1521  0.0137  0.8456
 5908ntf    fn431912   4.022   3.316   5.435  0.0217  0.2065 -0.4772
 5908ntf    fn431913   4.002   3.291   5.636 -0.1361  0.8989  0.0021
 5908ntf    on531914   3.832   3.547   5.424 -0.1169  0.2651 -0.4702
 5908ntf    on531915   3.852   3.540   5.670 -0.2173  0.4827 -0.1967
 5908ntf    on531916   4.246   3.731   5.462  0.1797  0.0979 -0.7662
 5908ntf    on531917   4.016   3.810   5.428  1.1020  0.3518  0.3183
 5908ntf    fn431918   3.985   3.626   5.223 -0.1461  0.2284  0.6438
 5908ntf    fn431919   4.186   3.672   5.174  0.1820 -0.3939 -0.5950
 5908ntf    fn431920   4.149   3.495   5.279 -0.1370 -0.1166  0.1413
 5909ntf    cn131921   1.683   4.765   4.079 -0.0803  0.1356  0.4380
 5909ntf    sn231922   1.811   4.891   4.111  0.1052  0.0925 -0.1278
 5909ntf    nn331923   1.735   5.027   4.097 -0.1810 -0.0224  0.3215
 5909ntf    sn231924   1.696   5.101   3.965  0.0854 -0.3493  0.0596
 5909ntf    cn131925   1.783   5.259   3.989  0.1940 -0.3569 -0.2678
 5909ntf    fn431926   1.731   4.642   4.079 -0.2212  0.0819  0.6934
 5909ntf    fn431927   1.591   4.771   4.173 -0.2466 -0.8470  0.3435
 5909ntf    fn431928   1.631   4.784   3.959  0.8189 -0.3508 -0.0466
 5909ntf    on531929   1.857   4.869   4.246 -0.3485  0.0640  0.0213
 5909ntf    on531930   1.908   4.872   4.005 -0.3915 -0.6215 -0.4671
 5909ntf    on531931   1.562   5.153   3.969 -0.0759 -0.8078  0.5643
 5909ntf    on531932   1.744   5.049   3.839  0.5860 -0.2466  0.2041
 5909ntf    fn431933   1.915   5.254   3.995  0.2267  0.5594 -0.0463
 5909ntf    fn431934   1.762   5.354   3.899  0.1046 -0.5434 -0.4452
 5909ntf    fn431935   1.753   5.316   4.105  0.2102 -0.5473 -0.1709
 5910ntf    cn131936   0.907   6.103   7.564  0.0535  0.0004 -0.3651
 5910ntf    sn231937   0.761   6.006   7.515 -0.1817 -0.0088  0.3360
 5910ntf    nn331938   0.664   6.067   7.623  0.2682  0.4803  0.4712
 5910ntf    sn231939   0.547   6.166   7.590  0.0961  0.1193 -0.0231
 5910ntf    cn131940   0.503   6.216   7.759  0.3137 -0.0521  0.0845
 5910ntf    fn431941   1.014   6.068   7.494 -0.0878  0.0504 -0.6048
 5910ntf    fn431942   0.889   6.231   7.536 -0.4205  0.0040 -0.0518
 5910ntf    fn431943   0.932   6.087   7.693  0.4791  0.3011 -0.4093
 5910ntf    on531944   0.743   6.040   7.376 -0.6584 -0.2873  0.3278
 5910ntf    on531945   0.799   5.870   7.542 -0.2867 -0.1113 -0.0157
 5910ntf    on531946   0.426   6.106   7.539  0.0498  0.1700  0.0257
 5910ntf    on531947   0.601   6.283   7.526 -0.4495  0.2867 -0.1804
 5910ntf    fn431948   0.614   6.224   7.831  0.2928 -0.1962  0.1322
 5910ntf    fn431949   0.434   6.329   7.771  0.7799  0.2784 -0.3235
 5910ntf    fn431950   0.427   6.130   7.825 -0.2310  0.2083 -0.1980
 5911ntf    cn131951   1.585   1.567   2.205  0.0588 -0.3668 -0.1583
 5911ntf    sn231952   1.523   1.597   2.373 -0.1771 -0.1122 -0.2885
 5911ntf    nn331953   1.625   1.710   2.414 -0.3205 -0.3382  0.7305
 5911ntf    sn231954   1.720   1.727   2.537  0.0478  0.1932  0.3777
 5911ntf    cn131955   1.603   1.730   2.676 -0.4454 -0.5892 -0.0151
 5911ntf    fn431956   1.716   1.573   2.186  0.0351 -0.7965 -0.4808
 5911ntf    fn431957   1.547   1.450   2.156 -0.1114 -0.3177 -0.1445
 5911ntf    fn431958   1.539   1.652   2.114 -0.2881 -0.1767  0.1935
 5911ntf    on531959   1.386   1.639   2.361 -0.0276  0.5407  0.2266
 5911ntf    on531960   1.549   1.469   2.434  0.6408  0.1581 -0.0513
 5911ntf    on531961   1.777   1.859   2.546  0.6328  0.0050 -0.4677
 5911ntf    on531962   1.814   1.619   2.556 -0.3776 -0.2380  0.0611
 5911ntf    fn431963   1.619   1.630   2.762  0.1850 -0.0556  0.4971
 5911ntf    fn431964   1.589   1.841   2.746  0.1602 -0.3024 -0.3441
 5911ntf    fn431965   1.480   1.714   2.629 -0.5811  0.3159  0.0212
 5912ntf    cn131966   2.432   5.431   2.774  0.3740 -0.4722  0.1628
 5912ntf    sn231967   2.595   5.509   2.756  0.0596  0.0580 -0.4126
 5912ntf    nn331968   2.651   5.446   2.623  0.6074 -0.3482  0.0051
 5912ntf    sn231969   2.614   5.498   2.479 -0.2870 -0.0265  0.3393
 5912ntf    cn131970   2.732   5.636   2.480 -0.0364 -0.2399  0.3277
 5912ntf    fn431971   2.430   5.321   2.847 -0.8814 -0.5279  0.0651
 5912ntf    fn431972   2.342   5.502   2.839 -0.0008 -0.6586 -0.1466
 5912ntf    fn431973   2.380   5.400   2.656  0.3430  0.5766 -0.1141
 5912ntf    on531974   2.570   5.651   2.745 -0.5200 -0.0365 -0.3224
 5912ntf    on531975   2.669   5.464   2.871  0.0708  0.1860 -0.3696
 5912ntf    on531976   2.482   5.540   2.440 -0.1678  0.0038 -0.0370
 5912ntf    on531977   2.674   5.401   2.390  0.1917  0.3060  0.2979
 5912ntf    fn431978   2.685   5.746   2.535  0.4403  0.1477 -0.0356
 5912ntf    fn431979   2.840   5.597   2.547  0.0617 -0.6060 -0.0389
 5912ntf    fn431980   2.764   5.660   2.354  0.1638 -0.4863  0.3311
 5913ntf    cn131981   1.888   6.558   2.462  0.5283 -0.3467 -0.0229
 5913ntf    sn231982   1.849   6.600   2.635 -0.1074 -0.2621 -0.1849
 5913ntf    nn331983   1.700   6.648   2.617  0.1166  0.4275 -0.2509
 5913ntf    sn231984   1.648   6.793   2.593  0.0786  0.4378 -0.1106
 5913ntf    cn131985   1.583   6.827   2.759  0.0365 -0.1440 -0.0086
 5913ntf    fn431986   1.794   6.479   2.412 -0.2567  0.3471  0.3338
 5913ntf    fn431987   1.895   6.659   2.377  0.5818  0.0687  0.4713
 5913ntf    fn431988   2.003   6.495   2.450  0.4726 -0.3796 -0.3887
 5913ntf    on531989   1.860   6.476   2.707  0.5442 -0.0351  0.1112
 5913ntf    on531990   1.946   6.699   2.673 -0.2690  0.0657 -0.6113
 5913ntf    on531991   1.531   6.798   2.508  0.2892 -0.2303 -0.4434
 5913ntf    on531992   1.751   6.892   2.572  0.5332  0.1743  0.8624
 5913ntf    fn431993   1.456   6.790   2.769  0.0048 -0.1753 -0.5222
 5913ntf    fn431994   1.660   6.769   2.850  0.1638  0.2838  0.1600
 5913ntf    fn431995   1.568   6.954   2.792  0.0795 -0.0700 -0.2731
 5914ntf    cn131996   4.620   0.388   3.169  0.0369  0.2404  0.2398
 5914ntf    sn231997   4.791   0.431   3.126  0.1767 -0.1725  0.3808
 5914ntf    nn331998   4.856   0.293   3.166 -0.2678 -0.2456  0.8670
 5914ntf    sn231999   5.004   0.275   3.217 -0.0263 -0.0849  0.2380
 5914ntf    cn132000   5.092   0.263   3.058 -0.1167 -0.1975  0.1959
 5914ntf    fn432001   4.552   0.500   3.182 -0.3312  0.0593 -0.1107
 5914ntf    fn432002   4.561   0.314   3.076  0.3801 -0.0605  0.2595
 5914ntf    fn432003   4.614   0.314   3.279  0.3444 -0.0638  0.0548
 5914ntf    on532004   4.784   0.460   2.985  0.1901  0.3723  0.4923
 5914ntf    on532005   4.820   0.541   3.215  0.5763 -0.0562  0.1097
 5914ntf    on532006   5.028   0.147   3.279 -0.8615 -0.3356  0.0695
 5914ntf    on532007   5.071   0.387   3.277 -0.6243  0.4195 -0.0268
 5914ntf    fn432008   5.089   0.382   3.002 -0.7148 -0.1868  0.2443
 5914ntf    fn432009   5.217   0.222   3.069 -0.2378 -0.5687  0.2353
 5914ntf    fn432010   5.030   0.175   2.981 -0.2197  0.2911 -0.2852
 5915ntf    cn132011   2.483   4.308   5.050 -0.0188  0.1089  0.1620
 5915ntf    sn232012   2.645   4.301   5.132  0.0717 -0.0520 -0.0296
 5915ntf    nn332013   2.741   4.383   5.040  0.2154  0.6249  0.7116
 5915ntf    sn232014   2.826   4.333   4.917 -0.4483  0.0366  0.4867
 5915ntf    cn132015   2.730   4.371   4.768  0.3203 -0.4407 -0.1368
 5915ntf    fn432016   2.378   4.271   5.121 -0.4909  0.7173 -0.2160
 5915ntf    fn432017   2.452   4.427   5.001 -0.3044 -0.1934 -0.3983
 5915ntf    fn432018   2.479   4.228   4.945  0.0233 -0.1647  0.3697
 5915ntf    on532019   2.613   4.371   5.254  0.0327 -0.9943  0.5107
 5915ntf    on532020   2.666   4.158   5.140  0.5062  0.0448  0.6531
 5915ntf    on532021   2.855   4.193   4.905  0.3395  0.1920  0.5287
 5915ntf    on532022   2.939   4.421   4.898 -0.5686  0.0332 -0.2607
 5915ntf    fn432023   2.688   4.495   4.750 -0.4290 -0.6248  0.2723
 5915ntf    fn432024   2.809   4.349   4.664  0.4447  0.1685 -0.1712
 5915ntf    fn432025   2.627   4.287   4.771 -0.1418  0.1015 -0.4834
 5916ntf    cn132026   6.974   1.634   2.408 -0.1700  0.0695 -0.2093
 5916ntf    sn232027   6.862   1.749   2.495 -0.1463 -0.1192  0.0735
 5916ntf    nn332028   6.749   1.647   2.532 -0.2166 -0.0604  0.0191
 5916ntf    sn232029   6.604   1.619   2.477 -0.1198 -0.4305 -0.0473
 5916ntf    cn132030   6.517   1.713   2.605  0.0396 -0.1621 -0.1352
 5916ntf    fn432031   7.065   1.700   2.338  0.2149 -0.3248 -0.0832
 5916ntf    fn432032   7.040   1.555   2.491 -0.2026  0.0373 -0.2148
 5916ntf    fn432033   6.918   1.554   2.319  0.3312 -0.4786 -0.0382
 5916ntf    on532034   6.934   1.799   2.609  0.1363 -0.2568 -0.0444
 5916ntf    on532035   6.832   1.853   2.399  0.5027 -0.0580 -0.0663
 5916ntf    on532036   6.564   1.481   2.490 -0.0099 -0.4900 -0.3234
 5916ntf    on532037   6.567   1.682   2.353 -0.5353 -0.4759  0.0528
 5916ntf    fn432038   6.561   1.838   2.603 -0.2692 -0.0473  0.0004
 5916ntf    fn432039   6.385   1.716   2.587 -0.0013  0.0764  0.2011
 5916ntf    fn432040   6.540   1.666   2.726  0.4492 -0.2912 -0.2625
 5917ntf    cn132041   2.315   1.351   2.946 -0.5139  0.4376  0.0804
 5917ntf    sn232042   2.285   1.172   2.960  0.0941  0.3411  0.1783
 5917ntf    nn332043   2.138   1.173   3.014  0.0473  0.0141  0.0604
 5917ntf    sn232044   2.068   1.092   3.129  0.2617  0.0900  0.2471
 5917ntf    cn132045   2.105   1.187   3.279  0.3154  0.1594  0.1900
 5917ntf    fn432046   2.392   1.371   2.840 -0.3030 -0.3217  0.0813
 5917ntf    fn432047   2.202   1.416   2.929 -0.6649  0.1813  0.1045
 5917ntf    fn432048   2.375   1.398   3.055  0.0494 -0.0372 -0.0145
 5917ntf    on532049   2.292   1.126   2.824 -0.1057  0.1770  0.2248
 5917ntf    on532050   2.380   1.133   3.061  0.4005  0.4114 -0.0805
 5917ntf    on532051   2.119   0.959   3.151 -0.2709 -0.1710 -0.0806
 5917ntf    on532052   1.925   1.099   3.117  0.2607 -0.2721  0.0298
 5917ntf    fn432053   2.053   1.309   3.276  0.1843  0.0869 -0.9376
 5917ntf    fn432054   2.064   1.127   3.390  0.0669  0.0825  0.0581
 5917ntf    fn432055   2.235   1.209   3.290  0.2237  0.7253  0.1734
 5918ntf    cn132056   6.107   6.327   6.273 -0.1597  0.1659  0.3485
 5918ntf    sn232057   5.995   6.192   6.324 -0.0275 -0.1564 -0.2081
 5918ntf    nn332058   6.013   6.094   6.202  0.3503  0.1118 -0.3724
 5918ntf    sn232059   5.919   6.072   6.078 -0.1244 -0.1332  0.0252
 5918ntf    cn132060   5.980   5.908   6.029  0.1309  0.1009 -0.4460
 5918ntf    fn432061   6.227   6.280   6.239 -0.6283 -0.5747 -0.3242
 5918ntf    fn432062   6.056   6.392   6.170 -0.8923 -0.3666  0.3646
 5918ntf    fn432063   6.129   6.405   6.378 -0.1233  0.3981  0.1679
 5918ntf    on532064   6.052   6.136   6.444 -0.7532  0.1775  0.2950
 5918ntf    on532065   5.865   6.254   6.327 -0.3994 -0.9053 -0.5949
 5918ntf    on532066   5.950   6.156   5.965  0.0220  0.4713  0.5077
 5918ntf    on532067   5.779   6.052   6.105 -0.1988  0.3241 -0.0007
 5918ntf    fn432068   6.098   5.920   5.970  0.4074  0.4652  0.1702
 5918ntf    fn432069   5.993   5.832   6.136  0.0438 -0.1463 -0.6094
 5918ntf    fn432070   5.894   5.850   5.947  0.4773 -0.5549 -0.3461
 5919ntf    cn132071   5.124   6.295   6.869 -0.1041 -0.4526  0.2736
 5919ntf    sn232072   4.983   6.382   6.945 -0.1780 -0.2250 -0.1204
 5919ntf    nn332073   5.005   6.338   7.095  0.3548 -0.1494 -0.1722
 5919ntf    sn232074   5.068   6.418   7.214 -0.1731  0.0133  0.0008
 5919ntf    cn132075   5.230   6.336   7.220 -0.0634  0.2379  0.1079
 5919ntf    fn432076   5.229   6.368   6.835 -0.6163 -0.1394 -0.6662
 5919ntf    fn432077   5.162   6.200   6.953  0.1713 -0.8040 -0.2427
 5919ntf    fn432078   5.088   6.225   6.763  0.0585  0.0135 -0.0939
 5919ntf    on532079   5.004   6.518   6.902 -0.0048 -0.3566 -0.4548
 5919ntf    on532080   4.874   6.307   6.889 -0.0699 -0.4156 -0.0785
 5919ntf    on532081   5.010   6.384   7.341  0.0953 -0.2633  0.0492
 5919ntf    on532082   5.105   6.555   7.189 -0.0513 -0.1322 -0.6502
 5919ntf    fn432083   5.303   6.411   7.300 -0.1404  0.4453 -0.0132
 5919ntf    fn432084   5.231   6.214   7.270 -0.3238  0.1288 -0.1500
 5919ntf    fn432085   5.301   6.330   7.108 -0.2806  0.3056 -0.0359
 5920ntf    cn132086   6.169   0.129   5.357  0.4253  0.1370 -0.4209
 5920ntf    sn232087   6.300   0.050   5.258  0.3318 -0.1988 -0.2784
 5920ntf    nn332088   6.353   0.177   5.182  0.1769 -0.2258 -0.4315
 5920ntf    sn232089   6.504   0.214   5.164  0.0788  0.3413 -0.1306
 5920ntf    cn132090   6.511   0.207   4.983 -0.0276  0.3886 -0.1362
 5920ntf    fn432091   6.108   0.046   5.440 -0.1450  1.2010  0.2404
 5920ntf    fn432092   6.224   0.220   5.435 -0.3210  0.6580 -0.4875
 5920ntf    fn432093   6.073   0.188   5.287  0.2017 -0.0258 -0.2506
 5920ntf    on532094   6.382   0.009   5.369  0.8862 -0.0598 -0.6326
 5920ntf    on532095   6.231  -0.043   5.172  0.3401  0.0631 -0.5710
 5920ntf    on532096   6.601   0.109   5.184 -0.3381 -0.0199  0.0038
 5920ntf    on532097   6.535   0.349   5.204 -0.0176  0.3578 -0.1129
 5920ntf    fn432098   6.468   0.089   4.940 -0.3197  0.4338  0.0254
 5920ntf    fn432099   6.423   0.291   4.929 -0.1208  0.3897  0.0151
 5920ntf    fn432100   6.632   0.233   4.937 -0.1497  0.4742 -0.4123
 5921ntf    cn132101   7.457   7.520   6.360  0.4183  0.1628  0.5869
 5921ntf    sn232102   7.611   7.617   6.352  0.4966  0.0446  0.6671
 5921ntf    nn332103   7.570   7.731   6.453 -0.4510  0.1789  0.1440
 5921ntf    sn232104   7.613   7.881   6.463 -0.1827  0.1038  0.1318
 5921ntf    cn132105   7.489   7.959   6.355  0.2676  0.8039  0.1113
 5921ntf    fn432106   7.370   7.593   6.293  0.0528 -0.6729  0.1317
 5921ntf    fn432107   7.472   7.403   6.299  0.7892  0.4239  0.1725
 5921ntf    fn432108   7.413   7.501   6.483 -0.7064 -0.4990  0.0987
 5921ntf    on532109   7.711   7.523   6.397  0.0650 -0.4741  0.5655
 5921ntf    on532110   7.613   7.657   6.214 -0.3517  0.1066  0.6678
 5921ntf    on532111   7.743   7.911   6.407 -0.0955 -0.0852  0.2321
 5921ntf    on532112   7.582   7.932   6.594  0.0564 -0.6802  0.4949
 5921ntf    fn432113   7.501   8.091   6.347  0.5976  0.7790  0.1929
 5921ntf    fn432114   7.486   7.913   6.231  0.0123  0.0158  0.4066
 5921ntf    fn432115   7.366   7.930   6.394  0.1301  0.5428 -0.5104
 5922ntf    cn132116   2.118   6.888   5.367  0.2468 -0.0236  0.0882
 5922ntf    sn232117   2.002   6.994   5.458  0.3357 -0.0451  0.2274
 5922ntf    nn332118   2.065   7.136   5.436 -0.0841  0.0795 -0.1832
 5922ntf    sn232119   2.159   7.220   5.529  0.1048  0.1207 -0.4097
 5922ntf    cn132120   2.048   7.347   5.597  0.3074  0.1859 -0.1989
 5922ntf    fn432121   2.088   6.860   5.241  0.1016 -0.2334  0.1690
 5922ntf    fn432122   2.233   6.952   5.355  0.0305  0.3544  0.0444
 5922ntf    fn432123   2.143   6.773   5.429 -0.5540 -0.3456 -0.1773
 5922ntf    on532124   1.875   6.986   5.389  0.2778  0.6825  0.2470
 5922ntf    on532125   2.000   6.950   5.596 -0.3383  0.3731  0.3584
 5922ntf    on532126   2.252   7.305   5.458 -0.2970  0.5633 -0.4085
 5922ntf    on532127   2.213   7.158   5.648 -0.2048 -0.7240 -0.7038
 5922ntf    fn432128   2.117   7.403   5.695  0.1027  0.0396  0.0300
 5922ntf    fn432129   2.014   7.426   5.497  0.1586 -0.2245 -0.4769
 5922ntf    fn432130   1.935   7.300   5.647  0.5979 -0.0597  0.2391
 5923ntf    cn132131   7.095   0.963   3.581 -0.0588 -0.2716 -0.1977
 5923ntf    sn232132   6.935   0.982   3.498 -0.1137  0.0027 -0.0274
 5923ntf    nn332133   6.866   1.087   3.594 -0.2250 -0.0007 -0.1032
 5923ntf    sn232134   6.813   1.232   3.565 -0.0276  0.0011 -0.4669
 5923ntf    cn132135   6.965   1.333   3.562 -0.1501  0.2017 -0.0070
 5923ntf    fn432136   7.164   1.074   3.606 -0.1097 -0.3422  0.2781
 5923ntf    fn432137   7.069   0.901   3.696 -0.0868 -0.1749 -0.1516
 5923ntf    fn432138   7.172   0.880   3.513 -0.1422 -0.3654 -0.1783
 5923ntf    on532139   6.976   1.042   3.374  0.2928 -0.1080  0.0543
 5923ntf    on532140   6.876   0.851   3.503 -0.8910  0.3408 -0.1551
 5923ntf    on532141   6.741   1.268   3.685 -0.3483 -0.5306 -0.4988
 5923ntf    on532142   6.755   1.256   3.436 -0.2504 -0.1500 -0.3959
 5923ntf    fn432143   7.042   1.330   3.670 -0.1511 -0.3729 -0.0187
 5923ntf    fn432144   7.046   1.293   3.466  0.3678 -0.2087  0.5983
 5923ntf    fn432145   6.934   1.458   3.534 -0.2555  0.2341  0.2437
 5924ntf    cn132146   5.269   3.085   2.569 -0.2747 -0.2113 -0.3121
 5924ntf    sn232147   5.117   3.030   2.652 -0.3461  0.1990 -0.1668
 5924ntf    nn332148   5.076   3.157   2.734  0.2763 -0.1691  0.7240
 5924ntf    sn232149   5.012   3.167   2.877  0.0573 -0.0275  0.6153
 5924ntf    cn132150   4.846   3.211   2.816  0.1275 -0.4588  0.1139
 5924ntf    fn432151   5.233   3.174   2.478  0.0207  0.2787  0.0418
 5924ntf    fn432152   5.345   3.150   2.656  0.0510 -0.3457 -0.4916
 5924ntf    fn432153   5.345   2.991   2.517  0.3836  0.0573  0.1432
 5924ntf    on532154   5.022   3.014   2.544 -0.1162  0.9302 -0.4867
 5924ntf    on532155   5.161   2.920   2.734  0.1896 -0.2562 -1.0464
 5924ntf    on532156   5.057   3.284   2.949  0.0331  0.3118  0.0919
 5924ntf    on532157   4.980   3.047   2.950  0.1389 -0.4365 -0.0120
 5924ntf    fn432158   4.782   3.111   2.757  0.0140 -0.2283 -0.1597
 5924ntf    fn432159   4.770   3.247   2.917  0.2384  0.0549  0.0159
 5924ntf    fn432160   4.844   3.307   2.725 -0.0818 -0.0851  0.5129
 5925ntf    cn132161   5.368   5.671   6.990  0.1496  0.1692  0.3999
 5925ntf    sn232162   5.320   5.539   7.106 -0.4857  0.0751  0.0323
 5925ntf    nn332163   5.319   5.399   7.034  0.0000  0.1903 -0.2028
 5925ntf    sn232164   5.429   5.288   7.042 -0.0392  0.1657  0.0264
 5925ntf    cn132165   5.416   5.210   6.877  0.2538  0.3286 -0.0734
 5925ntf    fn432166   5.350   5.795   7.032 -0.5106  0.2687 -0.1510
 5925ntf    fn432167   5.494   5.658   6.952 -0.0618  0.5083 -0.4429
 5925ntf    fn432168   5.302   5.663   6.876  0.3151 -0.2041  0.3291
 5925ntf    on532169   5.414   5.549   7.215 -0.4480 -0.3823  0.0431
 5925ntf    on532170   5.186   5.582   7.137 -0.6639 -0.2300 -0.2973
 5925ntf    on532171   5.390   5.178   7.127  0.5912  0.0873  0.2166
 5925ntf    on532172   5.567   5.327   7.035 -0.0578  0.2662  0.2132
 5925ntf    fn432173   5.535   5.159   6.850  0.1697  0.2802 -0.3543
 5925ntf    fn432174   5.327   5.113   6.881  0.1577  0.4273  0.2687
 5925ntf    fn432175   5.390   5.296   6.779  0.5547  0.0679 -0.3828
 5926ntf    cn132176   7.013   4.101   2.580  0.1003 -0.5052  0.1254
 5926ntf    sn232177   6.874   3.984   2.587 -0.3016 -0.0292  0.0763
 5926ntf    nn332178   6.919   3.869   2.683  0.2600  0.4502  0.3881
 5926ntf    sn232179   6.823   3.806   2.790  0.0348  0.1341 -0.0000
 5926ntf    cn132180   6.821   3.933   2.920  0.1324 -0.0790  0.2116
 5926ntf    fn432181   6.998   4.193   2.487 -0.2942 -0.6403  0.0546
 5926ntf    fn432182   7.019   4.164   2.696 -0.1407  0.7655 -0.5385
 5926ntf    fn432183   7.127   4.035   2.562  0.0437 -0.4990 -0.2495
 5926ntf    on532184   6.757   4.064   2.618  0.3441  0.7352  0.5686
 5926ntf    on532185   6.880   3.931   2.453 -0.2981 -0.1096  0.1084
 5926ntf    on532186   6.879   3.693   2.859  0.7601  0.4812 -0.0074
 5926ntf    on532187   6.686   3.789   2.747  0.1111  0.0404 -0.2057
 5926ntf    fn432188   6.940   3.973   2.960  0.2513  0.0966 -0.3026
 5926ntf    fn432189   6.759   4.046   2.886  0.3058  0.0401  0.2927
 5926ntf    fn432190   6.767   3.881   3.029 -0.1504  0.3079  0.2618
 5927ntf    cn132191   7.505   5.251   1.240 -0.1143  0.0662 -0.1702
 5927ntf    sn232192   7.637   5.351   1.166  0.0875 -0.1737 -0.1358
 5927ntf    nn332193   7.739   5.350   1.286 -0.0796 -0.0911  0.0061
 5927ntf    sn232194   7.730   5.445   1.411 -0.0609 -0.0686 -0.0100
 5927ntf    cn132195   7.768   5.330   1.546  0.1330  0.4091  0.3433
 5927ntf    fn432196   7.521   5.124   1.206  0.0959  0.0704 -0.0841
 5927ntf    fn432197   7.498   5.261   1.372 -0.6246  0.1829 -0.2035
 5927ntf    fn432198   7.383   5.284   1.200 -0.2302  0.1807  0.2783
 5927ntf    on532199   7.692   5.259   1.070 -0.1769  0.0655 -0.5176
 5927ntf    on532200   7.581   5.479   1.130  0.3021  0.0491  0.3057
 5927ntf    on532201   7.603   5.499   1.452  0.0150  0.1351 -0.0420
 5927ntf    on532202   7.844   5.533   1.423 -0.4670  0.4045  0.3752
 5927ntf    fn432203   7.891   5.281   1.542  0.0799  0.3063  0.0097
 5927ntf    fn432204   7.751   5.382   1.667  0.2688 -0.0219  0.5514
 5927ntf    fn432205   7.680   5.232   1.539  0.3632  0.1595  0.8536
 5928ntf    cn132206   5.735   6.003   0.228 -0.0450  0.4771 -0.0383
 5928ntf    sn232207   5.832   5.951   0.373 -0.0704 -0.1607 -0.2477
 5928ntf    nn332208   5.753   5.825   0.421 -0.3804  0.0274 -0.2650
 5928ntf    sn232209   5.630   5.842   0.518  0.0081 -0.1986  0.2713
 5928ntf    cn132210   5.706   5.841   0.684  0.0840 -0.0416  0.2385
 5928ntf    fn432211   5.608   6.012   0.265 -0.1922  0.6642 -0.5857
 5928ntf    fn432212   5.768   6.119   0.173 -0.3407  0.7346  0.3160
 5928ntf    fn432213   5.741   5.910   0.135  0.1005  0.2183  0.2279
 5928ntf    on532214   5.958   5.921   0.310  0.0854  0.3905 -0.2038
 5928ntf    on532215   5.824   6.065   0.461  0.6827 -0.1685 -0.1579
 5928ntf    on532216   5.551   5.722   0.515 -0.0903 -0.1196 -0.4893
 5928ntf    on532217   5.556   5.966   0.513 -0.2132 -0.3505 -0.1966
 5928ntf    fn432218   5.761   5.723   0.707  0.5238  0.0777 -0.1836
 5928ntf    fn432219   5.808   5.922   0.702 -0.3038  0.3207  0.8152
 5928ntf    fn432220   5.623   5.865   0.784 -0.1919  0.1129 -0.0238
 5929ntf    cn132221   5.882   2.509   7.355  0.1171 -0.2546  0.2657
 5929ntf    sn232222   5.997   2.645   7.392 -0.0005 -0.0544 -0.0962
 5929ntf    nn332223   6.038   2.694   7.249  0.0591 -0.0527 -0.0789
 5929ntf    sn232224   6.160   2.642   7.166 -0.0424 -0.2830 -0.0838
 5929ntf    cn132225   6.150   2.753   7.023 -0.3269 -0.3123 -0.0862
 5929ntf    fn432226   5.853   2.440   7.464 -0.9046 -0.0087  0.1615
 5929ntf    fn432227   5.769   2.544   7.294  0.2356  0.3886  0.4057
 5929ntf    fn432228   5.940   2.418   7.279 -0.6494 -0.7401  0.2415
 5929ntf    on532229   5.911   2.740   7.459  0.1649 -0.4714  0.7210
 5929ntf    on532230   6.092   2.580   7.479  0.1644  0.7984  0.3636
 5929ntf    on532231   6.132   2.513   7.108  0.0021 -0.3898  0.1287
 5929ntf    on532232   6.292   2.671   7.219 -0.1776  0.5519 -0.1930
 5929ntf    fn432233   6.247   2.741   6.934  0.1791 -0.6274  0.5001
 5929ntf    fn432234   6.039   2.739   6.953 -0.4983  0.2384  0.0761
 5929ntf    fn432235   6.159   2.880   7.058  0.3243 -0.3795 -0.0024
 5930ntf    cn132236   4.413   2.962   4.820 -0.1984  0.0733  0.2426
 5930ntf    sn232237   4.526   2.837   4.750 -0.1273  0.4117 -0.2466
 5930ntf    nn332238   4.488   2.731   4.860  0.4095 -0.2458 -0.6921
 5930ntf    sn232239   4.496   2.576   4.883  0.2211 -0.1275  0.1761
 5930ntf    cn132240   4.336   2.510   4.827  0.5376 -0.5683 -0.2074
 5930ntf    fn432241   4.285   2.930   4.810 -0.0503 -0.5524  0.2792
 5930ntf    fn432242   4.436   2.987   4.948  0.5110 -0.0340  0.1393
 5930ntf    fn432243   4.415   3.084   4.771  0.5003 -0.0515 -0.0546
 5930ntf    on532244   4.485   2.806   4.615 -0.4926 -0.0622 -0.0273
 5930ntf    on532245   4.655   2.897   4.774  0.3238 -0.7854  0.3945
 5930ntf    on532246   4.501   2.534   5.021 -0.6101 -0.2850  0.1652
 5930ntf    on532247   4.587   2.503   4.799 -0.3964 -0.4663 -0.2014
 5930ntf    fn432248   4.332   2.379   4.809  0.2470 -0.5589 -0.2101
 5930ntf    fn432249   4.239   2.533   4.914  0.2937 -0.2088 -0.5742
 5930ntf    fn432250   4.303   2.566   4.712  0.6520 -0.1857 -0.0563
 5931ntf    cn132251   7.072   1.926   5.372  0.0242 -0.4218 -0.2631
 5931ntf    sn232252   7.119   2.058   5.255 -0.0262  0.0484  0.2423
 5931ntf    nn332253   7.216   2.139   5.347  1.1588 -0.7149 -0.3191
 5931ntf    sn232254   7.322   2.250   5.311  0.4206  0.0862 -0.0543
 5931ntf    cn132255   7.240   2.400   5.372  0.1319 -0.1820  0.2227
 5931ntf    fn432256   6.994   1.971   5.469  0.5647 -0.9024  0.4012
 5931ntf    fn432257   6.992   1.840   5.311 -0.1623 -0.3979 -0.0530
 5931ntf    fn432258   7.175   1.864   5.427  0.2182  0.2389  0.1247
 5931ntf    on532259   7.182   1.982   5.150  0.7001 -0.5804  1.1216
 5931ntf    on532260   6.995   2.128   5.232 -0.1211 -0.3127 -0.3720
 5931ntf    on532261   7.345   2.269   5.170 -0.0983  0.0309 -0.1492
 5931ntf    on532262   7.441   2.241   5.392  0.2524 -0.0784  0.1780
 5931ntf    fn432263   7.220   2.385   5.502  0.2883 -0.8398  0.1732
 5931ntf    fn432264   7.308   2.513   5.357 -0.1970  0.0351  0.3586
 5931ntf    fn432265   7.129   2.411   5.301  0.3837 -0.3113 -0.1943
 5932ntf    cn132266   3.117   7.549   1.185  0.2020  0.1155  0.3350
 5932ntf    sn232267   3.113   7.588   1.363 -0.0394  0.2514  0.3003
 5932ntf    nn332268   3.264   7.591   1.404  0.1838 -0.1987 -0.4727
 5932ntf    sn232269   3.371   7.701   1.371  0.2008 -0.1652 -0.3054
 5932ntf    cn132270   3.516   7.614   1.304  0.0718 -0.5348 -0.1030
 5932ntf    fn432271   3.162   7.644   1.104 -0.0607  0.0358  0.0960
 5932ntf    fn432272   3.175   7.433   1.161  0.3292  0.2404  0.0330
 5932ntf    fn432273   2.992   7.530   1.148  0.5551 -0.2905 -0.6762
 5932ntf    on532274   3.024   7.702   1.367  0.0098  0.3065 -0.1341
 5932ntf    on532275   3.050   7.469   1.416  0.1059  0.1547  0.2567
 5932ntf    on532276   3.415   7.767   1.492  0.1616 -0.1399 -0.3051
 5932ntf    on532277   3.329   7.788   1.264 -0.1253  0.1446  0.0695
 5932ntf    fn432278   3.481   7.535   1.204  0.0563 -0.1195 -0.4249
 5932ntf    fn432279   3.602   7.700   1.254 -0.1777 -0.4668 -0.4196
 5932ntf    fn432280   3.579   7.537   1.391  0.0553 -0.4988 -0.0591
 5933ntf    cn132281   3.540   0.121   2.982 -0.1768  0.3078  0.1647
 5933ntf    sn232282   3.376   0.045   3.002 -0.1498  0.2065 -0.0027
 5933ntf    nn332283   3.294   0.137   2.905 -0.2858  0.1067  0.0172
 5933ntf    sn232284   3.154   0.129   2.835 -0.2958 -0.0330  0.0549
 5933ntf    cn132285   3.204   0.126   2.661  0.0232  0.1556  0.1441
 5933ntf    fn432286   3.637   0.066   3.052 -0.2988 -0.4393 -0.2474
 5933ntf    fn432287   3.577   0.091   2.859  0.0529  0.4036  0.2111
 5933ntf    fn432288   3.531   0.251   3.008  0.8584  0.4305 -0.0670
 5933ntf    on532289   3.392  -0.090   2.952  0.9701  0.3129  0.0366
 5933ntf    on532290   3.345   0.069   3.140  0.0221 -0.0500  0.0821
 5933ntf    on532291   3.072   0.247   2.851 -0.1296  0.1180 -0.2041
 5933ntf    on532292   3.081   0.009   2.870  0.0396 -0.1131  0.4871
 5933ntf    fn432293   3.332   0.092   2.648 -0.0413 -0.0510  0.0515
 5933ntf    fn432294   3.136   0.050   2.577 -0.0132  0.0388  0.2810
 5933ntf    fn432295   3.188   0.247   2.609  0.8157  0.4441  0.5552
 5934ntf    cn132296   6.285   7.103   0.829 -0.3250  0.2798 -0.0470
 5934ntf    sn232297   6.421   6.993   0.780 -0.3839  0.0565  0.2891
 5934ntf    nn332298   6.374   6.844   0.794 -0.0613 -0.1008 -0.2392
 5934ntf    sn232299   6.468   6.724   0.828 -0.0012 -0.0412 -0.1959
 5934ntf    cn132300   6.466   6.640   0.667  0.1494 -0.0615 -0.1873
 5934ntf    fn432301   6.185   7.108   0.743 -0.5145  0.2628  0.1725
 5934ntf    fn432302   6.239   7.057   0.944  0.0018 -0.1174 -0.0712
 5934ntf    fn432303   6.325   7.228   0.845  0.3193  0.1123 -0.2906
 5934ntf    on532304   6.434   7.016   0.638 -0.6306 -0.6753  0.1430
 5934ntf    on532305   6.521   7.040   0.873 -0.1803  0.1209  0.0390
 5934ntf    on532306   6.408   6.624   0.914  0.2622 -0.0284  0.0054
 5934ntf    on532307   6.608   6.758   0.839 -0.1513  0.4054  0.4200
 5934ntf    fn432308   6.575   6.568   0.648  0.2372  0.1551 -0.5211
 5934ntf    fn432309   6.364   6.558   0.654 -0.2275  0.4212 -0.3039
 5934ntf    fn432310   6.457   6.725   0.566  0.1452 -0.0770 -0.1995
 5935ntf    cn132311   4.297   3.926   6.803  0.0414  0.1634  0.3275
 5935ntf    sn232312   4.352   3.755   6.778 -0.0727  0.1914 -0.1175
 5935ntf    nn332313   4.246   3.694   6.681 -0.3623 -0.1694  0.4201
 5935ntf    sn232314   4.260   3.673   6.526 -0.0092 -0.0550  0.4376
 5935ntf    cn132315   4.390   3.546   6.516  0.0444  0.0297  0.0087
 5935ntf    fn432316   4.247   3.984   6.696  0.4166 -0.4058 -0.1599
 5935ntf    fn432317   4.202   3.926   6.896 -0.2514 -0.0054  0.0270
 5935ntf    fn432318   4.382   4.012   6.858  0.3832 -0.0424  0.1222
 5935ntf    on532319   4.488   3.772   6.734  0.0259  0.5354  0.3066
 5935ntf    on532320   4.323   3.705   6.910  0.2002  0.2217 -0.0441
 5935ntf    on532321   4.316   3.784   6.451 -0.0978 -0.6045 -0.4577
 5935ntf    on532322   4.151   3.604   6.462  0.4674 -0.0156 -0.4377
 5935ntf    fn432323   4.370   3.452   6.606 -0.0944 -0.0709 -0.1264
 5935ntf    fn432324   4.392   3.481   6.400  0.8330 -0.0754  0.0808
 5935ntf    fn432325   4.512   3.591   6.539 -0.1138  0.1475  0.6357
 5936ntf    cn132326   0.794   0.647   2.636 -0.5184  0.2314  0.4880
 5936ntf    sn232327   0.873   0.593   2.791  0.1907 -0.3508 -0.0671
 5936ntf    nn332328   0.979   0.493   2.733 -0.0455 -0.5627 -0.1332
 5936ntf    sn232329   1.123   0.536   2.686 -0.2647 -0.1454 -0.4262
 5936ntf    cn132330   1.106   0.514   2.507 -0.1684 -0.1345 -0.4369
 5936ntf    fn432331   0.701   0.738   2.658 -0.4906  0.3021  0.3088
 5936ntf    fn432332   0.886   0.696   2.555 -0.1515 -0.0846  0.7077
 5936ntf    fn432333   0.736   0.543   2.579  0.5714 -0.3341  0.3842
 5936ntf    on532334   0.905   0.724   2.844  0.3137 -0.1781 -0.5608
 5936ntf    on532335   0.769   0.522   2.860 -0.1793 -0.3686 -0.6434
 5936ntf    on532336   1.216   0.430   2.715  0.3263  0.5937  0.4614
 5936ntf    on532337   1.165   0.672   2.710 -0.3105 -0.1697 -0.2053
 5936ntf    fn432338   1.129   0.388   2.475  0.4005  0.0636 -0.8241
 5936ntf    fn432339   0.986   0.546   2.460 -0.4282  0.1151  0.3759
 5936ntf    fn432340   1.197   0.588   2.445  0.2737 -0.1604  0.1744
 5937ntf    cn132341   3.707   7.019   1.227  0.2797  0.1040 -0.3705
 5937ntf    sn232342   3.692   6.915   1.079 -0.0521  0.1031 -0.3370
 5937ntf    nn332343   3.598   6.995   0.982  0.0791 -0.2787 -0.7824
 5937ntf    sn232344   3.633   7.095   0.866  0.0602  0.7441  0.0795
 5937ntf    cn132345   3.532   7.229   0.936 -0.4954  0.1029  0.5217
 5937ntf    fn432346   3.594   7.029   1.294  0.2216  0.5249 -0.5336
 5937ntf    fn432347   3.792   6.968   1.316  0.0543 -0.1453 -0.2961
 5937ntf    fn432348   3.760   7.138   1.204  0.2779  0.1200 -0.2936
 5937ntf    on532349   3.827   6.889   1.034  0.4712  0.5546  0.9330
 5937ntf    on532350   3.616   6.798   1.118 -0.1716  0.1831 -0.3321
 5937ntf    on532351   3.566   7.069   0.741  0.1270 -0.1960  0.2278
 5937ntf    on532352   3.768   7.143   0.862  0.5109 -0.4408  0.5414
 5937ntf    fn432353   3.506   7.326   0.850  0.0441 -0.5003 -0.3427
 5937ntf    fn432354   3.418   7.192   0.992 -0.2479  0.1366  1.0484
 5937ntf    fn432355   3.604   7.287   1.030  0.4113  0.4017 -0.3386
 5938ntf    cn132356   2.339   0.082   2.316  0.1751  0.1016 -0.2276
 5938ntf    sn232357   2.390   0.075   2.491 -0.3451 -0.1288 -0.0843
 5938ntf    nn332358   2.295  -0.036   2.548  0.2096 -0.6311 -0.1337
 5938ntf    sn232359   2.138  -0.028   2.552  0.2547  0.2811 -0.0431
 5938ntf    cn132360   2.112  -0.013   2.732  0.2032  0.0042 -0.0268
 5938ntf    fn432361   2.278  -0.030   2.284  0.0702  0.2701 -0.6209
 5938ntf    fn432362   2.251   0.178   2.291 -0.4261 -0.4155 -0.1139
 5938ntf    fn432363   2.447   0.094   2.240 -0.1562  0.0101 -0.7113
 5938ntf    on532364   2.527   0.031   2.493 -0.2960  0.0289  0.0678
 5938ntf    on532365   2.364   0.207   2.544 -0.6601  0.0126 -0.5749
 5938ntf    on532366   2.074  -0.155   2.528 -0.0860  0.4446 -0.0045
 5938ntf    on532367   2.078   0.093   2.503 -0.4443  0.0841  0.3093
 5938ntf    fn432368   2.129  -0.133   2.785 -0.1912  0.0818  0.2809
 5938ntf    fn432369   2.199   0.069   2.789  0.2311  0.0291 -0.1043
 5938ntf    fn432370   1.994   0.031   2.773  0.4865 -0.1408  0.9489
 5939ntf    cn132371   7.572   6.760   3.905  0.4784 -0.6177 -0.4210
 5939ntf    sn232372   7.648   6.863   3.777  0.5342 -0.2671 -0.1084
 5939ntf    nn332373   7.634   7.001   3.851  0.4647 -0.1797 -0.2821
 5939ntf    sn232374   7.510   7.094   3.878  0.2288 -0.4639 -0.3891
 5939ntf    cn132375   7.585   7.245   3.945 -0.0093 -0.5241  0.0141
 5939ntf    fn432376   7.633   6.774   4.022 -0.1969 -0.1049 -0.1214
 5939ntf    fn432377   7.447   6.789   3.937  0.6247 -0.2551 -0.1653
 5939ntf    fn432378   7.570   6.630   3.883 -0.3242 -0.6279 -0.3336
 5939ntf    on532379   7.784   6.815   3.779  0.4531 -0.5174 -0.4671
 5939ntf    on532380   7.571   6.855   3.655 -0.0394  0.4261  0.1971
 5939ntf    on532381   7.429   7.047   3.987  0.2058 -0.2838 -0.3296
 5939ntf    on532382   7.443   7.146   3.761 -0.4916 -0.0543  0.1977
 5939ntf    fn432383   7.662   7.308   3.858 -0.2189  0.1309  0.2949
 5939ntf    fn432384   7.498   7.337   3.983  0.3100 -0.2933  0.1908
 5939ntf    fn432385   7.668   7.219   4.044  0.1145 -0.3134 -0.0323
 5940ntf    cn132386   1.142   5.696   5.490  0.2079  0.0152  0.2156
 5940ntf    sn232387   1.012   5.608   5.400  0.3847  0.3060 -0.3299
 5940ntf    nn332388   1.074   5.495   5.310 -0.0375 -0.4769  0.3481
 5940ntf    sn232389   0.995   5.409   5.206  0.0118  0.0482 -0.1288
 5940ntf    cn132390   1.063   5.462   5.046  0.2854  0.0260 -0.0210
 5940ntf    fn432391   1.233   5.759   5.417  0.4605  0.5009  0.9384
 5940ntf    fn432392   1.101   5.782   5.583  0.4884  0.2871  0.0906
 5940ntf    fn432393   1.217   5.611   5.559  0.6578  0.3313  0.1291
 5940ntf    on532394   0.940   5.562   5.516 -0.2586  0.0608 -0.8159
 5940ntf    on532395   0.948   5.710   5.320 -0.4432 -0.0665 -0.1595
 5940ntf    on532396   0.854   5.434   5.189  0.0368  0.2975  0.0311
 5940ntf    on532397   1.034   5.271   5.221 -0.8707 -0.1697  0.1860
 5940ntf    fn432398   0.985   5.417   4.949  0.2904 -0.0807  0.0250
 5940ntf    fn432399   1.089   5.592   5.047 -0.4878  0.2052 -1.1375
 5940ntf    fn432400   1.181   5.404   5.036  0.3179  0.0212  0.3700
   7.59282   7.59282   7.59282
