Converted from moscito
 2376
    1SOL     ow    1   1.711   1.076   3.812  0.2403  0.4985 -0.0402
    1SOL     hw    2   1.653   1.150   3.795  1.2877  1.2764 -0.4095
    1SOL     hw    3   1.792   1.099   3.766  0.3479 -1.2374 -0.7902
    1SOL     vw    4   1.714   1.089   3.804  0.3927  0.3721 -0.1880
    2SOL     ow    5   0.101   1.302   0.688 -0.4601  0.3249  0.3833
    2SOL     hw    6   0.195   1.303   0.671 -0.2027  0.7698  1.7209
    2SOL     hw    7   0.092   1.273   0.778 -1.3670  3.2464  1.3720
    2SOL     vw    8   0.112   1.298   0.698 -0.5458  0.7690  0.6902
    3SOL     ow    9   0.386   0.595   6.253  0.3284  0.0010  0.2067
    3SOL     hw   10   0.321   0.556   6.311  0.0944  0.8855  0.5563
    3SOL     hw   11   0.345   0.676   6.221  0.6426 -0.2325 -0.8211
    3SOL     vw   12   0.372   0.601   6.257  0.3390  0.0868  0.1175
    4SOL     ow   13   2.326   0.279   1.681 -0.3801  0.2166 -0.3605
    4SOL     hw   14   2.332   0.349   1.746 -1.7415 -0.7536  0.8653
    4SOL     hw   15   2.405   0.227   1.693 -0.1308  0.6260 -0.2045
    4SOL     vw   16   2.337   0.282   1.691 -0.5268  0.1426 -0.1782
    5SOL     ow   17   1.153   0.798   6.174  0.2516 -0.2801  0.5120
    5SOL     hw   18   1.132   0.831   6.261 -0.2425  1.5857 -0.2552
    5SOL     hw   19   1.070   0.765   6.139 -0.1878  1.5006 -0.2371
    5SOL     vw   20   1.139   0.798   6.181  0.1285  0.2010  0.3121
    6SOL     ow   21   0.120   0.835   0.012  0.1174  0.5229 -0.2531
    6SOL     hw   22   0.175   0.885  -0.048  1.4661 -1.8061 -1.1439
    6SOL     hw   23   0.179   0.814   0.085 -0.3194  0.0366 -0.0354
    6SOL     vw   24   0.135   0.838   0.014  0.2377  0.1515 -0.3421
    7SOL     ow   25   0.418   1.768   4.109 -0.5818 -0.0846 -0.1333
    7SOL     hw   26   0.340   1.748   4.160  0.4185  0.6972  1.8069
    7SOL     hw   27   0.490   1.728   4.158  0.1505 -2.3226 -2.7857
    7SOL     vw   28   0.417   1.760   4.122 -0.3532 -0.2767 -0.2275
    8SOL     ow   29   0.874   2.320   1.004  0.0727 -0.0413  0.4963
    8SOL     hw   30   0.913   2.289   1.086  0.3417  0.9312  0.7483
    8SOL     hw   31   0.830   2.401   1.028  4.8247  3.4875 -1.2273
    8SOL     vw   32   0.873   2.326   1.018  0.7352  0.5527  0.3021
    9SOL     ow   33   0.753   2.077   2.206  0.2194  0.6713 -0.5176
    9SOL     hw   34   0.812   2.093   2.280  0.7104  1.1722 -1.0185
    9SOL     hw   35   0.805   2.097   2.128 -0.7382  1.5753 -0.9489
    9SOL     vw   36   0.767   2.082   2.206  0.1578  0.8566 -0.6406
   10SOL     ow   37   0.301   1.927   2.462  0.0711  0.4501 -0.7655
   10SOL     hw   38   0.251   1.978   2.399 -1.1997 -0.8520 -0.8554
   10SOL     hw   39   0.293   1.836   2.432  1.7982  0.0986 -0.2937
   10SOL     vw   40   0.293   1.922   2.450  0.1313  0.2320 -0.7150
   11SOL     ow   41   0.063   0.225   4.894  0.3785 -0.2608 -0.0862
   11SOL     hw   42   0.098   0.211   4.982  1.0643 -1.1706 -0.4796
   11SOL     hw   43   0.090   0.314   4.871 -0.0461  0.0857  0.7187
   11SOL     vw   44   0.071   0.235   4.903  0.4130 -0.3351 -0.0319
   12SOL     ow   45   0.796   1.287   0.968  0.5332 -0.2871  0.0395
   12SOL     hw   46   0.740   1.282   0.891 -2.4953  2.3166  1.8448
   12SOL     hw   47   0.854   1.362   0.951  0.7328 -0.4942 -0.1992
   12SOL     vw   48   0.797   1.296   0.956  0.1600  0.0291  0.2462
   13SOL     ow   49   1.568   0.123   5.549  0.0007  0.3740 -0.0315
   13SOL     hw   50   1.595   0.206   5.588  1.4041 -0.5440  1.0606
   13SOL     hw   51   1.507   0.085   5.613  2.6548 -1.3444  1.6974
   13SOL     vw   52   1.563   0.129   5.563  0.5360  0.0262  0.3407
   14SOL     ow   53   0.197   1.954   3.843  0.3696  0.4541 -0.5782
   14SOL     hw   54   0.247   1.977   3.922  0.3677 -0.3442 -0.3362
   14SOL     hw   55   0.105   1.958   3.870  0.4111 -1.8784  0.0737
   14SOL     vw   56   0.192   1.958   3.857  0.3748  0.0410 -0.4601
   15SOL     ow   57   2.328   1.493   0.905  0.4514  0.0753  1.0966
   15SOL     hw   58   2.372   1.443   0.975 -0.7174 -1.8043  0.5702
   15SOL     hw   59   2.327   1.583   0.937  1.7009 -0.3955  2.6074
   15SOL     vw   60   2.334   1.498   0.918  0.4622 -0.2348  1.2265
   16SOL     ow   61   2.184   1.159   2.627 -0.4611 -0.2665  0.2803
   16SOL     hw   62   2.117   1.223   2.603 -0.6411 -0.8294 -0.7702
   16SOL     hw   63   2.138   1.076   2.632 -0.0033 -0.5209  0.3875
   16SOL     vw   64   2.169   1.157   2.624 -0.4244 -0.3744  0.1558
   17SOL     ow   65   2.309   0.033   6.064 -0.2263 -0.1695  0.0298
   17SOL     hw   66   2.352   0.106   6.019 -0.4534  0.3009  0.5697
   17SOL     hw   67   2.291  -0.030   5.995  1.8995 -0.6656 -0.1251
   17SOL     vw   68   2.312   0.035   6.049  0.0243 -0.1729  0.0806
   18SOL     ow   69   0.733   0.721   3.795  0.1612 -0.0600 -1.0209
   18SOL     hw   70   0.815   0.673   3.789  0.1194 -0.3778  0.4507
   18SOL     hw   71   0.739   0.767   3.879 -0.5983  1.0003 -1.5281
   18SOL     vw   72   0.745   0.721   3.805  0.0555  0.0380 -0.8937
   19SOL     ow   73   1.963   0.243   0.874  0.0255 -0.2099 -0.0181
   19SOL     hw   74   1.918   0.256   0.791 -0.6396  0.4569  0.4393
   19SOL     hw   75   2.053   0.224   0.849 -0.1194  0.1932 -0.8919
   19SOL     vw   76   1.969   0.242   0.859 -0.0814 -0.0688 -0.0730
   20SOL     ow   77   2.358   0.921   1.902  0.1734  0.9999 -0.5093
   20SOL     hw   78   2.282   0.934   1.958 -0.6339 -0.5578 -1.1702
   20SOL     hw   79   2.323   0.881   1.822  1.8180 -1.4237 -0.1547
   20SOL     vw   80   2.343   0.917   1.899  0.2838  0.4746 -0.5497
   21SOL     ow   81   0.268   0.777   4.340  0.4006  0.2275  0.6347
   21SOL     hw   82   0.293   0.704   4.396  0.1524  1.2645  2.1553
   21SOL     hw   83   0.173   0.782   4.349 -0.3076 -2.1897 -3.2398
   21SOL     vw   84   0.259   0.768   4.349  0.2744  0.0454  0.3238
   22SOL     ow   85   0.629   0.346   2.136  0.2404  0.5341 -0.8145
   22SOL     hw   86   0.639   0.360   2.042 -0.3963 -2.1219 -1.3753
   22SOL     hw   87   0.693   0.278   2.157 -0.2085  0.4840  0.4674
   22SOL     vw   88   0.639   0.339   2.126  0.0972  0.1771 -0.7195
   23SOL     ow   89   0.238   1.670   2.438 -0.5085 -0.3838  0.1944
   23SOL     hw   90   0.201   1.674   2.350  2.0919 -0.1473 -0.9604
   23SOL     hw   91   0.320   1.622   2.429  0.9262  1.4856  2.0309
   23SOL     vw   92   0.244   1.664   2.425  0.0239 -0.1060  0.2843
   24SOL     ow   93   0.661   0.728   6.124  0.3382  0.5177  0.0471
   24SOL     hw   94   0.639   0.789   6.053 -0.7823 -0.2978 -0.3340
   24SOL     hw   95   0.639   0.776   6.204  0.9233  1.1747 -0.1798
   24SOL     vw   96   0.655   0.743   6.125  0.2676  0.4968 -0.0329
   25SOL     ow   97   0.201   2.078   2.293 -0.7551 -0.2769  0.3371
   25SOL     hw   98   0.129   2.033   2.248 -0.5047 -0.3127 -0.0295
   25SOL     hw   99   0.157   2.142   2.350 -1.0743 -0.1842 -0.0072
   25SOL     vw  100   0.185   2.081   2.294 -0.7642 -0.2694  0.2433
   26SOL     ow  101   1.253   2.097   5.105 -0.5545 -0.7607 -0.0374
   26SOL     hw  102   1.259   2.093   5.201 -0.6118 -0.2836 -0.0095
   26SOL     hw  103   1.233   2.189   5.086  0.3885 -0.6414 -0.5501
   26SOL     vw  104   1.251   2.109   5.115 -0.4376 -0.6820 -0.1016
   27SOL     ow  105   0.002   1.902   0.272 -0.1502 -0.1656 -0.5884
   27SOL     hw  106  -0.081   1.911   0.318  0.3576 -0.2265  0.3735
   27SOL     hw  107  -0.022   1.890   0.181 -1.2023 -0.3442 -0.3017
   27SOL     vw  108  -0.012   1.902   0.266 -0.2221 -0.1972 -0.4237
   28SOL     ow  109   0.777   1.525   1.169 -0.1569  0.4399 -0.0704
   28SOL     hw  110   0.737   1.606   1.135  1.4791  1.3651  0.1386
   28SOL     hw  111   0.854   1.554   1.217 -0.1553 -1.1833  0.9917
   28SOL     vw  112   0.782   1.539   1.171  0.0592  0.3479  0.0973
   29SOL     ow  113   0.506   2.065   2.379 -0.1463  0.2065 -0.3512
   29SOL     hw  114   0.575   2.061   2.445  1.1127  1.0246 -1.5699
   29SOL     hw  115   0.444   1.998   2.406  0.9536 -0.3381  0.9650
   29SOL     vw  116   0.507   2.056   2.391  0.1649  0.2426 -0.3384
   30SOL     ow  117   0.520   0.780   5.189  0.3267 -0.2428 -0.4367
   30SOL     hw  118   0.499   0.731   5.109  1.5742 -2.3499  0.4373
   30SOL     hw  119   0.569   0.718   5.243 -1.1020  0.8441  2.3223
   30SOL     vw  120   0.524   0.765   5.186  0.3028 -0.3774  0.0427
   31SOL     ow  121   2.045   1.910   3.903 -0.2747  0.0637  0.3342
   31SOL     hw  122   2.132   1.940   3.931 -0.1447  1.8481 -1.6845
   31SOL     hw  123   2.062   1.827   3.856  0.2034 -0.0797  0.7578
   31SOL     vw  124   2.059   1.903   3.900 -0.1944  0.2801  0.1237
   32SOL     ow  125   0.858   0.995   5.874 -0.5897  0.2450  0.5850
   32SOL     hw  126   0.849   1.067   5.811 -0.4938  0.8803  1.2724
   32SOL     hw  127   0.794   0.930   5.845  0.7351 -0.3192 -1.2586
   32SOL     vw  128   0.848   0.996   5.862 -0.4022  0.2544  0.4327
   33SOL     ow  129   0.649   1.160   5.981  0.1509 -0.3995  0.1388
   33SOL     hw  130   0.723   1.104   5.958  0.5712  0.7550 -1.4969
   33SOL     hw  131   0.572   1.104   5.970  0.7127 -1.4858  1.4290
   33SOL     vw  132   0.648   1.145   5.977  0.2805 -0.3905  0.0930
   34SOL     ow  133   1.992   1.172   0.927  0.2136  1.0972  0.2983
   34SOL     hw  134   1.970   1.169   0.833  1.0067  0.3643  0.1280
   34SOL     hw  135   1.939   1.102   0.966 -0.7975  1.9744  0.5683
   34SOL     vw  136   1.982   1.163   0.920  0.1848  1.1163  0.3114
   35SOL     ow  137   1.171   1.066   2.354  0.3947  0.5953  0.2968
   35SOL     hw  138   1.082   1.032   2.367  0.9817 -0.3206  2.2508
   35SOL     hw  139   1.220   0.993   2.318  0.3407  1.1618 -0.9698
   35SOL     vw  140   1.165   1.052   2.351  0.4650  0.5492  0.3875
   36SOL     ow  141   1.000   0.457   6.309  0.2505 -0.0414 -0.3880
   36SOL     hw  142   0.950   0.379   6.283  0.5921 -0.0603 -0.9949
   36SOL     hw  143   0.941   0.503   6.368 -0.0355 -0.6584 -0.1772
   36SOL     vw  144   0.985   0.453   6.313  0.2578 -0.1253 -0.4404
   37SOL     ow  145   0.164   0.486   6.390 -0.3531 -0.1943 -0.7687
   37SOL     hw  146   0.149   0.461   6.481 -1.1191  0.7728 -0.6076
   37SOL     hw  147   0.093   0.547   6.370  1.3622  1.8141 -1.1146
   37SOL     vw  148   0.153   0.491   6.399 -0.2279  0.1982 -0.7932
   38SOL     ow  149   1.071   0.516   1.513  0.1832  0.6563 -1.2180
   38SOL     hw  150   1.023   0.483   1.436  0.8898 -0.1142 -1.3410
   38SOL     hw  151   1.008   0.508   1.585  0.0078 -0.0665 -1.4329
   38SOL     vw  152   1.056   0.510   1.512  0.2533  0.4593 -1.2625
   39SOL     ow  153   1.446   0.494   2.823  0.1545 -0.4175  0.4387
   39SOL     hw  154   1.390   0.435   2.872 -1.1624  2.2366  2.4303
   39SOL     hw  155   1.445   0.575   2.874  1.7661  1.3622 -2.1123
   39SOL     vw  156   1.439   0.497   2.836  0.1934  0.1675  0.3648
   40SOL     ow  157   2.061   1.495   1.585  0.8152 -0.5834  0.1311
   40SOL     hw  158   2.110   1.554   1.642  0.6839 -1.4850  1.1950
   40SOL     hw  159   2.125   1.433   1.552  0.8804 -0.1034 -0.6876
   40SOL     vw  160   2.076   1.495   1.588  0.8066 -0.6390  0.1634
   41SOL     ow  161   0.203   1.567   0.735 -0.2853  0.4848 -0.5047
   41SOL     hw  162   0.266   1.558   0.663 -0.3495 -2.7180 -0.3367
   41SOL     hw  163   0.251   1.611   0.804  1.8137 -1.6098 -0.4828
   41SOL     vw  164   0.218   1.571   0.735 -0.0168 -0.2141 -0.4797
   42SOL     ow  165   2.293   2.004   3.995  0.2762 -0.0703  0.1136
   42SOL     hw  166   2.308   1.993   4.089 -5.2935  0.2394  1.4147
   42SOL     hw  167   2.265   2.095   3.986 -1.7555 -0.7578 -1.2389
   42SOL     vw  168   2.291   2.015   4.007 -0.7266 -0.1202  0.1068
   43SOL     ow  169   1.924   2.187   3.821 -0.1720  0.1660 -0.1316
   43SOL     hw  170   1.892   2.219   3.906  0.8893  0.3264  0.2239
   43SOL     hw  171   2.011   2.226   3.812  0.0430 -0.4721 -0.9356
   43SOL     vw  172   1.931   2.196   3.831 -0.0036  0.1030 -0.1909
   44SOL     ow  173   1.289   0.139   1.058 -0.2175 -0.0537 -0.6231
   44SOL     hw  174   1.285   0.058   1.008  1.5205  0.4604 -1.6685
   44SOL     hw  175   1.295   0.111   1.149 -3.4517 -1.0158 -0.5499
   44SOL     vw  176   1.289   0.125   1.063 -0.4148 -0.1128 -0.7513
   45SOL     ow  177   2.058   1.671   1.109 -0.1057 -0.2179 -0.1643
   45SOL     hw  178   2.010   1.739   1.157 -1.1117 -1.0783  0.0661
   45SOL     hw  179   2.148   1.704   1.108 -0.0750 -0.0073  2.1066
   45SOL     vw  180   2.064   1.685   1.115 -0.2342 -0.3037  0.1657
   46SOL     ow  181   1.624   1.728   5.821  0.3509 -0.4867  0.0168
   46SOL     hw  182   1.550   1.784   5.844 -0.7221 -1.8752  0.0393
   46SOL     hw  183   1.663   1.771   5.744 -0.5145  0.2201 -0.0454
   46SOL     vw  184   1.620   1.741   5.814  0.0951 -0.5767  0.0114
   47SOL     ow  185   0.992   0.123   4.264  0.5039 -0.0929 -0.0285
   47SOL     hw  186   0.941   0.143   4.185  1.0448 -0.8936 -0.5953
   47SOL     hw  187   1.055   0.056   4.236  0.0547 -1.1238  1.3158
   47SOL     vw  188   0.994   0.117   4.250  0.5160 -0.3345  0.0741
   48SOL     ow  189   0.196   1.684   3.918 -0.9616 -0.8418 -0.0351
   48SOL     hw  190   0.133   1.638   3.863 -2.9573  1.3388  0.2513
   48SOL     hw  191   0.144   1.751   3.963  1.2739 -0.0726  1.6010
   48SOL     vw  192   0.181   1.687   3.917 -0.9299 -0.4526  0.2185
   49SOL     ow  193   2.343   1.857   5.455 -0.5683  0.6484  0.4901
   49SOL     hw  194   2.378   1.770   5.475  1.0643  1.2860  0.5936
   49SOL     hw  195   2.337   1.900   5.540  0.7761  1.3633  0.2604
   49SOL     vw  196   2.347   1.851   5.469 -0.1755  0.8268  0.4735
   50SOL     ow  197   0.787   2.085   4.616  0.0253 -0.1409  0.1772
   50SOL     hw  198   0.843   2.034   4.558 -0.5581  0.4616 -0.9407
   50SOL     hw  199   0.807   2.176   4.595 -2.0312  0.1154 -0.9711
   50SOL     vw  200   0.797   2.090   4.606 -0.3230 -0.0277 -0.1218
   51SOL     ow  201   0.029   1.711   3.003 -0.0709 -0.2032 -0.4177
   51SOL     hw  202   0.082   1.676   3.074  1.6164 -1.5748 -2.2117
   51SOL     hw  203  -0.060   1.682   3.022  0.6727 -2.2799  0.1524
   51SOL     vw  204   0.024   1.703   3.015  0.2498 -0.6582 -0.5792
   52SOL     ow  205   1.568   0.875   3.324  0.1816  0.5844  0.0503
   52SOL     hw  206   1.630   0.945   3.341  1.2818 -0.4426  0.4313
   52SOL     hw  207   1.622   0.801   3.296 -0.8193 -0.4686  0.7956
   52SOL     vw  208   1.583   0.874   3.323  0.1947  0.3100  0.1990
   53SOL     ow  209   1.990   0.031   1.116  0.3698  0.2457 -0.2115
   53SOL     hw  210   1.985  -0.045   1.058  3.1591 -0.1080 -0.1164
   53SOL     hw  211   2.049   0.004   1.186  1.3611  2.4345 -0.1200
   53SOL     vw  212   1.997   0.018   1.118  0.8686  0.4878 -0.1869
   54SOL     ow  213   1.522   0.642   6.422  0.3946  1.1517  0.3980
   54SOL     hw  214   1.530   0.706   6.351  0.1639 -0.4583 -1.1246
   54SOL     hw  215   1.519   0.696   6.501 -1.6377  3.1562 -0.9188
   54SOL     vw  216   1.523   0.658   6.423  0.0960  1.2038  0.0231
   55SOL     ow  217   2.289   1.551   0.591  0.3588 -0.5279  0.1885
   55SOL     hw  218   2.274   1.643   0.613  3.1251 -0.1967  1.1095
   55SOL     hw  219   2.324   1.554   0.502 -0.1861 -0.7823 -0.0403
   55SOL     vw  220   2.292   1.564   0.582  0.6517 -0.5178  0.2798
   56SOL     ow  221   0.556   1.806   4.627 -0.1823 -0.3559 -0.0624
   56SOL     hw  222   0.492   1.766   4.568 -0.7258  1.4318 -0.7669
   56SOL     hw  223   0.522   1.788   4.715 -2.0187  1.0131 -0.4266
   56SOL     vw  224   0.543   1.798   4.631 -0.4963  0.0606 -0.2036
   57SOL     ow  225   0.047   2.288   4.860  0.0383  0.2252  0.1313
   57SOL     hw  226   0.121   2.255   4.910  0.3868  0.0198 -0.5033
   57SOL     hw  227  -0.029   2.240   4.894  0.2704  0.0762  0.4421
   57SOL     vw  228   0.047   2.278   4.871  0.1149  0.1783  0.0887
   58SOL     ow  229   0.145   2.152   0.257  0.9370  0.1351 -0.2043
   58SOL     hw  230   0.077   2.183   0.316  0.4287 -1.8839  0.3616
   58SOL     hw  231   0.166   2.227   0.202 -0.3192  1.3652  0.9311
   58SOL     vw  232   0.139   2.166   0.257  0.7042  0.0311  0.0202
   59SOL     ow  233   1.385   0.255   0.806  0.3063  0.0401  1.3089
   59SOL     hw  234   1.478   0.241   0.827  0.3429  1.0488  1.9284
   59SOL     hw  235   1.382   0.262   0.711  0.5918 -1.7488  1.1477
   59SOL     vw  236   1.397   0.254   0.797  0.3488 -0.0629  1.3693
   60SOL     ow  237   1.192   0.765   1.736 -0.1047 -0.2629 -0.1270
   60SOL     hw  238   1.120   0.804   1.686  2.1151  1.7855 -1.9566
   60SOL     hw  239   1.151   0.694   1.786 -3.4928  1.2743 -0.4571
   60SOL     vw  240   1.177   0.760   1.736 -0.2589  0.2102 -0.4120
   61SOL     ow  241   0.421   1.511   3.911  0.6087  0.5537  0.3013
   61SOL     hw  242   0.482   1.482   3.980 -2.1921  0.3664  2.9263
   61SOL     hw  243   0.373   1.432   3.888  0.6530  0.8950 -1.0147
   61SOL     vw  244   0.423   1.497   3.917  0.2450  0.5741  0.4740
   62SOL     ow  245   1.810   0.656   6.328 -0.0938  0.0630 -0.3339
   62SOL     hw  246   1.750   0.588   6.357  1.3614  0.2523  3.6663
   62SOL     hw  247   1.877   0.609   6.277  0.8711 -1.6352  2.3295
   62SOL     vw  248   1.811   0.641   6.325  0.2255 -0.1360  0.5453
   63SOL     ow  249   0.168   1.091   2.094  0.1451  0.2321 -0.2079
   63SOL     hw  250   0.086   1.088   2.143  0.0627 -0.3640 -0.3739
   63SOL     hw  251   0.215   1.167   2.129 -0.9286  1.2236 -0.8250
   63SOL     vw  252   0.163   1.101   2.105 -0.0074  0.2843 -0.3111
   64SOL     ow  253   1.832   1.005   6.360  0.1105 -0.0054 -0.6287
   64SOL     hw  254   1.836   1.044   6.273 -1.9767 -0.4583 -0.9907
   64SOL     hw  255   1.790   1.071   6.415 -1.0439 -0.7200 -0.6267
   64SOL     vw  256   1.827   1.018   6.356 -0.3172 -0.1594 -0.6764
   65SOL     ow  257   0.707   0.271   6.416 -0.1115 -0.0147 -0.2589
   65SOL     hw  258   0.772   0.231   6.358  0.9241 -1.7439  1.9006
   65SOL     hw  259   0.682   0.200   6.475 -1.4560  1.5050  1.0898
   65SOL     vw  260   0.713   0.256   6.417 -0.1523 -0.0424  0.2038
   66SOL     ow  261   1.405   1.030   4.412  0.4169 -0.1457  0.3194
   66SOL     hw  262   1.498   1.029   4.389  0.2908 -1.5313 -0.2085
   66SOL     hw  263   1.402   0.988   4.498  0.1497 -1.3901 -0.2791
   66SOL     vw  264   1.417   1.025   4.420  0.3650 -0.4927  0.1709
   67SOL     ow  265   2.094   0.294   2.569  0.5403  0.4604 -0.5666
   67SOL     hw  266   2.118   0.376   2.613 -2.7795  0.9086  0.6721
   67SOL     hw  267   2.090   0.229   2.640  2.0221 -0.5894 -1.3739
   67SOL     vw  268   2.097   0.296   2.584  0.2978  0.3810 -0.5097
   68SOL     ow  269   0.068   2.245   2.463 -0.6475  0.2845  0.0211
   68SOL     hw  270  -0.021   2.210   2.459 -0.2487 -0.9197  0.9685
   68SOL     hw  271   0.094   2.235   2.555  1.7052 -2.6827 -0.7974
   68SOL     vw  272   0.060   2.239   2.474 -0.2845 -0.2660  0.0381
   69SOL     ow  273   1.903   1.470   4.464 -0.2131 -0.8449 -0.4076
   69SOL     hw  274   1.997   1.453   4.471 -0.2337 -1.3903 -1.2751
   69SOL     hw  275   1.869   1.451   4.551  0.1191 -3.1011 -0.7048
   69SOL     vw  276   1.911   1.466   4.477 -0.1720 -1.2146 -0.5615
   70SOL     ow  277   1.331   1.368   0.646  1.1563  0.0633 -0.6203
   70SOL     hw  278   1.309   1.427   0.718  1.3121  0.3457 -0.8005
   70SOL     hw  279   1.284   1.287   0.665  0.8919  0.2680 -0.4025
   70SOL     vw  280   1.322   1.365   0.658  1.1420  0.1276 -0.6153
   71SOL     ow  281   0.314   0.202   3.325  0.2515  0.3025  0.7156
   71SOL     hw  282   0.272   0.210   3.411 -1.1255 -0.0218  0.0976
   71SOL     hw  283   0.407   0.215   3.343  0.1014 -0.5551  2.3853
   71SOL     vw  284   0.320   0.204   3.339  0.0500  0.1466  0.8543
   72SOL     ow  285   1.029   2.174   2.081  0.0873 -0.3137 -0.7841
   72SOL     hw  286   1.103   2.222   2.119  1.1710 -2.2598 -0.2680
   72SOL     hw  287   1.021   2.207   1.992  0.4065  1.1824 -0.2867
   72SOL     vw  288   1.038   2.185   2.074  0.2723 -0.3730 -0.6505
   73SOL     ow  289   2.047   0.683   4.707 -0.2161 -0.4992 -0.0735
   73SOL     hw  290   2.098   0.764   4.698 -1.4228  0.3473  0.4366
   73SOL     hw  291   2.076   0.628   4.634  1.2538  0.0380  0.0808
   73SOL     vw  292   2.058   0.687   4.696 -0.1813 -0.3166  0.0143
   74SOL     ow  293   0.537   1.330   1.058 -0.3949 -0.5373  0.5005
   74SOL     hw  294   0.463   1.271   1.074  0.1529 -1.8249 -1.3013
   74SOL     hw  295   0.529   1.353   0.965 -0.1576  1.6842  0.9819
   74SOL     vw  296   0.526   1.325   1.048 -0.2913 -0.4141  0.3262
   75SOL     ow  297   0.869   1.190   5.695 -0.2760  0.5443 -0.6265
   75SOL     hw  298   0.962   1.179   5.677 -0.2524 -1.3488  0.3779
   75SOL     hw  299   0.835   1.238   5.620  1.3845  0.6826 -1.3266
   75SOL     vw  300   0.877   1.195   5.683 -0.0538  0.3127 -0.5863
   76SOL     ow  301   0.235   2.101   3.619 -0.5645  0.1630  0.7411
   76SOL     hw  302   0.201   2.049   3.691 -1.1363 -1.2224 -0.4724
   76SOL     hw  303   0.222   2.046   3.542  2.3431  0.4907 -0.1207
   76SOL     vw  304   0.229   2.087   3.618 -0.2564  0.0234  0.4673
   77SOL     ow  305   2.165   1.369   1.211  0.4446  0.4269 -0.2876
   77SOL     hw  306   2.176   1.335   1.300 -0.9534 -0.6337 -0.4851
   77SOL     hw  307   2.193   1.298   1.154 -0.2926  0.4407 -0.6926
   77SOL     vw  308   2.170   1.355   1.215  0.1630  0.2888 -0.3670
   78SOL     ow  309   0.840   1.843   1.165  0.5020 -0.6757 -0.4985
   78SOL     hw  310   0.753   1.818   1.136 -1.8902  3.0413  2.5510
   78SOL     hw  311   0.874   1.765   1.210 -0.7037 -2.4921 -2.5332
   78SOL     vw  312   0.833   1.829   1.167  0.0273 -0.4249 -0.3645
   79SOL     ow  313   1.265   0.739   1.437  0.2348 -0.5297  0.1898
   79SOL     hw  314   1.235   0.820   1.396  0.5013 -0.5156  0.0260
   79SOL     hw  315   1.185   0.687   1.449  0.0098 -0.0888  0.6412
   79SOL     vw  316   1.250   0.742   1.433  0.2403 -0.4696  0.2278
   80SOL     ow  317   0.175   0.252   3.541  0.0660 -0.0532  0.1408
   80SOL     hw  318   0.161   0.168   3.584 -1.2964  0.5289  0.9045
   80SOL     hw  319   0.116   0.312   3.587  0.4409  1.1435 -0.8996
   80SOL     vw  320   0.165   0.249   3.553 -0.0643  0.1815  0.1042
   81SOL     ow  321   2.211   1.250   0.578 -0.1834  0.3014  0.6381
   81SOL     hw  322   2.205   1.159   0.549 -2.7820  0.7233 -0.3977
   81SOL     hw  323   2.299   1.257   0.617  0.0402 -2.6532  0.8978
   81SOL     vw  324   2.222   1.239   0.580 -0.4967 -0.0328  0.5357
   82SOL     ow  325   0.615   1.738   1.079  0.0542  0.1174 -0.2504
   82SOL     hw  326   0.564   1.783   1.012 -0.2161 -0.1330 -0.2153
   82SOL     hw  327   0.552   1.681   1.123  0.3897 -0.2884 -0.2901
   82SOL     vw  328   0.600   1.737   1.076  0.0628  0.0308 -0.2510
   83SOL     ow  329   2.191   0.120   0.805 -0.7408 -0.0852  0.3133
   83SOL     hw  330   2.249   0.094   0.732 -2.0019  0.4696 -0.9348
   83SOL     hw  331   2.128   0.049   0.813 -1.8679  0.7665 -0.5649
   83SOL     vw  332   2.191   0.107   0.796 -1.0560  0.1004  0.0328
   84SOL     ow  333   2.158   0.432   2.316 -0.0132  0.4055  0.0421
   84SOL     hw  334   2.247   0.468   2.312 -0.1861  1.0350  1.4354
   84SOL     hw  335   2.102   0.507   2.334 -0.8105 -0.0366 -0.5205
   84SOL     vw  336   2.163   0.447   2.318 -0.1411  0.4302  0.1516
   85SOL     ow  337   0.328   1.146   1.085  0.0242  0.1634  0.1228
   85SOL     hw  338   0.348   1.081   1.018 -0.8119  0.4481 -0.4248
   85SOL     hw  339   0.335   1.099   1.168  1.9813  0.0150 -0.0622
   85SOL     vw  340   0.332   1.132   1.087  0.1721  0.1814  0.0262
   86SOL     ow  341   2.257   0.126   2.397 -0.0595 -0.0273 -0.3556
   86SOL     hw  342   2.319   0.115   2.469  1.0499  1.4559 -1.0320
   86SOL     hw  343   2.220   0.039   2.384 -1.7150 -0.0451  3.2015
   86SOL     vw  344   2.260   0.113   2.405 -0.1315  0.1661  0.0246
   87SOL     ow  345   1.135   1.236   2.111 -1.0019 -0.2652 -0.1548
   87SOL     hw  346   1.180   1.265   2.032 -0.1962 -2.3531 -0.5440
   87SOL     hw  347   1.117   1.143   2.095 -0.8781 -0.7333  2.0959
   87SOL     vw  348   1.139   1.227   2.099 -0.8793 -0.6025  0.0908
   88SOL     ow  349   1.124   1.691   2.795 -0.0555 -0.3962  0.2050
   88SOL     hw  350   1.184   1.705   2.722 -0.3949 -1.1818 -0.2442
   88SOL     hw  351   1.049   1.747   2.775  0.7641  1.0477  1.0775
   88SOL     vw  352   1.122   1.700   2.782  0.0079 -0.3094  0.2608
   89SOL     ow  353   1.746   1.682   1.968  0.4741 -0.3884 -0.4055
   89SOL     hw  354   1.728   1.753   2.028 -1.4571 -0.7195 -0.5444
   89SOL     hw  355   1.778   1.611   2.023  1.3569  0.1918 -0.1406
   89SOL     vw  356   1.748   1.682   1.983  0.3358 -0.3556 -0.3889
   90SOL     ow  357   1.976   0.327   1.189 -0.2184  0.2743  0.2148
   90SOL     hw  358   1.951   0.339   1.280  1.8464 -0.1404  0.8637
   90SOL     hw  359   2.042   0.394   1.173 -1.2734  1.0273 -1.3241
   90SOL     vw  360   1.981   0.337   1.199 -0.0852  0.3189  0.0973
   91SOL     ow  361   0.567   2.040   0.434  0.5360  0.4392 -0.0429
   91SOL     hw  362   0.596   1.968   0.491 -1.7069 -1.1663 -0.7723
   91SOL     hw  363   0.615   2.027   0.353  0.3813 -0.1001 -0.0588
   91SOL     vw  364   0.577   2.029   0.431  0.2197  0.1563 -0.1412
   92SOL     ow  365   0.960   1.875   1.979 -0.3832  0.0723  0.3259
   92SOL     hw  366   0.917   1.832   1.906  0.4230 -1.8645  0.9242
   92SOL     hw  367   0.919   1.838   2.057 -0.8588  1.7038  0.8994
   92SOL     vw  368   0.949   1.864   1.980 -0.3396  0.0320  0.4805
   93SOL     ow  369   2.269   0.131   6.381 -0.4002  0.0027  0.7202
   93SOL     hw  370   2.175   0.136   6.400  0.0596  0.3681  3.1652
   93SOL     hw  371   2.311   0.180   6.451  1.5909  1.0582 -1.0648
   93SOL     vw  372   2.262   0.138   6.392 -0.0767  0.1902  0.8075
   94SOL     ow  373   1.007   0.309   4.520 -0.1695 -0.4994 -0.3966
   94SOL     hw  374   1.044   0.353   4.598  1.7526 -0.8519 -1.0429
   94SOL     hw  375   0.946   0.373   4.484 -0.9415 -0.2350  1.2512
   94SOL     vw  376   1.004   0.323   4.526 -0.0177 -0.5111 -0.2646
   95SOL     ow  377   0.011   0.081   0.600  0.0145 -0.7077 -0.0660
   95SOL     hw  378   0.011   0.038   0.514  1.2631 -1.1213  0.1217
   95SOL     hw  379   0.018   0.174   0.580  0.0635 -0.7848 -0.4227
   95SOL     vw  380   0.012   0.088   0.586  0.1857 -0.7724 -0.0883
   96SOL     ow  381   0.998   1.291   4.453  0.2042 -0.4509 -0.5936
   96SOL     hw  382   0.938   1.332   4.391  1.4348  0.6123 -1.1271
   96SOL     hw  383   0.959   1.309   4.539  0.1193  0.8826 -0.8793
   96SOL     vw  384   0.985   1.299   4.456  0.3553 -0.1348 -0.7017
   97SOL     ow  385   2.286   2.117   5.317  0.4161  0.5486 -0.2315
   97SOL     hw  386   2.196   2.124   5.286  1.0512 -1.4613 -2.9677
   97SOL     hw  387   2.291   2.177   5.391 -3.0018  1.1083 -0.2882
   97SOL     vw  388   2.275   2.126   5.323  0.0489  0.3572 -0.5999
   98SOL     ow  389   0.608   0.425   6.021 -0.6341  0.0085  0.2845
   98SOL     hw  390   0.609   0.451   5.929  0.9538 -1.4324 -0.1625
   98SOL     hw  391   0.637   0.334   6.020 -1.3837 -0.2898  2.1582
   98SOL     vw  392   0.612   0.416   6.009 -0.5234 -0.2209  0.4725
   99SOL     ow  393   1.300   1.675   3.227  0.2625  0.5395  0.9950
   99SOL     hw  394   1.353   1.641   3.155 -1.6932 -0.0951 -0.2340
   99SOL     hw  395   1.295   1.602   3.289  0.8793  0.6328  1.1580
   99SOL     vw  396   1.307   1.661   3.226  0.0859  0.4681  0.8544
  100SOL     ow  397   1.967   0.599   2.370 -0.8156 -0.4001 -0.4023
  100SOL     hw  398   1.928   0.638   2.292  0.8766  2.2072 -0.0622
  100SOL     hw  399   1.951   0.663   2.440 -1.0687 -2.0250  1.1110
  100SOL     vw  400   1.960   0.613   2.369 -0.6258 -0.2705 -0.1578
  101SOL     ow  401   0.562   1.038   5.050  0.6484  0.1009 -0.3913
  101SOL     hw  402   0.585   0.965   4.991  0.4417 -1.0742  0.9266
  101SOL     hw  403   0.473   1.061   5.025  0.0954 -1.2375  0.2638
  101SOL     vw  404   0.553   1.031   5.039  0.5482 -0.2307 -0.1311
  102SOL     ow  405   0.692   0.805   5.796 -0.1599  0.4057 -0.1867
  102SOL     hw  406   0.600   0.830   5.798 -0.3495 -0.2718 -0.0943
  102SOL     hw  407   0.700   0.747   5.720  0.2001  0.4945 -0.2193
  102SOL     vw  408   0.681   0.801   5.786 -0.1374  0.3280 -0.1788
  103SOL     ow  409   0.332   1.912   0.384 -0.5442  0.9882 -0.3968
  103SOL     hw  410   0.414   1.960   0.396 -0.3645  0.7111 -0.4994
  103SOL     hw  411   0.357   1.820   0.394 -0.6037  0.8157 -1.6769
  103SOL     vw  412   0.346   1.906   0.387 -0.5283  0.9288 -0.5793
  104SOL     ow  413   1.104   2.292   6.589 -0.6605  0.4189 -0.0168
  104SOL     hw  414   1.127   2.361   6.651 -0.2519  1.5725 -1.4231
  104SOL     hw  415   1.008   2.289   6.591 -0.6609  0.5979  0.4789
  104SOL     vw  416   1.094   2.301   6.598 -0.6067  0.5946 -0.1369
  105SOL     ow  417   2.227   1.161   1.044 -0.0688  0.2170 -0.5243
  105SOL     hw  418   2.140   1.172   1.005  0.6398  1.7948 -1.7582
  105SOL     hw  419   2.215   1.090   1.108 -2.4420  0.8693 -0.1135
  105SOL     vw  420   2.214   1.153   1.047 -0.2886  0.5113 -0.6330
  106SOL     ow  421   0.128   0.825   4.047  0.0005 -0.1059 -0.3952
  106SOL     hw  422   0.132   0.918   4.023 -0.3776  0.5104  1.6904
  106SOL     hw  423   0.070   0.786   3.983  0.1418  1.0970 -1.3029
  106SOL     vw  424   0.121   0.832   4.035 -0.0308  0.1342 -0.2401
  107SOL     ow  425   1.538   0.585   2.588 -0.4647 -0.3185  0.1759
  107SOL     hw  426   1.514   0.538   2.668  0.8274  0.6987  1.1940
  107SOL     hw  427   1.455   0.616   2.553 -0.9106  1.6110  2.6478
  107SOL     vw  428   1.524   0.583   2.594 -0.3531  0.0703  0.6365
  108SOL     ow  429   0.433   1.821   0.875  0.3784 -0.0992 -0.0718
  108SOL     hw  430   0.408   1.901   0.829 -0.0315 -0.8933 -1.2732
  108SOL     hw  431   0.360   1.804   0.935  0.5828  0.5460  0.3741
  108SOL     vw  432   0.420   1.829   0.877  0.3513 -0.1188 -0.1715
  109SOL     ow  433   1.280   0.233   1.876  0.2074 -0.1697  0.2296
  109SOL     hw  434   1.296   0.150   1.922  0.1960 -0.3960 -0.1682
  109SOL     hw  435   1.246   0.207   1.791  4.5990 -0.0193 -1.8635
  109SOL     vw  436   1.278   0.219   1.871  0.7853 -0.1798 -0.0990
  110SOL     ow  437   0.369   0.442   2.050  0.7757  0.6421 -0.0508
  110SOL     hw  438   0.389   0.484   1.966  0.4574  2.9918  0.9498
  110SOL     hw  439   0.290   0.390   2.033  0.0427  1.9990 -0.9868
  110SOL     vw  440   0.361   0.441   2.037  0.6370  1.1312 -0.0423
  111SOL     ow  441   1.703   1.190   6.499 -0.4167 -0.2650 -0.2009
  111SOL     hw  442   1.643   1.138   6.553 -0.6922 -1.3042 -1.4490
  111SOL     hw  443   1.661   1.275   6.491 -0.0732  0.1317  1.7041
  111SOL     vw  444   1.689   1.194   6.505 -0.4077 -0.3498 -0.1142
  112SOL     ow  445   0.710   0.810   3.506 -0.2030 -0.2080  0.3150
  112SOL     hw  446   0.717   0.755   3.428  0.1175 -0.5521  0.5858
  112SOL     hw  447   0.766   0.885   3.486  1.2089 -1.0717  0.8629
  112SOL     vw  448   0.719   0.813   3.493  0.0256 -0.3674  0.4230
  113SOL     ow  449   0.294   1.745   2.845 -0.0775  0.1100 -0.0483
  113SOL     hw  450   0.340   1.693   2.911 -2.2073 -0.5791  0.9701
  113SOL     hw  451   0.364   1.794   2.801  1.3509  2.8295  4.5503
  113SOL     vw  452   0.309   1.745   2.848 -0.1700  0.3779  0.6928
  114SOL     ow  453   2.241   1.329   1.477 -0.1117 -0.1345  0.0864
  114SOL     hw  454   2.277   1.247   1.511 -0.4924  0.1777  1.2782
  114SOL     hw  455   2.317   1.380   1.451  0.1972 -0.3044  0.6563
  114SOL     vw  456   2.256   1.325   1.478 -0.1211 -0.1157  0.3188
  115SOL     ow  457   2.088   1.380   0.115  0.6451  0.0317  0.2211
  115SOL     hw  458   1.993   1.391   0.116  0.8417  2.2347 -0.2248
  115SOL     hw  459   2.120   1.456   0.066  2.6912 -0.2273  1.0711
  115SOL     vw  460   2.080   1.391   0.108  0.9409  0.2882  0.2744
  116SOL     ow  461   1.910   1.233   0.574 -0.3362 -0.1207  0.3267
  116SOL     hw  462   1.816   1.249   0.563 -1.0552 -3.3711  0.8264
  116SOL     hw  463   1.922   1.141   0.552  2.7477  0.1348  0.4727
  116SOL     vw  464   1.899   1.223   0.570 -0.0241 -0.5158  0.4119
  117SOL     ow  465   0.279   0.999   6.471  0.3331  0.3533 -0.6118
  117SOL     hw  466   0.362   1.037   6.501  0.7438 -0.8968 -0.0890
  117SOL     hw  467   0.268   1.033   6.382  2.2044 -0.6418 -1.2891
  117SOL     vw  468   0.289   1.008   6.463  0.6342  0.0571 -0.6323
  118SOL     ow  469   1.818   1.369   0.097  0.6144  0.2807  0.0002
  118SOL     hw  470   1.738   1.396   0.141  1.5638 -0.1523  2.0839
  118SOL     hw  471   1.790   1.301   0.036 -0.6533  0.5016  0.3096
  118SOL     vw  472   1.804   1.364   0.095  0.5724  0.2527  0.3160
  119SOL     ow  473   0.243   2.079   2.671  0.9142  0.3088 -0.3215
  119SOL     hw  474   0.270   2.025   2.597  1.3514 -2.0740  1.4601
  119SOL     hw  475   0.325   2.103   2.714  0.6417  1.2755 -0.3285
  119SOL     vw  476   0.258   2.075   2.667  0.9359  0.1218 -0.0874
  120SOL     ow  477   1.456   1.403   0.386 -0.0383 -0.2256 -0.5701
  120SOL     hw  478   1.529   1.381   0.445  1.3594 -2.5360 -2.9368
  120SOL     hw  479   1.498   1.445   0.311 -0.8293 -2.5899 -2.4869
  120SOL     vw  480   1.472   1.405   0.384  0.0417 -0.8423 -1.1353
  121SOL     ow  481   0.916   1.368   1.482 -0.6366  0.6046  0.2731
  121SOL     hw  482   0.885   1.315   1.556  0.4877 -1.0461 -0.3942
  121SOL     hw  483   0.895   1.458   1.508 -2.4580 -0.1132  1.5150
  121SOL     vw  484   0.909   1.373   1.495 -0.7285  0.2922  0.3489
  122SOL     ow  485   1.819   0.440   2.506 -0.1463 -0.1942  0.1626
  122SOL     hw  486   1.884   0.487   2.454 -0.7272  1.4535  0.8566
  122SOL     hw  487   1.860   0.428   2.592 -0.8513  1.2084  0.7299
  122SOL     vw  488   1.833   0.445   2.510 -0.3159  0.2083  0.3290
  123SOL     ow  489   0.010   1.874   5.127 -0.0131  0.2801  0.3883
  123SOL     hw  490  -0.048   1.800   5.107 -2.9504  2.6818 -0.6771
  123SOL     hw  491   0.053   1.894   5.044 -1.4070  1.4664 -0.0826
  123SOL     vw  492   0.008   1.867   5.113 -0.5845  0.7535  0.1855
  124SOL     ow  493   0.617   2.034   4.830  1.3016 -0.3778  0.0387
  124SOL     hw  494   0.628   1.985   4.911  2.9683  2.9607  2.0515
  124SOL     hw  495   0.640   2.124   4.853 -3.3905  1.9419 -2.7536
  124SOL     vw  496   0.621   2.040   4.843  0.9024  0.3687 -0.0641
  125SOL     ow  497   0.056   1.676   2.655 -0.3787  0.1470 -0.5405
  125SOL     hw  498  -0.012   1.627   2.609  0.1157 -0.2112 -0.9048
  125SOL     hw  499   0.129   1.678   2.593  0.0845  0.1798  0.0045
  125SOL     vw  500   0.057   1.670   2.640 -0.2524  0.1041 -0.5165
  126SOL     ow  501   0.505   2.095   4.517 -0.2469  0.0290 -0.1314
  126SOL     hw  502   0.563   2.132   4.451  1.1621 -1.5466  0.1631
  126SOL     hw  503   0.417   2.101   4.479 -0.0066  2.7259 -0.4726
  126SOL     vw  504   0.501   2.101   4.503 -0.0293  0.1770 -0.1376
  127SOL     ow  505   2.020   1.497   0.699  0.0412  0.3920  0.9374
  127SOL     hw  506   2.029   1.499   0.794  1.4744  1.5020  0.8070
  127SOL     hw  507   1.959   1.569   0.680  0.4021  0.7043  0.9589
  127SOL     vw  508   2.013   1.507   0.709  0.2779  0.5796  0.9230
  128SOL     ow  509   2.073   1.438   0.399 -0.0457  0.5195  0.0612
  128SOL     hw  510   2.082   1.532   0.389  0.5782  0.4959  0.4034
  128SOL     hw  511   2.087   1.403   0.311  1.5921  0.6113  0.2581
  128SOL     vw  512   2.076   1.446   0.386  0.2527  0.5285  0.1323
  129SOL     ow  513   1.300   0.451   2.018  0.2723  0.1951 -0.4963
  129SOL     hw  514   1.298   0.366   1.973 -0.7208  0.8260 -1.7098
  129SOL     hw  515   1.335   0.512   1.953 -0.3515  0.9710 -0.1179
  129SOL     vw  516   1.304   0.448   2.003  0.0589  0.3807 -0.6065
  130SOL     ow  517   2.237   1.001   0.487 -0.0037  0.2646 -0.8109
  130SOL     hw  518   2.319   0.964   0.453 -0.8600 -1.0363 -1.5580
  130SOL     hw  519   2.213   0.943   0.559 -1.2746 -0.5899 -1.8840
  130SOL     vw  520   2.245   0.988   0.492 -0.2844 -0.0198 -1.0511
  131SOL     ow  521   1.693   1.066   0.493 -0.4327  0.7158 -0.2195
  131SOL     hw  522   1.671   1.010   0.568 -0.5547  1.8850  0.6374
  131SOL     hw  523   1.678   1.010   0.417 -0.5259 -0.4281  0.6130
  131SOL     vw  524   1.688   1.051   0.493 -0.4612  0.7191  0.0034
  132SOL     ow  525   2.313   2.270   0.394  0.3730  0.2191 -0.0816
  132SOL     hw  526   2.268   2.199   0.440  0.1386 -1.0284 -2.0986
  132SOL     hw  527   2.251   2.298   0.327  0.6257  2.0920  0.4209
  132SOL     vw  528   2.299   2.264   0.391  0.3756  0.3016 -0.2814
  133SOL     ow  529   1.672   1.836   1.739 -0.1872 -0.0684 -0.7466
  133SOL     hw  530   1.640   1.780   1.669  0.4025 -0.9589 -0.3192
  133SOL     hw  531   1.655   1.925   1.708 -0.3926 -0.4584 -1.7918
  133SOL     vw  532   1.666   1.841   1.726 -0.1365 -0.2373 -0.8281
  134SOL     ow  533   0.519   2.101   2.838  0.6734  0.0961 -0.7236
  134SOL     hw  534   0.560   2.039   2.777 -1.0512  0.0761 -1.9565
  134SOL     hw  535   0.517   2.055   2.922 -0.1980 -1.4135 -1.5238
  134SOL     vw  536   0.524   2.087   2.841  0.3309 -0.1056 -0.9918
  135SOL     ow  537   2.236   0.554   1.580 -0.4659 -0.4032  0.6987
  135SOL     hw  538   2.289   0.632   1.569 -2.7483  0.9477 -2.0254
  135SOL     hw  539   2.159   0.584   1.628 -0.2987 -1.5805  1.7617
  135SOL     vw  540   2.233   0.568   1.585 -0.7451 -0.3803  0.4796
  136SOL     ow  541   1.855   0.690   4.970  0.3473  0.2977  0.2277
  136SOL     hw  542   1.764   0.719   4.963  0.2124  0.3307  1.8557
  136SOL     hw  543   1.898   0.759   5.020  1.6604  1.0574 -1.8357
  136SOL     vw  544   1.848   0.703   4.976  0.5028  0.4022  0.1702
  137SOL     ow  545   0.675   1.809   5.892  0.6113 -0.2154  0.1375
  137SOL     hw  546   0.757   1.763   5.904  0.6939 -0.3064 -0.7183
  137SOL     hw  547   0.684   1.852   5.807  0.0704  0.3926  0.3806
  137SOL     vw  548   0.687   1.809   5.882  0.5508 -0.1472  0.0565
  138SOL     ow  549   0.405   0.881   4.050  0.1400 -0.0878 -0.2066
  138SOL     hw  550   0.487   0.833   4.041  0.2306  0.1366 -0.5870
  138SOL     hw  551   0.428   0.972   4.035 -0.3751 -0.1484 -1.5573
  138SOL     vw  552   0.419   0.886   4.047  0.0840 -0.0662 -0.4351
  139SOL     ow  553   0.091   1.236   0.941 -0.6119 -0.3802 -0.8715
  139SOL     hw  554   0.015   1.188   0.973  0.8675 -1.4747  1.3030
  139SOL     hw  555   0.166   1.191   0.981  1.0219  2.2736 -0.6916
  139SOL     vw  556   0.091   1.223   0.951 -0.2012 -0.1745 -0.5609
  140SOL     ow  557   2.171   0.503   0.819  0.0628 -0.2046  0.6819
  140SOL     hw  558   2.111   0.512   0.744 -0.3539  0.7877  1.1099
  140SOL     hw  559   2.222   0.424   0.800  0.6861  0.5861 -1.1560
  140SOL     vw  560   2.170   0.494   0.806  0.0899  0.0307  0.4959
  141SOL     ow  561   0.675   1.069   3.035 -0.3244 -0.0002  0.1626
  141SOL     hw  562   0.703   0.981   3.009 -0.5419 -0.2361  0.6858
  141SOL     hw  563   0.728   1.089   3.112  0.1548  0.5888 -0.3097
  141SOL     vw  564   0.685   1.060   3.042 -0.2899  0.0464  0.1694
  142SOL     ow  565   0.743   0.898   4.026  0.2669 -0.0888 -0.5591
  142SOL     hw  566   0.766   0.849   4.104 -0.0070 -1.8015 -1.5098
  142SOL     hw  567   0.791   0.980   4.034  0.4279 -0.3312  1.2675
  142SOL     vw  568   0.752   0.903   4.037  0.2520 -0.3468 -0.4435
  143SOL     ow  569   0.747   0.300   0.565  0.1575  0.1610  0.2924
  143SOL     hw  570   0.806   0.371   0.541 -0.7326  0.2424 -1.9190
  143SOL     hw  571   0.725   0.316   0.657  0.5586  2.3185  0.0534
  143SOL     vw  572   0.752   0.311   0.574  0.0930  0.4564 -0.0310
  144SOL     ow  573   2.040   2.312   2.265 -0.0586  0.1756 -0.1027
  144SOL     hw  574   1.958   2.283   2.224 -1.5130  1.3345  1.8052
  144SOL     hw  575   2.045   2.260   2.345  0.6150  0.7464  0.2264
  144SOL     vw  576   2.030   2.301   2.270 -0.1616  0.4039  0.1923
  145SOL     ow  577   0.922   0.698   6.087  0.2179  0.4810 -0.0813
  145SOL     hw  578   0.935   0.620   6.140 -0.9924  0.7008  0.5638
  145SOL     hw  579   0.828   0.711   6.084  0.4289  2.8442  1.2075
  145SOL     vw  580   0.912   0.690   6.093  0.0861  0.8218  0.1738
  146SOL     ow  581   0.561   1.840   0.609 -0.6381  0.3297 -0.1252
  146SOL     hw  582   0.593   1.760   0.566 -0.0398  0.1665  0.5897
  146SOL     hw  583   0.504   1.808   0.679 -2.5642  0.6225 -1.4796
  146SOL     vw  584   0.558   1.825   0.613 -0.8132  0.3468 -0.2096
  147SOL     ow  585   1.084   0.558   1.855  0.5751 -0.5628 -0.3183
  147SOL     hw  586   0.995   0.533   1.879  0.1948  1.1850  0.2438
  147SOL     hw  587   1.140   0.504   1.911 -0.2330  0.4883  1.5963
  147SOL     vw  588   1.080   0.548   1.866  0.4182 -0.1935  0.0085
  148SOL     ow  589   0.421   2.097   2.096 -0.7707 -0.1706  0.3552
  148SOL     hw  590   0.430   2.041   2.020 -2.4021 -0.3133  0.2175
  148SOL     hw  591   0.348   2.059   2.145  0.8642 -0.6848  2.5532
  148SOL     vw  592   0.412   2.085   2.093 -0.7702 -0.2573  0.6270
  149SOL     ow  593   2.247   0.915   0.036 -0.2205 -0.1674  0.2545
  149SOL     hw  594   2.329   0.867   0.023 -0.5802 -0.2771 -1.8319
  149SOL     hw  595   2.185   0.875  -0.025 -1.7070  0.3029  1.3764
  149SOL     vw  596   2.250   0.903   0.026 -0.4641 -0.1198  0.1273
  150SOL     ow  597   2.117   1.074   0.251  0.1316  0.0798 -0.0919
  150SOL     hw  598   2.157   1.039   0.331  1.3999 -0.5624 -0.9701
  150SOL     hw  599   2.038   1.021   0.239  0.1157 -0.0467  0.5435
  150SOL     vw  600   2.112   1.062   0.260  0.2968 -0.0216 -0.1239
  151SOL     ow  601   2.229   0.261   1.402 -0.0348 -0.0967  0.1643
  151SOL     hw  602   2.255   0.205   1.328 -1.2790  0.5142 -0.7772
  151SOL     hw  603   2.159   0.212   1.445 -0.0233  0.0133  0.3081
  151SOL     vw  604   2.223   0.247   1.398 -0.1973 -0.0016  0.0591
  152SOL     ow  605   1.789   0.828   5.463  0.0980  0.0211  0.1095
  152SOL     hw  606   1.824   0.744   5.491  1.5952  0.9506  1.1928
  152SOL     hw  607   1.718   0.847   5.525 -0.0799 -0.3214  0.0114
  152SOL     vw  608   1.784   0.820   5.474  0.2721  0.0986  0.2391
  153SOL     ow  609   1.216   2.023   3.358 -0.2559 -0.4995  0.3334
  153SOL     hw  610   1.183   2.112   3.373  2.7278  0.6074  1.1512
  153SOL     hw  611   1.217   1.983   3.445  2.3848  0.3204  0.7997
  153SOL     vw  612   1.212   2.030   3.372  0.4861 -0.2453  0.5028
  154SOL     ow  613   0.969   0.582   5.816  0.0684  0.3070  0.0005
  154SOL     hw  614   0.937   0.635   5.889 -0.4584  0.4338 -0.3147
  154SOL     hw  615   0.927   0.620   5.739 -1.2539 -1.2806 -0.1147
  154SOL     vw  616   0.959   0.594   5.816 -0.1756  0.1142 -0.0563
  155SOL     ow  617   2.102   1.868   4.575 -0.1435 -0.7334  0.5881
  155SOL     hw  618   2.100   1.865   4.670 -0.3280  0.3220  0.6308
  155SOL     hw  619   2.163   1.939   4.554 -0.3587 -0.7339 -0.0721
  155SOL     vw  620   2.110   1.877   4.585 -0.1962 -0.5942  0.5069
  156SOL     ow  621   0.896   1.660   5.889  0.0952 -0.0907  0.8357
  156SOL     hw  622   0.982   1.696   5.871 -1.3912  2.1531 -2.9346
  156SOL     hw  623   0.911   1.566   5.899  3.0580  0.3869  1.8295
  156SOL     vw  624   0.909   1.652   5.888  0.2900  0.2684  0.4690
  157SOL     ow  625   1.405   2.281   5.388  0.2663  0.0459 -0.3750
  157SOL     hw  626   1.327   2.318   5.345  1.0375  1.8870 -0.2678
  157SOL     hw  627   1.372   2.203   5.432 -1.1665 -0.2190 -1.7855
  157SOL     vw  628   1.390   2.276   5.388  0.1790  0.2538 -0.5474
  158SOL     ow  629   1.936   0.801   5.204  0.7280 -0.0037  0.3743
  158SOL     hw  630   1.878   0.729   5.231 -0.3332  0.6253 -0.1528
  158SOL     hw  631   2.003   0.804   5.272  1.6076 -2.3531 -0.2906
  158SOL     vw  632   1.937   0.792   5.217  0.7041 -0.2307  0.2170
  159SOL     ow  633   1.859   1.479   5.809 -0.5429  0.0205 -1.0029
  159SOL     hw  634   1.935   1.513   5.761 -1.4254  1.7122 -1.2704
  159SOL     hw  635   1.880   1.387   5.823  1.1957  0.2421 -1.7838
  159SOL     vw  636   1.872   1.472   5.804 -0.4300  0.2729 -1.1413
  160SOL     ow  637   0.205   0.784   2.098 -0.4816  0.1803 -0.5244
  160SOL     hw  638   0.165   0.795   2.185  0.0285  0.8485 -0.3678
  160SOL     hw  639   0.292   0.750   2.116 -0.8713 -1.0463 -0.8585
  160SOL     vw  640   0.211   0.781   2.112 -0.4657  0.1066 -0.5478
  161SOL     ow  641   1.403   2.244   6.580 -0.2001  0.4446  0.5017
  161SOL     hw  642   1.430   2.194   6.658  1.3273  0.3125 -0.0812
  161SOL     hw  643   1.484   2.262   6.534 -1.0802  0.4780 -1.1063
  161SOL     vw  644   1.417   2.240   6.584 -0.1146  0.4315  0.2127
  162SOL     ow  645   1.308   1.800   5.008  0.2338 -0.2405  0.6551
  162SOL     hw  646   1.359   1.729   4.969  1.9217  2.4117 -2.4067
  162SOL     hw  647   1.217   1.775   4.992  0.7251 -2.1323  0.5765
  162SOL     vw  648   1.302   1.787   5.001  0.5214 -0.1402  0.2406
  163SOL     ow  649   0.522   0.395   0.350 -0.2717  0.0863 -0.2060
  163SOL     hw  650   0.562   0.477   0.378 -2.5685  0.9106  0.8478
  163SOL     hw  651   0.436   0.420   0.316 -0.5106 -1.7567 -1.0689
  163SOL     vw  652   0.516   0.409   0.349 -0.6062 -0.0481 -0.1808
  164SOL     ow  653   2.151   0.510   1.077 -0.0231  0.3236  0.2572
  164SOL     hw  654   2.160   0.527   0.984 -0.4467  1.8054  0.4582
  164SOL     hw  655   2.182   0.590   1.119  2.8393 -1.2913  1.5296
  164SOL     vw  656   2.156   0.523   1.071  0.2986  0.3061  0.4516
  165SOL     ow  657   1.522   0.802   2.789  0.2703 -1.0959 -0.0909
  165SOL     hw  658   1.561   0.775   2.706  0.1047  0.2949 -0.6487
  165SOL     hw  659   1.428   0.804   2.772  0.2508 -0.5867  0.0429
  165SOL     vw  660   1.515   0.799   2.776  0.2459 -0.8452 -0.1467
  166SOL     ow  661   0.343   0.587   4.152 -0.2663 -0.5468 -0.2121
  166SOL     hw  662   0.416   0.562   4.209 -0.2511 -0.3302 -0.1359
  166SOL     hw  663   0.301   0.504   4.129 -0.5472 -0.6091  0.4816
  166SOL     vw  664   0.347   0.573   4.157 -0.3013 -0.5264 -0.1106
  167SOL     ow  665   0.968   1.970   4.456 -0.3465  0.6388  0.3043
  167SOL     hw  666   1.037   2.018   4.409  0.2746 -0.6678 -0.1522
  167SOL     hw  667   0.942   1.900   4.397 -1.3884  0.5187  0.8767
  167SOL     vw  668   0.974   1.967   4.442 -0.4020  0.4506  0.3200
  168SOL     ow  669   2.112   1.161   6.553 -0.1163 -0.6025  0.4461
  168SOL     hw  670   2.082   1.246   6.588  0.8670 -0.5862  1.2818
  168SOL     hw  671   2.042   1.135   6.492  0.3594  1.6196 -1.1683
  168SOL     vw  672   2.099   1.169   6.550  0.0761 -0.3071  0.3433
  169SOL     ow  673   1.964   1.846   1.767 -0.1196 -0.1599 -0.3948
  169SOL     hw  674   2.004   1.836   1.680 -2.9362  0.7816 -1.9133
  169SOL     hw  675   2.029   1.895   1.818  1.0659  0.4459 -2.3883
  169SOL     vw  676   1.978   1.851   1.762 -0.3349  0.0443 -0.8582
  170SOL     ow  677   0.703   0.120   3.565  0.1764  0.0308  0.1655
  170SOL     hw  678   0.632   0.140   3.503  0.9173 -0.5395 -0.8918
  170SOL     hw  679   0.672   0.156   3.648 -1.2459  0.0168 -0.3227
  170SOL     vw  680   0.689   0.127   3.568  0.0865 -0.0463 -0.0384
  171SOL     ow  681   1.513   0.312   2.462 -0.1994  0.5184 -0.2403
  171SOL     hw  682   1.477   0.251   2.397 -2.5619  1.3253  0.2170
  171SOL     hw  683   1.460   0.296   2.541 -1.2422  3.4097 -0.2401
  171SOL     vw  684   1.501   0.302   2.464 -0.6487  1.0063 -0.1800
  172SOL     ow  685   0.658   0.522   6.308 -0.0024 -1.1310 -0.1058
  172SOL     hw  686   0.692   0.581   6.375  0.8724 -1.0892 -0.5740
  172SOL     hw  687   0.685   0.435   6.335 -1.2738 -1.3387  0.5720
  172SOL     vw  688   0.666   0.518   6.320 -0.0548 -1.1529 -0.0782
  173SOL     ow  689   0.482   1.805   3.803  0.0752 -0.1809  0.3489
  173SOL     hw  690   0.474   1.893   3.839  1.3338 -0.6100  1.7700
  173SOL     hw  691   0.444   1.811   3.716  1.3270  2.0921 -0.1049
  173SOL     vw  692   0.476   1.817   3.797  0.4064  0.0624  0.4765
  174SOL     ow  693   1.251   1.408   2.741  0.6982  0.2677 -0.3682
  174SOL     hw  694   1.214   1.333   2.695 -0.5927 -0.5665  1.8844
  174SOL     hw  695   1.346   1.393   2.739  0.4467 -1.6844  0.3489
  174SOL     vw  696   1.259   1.396   2.735  0.4948 -0.0999  0.0237
  175SOL     ow  697   0.816   2.011   0.964 -0.0351 -0.1420 -0.3741
  175SOL     hw  698   0.843   1.973   0.880  2.0274  2.7192 -1.1807
  175SOL     hw  699   0.845   1.948   1.029 -0.3241 -1.7431 -1.7243
  175SOL     vw  700   0.824   1.998   0.961  0.1989  0.0243 -0.6586
  176SOL     ow  701   1.934   1.417   1.024  0.4731  0.3240  0.0615
  176SOL     hw  702   1.922   1.338   0.973  0.0900  1.7049 -2.1374
  176SOL     hw  703   1.850   1.463   1.017  0.7984  1.0817  0.9818
  176SOL     vw  704   1.922   1.413   1.016  0.4655  0.6062 -0.1072
  177SOL     ow  705   2.129   0.933   6.222  1.1272  0.4251 -0.6583
  177SOL     hw  706   2.217   0.900   6.204  1.3077 -0.6502  1.7754
  177SOL     hw  707   2.085   0.932   6.137  2.9727 -0.4992 -1.6624
  177SOL     vw  708   2.135   0.929   6.209  1.3944  0.1613 -0.4697
  178SOL     ow  709   1.097   1.831   1.417  0.5022 -0.0895  0.0585
  178SOL     hw  710   1.035   1.857   1.485  0.2096 -0.2451 -0.1435
  178SOL     hw  711   1.174   1.800   1.465  0.6730  0.6898  0.3049
  178SOL     vw  712   1.099   1.830   1.432  0.4861 -0.0072  0.0644
  179SOL     ow  713   0.232   1.871   0.119  0.5309  0.1328 -0.0667
  179SOL     hw  714   0.194   1.840   0.037 -0.7193  0.8784  0.1989
  179SOL     hw  715   0.301   1.808   0.139 -0.5481 -1.2616 -0.6058
  179SOL     vw  716   0.236   1.859   0.111  0.2236  0.0473 -0.1028
  180SOL     ow  717   0.742   1.270   1.300 -0.1333 -0.2536  0.2559
  180SOL     hw  718   0.738   1.176   1.316  2.3954 -0.8830 -2.0286
  180SOL     hw  719   0.810   1.302   1.359 -0.5068  0.0343  0.5375
  180SOL     vw  720   0.750   1.262   1.310  0.1510 -0.2986 -0.0083
  181SOL     ow  721   1.140   1.532   3.040  0.6506 -0.0845  0.0952
  181SOL     hw  722   1.070   1.490   3.090 -0.4508  0.3681 -1.0158
  181SOL     hw  723   1.175   1.599   3.099  1.0459 -1.1603  1.1290
  181SOL     vw  724   1.135   1.536   3.055  0.5574 -0.1668  0.0850
  182SOL     ow  725   0.247   2.362   3.656  0.2928  0.4341  0.4316
  182SOL     hw  726   0.259   2.387   3.747 -1.6460  0.8938  0.6166
  182SOL     hw  727   0.222   2.269   3.659 -0.4743  0.6283  0.4662
  182SOL     vw  728   0.245   2.353   3.668 -0.0642  0.5205  0.4605
  183SOL     ow  729   2.264   0.100   4.656 -0.3781 -0.3138 -0.4778
  183SOL     hw  730   2.210   0.140   4.588  0.1591  2.7192  0.7181
  183SOL     hw  731   2.208   0.097   4.734  0.5094  1.0969  0.2636
  183SOL     vw  732   2.250   0.105   4.657 -0.1900  0.2725 -0.2224
  184SOL     ow  733   0.081   1.002   2.718  0.6483 -0.3229 -0.6912
  184SOL     hw  734   0.117   0.923   2.678 -0.1016 -0.3763 -1.2719
  184SOL     hw  735   0.036   0.970   2.796  1.1243 -0.3535 -0.4240
  184SOL     vw  736   0.080   0.987   2.723  0.6121 -0.3339 -0.7324
  185SOL     ow  737   0.629   1.658   2.002  0.8530 -0.3683 -0.2648
  185SOL     hw  738   0.573   1.581   2.007 -0.9894  0.9448  0.0908
  185SOL     hw  739   0.651   1.666   1.909 -2.1872  0.8371 -0.9742
  185SOL     vw  740   0.625   1.649   1.990  0.2088 -0.0359 -0.3114
  186SOL     ow  741   1.821   1.569   1.694 -0.1816  0.0543  0.3602
  186SOL     hw  742   1.898   1.523   1.658  0.1563 -0.5607  1.7752
  186SOL     hw  743   1.767   1.499   1.731 -0.7381  0.6215  0.6320
  186SOL     vw  744   1.824   1.554   1.694 -0.2105  0.0480  0.5828
  187SOL     ow  745   1.303   1.261   4.479 -0.1928 -0.1459 -0.1527
  187SOL     hw  746   1.358   1.190   4.444 -0.2254 -0.1578 -0.1799
  187SOL     hw  747   1.309   1.251   4.574  0.2016  0.1185 -0.1452
  187SOL     vw  748   1.311   1.250   4.487 -0.1451 -0.1126 -0.1554
  188SOL     ow  749   1.180   0.509   5.994 -0.3936 -0.1009 -0.3729
  188SOL     hw  750   1.228   0.535   6.073 -2.7884  0.8865  0.8473
  188SOL     hw  751   1.147   0.422   6.013 -0.0611 -0.3113 -0.7472
  188SOL     vw  752   1.182   0.501   6.007 -0.6657  0.0016 -0.2613
  189SOL     ow  753   2.039   0.823   6.447 -0.1089  0.1834  0.4092
  189SOL     hw  754   2.082   0.738   6.454 -0.0495  0.1496 -0.3077
  189SOL     hw  755   2.074   0.861   6.367 -1.8248 -0.0719 -0.5017
  189SOL     vw  756   2.050   0.817   6.438 -0.3275  0.1452  0.1943
  190SOL     ow  757   1.203   0.334   4.275  0.3014 -0.4050 -0.1573
  190SOL     hw  758   1.183   0.350   4.182  0.4319  0.1036 -0.0985
  190SOL     hw  759   1.266   0.401   4.298 -0.6739  0.2728  0.6478
  190SOL     vw  760   1.208   0.345   4.265  0.1900 -0.2485 -0.0432
  191SOL     ow  761   1.933   1.534   1.328  0.4279  0.1715 -0.4068
  191SOL     hw  762   1.858   1.475   1.319  0.4385  0.1737 -0.5031
  191SOL     hw  763   1.962   1.522   1.419 -0.4457  1.0684  0.0064
  191SOL     vw  764   1.927   1.525   1.339  0.3140  0.2902 -0.3650
  192SOL     ow  765   2.337   1.312   2.834 -0.2146  0.0978 -0.1715
  192SOL     hw  766   2.267   1.377   2.841  1.6334  1.9985  2.5020
  192SOL     hw  767   2.325   1.255   2.909  0.2587 -0.4782 -0.5238
  192SOL     vw  768   2.327   1.313   2.845  0.0916  0.2726  0.1348
  193SOL     ow  769   1.943   0.202   2.308 -0.1583  0.0461  0.1396
  193SOL     hw  770   1.913   0.264   2.241 -0.7458 -0.1423  0.2203
  193SOL     hw  771   1.965   0.122   2.259  0.9548  0.4299 -0.0076
  193SOL     vw  772   1.942   0.199   2.293 -0.0889  0.0719  0.1309
  194SOL     ow  773   1.737   0.755   3.651 -0.9953  0.3046 -0.0306
  194SOL     hw  774   1.671   0.696   3.615  0.5888 -1.4586 -0.1670
  194SOL     hw  775   1.821   0.717   3.625  0.1588  0.9125  2.5198
  194SOL     vw  776   1.739   0.742   3.643 -0.6341  0.1522  0.2878
  195SOL     ow  777   0.839   1.402   5.981  0.2257  0.3191 -0.5741
  195SOL     hw  778   0.901   1.331   5.966  1.1614  0.9346  0.2570
  195SOL     hw  779   0.843   1.418   6.076 -1.7913 -0.1395 -0.3703
  195SOL     vw  780   0.848   1.395   5.992  0.0831  0.3398 -0.4375
  196SOL     ow  781   0.338   2.054   4.043  0.5380  0.1927 -0.3879
  196SOL     hw  782   0.375   2.137   4.072 -1.2380  0.8340  0.1462
  196SOL     hw  783   0.323   2.005   4.124  1.5617 -0.6844 -0.6981
  196SOL     vw  784   0.341   2.059   4.058  0.4388  0.1614 -0.3586
  197SOL     ow  785   0.566   0.201   3.354  0.8156 -0.0201  0.0878
  197SOL     hw  786   0.577   0.149   3.274 -2.8390 -0.1756 -0.5007
  197SOL     hw  787   0.589   0.290   3.327 -0.6177 -0.0202 -1.3367
  197SOL     vw  788   0.570   0.206   3.340  0.1443 -0.0406 -0.1777
  198SOL     ow  789   1.001   1.627   1.274 -0.2060 -0.5808 -0.3504
  198SOL     hw  790   1.035   1.624   1.185 -0.5162  3.0577 -0.7369
  198SOL     hw  791   1.044   1.703   1.314 -1.3479 -1.0914  2.0663
  198SOL     vw  792   1.012   1.637   1.268 -0.3976 -0.1681 -0.0824
  199SOL     ow  793   0.071   1.168   5.061 -1.7116  0.0281 -0.3421
  199SOL     hw  794   0.054   1.213   4.979 -2.7872  0.7574  0.2629
  199SOL     hw  795   0.036   1.226   5.129 -0.4685 -0.3430  0.6820
  199SOL     vw  796   0.064   1.182   5.059 -1.6895  0.0753 -0.1271
  200SOL     ow  797   1.575   0.964   2.991  0.0926 -0.7150  0.1845
  200SOL     hw  798   1.637   1.032   2.963  0.4424 -1.5656 -1.1726
  200SOL     hw  799   1.566   0.906   2.916 -3.6090  0.2252 -0.3108
  200SOL     vw  800   1.582   0.966   2.978 -0.3496 -0.7032 -0.0600
  201SOL     ow  801   1.238   0.563   6.240 -0.6135  0.0895 -0.6209
  201SOL     hw  802   1.216   0.654   6.222 -1.3803 -0.0021 -0.1918
  201SOL     hw  803   1.157   0.525   6.273  0.1628 -0.2989  0.8999
  201SOL     vw  804   1.224   0.570   6.242 -0.6122  0.0261 -0.3638
  202SOL     ow  805   0.316   1.088   4.990  0.1737 -0.6668 -1.0165
  202SOL     hw  806   0.231   1.110   5.026 -1.2031 -2.9681 -2.6295
  202SOL     hw  807   0.304   1.091   4.895  2.8163  2.0750 -1.4231
  202SOL     vw  808   0.304   1.091   4.982  0.3407 -0.6087 -1.2832
  203SOL     ow  809   1.639   1.329   0.576 -0.7396  0.3579 -0.4166
  203SOL     hw  810   1.640   1.241   0.538 -1.0954 -0.8381  2.1512
  203SOL     hw  811   1.567   1.327   0.639 -0.7928  2.5316 -0.3322
  203SOL     vw  812   1.629   1.317   0.579 -0.7935  0.4869 -0.0667
  204SOL     ow  813   1.661   0.527   2.294  0.0866 -0.6097 -0.0392
  204SOL     hw  814   1.631   0.502   2.207 -1.5093 -0.4998  0.4409
  204SOL     hw  815   1.703   0.612   2.281 -0.7694 -0.2600 -0.6144
  204SOL     vw  816   1.663   0.535   2.281 -0.2369 -0.5490 -0.0516
  205SOL     ow  817   1.568   0.425   2.048 -0.0934  0.2218 -0.0628
  205SOL     hw  818   1.594   0.333   2.048 -0.5700 -0.0080 -3.0707
  205SOL     hw  819   1.473   0.424   2.061 -0.1611  0.2306 -0.5253
  205SOL     vw  820   1.559   0.413   2.050 -0.1653  0.1927 -0.5207
  206SOL     ow  821   2.308   1.601   0.325  0.0539  0.0424 -0.4165
  206SOL     hw  822   2.314   1.574   0.234 -0.4632  0.2681 -0.5216
  206SOL     hw  823   2.331   1.694   0.325 -1.1493  0.3574 -0.5070
  206SOL     vw  824   2.312   1.610   0.313 -0.1731  0.1137 -0.4423
  207SOL     ow  825   0.269   0.953   1.807 -0.3397 -0.1851 -0.3482
  207SOL     hw  826   0.348   0.912   1.772  0.4997  0.2495  0.9350
  207SOL     hw  827   0.261   1.035   1.757  0.3140  0.0020 -0.1634
  207SOL     vw  828   0.279   0.958   1.796 -0.1427 -0.1031 -0.1546
  208SOL     ow  829   0.755   2.068   6.043 -0.4334  0.0896 -0.3837
  208SOL     hw  830   0.777   2.105   6.129 -0.2697 -1.0096  0.0679
  208SOL     hw  831   0.756   2.143   5.984  0.6754  0.6774  0.3397
  208SOL     vw  832   0.758   2.083   6.047 -0.2655  0.0222 -0.2286
  209SOL     ow  833   0.211   1.994   5.329 -0.2654 -1.0803  0.6303
  209SOL     hw  834   0.292   1.950   5.302  0.6993 -0.3849  2.2485
  209SOL     hw  835   0.239   2.083   5.352 -1.0638 -1.4267  3.2283
  209SOL     vw  836   0.226   2.000   5.328 -0.2435 -1.0342  1.1864
  210SOL     ow  837   0.896   2.303   3.403 -0.1710 -0.1976  0.8346
  210SOL     hw  838   0.844   2.311   3.324  1.0522 -0.6242 -0.0397
  210SOL     hw  839   0.987   2.318   3.375  0.3109 -0.4934  2.1207
  210SOL     vw  840   0.901   2.306   3.389  0.0540 -0.2928  0.8889
  211SOL     ow  841   1.909   1.929   3.646 -0.4674  0.0588  0.1196
  211SOL     hw  842   1.885   1.838   3.629  1.3729 -0.1835 -1.6143
  211SOL     hw  843   1.984   1.945   3.588 -1.8136  3.2197 -0.9732
  211SOL     vw  844   1.916   1.919   3.636 -0.4022  0.4439 -0.2533
  212SOL     ow  845   1.787   1.404   4.135 -0.4031 -0.0465  0.2922
  212SOL     hw  846   1.782   1.422   4.041  0.5748  0.9768  0.4276
  212SOL     hw  847   1.743   1.319   4.144 -1.3283  0.2605 -0.9510
  212SOL     vw  848   1.780   1.395   4.123 -0.3962  0.1291  0.1459
  213SOL     ow  849   0.580   1.815   2.207 -0.3043  0.1022  0.9116
  213SOL     hw  850   0.521   1.761   2.260  0.1136  0.0899  1.3788
  213SOL     hw  851   0.593   1.765   2.127 -2.5532  1.0294 -0.1377
  213SOL     vw  852   0.574   1.802   2.204 -0.5459  0.2229  0.8347
  214SOL     ow  853   1.211   0.060   4.478  0.0072  0.0545  0.9094
  214SOL     hw  854   1.155   0.039   4.553 -0.0234 -1.3007  0.5455
  214SOL     hw  855   1.234  -0.026   4.441  0.3934  0.6793 -0.3561
  214SOL     vw  856   1.207   0.046   4.483  0.0541 -0.0419  0.6943
  215SOL     ow  857   1.206   0.770   5.905 -0.2897 -0.1868 -0.2390
  215SOL     hw  858   1.187   0.848   5.852  0.1793 -0.7558 -1.2756
  215SOL     hw  859   1.192   0.799   5.995  0.1669  1.1860 -0.5780
  215SOL     vw  860   1.201   0.784   5.909 -0.1675 -0.0807 -0.4206
  216SOL     ow  861   0.029   1.951   2.807  0.2218 -0.0369  0.3856
  216SOL     hw  862  -0.052   1.962   2.757 -0.3770  0.7702  1.4894
  216SOL     hw  863   0.093   2.006   2.762  0.4092 -1.2655 -0.9426
  216SOL     vw  864   0.027   1.959   2.795  0.1675 -0.0924  0.3560
  217poe    c31  865   1.514   1.438   5.957  0.3582 -0.7109 -0.1577
  217poe     o2  866   1.628   1.508   6.000 -0.0637 -0.4325  0.5183
  217poe    c23  867   1.619   1.540   6.137 -0.5414  0.3729  0.3058
  217poe    c23  868   1.765   1.584   6.163 -0.3602 -0.1296  0.1468
  217poe     o2  869   1.803   1.682   6.069  0.3232 -0.3678  0.1699
  217poe    c23  870   1.939   1.719   6.073  0.1966  0.1088  0.0998
  217poe    c23  871   1.965   1.820   5.960  0.5079  0.3489  0.3846
  217poe     o2  872   1.911   1.751   5.849  0.7465  0.2463  0.3303
  217poe    c23  873   1.940   1.831   5.737 -0.3754 -0.0067 -0.1563
  217poe    c23  874   1.887   1.765   5.609 -0.1861  0.4314 -0.4605
  217poe     o2  875   1.750   1.732   5.603 -0.1615  0.3294 -0.4593
  217poe    c31  876   1.727   1.693   5.469  0.1157 -0.4394 -0.2901
  218poe    c31  877   2.054   0.082   1.932 -0.0364 -0.2106  0.9766
  218poe     o2  878   2.190   0.065   1.899 -0.2669  0.0100 -0.1422
  218poe    c23  879   2.218  -0.070   1.930 -0.4620  0.0492  0.2174
  218poe    c23  880   2.366  -0.104   1.906 -0.4292  0.3005  0.0661
  218poe     o2  881   2.399  -0.070   1.773  0.1140  0.6549  0.2876
  218poe    c23  882   2.539  -0.063   1.753  0.0835 -0.0735 -0.2310
  218poe    c23  883   2.578   0.019   1.629 -0.4222  0.2352 -0.1903
  218poe     o2  884   2.548   0.157   1.636  0.1817  0.3960 -0.6775
  218poe    c23  885   2.627   0.236   1.550  0.8181  0.2224 -0.2526
  218poe    c23  886   2.588   0.384   1.535  0.3841  0.1321 -0.0169
  218poe     o2  887   2.467   0.412   1.469  0.5679  0.6373 -0.1400
  218poe    c31  888   2.502   0.444   1.337  0.8398  0.5413 -0.0908
  219poe    c31  889   1.385   0.483   1.047 -0.2496  0.4139 -0.1054
  219poe     o2  890   1.263   0.429   1.003  0.4056 -0.2689 -1.1159
  219poe    c23  891   1.197   0.528   0.927 -0.0506  0.6295  0.4082
  219poe    c23  892   1.059   0.472   0.889  0.3744 -0.0223 -0.2111
  219poe     o2  893   1.100   0.341   0.854  0.5466 -0.0664  0.1465
  219poe    c23  894   0.996   0.263   0.798  0.2105  0.1691  0.4340
  219poe    c23  895   1.065   0.139   0.737 -0.4016 -0.2159  0.5214
  219poe     o2  896   1.146   0.076   0.834  0.0153 -0.1189  0.2382
  219poe    c23  897   1.151  -0.063   0.811 -0.1147 -0.0365 -0.3189
  219poe    c23  898   1.216  -0.137   0.930 -0.0307 -0.0195 -0.3536
  219poe     o2  899   1.348  -0.092   0.942 -0.3210  0.5927  0.5859
  219poe    c31  900   1.413  -0.185   1.026 -0.4391 -0.3684 -0.3692
  220poe    c31  901   0.516   1.111   2.673  0.7208  0.4491  0.4184
  220poe     o2  902   0.483   1.172   2.796 -0.0418  0.2631  0.3166
  220poe    c23  903   0.527   1.306   2.792 -0.1534  0.2995  0.3207
  220poe    c23  904   0.479   1.382   2.918 -0.1341  0.3768  0.2817
  220poe     o2  905   0.500   1.296   3.028  0.6207  0.0937 -0.0715
  220poe    c23  906   0.431   1.350   3.139 -0.2683 -0.0560 -0.5399
  220poe    c23  907   0.453   1.243   3.247 -0.0778  0.3024 -0.2210
  220poe     o2  908   0.408   1.130   3.175  0.4310 -0.3583  0.4840
  220poe    c23  909   0.419   1.002   3.234  0.6889 -0.4273  0.2859
  220poe    c23  910   0.373   0.905   3.124  0.3848 -0.1103  0.1306
  220poe     o2  911   0.433   0.939   3.001  0.1049 -0.1586 -0.0225
  220poe    c31  912   0.382   0.856   2.899  0.9365 -0.3558 -0.2916
  221poe    c31  913   0.788   1.222   1.789  0.6365 -0.3208 -0.3824
  221poe     o2  914   0.750   1.262   1.659  0.0924 -0.5101 -0.2864
  221poe    c23  915   0.610   1.250   1.650 -0.0071  0.6144 -0.2900
  221poe    c23  916   0.564   1.110   1.606  0.6219  0.3740 -0.1908
  221poe     o2  917   0.614   1.062   1.483 -0.3936  0.2016 -0.5423
  221poe    c23  918   0.536   0.959   1.424 -0.3015 -0.2397  0.0992
  221poe    c23  919   0.589   0.901   1.292 -0.0299 -0.3671  0.2628
  221poe     o2  920   0.576   0.998   1.190 -0.7376 -0.7338 -0.0012
  221poe    c23  921   0.585   0.945   1.060  0.2538 -0.1714 -0.1702
  221poe    c23  922   0.483   0.843   1.005  0.3870 -0.2650 -0.2435
  221poe     o2  923   0.363   0.915   0.989  0.5084 -0.0663 -0.2648
  221poe    c31  924   0.273   0.832   0.920 -0.3093 -0.1507  0.8765
  222poe    c31  925   1.357   0.698   2.336 -0.3366 -0.1097 -0.2190
  222poe     o2  926   1.345   0.695   2.477 -0.1773  0.1295 -0.1998
  222poe    c23  927   1.213   0.723   2.517 -0.2057 -0.1962 -0.0613
  222poe    c23  928   1.191   0.725   2.670 -0.1786  0.3302 -0.0621
  222poe     o2  929   1.265   0.827   2.731 -0.1387 -0.0470  0.5230
  222poe    c23  930   1.223   0.960   2.707  0.0977 -0.0810 -0.0894
  222poe    c23  931   1.101   1.004   2.790 -0.2186 -0.3890 -0.3864
  222poe     o2  932   1.059   1.136   2.766  0.6267  0.0623  0.5155
  222poe    c23  933   0.929   1.155   2.819  0.2441 -0.6362 -0.1486
  222poe    c23  934   0.933   1.288   2.896 -0.5779 -0.3292 -0.6221
  222poe     o2  935   0.992   1.395   2.826  0.3487 -0.0700  0.5183
  222poe    c31  936   0.920   1.440   2.714  0.3794  0.7589  0.8215
  223poe    c31  937   1.990   0.573   0.527 -0.2331 -0.1058  0.5126
  223poe     o2  938   1.978   0.504   0.650  0.0754 -0.3010  0.4319
  223poe    c23  939   1.854   0.523   0.713 -0.2117  0.1607 -0.2508
  223poe    c23  940   1.732   0.450   0.655  0.0713  0.0514 -0.7125
  223poe     o2  941   1.778   0.317   0.663  0.1982  0.1272 -0.1007
  223poe    c23  942   1.679   0.235   0.605  0.2190  0.1630 -0.1866
  223poe    c23  943   1.661   0.106   0.687 -0.2068  0.2137 -0.1966
  223poe     o2  944   1.632   0.144   0.820  0.3405 -0.2045  0.0478
  223poe    c23  945   1.669   0.049   0.918 -0.8077 -0.3479  0.3558
  223poe    c23  946   1.644   0.110   1.058  0.3319 -0.0050  0.4155
  223poe     o2  947   1.732   0.219   1.070  0.6022 -0.1209 -0.4368
  223poe    c31  948   1.675   0.297   1.172  0.5632  0.0752 -0.6068
  224poe    c31  949   2.280   0.549   2.667 -0.2289 -0.1993  0.0708
  224poe     o2  950   2.146   0.514   2.690 -0.4155  0.1974 -0.3926
  224poe    c23  951   2.076   0.607   2.769  0.1289 -0.0215  0.3560
  224poe    c23  952   1.970   0.536   2.854  0.0587 -0.1508  0.1612
  224poe     o2  953   1.873   0.456   2.789 -0.1828  0.4564 -0.2277
  224poe    c23  954   1.836   0.349   2.872  0.1174  0.2901 -0.3050
  224poe    c23  955   1.787   0.223   2.798 -0.0339  0.1171  0.0866
  224poe     o2  956   1.655   0.259   2.764 -0.2085 -0.2850  0.3262
  224poe    c23  957   1.581   0.145   2.729  0.1984 -0.3655 -0.2739
  224poe    c23  958   1.428   0.141   2.743  0.2393  0.3553  0.3818
  224poe     o2  959   1.356   0.219   2.650  0.2746 -0.3393 -0.2323
  224poe    c31  960   1.228   0.243   2.703  0.0880 -0.7782 -0.4779
  225poe    c31  961   1.147   1.166   0.866  1.1790  0.1487  0.1629
  225poe     o2  962   1.194   1.190   0.736  0.5172  0.6197  0.0022
  225poe    c23  963   1.108   1.103   0.666  0.3934  0.5491  0.2423
  225poe    c23  964   1.141   1.119   0.516  0.0145 -0.5630  0.0316
  225poe     o2  965   1.129   1.253   0.475 -0.3793 -0.5536  0.1776
  225poe    c23  966   1.114   1.256   0.335  0.1965  0.7945  0.1358
  225poe    c23  967   1.076   1.395   0.280  0.3497  0.7336 -0.1291
  225poe     o2  968   1.168   1.490   0.328  0.5770  0.5247 -0.1504
  225poe    c23  969   1.118   1.622   0.323 -0.3408  0.1653 -0.6211
  225poe    c23  970   1.241   1.689   0.386 -0.3462 -0.1290 -0.2991
  225poe     o2  971   1.289   1.611   0.494 -0.1919  0.4583  0.0643
  225poe    c31  972   1.386   1.692   0.556 -0.1137  0.7920 -0.4843
  226poe    c31  973   0.652   0.695   0.548 -0.0316  0.2666 -0.0845
  226poe     o2  974   0.660   0.617   0.430  0.5017 -0.2643  0.3023
  226poe    c23  975   0.784   0.646   0.369  0.0711  0.4050 -0.2612
  226poe    c23  976   0.800   0.546   0.253  0.0179 -0.2237  0.2681
  226poe     o2  977   0.789   0.412   0.297 -0.0173 -0.2920  0.0502
  226poe    c23  978   0.806   0.340   0.177  0.4406  0.0203 -0.0766
  226poe    c23  979   0.801   0.186   0.182 -0.3176  0.0213 -0.6248
  226poe     o2  980   0.700   0.145   0.271  0.5541 -0.2440  0.2727
  226poe    c23  981   0.695   0.014   0.323 -0.0096 -0.6223 -0.7124
  226poe    c23  982   0.563  -0.000   0.402  0.4288 -0.0783  0.1220
  226poe     o2  983   0.539   0.122   0.467  0.2475  0.0246 -0.1371
  226poe    c31  984   0.420   0.122   0.543  0.0040  0.5569 -0.5163
  227poe    c31  985   1.525   1.180   4.095  0.0848 -0.1172 -0.1243
  227poe     o2  986   1.659   1.176   4.136 -0.1578  0.0564  0.7072
  227poe    c23  987   1.710   1.044   4.140  0.1282  0.1128 -0.6243
  227poe    c23  988   1.788   1.023   4.271 -0.2784 -0.2221 -0.4343
  227poe     o2  989   1.692   1.026   4.374 -0.1141 -0.0258 -0.2863
  227poe    c23  990   1.756   0.993   4.495 -0.1114  0.0678 -0.2617
  227poe    c23  991   1.668   1.015   4.619 -0.2399 -0.2562 -0.2937
  227poe     o2  992   1.547   0.945   4.639 -0.0111 -0.4238  0.5271
  227poe    c23  993   1.484   0.988   4.758 -0.0809  0.1047  0.2997
  227poe    c23  994   1.335   0.951   4.769 -0.0359  0.0665  0.8003
  227poe     o2  995   1.261   1.006   4.662  0.3024 -0.5235  0.2552
  227poe    c31  996   1.122   0.984   4.664  0.3662 -0.9218  0.2808
  228poe    c31  997   1.060   2.138   1.216 -0.1318  0.1641  0.1727
  228poe     o2  998   0.958   2.232   1.237 -0.0421  0.3108 -0.0391
  228poe    c23  999   0.877   2.185   1.343 -0.0442  0.0800 -0.1443
  228poe    c23 1000   0.755   2.277   1.360 -0.0040  0.1106 -0.0230
  228poe     o2 1001   0.672   2.272   1.245  0.6927 -0.1872 -0.5213
  228poe    c23 1002   0.583   2.163   1.236  0.4507 -0.0327 -0.0495
  228poe    c23 1003   0.491   2.181   1.115 -0.0453 -0.0962  0.3155
  228poe     o2 1004   0.564   2.180   0.995 -0.3590  0.4970  0.1103
  228poe    c23 1005   0.493   2.223   0.881 -0.1836  0.4072 -0.0347
  228poe    c23 1006   0.564   2.174   0.753 -0.0962  0.3040  0.0536
  228poe     o2 1007   0.693   2.222   0.782 -0.0374  0.3088 -0.2187
  228poe    c31 1008   0.775   2.223   0.667 -0.0253 -0.3912 -0.2207
  229poe    c31 1009   0.678   0.302   2.478  0.0615  0.0790 -0.2103
  229poe     o2 1010   0.558   0.266   2.414  0.0348  0.5896 -0.4527
  229poe    c23 1011   0.526   0.128   2.409 -0.3041  0.6588 -0.2318
  229poe    c23 1012   0.406   0.090   2.321  0.0862 -0.6966 -0.1924
  229poe     o2 1013   0.424   0.150   2.195  0.5584 -0.2812  0.0740
  229poe    c23 1014   0.324   0.093   2.115  0.3167 -0.0180  0.1861
  229poe    c23 1015   0.175   0.132   2.123  0.2601 -0.0797 -0.4703
  229poe     o2 1016   0.174   0.264   2.072  0.0950 -0.0915 -0.4968
  229poe    c23 1017   0.038   0.293   2.046 -0.0192 -0.4997 -0.3692
  229poe    c23 1018   0.025   0.442   2.009 -0.0963 -0.3336  0.3076
  229poe     o2 1019   0.034   0.462   1.870 -0.4658  0.5570  0.4106
  229poe    c31 1020   0.053   0.600   1.846 -0.0191  0.4736  0.2773
  230poe    c31 1021   1.107   1.169   6.114 -0.1591 -0.0272 -0.2329
  230poe     o2 1022   1.096   1.266   6.012 -0.0623  0.3262  0.0913
  230poe    c23 1023   1.185   1.239   5.906 -0.7239  0.0304 -0.3871
  230poe    c23 1024   1.194   1.358   5.809  0.4484  0.5259  0.3196
  230poe     o2 1025   1.079   1.388   5.733  0.2602  0.0660  0.4204
  230poe    c23 1026   1.106   1.480   5.630 -0.0052  0.1433  0.4196
  230poe    c23 1027   1.065   1.421   5.493  0.2185  0.0862  0.3765
  230poe     o2 1028   0.926   1.403   5.477  0.2611  0.3904 -0.3792
  230poe    c23 1029   0.906   1.342   5.351  0.0847 -0.6481  0.1382
  230poe    c23 1030   0.764   1.365   5.295  0.0924  0.1555  0.4247
  230poe     o2 1031   0.655   1.334   5.379  0.0457 -0.3489  0.1817
  230poe    c31 1032   0.526   1.367   5.332  0.1501  0.0978  0.2075
  231poe    c31 1033   1.811   2.000   2.013 -0.7632  0.0194 -0.2990
  231poe     o2 1034   1.741   1.908   2.093  0.0572 -0.3332  0.0258
  231poe    c23 1035   1.774   1.927   2.229 -0.2573 -0.2619  0.0940
  231poe    c23 1036   1.735   1.801   2.309 -0.2443 -0.4615 -0.2105
  231poe     o2 1037   1.832   1.701   2.293  0.2238 -0.0389 -0.0478
  231poe    c23 1038   1.789   1.574   2.337  0.1242  0.0451  0.0970
  231poe    c23 1039   1.861   1.463   2.258 -0.3222  0.0865 -0.3719
  231poe     o2 1040   1.816   1.456   2.125 -0.1999 -0.1421 -0.4026
  231poe    c23 1041   1.757   1.330   2.104 -0.5593 -0.1065  0.3825
  231poe    c23 1042   1.731   1.305   1.955  0.4544  0.0795  0.1620
  231poe     o2 1043   1.842   1.317   1.869  0.2191  0.4274 -0.0945
  231poe    c31 1044   1.819   1.230   1.760 -0.8432  0.0942  0.3775
  232poe    c31 1045   1.153   1.155   4.160  0.6382 -0.3501  0.3561
  232poe     o2 1046   1.193   1.276   4.221 -0.0816 -0.1137  0.3692
  232poe    c23 1047   1.182   1.386   4.134  0.7497 -0.1705  0.1833
  232poe    c23 1048   1.239   1.505   4.213  0.0628  0.3767 -0.1306
  232poe     o2 1049   1.201   1.493   4.348 -0.3290 -0.1254 -0.2836
  232poe    c23 1050   1.195   1.613   4.421 -0.3312 -0.2634 -0.0531
  232poe    c23 1051   1.206   1.574   4.570 -0.3498 -0.0829 -0.0040
  232poe     o2 1052   1.080   1.531   4.615 -0.2776 -0.2821  0.0060
  232poe    c23 1053   1.079   1.462   4.738 -0.1638  0.3344  0.3541
  232poe    c23 1054   0.933   1.432   4.778  0.0459  0.0147  0.8891
  232poe     o2 1055   0.881   1.318   4.714  0.2090  0.2384  0.3526
  232poe    c31 1056   0.767   1.263   4.776  0.2833 -0.2305  0.0764
  233poe    c31 1057   1.588   1.424   4.449 -0.4037 -0.0851  0.6098
  233poe     o2 1058   1.642   1.510   4.351 -0.2278 -0.5868  0.2589
  233poe    c23 1059   1.597   1.640   4.382  0.4186 -0.3775  0.3285
  233poe    c23 1060   1.651   1.721   4.262 -0.2154 -0.5531 -0.0784
  233poe     o2 1061   1.788   1.687   4.257 -0.0599  0.1331 -0.5800
  233poe    c23 1062   1.876   1.780   4.199  0.8546  0.0339  0.6084
  233poe    c23 1063   2.013   1.710   4.189  0.8551 -0.0011  0.8489
  233poe     o2 1064   2.005   1.570   4.201  0.2973 -0.1732 -1.1125
  233poe    c23 1065   2.134   1.515   4.186  0.2582 -0.6536  0.1976
  233poe    c23 1066   2.137   1.364   4.214  0.5545 -0.6547  0.1637
  233poe     o2 1067   2.118   1.356   4.354 -0.1350  0.6060  0.1559
  233poe    c31 1068   2.120   1.219   4.388 -1.1558  0.4502 -0.3942
  234poe    c31 1069   0.629   0.834   4.736 -0.3719  0.6482 -0.2233
  234poe     o2 1070   0.688   0.876   4.857  0.2817 -0.2083 -0.2255
  234poe    c23 1071   0.819   0.828   4.874  0.3206 -0.0262 -0.0030
  234poe    c23 1072   0.901   0.896   4.985  0.3959 -0.2973  0.1070
  234poe     o2 1073   0.848   0.872   5.114  0.6393 -0.3636  0.1960
  234poe    c23 1074   0.895   0.958   5.215  0.2473 -0.2615  0.2946
  234poe    c23 1075   0.820   0.931   5.347 -0.0842 -0.3333  0.0906
  234poe     o2 1076   0.690   0.985   5.348  0.2539  0.4918 -0.0495
  234poe    c23 1077   0.628   0.950   5.470  0.1807 -0.4093 -0.3425
  234poe    c23 1078   0.493   1.023   5.461  0.2761 -0.1783  0.0802
  234poe     o2 1079   0.425   0.980   5.345 -0.1126  0.1034  0.2022
  234poe    c31 1080   0.290   1.018   5.332 -0.1246  0.0342  0.1224
  235poe    c31 1081   1.899   1.219   6.146 -0.4156  0.1348 -0.1380
  235poe     o2 1082   1.869   1.084   6.120 -0.7628  0.0733  0.5529
  235poe    c23 1083   1.897   1.053   5.986 -0.5363 -0.4049  0.7061
  235poe    c23 1084   1.905   0.907   5.939 -0.1260 -0.1616 -0.0182
  235poe     o2 1085   2.003   0.824   5.997  0.0544 -0.0285 -0.1351
  235poe    c23 1086   1.984   0.690   5.958  0.3636 -0.2892  0.5911
  235poe    c23 1087   2.078   0.593   6.031  0.3826 -0.6168  0.1348
  235poe     o2 1088   2.037   0.595   6.166 -0.2698  0.0776 -0.0681
  235poe    c23 1089   2.117   0.496   6.227 -0.6671  0.3948  0.9928
  235poe    c23 1090   2.096   0.476   6.378  0.3602 -0.1521  1.0753
  235poe     o2 1091   2.141   0.584   6.457  0.3224  0.2830  0.5081
  235poe    c31 1092   2.159   0.552   6.593  0.0397 -0.7665  0.3073
  236poe    c31 1093   0.638   0.009   5.339 -0.3774  0.0638  0.0175
  236poe     o2 1094   0.655  -0.041   5.209  0.0348  0.2023  0.0157
  236poe    c23 1095   0.740   0.030   5.121 -0.0039  0.3783  0.1198
  236poe    c23 1096   0.775  -0.050   4.994  0.2433  1.1995 -0.3354
  236poe     o2 1097   0.685  -0.070   4.886 -0.2378  0.0707  0.2541
  236poe    c23 1098   0.663   0.044   4.807 -0.5572 -0.3281 -0.2305
  236poe    c23 1099   0.750   0.073   4.683 -0.2902  0.0564  0.0468
  236poe     o2 1100   0.754  -0.030   4.587 -0.1130  0.4662 -0.3871
  236poe    c23 1101   0.740   0.020   4.456  0.3859  0.4434 -0.4518
  236poe    c23 1102   0.767  -0.090   4.352  0.2592 -0.2396  0.2341
  236poe     o2 1103   0.655  -0.176   4.342  0.1400 -0.0106 -0.4449
  236poe    c31 1104   0.655  -0.242   4.218 -0.1853 -0.4912 -0.1918
  237poe    c31 1105   1.733   0.150   4.433 -0.7921 -0.0466 -0.8624
  237poe     o2 1106   1.714   0.288   4.415 -0.0233  0.2180  0.2400
  237poe    c23 1107   1.588   0.312   4.356  0.0853  0.1672 -0.0148
  237poe    c23 1108   1.561   0.460   4.326  0.0524  0.2544  0.4435
  237poe     o2 1109   1.428   0.505   4.336 -0.0424  0.0392  0.1405
  237poe    c23 1110   1.412   0.645   4.340  0.6060  0.1309 -0.3077
  237poe    c23 1111   1.268   0.687   4.306  0.3435  0.0704  0.6944
  237poe     o2 1112   1.239   0.644   4.175  0.4800  0.4788  0.5292
  237poe    c23 1113   1.104   0.620   4.146  0.7592 -0.4332 -0.0570
  237poe    c23 1114   1.092   0.544   4.012 -0.3912  0.1872 -0.3199
  237poe     o2 1115   1.139   0.411   4.018 -0.4332  0.1930  0.1790
  237poe    c31 1116   1.089   0.344   3.905 -0.4832 -0.3342  0.5084
  238poe    c31 1117   0.994   1.683   5.094 -0.1260  0.3827 -0.1634
  238poe     o2 1118   1.059   1.761   4.997 -0.2534  0.1001 -0.4795
  238poe    c23 1119   0.995   1.886   4.979 -0.1584  0.1705 -0.3354
  238poe    c23 1120   1.034   1.960   4.850 -0.4056  0.7911 -0.0551
  238poe     o2 1121   1.173   1.985   4.838 -0.2322 -0.0467  0.1641
  238poe    c23 1122   1.216   2.021   4.709  0.3265 -0.2724  0.2875
  238poe    c23 1123   1.370   2.007   4.704  0.3714  0.2587  0.0384
  238poe     o2 1124   1.420   2.033   4.833 -0.0126  0.9881  0.0428
  238poe    c23 1125   1.561   2.022   4.839 -0.1034 -0.2287  0.0971
  238poe    c23 1126   1.591   2.045   4.988  0.3726  0.0345 -0.0377
  238poe     o2 1127   1.515   1.949   5.058  0.5801 -0.1580 -0.0758
  238poe    c31 1128   1.584   1.936   5.180  0.4835 -0.4280 -0.0486
  239poe    c31 1129   2.239   2.230   3.674 -0.1293  0.6107 -0.2666
  239poe     o2 1130   2.183   2.239   3.803  0.0014  0.0140 -0.1629
  239poe    c23 1131   2.266   2.327   3.875 -0.0021 -0.3142  0.2476
  239poe    c23 1132   2.196   2.405   3.989 -0.1760 -0.0879 -0.0125
  239poe     o2 1133   2.135   2.302   4.065 -0.1013 -0.0897  0.0444
  239poe    c23 1134   2.041   2.359   4.154 -0.1664 -0.1654  0.0244
  239poe    c23 1135   1.954   2.238   4.194 -0.6138  0.2443  0.2949
  239poe     o2 1136   1.891   2.182   4.082  0.1659  0.1402 -0.1027
  239poe    c23 1137   1.795   2.091   4.131  0.3822 -0.1222 -0.1689
  239poe    c23 1138   1.696   2.041   4.025  0.0579  0.4887 -0.1556
  239poe     o2 1139   1.751   1.982   3.910  0.4033 -0.4683  0.4899
  239poe    c31 1140   1.644   1.938   3.830  0.4255  0.3625  0.0027
  240poe    c31 1141   2.156   1.582   3.203 -0.4644  0.6716 -0.2957
  240poe     o2 1142   2.164   1.650   3.079  0.3949  0.2880 -0.4545
  240poe    c23 1143   2.050   1.625   3.001  0.3675 -0.3368 -0.2229
  240poe    c23 1144   2.048   1.696   2.864 -0.1685 -0.2012 -0.1469
  240poe     o2 1145   2.115   1.613   2.772 -0.0015 -0.0714 -0.1411
  240poe    c23 1146   2.103   1.657   2.639 -0.5620  0.1926 -0.0036
  240poe    c23 1147   2.112   1.547   2.531 -0.4654  0.4020 -0.2092
  240poe     o2 1148   2.247   1.509   2.536 -0.5149  0.2478 -0.0371
  240poe    c23 1149   2.280   1.418   2.434 -0.4392 -0.2647  0.4431
  240poe    c23 1150   2.429   1.380   2.438 -0.2117  0.6212  0.3669
  240poe     o2 1151   2.455   1.282   2.535 -0.4037 -0.2151 -0.4095
  240poe    c31 1152   2.594   1.259   2.526 -0.3358  0.0335 -0.0397
  241poe    c31 1153   0.831   1.817   6.219 -0.7598 -0.2035  0.5809
  241poe     o2 1154   0.717   1.784   6.144 -0.3911 -0.3046  0.0567
  241poe    c23 1155   0.615   1.741   6.232 -0.1948 -0.2069  0.3314
  241poe    c23 1156   0.479   1.766   6.164 -0.0761  0.0169  0.1742
  241poe     o2 1157   0.482   1.900   6.121 -0.0851 -0.1353 -0.3015
  241poe    c23 1158   0.365   1.921   6.045 -0.1710  0.1090 -0.1060
  241poe    c23 1159   0.379   2.051   5.963  0.3299  0.2371  0.1776
  241poe     o2 1160   0.510   2.051   5.911  0.2591 -0.2142 -0.0073
  241poe    c23 1161   0.501   2.091   5.776  0.0773  0.2385  0.1362
  241poe    c23 1162   0.637   2.084   5.704 -0.2998  0.1934 -0.5830
  241poe     o2 1163   0.682   1.952   5.688  0.1532  0.2126  0.4494
  241poe    c31 1164   0.810   1.930   5.634 -0.2808 -0.8486 -0.1882
  242poe    c31 1165   0.602   1.424   4.426  0.0316 -0.0922 -0.3073
  242poe     o2 1166   0.686   1.316   4.393 -0.0062 -0.3456  0.3967
  242poe    c23 1167   0.621   1.221   4.313  0.3083 -0.3020  0.0836
  242poe    c23 1168   0.551   1.097   4.372 -0.0741 -0.3338 -0.4259
  242poe     o2 1169   0.436   1.136   4.443  0.2233 -0.0321 -0.1075
  242poe    c23 1170   0.372   1.038   4.521  0.3231 -0.1512 -0.1746
  242poe    c23 1171   0.328   1.094   4.658 -0.2991 -0.3206 -0.3012
  242poe     o2 1172   0.227   1.029   4.731  0.1419 -0.2278  0.3952
  242poe    c23 1173   0.090   1.052   4.708 -0.0157 -0.7890  0.7359
  242poe    c23 1174   0.041   1.198   4.696  0.6397 -0.6197  0.0892
  242poe     o2 1175   0.032   1.254   4.825  0.6836  0.1396 -0.2339
  242poe    c31 1176  -0.051   1.368   4.827  0.1296 -0.2691  0.5605
  243poe    c31 1177   1.112   1.466   2.395 -0.0395  0.3899 -0.2614
  243poe     o2 1178   1.220   1.377   2.386 -0.1412  0.1651  0.6190
  243poe    c23 1179   1.348   1.433   2.406 -0.1279  0.0134  0.9616
  243poe    c23 1180   1.459   1.330   2.376 -0.3023  0.2098 -0.4019
  243poe     o2 1181   1.420   1.243   2.272 -0.1583 -0.0127 -0.2690
  243poe    c23 1182   1.491   1.121   2.271 -0.4877 -0.2181  0.7110
  243poe    c23 1183   1.459   1.038   2.146 -0.2784  0.5188  0.1615
  243poe     o2 1184   1.330   0.981   2.161  0.0195 -0.1489  0.2349
  243poe    c23 1185   1.268   0.908   2.058 -0.4467  0.5500  0.0124
  243poe    c23 1186   1.116   0.884   2.069 -0.4527  0.2693 -0.6555
  243poe     o2 1187   1.052   1.009   2.058 -0.3076  0.3919 -0.1076
  243poe    c31 1188   0.915   0.982   2.076 -0.0241 -1.1357 -0.1100
  244poe    c31 1189   0.234   1.180   1.527  0.6529  0.0794 -0.1973
  244poe     o2 1190   0.245   1.212   1.664  0.6086  0.0414 -0.1852
  244poe    c23 1191   0.195   1.341   1.690  0.3925 -0.0942  0.0776
  244poe    c23 1192   0.197   1.370   1.841  0.4330 -0.1876  0.0949
  244poe     o2 1193   0.099   1.289   1.904 -0.2967  0.1656 -0.5663
  244poe    c23 1194   0.003   1.367   1.971 -0.4891 -0.0068 -0.6412
  244poe    c23 1195  -0.120   1.286   2.018 -0.2725 -0.0072 -0.0695
  244poe     o2 1196  -0.085   1.196   2.120 -0.3085  0.0114 -0.0405
  244poe    c23 1197  -0.207   1.133   2.152 -0.2963  0.1741  0.3394
  244poe    c23 1198  -0.180   1.028   2.261  0.2140  0.2973  0.3313
  244poe     o2 1199  -0.100   0.921   2.216 -0.0438  0.1528  0.2156
  244poe    c31 1200  -0.119   0.818   2.310  0.1511  0.1101  0.2084
  245poe    c31 1201   0.965   2.205   5.458 -0.2958 -0.2550  0.0235
  245poe     o2 1202   1.059   2.294   5.402  0.0551 -0.3074  0.5197
  245poe    c23 1203   1.019   2.427   5.379  0.6168 -0.2066  0.1156
  245poe    c23 1204   1.145   2.514   5.358  0.1402  0.4360 -0.1016
  245poe     o2 1205   1.241   2.457   5.272  0.3117  0.0924  0.3179
  245poe    c23 1206   1.322   2.562   5.222 -0.3647  0.3760 -0.2010
  245poe    c23 1207   1.450   2.522   5.146 -0.3075  0.3000 -0.0664
  245poe     o2 1208   1.552   2.463   5.223 -0.4663 -0.0633 -0.1324
  245poe    c23 1209   1.657   2.413   5.142 -0.0603 -0.2271  0.4903
  245poe    c23 1210   1.770   2.356   5.229  0.2668  0.5124  0.5605
  245poe     o2 1211   1.697   2.292   5.332 -0.4692 -0.4733 -0.5509
  245poe    c31 1212   1.795   2.235   5.414 -0.4399  0.2063 -0.1057
  246poe    c31 1213   0.821   1.096   2.385  0.1527  0.2285 -0.4431
  246poe     o2 1214   0.920   1.000   2.415  0.2738  0.6082  0.4124
  246poe    c23 1215   0.867   0.887   2.479  0.0538  0.3652 -0.1885
  246poe    c23 1216   0.807   0.774   2.393 -0.0414  0.7279 -0.5970
  246poe     o2 1217   0.904   0.694   2.328 -0.6145 -0.4134 -0.0689
  246poe    c23 1218   0.869   0.585   2.246 -0.5191 -0.3498 -0.1921
  246poe    c23 1219   0.964   0.468   2.274  0.0957  0.1224 -0.2725
  246poe     o2 1220   0.916   0.351   2.210 -0.5256 -0.0426  0.4851
  246poe    c23 1221   0.966   0.237   2.276 -0.5949  0.0456  0.6903
  246poe    c23 1222   0.922   0.119   2.188 -0.0344  0.0947  0.3356
  246poe     o2 1223   0.784   0.119   2.160  0.0627  0.0797 -0.1372
  246poe    c31 1224   0.747   0.029   2.058 -0.0580 -0.2265  0.1793
  247poe    c31 1225   1.822   1.224   1.325  0.1954  0.2318 -0.4557
  247poe     o2 1226   1.763   1.352   1.310 -0.2513  0.0679 -0.1210
  247poe    c23 1227   1.654   1.368   1.223 -0.3949  0.0187  0.0504
  247poe    c23 1228   1.626   1.516   1.192  0.1390  0.1459  0.1619
  247poe     o2 1229   1.723   1.587   1.119  0.0167  0.6399  0.4724
  247poe    c23 1230   1.684   1.722   1.122 -0.6799  0.4525  0.1365
  247poe    c23 1231   1.738   1.802   1.243 -0.2923  0.0023  0.2661
  247poe     o2 1232   1.877   1.822   1.233 -0.2004 -0.5715  0.3906
  247poe    c23 1233   1.902   1.939   1.307 -0.1041 -0.1122 -0.3654
  247poe    c23 1234   2.050   1.950   1.351 -0.3290  0.0414  0.3620
  247poe     o2 1235   2.082   1.881   1.470  0.1540  0.4779  0.4889
  247poe    c31 1236   2.220   1.865   1.493  0.1408  0.0951  0.3195
  248poe    c31 1237   2.174   0.060   0.145  0.4644 -0.4818 -0.5262
  248poe     o2 1238   2.162  -0.071   0.195  0.3129 -0.4048 -0.3603
  248poe    c23 1239   2.143  -0.160   0.087 -0.4040 -0.3605 -0.2753
  248poe    c23 1240   2.053  -0.280   0.121 -0.4131 -0.1771  0.3599
  248poe     o2 1241   2.087  -0.364   0.230  0.6795 -0.4045 -0.1480
  248poe    c23 1242   1.997  -0.472   0.227  0.1688  0.0172  0.0351
  248poe    c23 1243   2.023  -0.568   0.344  0.4168 -0.1628 -0.1677
  248poe     o2 1244   1.953  -0.690   0.355  0.2423  0.0067  0.6724
  248poe    c23 1245   1.814  -0.689   0.379  0.2278 -0.2126  0.6016
  248poe    c23 1246   1.770  -0.661   0.524  0.7094  0.2087  0.6692
  248poe     o2 1247   1.787  -0.759   0.624  0.1893 -0.1915  0.3708
  248poe    c31 1248   1.708  -0.742   0.740 -0.4934 -0.6936 -0.0119
  249poe    c31 1249   1.484   0.983   6.260  0.2850  0.2129 -0.4909
  249poe     o2 1250   1.531   0.851   6.255  0.2143  0.1545  0.2971
  249poe    c23 1251   1.513   0.805   6.123 -0.3295 -0.4799  0.5872
  249poe    c23 1252   1.551   0.661   6.083  0.1047 -0.3657  0.5842
  249poe     o2 1253   1.471   0.556   6.133 -0.7463  0.1404  0.2999
  249poe    c23 1254   1.533   0.435   6.098  0.1210  0.5521  0.3916
  249poe    c23 1255   1.477   0.320   6.184 -0.0008  0.4248  0.1407
  249poe     o2 1256   1.470   0.371   6.315  0.1093 -0.0564  0.3355
  249poe    c23 1257   1.469   0.271   6.415  0.2185 -0.0097  0.3828
  249poe    c23 1258   1.415   0.333   6.545 -0.0344  0.3365  0.1150
  249poe     o2 1259   1.318   0.426   6.501  0.0934  0.5961  0.3738
  249poe    c31 1260   1.245   0.475   6.610  0.0885  0.1043  0.5955
  250poe    c31 1261   2.091   0.854   0.793  0.0039 -0.6063  0.2771
  250poe     o2 1262   2.190   0.849   0.692 -0.5061 -0.1727 -0.2453
  250poe    c23 1263   2.296   0.771   0.740 -0.6403 -0.7394 -0.8600
  250poe    c23 1264   2.373   0.714   0.620  0.6721 -0.1230 -0.3252
  250poe     o2 1265   2.429   0.816   0.540 -0.2506  0.3500 -0.3844
  250poe    c23 1266   2.539   0.768   0.465 -0.2399 -0.4416  0.1337
  250poe    c23 1267   2.604   0.888   0.396 -0.5368 -0.1417  0.3731
  250poe     o2 1268   2.506   0.954   0.320 -0.6679 -0.1374  0.5457
  250poe    c23 1269   2.555   1.068   0.254 -0.7247 -0.3349  0.1529
  250poe    c23 1270   2.450   1.177   0.228 -0.1612  0.1446 -0.1553
  250poe     o2 1271   2.371   1.155   0.113 -0.0744  0.5483 -0.2944
  250poe    c31 1272   2.426   1.227   0.005  0.3488  0.2171 -0.3047
  251poe    c31 1273   1.018   1.519   6.212 -0.0882 -0.1309  0.2561
  251poe     o2 1274   0.901   1.440   6.222 -0.2661  0.0254 -0.5584
  251poe    c23 1275   0.832   1.444   6.345 -0.4391  0.5052 -0.6685
  251poe    c23 1276   0.709   1.351   6.352 -0.3644  0.4347 -0.2765
  251poe     o2 1277   0.623   1.383   6.245 -0.0462  0.1631 -0.6152
  251poe    c23 1278   0.508   1.303   6.236 -0.1741  0.2446  0.2223
  251poe    c23 1279   0.408   1.351   6.129  0.0464 -0.0260 -0.1067
  251poe     o2 1280   0.472   1.389   6.009  0.3808 -0.3216 -0.0241
  251poe    c23 1281   0.385   1.439   5.910  0.0620 -0.2041  0.3150
  251poe    c23 1282   0.471   1.519   5.811  0.1444 -0.8276 -0.1192
  251poe     o2 1283   0.592   1.451   5.786  0.5211 -0.1365 -0.2014
  251poe    c31 1284   0.689   1.531   5.722  0.1935  0.3879 -0.0480
  252poe    c31 1285   2.072   1.596   3.812 -0.5364  0.6749 -0.4678
  252poe     o2 1286   2.138   1.704   3.750  0.7280  0.1873  0.0070
  252poe    c23 1287   2.175   1.667   3.619  0.0482 -0.2288 -0.0707
  252poe    c23 1288   2.249   1.769   3.532 -0.3986  0.4962  0.3907
  252poe     o2 1289   2.139   1.848   3.493 -0.5445  0.2648  0.3323
  252poe    c23 1290   2.168   1.910   3.369 -0.5240 -0.3269  0.0387
  252poe    c23 1291   2.051   1.999   3.324  0.0182  0.1771 -0.3864
  252poe     o2 1292   2.039   2.108   3.414 -0.0643 -0.4092  0.3222
  252poe    c23 1293   1.956   2.205   3.355  0.3158 -0.3800 -0.1761
  252poe    c23 1294   1.912   2.325   3.442  0.5438 -0.1084 -0.4316
  252poe     o2 1295   2.032   2.395   3.461  0.6433 -0.5114  0.4549
  252poe    c31 1296   2.015   2.519   3.527  0.4404 -0.2762 -0.0413
  253poe    c31 1297   1.763   0.663   3.117  0.7244  0.6404  0.1412
  253poe     o2 1298   1.684   0.682   3.232  0.3872  0.2519 -0.0206
  253poe    c23 1299   1.735   0.598   3.333 -0.4437 -0.3671 -0.1136
  253poe    c23 1300   1.625   0.524   3.412 -0.1015 -0.8955 -0.1288
  253poe     o2 1301   1.566   0.593   3.519  0.1776 -0.1164 -0.4634
  253poe    c23 1302   1.466   0.524   3.592  0.2080  0.1557 -0.1598
  253poe    c23 1303   1.514   0.412   3.686 -0.0733 -0.1914 -0.4230
  253poe     o2 1304   1.553   0.456   3.814  0.2462 -0.2652 -0.4966
  253poe    c23 1305   1.560   0.347   3.903 -0.1923 -0.1500 -0.3203
  253poe    c23 1306   1.706   0.334   3.949 -0.1157 -0.1353 -0.5620
  253poe     o2 1307   1.791   0.296   3.842  0.6957  0.7752 -0.2647
  253poe    c31 1308   1.912   0.275   3.910  0.1221 -0.1669  0.5012
  254poe    c31 1309   1.009   0.299   1.228  1.0507  0.0680 -0.1911
  254poe     o2 1310   0.978   0.431   1.265 -0.0941 -0.1858 -0.2098
  254poe    c23 1311   0.880   0.495   1.187  0.3532  0.5367 -0.1953
  254poe    c23 1312   0.867   0.641   1.231  0.3854  0.2246  0.8798
  254poe     o2 1313   0.977   0.722   1.198  0.1728 -0.0433 -0.5568
  254poe    c23 1314   0.951   0.859   1.220 -0.0895 -0.1504 -0.2020
  254poe    c23 1315   1.080   0.932   1.178  0.0408 -0.1663  0.1619
  254poe     o2 1316   1.192   0.935   1.263  0.3500 -0.4261 -0.2326
  254poe    c23 1317   1.304   1.008   1.219  0.4161 -0.0277  0.5804
  254poe    c23 1318   1.293   1.161   1.231 -0.3874 -0.0063 -0.3626
  254poe     o2 1319   1.193   1.221   1.152 -0.9110 -0.1706  0.1714
  254poe    c31 1320   1.211   1.359   1.173 -0.4021 -0.1727 -0.2302
  255poe    c31 1321   1.901   0.552   1.399 -0.4730  0.0044 -0.9321
  255poe     o2 1322   1.884   0.414   1.420 -0.4854  0.2598  0.9630
  255poe    c23 1323   1.906   0.371   1.552  0.2892  0.4977  0.9162
  255poe    c23 1324   1.914   0.217   1.557 -0.1813  0.4363 -0.0978
  255poe     o2 1325   2.029   0.154   1.505 -0.5405 -0.3940  0.1084
  255poe    c23 1326   2.012   0.014   1.504  0.3326 -0.5087  0.3625
  255poe    c23 1327   2.130  -0.071   1.452  0.0339 -0.4021 -0.5091
  255poe     o2 1328   2.148  -0.057   1.313 -0.4355 -0.0774 -0.5385
  255poe    c23 1329   2.282  -0.087   1.284 -0.3449  0.0603 -0.2657
  255poe    c23 1330   2.347  -0.013   1.165  0.0659  0.1220 -0.0034
  255poe     o2 1331   2.343   0.125   1.193 -0.0538  0.1849 -0.3288
  255poe    c31 1332   2.373   0.204   1.080 -0.0436  0.3651 -0.2021
  256poe    c31 1333   0.087   1.884   4.789  0.1451 -0.2328 -0.0573
  256poe     o2 1334   0.152   1.943   4.899 -0.3765  0.2688 -0.0145
  256poe    c23 1335   0.267   2.015   4.862  0.1536 -0.5370  0.0333
  256poe    c23 1336   0.327   2.094   4.979  0.1644 -0.3150 -0.1205
  256poe     o2 1337   0.279   2.224   5.007  0.6254 -0.0840 -0.4076
  256poe    c23 1338   0.353   2.295   5.103  0.1828 -0.2307  0.0426
  256poe    c23 1339   0.352   2.449   5.097 -0.7026 -0.2351  0.0398
  256poe     o2 1340   0.222   2.497   5.123 -0.7861 -0.3904 -0.0846
  256poe    c23 1341   0.195   2.511   5.261 -0.0565  0.3233 -0.0031
  256poe    c23 1342   0.095   2.627   5.282 -0.3069  0.0838  0.1464
  256poe     o2 1343  -0.033   2.603   5.229 -0.4049  0.2644  0.3016
  256poe    c31 1344  -0.114   2.496   5.272 -0.2538 -0.0103 -0.0950
  257poe    c31 1345   1.462   0.972   3.633  0.1653 -0.0070 -0.1081
  257poe     o2 1346   1.518   0.904   3.742 -0.3948 -0.0850  0.1315
  257poe    c23 1347   1.437   0.877   3.855 -0.5764 -0.1934 -0.0235
  257poe    c23 1348   1.494   0.753   3.926 -0.0210 -0.2463 -0.5565
  257poe     o2 1349   1.629   0.787   3.947 -0.3296  0.4226  0.3821
  257poe    c23 1350   1.720   0.685   3.979 -0.1343  0.5767  0.3225
  257poe    c23 1351   1.863   0.743   3.991 -0.3067  0.9363  0.6564
  257poe     o2 1352   1.869   0.837   3.886 -0.4935  0.3533  0.1100
  257poe    c23 1353   2.000   0.863   3.841 -0.3192  0.1495  0.4881
  257poe    c23 1354   2.039   1.012   3.833 -0.1823  0.0815 -0.2099
  257poe     o2 1355   1.973   1.081   3.730 -0.1115  0.3435 -0.0799
  257poe    c31 1356   2.043   1.200   3.702 -0.5467  0.6599  0.1473
  258poe    c31 1357   0.292   2.332   4.655  0.3129  0.9117 -0.5971
  258poe     o2 1358   0.202   2.441   4.660 -0.3256  0.3664  0.1232
  258poe    c23 1359   0.236   2.520   4.548  0.4954  0.0945  0.1716
  258poe    c23 1360   0.151   2.648   4.555  0.3493  0.0282 -0.3332
  258poe     o2 1361   0.187   2.714   4.674 -0.5520  0.3726 -0.2472
  258poe    c23 1362   0.150   2.850   4.676 -0.6667  0.3406 -0.2017
  258poe    c23 1363   0.221   2.912   4.798 -0.2382  0.1024 -0.3300
  258poe     o2 1364   0.173   2.884   4.927 -0.3111  0.2871 -0.3166
  258poe    c23 1365   0.243   2.951   5.030  0.3264 -0.3097 -0.3532
  258poe    c23 1366   0.350   2.857   5.088  0.7078 -0.0603 -0.6467
  258poe     o2 1367   0.461   2.838   5.004  0.6438  0.1209 -0.7719
  258poe    c31 1368   0.561   2.776   5.083  0.4699  0.4266 -0.3047
  259poe    c31 1369   1.522   0.645   4.954 -0.3314  0.3336 -0.4168
  259poe     o2 1370   1.602   0.754   4.995  0.1585 -0.0742 -0.2831
  259poe    c23 1371   1.544   0.801   5.114  0.0798  0.3954 -0.5066
  259poe    c23 1372   1.570   0.948   5.152  0.0463  0.2624  0.0475
  259poe     o2 1373   1.706   0.974   5.182  0.0222  0.2007  0.2074
  259poe    c23 1374   1.716   1.114   5.185  0.1417  0.2063 -0.3496
  259poe    c23 1375   1.861   1.162   5.201  0.3634 -0.4257 -0.4277
  259poe     o2 1376   1.932   1.081   5.292 -0.2526 -0.3412  0.1389
  259poe    c23 1377   2.068   1.119   5.287 -0.3379  0.0388  0.6401
  259poe    c23 1378   2.146   1.029   5.385  0.3904  0.6103  0.5930
  259poe     o2 1379   2.120   0.891   5.373 -0.2431  0.7160  0.7239
  259poe    c31 1380   2.204   0.806   5.447 -0.4607 -0.2217 -0.0875
  260poe    c31 1381   1.746   0.530   4.637  0.1226 -0.2272  0.5660
  260poe     o2 1382   1.823   0.491   4.749  0.1416 -0.4011  0.4925
  260poe    c23 1383   1.888   0.367   4.734  0.4306 -0.1342 -0.5352
  260poe    c23 1384   1.948   0.335   4.872 -0.2518 -0.4514 -0.3081
  260poe     o2 1385   2.036   0.441   4.902 -0.2432 -0.4348 -0.3915
  260poe    c23 1386   2.102   0.426   5.026 -0.1639  0.4390 -0.3199
  260poe    c23 1387   2.209   0.537   5.026  0.2490  0.0539  0.6192
  260poe     o2 1388   2.147   0.656   4.982  0.5705 -0.1241 -0.3511
  260poe    c23 1389   2.248   0.754   4.991  0.2183  0.1669  0.4914
  260poe    c23 1390   2.186   0.891   4.960 -0.0987 -0.0728  0.0649
  260poe     o2 1391   2.140   0.921   4.830 -0.1731 -0.1847  0.0655
  260poe    c31 1392   2.063   1.039   4.826  0.2009  0.0568  0.0366
  261poe    c31 1393   2.188   2.117   6.261 -0.0198 -0.1367  0.4871
  261poe     o2 1394   2.284   2.212   6.302 -0.5232  0.4139  0.4125
  261poe    c23 1395   2.394   2.153   6.368 -0.0031  0.9094  0.0011
  261poe    c23 1396   2.527   2.193   6.301  0.7622 -0.4691  0.6415
  261poe     o2 1397   2.526   2.333   6.280 -0.0404 -0.6099 -0.3450
  261poe    c23 1398   2.651   2.386   6.243 -0.2993  0.1957 -0.0853
  261poe    c23 1399   2.631   2.528   6.186  0.7889  0.2607 -0.3261
  261poe     o2 1400   2.545   2.535   6.075  0.4300 -0.2354 -0.0845
  261poe    c23 1401   2.545   2.664   6.018  0.0662 -0.5481 -0.8091
  261poe    c23 1402   2.440   2.692   5.909 -0.2208  0.1625 -0.3553
  261poe     o2 1403   2.314   2.638   5.943  0.0006  0.1687  0.5092
  261poe    c31 1404   2.228   2.625   5.832  0.9376  0.6087 -0.2825
  262poe    c31 1405   1.191   2.051   6.276  0.0403  0.8350  0.2648
  262poe     o2 1406   1.182   2.046   6.417  0.4706  0.6470  0.2886
  262poe    c23 1407   1.211   1.917   6.466  0.7579  0.4334 -0.4278
  262poe    c23 1408   1.207   1.915   6.620  0.6170  0.2756 -0.4329
  262poe     o2 1409   1.256   2.035   6.675  0.1259  0.3680 -0.1933
  262poe    c23 1410   1.243   2.047   6.815  0.1406 -0.0215 -0.1564
  262poe    c23 1411   1.383   2.028   6.876  0.1456 -0.5358 -0.3220
  262poe     o2 1412   1.464   2.133   6.827 -0.2524  0.1300  0.4109
  262poe    c23 1413   1.601   2.109   6.855 -0.3046 -0.3136  0.3012
  262poe    c23 1414   1.652   2.130   6.999  0.5219  0.4475 -0.0959
  262poe     o2 1415   1.636   2.021   7.087  0.6300 -0.0354 -0.6650
  262poe    c31 1416   1.620   2.076   7.216  0.1692  0.0447 -0.7523
  263poe    c31 1417   1.428   0.467   1.642  0.7518 -0.4099  0.7046
  263poe     o2 1418   1.472   0.600   1.627 -0.1856 -0.1731 -0.0657
  263poe    c23 1419   1.582   0.635   1.709 -0.1298  0.1799 -0.2837
  263poe    c23 1420   1.626   0.774   1.660 -0.0779  0.2375 -0.0736
  263poe     o2 1421   1.502   0.840   1.668 -0.1282  0.1358 -0.0030
  263poe    c23 1422   1.510   0.979   1.641 -0.3140  0.1482  0.0052
  263poe    c23 1423   1.375   1.052   1.656 -0.0058  0.8132 -0.4316
  263poe     o2 1424   1.279   0.992   1.572  0.3593  0.2402 -0.4488
  263poe    c23 1425   1.169   1.080   1.574  0.2281  0.0662  0.2582
  263poe    c23 1426   1.038   1.002   1.550 -0.1498  0.5279  0.7891
  263poe     o2 1427   1.017   0.891   1.633 -0.1952 -0.1409 -0.0989
  263poe    c31 1428   0.883   0.847   1.636 -0.1955 -0.1451 -0.1975
  264poe    c31 1429   1.921   2.282   5.719 -0.3971 -0.1218  0.6975
  264poe     o2 1430   1.781   2.288   5.710 -0.3301  0.2207 -0.1621
  264poe    c23 1431   1.712   2.362   5.808  0.0986  0.0198  0.2933
  264poe    c23 1432   1.577   2.322   5.872 -0.0794  0.4109  0.1647
  264poe     o2 1433   1.476   2.342   5.775 -0.0296  0.3997  0.1106
  264poe    c23 1434   1.367   2.388   5.852 -0.3230 -0.3270  0.1400
  264poe    c23 1435   1.263   2.466   5.770  0.3633  0.1817 -0.2646
  264poe     o2 1436   1.309   2.596   5.740 -0.1144  0.3272 -0.3866
  264poe    c23 1437   1.207   2.679   5.690 -0.1713  0.5571  0.1092
  264poe    c23 1438   1.255   2.808   5.621 -0.1684  0.1880 -0.5790
  264poe     o2 1439   1.278   2.907   5.719 -0.4391 -0.1987 -0.1237
  264poe    c31 1440   1.410   2.955   5.712 -0.6798  0.5044  0.0616
  265poe    c31 1441   0.522   1.042   3.756  0.2916  0.2596 -0.5532
  265poe     o2 1442   0.488   0.921   3.691 -0.0331 -0.1928  0.4451
  265poe    c23 1443   0.350   0.894   3.704 -0.1926  0.3536 -0.0508
  265poe    c23 1444   0.324   0.759   3.633 -0.0259  0.2229  0.1353
  265poe     o2 1445   0.440   0.683   3.661 -0.2546 -0.2210 -0.1103
  265poe    c23 1446   0.424   0.562   3.591 -0.0188 -0.0350 -0.4878
  265poe    c23 1447   0.543   0.470   3.624 -0.0987 -0.0056 -0.1091
  265poe     o2 1448   0.671   0.528   3.609 -0.0996 -0.0092 -0.1312
  265poe    c23 1449   0.761   0.420   3.606 -0.2841 -0.1931  0.5907
  265poe    c23 1450   0.906   0.472   3.588 -0.2897 -0.2740  0.2992
  265poe     o2 1451   0.936   0.564   3.691  0.1600 -0.2716  0.1674
  265poe    c31 1452   1.061   0.619   3.656  0.1348 -0.3530 -0.0566
  266poe    c31 1453   0.988   1.794   2.385 -0.0669  0.6972  0.1042
  266poe     o2 1454   1.056   1.822   2.264  0.1389  0.0472  0.0666
  266poe    c23 1455   1.186   1.854   2.307  0.0311 -0.0046  0.4366
  266poe    c23 1456   1.280   1.831   2.187  0.2689  0.4070  0.5453
  266poe     o2 1457   1.234   1.905   2.076  0.1658 -0.0071  0.3102
  266poe    c23 1458   1.326   1.878   1.973 -0.4255 -0.1676 -0.1791
  266poe    c23 1459   1.258   1.924   1.843  0.3551  0.0630 -0.5152
  266poe     o2 1460   1.164   2.027   1.865 -0.3021 -0.6490  0.0699
  266poe    c23 1461   1.203   2.126   1.773  0.2605 -0.8189  0.1189
  266poe    c23 1462   1.084   2.216   1.736  0.6970 -0.2622  0.0594
  266poe     o2 1463   1.025   2.284   1.845  0.1674 -0.4580 -0.0993
  266poe    c31 1464   0.943   2.382   1.785  0.3167  0.1878  0.7237
  267poe    c31 1465   1.550   1.956   3.171 -0.5189 -0.5099 -0.3623
  267poe     o2 1466   1.411   1.959   3.148 -0.6429 -0.0994  0.3879
  267poe    c23 1467   1.387   2.003   3.016  0.4435 -0.4240  0.0663
  267poe    c23 1468   1.234   2.014   3.004  0.4499 -0.0833  0.2642
  267poe     o2 1469   1.178   1.905   3.075  0.0332  0.4498  0.7602
  267poe    c23 1470   1.041   1.930   3.099 -0.1407 -0.0281  0.2707
  267poe    c23 1471   0.980   1.816   3.181  0.3930 -0.5820 -0.0916
  267poe     o2 1472   1.076   1.788   3.281  0.2802 -0.2015  0.1261
  267poe    c23 1473   1.005   1.732   3.389  0.2879 -0.3046  0.0776
  267poe    c23 1474   1.091   1.730   3.516  0.0261  0.5029  0.2740
  267poe     o2 1475   1.138   1.859   3.548 -0.0695  0.6157 -0.0466
  267poe    c31 1476   1.244   1.854   3.641 -0.0149 -0.8070 -0.1538
  268poe    c31 1477   1.373   0.627   3.155 -0.3511  0.0058 -0.6439
  268poe     o2 1478   1.373   0.765   3.129 -0.2847  0.0155 -0.5920
  268poe    c23 1479   1.236   0.798   3.135 -0.2631  0.0407 -0.2130
  268poe    c23 1480   1.232   0.937   3.201  0.4930 -0.0403  0.0166
  268poe     o2 1481   1.323   1.025   3.139  0.1249 -0.0506 -0.5561
  268poe    c23 1482   1.308   1.152   3.198 -0.2527 -0.3236 -0.0583
  268poe    c23 1483   1.444   1.221   3.180 -0.6411  0.5624  0.3311
  268poe     o2 1484   1.539   1.129   3.228 -0.5021  0.6516  0.2292
  268poe    c23 1485   1.674   1.168   3.221 -0.4295  0.3913  0.1602
  268poe    c23 1486   1.743   1.155   3.358 -0.4451 -0.3282  0.1013
  268poe     o2 1487   1.763   1.018   3.388  0.1980 -0.3028 -0.1830
  268poe    c31 1488   1.897   1.005   3.427  0.2619 -0.8379 -0.5683
  269poe    c31 1489   0.027   0.423   3.207  0.1535  0.0347  0.6261
  269poe     o2 1490   0.040   0.284   3.225  0.1233  0.0344  0.6456
  269poe    c23 1491  -0.064   0.227   3.302 -0.6918  0.0932 -0.3869
  269poe    c23 1492  -0.054   0.073   3.301 -0.5684  0.0911  0.4174
  269poe     o2 1493   0.082   0.048   3.330 -0.4236 -0.0096 -0.3210
  269poe    c23 1494   0.130  -0.085   3.337  0.3249  0.2127 -1.0743
  269poe    c23 1495   0.157  -0.142   3.196 -0.0255 -0.6344 -0.8062
  269poe     o2 1496   0.246  -0.043   3.150  0.1402 -0.3708  0.0519
  269poe    c23 1497   0.280  -0.053   3.013 -1.0236 -0.1475 -0.2633
  269poe    c23 1498   0.300   0.086   2.950 -0.5225 -0.0976 -0.0007
  269poe     o2 1499   0.208   0.180   3.001 -0.6827 -0.1203 -0.2506
  269poe    c31 1500   0.216   0.293   2.917 -0.2251  0.0111 -0.0307
  270poe    c31 1501   1.043   2.360   3.725  0.8477 -0.1387  0.1752
  270poe     o2 1502   0.943   2.272   3.680  0.3017  0.1519  0.8065
  270poe    c23 1503   0.886   2.187   3.778  0.2084 -0.6950  0.0303
  270poe    c23 1504   0.784   2.106   3.696  0.2309 -0.3535 -0.3442
  270poe     o2 1505   0.696   2.191   3.627 -0.1686 -0.6545 -0.2118
  270poe    c23 1506   0.589   2.125   3.563 -0.5131 -0.3566  0.0455
  270poe    c23 1507   0.521   2.216   3.459 -0.0522  0.1800  0.2076
  270poe     o2 1508   0.598   2.262   3.350 -0.1305  0.1704  0.1478
  270poe    c23 1509   0.546   2.241   3.221 -0.0918  0.3301  0.1053
  270poe    c23 1510   0.649   2.289   3.118 -0.4400 -0.0254 -0.4128
  270poe     o2 1511   0.657   2.430   3.124 -0.0249 -0.0459 -0.4488
  270poe    c31 1512   0.737   2.491   3.026  0.0306  0.5364 -0.0432
  271lim     li 1513   1.484   0.927   3.152  0.4047 -0.0889 -0.1072
  272lim     li 1514   1.633   0.452   2.468 -0.6616  0.1757 -1.5572
  273lim     li 1515   1.850   1.524   4.284 -0.0688  1.5839 -0.5426
  274lim     li 1516   0.660   0.255   0.403  1.3998  0.5736  0.3150
  275lim     li 1517   1.161   1.332   4.391  0.6077  0.7477  0.4083
  276lim     li 1518   0.559   0.547   6.153 -0.6359 -0.9662 -0.4673
  277lim     li 1519   1.707   0.888   3.796  0.9548  0.6827  0.9863
  278lim     li 1520   0.092   1.763   2.837  0.6833 -0.1120 -0.8818
  279lim     li 1521   0.452   0.331   2.183 -0.6665 -0.2232  0.7507
  280lim     li 1522   1.856   0.825   6.412 -0.0231  0.0301 -0.6809
  281lim     li 1523   0.805   2.320   3.577 -0.4178  0.0818  0.2533
  282lim     li 1524   1.982   0.603   4.865  0.2179  0.0187 -0.7591
  283lim     li 1525   0.632   1.937   6.027  0.1089  1.1616  0.5867
  284lim     li 1526   2.204   1.094   0.097 -0.0586 -0.2870  0.4252
  285lim     li 1527   1.901   1.990   3.821 -0.4963 -0.3007  0.1978
  286lim     li 1528   2.037   1.497   1.169 -0.1621 -0.2761 -0.8569
  287lim     li 1529   1.350   0.752   1.609 -0.0937 -0.7082 -0.0263
  288lim     li 1530   0.169   0.931   1.971 -0.0212 -0.6963  0.2953
  289lim     li 1531   1.243   1.227   2.266 -0.3998  0.1132 -0.0582
  290lim     li 1532   1.564   0.030   5.372 -0.1318 -0.6935 -0.9949
  291lim     li 1533   0.643   1.344   5.942 -0.3650  0.2967 -0.2194
  292lim     li 1534   0.559   0.965   5.224  0.5256 -0.1993 -0.8510
  293lim     li 1535   0.184   1.961   0.277  0.0565 -0.5063 -0.1228
  294lim     li 1536   1.331   1.973   4.987 -0.0152 -0.6407  0.1365
  295lim     li 1537   2.290   0.378   1.529  0.0961  0.0960  0.7193
  296lim     li 1538   1.839   0.929   5.302 -0.9756  0.2117  0.3391
  297lim     li 1539   2.117   0.259   2.386  0.0007  0.2404 -0.1544
  298lim     li 1540   0.608   1.998   4.642 -0.3058 -0.3254 -0.4288
  299lim     li 1541   0.623   0.741   3.653  0.8994 -0.8295 -0.7276
  300lim     li 1542   1.289   1.442   0.470 -0.7557  0.2376 -0.4299
  301lim     li 1543   0.276   0.767   4.152 -0.3468 -0.2718 -0.3219
  302lim     li 1544   0.485   1.110   2.999 -0.8756 -0.0625 -1.0445
  303lim     li 1545   1.106   0.214   4.384  0.3035 -0.9782  0.5992
  304lim     li 1546   1.235   2.166   6.535 -0.6808  0.0022 -0.6860
  305lim     li 1547   0.167   0.168   3.203 -0.5855  0.9922  0.0115
  306lim     li 1548   1.918   0.203   1.066  0.2918  0.9607  0.2497
  307lim     li 1549   2.066   1.373   0.573  0.5261 -0.1675  0.6264
  308lim     li 1550   1.096   1.994   2.025  0.1903  0.3765  1.2725
  309lim     li 1551   1.159   0.598   5.825 -0.5073 -0.0399 -1.1470
  310lim     li 1552   0.580   2.033   2.209 -0.1671  0.3168  0.5035
  311lim     li 1553   1.239   0.267   0.927  0.5409  1.4802  0.4383
  312lim     li 1554   0.706   1.349   1.136 -0.8139  0.5145  0.9626
  313lim     li 1555   0.038   1.480   0.719 -0.2038 -0.0408 -0.1967
  314lim     li 1556   1.377   0.512   6.355 -1.3306 -0.3589 -0.6635
  315lim     li 1557   0.388   1.688   3.923 -0.0905 -0.3318 -0.1390
  316lim     li 1558   1.821   1.734   1.798 -0.2340  0.7668 -0.8651
  317lim     li 1559   0.012   1.189   2.682 -0.8576  0.3958  0.2905
  318lim     li 1560   1.135   1.507   2.841  0.1086  0.5552  0.1157
  319lim     li 1561   0.748   2.185   0.951  0.0241 -0.9354  0.0666
  320lim     li 1562   1.756   1.616   5.910  1.3329 -0.0150 -0.8638
  321lim     li 1563   0.039   1.956   5.304 -1.2949 -0.4761  0.7248
  322lim     li 1564   2.351   0.025   6.245  0.5878 -0.5996  0.5947
  323lim     li 1565   0.063   0.082   4.764  0.2463  0.0816 -0.2436
  324lim     li 1566   1.263   1.882   3.230 -1.1453  0.4272  0.9129
  325ntf    cn1 1567   0.818   1.415   3.338  0.1252 -0.1331 -0.1416
  325ntf    sn2 1568   0.922   1.271   3.296  0.1352 -0.1475 -0.0670
  325ntf    nn3 1569   0.972   1.222   3.437 -0.2572 -0.0088  0.1205
  325ntf    sn2 1570   0.994   1.083   3.505  0.3946  0.1601  0.2563
  325ntf    cn1 1571   0.937   1.124   3.672  0.0622  0.2143  0.1293
  325ntf    fn4 1572   0.697   1.389   3.383  0.0383 -0.0138 -0.3086
  325ntf    fn4 1573   0.868   1.497   3.428 -0.2925 -0.3219  0.2630
  325ntf    fn4 1574   0.804   1.491   3.231  0.4012  0.1687  0.0331
  325ntf    on5 1575   0.826   1.187   3.229 -0.3245  0.2198  0.1240
  325ntf    on5 1576   1.027   1.325   3.214 -0.2148  0.0205 -0.4073
  325ntf    on5 1577   1.132   1.042   3.522  0.3029 -0.2149  0.1245
  325ntf    on5 1578   0.905   0.977   3.466  0.3615  0.2376  0.1211
  325ntf    fn4 1579   0.995   1.046   3.762  0.0308 -0.5703 -0.5162
  325ntf    fn4 1580   0.973   1.247   3.706  0.4776  0.1233  0.0257
  325ntf    fn4 1581   0.806   1.112   3.692 -0.0619 -0.1640 -0.8799
  326ntf    cn1 1582   0.973   2.283   2.596  0.4281 -0.0907 -0.0370
  326ntf    sn2 1583   0.862   2.152   2.535  0.0871  0.0709  0.2307
  326ntf    nn3 1584   0.916   2.034   2.624  0.0667 -0.0821  0.0412
  326ntf    sn2 1585   0.838   1.954   2.735  0.3179 -0.0585  0.2338
  326ntf    cn1 1586   0.853   2.081   2.864  0.0784 -0.0637  0.2675
  326ntf    fn4 1587   0.937   2.392   2.530 -0.1211 -0.5150 -0.4568
  326ntf    fn4 1588   0.957   2.304   2.725 -0.0678 -0.2522 -0.0659
  326ntf    fn4 1589   1.100   2.253   2.580  0.3507 -0.4824  0.0695
  326ntf    on5 1590   0.731   2.208   2.557 -0.0505  0.0111 -0.3972
  326ntf    on5 1591   0.916   2.141   2.402  0.1073  0.1710  0.2305
  326ntf    on5 1592   0.918   1.849   2.792  0.0994 -0.3512  0.0036
  326ntf    on5 1593   0.697   1.937   2.713  0.2798  0.2792  0.2048
  326ntf    fn4 1594   0.791   2.190   2.822 -0.4614 -0.6081 -0.3542
  326ntf    fn4 1595   0.799   2.042   2.978 -0.2642  0.1480  0.1773
  326ntf    fn4 1596   0.974   2.127   2.892  0.2921  0.1157 -0.8979
  327ntf    cn1 1597   1.166   1.852   5.381  0.0958 -0.3275 -0.1772
  327ntf    sn2 1598   1.292   1.890   5.506 -0.1235 -0.0827 -0.0278
  327ntf    nn3 1599   1.205   1.857   5.632 -0.1901  0.0211 -0.0473
  327ntf    sn2 1600   1.232   1.859   5.787 -0.0775  0.1973 -0.0680
  327ntf    cn1 1601   1.161   2.018   5.841 -0.1797  0.2749 -0.4308
  327ntf    fn4 1602   1.141   1.722   5.373  0.5338 -0.4041 -0.3297
  327ntf    fn4 1603   1.050   1.907   5.415 -0.0331 -0.6410 -0.1085
  327ntf    fn4 1604   1.189   1.894   5.258 -0.0277 -0.1777 -0.1495
  327ntf    on5 1605   1.400   1.802   5.467 -0.1393  0.1192 -0.5304
  327ntf    on5 1606   1.310   2.031   5.485 -0.0841 -0.1457 -0.4340
  327ntf    on5 1607   1.372   1.863   5.822 -0.1118  0.6839  0.0199
  327ntf    on5 1608   1.154   1.760   5.858  0.1964  0.1143  0.1165
  327ntf    fn4 1609   1.041   2.048   5.795 -0.0302  0.5305 -0.6570
  327ntf    fn4 1610   1.159   2.017   5.973 -0.3680  0.5189 -0.4331
  327ntf    fn4 1611   1.239   2.121   5.814 -0.1324  0.2739 -0.2983
  328ntf    cn1 1612   1.509   2.359   4.140 -0.1251 -0.4103 -0.0102
  328ntf    sn2 1613   1.344   2.300   4.093 -0.1805 -0.0866 -0.2251
  328ntf    nn3 1614   1.352   2.145   4.120 -0.6278  0.0053  0.4630
  328ntf    sn2 1615   1.303   2.058   4.241 -0.4631 -0.1897  0.3902
  328ntf    cn1 1616   1.199   1.942   4.147 -0.0214 -0.0157 -0.3179
  328ntf    fn4 1617   1.552   2.321   4.259 -0.1620  0.1097  0.1677
  328ntf    fn4 1618   1.606   2.322   4.057 -0.2846 -0.6383 -0.0973
  328ntf    fn4 1619   1.517   2.490   4.147 -0.0103 -0.3926 -0.4376
  328ntf    on5 1620   1.251   2.364   4.182 -0.1377  0.3073 -0.4591
  328ntf    on5 1621   1.331   2.332   3.953 -0.7646 -0.4271 -0.2514
  328ntf    on5 1622   1.219   2.116   4.343  0.3262  0.1568  0.8537
  328ntf    on5 1623   1.412   1.978   4.290  0.1392  0.3239 -0.0846
  328ntf    fn4 1624   1.108   2.002   4.072  0.2842  0.5312 -0.2588
  328ntf    fn4 1625   1.258   1.862   4.060  0.1049 -0.2582 -0.0093
  328ntf    fn4 1626   1.128   1.875   4.236  0.3703 -0.0613 -0.0332
  329ntf    cn1 1627   1.384   0.148   0.294 -0.0598  0.2026 -0.4092
  329ntf    sn2 1628   1.203   0.165   0.301 -0.0676  0.0096 -0.1016
  329ntf    nn3 1629   1.177   0.320   0.314 -0.5991 -0.1279  0.4918
  329ntf    sn2 1630   1.203   0.407   0.442  0.0825 -0.0412  0.2976
  329ntf    cn1 1631   1.276   0.556   0.367  0.2316 -0.0915  0.3440
  329ntf    fn4 1632   1.428   0.040   0.357 -0.4190  0.1632 -0.2187
  329ntf    fn4 1633   1.429   0.146   0.170 -0.4674  0.4446 -0.5642
  329ntf    fn4 1634   1.444   0.250   0.354  0.3070 -0.1572 -0.1619
  329ntf    on5 1635   1.147   0.118   0.177 -0.0740  0.4662 -0.2765
  329ntf    on5 1636   1.167   0.088   0.417 -0.2598  0.6677  0.2820
  329ntf    on5 1637   1.303   0.369   0.538 -0.0495 -0.6155  0.2080
  329ntf    on5 1638   1.079   0.457   0.497  0.0397  0.7091 -0.4501
  329ntf    fn4 1639   1.302   0.649   0.457 -0.4914  0.1606  0.2909
  329ntf    fn4 1640   1.383   0.523   0.295  0.0155 -0.2926  0.1115
  329ntf    fn4 1641   1.193   0.617   0.285 -0.0916 -0.1262  0.6454
  330ntf    cn1 1642   0.041   1.986   5.885 -0.1563  0.2168 -0.0294
  330ntf    sn2 1643  -0.008   2.118   5.770 -0.0594  0.2771 -0.0013
  330ntf    nn3 1644   0.134   2.168   5.728  0.3622 -0.7900  0.1239
  330ntf    sn2 1645   0.165   2.241   5.592  0.4222 -0.5635  0.2581
  330ntf    cn1 1646   0.207   2.404   5.660  0.0767 -0.3987  0.0751
  330ntf    fn4 1647   0.090   2.036   5.997 -0.0915  0.1190 -0.0149
  330ntf    fn4 1648  -0.058   1.906   5.921  0.3106 -0.2403  0.2575
  330ntf    fn4 1649   0.148   1.922   5.841 -0.2070  0.2464 -0.1975
  330ntf    on5 1650  -0.075   2.044   5.666 -0.0580  0.0918  0.1281
  330ntf    on5 1651  -0.083   2.204   5.860  0.2577 -0.0406  0.5709
  330ntf    on5 1652   0.054   2.264   5.503  0.4101  0.1594  0.4588
  330ntf    on5 1653   0.298   2.201   5.552  0.3276 -0.2692 -0.3642
  330ntf    fn4 1654   0.245   2.484   5.562 -0.0246  0.0040  0.3581
  330ntf    fn4 1655   0.101   2.463   5.714 -0.1576 -0.5346 -0.2299
  330ntf    fn4 1656   0.302   2.404   5.752  0.2695  0.0666 -0.1199
  331ntf    cn1 1657   1.630   2.344   1.915  0.3170 -0.3414 -0.2072
  331ntf    sn2 1658   1.672   2.373   2.089  0.1461  0.0734 -0.2346
  331ntf    nn3 1659   1.553   2.298   2.158  0.2435  0.0178 -0.1260
  331ntf    sn2 1660   1.414   2.353   2.207  0.1650 -0.3463  0.0617
  331ntf    cn1 1661   1.360   2.222   2.322  0.3117 -0.1331  0.3749
  331ntf    fn4 1662   1.645   2.215   1.892  0.4011 -0.4098  0.2239
  331ntf    fn4 1663   1.509   2.386   1.881  0.3134 -0.0055  0.2095
  331ntf    fn4 1664   1.715   2.401   1.831  0.2644 -0.1959 -0.1618
  331ntf    on5 1665   1.800   2.307   2.093  0.0654 -0.0488  0.4357
  331ntf    on5 1666   1.679   2.517   2.087  0.6103  0.0480 -0.5707
  331ntf    on5 1667   1.309   2.343   2.110 -0.4065 -0.1607  0.6549
  331ntf    on5 1668   1.430   2.467   2.295  0.2306 -0.4968  0.2466
  331ntf    fn4 1669   1.448   2.216   2.421 -0.3666 -0.2544  0.9805
  331ntf    fn4 1670   1.243   2.252   2.376  0.0735  0.0982 -0.2665
  331ntf    fn4 1671   1.351   2.103   2.267 -0.2386 -0.1730  0.5479
  332ntf    cn1 1672   1.301   0.117   1.540  0.0232  0.2310 -0.0375
  332ntf    sn2 1673   1.422   0.029   1.437 -0.1603  0.1025 -0.1436
  332ntf    nn3 1674   1.439  -0.109   1.510 -0.3821 -0.2193 -0.6930
  332ntf    sn2 1675   1.525  -0.230   1.456  0.3825  0.1079 -0.2269
  332ntf    cn1 1676   1.387  -0.347   1.437  0.1421  0.2687  0.4898
  332ntf    fn4 1677   1.182   0.088   1.490 -0.0668 -0.1286  0.3835
  332ntf    fn4 1678   1.291   0.075   1.664 -0.1966 -0.7283 -0.3712
  332ntf    fn4 1679   1.313   0.249   1.542  0.0040  0.2331 -0.0525
  332ntf    on5 1680   1.352   0.027   1.310  0.2473  0.0193 -0.3693
  332ntf    on5 1681   1.543   0.107   1.444 -0.2939  0.2908  0.0717
  332ntf    on5 1682   1.611  -0.294   1.552 -0.2844 -0.3760  0.0632
  332ntf    on5 1683   1.580  -0.219   1.323  0.1800  0.7828 -0.2603
  332ntf    fn4 1684   1.338  -0.398   1.549 -0.4032 -0.5978 -0.1328
  332ntf    fn4 1685   1.282  -0.300   1.372 -0.0069  0.0486  0.5667
  332ntf    fn4 1686   1.436  -0.446   1.364 -0.4043  0.0605  0.4004
  333ntf    cn1 1687   0.931   1.661   0.595  0.2722  0.2547  0.0409
  333ntf    sn2 1688   0.924   1.689   0.775 -0.1704  0.3207  0.0149
  333ntf    nn3 1689   1.072   1.734   0.802  0.0717 -0.4512 -0.0126
  333ntf    sn2 1690   1.181   1.670   0.895  0.2438 -0.2099 -0.0459
  333ntf    cn1 1691   1.286   1.812   0.938  0.0601 -0.0475 -0.1318
  333ntf    fn4 1692   1.016   1.567   0.560  0.0623  0.0865 -0.0189
  333ntf    fn4 1693   0.809   1.637   0.549  0.3346  0.4412 -0.2275
  333ntf    fn4 1694   0.972   1.772   0.536  0.2677  0.1940 -0.0757
  333ntf    on5 1695   0.830   1.798   0.785  0.1422  0.5823  0.1107
  333ntf    on5 1696   0.890   1.560   0.829  0.0458  0.1557 -0.2395
  333ntf    on5 1697   1.265   1.575   0.826 -0.3443 -0.3389 -0.5971
  333ntf    on5 1698   1.124   1.626   1.020 -0.5389  0.0333 -0.3077
  333ntf    fn4 1699   1.357   1.860   0.838  0.1379  0.1395  0.0140
  333ntf    fn4 1700   1.217   1.912   0.990  0.1676  0.1093 -0.2936
  333ntf    fn4 1701   1.371   1.775   1.033 -0.6285 -0.5573  0.3044
  334ntf    cn1 1702   0.864   0.655   2.843 -0.3703  0.2073 -0.2876
  334ntf    sn2 1703   0.802   0.695   3.009  0.1168  0.0610 -0.0676
  334ntf    nn3 1704   0.751   0.555   3.059 -0.3902  0.3188  0.1445
  334ntf    sn2 1705   0.629   0.533   3.155 -0.3005 -0.1291  0.1582
  334ntf    cn1 1706   0.508   0.464   3.038 -0.0886  0.2300 -0.2748
  334ntf    fn4 1707   0.957   0.561   2.852 -0.3231  0.3231  0.4344
  334ntf    fn4 1708   0.783   0.606   2.750 -0.5957 -0.0096  0.0249
  334ntf    fn4 1709   0.912   0.766   2.788 -0.5405  0.0752 -0.7062
  334ntf    on5 1710   0.921   0.742   3.075 -0.0368 -0.0414  0.2828
  334ntf    on5 1711   0.707   0.797   2.972  0.3228  0.3128  0.0953
  334ntf    on5 1712   0.571   0.656   3.202  0.0013  0.1647 -0.2334
  334ntf    on5 1713   0.654   0.429   3.251 -0.2722 -0.2655  0.0042
  334ntf    fn4 1714   0.555   0.356   2.979 -0.3257 -0.2487  0.4014
  334ntf    fn4 1715   0.404   0.421   3.107  0.4801  0.2357  0.6005
  334ntf    fn4 1716   0.461   0.550   2.949 -0.0653  0.8029  0.2590
  335ntf    cn1 1717   1.795   1.517   4.982 -0.0729 -0.1604 -0.1484
  335ntf    sn2 1718   1.741   1.409   4.846 -0.1206 -0.1218 -0.1593
  335ntf    nn3 1719   1.599   1.367   4.898 -0.1433 -0.0846 -0.1903
  335ntf    sn2 1720   1.455   1.420   4.864 -0.1711  0.2048  0.3704
  335ntf    cn1 1721   1.366   1.362   5.011 -0.2145 -0.3096  0.1426
  335ntf    fn4 1722   1.705   1.609   5.013  0.1943 -0.0203  0.2117
  335ntf    fn4 1723   1.828   1.450   5.092  0.2089  0.6504  0.2687
  335ntf    fn4 1724   1.905   1.579   4.944 -0.4148  0.4729 -0.1200
  335ntf    on5 1725   1.760   1.492   4.730 -0.0954 -0.1783 -0.1955
  335ntf    on5 1726   1.827   1.295   4.862 -0.0043  0.1623  1.3491
  335ntf    on5 1727   1.405   1.357   4.744 -0.0922 -0.4383  0.6698
  335ntf    on5 1728   1.433   1.563   4.861 -0.3154  0.1803  0.2795
  335ntf    fn4 1729   1.367   1.230   5.020  0.4032 -0.3122  0.0432
  335ntf    fn4 1730   1.415   1.413   5.123  0.4453 -0.2699 -0.1630
  335ntf    fn4 1731   1.240   1.402   4.999  0.1018  0.4701 -0.6653
  336ntf    cn1 1732   1.123   0.022   6.222  0.0344  0.2455  0.0491
  336ntf    sn2 1733   1.015   0.137   6.132 -0.0249  0.1358 -0.0198
  336ntf    nn3 1734   0.935   0.036   6.042  0.3140  0.1886 -0.3856
  336ntf    sn2 1735   0.790   0.063   5.989  0.0062 -0.1272  0.2735
  336ntf    cn1 1736   0.847   0.162   5.847 -0.3045 -0.3564 -0.0144
  336ntf    fn4 1737   1.213   0.085   6.296  0.0189  0.6915 -0.3144
  336ntf    fn4 1738   1.059  -0.065   6.298  0.0753  0.5359  0.4194
  336ntf    fn4 1739   1.198  -0.054   6.144 -0.5083 -0.3397  0.0860
  336ntf    on5 1740   0.943   0.190   6.245 -0.2010 -0.0205 -0.0596
  336ntf    on5 1741   1.105   0.228   6.066 -0.2878  0.0396 -0.5154
  336ntf    on5 1742   0.697   0.148   6.059 -0.0396  0.2520 -0.2344
  336ntf    on5 1743   0.734  -0.051   5.921 -0.1233  0.1088 -0.0194
  336ntf    fn4 1744   0.921   0.081   5.773  0.2971  0.1536  0.0217
  336ntf    fn4 1745   0.748   0.194   5.765 -0.3035  0.3647  0.2518
  336ntf    fn4 1746   0.916   0.274   5.864 -0.4740 -0.2231 -0.1953
  337ntf    cn1 1747   0.634   1.798   3.207  0.0911 -0.1877 -0.1239
  337ntf    sn2 1748   0.470   1.819   3.131  0.0862 -0.4779 -0.1966
  337ntf    nn3 1749   0.402   1.861   3.266  0.1349 -0.2226 -0.2508
  337ntf    sn2 1750   0.275   1.800   3.335  0.3281 -0.4524 -0.0968
  337ntf    cn1 1751   0.353   1.686   3.453  0.2944 -0.2493  0.1211
  337ntf    fn4 1752   0.691   1.917   3.215  0.4043 -0.3095 -0.5306
  337ntf    fn4 1753   0.630   1.746   3.329  0.1067  0.3352  0.0999
  337ntf    fn4 1754   0.713   1.726   3.129  0.3106  0.3937 -0.4374
  337ntf    on5 1755   0.486   1.936   3.049  0.3539 -0.1534  0.3125
  337ntf    on5 1756   0.433   1.691   3.076 -0.2516 -0.2826 -0.4263
  337ntf    on5 1757   0.188   1.717   3.255 -0.1873 -0.2794  0.2831
  337ntf    on5 1758   0.208   1.888   3.426  0.6977 -0.4953  0.2165
  337ntf    fn4 1759   0.447   1.618   3.390  0.4024 -0.0961  0.1158
  337ntf    fn4 1760   0.408   1.748   3.556  0.3187 -0.1443  0.0443
  337ntf    fn4 1761   0.265   1.596   3.494  0.3557 -0.3555  0.0189
  338ntf    cn1 1762   0.030   1.083   3.255  0.2644 -0.0636  0.0348
  338ntf    sn2 1763  -0.138   1.127   3.202  0.1350 -0.3084  0.2377
  338ntf    nn3 1764  -0.178   0.978   3.176 -0.2439 -0.1077 -0.3728
  338ntf    sn2 1765  -0.157   0.900   3.041  0.2017 -0.2651 -0.2161
  338ntf    cn1 1766  -0.303   0.956   2.948 -0.2692 -0.4825  0.3834
  338ntf    fn4 1767   0.094   1.188   3.306 -0.0636  0.2593 -0.2127
  338ntf    fn4 1768   0.038   0.986   3.345  0.2328  0.1744  0.2960
  338ntf    fn4 1769   0.109   1.045   3.156  0.3443  0.1703  0.0069
  338ntf    on5 1770  -0.198   1.184   3.320  0.3708  0.0003  0.2111
  338ntf    on5 1771  -0.113   1.218   3.092  0.2433 -0.4472  0.1478
  338ntf    on5 1772  -0.198   0.764   3.064 -0.0028 -0.1021  0.3996
  338ntf    on5 1773  -0.041   0.928   2.959  0.6797  0.4958  0.6914
  338ntf    fn4 1774  -0.269   1.068   2.887 -0.7828 -0.3098  0.4145
  338ntf    fn4 1775  -0.348   0.868   2.860 -0.3302  0.1851 -0.2618
  338ntf    fn4 1776  -0.404   0.984   3.028 -0.4966  0.1246 -0.1084
  339ntf    cn1 1777   1.596   1.188   5.676 -0.0044 -0.3575  0.3712
  339ntf    sn2 1778   1.492   1.038   5.679 -0.2388 -0.1978  0.2750
  339ntf    nn3 1779   1.383   1.073   5.572  0.1355  0.2744  0.0399
  339ntf    sn2 1780   1.238   1.011   5.563  0.2895 -0.1133  0.1926
  339ntf    cn1 1781   1.273   0.914   5.413 -0.0492  0.1157 -0.0357
  339ntf    fn4 1782   1.524   1.298   5.686 -0.2114 -0.4534 -0.0199
  339ntf    fn4 1783   1.688   1.184   5.771  0.3395 -0.1345  0.0493
  339ntf    fn4 1784   1.673   1.205   5.570 -0.3166 -0.2848  0.1518
  339ntf    on5 1785   1.582   0.940   5.623 -0.5390 -0.0123 -0.5503
  339ntf    on5 1786   1.449   1.030   5.816 -0.9862 -0.2913  0.0401
  339ntf    on5 1787   1.143   1.109   5.518  0.2226  0.0253  0.6354
  339ntf    on5 1788   1.200   0.904   5.651 -0.3763 -0.1237 -0.1030
  339ntf    fn4 1789   1.336   0.979   5.316  0.0662 -0.1389 -0.1306
  339ntf    fn4 1790   1.356   0.815   5.440  0.4414  0.4030 -0.4646
  339ntf    fn4 1791   1.163   0.870   5.355  0.1728  0.3661 -0.6581
  340ntf    cn1 1792   1.935   1.991   0.853 -0.3471 -0.1129 -0.1624
  340ntf    sn2 1793   2.062   2.111   0.802 -0.1497 -0.2544 -0.0054
  340ntf    nn3 1794   2.185   2.016   0.782 -0.1437 -0.2926  0.2127
  340ntf    sn2 1795   2.256   1.951   0.658 -0.3203  0.2594 -0.1812
  340ntf    cn1 1796   2.429   1.973   0.709 -0.2595 -0.4187 -0.0796
  340ntf    fn4 1797   1.971   1.919   0.959 -0.0184  0.3529  0.0494
  340ntf    fn4 1798   1.826   2.060   0.884 -0.1404  0.0786  0.1448
  340ntf    fn4 1799   1.912   1.898   0.762 -0.3850 -0.1502 -0.1146
  340ntf    on5 1800   2.008   2.162   0.678  0.1830 -0.0485 -0.0669
  340ntf    on5 1801   2.080   2.203   0.911  0.3130 -0.3384 -0.0077
  340ntf    on5 1802   2.247   2.011   0.527 -0.1331 -0.4094 -0.5078
  340ntf    on5 1803   2.256   1.807   0.663 -0.0037  0.2758  0.3829
  340ntf    fn4 1804   2.470   1.888   0.801  0.1091 -0.2355 -0.0740
  340ntf    fn4 1805   2.507   1.951   0.604 -0.4003 -0.1103 -0.2506
  340ntf    fn4 1806   2.455   2.098   0.743  0.1262 -0.4751 -0.1611
  341ntf    cn1 1807   1.464   1.520   3.811 -0.5334 -0.1534 -0.1210
  341ntf    sn2 1808   1.614   1.427   3.764 -0.1828  0.2856  0.1172
  341ntf    nn3 1809   1.628   1.498   3.624 -0.0200  0.1165  0.0473
  341ntf    sn2 1810   1.703   1.620   3.562  0.3464 -0.0851  0.0944
  341ntf    cn1 1811   1.768   1.518   3.427 -0.1426  0.2689 -0.4125
  341ntf    fn4 1812   1.374   1.535   3.716 -0.0591 -0.5889 -0.6507
  341ntf    fn4 1813   1.390   1.467   3.907 -0.3347  0.4407  0.3732
  341ntf    fn4 1814   1.494   1.642   3.853 -0.2321 -0.1646 -0.3001
  341ntf    on5 1815   1.714   1.468   3.859 -0.1544 -0.2248  0.3079
  341ntf    on5 1816   1.572   1.289   3.764  0.2466  0.1537 -0.4294
  341ntf    on5 1817   1.816   1.684   3.625  0.1977  0.5723 -0.2925
  341ntf    on5 1818   1.613   1.706   3.490 -0.1287 -0.4028  0.3070
  341ntf    fn4 1819   1.850   1.575   3.339  0.9035 -0.7166 -0.1122
  341ntf    fn4 1820   1.835   1.413   3.472  0.2312  0.7849  0.2491
  341ntf    fn4 1821   1.665   1.464   3.364 -0.5071  0.3703  0.0980
  342ntf    cn1 1822   1.069   0.249   3.109  0.2248 -0.0662  0.5450
  342ntf    sn2 1823   1.249   0.220   3.115  0.2355 -0.0460  0.2955
  342ntf    nn3 1824   1.261   0.244   3.269  0.6427  0.2629  0.2159
  342ntf    sn2 1825   1.241   0.138   3.383 -0.0443 -0.0267 -0.1683
  342ntf    cn1 1826   1.418   0.107   3.414 -0.1284 -0.0937  0.2478
  342ntf    fn4 1827   1.025   0.255   2.985  0.2642  0.8715  0.5718
  342ntf    fn4 1828   0.999   0.164   3.182 -0.3518 -0.2677 -0.2322
  342ntf    fn4 1829   1.034   0.364   3.165 -0.6882  0.1046 -0.3684
  342ntf    on5 1830   1.265   0.086   3.064 -0.7710  0.0230 -0.2384
  342ntf    on5 1831   1.302   0.327   3.034 -0.1789  0.0056  0.0893
  342ntf    on5 1832   1.183   0.007   3.362  0.3678 -0.2970  0.3570
  342ntf    on5 1833   1.201   0.202   3.506 -0.2759 -0.2970 -0.1030
  342ntf    fn4 1834   1.477   0.028   3.326 -0.2157 -0.0611  0.1594
  342ntf    fn4 1835   1.487   0.219   3.400 -0.2793 -0.0822 -0.4166
  342ntf    fn4 1836   1.444   0.059   3.534 -0.3316 -0.2328  0.2370
  343ntf    cn1 1837   0.439   0.470   0.820 -0.0249 -0.1524  0.8137
  343ntf    sn2 1838   0.604   0.458   0.895  0.2241 -0.2205  0.2648
  343ntf    nn3 1839   0.563   0.391   1.032 -0.2338 -0.2204  0.1295
  343ntf    sn2 1840   0.550   0.237   1.057  0.3479 -0.2741  0.1112
  343ntf    cn1 1841   0.505   0.231   1.233 -0.1267 -0.2097 -0.0072
  343ntf    fn4 1842   0.341   0.487   0.907 -0.8561  0.6388 -0.2509
  343ntf    fn4 1843   0.436   0.575   0.739 -0.0776 -0.6437  0.1672
  343ntf    fn4 1844   0.402   0.370   0.742  0.0169  0.2545  0.2634
  343ntf    on5 1845   0.673   0.370   0.805 -0.6049 -0.0432 -0.5671
  343ntf    on5 1846   0.656   0.592   0.905 -0.0412 -0.0846 -0.1658
  343ntf    on5 1847   0.680   0.174   1.064  0.3144 -0.3035  0.4792
  343ntf    on5 1848   0.436   0.182   0.989  0.0813  0.3136  0.0796
  343ntf    fn4 1849   0.408   0.320   1.252 -0.3738 -0.4523 -0.1276
  343ntf    fn4 1850   0.466   0.110   1.268  0.4598 -0.2622  0.4905
  343ntf    fn4 1851   0.601   0.268   1.317  0.0860 -0.0160 -0.3329
  344ntf    cn1 1852   0.342   1.599   1.304  0.4686  0.3555  0.3726
  344ntf    sn2 1853   0.163   1.570   1.297  0.5311  0.0502  0.0182
  344ntf    nn3 1854   0.112   1.717   1.274  0.5797  0.0877  0.1544
  344ntf    sn2 1855   0.105   1.795   1.138 -0.2937 -0.1533  0.0564
  344ntf    cn1 1856   0.119   1.962   1.208 -0.1280 -0.2745  0.3143
  344ntf    fn4 1857   0.383   1.696   1.384  0.6468  0.1279  0.5638
  344ntf    fn4 1858   0.398   1.486   1.346  0.0425  0.1476  0.3842
  344ntf    fn4 1859   0.399   1.630   1.188 -0.0414 -0.0128  0.0207
  344ntf    on5 1860   0.134   1.491   1.180 -0.0378  0.3364 -0.0398
  344ntf    on5 1861   0.132   1.510   1.424 -0.5988 -0.4129 -0.4581
  344ntf    on5 1862  -0.027   1.777   1.083 -0.1976  0.1479 -0.2750
  344ntf    on5 1863   0.218   1.772   1.052 -0.2273  0.5963 -0.0665
  344ntf    fn4 1864   0.021   1.987   1.294 -0.1925  0.4715  0.0349
  344ntf    fn4 1865   0.232   1.990   1.270 -0.1415  0.3971  0.0492
  344ntf    fn4 1866   0.104   2.055   1.116  0.1653 -0.0426  0.4989
  345ntf    cn1 1867   0.869   0.780   4.464  0.3781 -0.0634  0.2032
  345ntf    sn2 1868   0.773   0.650   4.380  0.2072  0.0915  0.1588
  345ntf    nn3 1869   0.655   0.628   4.482 -0.0761 -0.4376 -0.2813
  345ntf    sn2 1870   0.525   0.540   4.472 -0.0944 -0.4132 -0.2571
  345ntf    cn1 1871   0.563   0.418   4.600 -0.3991  0.1448  0.3720
  345ntf    fn4 1872   0.977   0.815   4.396  0.5227 -0.5123  0.1998
  345ntf    fn4 1873   0.789   0.880   4.497  0.1921 -0.1035 -0.1184
  345ntf    fn4 1874   0.916   0.735   4.579 -0.1048 -0.1767  0.3612
  345ntf    on5 1875   0.748   0.707   4.250 -0.1592  0.4828  0.3962
  345ntf    on5 1876   0.874   0.549   4.395 -0.1190 -0.2984 -0.2643
  345ntf    on5 1877   0.505   0.466   4.350  0.1165  0.2858 -0.7237
  345ntf    on5 1878   0.408   0.608   4.522  0.3998  0.7024 -0.5795
  345ntf    fn4 1879   0.679   0.357   4.578 -0.4489 -0.0138  0.5357
  345ntf    fn4 1880   0.570   0.481   4.716 -0.6271  0.2588  0.3232
  345ntf    fn4 1881   0.471   0.325   4.620  0.1171 -0.5036 -0.2206
  346ntf    cn1 1882   0.856   1.815   4.047  0.1939  0.1649  0.1338
  346ntf    sn2 1883   0.821   1.701   4.184  0.1579 -0.0135 -0.0229
  346ntf    nn3 1884   0.874   1.574   4.109  0.2835  0.5401 -0.8946
  346ntf    sn2 1885   0.792   1.456   4.045  0.2805  0.0046  0.0690
  346ntf    cn1 1886   0.791   1.513   3.872  0.4791 -0.0652  0.0453
  346ntf    fn4 1887   0.745   1.830   3.976  0.0947  0.0242  0.2594
  346ntf    fn4 1888   0.890   1.935   4.091  0.2245 -0.1202  0.9050
  346ntf    fn4 1889   0.958   1.773   3.974  0.3630 -0.1251  0.5360
  346ntf    on5 1890   0.902   1.747   4.294 -0.1758 -0.0032  0.2203
  346ntf    on5 1891   0.679   1.718   4.199  0.1011 -0.5692  0.0568
  346ntf    on5 1892   0.650   1.446   4.072  0.2183  0.2411 -0.1638
  346ntf    on5 1893   0.859   1.329   4.047  0.4092  0.0629 -0.6042
  346ntf    fn4 1894   0.711   1.429   3.808  0.6635 -0.8928  0.8624
  346ntf    fn4 1895   0.743   1.635   3.863 -0.1547 -0.3240 -0.1282
  346ntf    fn4 1896   0.914   1.506   3.824  0.3811  0.1459 -0.2359
  347ntf    cn1 1897   0.514   1.172   2.076 -0.3875 -0.1768 -0.2209
  347ntf    sn2 1898   0.463   1.333   2.141 -0.3030 -0.1968 -0.1038
  347ntf    nn3 1899   0.577   1.349   2.248  0.1596  0.4720 -0.6880
  347ntf    sn2 1900   0.575   1.444   2.373  0.1339 -0.0882 -0.2604
  347ntf    cn1 1901   0.748   1.497   2.390  0.0475  0.0607  0.1536
  347ntf    fn4 1902   0.506   1.076   2.167  0.4844 -0.3260 -0.2906
  347ntf    fn4 1903   0.429   1.139   1.980 -0.0340 -0.8789 -0.3001
  347ntf    fn4 1904   0.637   1.181   2.028 -0.3231  0.2481  0.0224
  347ntf    on5 1905   0.476   1.423   2.029  0.0130 -0.0639  0.0381
  347ntf    on5 1906   0.330   1.315   2.192 -0.1413 -0.3880  0.2524
  347ntf    on5 1907   0.549   1.366   2.491 -1.0971  0.1152 -0.3837
  347ntf    on5 1908   0.498   1.565   2.365  0.0373 -0.1594 -0.4169
  347ntf    fn4 1909   0.785   1.547   2.273 -0.0125 -0.1302  0.0530
  347ntf    fn4 1910   0.765   1.588   2.485 -0.1683  0.4651 -0.1969
  347ntf    fn4 1911   0.832   1.400   2.423  0.3073  0.2401  0.0267
  348ntf    cn1 1912   0.622   1.808   0.028 -0.1039 -0.1784 -0.1895
  348ntf    sn2 1913   0.766   1.914   0.057  0.0573 -0.2500 -0.7332
  348ntf    nn3 1914   0.774   1.974  -0.088 -0.0866 -0.1938 -0.7176
  348ntf    sn2 1915   0.775   2.129  -0.116 -0.0574 -0.1196 -0.3024
  348ntf    cn1 1916   0.597   2.164  -0.103  0.0087  0.1477 -0.1154
  348ntf    fn4 1917   0.578   1.752   0.140  0.5451 -0.4064 -0.0479
  348ntf    fn4 1918   0.517   1.872  -0.023 -0.2013 -0.2004 -0.0186
  348ntf    fn4 1919   0.649   1.706  -0.052  0.3042 -0.2020 -0.0206
  348ntf    on5 1920   0.731   1.999   0.168  0.3715 -0.3218 -0.5780
  348ntf    on5 1921   0.869   1.815   0.078 -0.1984 -0.3221  0.1869
  348ntf    on5 1922   0.806   2.156  -0.254  0.0178 -0.2757 -0.3163
  348ntf    on5 1923   0.845   2.208  -0.018 -0.3103  0.0528 -0.2597
  348ntf    fn4 1924   0.545   2.106   0.005 -0.1354  0.4516 -0.0197
  348ntf    fn4 1925   0.572   2.294  -0.092  0.0303  0.0786  0.8718
  348ntf    fn4 1926   0.527   2.120  -0.206 -0.2209 -0.6390  0.3603
  349ntf    cn1 1927   1.973   0.435   1.971  0.0125 -0.1546 -0.0830
  349ntf    sn2 1928   1.997   0.614   1.950  0.5795 -0.2022  0.1450
  349ntf    nn3 1929   1.850   0.671   1.953  0.6599  0.0276 -0.2118
  349ntf    sn2 1930   1.785   0.775   2.050  0.1854 -0.3449 -0.1247
  349ntf    cn1 1931   1.850   0.933   1.986  0.2483 -0.0121  0.7446
  349ntf    fn4 1932   1.868   0.407   2.047 -0.0562  0.0445 -0.1042
  349ntf    fn4 1933   1.959   0.374   1.855 -0.1534  0.0636 -0.1791
  349ntf    fn4 1934   2.073   0.378   2.036 -0.2677  0.2296  0.7028
  349ntf    on5 1935   2.075   0.645   2.067 -0.1058 -0.1391  0.5938
  349ntf    on5 1936   2.055   0.634   1.820 -0.0999 -1.1259 -0.3097
  349ntf    on5 1937   1.828   0.780   2.188 -0.3140 -0.4875  0.0384
  349ntf    on5 1938   1.641   0.783   2.038  0.1571 -0.0022  0.3991
  349ntf    fn4 1939   1.809   1.032   2.063  0.6711  0.3668  0.4847
  349ntf    fn4 1940   1.981   0.946   1.975  0.1639 -0.1341 -0.5687
  349ntf    fn4 1941   1.800   0.957   1.866  0.3656 -0.6415  0.5643
  350ntf    cn1 1942   2.199   1.755   2.199 -0.3061 -0.5513  0.1091
  350ntf    sn2 1943   2.369   1.748   2.135 -0.2978 -0.0309  0.0698
  350ntf    nn3 1944   2.340   1.698   1.989 -0.6576 -0.0092  0.1319
  350ntf    sn2 1945   2.315   1.782   1.858 -0.0015  0.3277  0.2165
  350ntf    cn1 1946   2.479   1.795   1.781 -0.1432 -0.2895 -0.1924
  350ntf    fn4 1947   2.192   1.779   2.329 -0.0579 -0.0986  0.0403
  350ntf    fn4 1948   2.132   1.849   2.135  0.8273  0.2228  0.0366
  350ntf    fn4 1949   2.130   1.644   2.178 -0.2736 -0.6046  0.2846
  350ntf    on5 1950   2.421   1.880   2.162 -0.1294 -0.0903  0.0313
  350ntf    on5 1951   2.432   1.646   2.215  0.3724  0.1778 -0.1867
  350ntf    on5 1952   2.261   1.915   1.876 -0.4206  0.1776  0.0827
  350ntf    on5 1953   2.240   1.701   1.765 -0.0267  0.1237  0.4121
  350ntf    fn4 1954   2.558   1.861   1.864 -0.5239 -0.2409  0.1346
  350ntf    fn4 1955   2.531   1.674   1.769 -0.0020 -0.2158 -0.3336
  350ntf    fn4 1956   2.489   1.851   1.662 -0.1096  0.1091 -0.0024
  351ntf    cn1 1957   0.212   0.352   2.533 -0.0650  0.1068  0.1123
  351ntf    sn2 1958   0.226   0.480   2.405 -0.1301 -0.0455 -0.0478
  351ntf    nn3 1959   0.249   0.600   2.503 -0.4007 -0.0381  0.0066
  351ntf    sn2 1960   0.324   0.736   2.480  0.0164 -0.3221 -0.3258
  351ntf    cn1 1961   0.480   0.715   2.572 -0.3199  0.1171  0.3548
  351ntf    fn4 1962   0.161   0.403   2.644 -0.4217  0.1641 -0.0778
  351ntf    fn4 1963   0.148   0.241   2.501 -0.5635  0.5303 -0.3690
  351ntf    fn4 1964   0.331   0.313   2.575  0.0668  0.3944  0.0068
  351ntf    on5 1965   0.338   0.439   2.323  0.0850 -0.4911  0.4571
  351ntf    on5 1966   0.094   0.486   2.349 -0.0183 -0.2195 -0.3334
  351ntf    on5 1967   0.266   0.842   2.558 -0.2735 -0.1661 -0.7489
  351ntf    on5 1968   0.367   0.757   2.344 -0.1010 -0.1096 -0.3301
  351ntf    fn4 1969   0.545   0.604   2.542 -0.1795  0.1976  0.3607
  351ntf    fn4 1970   0.566   0.813   2.550 -0.3903  0.1063  0.0253
  351ntf    fn4 1971   0.465   0.718   2.703  0.4651 -0.0775  0.4532
  352ntf    cn1 1972   2.144   1.479   5.286  0.1709  0.0761  0.0350
  352ntf    sn2 1973   2.303   1.449   5.368  0.1252  0.0191  0.1028
  352ntf    nn3 1974   2.263   1.349   5.482 -0.0295 -0.3687 -0.2873
  352ntf    sn2 1975   2.207   1.387   5.624  0.2759 -0.4388 -0.1455
  352ntf    cn1 1976   2.366   1.413   5.707  0.0829  0.2637  0.0162
  352ntf    fn4 1977   2.094   1.374   5.223 -0.0043  0.3088 -0.2217
  352ntf    fn4 1978   2.048   1.521   5.367 -0.1323 -0.3614 -0.0931
  352ntf    fn4 1979   2.157   1.568   5.188  0.2173 -0.1403 -0.1575
  352ntf    on5 1980   2.369   1.380   5.260  0.3203 -0.2205  0.3726
  352ntf    on5 1981   2.373   1.569   5.406  0.1682  0.0969 -0.2205
  352ntf    on5 1982   2.143   1.287   5.705  0.4672 -0.8518 -0.4990
  352ntf    on5 1983   2.143   1.516   5.633  0.8516 -0.1299 -0.4251
  352ntf    fn4 1984   2.355   1.419   5.839  0.5977 -0.3930  0.0972
  352ntf    fn4 1985   2.452   1.315   5.681  0.2383  0.3404  0.2353
  352ntf    fn4 1986   2.432   1.521   5.670  0.4387  0.1074  0.1904
  353ntf    cn1 1987   1.286   1.356   6.499  0.1407 -0.1577  0.0263
  353ntf    sn2 1988   1.407   1.482   6.446  0.3547 -0.2833  0.2127
  353ntf    nn3 1989   1.396   1.596   6.554  0.0196 -0.0533 -0.0627
  353ntf    sn2 1990   1.504   1.627   6.663  0.0715  0.0129 -0.1322
  353ntf    cn1 1991   1.644   1.710   6.583  0.0820  0.1539  0.0318
  353ntf    fn4 1992   1.317   1.309   6.618  0.9425  0.3233  0.0160
  353ntf    fn4 1993   1.162   1.400   6.507  0.1104 -0.2657  0.1492
  353ntf    fn4 1994   1.279   1.246   6.426  0.5804 -0.2400  0.1013
  353ntf    on5 1995   1.531   1.412   6.427  0.4423  0.0168 -0.3418
  353ntf    on5 1996   1.337   1.522   6.327 -0.0762  0.3088  0.6562
  353ntf    on5 1997   1.563   1.515   6.733 -0.1802  0.2093  0.4002
  353ntf    on5 1998   1.453   1.736   6.743 -0.3520 -0.2938  0.0218
  353ntf    fn4 1999   1.614   1.830   6.536  0.0542  0.2726  0.3485
  353ntf    fn4 2000   1.741   1.736   6.669 -0.6051  0.2549  0.7868
  353ntf    fn4 2001   1.689   1.645   6.477 -0.3022 -0.0219 -0.0249
  354ntf    cn1 2002   2.127   0.390   4.270  0.3889 -0.3037  0.2449
  354ntf    sn2 2003   2.071   0.544   4.347  0.3983 -0.2577  0.1605
  354ntf    nn3 2004   2.150   0.660   4.277  0.5874 -0.3906  0.1539
  354ntf    sn2 2005   2.215   0.785   4.347  0.2202 -0.1662  0.0940
  354ntf    cn1 2006   2.183   0.902   4.212  0.1567  0.0887  0.3284
  354ntf    fn4 2007   2.086   0.380   4.144 -0.0827  0.0754  0.3681
  354ntf    fn4 2008   2.259   0.385   4.261  0.3608 -0.0973 -0.3644
  354ntf    fn4 2009   2.086   0.281   4.332 -0.6039 -0.1391 -0.0975
  354ntf    on5 2010   1.932   0.545   4.308  0.3464 -0.0966  0.3456
  354ntf    on5 2011   2.116   0.522   4.482  0.0306 -0.2433  0.2873
  354ntf    on5 2012   2.358   0.795   4.343  0.1595  0.9013  0.3346
  354ntf    on5 2013   2.149   0.840   4.463  0.2221  0.2468 -0.0994
  354ntf    fn4 2014   2.253   1.012   4.235  0.2199  0.0478  0.3315
  354ntf    fn4 2015   2.223   0.859   4.093 -0.0408  0.1823  0.2272
  354ntf    fn4 2016   2.058   0.937   4.189  0.2022  0.0326 -0.0114
  355ntf    cn1 2017   0.464   1.446   0.266  0.0642 -0.0367 -0.5251
  355ntf    sn2 2018   0.476   1.522   0.430 -0.0121 -0.2913 -0.4011
  355ntf    nn3 2019   0.558   1.412   0.506  0.0517 -0.2094 -0.3522
  355ntf    sn2 2020   0.515   1.323   0.628  0.0814 -0.3411 -0.4386
  355ntf    cn1 2021   0.592   1.163   0.585  0.1929 -0.3759 -0.1104
  355ntf    fn4 2022   0.586   1.417   0.224  0.3262  0.2195  0.0592
  355ntf    fn4 2023   0.396   1.332   0.270  0.5851 -0.3368 -0.0303
  355ntf    fn4 2024   0.402   1.526   0.180  0.0720  0.3990 -0.1264
  355ntf    on5 2025   0.537   1.647   0.395 -0.8475  0.3582  0.3833
  355ntf    on5 2026   0.338   1.533   0.474  0.0773 -0.1112 -0.1632
  355ntf    on5 2027   0.373   1.296   0.635  0.0334  0.1852  0.8283
  355ntf    on5 2028   0.575   1.356   0.755  0.5797 -0.0139 -0.7576
  355ntf    fn4 2029   0.574   1.069   0.676 -0.2329 -0.0234  0.1797
  355ntf    fn4 2030   0.548   1.119   0.469  0.0423 -0.0266 -0.1888
  355ntf    fn4 2031   0.722   1.183   0.586  0.1489 -0.0895  0.1674
  356ntf    cn1 2032   0.637   0.775   1.925  0.1884  0.0282  0.2615
  356ntf    sn2 2033   0.545   0.688   1.795  0.0646  0.4723  0.0516
  356ntf    nn3 2034   0.659   0.598   1.737 -0.1728  0.2075 -0.0061
  356ntf    sn2 2035   0.695   0.450   1.778 -0.2701  0.1691 -0.0601
  356ntf    cn1 2036   0.687   0.358   1.622  0.0420 -0.0907  0.0780
  356ntf    fn4 2037   0.746   0.831   1.874  0.2661  0.0903  0.4909
  356ntf    fn4 2038   0.563   0.872   1.976  0.4446  0.1943  0.3183
  356ntf    fn4 2039   0.675   0.685   2.014  0.3340 -0.4564 -0.2873
  356ntf    on5 2040   0.445   0.612   1.866  0.2473 -0.3513 -0.5548
  356ntf    on5 2041   0.501   0.802   1.718  0.2911  0.5931  0.1010
  356ntf    on5 2042   0.606   0.376   1.864  0.2820  0.0490  0.4133
  356ntf    on5 2043   0.830   0.441   1.828 -0.2881 -0.1144 -0.0656
  356ntf    fn4 2044   0.785   0.395   1.541 -0.0599 -0.1804 -0.0865
  356ntf    fn4 2045   0.709   0.229   1.643 -0.4243 -0.1678  0.0885
  356ntf    fn4 2046   0.569   0.371   1.563 -0.0092 -0.0674  0.1864
  357ntf    cn1 2047   2.042   0.929   1.525 -0.2550  0.1932  0.4028
  357ntf    sn2 2048   2.221   0.896   1.536 -0.1825  0.5920  0.4356
  357ntf    nn3 2049   2.252   0.797   1.418 -0.2632  0.8072  0.2329
  357ntf    sn2 2050   2.289   0.823   1.268 -0.3075  0.0724  0.0950
  357ntf    cn1 2051   2.460   0.885   1.283 -0.3074  0.0358  0.2431
  357ntf    fn4 2052   1.971   0.821   1.500 -0.4171  0.4299 -0.1724
  357ntf    fn4 2053   1.997   0.982   1.638  0.6153  0.2307  0.7424
  357ntf    fn4 2054   2.016   1.019   1.431 -0.0493 -0.4192 -0.2449
  357ntf    on5 2055   2.278   1.028   1.523 -0.0766  0.4632 -0.4839
  357ntf    on5 2056   2.231   0.841   1.669 -0.1545  0.0578  0.2133
  357ntf    on5 2057   2.225   0.933   1.200  0.0073 -0.3403 -0.8890
  357ntf    on5 2058   2.310   0.699   1.197 -1.0121 -0.1514  0.2751
  357ntf    fn4 2059   2.477   0.988   1.364 -0.3305 -0.1744  0.5186
  357ntf    fn4 2060   2.543   0.788   1.319 -0.5064 -0.5186 -0.7386
  357ntf    fn4 2061   2.507   0.916   1.164 -0.7551 -0.0776  0.0324
  358ntf    cn1 2062   1.386   0.968   0.301  0.4190 -0.1118  0.3477
  358ntf    sn2 2063   1.495   0.945   0.158 -0.0432 -0.1709  0.0022
  358ntf    nn3 2064   1.627   0.916   0.239  0.3217 -0.1014 -0.5607
  358ntf    sn2 2065   1.758   0.864   0.170  0.4521 -0.1170 -0.3028
  358ntf    cn1 2066   1.761   0.696   0.239  0.0428  0.0062  0.0203
  358ntf    fn4 2067   1.395   1.093   0.344 -0.0520 -0.0056  0.1508
  358ntf    fn4 2068   1.262   0.944   0.262  0.3424  0.7301  0.0467
  358ntf    fn4 2069   1.409   0.887   0.403 -0.2440 -0.0544  0.5476
  358ntf    on5 2070   1.434   0.832   0.093  0.0702  0.2272 -0.8161
  358ntf    on5 2071   1.504   1.068   0.083  0.0617 -0.3447 -0.2717
  358ntf    on5 2072   1.876   0.933   0.214 -0.0999  0.5928  0.0949
  358ntf    on5 2073   1.757   0.840   0.027 -0.3903  0.2048 -0.3562
  358ntf    fn4 2074   1.781   0.696   0.369  1.0441 -0.1298 -0.1268
  358ntf    fn4 2075   1.650   0.629   0.213  0.0753  0.0155 -0.1469
  358ntf    fn4 2076   1.858   0.628   0.180  0.0223 -0.0404  0.0404
  359ntf    cn1 2077   0.585   0.861   0.019 -0.3114 -0.1463  0.2199
  359ntf    sn2 2078   0.643   0.935  -0.136 -0.0913 -0.5831  0.0905
  359ntf    nn3 2079   0.797   0.937  -0.102 -0.1150  0.0480  0.1747
  359ntf    sn2 2080   0.914   0.836  -0.126 -0.0069  0.2445 -0.1391
  359ntf    cn1 2081   1.000   0.842   0.034 -0.1128  0.5585 -0.0940
  359ntf    fn4 2082   0.605   0.730   0.023  0.3453 -0.0550  0.0220
  359ntf    fn4 2083   0.643   0.916   0.124  0.2286  0.1112 -0.2091
  359ntf    fn4 2084   0.454   0.874   0.028 -0.3263  0.0602 -0.3021
  359ntf    on5 2085   0.599   0.855  -0.248  0.5505 -0.4118 -0.2895
  359ntf    on5 2086   0.575   1.062  -0.132  0.9422 -0.0034 -0.2991
  359ntf    on5 2087   1.012   0.885  -0.220 -0.2763  0.0310 -0.5368
  359ntf    on5 2088   0.877   0.696  -0.130 -0.2191  0.3105 -0.4936
  359ntf    fn4 2089   0.910   0.848   0.131 -0.0134  0.2264  0.0197
  359ntf    fn4 2090   1.077   0.738   0.062 -0.1245  0.6098  0.1329
  359ntf    fn4 2091   1.081   0.945   0.052  0.6713 -0.0833  0.1355
  360ntf    cn1 2092   0.971   0.355   4.935  0.0209  0.3338 -0.1957
  360ntf    sn2 2093   1.142   0.377   4.880  0.1279  0.0780  0.0330
  360ntf    nn3 2094   1.192   0.235   4.925 -0.2798 -0.1421 -0.2062
  360ntf    sn2 2095   1.196   0.101   4.843 -0.1546 -0.2001 -0.1060
  360ntf    cn1 2096   1.364   0.113   4.775 -0.0090  0.0474  0.2914
  360ntf    fn4 2097   0.972   0.297   5.054  0.3358 -0.0403 -0.3797
  360ntf    fn4 2098   0.887   0.457   4.943 -0.0514  0.2081  0.8551
  360ntf    fn4 2099   0.914   0.266   4.855 -0.1706  0.2740  0.0047
  360ntf    on5 2100   1.126   0.402   4.739 -0.2252  0.1805  0.0930
  360ntf    on5 2101   1.197   0.472   4.974  0.8491 -0.5201  0.2230
  360ntf    on5 2102   1.110   0.092   4.728 -0.4254  0.3082  0.0516
  360ntf    on5 2103   1.209  -0.014   4.929 -0.0592 -0.0545  0.0741
  360ntf    fn4 2104   1.386   0.011   4.693 -0.2472  0.3299 -0.1278
  360ntf    fn4 2105   1.381   0.223   4.704 -0.2940  0.1301  0.3503
  360ntf    fn4 2106   1.460   0.105   4.866 -0.1697  0.1929  0.4752
  361ntf    cn1 2107   1.110   1.540   1.865  0.2187 -0.2171  0.1501
  361ntf    sn2 2108   1.282   1.482   1.874  0.2372 -0.1882 -0.0166
  361ntf    nn3 2109   1.340   1.576   1.761  0.0407  0.1705  0.1813
  361ntf    sn2 2110   1.448   1.529   1.657  0.2762 -0.2046  0.5893
  361ntf    cn1 2111   1.350   1.486   1.510  0.2604  0.2396  0.4657
  361ntf    fn4 2112   1.117   1.672   1.867 -0.1248 -0.1802 -0.6747
  361ntf    fn4 2113   1.048   1.502   1.755  0.0367 -0.5969  0.3831
  361ntf    fn4 2114   1.048   1.496   1.973 -0.1633  0.0683  0.0464
  361ntf    on5 2115   1.324   1.536   2.001  0.5514  0.7264 -0.5008
  361ntf    on5 2116   1.276   1.339   1.854 -0.0406 -0.1083 -0.5148
  361ntf    on5 2117   1.523   1.412   1.695  0.4455 -0.2359  0.1543
  361ntf    on5 2118   1.523   1.641   1.606  0.0942 -0.3167  0.0769
  361ntf    fn4 2119   1.428   1.464   1.406 -0.0945 -0.2783  0.3048
  361ntf    fn4 2120   1.272   1.379   1.520  0.4428  0.0273 -0.3202
  361ntf    fn4 2121   1.270   1.584   1.472 -0.4699 -0.6900 -0.4487
  362ntf    cn1 2122   1.759   0.855   2.534  0.4895  0.2334  0.1796
  362ntf    sn2 2123   1.882   0.990   2.525  0.2738  0.4237  0.0780
  362ntf    nn3 2124   1.866   1.060   2.665 -0.5728 -0.2575  0.3307
  362ntf    sn2 2125   1.749   1.158   2.704 -0.2669  0.2784 -0.0955
  362ntf    cn1 2126   1.836   1.317   2.691 -0.1109  0.1639 -0.4830
  362ntf    fn4 2127   1.782   0.761   2.444 -0.0439  0.1542  0.1289
  362ntf    fn4 2128   1.754   0.793   2.650  0.0080  0.1628  0.1211
  362ntf    fn4 2129   1.637   0.902   2.517  0.1508 -0.4655  0.6419
  362ntf    on5 2130   2.007   0.919   2.532  0.5786  0.9455 -0.0810
  362ntf    on5 2131   1.860   1.069   2.407  0.2913 -0.1985 -0.3453
  362ntf    on5 2132   1.720   1.158   2.845  0.4753  0.4981  0.0660
  362ntf    on5 2133   1.639   1.178   2.613 -0.5931 -0.3070  0.1678
  362ntf    fn4 2134   1.861   1.354   2.566  0.1321  0.8822 -0.2312
  362ntf    fn4 2135   1.767   1.413   2.750  0.3315  0.1345  0.0970
  362ntf    fn4 2136   1.956   1.317   2.747 -0.4079  0.4994  0.1652
  363ntf    cn1 2137   0.312   0.170   4.146 -0.3869 -0.1577  0.3758
  363ntf    sn2 2138   0.428   0.104   4.022 -0.2366  0.0970  0.3803
  363ntf    nn3 2139   0.559   0.169   4.079 -0.1819  0.0856  0.2668
  363ntf    sn2 2140   0.686   0.210   3.996 -0.2319  0.0353  0.1645
  363ntf    cn1 2141   0.662   0.390   3.989 -0.0927  0.0511  0.0957
  363ntf    fn4 2142   0.290   0.299   4.130  0.7194  0.0128  0.0937
  363ntf    fn4 2143   0.193   0.112   4.144 -0.2006 -0.5350  0.1554
  363ntf    fn4 2144   0.355   0.149   4.270 -0.0813 -0.1692  0.2683
  363ntf    on5 2145   0.433  -0.038   4.046 -0.3297 -0.0259 -0.3307
  363ntf    on5 2146   0.391   0.147   3.890  1.0112  0.4332  0.1294
  363ntf    on5 2147   0.694   0.168   3.858  0.4659 -0.1100  0.2435
  363ntf    on5 2148   0.805   0.201   4.077 -0.0870 -0.2105 -0.0763
  363ntf    fn4 2149   0.629   0.447   4.103  0.1330  0.2414  0.0681
  363ntf    fn4 2150   0.766   0.456   3.939 -0.0429 -0.2878 -0.2528
  363ntf    fn4 2151   0.559   0.408   3.908  0.2516 -0.3655 -0.4430
  364ntf    cn1 2152   2.061   1.774   6.427  0.1366 -0.1092  0.0796
  364ntf    sn2 2153   2.217   1.727   6.508  0.1090 -0.1156  0.1295
  364ntf    nn3 2154   2.308   1.707   6.383 -0.0142  0.2921 -0.0275
  364ntf    sn2 2155   2.463   1.726   6.360 -0.0191  0.1548 -0.1761
  364ntf    cn1 2156   2.499   1.550   6.389 -0.2755  0.1722  0.2669
  364ntf    fn4 2157   1.967   1.799   6.517 -0.1961 -0.5245 -0.1499
  364ntf    fn4 2158   2.081   1.886   6.358 -0.0199  0.2997  0.6925
  364ntf    fn4 2159   2.015   1.687   6.338 -0.2979  0.1123  0.0842
  364ntf    on5 2160   2.256   1.841   6.588 -0.8637  0.1855  0.1930
  364ntf    on5 2161   2.188   1.601   6.571  0.5362 -0.5592 -0.5520
  364ntf    on5 2162   2.535   1.796   6.464 -0.2443  0.1177  0.0067
  364ntf    on5 2163   2.509   1.755   6.227  0.5407  0.3660  0.0606
  364ntf    fn4 2164   2.589   1.506   6.302 -0.5585 -0.5489  0.3318
  364ntf    fn4 2165   2.547   1.529   6.510 -0.4457 -0.6075  0.2037
  364ntf    fn4 2166   2.391   1.475   6.376 -0.5375  0.5757  0.0777
  365ntf    cn1 2167   2.029   1.949   4.972 -0.2535  0.2499  0.3993
  365ntf    sn2 2168   2.051   2.123   5.019 -0.1244  0.3622 -0.0654
  365ntf    nn3 2169   1.931   2.191   4.946 -0.5889 -0.1122  0.2462
  365ntf    sn2 2170   1.935   2.300   4.833 -0.0788 -0.0449  0.3283
  365ntf    cn1 2171   1.917   2.199   4.683 -0.6751 -0.0049  0.3722
  365ntf    fn4 2172   1.915   1.888   4.998 -0.4983  0.1427 -0.8687
  365ntf    fn4 2173   2.057   1.931   4.843 -0.3318  1.2000  0.2418
  365ntf    fn4 2174   2.128   1.876   5.020  0.0104  0.1779 -0.2409
  365ntf    on5 2175   2.025   2.115   5.161  0.0614 -0.9138 -0.0907
  365ntf    on5 2176   2.185   2.149   4.974 -0.1566 -0.1521 -0.4644
  365ntf    on5 2177   2.056   2.378   4.822  0.2646 -0.4871  0.9611
  365ntf    on5 2178   1.812   2.375   4.820 -0.2534 -0.1993  1.0629
  365ntf    fn4 2179   1.831   2.098   4.685 -0.5870 -0.0741  0.7853
  365ntf    fn4 2180   1.880   2.280   4.586  0.1074  0.3113  0.3301
  365ntf    fn4 2181   2.032   2.143   4.652 -0.6194  0.2016  0.2096
  366ntf    cn1 2182   0.004   1.121   6.026 -0.2286  0.3301 -0.2812
  366ntf    sn2 2183   0.136   1.026   6.107 -0.3262  0.2375 -0.2312
  366ntf    nn3 2184   0.228   0.999   5.984 -0.1754 -0.0702 -0.0516
  366ntf    sn2 2185   0.332   0.883   5.965 -0.3431 -0.2563  0.1620
  366ntf    cn1 2186   0.243   0.762   5.862  0.0495  0.0092 -0.4963
  366ntf    fn4 2187  -0.085   1.041   5.970 -0.2552  0.2672 -0.1479
  366ntf    fn4 2188  -0.072   1.202   6.097 -0.8217  0.0017 -0.5345
  366ntf    fn4 2189   0.048   1.198   5.927  1.0555  0.1500  0.1394
  366ntf    on5 2190   0.203   1.116   6.198 -0.4085 -0.2227  0.2911
  366ntf    on5 2191   0.058   0.922   6.169  0.1024 -0.1813 -0.3946
  366ntf    on5 2192   0.367   0.805   6.082 -0.5195 -0.1962  0.2546
  366ntf    on5 2193   0.444   0.929   5.887 -0.3895 -0.3063  0.0664
  366ntf    fn4 2194   0.197   0.816   5.751  0.0311  0.0406 -0.4736
  366ntf    fn4 2195   0.314   0.654   5.833  0.0403 -0.0360 -0.3538
  366ntf    fn4 2196   0.142   0.715   5.934  0.4895 -0.4338 -0.1548
  367ntf    cn1 2197   0.180   1.279   4.147  0.1906  0.0233  0.1905
  367ntf    sn2 2198   0.228   1.200   3.991  0.2061  0.2098  0.1002
  367ntf    nn3 2199   0.205   1.311   3.882 -0.0202 -0.1441 -0.2186
  367ntf    sn2 2200   0.081   1.335   3.790 -0.0935  0.0721 -0.0650
  367ntf    cn1 2201   0.116   1.208   3.665  0.1234  0.0762 -0.0072
  367ntf    fn4 2202   0.185   1.190   4.244 -0.2218 -0.2680 -0.0536
  367ntf    fn4 2203   0.256   1.383   4.177 -0.1797  0.3628 -0.0416
  367ntf    fn4 2204   0.057   1.327   4.144  0.2196  0.1035  0.2661
  367ntf    on5 2205   0.369   1.175   4.011  0.1923  0.0506 -0.0020
  367ntf    on5 2206   0.142   1.084   3.986  0.2948  0.1711 -0.6299
  367ntf    on5 2207   0.089   1.462   3.722  0.1396 -0.1132 -0.3820
  367ntf    on5 2208  -0.047   1.294   3.844  0.2022 -0.1639  0.4632
  367ntf    fn4 2209   0.048   1.233   3.555 -0.2512  0.0588  0.2167
  367ntf    fn4 2210   0.244   1.194   3.632  0.2304 -0.4893  0.6252
  367ntf    fn4 2211   0.071   1.094   3.714 -0.8860  0.5312  0.1403
  368ntf    cn1 2212   2.346   2.132   4.466 -0.2791 -0.0607 -0.1985
  368ntf    sn2 2213   2.478   2.039   4.383 -0.0443  0.0933  0.0007
  368ntf    nn3 2214   2.490   1.904   4.463  0.1103 -0.1125 -0.3672
  368ntf    sn2 2215   2.551   1.768   4.415  0.0232 -0.3857  0.2817
  368ntf    cn1 2216   2.426   1.648   4.470 -0.1004 -0.2188  0.3649
  368ntf    fn4 2217   2.234   2.062   4.476 -0.5790  0.4799  0.2432
  368ntf    fn4 2218   2.374   2.173   4.589 -0.0937 -0.5403 -0.0803
  368ntf    fn4 2219   2.320   2.243   4.398 -0.4545  0.0298  0.0167
  368ntf    on5 2220   2.418   2.025   4.253 -0.4552 -0.2617  0.2230
  368ntf    on5 2221   2.597   2.119   4.395  0.3066 -0.4398  0.1210
  368ntf    on5 2222   2.675   1.740   4.483 -0.1414 -0.2604  0.6316
  368ntf    on5 2223   2.552   1.752   4.271 -0.0996 -0.4583  0.2886
  368ntf    fn4 2224   2.478   1.526   4.473 -0.1846 -0.2822 -0.4306
  368ntf    fn4 2225   2.389   1.672   4.594 -0.0977 -0.2872  0.3788
  368ntf    fn4 2226   2.325   1.644   4.384  0.3448 -0.3570 -0.1561
  369ntf    cn1 2227   0.374   0.428   5.543  0.4606  0.4952 -0.1447
  369ntf    sn2 2228   0.504   0.516   5.634  0.1459  0.4176  0.3821
  369ntf    nn3 2229   0.640   0.476   5.566 -0.0339  0.2003  0.1531
  369ntf    sn2 2230   0.747   0.559   5.487 -0.0100 -0.0070 -0.0356
  369ntf    cn1 2231   0.881   0.440   5.456 -0.0626 -0.0536 -0.0836
  369ntf    fn4 2232   0.253   0.452   5.590  0.3438 -0.1878 -0.0796
  369ntf    fn4 2233   0.382   0.461   5.415 -0.4497  0.6972 -0.1532
  369ntf    fn4 2234   0.395   0.297   5.539 -0.1750  0.3782  0.2446
  369ntf    on5 2235   0.462   0.651   5.606 -0.2604  0.1788 -0.1628
  369ntf    on5 2236   0.488   0.467   5.769  0.2892  0.0833  0.2784
  369ntf    on5 2237   0.812   0.657   5.571 -0.0916  0.4028 -0.4439
  369ntf    on5 2238   0.703   0.600   5.356  0.3297  0.6211  0.0398
  369ntf    fn4 2239   0.849   0.349   5.366  0.4211 -0.2200 -0.0916
  369ntf    fn4 2240   0.995   0.499   5.425  0.2648 -0.4930  0.2651
  369ntf    fn4 2241   0.917   0.370   5.563  0.4046  0.0516 -0.1737
  370ntf    cn1 2242   0.649   1.794   5.320  0.2001  0.3761  0.1093
  370ntf    sn2 2243   0.555   1.814   5.166  0.0416  0.3030  0.1965
  370ntf    nn3 2244   0.526   1.664   5.131 -0.0397  0.4141 -0.2275
  370ntf    sn2 2245   0.486   1.604   4.992  0.1623 -0.1993 -0.0268
  370ntf    cn1 2246   0.315   1.559   5.032  0.0732  0.0258 -0.1480
  370ntf    fn4 2247   0.563   1.760   5.415  0.0590 -0.0921 -0.1801
  370ntf    fn4 2248   0.739   1.697   5.323 -0.1557  0.0355 -0.0812
  370ntf    fn4 2249   0.719   1.902   5.352  0.2864  0.2105  0.4833
  370ntf    on5 2250   0.433   1.877   5.210  0.0005  0.5820 -0.3062
  370ntf    on5 2251   0.641   1.886   5.075  0.6578 -0.3030  0.2942
  370ntf    on5 2252   0.541   1.475   4.957 -0.1462 -0.3433  0.0214
  370ntf    on5 2253   0.467   1.703   4.889  0.8737  0.5456  0.5452
  370ntf    fn4 2254   0.248   1.654   5.094 -0.2778 -0.1219 -0.2974
  370ntf    fn4 2255   0.244   1.526   4.925 -0.2505  0.4709 -0.0702
  370ntf    fn4 2256   0.314   1.455   5.114 -0.2585  0.7186  0.7441
  371ntf    cn1 2257   0.729   1.766   1.519  0.2743  0.2009 -0.3056
  371ntf    sn2 2258   0.786   1.878   1.650  0.2193 -0.0040 -0.1072
  371ntf    nn3 2259   0.673   1.987   1.660  1.3120  1.1131  0.3899
  371ntf    sn2 2260   0.583   2.033   1.780  0.1515 -0.0894  0.0071
  371ntf    cn1 2261   0.547   2.208   1.749 -0.0429 -0.1388 -0.0436
  371ntf    fn4 2262   0.820   1.681   1.475 -0.2734 -0.4538 -0.1801
  371ntf    fn4 2263   0.626   1.697   1.563  0.3561 -0.2793 -0.8567
  371ntf    fn4 2264   0.683   1.826   1.410 -0.5194 -0.1915 -0.1963
  371ntf    on5 2265   0.803   1.787   1.761 -0.4470  0.2303  0.1928
  371ntf    on5 2266   0.912   1.934   1.606  0.4103 -0.5728 -0.2904
  371ntf    on5 2267   0.663   2.048   1.899 -0.5004  0.1644  0.4140
  371ntf    on5 2268   0.459   1.962   1.794  0.4126 -0.5773 -0.0967
  371ntf    fn4 2269   0.491   2.273   1.849 -0.1094 -0.4885  0.1472
  371ntf    fn4 2270   0.663   2.270   1.729 -0.2740  0.0337 -0.9241
  371ntf    fn4 2271   0.477   2.245   1.643 -0.1435 -0.0823  0.0423
  372ntf    cn1 2272   1.564   0.433   5.321 -0.2979 -0.0292 -0.2822
  372ntf    sn2 2273   1.744   0.429   5.299 -0.2599 -0.1892  0.0652
  372ntf    nn3 2274   1.776   0.368   5.440  0.5541 -0.0793 -0.0646
  372ntf    sn2 2275   1.793   0.427   5.585 -0.2568  0.0194 -0.0060
  372ntf    cn1 2276   1.959   0.361   5.615 -0.0658  0.2847 -0.4629
  372ntf    fn4 2277   1.511   0.521   5.405 -0.4937 -0.0956 -0.3348
  372ntf    fn4 2278   1.510   0.451   5.201 -0.0145 -0.6444 -0.5057
  372ntf    fn4 2279   1.514   0.321   5.370  0.3341 -0.2484 -0.1352
  372ntf    on5 2280   1.764   0.331   5.195  0.1293 -0.5078  0.4341
  372ntf    on5 2281   1.796   0.563   5.287 -0.0416 -0.3170 -0.4573
  372ntf    on5 2282   1.712   0.356   5.681  0.1527 -0.0289  0.3040
  372ntf    on5 2283   1.805   0.571   5.596  0.1329 -0.0003 -0.1741
  372ntf    fn4 2284   2.005   0.391   5.736  0.1339  0.0568 -0.4811
  372ntf    fn4 2285   1.968   0.230   5.601 -0.1349  0.2123  0.1428
  372ntf    fn4 2286   2.047   0.412   5.531  0.1200  0.2364 -0.2994
  373ntf    cn1 2287   1.500   1.924   2.625 -0.4693  0.1121  0.3490
  373ntf    sn2 2288   1.456   1.751   2.659 -0.0216 -0.0630  0.0471
  373ntf    nn3 2289   1.483   1.738   2.813  0.0673 -0.1393  0.0248
  373ntf    sn2 2290   1.522   1.607   2.890 -0.0137  0.0915  0.4583
  373ntf    cn1 2291   1.703   1.630   2.889  0.0370 -0.3307 -0.2129
  373ntf    fn4 2292   1.596   1.961   2.709 -0.0509 -0.1394 -0.0139
  373ntf    fn4 2293   1.555   1.941   2.506  0.5386 -0.8357  0.6538
  373ntf    fn4 2294   1.395   2.004   2.635 -0.5427  0.0564  0.0330
  373ntf    on5 2295   1.319   1.735   2.616  0.2166 -0.2094 -0.6701
  373ntf    on5 2296   1.552   1.685   2.574 -0.0443 -0.0028 -0.0253
  373ntf    on5 2297   1.489   1.480   2.831 -0.2631  0.2520  0.2564
  373ntf    on5 2298   1.487   1.620   3.030 -0.1216  0.3099  0.4105
  373ntf    fn4 2299   1.753   1.657   2.769  0.0530  0.0113 -0.1306
  373ntf    fn4 2300   1.736   1.727   2.973 -0.2440  0.0265 -0.5098
  373ntf    fn4 2301   1.769   1.521   2.925 -0.0704 -0.2951  0.0921
  374ntf    cn1 2302   1.775   0.726   1.065 -0.1952 -0.2802  0.2380
  374ntf    sn2 2303   1.723   0.899   1.090  0.0470 -0.1326 -0.2637
  374ntf    nn3 2304   1.600   0.904   0.992 -0.3361  0.5028  0.2488
  374ntf    sn2 2305   1.576   0.962   0.848 -0.0411 -0.0730 -0.0342
  374ntf    cn1 2306   1.463   0.840   0.774 -0.0795  0.0137 -0.1183
  374ntf    fn4 2307   1.806   0.717   0.937  0.0705  0.3533  0.2546
  374ntf    fn4 2308   1.875   0.696   1.146  0.4697  0.6256 -0.2269
  374ntf    fn4 2309   1.674   0.644   1.090 -0.5399 -0.0013 -0.2228
  374ntf    on5 2310   1.685   0.902   1.229 -0.1260 -0.4300 -0.3023
  374ntf    on5 2311   1.839   0.972   1.045  0.1895 -0.4505 -0.4193
  374ntf    on5 2312   1.692   0.961   0.763  0.1560  0.0473  0.2322
  374ntf    on5 2313   1.501   1.085   0.843  0.1991  0.0660 -0.2150
  374ntf    fn4 2314   1.418   0.878   0.655 -0.2467  0.0096 -0.0559
  374ntf    fn4 2315   1.530   0.727   0.759 -0.2509 -0.1730  0.5234
  374ntf    fn4 2316   1.355   0.808   0.842  0.4027 -1.1593  0.1231
  375ntf    cn1 2317   0.011   0.413   0.305 -0.3475 -0.3029 -0.3139
  375ntf    sn2 2318   0.163   0.425   0.205 -0.2418 -0.0427 -0.1234
  375ntf    nn3 2319   0.231   0.284   0.215  0.0678  0.1084 -0.0980
  375ntf    sn2 2320   0.217   0.176   0.101 -0.2072 -0.0408  0.0763
  375ntf    cn1 2321   0.366   0.213   0.003 -0.2299  0.0694  0.0833
  375ntf    fn4 2322  -0.025   0.531   0.353 -0.3079 -0.3490 -0.1721
  375ntf    fn4 2323  -0.092   0.369   0.234 -0.3252 -0.2221 -0.3972
  375ntf    fn4 2324   0.028   0.331   0.407 -0.0433  0.0498 -0.0787
  375ntf    on5 2325   0.115   0.472   0.078  0.6013  0.8605 -0.1138
  375ntf    on5 2326   0.243   0.521   0.276 -0.0204 -0.0266 -0.3946
  375ntf    on5 2327   0.117   0.200   0.000  0.2598  0.4309 -0.2849
  375ntf    on5 2328   0.243   0.040   0.142  0.0072 -0.0356 -0.0392
  375ntf    fn4 2329   0.376   0.335  -0.048  0.7590 -0.2389 -0.4746
  375ntf    fn4 2330   0.473   0.214   0.080  0.4957  0.2442 -0.9099
  375ntf    fn4 2331   0.390   0.134  -0.101 -0.1142  0.6283 -0.3193
  376ntf    cn1 2332   1.913   2.148   2.634  0.2677 -0.0856  0.4854
  376ntf    sn2 2333   2.095   2.148   2.632  0.2625 -0.1547  0.1059
  376ntf    nn3 2334   2.141   2.216   2.765 -0.2283  0.2542  0.0707
  376ntf    sn2 2335   2.215   2.352   2.791 -0.1463  0.2800 -0.3001
  376ntf    cn1 2336   2.228   2.359   2.972 -0.1104  0.4284 -0.3082
  376ntf    fn4 2337   1.863   2.266   2.665 -0.0269  0.1524 -0.8561
  376ntf    fn4 2338   1.855   2.108   2.523  0.2645  0.0029  0.4554
  376ntf    fn4 2339   1.884   2.061   2.730 -0.4551 -0.4169 -0.0236
  376ntf    on5 2340   2.121   2.006   2.633 -0.3384 -0.2638  0.4992
  376ntf    on5 2341   2.131   2.218   2.511  0.6131  1.0413  0.8822
  376ntf    on5 2342   2.138   2.471   2.768  0.0894  0.5164  0.1255
  376ntf    on5 2343   2.352   2.355   2.745  0.0408 -0.0754  0.2290
  376ntf    fn4 2344   2.294   2.467   3.012  0.0499  0.1542  0.1705
  376ntf    fn4 2345   2.109   2.372   3.028 -0.0151 -1.0017  0.2685
  376ntf    fn4 2346   2.297   2.258   3.022 -0.1101  0.4890 -0.1859
  377ntf    cn1 2347   2.187   0.717   3.493  0.1678 -0.0926 -0.0413
  377ntf    sn2 2348   2.118   0.565   3.564 -0.0066  0.0019 -0.0088
  377ntf    nn3 2349   2.192   0.557   3.702 -0.7911 -0.0897  0.4157
  377ntf    sn2 2350   2.298   0.453   3.756 -0.2426  0.2661  0.0363
  377ntf    cn1 2351   2.320   0.532   3.918  0.1011 -0.2248  0.2284
  377ntf    fn4 2352   2.289   0.710   3.410 -0.1791 -0.2901 -0.4521
  377ntf    fn4 2353   2.095   0.782   3.424  0.1329 -0.0984 -0.0004
  377ntf    fn4 2354   2.215   0.796   3.596 -0.5703  0.1579 -0.0281
  377ntf    on5 2355   1.978   0.596   3.579 -0.0114 -0.1143  0.1938
  377ntf    on5 2356   2.153   0.462   3.469 -0.1763  0.4774 -0.5948
  377ntf    on5 2357   2.428   0.472   3.696 -0.3407 -0.2445 -0.3399
  377ntf    on5 2358   2.248   0.323   3.793 -0.2923  0.1974 -0.2695
  377ntf    fn4 2359   2.204   0.554   3.979 -0.1639 -0.2838 -0.2512
  377ntf    fn4 2360   2.392   0.461   4.003  0.4088  0.7762  0.8110
  377ntf    fn4 2361   2.383   0.647   3.905 -0.5371  0.0888 -0.1268
  378ntf    cn1 2362   1.795   2.168   6.276  0.0339  0.1883  0.0400
  378ntf    sn2 2363   1.757   2.286   6.409 -0.2214  0.0420  0.0973
  378ntf    nn3 2364   1.745   2.424   6.335 -0.2805  0.0834  0.1845
  378ntf    sn2 2365   1.852   2.539   6.325  0.0232 -0.2196 -0.0742
  378ntf    cn1 2366   1.870   2.565   6.146  0.0910 -0.1212 -0.0525
  378ntf    fn4 2367   1.864   2.067   6.326  0.5809  0.5694  0.0652
  378ntf    fn4 2368   1.685   2.126   6.216  0.0686  0.3689 -0.1549
  378ntf    fn4 2369   1.868   2.231   6.184  0.3192 -0.1778  0.0137
  378ntf    on5 2370   1.626   2.250   6.456 -0.2351 -0.1137 -0.0598
  378ntf    on5 2371   1.871   2.271   6.497  0.1032  0.5886 -0.2264
  378ntf    on5 2372   1.986   2.503   6.364  0.0094  0.2975  0.4740
  378ntf    on5 2373   1.797   2.664   6.373  0.0065 -0.4042  0.3989
  378ntf    fn4 2374   1.907   2.687   6.111 -0.5072  0.1216  0.1427
  378ntf    fn4 2375   1.943   2.475   6.084  0.0972 -0.1789  0.0368
  378ntf    fn4 2376   1.747   2.554   6.097 -0.3543  0.5550  0.8711
   2.36269   2.36269   6.59988
