Converted from moscito
 1944
    1SOL     ow    1   1.338   1.910   4.968 -0.3076  0.2167  0.0118
    1SOL     hw    2   1.257   1.906   5.019  0.6908  1.5838  1.8016
    1SOL     hw    3   1.398   1.852   5.016 -0.1636 -0.7261 -1.2608
    1SOL     vw    4   1.335   1.902   4.981  0.0185  0.0671  0.0226
    2SOL     ow    5   0.988   0.504   2.962  0.3365  0.7743 -0.1148
    2SOL     hw    6   1.049   0.430   2.962 -0.6408 -0.0651 -0.4461
    2SOL     hw    7   0.925   0.483   3.031 -1.3768  0.0308 -1.8102
    2SOL     vw    8   0.987   0.491   2.971 -0.0498 -0.0188  0.0325
    3SOL     ow    9   0.843   2.248   0.337  0.3082 -1.4386 -0.2570
    3SOL     hw   10   0.890   2.332   0.340 -0.4458 -0.9777 -0.8801
    3SOL     hw   11   0.819   2.238   0.245 -1.2317 -1.4094  0.1154
    3SOL     vw   12   0.846   2.258   0.325  0.0662 -0.0758 -0.0204
    4SOL     ow   13   0.769   2.155   1.579 -0.2685  0.4024 -0.3420
    4SOL     hw   14   0.858   2.181   1.554 -0.1132  0.2172  0.0132
    4SOL     hw   15   0.756   2.070   1.538 -0.7331  0.9720 -1.4061
    4SOL     vw   16   0.779   2.147   1.571 -0.0573  0.0234 -0.0091
    5SOL     ow   17   1.023   0.126   4.693  0.0605 -0.0889  0.0300
    5SOL     hw   18   0.985   0.125   4.781  0.8839 -1.3032  0.3800
    5SOL     hw   19   1.109   0.167   4.704 -0.2160  0.6383 -0.3940
    5SOL     vw   20   1.029   0.132   4.706  0.0046  0.0394 -0.0124
    6SOL     ow   21   0.794   1.953   0.346  0.4124  0.1442  0.5519
    6SOL     hw   22   0.762   1.965   0.256 -1.1526  1.5467  1.2379
    6SOL     hw   23   0.819   1.861   0.350  4.1401  0.7587 -2.3811
    6SOL     vw   24   0.793   1.943   0.334 -0.0105 -0.0131 -0.0064
    7SOL     ow   25   1.410   1.947   6.380  0.1326 -1.0341  0.3087
    7SOL     hw   26   1.316   1.965   6.381  0.5176  1.3399 -0.3847
    7SOL     hw   27   1.445   2.000   6.451  1.2870  0.5296 -1.3546
    7SOL     vw   28   1.402   1.956   6.389  0.0597  0.0488 -0.0672
    8SOL     ow   29   0.873   0.473   2.095 -0.6371  0.2153 -0.2739
    8SOL     hw   30   0.910   0.385   2.103 -0.4454  0.4025  1.2267
    8SOL     hw   31   0.805   0.465   2.028  0.8561 -0.5528 -1.7748
    8SOL     vw   32   0.869   0.461   2.087  0.0403  0.0756 -0.0260
    9SOL     ow   33   1.852   0.778   4.333 -0.5407  0.0993 -0.0871
    9SOL     hw   34   1.820   0.689   4.324  0.1123 -0.0292 -1.3989
    9SOL     hw   35   1.871   0.788   4.426 -0.8491 -1.0379  0.1078
    9SOL     vw   36   1.850   0.768   4.344 -0.0553  0.0949  0.0403
   10SOL     ow   37   1.184   0.104   3.895 -0.0856  0.3456 -0.2397
   10SOL     hw   38   1.259   0.053   3.866  0.5299  2.2419 -2.3740
   10SOL     hw   39   1.113   0.041   3.903  0.7072 -0.9269 -2.4101
   10SOL     vw   40   1.184   0.089   3.892 -0.0333  0.0091 -0.0142
   11SOL     ow   41   0.209   0.684   2.326 -0.1314  0.1168 -0.0403
   11SOL     hw   42   0.288   0.661   2.376  0.3072 -0.6985 -1.0483
   11SOL     hw   43   0.243   0.727   2.247 -0.8279  1.7195  0.5010
   11SOL     vw   44   0.224   0.686   2.322  0.0044  0.0940  0.0260
   12SOL     ow   45   0.628   2.197   3.464 -0.7825  0.2390 -0.0253
   12SOL     hw   46   0.593   2.217   3.551 -0.4066 -1.0579  0.4459
   12SOL     hw   47   0.551   2.173   3.412 -1.2602  2.8034 -0.6320
   12SOL     vw   48   0.613   2.197   3.468  0.0496 -0.0538  0.0179
   13SOL     ow   49   1.343   1.899   1.981 -0.2182  0.2528  0.8287
   13SOL     hw   50   1.359   1.975   2.037  1.8457  0.6854 -0.2214
   13SOL     hw   51   1.406   1.910   1.909 -2.1132 -0.7673 -1.0690
   13SOL     vw   52   1.354   1.911   1.979 -0.0325 -0.0076 -0.0300
   14SOL     ow   53   1.806   0.659   3.436  0.9050  0.2418  0.2548
   14SOL     hw   54   1.717   0.641   3.466  0.0548  1.2733 -1.4699
   14SOL     hw   55   1.853   0.690   3.514  0.0693 -1.2675  1.4017
   14SOL     vw   56   1.801   0.661   3.450  0.0010 -0.0050 -0.0290
   15SOL     ow   57   2.082   2.218   4.418 -0.1525 -0.0636  0.2072
   15SOL     hw   58   2.172   2.250   4.410 -0.1637 -0.2281 -0.6382
   15SOL     hw   59   2.074   2.192   4.510  0.3851  0.7648  0.5051
   15SOL     vw   60   2.093   2.219   4.429  0.0308  0.0051  0.0601
   16SOL     ow   61   1.506   1.966   1.365  0.9037 -0.5071  0.4694
   16SOL     hw   62   1.587   2.009   1.338  0.7378  1.0087  2.1337
   16SOL     hw   63   1.533   1.903   1.431  0.8188 -0.5799  0.4344
   16SOL     vw   64   1.520   1.964   1.370 -0.0352 -0.0745 -0.0985
   17SOL     ow   65   1.332   1.380   0.397 -0.6713 -0.1914 -0.3963
   17SOL     hw   66   1.356   1.315   0.463 -3.2755 -1.7460 -0.8368
   17SOL     hw   67   1.268   1.436   0.440  1.7517  2.4271  0.0703
   17SOL     vw   68   1.327   1.379   0.411 -0.0656 -0.0395 -0.0512
   18SOL     ow   69   0.184   0.425   2.214  0.3433  0.4522 -0.4893
   18SOL     hw   70   0.208   0.450   2.125  2.2699  1.2485  0.2079
   18SOL     hw   71   0.213   0.334   2.223 -2.0709 -0.4930 -1.3932
   18SOL     vw   72   0.191   0.416   2.204  0.0308  0.0112 -0.0076
   19SOL     ow   73   2.246   0.100   5.090 -0.1756  0.2248  0.7136
   19SOL     hw   74   2.214   0.019   5.129  0.0753  0.5578  1.6243
   19SOL     hw   75   2.169   0.157   5.087  0.2238  0.9455  2.6976
   19SOL     vw   76   2.232   0.097   5.095 -0.0080  0.0435  0.0439
   20SOL     ow   77   1.502   1.855   4.709  0.2471  0.2966 -0.2120
   20SOL     hw   78   1.502   1.762   4.733  0.2729  0.5663  0.8813
   20SOL     hw   79   1.560   1.859   4.632  1.1821 -0.4272  0.4181
   20SOL     vw   80   1.510   1.843   4.702  0.0452  0.0361  0.0081
   21SOL     ow   81   1.033   1.396   3.787  0.0043  0.1182  0.2547
   21SOL     hw   82   1.076   1.445   3.717 -1.3842  2.1767  0.7289
   21SOL     hw   83   1.090   1.409   3.863 -0.9652  2.2467  0.7075
   21SOL     vw   84   1.046   1.404   3.788 -0.0489 -0.0542 -0.0445
   22SOL     ow   85   1.116   1.063   0.531  0.0252 -0.0670 -0.3667
   22SOL     hw   86   1.211   1.072   0.525  0.0888 -0.1782  0.3789
   22SOL     hw   87   1.086   1.149   0.559  0.0960 -0.5294  1.2272
   22SOL     vw   88   1.125   1.075   0.534 -0.0777  0.0072  0.0550
   23SOL     ow   89   1.721   1.310   0.842  0.1869  0.1375 -0.1495
   23SOL     hw   90   1.629   1.319   0.868  0.3865  1.0082  0.3015
   23SOL     hw   91   1.725   1.227   0.795 -0.6101 -0.4611  0.8055
   23SOL     vw   92   1.710   1.300   0.840  0.0179  0.1104 -0.0883
   24SOL     ow   93   0.334   1.588   4.529  0.7742  0.0461 -0.3929
   24SOL     hw   94   0.419   1.601   4.571 -0.2195  0.7101  1.5520
   24SOL     hw   95   0.304   1.676   4.508 -0.9939  0.2592  2.3972
   24SOL     vw   96   0.341   1.601   4.532  0.0187  0.0035 -0.0083
   25SOL     ow   97   2.100   0.370   5.398  0.6405 -0.2221 -0.2144
   25SOL     hw   98   2.039   0.434   5.360  1.3046 -0.2229 -1.3549
   25SOL     hw   99   2.132   0.320   5.322 -0.5638 -2.5704  0.7439
   25SOL     vw  100   2.096   0.372   5.383  0.0327 -0.0155 -0.0482
   26SOL     ow  101   1.066   0.399   6.090 -0.4423 -0.3891 -0.3361
   26SOL     hw  102   1.126   0.348   6.036 -0.0698  0.2467 -0.5283
   26SOL     hw  103   1.121   0.463   6.134 -1.1266  1.1808 -1.6526
   26SOL     vw  104   1.081   0.401   6.089 -0.0117  0.0201 -0.0706
   27SOL     ow  105   0.379   1.630   5.923  0.3706  0.2771 -0.0847
   27SOL     hw  106   0.424   1.548   5.899  2.6680  1.0215  1.3945
   27SOL     hw  107   0.445   1.698   5.909 -1.0890  1.7415 -0.0398
   27SOL     vw  108   0.394   1.628   5.918  0.0001  0.0623  0.0103
   28SOL     ow  109   0.655   1.121   2.675  0.0281 -0.0204  0.1007
   28SOL     hw  110   0.654   1.205   2.720  0.4615  0.2777 -0.4353
   28SOL     hw  111   0.565   1.108   2.645 -0.2553 -0.2042  0.9986
   28SOL     vw  112   0.643   1.130   2.677  0.0882  0.0221  0.0271
   29SOL     ow  113   0.231   1.739   5.418  0.0075 -0.2836  0.5881
   29SOL     hw  114   0.289   1.663   5.409  1.1893  0.2920  2.6021
   29SOL     hw  115   0.176   1.736   5.340  1.5816 -1.8684 -0.5670
   29SOL     vw  116   0.232   1.728   5.407 -0.0363 -0.0618 -0.0477
   30SOL     ow  117   0.133   1.482   0.703  0.0385  0.1962 -0.0856
   30SOL     hw  118   0.109   1.431   0.626  0.0875  0.7903 -0.5057
   30SOL     hw  119   0.060   1.471   0.763 -1.0733  1.5269 -1.1224
   30SOL     vw  120   0.120   1.474   0.701 -0.0239 -0.0156  0.0656
   31SOL     ow  121   1.734   0.798   4.080  0.1460  0.0258 -0.4787
   31SOL     hw  122   1.798   0.766   4.016 -1.5310 -0.1654 -2.1158
   31SOL     hw  123   1.649   0.769   4.047 -0.7476 -1.0273  2.3890
   31SOL     vw  124   1.731   0.790   4.067  0.0217  0.0222  0.0157
   32SOL     ow  125   0.692   1.064   5.580  0.1562 -0.1715  0.8181
   32SOL     hw  126   0.702   1.065   5.485  1.4180 -0.5207  0.9276
   32SOL     hw  127   0.603   1.031   5.595 -0.0818 -0.0342 -0.2309
   32SOL     vw  128   0.682   1.060   5.570  0.0305  0.0207  0.0010
   33SOL     ow  129   0.522   2.261   1.657 -0.3582  0.5532 -0.0878
   33SOL     hw  130   0.514   2.277   1.751 -0.8543 -1.6719  0.3000
   33SOL     hw  131   0.611   2.228   1.645 -1.3146 -2.4521  0.2290
   33SOL     vw  132   0.533   2.259   1.668  0.0220 -0.0880  0.0252
   34SOL     ow  133   0.365   1.411   3.625 -0.0354  0.4377  0.1598
   34SOL     hw  134   0.315   1.403   3.707  0.5707 -0.2294  0.4749
   34SOL     hw  135   0.343   1.498   3.593 -1.3798  0.1826  0.3014
   34SOL     vw  136   0.355   1.421   3.632  0.0188 -0.0267 -0.0286
   35SOL     ow  137   1.365   1.171   0.556 -0.3797 -0.3648 -0.0722
   35SOL     hw  138   1.353   1.141   0.647 -0.0166  0.7794  0.3729
   35SOL     hw  139   1.385   1.091   0.507 -0.7364 -1.0244  0.8208
   35SOL     vw  140   1.366   1.156   0.562  0.1976  0.0070  0.0237
   36SOL     ow  141   2.295   0.801   4.622  0.1578 -0.0239 -0.2278
   36SOL     hw  142   2.235   0.744   4.574  1.5220 -1.3784 -0.4027
   36SOL     hw  143   2.296   0.882   4.571 -0.2240 -0.5993 -1.1897
   36SOL     vw  144   2.287   0.804   4.609 -0.0627  0.0429  0.0367
   37SOL     ow  145   1.677   1.436   6.388  0.6112  0.8206 -0.2359
   37SOL     hw  146   1.692   1.379   6.312 -0.1948  0.4558 -0.1263
   37SOL     hw  147   1.755   1.424   6.442  0.7593  0.3349 -0.5449
   37SOL     vw  148   1.689   1.427   6.385  0.0402 -0.0576 -0.0358
   38SOL     ow  149   1.510   0.414   0.513 -0.6836 -0.3848  0.4029
   38SOL     hw  150   1.451   0.483   0.481 -2.2441 -2.1953 -0.8802
   38SOL     hw  151   1.471   0.386   0.596 -0.2607  0.0131  0.7391
   38SOL     vw  152   1.497   0.420   0.520  0.0278  0.0265  0.0688
   39SOL     ow  153   1.825   2.025   4.319 -0.1394 -0.0674 -0.3494
   39SOL     hw  154   1.826   1.974   4.400  1.3082  1.5558  0.7281
   39SOL     hw  155   1.734   2.023   4.290 -0.1451 -3.3171 -0.4779
   39SOL     vw  156   1.813   2.018   4.325  0.0274  0.0321 -0.0539
   40SOL     ow  157   0.169   1.326   4.453  0.4388  0.1723  0.5589
   40SOL     hw  158   0.101   1.372   4.402 -0.2226  0.7944  1.9506
   40SOL     hw  159   0.220   1.279   4.387  0.1649  1.6468 -0.7736
   40SOL     vw  160   0.166   1.326   4.437  0.0832  0.0905  0.0424
   41SOL     ow  161   0.121   2.278   0.028 -0.0131  0.8608 -0.0777
   41SOL     hw  162   0.183   2.210   0.055  0.7412  1.5101 -0.1306
   41SOL     hw  163   0.035   2.241   0.046  0.4193  0.6003  1.5892
   41SOL     vw  164   0.118   2.264   0.034  0.0553  0.0222  0.0096
   42SOL     ow  165   1.536   0.535   4.980  0.2536 -0.3461 -0.5075
   42SOL     hw  166   1.504   0.519   4.891  1.0473 -2.3254 -0.4976
   42SOL     hw  167   1.587   0.457   5.001  1.8832  1.0214  0.9016
   42SOL     vw  168   1.539   0.522   4.971  0.0298  0.0157 -0.0813
   43SOL     ow  169   1.431   1.317   0.154 -0.7507  0.3039  0.6373
   43SOL     hw  170   1.395   1.339   0.240  1.8096  0.6257  1.7150
   43SOL     hw  171   1.453   1.224   0.161 -1.3771  0.0970 -0.0214
   43SOL     vw  172   1.429   1.307   0.166  0.0705  0.0175 -0.0071
   44SOL     ow  173   0.164   1.480   6.025 -0.3438 -0.0598 -0.6285
   44SOL     hw  174   0.243   1.458   6.073 -0.3762 -0.5631 -0.7970
   44SOL     hw  175   0.094   1.476   6.090 -0.2076  0.6059 -0.4314
   44SOL     vw  176   0.165   1.476   6.040 -0.0179 -0.1052  0.0689
   45SOL     ow  177   0.937   0.492   5.741  0.2487 -0.4140 -0.2211
   45SOL     hw  178   1.016   0.543   5.758 -0.1647 -0.1908  1.1469
   45SOL     hw  179   0.954   0.407   5.782 -0.2955 -0.2849  0.2947
   45SOL     vw  180   0.949   0.488   5.749  0.0462  0.0072  0.0160
   46SOL     ow  181   0.909   2.273   3.314  0.4079  0.3727  0.4740
   46SOL     hw  182   0.942   2.183   3.322 -0.0365  0.1217 -0.3925
   46SOL     hw  183   0.977   2.327   3.353  0.8521 -0.3091  0.6627
   46SOL     vw  184   0.922   2.268   3.320  0.0979 -0.0613  0.0199
   47SOL     ow  185   0.050   1.316   1.794  0.0844  0.1736 -0.4231
   47SOL     hw  186   0.114   1.314   1.723  0.2345  0.4377 -0.2945
   47SOL     hw  187   0.078   1.247   1.854 -1.0102 -1.2351 -1.4521
   47SOL     vw  188   0.062   1.306   1.793  0.0302  0.0217 -0.0039
   48SOL     ow  189   2.018   1.931   0.451  0.1842 -0.6737  0.6219
   48SOL     hw  190   1.925   1.947   0.463  0.1468 -0.5187  0.1799
   48SOL     hw  191   2.060   2.014   0.475  0.3903 -1.3244  2.7004
   48SOL     vw  192   2.011   1.944   0.455 -0.0075 -0.0190 -0.0067
   49SOL     ow  193   1.286   0.824   1.155  0.2941 -0.4047  0.5052
   49SOL     hw  194   1.335   0.901   1.184  1.0519 -0.5446 -0.3455
   49SOL     hw  195   1.239   0.794   1.232  0.0740  0.8479  0.8822
   49SOL     vw  196   1.286   0.831   1.169 -0.1202  0.0694 -0.0453
   50SOL     ow  197   0.269   0.272   1.066 -0.1287  0.0916 -0.0783
   50SOL     hw  198   0.318   0.340   1.112  1.1609 -0.1430 -1.0648
   50SOL     hw  199   0.189   0.261   1.118  0.3306  1.2902  0.9245
   50SOL     vw  200   0.265   0.280   1.079  0.0678 -0.0036 -0.0687
   51SOL     ow  201   1.872   0.506   3.122  0.1865 -0.1673 -0.0538
   51SOL     hw  202   1.789   0.476   3.083  1.3647 -2.0384 -1.3175
   51SOL     hw  203   1.938   0.483   3.057  1.8753 -0.0936  1.5583
   51SOL     vw  204   1.870   0.499   3.108 -0.0135 -0.0326 -0.0588
   52SOL     ow  205   0.752   1.287   2.452  0.0760  0.0662 -0.1290
   52SOL     hw  206   0.671   1.296   2.402 -1.4054 -1.6358  1.8167
   52SOL     hw  207   0.742   1.349   2.525 -0.4171 -1.4689  1.1763
   52SOL     vw  208   0.740   1.297   2.455  0.0127 -0.0461  0.0213
   53SOL     ow  209   0.095   0.302   6.408  0.1262  0.1069  0.1005
   53SOL     hw  210   0.012   0.339   6.376  0.8728  2.7372  0.9623
   53SOL     hw  211   0.162   0.339   6.350  0.7961 -1.5684 -0.2564
   53SOL     vw  212   0.093   0.312   6.396  0.0383 -0.0547  0.0021
   54SOL     ow  213   0.813   0.697   0.261 -0.0977 -0.6475 -0.3313
   54SOL     hw  214   0.791   0.607   0.284 -1.4334 -1.2394 -3.3102
   54SOL     hw  215   0.731   0.732   0.224  0.3860  1.8191  0.7541
   54SOL     vw  216   0.799   0.690   0.259  0.0439  0.0243 -0.0800
   55SOL     ow  217   2.222   0.633   2.289  1.0700 -0.3058 -0.7723
   55SOL     hw  218   2.133   0.608   2.266  1.1536 -1.0636 -0.3294
   55SOL     hw  219   2.222   0.728   2.286  0.1735 -0.2864 -0.5157
   55SOL     vw  220   2.210   0.642   2.286  0.0715  0.0115 -0.0082
   56SOL     ow  221   0.164   2.003   5.472 -0.0395  0.4896  0.0714
   56SOL     hw  222   0.117   2.031   5.551  0.3218 -0.8928  0.8117
   56SOL     hw  223   0.163   2.080   5.415 -2.3898  0.7992  0.4302
   56SOL     vw  224   0.158   2.017   5.475  0.0024  0.0906  0.0014
   57SOL     ow  225   1.986   0.747   1.481 -0.3263 -0.2498  0.3004
   57SOL     hw  226   1.970   0.687   1.409 -0.2440 -0.3887  0.3972
   57SOL     hw  227   1.899   0.778   1.507 -0.2800  0.7006 -0.6146
   57SOL     vw  228   1.972   0.743   1.475 -0.0217  0.0155 -0.0298
   58SOL     ow  229   0.460   1.891   5.331 -0.6140 -0.4514  0.2919
   58SOL     hw  230   0.487   1.805   5.298 -0.9116 -0.1993 -0.6470
   58SOL     hw  231   0.455   1.946   5.253  0.3585  0.6454  0.9679
   58SOL     vw  232   0.463   1.887   5.316  0.0088 -0.0036 -0.0110
   59SOL     ow  233   0.276   1.984   3.723  0.0537 -0.0043 -0.2655
   59SOL     hw  234   0.270   2.023   3.636 -0.2197  0.2802 -0.1184
   59SOL     hw  235   0.368   1.957   3.730  0.1383  0.2064 -0.5393
   59SOL     vw  236   0.288   1.986   3.712 -0.0220 -0.0283  0.0098
   60SOL     ow  237   0.947   0.856   0.481  0.2774  0.7290 -0.5946
   60SOL     hw  238   1.011   0.925   0.500  0.0515  0.7486  0.1003
   60SOL     hw  239   0.862   0.899   0.491  0.0930 -0.0111  1.3752
   60SOL     vw  240   0.944   0.871   0.485 -0.0171  0.0028  0.0960
   61SOL     ow  241   0.143   1.186   2.838 -0.4918 -0.2916  0.5106
   61SOL     hw  242   0.141   1.281   2.825 -2.2705 -0.4196 -0.4798
   61SOL     hw  243   0.145   1.175   2.933  1.3002  0.7102  0.6284
   61SOL     vw  244   0.143   1.197   2.848  0.1182  0.0916  0.0491
   62SOL     ow  245   0.007   0.759   6.105 -0.2778 -0.2623 -0.4921
   62SOL     hw  246   0.093   0.719   6.107  0.1930  0.6359 -1.4573
   62SOL     hw  247  -0.055   0.686   6.112  0.5439 -0.8614  0.8328
   62SOL     vw  248   0.010   0.744   6.106 -0.0083 -0.0069 -0.0291
   63SOL     ow  249   2.182   1.095   2.913  0.0210 -0.7859  0.4147
   63SOL     hw  250   2.160   1.147   2.991 -0.4305 -0.9409  0.3959
   63SOL     hw  251   2.129   1.016   2.921  1.4525 -1.7279  0.9521
   63SOL     vw  252   2.172   1.092   2.925 -0.0024 -0.0116  0.0094
   64SOL     ow  253   0.968   1.456   1.273  0.5630  0.1668 -0.0313
   64SOL     hw  254   1.054   1.413   1.268  1.0338  1.2452 -1.9533
   64SOL     hw  255   0.983   1.530   1.333  0.1994 -1.2074  1.8638
   64SOL     vw  256   0.981   1.460   1.280  0.0022  0.0891 -0.0033
   65SOL     ow  257   0.258   0.507   3.738 -0.1988 -0.3488  0.0882
   65SOL     hw  258   0.179   0.457   3.756 -0.7101  0.9287  1.5927
   65SOL     hw  259   0.237   0.558   3.660 -0.4258 -0.8784 -0.2015
   65SOL     vw  260   0.245   0.507   3.730  0.0646 -0.0196  0.0293
   66SOL     ow  261   1.645   0.148   0.519  0.3688 -0.5810  0.2200
   66SOL     hw  262   1.565   0.102   0.494 -0.4695 -0.5466  2.5481
   66SOL     hw  263   1.713   0.080   0.518  0.5773 -0.4299 -2.6324
   66SOL     vw  264   1.643   0.133   0.516 -0.0104  0.0252 -0.0718
   67SOL     ow  265   1.306   0.397   3.977 -0.3020 -0.2454  0.4235
   67SOL     hw  266   1.389   0.368   3.940 -1.0145 -2.7501  0.6388
   67SOL     hw  267   1.326   0.414   4.069  0.0486 -0.4618  0.3896
   67SOL     vw  268   1.319   0.396   3.985  0.0066  0.0675  0.1101
   68SOL     ow  269   1.120   1.759   2.039 -0.3201 -0.3217  0.3797
   68SOL     hw  270   1.201   1.801   2.011  0.6151 -2.5081 -0.3374
   68SOL     hw  271   1.129   1.751   2.134  1.9955 -3.6402  0.0497
   68SOL     vw  272   1.132   1.764   2.048  0.0168  0.0206  0.0128
   69SOL     ow  273   0.852   0.403   5.414  0.5732  0.1794 -0.7036
   69SOL     hw  274   0.822   0.418   5.324  0.6943 -0.3306 -0.8321
   69SOL     hw  275   0.803   0.326   5.443  0.3513  0.4904 -0.2440
   69SOL     vw  276   0.842   0.395   5.406  0.0022 -0.0150  0.0646
   70SOL     ow  277   1.170   1.759   5.230  0.0905  0.4783 -0.5472
   70SOL     hw  278   1.247   1.790   5.277  0.2872  1.3799 -1.4367
   70SOL     hw  279   1.137   1.837   5.184 -0.8031 -0.1047 -0.9223
   70SOL     vw  280   1.176   1.773   5.230 -0.0476  0.0453  0.0191
   71SOL     ow  281   2.022   1.596   0.464 -0.1047  0.5690 -0.1255
   71SOL     hw  282   2.027   1.532   0.394 -2.0695  2.0844 -1.7626
   71SOL     hw  283   1.962   1.557   0.528 -2.9838  1.4879 -2.0781
   71SOL     vw  284   2.015   1.582   0.463  0.0565  0.0654  0.0055
   72SOL     ow  285   1.270   0.521   1.109  0.7842 -0.6286  0.1265
   72SOL     hw  286   1.221   0.439   1.110  1.4538 -1.0758 -0.8077
   72SOL     hw  287   1.352   0.500   1.154 -0.4341  0.5460  3.1246
   72SOL     vw  288   1.275   0.508   1.115  0.0399 -0.0269 -0.0902
   73SOL     ow  289   1.381   2.250   3.808  0.4941  0.3443  0.7607
   73SOL     hw  290   1.389   2.211   3.722 -0.5342  1.0323  0.3293
   73SOL     hw  291   1.458   2.220   3.856  0.7350 -0.5766 -0.1786
   73SOL     vw  292   1.392   2.241   3.803  0.0066  0.0092 -0.0147
   74SOL     ow  293   0.721   0.074   2.186 -0.0696 -0.8556  0.0958
   74SOL     hw  294   0.626   0.062   2.188 -0.1884 -0.1633 -0.6957
   74SOL     hw  295   0.746   0.056   2.096  0.2203  1.1174 -0.2651
   74SOL     vw  296   0.712   0.070   2.175  0.0246  0.0124  0.0118
   75SOL     ow  297   2.026   0.475   5.642  0.2510  0.8326  0.0429
   75SOL     hw  298   2.057   0.564   5.659  0.5178  0.6090  0.7769
   75SOL     hw  299   1.960   0.460   5.710 -1.3093  1.2070 -1.3360
   75SOL     vw  300   2.022   0.485   5.653 -0.0231  0.0360  0.0441
   76SOL     ow  301   2.108   0.970   6.251  0.7802 -0.1960 -0.0842
   76SOL     hw  302   2.093   1.006   6.163 -1.4068 -2.2819 -0.6705
   76SOL     hw  303   2.069   1.035   6.309  0.3603  0.2368 -0.8244
   76SOL     vw  304   2.101   0.984   6.247 -0.0277 -0.0620  0.0124
   77SOL     ow  305   1.311   1.085   0.793  0.9496 -0.0257  0.1921
   77SOL     hw  306   1.226   1.047   0.770  1.8358 -0.7666 -2.2009
   77SOL     hw  307   1.290   1.156   0.854 -1.5396  0.7081 -1.3735
   77SOL     vw  308   1.297   1.089   0.798 -0.0097 -0.0283 -0.0145
   78SOL     ow  309   1.237   1.469   1.936 -0.3404 -0.1823 -0.6498
   78SOL     hw  310   1.191   1.386   1.922 -1.9058  0.8623 -2.0203
   78SOL     hw  311   1.309   1.467   1.873 -0.6957 -0.2763 -1.0580
   78SOL     vw  312   1.241   1.458   1.926  0.0500  0.0232  0.0733
   79SOL     ow  313   1.277   1.535   4.292  0.3852 -0.2226 -0.4572
   79SOL     hw  314   1.349   1.503   4.345  1.4338 -1.4986 -2.5085
   79SOL     hw  315   1.302   1.624   4.268 -0.9375  1.0890  2.4687
   79SOL     vw  316   1.290   1.543   4.296 -0.0683  0.0148  0.0312
   80SOL     ow  317   1.038   1.453   4.125 -0.6033 -0.1562  0.7444
   80SOL     hw  318   1.064   1.511   4.053 -3.5099 -0.5691 -0.7968
   80SOL     hw  319   1.019   1.513   4.197 -0.7409  0.5697  0.1251
   80SOL     vw  320   1.039   1.469   4.125 -0.1028  0.0470 -0.0029
   81SOL     ow  321   1.719   1.876   4.510 -0.0267  0.3881 -0.4844
   81SOL     hw  322   1.662   1.860   4.436  0.2820  0.3058 -0.7084
   81SOL     hw  323   1.774   1.798   4.516 -0.6602 -0.0016  0.3978
   81SOL     vw  324   1.719   1.864   4.501 -0.0139 -0.0063  0.0172
   82SOL     ow  325   1.379   2.250   1.306 -0.8211  0.0380  0.4581
   82SOL     hw  326   1.301   2.306   1.305  0.3088  1.7327  2.1271
   82SOL     hw  327   1.451   2.309   1.284  0.1084 -1.4041 -0.5816
   82SOL     vw  328   1.378   2.265   1.303  0.0454 -0.0505  0.0495
   83SOL     ow  329   1.852   1.140   3.518  0.3040 -0.6036 -0.0302
   83SOL     hw  330   1.941   1.146   3.482 -0.3151  2.8086 -1.4495
   83SOL     hw  331   1.798   1.114   3.444 -0.3475  1.5574 -0.3789
   83SOL     vw  332   1.857   1.138   3.503 -0.0328  0.1105  0.0316
   84SOL     ow  333   0.215   0.135   4.916  0.3434 -0.2521  0.4599
   84SOL     hw  334   0.261   0.123   4.833  2.3549 -2.5827  1.7952
   84SOL     hw  335   0.279   0.178   4.973 -1.0596  1.4562  0.8421
   84SOL     vw  336   0.229   0.139   4.913  0.0759  0.0224 -0.0064
   85SOL     ow  337   1.023   0.144   4.398  0.0996 -0.5199 -0.0633
   85SOL     hw  338   1.116   0.153   4.419 -0.0185  0.4333  0.0663
   85SOL     hw  339   1.021   0.116   4.307  0.4994 -0.1696 -0.1794
   85SOL     vw  340   1.035   0.141   4.389 -0.0609 -0.0251  0.0558
   86SOL     ow  341   0.943   1.525   5.308  0.0417 -0.1911 -0.1152
   86SOL     hw  342   0.887   1.449   5.294  0.5009 -0.2192 -2.1393
   86SOL     hw  343   0.883   1.595   5.332 -0.3219 -1.2898  2.4230
   86SOL     vw  344   0.928   1.524   5.309  0.0829  0.0833 -0.0265
   87SOL     ow  345   0.641   1.388   1.260  0.1509 -0.0741 -0.2601
   87SOL     hw  346   0.611   1.478   1.247 -1.2160 -0.6669 -1.6356
   87SOL     hw  347   0.563   1.335   1.243  0.8255 -1.5031  0.9264
   87SOL     vw  348   0.626   1.393   1.256  0.0179 -0.0474 -0.1024
   88SOL     ow  349   0.276   1.979   2.257  0.2984  0.0019  0.1021
   88SOL     hw  350   0.214   2.049   2.277  0.6036  0.5325 -0.7460
   88SOL     hw  351   0.223   1.910   2.217  0.0208 -0.2045  0.8092
   88SOL     vw  352   0.261   1.979   2.254  0.0387 -0.0620  0.0106
   89SOL     ow  353   1.572   1.750   2.770  0.4472  0.1387 -0.0370
   89SOL     hw  354   1.551   1.798   2.690 -0.7651 -0.3581 -0.0304
   89SOL     hw  355   1.549   1.659   2.751  1.3379 -0.2130  0.4611
   89SOL     vw  356   1.566   1.744   2.757  0.0223  0.0099  0.0035
   90SOL     ow  357   0.056   1.792   3.850 -0.0169 -0.1114  0.3067
   90SOL     hw  358  -0.015   1.778   3.787 -0.1596 -2.0473  0.8176
   90SOL     hw  359   0.031   1.739   3.926  0.3721  1.8115  1.8412
   90SOL     vw  360   0.044   1.783   3.851 -0.0064  0.0245  0.0241
   91SOL     ow  361   0.892   0.443   6.347 -0.1650  0.4899 -0.4222
   91SOL     hw  362   0.825   0.506   6.321  1.5250  3.0311  0.9472
   91SOL     hw  363   0.878   0.429   6.440 -0.3379 -1.0075 -0.6517
   91SOL     vw  364   0.882   0.450   6.356  0.0620  0.0371  0.0432
   92SOL     ow  365   1.814   1.247   2.341  0.0608  0.1970  0.0453
   92SOL     hw  366   1.868   1.263   2.418 -3.1821 -1.5299  2.9418
   92SOL     hw  367   1.811   1.151   2.334 -0.9431  0.2980 -1.3391
   92SOL     vw  368   1.821   1.236   2.350 -0.0829  0.0002  0.0471
   93SOL     ow  369   1.829   1.261   5.449 -0.5979  0.0381  0.5428
   93SOL     hw  370   1.803   1.204   5.377  0.4332 -0.4455  0.5313
   93SOL     hw  371   1.778   1.230   5.524 -1.3876  0.2935  0.1212
   93SOL     vw  372   1.819   1.249   5.449 -0.0483 -0.0458 -0.0532
   94SOL     ow  373   0.544   2.088   2.283  0.3636 -0.0503 -0.0477
   94SOL     hw  374   0.508   2.159   2.228 -0.5147 -1.1346 -0.9185
   94SOL     hw  375   0.511   2.106   2.370  0.0234  0.5315 -0.2910
   94SOL     vw  376   0.535   2.100   2.287 -0.0411 -0.0261  0.0335
   95SOL     ow  377   1.477   0.737   5.227  0.2756  0.6580  0.4416
   95SOL     hw  378   1.514   0.754   5.313  0.6212  3.3306 -0.1540
   95SOL     hw  379   1.428   0.817   5.206  2.1295  1.1069 -2.7747
   95SOL     vw  380   1.475   0.750   5.236  0.0004 -0.0293 -0.0122
   96SOL     ow  381   0.037   0.434   2.479 -0.1044 -0.0684  0.1139
   96SOL     hw  382   0.118   0.402   2.518  0.4376 -0.1881 -1.0672
   96SOL     hw  383  -0.022   0.448   2.554  0.8137 -0.4908  0.9385
   96SOL     vw  384   0.040   0.432   2.494  0.0037  0.0541 -0.0134
   97SOL     ow  385   0.035   2.198   4.904 -0.1206  0.0886 -0.3303
   97SOL     hw  386   0.047   2.129   4.969  3.3268  0.1546 -0.7316
   97SOL     hw  387   0.017   2.152   4.822 -2.5304 -0.0548  0.2010
   97SOL     vw  388   0.034   2.183   4.902  0.0398 -0.0541 -0.0319
   98SOL     ow  389   1.760   0.979   2.395  0.0715  0.1472  0.2195
   98SOL     hw  390   1.719   0.985   2.482 -0.7453  0.7986 -0.1997
   98SOL     hw  391   1.805   0.895   2.396 -0.2092 -0.0106  1.1581
   98SOL     vw  392   1.761   0.969   2.407  0.0273  0.0153  0.0243
   99SOL     ow  393   0.245   2.290   1.537 -0.0433 -0.5363  1.1679
   99SOL     hw  394   0.259   2.213   1.482  1.1051 -0.2113  0.9783
   99SOL     hw  395   0.189   2.259   1.608  1.1606 -1.7909  1.6111
   99SOL     vw  396   0.239   2.276   1.539 -0.0034  0.0282 -0.0088
  100SOL     ow  397   1.766   1.965   2.946  0.4974 -0.7960  0.1204
  100SOL     hw  398   1.827   1.966   2.873 -0.7432 -2.9099 -1.0400
  100SOL     hw  399   1.821   1.980   3.023  1.7662  1.9953 -1.1905
  100SOL     vw  400   1.782   1.967   2.947 -0.0696  0.0052 -0.0503
  101SOL     ow  401   1.547   1.178   3.599 -0.1232 -0.4445  0.0398
  101SOL     hw  402   1.544   1.082   3.591  0.6903 -0.3722 -1.4488
  101SOL     hw  403   1.460   1.207   3.570 -0.7500 -0.7678  1.5234
  101SOL     vw  404   1.535   1.169   3.594 -0.1157 -0.0168 -0.0275
  102SOL     ow  405   2.245   0.159   4.788 -0.6739  0.3311 -0.2781
  102SOL     hw  406   2.255   0.149   4.693 -2.7990  0.2909 -0.5503
  102SOL     hw  407   2.159   0.200   4.799 -0.3424  0.6049  1.6329
  102SOL     vw  408   2.235   0.163   4.776 -0.0546  0.0349 -0.0970
  103SOL     ow  409   0.592   0.529   3.742 -0.7225  1.0830  0.2238
  103SOL     hw  410   0.637   0.545   3.659  1.5244  1.0424  1.3563
  103SOL     hw  411   0.624   0.598   3.800 -1.7747  0.7389  1.2561
  103SOL     vw  412   0.602   0.540   3.739  0.0911 -0.0011  0.0201
  104SOL     ow  413   0.774   1.313   3.623 -0.5074  0.1546 -0.1639
  104SOL     hw  414   0.736   1.401   3.612 -1.7624 -0.3791 -0.2606
  104SOL     hw  415   0.815   1.294   3.539  0.4247  0.9357  0.0960
  104SOL     vw  416   0.774   1.322   3.610  0.0558  0.0359  0.0844
  105SOL     ow  417   1.370   0.994   5.161 -0.1945  0.3146 -0.0926
  105SOL     hw  418   1.282   1.027   5.142 -0.9223 -0.2463  2.0485
  105SOL     hw  419   1.417   1.002   5.078 -2.0774  1.1889 -1.1353
  105SOL     vw  420   1.364   1.000   5.148 -0.0164 -0.0881 -0.0045
  106SOL     ow  421   0.344   1.584   0.514 -0.0986 -0.1797 -0.9438
  106SOL     hw  422   0.301   1.543   0.439 -2.2809  0.9517 -0.3733
  106SOL     hw  423   0.438   1.571   0.497 -0.5190 -4.6098 -1.2080
  106SOL     vw  424   0.351   1.577   0.501 -0.0358  0.0251 -0.0939
  107SOL     ow  425   2.084   0.700   1.753  0.0068  0.1546 -0.5579
  107SOL     hw  426   2.157   0.732   1.805 -0.2051  2.8299 -1.7206
  107SOL     hw  427   2.012   0.692   1.815  0.9443 -1.4506  0.3892
  107SOL     vw  428   2.084   0.704   1.768  0.0122  0.0569 -0.0575
  108SOL     ow  429   1.181   0.607   5.805 -0.2377  0.5349  0.2164
  108SOL     hw  430   1.238   0.671   5.764  1.0103 -0.0310  1.0211
  108SOL     hw  431   1.239   0.535   5.831 -1.5225 -0.7411 -0.2683
  108SOL     vw  432   1.196   0.606   5.803 -0.0203 -0.0138 -0.0365
  109poe    c31  433   0.308   1.195   4.160  0.1799  0.5515 -0.5828
  109poe     o2  434   0.330   1.235   4.293  0.0417  0.0345 -0.4032
  109poe    c23  435   0.449   1.190   4.352 -0.0497 -0.0267 -0.2632
  109poe    c23  436   0.452   1.166   4.504 -0.1359 -0.3156 -0.3062
  109poe     o2  437   0.431   1.280   4.584  0.3463 -0.7643  0.4704
  109poe    c23  438   0.446   1.252   4.722 -0.0951 -0.6127  0.5501
  109poe    c23  439   0.316   1.285   4.799 -0.4185 -0.1808 -0.1691
  109poe     o2  440   0.274   1.417   4.770 -0.6693 -0.3121 -0.4013
  109poe    c23  441   0.153   1.429   4.842 -0.4235 -0.3477  0.0165
  109poe    c23  442   0.063   1.531   4.770  0.1511  0.3334  0.2447
  109poe     o2  443   0.054   1.486   4.637 -0.0226  0.1985  0.3002
  109poe    c31  444  -0.066   1.532   4.581 -0.1698 -0.2471  0.2439
  110poe    c31  445   1.451   1.756   6.114 -0.0017 -0.1465 -0.3936
  110poe     o2  446   1.558   1.835   6.161 -0.1513 -0.1366 -0.0624
  110poe    c23  447   1.649   1.758   6.235  0.1228  0.8935  0.6970
  110poe    c23  448   1.775   1.830   6.287  0.7233  0.5782 -0.2862
  110poe     o2  449   1.741   1.962   6.326 -0.9938  0.2646 -0.6275
  110poe    c23  450   1.817   2.054   6.251  0.0824  0.3391  0.5215
  110poe    c23  451   1.728   2.176   6.220 -0.0962  0.1421  0.2506
  110poe     o2  452   1.598   2.144   6.177  0.2502 -0.2145 -0.5457
  110poe    c23  453   1.520   2.244   6.114 -0.1492 -0.1427  0.0560
  110poe    c23  454   1.408   2.175   6.033  0.1402 -0.3725 -0.1524
  110poe     o2  455   1.357   2.072   6.115 -0.5429 -0.0710 -0.1840
  110poe    c31  456   1.230   2.030   6.073 -0.3203 -0.6340 -0.3115
  111poe    c31  457   1.082   1.867   6.371 -0.4715  0.6593 -0.0264
  111poe     o2  458   1.160   1.973   6.423  0.2750  0.1224 -0.0374
  111poe    c23  459   1.127   2.039   6.543  0.5056  0.0077  0.0899
  111poe    c23  460   1.120   1.967   6.678  0.2102  0.1445  0.1484
  111poe     o2  461   1.103   2.055   6.787 -0.1328  0.3390 -0.0620
  111poe    c23  462   1.106   1.989   6.911 -0.5323  0.2386 -0.1047
  111poe    c23  463   1.054   2.072   7.030  0.2147  0.2578  0.2104
  111poe     o2  464   0.920   2.109   7.009  0.0336 -0.3092  0.3615
  111poe    c23  465   0.849   2.163   7.118 -0.0729  0.0186  0.1316
  111poe    c23  466   0.710   2.214   7.076 -0.3218 -0.7843 -0.0275
  111poe     o2  467   0.666   2.129   6.973  0.0740 -0.4772 -0.4523
  111poe    c31  468   0.526   2.131   6.963  0.0633  0.4103 -0.1683
  112poe    c31  469   0.309   1.217   1.242 -0.3149 -0.6320 -0.0388
  112poe     o2  470   0.438   1.208   1.186 -0.4117  0.4567 -0.4683
  112poe    c23  471   0.441   1.106   1.089  0.0190 -0.0579  0.0768
  112poe    c23  472   0.580   1.064   1.039  0.0826  0.2202  0.0218
  112poe     o2  473   0.644   1.181   0.993  0.1837 -0.0164 -0.4467
  112poe    c23  474   0.779   1.147   0.972  0.0100 -0.8830 -0.2011
  112poe    c23  475   0.884   1.226   1.053 -0.5579 -0.5471  0.2168
  112poe     o2  476   0.873   1.218   1.194  0.2311 -0.4849  0.2918
  112poe    c23  477   0.893   1.089   1.247  1.1941 -0.3460  0.2796
  112poe    c23  478   0.836   1.115   1.388  0.2411  0.4115 -0.2292
  112poe     o2  479   0.849   1.245   1.440  0.8234  0.0791  0.4839
  112poe    c31  480   0.785   1.261   1.565 -0.0169  0.0872  0.0623
  113poe    c31  481   2.010   0.805   5.584  0.2969  0.1243 -0.1705
  113poe     o2  482   2.096   0.718   5.653 -0.3544 -0.0035  0.4903
  113poe    c23  483   2.229   0.748   5.616 -0.2061 -0.5774  0.5411
  113poe    c23  484   2.330   0.658   5.689  0.1743 -0.3617  0.2869
  113poe     o2  485   2.294   0.523   5.668 -0.0591 -0.2281 -0.1846
  113poe    c23  486   2.402   0.435   5.693  0.1643  0.0373 -0.2083
  113poe    c23  487   2.348   0.301   5.746  0.1984  0.0582 -0.1213
  113poe     o2  488   2.262   0.236   5.656  0.2954  0.0390 -0.1995
  113poe    c23  489   2.216   0.107   5.691 -0.2759  0.1855 -0.3899
  113poe    c23  490   2.063   0.107   5.706 -0.2699  0.1568 -0.3285
  113poe     o2  491   2.013   0.180   5.596  0.0581  0.1344 -0.4934
  113poe    c31  492   1.877   0.161   5.565 -0.0562 -0.4367  0.3364
  114poe    c31  493   1.502   1.083   2.277  0.1195  0.0669  0.3535
  114poe     o2  494   1.533   1.217   2.246 -0.3954  0.0722 -0.1596
  114poe    c23  495   1.417   1.275   2.191 -0.3614  0.3055  0.0151
  114poe    c23  496   1.454   1.424   2.177 -0.4134  0.3520  0.3407
  114poe     o2  497   1.560   1.460   2.262 -0.0635 -0.3304  0.1968
  114poe    c23  498   1.595   1.595   2.243 -0.1686 -0.3546 -0.1818
  114poe    c23  499   1.739   1.602   2.297 -0.3739  0.0063  0.3373
  114poe     o2  500   1.744   1.559   2.431  0.4922 -0.3312  0.2015
  114poe    c23  501   1.870   1.576   2.492  0.2822  0.7664  0.3405
  114poe    c23  502   1.878   1.522   2.636  0.0201 -0.2745 -0.0296
  114poe     o2  503   1.863   1.382   2.621  0.1925 -0.2698 -0.2597
  114poe    c31  504   1.853   1.301   2.736  0.1286  0.0765 -0.0185
  115poe    c31  505   1.016   1.912   4.985  0.3296 -0.3692 -0.8005
  115poe     o2  506   1.112   1.976   5.067 -0.1472  0.2479 -0.7144
  115poe    c23  507   1.076   2.109   5.097 -0.7094 -0.1496  0.4441
  115poe    c23  508   1.167   2.159   5.211 -0.7503  0.3389  0.2650
  115poe     o2  509   1.138   2.102   5.337  0.0651  0.4940  0.5248
  115poe    c23  510   1.254   2.118   5.416  0.5286 -0.1164 -0.0205
  115poe    c23  511   1.316   1.987   5.466  0.3099 -0.2320 -0.0516
  115poe     o2  512   1.342   1.899   5.358 -0.0522 -0.5735  0.1348
  115poe    c23  513   1.474   1.921   5.312  0.0589  0.4581  0.8917
  115poe    c23  514   1.543   1.796   5.255 -0.5068  0.6539 -0.2579
  115poe     o2  515   1.489   1.759   5.130  0.0109 -0.2337 -0.2297
  115poe    c31  516   1.539   1.643   5.068  0.4032 -0.2554  0.1241
  116poe    c31  517   0.143   2.270   2.843 -0.1459 -0.5953 -0.7440
  116poe     o2  518   0.015   2.323   2.871 -0.0356 -0.4415 -0.5361
  116poe    c23  519  -0.018   2.427   2.783  0.0032  0.4214  0.4534
  116poe    c23  520  -0.164   2.401   2.742  0.1605  0.2052  0.0257
  116poe     o2  521  -0.237   2.373   2.860  0.3489  0.2259  0.1469
  116poe    c23  522  -0.376   2.352   2.850  0.3763  0.2402 -0.2965
  116poe    c23  523  -0.420   2.357   2.997 -0.6918 -0.9935 -0.5637
  116poe     o2  524  -0.343   2.273   3.080  0.1883  0.8333  0.5285
  116poe    c23  525  -0.435   2.234   3.178 -0.4097  0.2632 -0.2488
  116poe    c23  526  -0.382   2.102   3.238 -0.5007  0.3110 -0.0601
  116poe     o2  527  -0.396   1.992   3.150 -0.1876 -0.1557  0.4679
  116poe    c31  528  -0.322   1.882   3.199 -0.4102 -0.3289  0.4143
  117poe    c31  529   1.178   0.580   5.484 -0.1465  0.3545 -0.3907
  117poe     o2  530   1.040   0.598   5.462 -0.1945 -0.1775 -0.5488
  117poe    c23  531   1.022   0.738   5.451 -0.0729 -0.1505 -0.4126
  117poe    c23  532   0.870   0.756   5.435 -0.1383 -0.5220 -0.2151
  117poe     o2  533   0.796   0.687   5.534  0.1820  0.2496  0.5764
  117poe    c23  534   0.658   0.683   5.504  0.1729  0.8147  0.5192
  117poe    c23  535   0.594   0.610   5.623 -0.3497 -0.4040 -0.4809
  117poe     o2  536   0.663   0.488   5.622  0.5065  0.0636  0.2851
  117poe    c23  537   0.599   0.395   5.707 -0.0241 -0.4249 -0.6314
  117poe    c23  538   0.698   0.277   5.716  0.1583 -0.2130  0.2882
  117poe     o2  539   0.704   0.217   5.588 -0.5836 -0.2502  0.2626
  117poe    c31  540   0.675   0.080   5.590 -0.1348 -0.3503  0.1915
  118poe    c31  541   1.119   1.981   3.313  0.1983 -0.3297 -0.2272
  118poe     o2  542   0.978   1.989   3.308  0.2169 -0.0931 -0.3945
  118poe    c23  543   0.928   1.940   3.186 -0.0114 -0.1991 -0.2579
  118poe    c23  544   0.775   1.955   3.174 -0.0761 -0.7787 -0.1660
  118poe     o2  545   0.722   2.085   3.174  0.8051 -0.4117  0.8171
  118poe    c23  546   0.748   2.153   3.053 -0.0523 -0.3125  0.6867
  118poe    c23  547   0.650   2.272   3.051  0.1968 -0.1152 -0.2119
  118poe     o2  548   0.662   2.358   3.162  0.2892 -0.6333  0.1828
  118poe    c23  549   0.591   2.479   3.167  0.4534 -0.4994 -0.5784
  118poe    c23  550   0.668   2.552   3.278  0.0918 -0.4589 -0.3503
  118poe     o2  551   0.685   2.463   3.385  0.1169 -0.0126  0.0232
  118poe    c31  552   0.764   2.522   3.487 -0.2087 -0.2449  0.4134
  119poe    c31  553   1.062   1.211   5.614 -0.3558  0.4463  0.3906
  119poe     o2  554   0.994   1.099   5.667  0.4536 -0.2300  0.0174
  119poe    c23  555   1.100   1.011   5.698  0.3766 -0.2305  0.2791
  119poe    c23  556   1.056   0.956   5.835 -0.0203  0.1962  0.3282
  119poe     o2  557   0.921   0.917   5.818 -0.0514  0.2866  0.3701
  119poe    c23  558   0.868   0.848   5.929  0.3399 -0.0642  0.3423
  119poe    c23  559   0.724   0.802   5.901  0.4412  0.3512 -0.9416
  119poe     o2  560   0.665   0.915   5.841 -0.2803  0.2470 -0.4411
  119poe    c23  561   0.529   0.923   5.878 -0.1472  0.4617 -0.0048
  119poe    c23  562   0.443   1.020   5.796 -0.2276  0.2818 -0.1322
  119poe     o2  563   0.431   0.990   5.659  0.0125  0.3165 -0.1615
  119poe    c31  564   0.349   1.088   5.598  0.2315  0.7500  0.2349
  120poe    c31  565   1.139   1.416   5.052  0.2292  0.2333 -0.1349
  120poe     o2  566   1.206   1.465   5.165 -0.0440 -0.3281  0.2791
  120poe    c23  567   1.287   1.361   5.215 -0.3380 -0.5623  0.2698
  120poe    c23  568   1.340   1.415   5.349 -0.0583 -0.0097 -0.0598
  120poe     o2  569   1.235   1.478   5.419  0.0801  0.0879  0.0616
  120poe    c23  570   1.281   1.532   5.541  0.2560 -0.1556  0.1044
  120poe    c23  571   1.177   1.623   5.610 -0.0706 -0.3824 -0.0821
  120poe     o2  572   1.097   1.675   5.506 -0.3543  0.1926  0.4165
  120poe    c23  573   0.984   1.744   5.556 -0.5536  0.2018 -0.0410
  120poe    c23  574   0.921   1.845   5.459  0.0068  0.5328 -0.0616
  120poe     o2  575   0.854   1.762   5.367 -0.1354  0.1937  0.3491
  120poe    c31  576   0.814   1.848   5.263  0.1890  0.1849  0.2166
  121poe    c31  577   0.178   0.871   2.929 -0.0672  0.0987  0.7180
  121poe     o2  578   0.092   0.899   2.821  0.3381 -0.4154  0.2646
  121poe    c23  579   0.106   0.808   2.713 -0.1955  0.0271 -0.1813
  121poe    c23  580  -0.003   0.842   2.610 -0.1268 -0.1378 -0.3079
  121poe     o2  581   0.004   0.983   2.614  0.0400 -0.1560  0.0946
  121poe    c23  582  -0.098   1.048   2.541  0.3264  0.3960  0.1786
  121poe    c23  583  -0.053   1.195   2.534 -0.0494  0.5057  0.0465
  121poe     o2  584  -0.036   1.256   2.659 -0.0862  0.1997  0.2029
  121poe    c23  585  -0.028   1.396   2.643  0.0675  0.1564 -0.0998
  121poe    c23  586   0.008   1.481   2.767  0.4990  0.0639 -0.1616
  121poe     o2  587   0.140   1.465   2.816  0.4097 -0.0870  0.0321
  121poe    c31  588   0.165   1.564   2.914  0.0245 -0.3376  0.3876
  122poe    c31  589   2.181   0.249   2.153  0.1519  0.0257 -0.0941
  122poe     o2  590   2.146   0.273   2.019 -0.0884  0.3208  0.0199
  122poe    c23  591   2.229   0.374   1.964  0.9296 -0.0580  0.8310
  122poe    c23  592   2.208   0.372   1.811 -0.2380 -0.0212  0.9815
  122poe     o2  593   2.068   0.363   1.800 -0.1350 -0.1479 -0.3127
  122poe    c23  594   2.021   0.359   1.667  0.7124 -0.0682 -0.6205
  122poe    c23  595   1.871   0.323   1.675  0.6771  0.1786 -0.1902
  122poe     o2  596   1.862   0.248   1.794 -0.0672  0.4555 -0.0677
  122poe    c23  597   1.732   0.213   1.836  0.0864 -0.1802 -0.1122
  122poe    c23  598   1.761   0.111   1.947  0.2064 -0.0242  0.0013
  122poe     o2  599   1.884   0.140   2.008  0.5944  0.0945 -0.8166
  122poe    c31  600   1.889   0.062   2.126 -0.1646  0.2800 -0.6609
  123poe    c31  601   1.211   0.687   6.151 -0.5961 -0.6536 -0.2397
  123poe     o2  602   1.204   0.560   6.212 -0.0322 -0.5521  0.0461
  123poe    c23  603   1.327   0.526   6.272  0.2039  0.5644  0.2089
  123poe    c23  604   1.296   0.420   6.379  0.1000  0.1436 -0.2354
  123poe     o2  605   1.253   0.295   6.331  0.4602 -0.0066 -0.1715
  123poe    c23  606   1.231   0.195   6.429 -0.3945  0.2159 -0.1238
  123poe    c23  607   1.123   0.093   6.390 -0.2071 -0.0980  0.1756
  123poe     o2  608   1.010   0.149   6.327 -0.0241 -0.2474 -0.2896
  123poe    c23  609   0.942   0.054   6.249 -0.2463 -0.3949  0.0823
  123poe    c23  610   0.806   0.109   6.202 -0.2533 -0.0963  0.4422
  123poe     o2  611   0.830   0.236   6.147  0.2585 -0.3163  0.1513
  123poe    c31  612   0.711   0.294   6.098  0.7993  0.0907 -0.7055
  124poe    c31  613   2.057   1.713   3.680  0.1182  0.6875 -0.2753
  124poe     o2  614   2.163   1.805   3.690  0.3856  0.3533  0.0012
  124poe    c23  615   2.099   1.923   3.647 -0.1785 -0.0503 -0.2840
  124poe    c23  616   2.197   2.041   3.642 -0.7234  0.4240  0.1119
  124poe     o2  617   2.202   2.117   3.761 -0.5961 -0.1743  0.4900
  124poe    c23  618   2.303   2.215   3.753  0.0500 -0.8860 -0.2080
  124poe    c23  619   2.374   2.236   3.888 -0.0760 -0.1373 -0.2570
  124poe     o2  620   2.412   2.112   3.943  0.1900  0.0840  0.0585
  124poe    c23  621   2.466   2.123   4.073  0.1730 -0.0995  0.0804
  124poe    c23  622   2.491   1.985   4.137 -0.2319 -0.1498  0.1366
  124poe     o2  623   2.566   1.922   4.036  0.4866 -0.2630  0.7249
  124poe    c31  624   2.653   1.825   4.089  0.8511 -0.3276  0.0231
  125poe    c31  625   0.049   0.218   1.344  0.3245 -0.0197  0.0805
  125poe     o2  626   0.078   0.222   1.207 -0.0563  0.2263  0.0063
  125poe    c23  627  -0.033   0.188   1.127  0.0599  0.1972 -0.1448
  125poe    c23  628  -0.069   0.307   1.035 -0.3433  0.2541  0.0819
  125poe     o2  629   0.027   0.321   0.933 -0.4178 -0.3093 -0.0697
  125poe    c23  630  -0.010   0.437   0.862  0.1202 -0.2583 -0.2676
  125poe    c23  631   0.078   0.445   0.736 -0.0736 -0.0845 -0.3927
  125poe     o2  632   0.211   0.429   0.778 -0.1425 -0.1846 -0.2129
  125poe    c23  633   0.316   0.453   0.686 -0.0521  0.6103  0.0858
  125poe    c23  634   0.429   0.357   0.728 -0.5559  0.0671  0.2160
  125poe     o2  635   0.375   0.244   0.793 -0.0834 -0.5326 -0.4186
  125poe    c31  636   0.476   0.147   0.809  0.6402  0.0872 -1.1642
  126poe    c31  637   1.678   1.631   0.230 -0.2820  0.0050 -0.4619
  126poe     o2  638   1.556   1.593   0.171 -0.2098 -0.5039 -0.2880
  126poe    c23  639   1.458   1.692   0.195 -0.0844 -0.4907  0.1896
  126poe    c23  640   1.333   1.629   0.130 -0.4673  0.1762  0.2762
  126poe     o2  641   1.375   1.573   0.008  0.2579  0.4282  0.4039
  126poe    c23  642   1.267   1.512  -0.060  0.2100  0.5832  0.3381
  126poe    c23  643   1.324   1.440  -0.184 -0.5810 -0.1644  0.3953
  126poe     o2  644   1.422   1.349  -0.139 -0.3349 -0.2455 -0.2865
  126poe    c23  645   1.423   1.235  -0.222  0.2123  0.0319 -0.6689
  126poe    c23  646   1.554   1.161  -0.187  0.2347  0.4845  0.2300
  126poe     o2  647   1.673   1.229  -0.220  0.1758  0.7302  0.5203
  126poe    c31  648   1.762   1.149  -0.294 -0.2836  0.5232  0.1862
  127poe    c31  649   0.115   1.598   5.671  0.3193 -0.6144 -0.4605
  127poe     o2  650   0.117   1.662   5.796 -0.1720 -0.4953 -0.5122
  127poe    c23  651   0.015   1.760   5.805 -0.1217 -0.5010  0.2334
  127poe    c23  652   0.039   1.854   5.924 -0.3213 -0.3152  0.1284
  127poe     o2  653   0.096   1.785   6.033 -0.5120 -0.1795  0.3156
  127poe    c23  654   0.105   1.866   6.148 -0.0016  0.5993 -0.2617
  127poe    c23  655   0.134   1.777   6.271  0.2271  0.0216 -0.7283
  127poe     o2  656   0.231   1.683   6.231  0.4430  0.1055 -0.4006
  127poe    c23  657   0.304   1.629   6.339 -0.3211 -0.0395  0.0524
  127poe    c23  658   0.411   1.527   6.296 -0.0560 -0.1474  0.9427
  127poe     o2  659   0.353   1.418   6.228  0.0490  0.3028  0.1240
  127poe    c31  660   0.447   1.339   6.158  0.2090  0.0932  0.5760
  128poe    c31  661   1.167   1.644   4.735 -0.3922  0.1268  0.1938
  128poe     o2  662   1.197   1.779   4.709 -0.1956 -0.0072 -0.2771
  128poe    c23  663   1.117   1.834   4.607 -0.3400  0.5450  0.1301
  128poe    c23  664   1.186   1.962   4.556  0.1849  0.1051 -0.2868
  128poe     o2  665   1.245   2.035   4.661 -0.0588  0.0663 -0.1220
  128poe    c23  666   1.281   2.165   4.619 -0.3344 -0.0192 -0.6355
  128poe    c23  667   1.362   2.230   4.733  0.0294 -0.8051 -0.4443
  128poe     o2  668   1.431   2.125   4.799  0.6729 -0.0658  0.0744
  128poe    c23  669   1.556   2.181   4.833  0.3299  0.3847  0.6040
  128poe    c23  670   1.592   2.145   4.979  0.5100  0.5320  0.5955
  128poe     o2  671   1.496   2.186   5.074 -0.2079  0.3924 -0.0616
  128poe    c31  672   1.545   2.256   5.186 -0.1127 -0.1135  0.2162
  129poe    c31  673   1.037   1.751   3.990 -0.5943 -0.3107  0.2754
  129poe     o2  674   1.143   1.658   3.993 -0.3026  0.0186  0.1460
  129poe    c23  675   1.236   1.685   3.891 -0.5141 -0.3440 -0.1457
  129poe    c23  676   1.354   1.589   3.916  0.0375  0.2994 -0.2328
  129poe     o2  677   1.311   1.454   3.913  0.1581  0.2606 -0.2089
  129poe    c23  678   1.400   1.362   3.973  0.1458 -0.0717 -0.6981
  129poe    c23  679   1.332   1.232   4.019 -0.3705  0.5794  0.4139
  129poe     o2  680   1.254   1.238   4.136 -1.0803  0.4543 -0.0487
  129poe    c23  681   1.191   1.117   4.174  0.2935 -0.1267  0.4167
  129poe    c23  682   1.157   1.120   4.324  0.4482  0.1686  0.4477
  129poe     o2  683   1.138   1.256   4.356 -0.0173  0.2176 -0.0347
  129poe    c31  684   1.049   1.268   4.465 -0.5944  0.2329 -0.4997
  130poe    c31  685   1.529   0.368   0.207  0.0355 -0.2137 -0.5722
  130poe     o2  686   1.651   0.343   0.274 -0.2459  0.4806  0.2193
  130poe    c23  687   1.760   0.391   0.199 -0.4035  0.4896 -0.0065
  130poe    c23  688   1.877   0.344   0.287 -0.3737 -0.0887 -0.3513
  130poe     o2  689   1.850   0.369   0.424 -0.5537 -0.6652 -0.2808
  130poe    c23  690   1.952   0.330   0.513 -0.5998 -0.2691 -0.0550
  130poe    c23  691   1.910   0.404   0.641  0.4042 -0.3770  0.3451
  130poe     o2  692   1.774   0.372   0.660  0.0423  0.7528 -0.2481
  130poe    c23  693   1.731   0.400   0.792 -0.0047  0.5067 -0.2109
  130poe    c23  694   1.626   0.297   0.837  0.0429  0.4635 -0.1987
  130poe     o2  695   1.501   0.339   0.788 -0.1446 -0.3522 -0.4274
  130poe    c31  696   1.396   0.253   0.827 -0.1655 -0.1298  0.0129
  131poe    c31  697   1.901   0.896   4.696 -0.7450  0.6437 -0.6872
  131poe     o2  698   1.901   0.805   4.587  0.5502 -0.1790 -0.0164
  131poe    c23  699   1.953   0.681   4.631  0.1481 -0.1829  0.4651
  131poe    c23  700   2.030   0.592   4.532  0.0626  0.3450 -0.0888
  131poe     o2  701   2.148   0.647   4.478 -0.2159  0.4874 -0.5512
  131poe    c23  702   2.188   0.591   4.355  0.2155 -0.3461 -0.0389
  131poe    c23  703   2.312   0.669   4.309  0.1638 -0.2731 -0.0556
  131poe     o2  704   2.409   0.677   4.411 -0.1515  0.0893  0.2190
  131poe    c23  705   2.521   0.754   4.370 -0.1423 -0.1923 -0.2859
  131poe    c23  706   2.635   0.741   4.473 -0.4026  0.0001  0.0284
  131poe     o2  707   2.595   0.785   4.601  0.3522  0.2893  0.1666
  131poe    c31  708   2.715   0.795   4.675  0.0398  0.1144  0.6961
  132poe    c31  709   0.382   2.219   2.592  0.0940  0.1626 -0.3821
  132poe     o2  710   0.431   2.109   2.519  0.0834  0.3772 -0.7169
  132poe    c23  711   0.369   1.995   2.573  0.7698  0.2669 -0.1389
  132poe    c23  712   0.444   1.865   2.541  0.1070 -0.1933  0.1492
  132poe     o2  713   0.490   1.832   2.412  0.0725  0.2525  0.0233
  132poe    c23  714   0.545   1.704   2.394 -0.3130  0.1302 -0.3051
  132poe    c23  715   0.655   1.724   2.288  0.2291 -0.1464  0.1950
  132poe     o2  716   0.596   1.794   2.181 -0.1761 -0.5404  0.1547
  132poe    c23  717   0.676   1.792   2.065 -0.6436 -0.6135 -0.1662
  132poe    c23  718   0.629   1.876   1.945 -0.7464  0.3658  0.5502
  132poe     o2  719   0.512   1.820   1.890 -0.3223  0.1909 -0.1856
  132poe    c31  720   0.445   1.924   1.821 -0.0894  0.5752  0.1616
  133poe    c31  721   2.300   2.037   1.431  0.3179 -0.5115 -0.2053
  133poe     o2  722   2.438   2.038   1.460  0.2891 -0.1010 -0.0887
  133poe    c23  723   2.525   1.959   1.383  0.1440 -0.1228 -0.2294
  133poe    c23  724   2.669   2.012   1.383 -0.0857  0.5158 -0.2291
  133poe     o2  725   2.679   2.148   1.347  0.0991  0.5733  0.0345
  133poe    c23  726   2.798   2.183   1.281  0.1086  0.1536 -0.1764
  133poe    c23  727   2.814   2.336   1.272 -0.2380  0.1737 -0.4756
  133poe     o2  728   2.779   2.397   1.394  0.2426 -0.0551 -0.2224
  133poe    c23  729   2.814   2.534   1.398 -0.4362  0.1123  0.0609
  133poe    c23  730   2.720   2.618   1.486 -0.0549  0.6929 -0.0807
  133poe     o2  731   2.696   2.545   1.604  0.0449  0.6566 -0.0828
  133poe    c31  732   2.604   2.615   1.685 -0.4162 -0.0454  0.0177
  134poe    c31  733   1.956   2.189   4.741 -0.3395 -0.1814  0.3802
  134poe     o2  734   2.035   2.120   4.647  0.1768  0.1482  0.5690
  134poe    c23  735   2.015   1.981   4.663  0.0920  0.0827 -0.0842
  134poe    c23  736   2.100   1.896   4.567  0.1666 -0.0725  0.1186
  134poe     o2  737   2.064   1.915   4.432 -0.1513 -0.0194  0.2112
  134poe    c23  738   2.154   1.858   4.340  0.0232  0.3426  0.1577
  134poe    c23  739   2.106   1.889   4.197  0.1142 -0.0667  0.0382
  134poe     o2  740   2.105   2.029   4.180 -0.2962 -0.0645  0.0634
  134poe    c23  741   2.057   2.068   4.053  0.5523  0.2626 -0.1651
  134poe    c23  742   2.021   2.217   4.047 -0.1115  0.0990 -0.2553
  134poe     o2  743   1.936   2.230   4.159 -0.2425 -0.0230 -0.3393
  134poe    c31  744   1.866   2.353   4.160 -0.4335 -0.1338  0.0040
  135poe    c31  745   1.145   2.062   1.542  0.7685  0.2160 -0.1532
  135poe     o2  746   1.192   2.038   1.411  0.4596  0.1456 -0.2520
  135poe    c23  747   1.085   1.970   1.349  0.2154  0.3205 -0.0302
  135poe    c23  748   1.101   1.993   1.197  0.1207 -0.3312 -0.1446
  135poe     o2  749   1.238   1.987   1.165  0.2551 -0.0505  0.3548
  135poe    c23  750   1.265   2.031   1.034 -0.0254  0.7255  0.5507
  135poe    c23  751   1.414   2.012   0.999 -0.1501  0.2046  0.2772
  135poe     o2  752   1.502   2.072   1.092  0.3312 -0.2073  0.0946
  135poe    c23  753   1.637   2.078   1.053  0.3521  0.4612  0.2617
  135poe    c23  754   1.724   2.142   1.164  0.4474 -0.1554  0.5470
  135poe     o2  755   1.742   2.050   1.269  0.6132 -0.3186  0.3756
  135poe    c31  756   1.832   2.095   1.368  0.6961 -0.3397  0.3108
  136poe    c31  757   0.205   0.029   5.400 -0.3298  0.1937 -0.2456
  136poe     o2  758   0.240  -0.082   5.320  0.5639  0.0435  0.3392
  136poe    c23  759   0.363  -0.057   5.256  0.3834  0.0334 -0.0144
  136poe    c23  760   0.360  -0.135   5.123  0.0188  0.2103 -0.1122
  136poe     o2  761   0.410  -0.267   5.130 -0.5120 -0.0274 -0.7345
  136poe    c23  762   0.459  -0.308   5.005  0.5161 -0.3614 -0.2328
  136poe    c23  763   0.434  -0.460   4.996 -0.5978 -0.2100  0.2718
  136poe     o2  764   0.512  -0.525   5.094 -0.2150  0.2819  0.2987
  136poe    c23  765   0.492  -0.664   5.078 -0.4696  0.3587 -0.0626
  136poe    c23  766   0.549  -0.735   5.202 -0.5116  0.2649 -0.0972
  136poe     o2  767   0.490  -0.694   5.323 -0.5735  0.0014 -0.0369
  136poe    c31  768   0.532  -0.775   5.431 -0.4687 -0.5201 -0.4630
  137poe    c31  769   2.159   2.104   6.349  0.6042 -0.0637 -0.0795
  137poe     o2  770   2.204   2.150   6.475  0.1248  0.4510 -0.0935
  137poe    c23  771   2.103   2.222   6.542  0.5937  0.8072  0.2392
  137poe    c23  772   2.148   2.271   6.680 -0.6872  0.6124  0.7428
  137poe     o2  773   2.247   2.371   6.670  0.0951 -0.1754  0.4896
  137poe    c23  774   2.283   2.422   6.797  0.1153  0.1845  0.3402
  137poe    c23  775   2.371   2.546   6.773  0.3288 -0.0955 -0.3534
  137poe     o2  776   2.470   2.502   6.683  0.4969 -0.0979 -0.1685
  137poe    c23  777   2.597   2.562   6.697  0.6298 -0.4979  0.3419
  137poe    c23  778   2.697   2.492   6.603  0.9611  0.5069 -0.0646
  137poe     o2  779   2.643   2.459   6.476  0.1273 -0.1440  0.4497
  137poe    c31  780   2.742   2.406   6.391  0.0340  0.1414  0.1643
  138poe    c31  781   0.232   1.422   0.209 -0.2189 -0.2194 -0.1786
  138poe     o2  782   0.215   1.419   0.349 -0.5397  0.0913 -0.2096
  138poe    c23  783   0.164   1.296   0.396  0.4853 -0.1233  0.3698
  138poe    c23  784   0.270   1.233   0.488  0.3205 -0.4439  0.3413
  138poe     o2  785   0.274   1.289   0.617 -0.5904 -0.7288  0.4978
  138poe    c23  786   0.346   1.209   0.708 -0.1844 -0.4498  0.4252
  138poe    c23  787   0.484   1.272   0.732 -0.3107 -0.1722  0.4291
  138poe     o2  788   0.450   1.407   0.754 -0.2813 -0.1164  0.1294
  138poe    c23  789   0.570   1.481   0.750 -0.4760  0.1948  0.0304
  138poe    c23  790   0.528   1.608   0.827  0.2654  0.4699 -0.0152
  138poe     o2  791   0.404   1.638   0.767  0.0259  0.1757  0.3308
  138poe    c31  792   0.335   1.738   0.839  0.2987  0.4146  0.2641
  139poe    c31  793   0.390   1.291   2.597  0.0075  0.1880  0.7713
  139poe     o2  794   0.424   1.155   2.595 -0.4698  0.0782 -0.0892
  139poe    c23  795   0.385   1.095   2.473 -0.0559  0.1567 -0.2635
  139poe    c23  796   0.476   0.977   2.434 -0.3365 -0.1818  0.0966
  139poe     o2  797   0.610   1.011   2.409 -0.3187 -0.4052 -0.1090
  139poe    c23  798   0.693   0.909   2.356 -0.0598 -0.4422  0.3594
  139poe    c23  799   0.830   0.969   2.317 -0.1788 -0.0911  0.4713
  139poe     o2  800   0.882   1.025   2.435 -0.2751 -0.2797  0.6048
  139poe    c23  801   1.009   1.083   2.413 -0.3048 -0.3153  0.3389
  139poe    c23  802   1.055   1.125   2.554  0.1755  0.0427  0.0757
  139poe     o2  803   0.952   1.187   2.626 -0.0051  0.0000 -0.1426
  139poe    c31  804   1.008   1.250   2.740  0.5000 -0.7038  0.0067
  140poe    c31  805   2.072   1.777   0.120  0.2609  0.5234  0.0069
  140poe     o2  806   2.156   1.775   0.233  0.1659  0.3367  0.0733
  140poe    c23  807   2.285   1.729   0.199 -0.1960 -0.3151 -0.4470
  140poe    c23  808   2.357   1.763   0.330 -0.1701 -0.8031 -0.3356
  140poe     o2  809   2.284   1.737   0.448 -0.4047  0.5507 -0.1710
  140poe    c23  810   2.337   1.802   0.561 -0.0388 -0.3664  0.1893
  140poe    c23  811   2.262   1.765   0.690 -0.2021  0.9496  0.4795
  140poe     o2  812   2.124   1.771   0.662 -0.0779  0.2509 -0.2988
  140poe    c23  813   2.056   1.740   0.782  0.1424 -0.3234 -0.3201
  140poe    c23  814   1.904   1.744   0.759  0.0952 -0.6684 -0.0827
  140poe     o2  815   1.871   1.638   0.672  0.4603 -0.7852 -0.0789
  140poe    c31  816   1.734   1.649   0.643  0.4704 -0.3395  0.0354
  141poe    c31  817   1.203   1.683   1.668  0.4941  0.2340 -0.1203
  141poe     o2  818   1.100   1.657   1.760  0.1046  0.5003 -0.4811
  141poe    c23  819   1.003   1.577   1.697  0.5430 -0.4974  0.0966
  141poe    c23  820   0.892   1.530   1.793  0.0859  0.5715  0.1023
  141poe     o2  821   0.958   1.494   1.913  0.1745 -0.0319 -0.1255
  141poe    c23  822   0.865   1.442   2.005  0.0267 -0.1481 -0.3392
  141poe    c23  823   0.924   1.441   2.147 -0.3934 -0.7718 -0.1644
  141poe     o2  824   0.969   1.565   2.198 -0.7143 -0.4713 -0.6128
  141poe    c23  825   1.054   1.533   2.305 -0.8316  0.7084 -0.1531
  141poe    c23  826   1.117   1.658   2.369  0.1989  0.2364 -0.2319
  141poe     o2  827   1.214   1.728   2.294  0.2861  0.0936 -0.2522
  141poe    c31  828   1.246   1.848   2.361  0.0286 -0.1306  0.2750
  142poe    c31  829   0.327   1.198   1.623  0.1403  0.4019  0.0902
  142poe     o2  830   0.283   1.332   1.632  0.4059  0.4946  0.0192
  142poe    c23  831   0.355   1.398   1.734  0.5252  0.2678  0.0826
  142poe    c23  832   0.327   1.549   1.733 -0.1456  0.1533  0.6048
  142poe     o2  833   0.188   1.571   1.748 -0.3059 -0.0864 -0.4785
  142poe    c23  834   0.163   1.708   1.726  0.2657  0.0512 -0.2950
  142poe    c23  835   0.014   1.726   1.690  0.2103  0.2630  0.0393
  142poe     o2  836  -0.054   1.642   1.780  0.4594 -0.0403 -0.0546
  142poe    c23  837  -0.187   1.616   1.744  0.4832 -0.0713 -0.1206
  142poe    c23  838  -0.252   1.518   1.843  0.1105 -0.4597 -0.7367
  142poe     o2  839  -0.155   1.439   1.907  0.2425  0.2416 -0.0512
  142poe    c31  840  -0.215   1.332   1.976  0.5347 -0.1486 -0.3936
  143poe    c31  841   1.181   0.646   0.196  0.0404 -0.0855 -0.4800
  143poe     o2  842   1.116   0.766   0.233  0.5738  0.1612 -0.3401
  143poe    c23  843   1.177   0.880   0.175  0.2734  0.7193  0.4303
  143poe    c23  844   1.091   1.000   0.219 -0.3260  0.6149 -0.4209
  143poe     o2  845   0.953   0.973   0.214 -0.2234 -0.0727  0.3711
  143poe    c23  846   0.894   1.097   0.242 -0.0613  0.1864 -0.4276
  143poe    c23  847   0.746   1.069   0.275  0.0713 -0.0330 -0.0219
  143poe     o2  848   0.725   0.957   0.359 -0.0033  0.5525  0.7579
  143poe    c23  849   0.589   0.964   0.396 -0.1207  0.5270  0.3363
  143poe    c23  850   0.547   0.867   0.508 -0.0549  0.2648  0.1348
  143poe     o2  851   0.594   0.925   0.627  0.3362 -0.1307  0.1750
  143poe    c31  852   0.572   0.831   0.730  0.6656 -0.8571 -0.4070
  144poe    c31  853   0.949   0.369   4.145 -0.0380  0.0190 -0.6839
  144poe     o2  854   0.981   0.355   4.009 -0.1906 -0.4199 -0.6779
  144poe    c23  855   0.948   0.479   3.949 -0.3928 -0.1056  0.0821
  144poe    c23  856   0.964   0.451   3.799  0.2782  0.1304  0.1066
  144poe     o2  857   1.093   0.401   3.777 -0.1157 -0.6957 -0.3511
  144poe    c23  858   1.138   0.373   3.646 -0.0777  0.8817 -0.6959
  144poe    c23  859   1.292   0.370   3.639 -0.0548 -0.0497 -0.0164
  144poe     o2  860   1.345   0.297   3.747  0.2149 -0.1262 -0.1982
  144poe    c23  861   1.476   0.266   3.705  0.1802  0.1389 -0.5029
  144poe    c23  862   1.558   0.238   3.833 -0.3506 -0.2520 -0.2431
  144poe     o2  863   1.561   0.342   3.928 -0.1955 -0.4663 -0.0142
  144poe    c31  864   1.651   0.446   3.901 -0.4516 -0.1097  0.4997
  145poe    c31  865   1.630   0.405   5.288  0.0134 -0.1627 -0.3640
  145poe     o2  866   1.509   0.427   5.221 -0.2892  0.4782  0.3642
  145poe    c23  867   1.408   0.350   5.282 -0.0491 -0.3809 -0.2893
  145poe    c23  868   1.280   0.355   5.195 -0.2088 -0.3007 -0.0522
  145poe     o2  869   1.268   0.491   5.163  0.2324 -0.1552  0.3782
  145poe    c23  870   1.181   0.503   5.052  0.3453 -0.0328  0.3021
  145poe    c23  871   1.161   0.654   5.029  0.3167 -0.0432  0.2593
  145poe     o2  872   1.283   0.719   5.001  0.1319 -0.1010 -0.6878
  145poe    c23  873   1.274   0.815   4.898 -0.5880 -0.0020 -0.5405
  145poe    c23  874   1.416   0.847   4.846 -0.1930 -0.2403  0.3734
  145poe     o2  875   1.486   0.936   4.930  0.0208 -0.1133  0.0588
  145poe    c31  876   1.577   1.018   4.859 -0.4093 -0.0122 -0.3769
  146poe    c31  877   1.161   0.653   2.248  0.0720  0.0440 -0.4346
  146poe     o2  878   1.156   0.612   2.113 -0.0696  0.1014 -0.4464
  146poe    c23  879   1.286   0.611   2.058  0.1906  0.6019  0.1549
  146poe    c23  880   1.272   0.517   1.937 -0.0828  0.2519  0.4552
  146poe     o2  881   1.145   0.538   1.881  0.0545 -0.6644 -0.2265
  146poe    c23  882   1.120   0.444   1.779 -0.2618 -0.6451 -0.1684
  146poe    c23  883   0.990   0.488   1.709 -0.0940 -0.6181 -0.4638
  146poe     o2  884   0.887   0.480   1.804  0.1577  0.1587 -0.1208
  146poe    c23  885   0.760   0.483   1.743  0.0622  0.1835  0.0792
  146poe    c23  886   0.661   0.581   1.809 -0.2282 -0.2451  0.2844
  146poe     o2  887   0.672   0.576   1.950 -0.0705  0.2612  0.2919
  146poe    c31  888   0.606   0.675   2.026 -0.2874  0.5199 -0.2254
  147poe    c31  889   1.075   0.889   2.976 -0.1204  0.0262  0.2735
  147poe     o2  890   1.009   0.800   2.889 -0.0851 -0.0151  0.2891
  147poe    c23  891   0.904   0.854   2.813  0.2450  0.2378  0.0064
  147poe    c23  892   0.878   0.749   2.703  0.1723 -0.1101  0.3555
  147poe     o2  893   0.989   0.744   2.617  0.0949  0.0820  0.2431
  147poe    c23  894   1.038   0.612   2.612 -0.0805  0.0266 -0.0677
  147poe    c23  895   1.185   0.591   2.655 -0.1192 -0.2711 -0.0746
  147poe     o2  896   1.208   0.609   2.793 -0.1172  0.2142 -0.1348
  147poe    c23  897   1.318   0.538   2.845 -0.0378  0.0680 -0.4995
  147poe    c23  898   1.350   0.615   2.974 -0.0373 -0.1806 -0.3501
  147poe     o2  899   1.228   0.631   3.044 -0.0343 -0.2247 -0.3344
  147poe    c31  900   1.264   0.647   3.179 -0.1662 -0.6615 -0.2472
  148poe    c31  901   2.123   0.767   3.304 -0.4696  0.4244  0.4140
  148poe     o2  902   2.067   0.640   3.281 -0.1250  0.2831  0.3534
  148poe    c23  903   2.171   0.544   3.283 -0.2827  0.0938 -0.2819
  148poe    c23  904   2.130   0.450   3.398  0.1103 -0.2694 -0.4351
  148poe     o2  905   1.996   0.419   3.365 -0.0173 -0.2520  0.0643
  148poe    c23  906   1.928   0.330   3.452 -0.0467  0.3889  0.7119
  148poe    c23  907   1.791   0.298   3.391  0.4833  0.2228 -0.4333
  148poe     o2  908   1.714   0.411   3.355  0.3517  0.1995 -0.2282
  148poe    c23  909   1.590   0.389   3.291  0.3064  0.3045 -0.1763
  148poe    c23  910   1.583   0.309   3.160  0.4028  0.3437 -0.2056
  148poe     o2  911   1.645   0.395   3.067  0.0609  0.4862 -0.3041
  148poe    c31  912   1.630   0.340   2.938  0.3714 -0.4768  0.0589
  149poe    c31  913   2.207   1.116   4.419  0.3763 -0.1448 -0.0399
  149poe     o2  914   2.208   1.055   4.546 -0.2029  0.0541  0.0623
  149poe    c23  915   2.212   1.163   4.637 -0.3057  0.1087  0.0018
  149poe    c23  916   2.201   1.112   4.782  0.3707  0.2280  0.1010
  149poe     o2  917   2.311   1.036   4.824  0.0099 -0.4424 -0.1496
  149poe    c23  918   2.278   0.947   4.928 -0.0979 -0.1960  0.0270
  149poe    c23  919   2.394   0.862   4.985 -0.4539 -0.5097  0.2858
  149poe     o2  920   2.445   0.786   4.879  0.2775  0.1841  0.1314
  149poe    c23  921   2.481   0.663   4.938 -0.4152 -0.1103 -0.0536
  149poe    c23  922   2.420   0.550   4.852 -1.3136  0.2995  0.0314
  149poe     o2  923   2.476   0.560   4.723  0.1204 -0.0962  0.6098
  149poe    c31  924   2.474   0.445   4.642  0.1873  0.3438 -0.0208
  150poe    c31  925   1.134   2.228   4.197  0.2745  0.5563  0.0669
  150poe     o2  926   1.000   2.269   4.204  0.1246 -0.0322  0.7770
  150poe    c23  927   0.904   2.169   4.230  0.1044 -0.2169  0.0230
  150poe    c23  928   0.786   2.247   4.290  0.2578 -0.1984  0.3040
  150poe     o2  929   0.805   2.271   4.427  0.0125  0.1119  0.2839
  150poe    c23  930   0.810   2.157   4.509  0.8397 -0.0567  0.0034
  150poe    c23  931   0.742   2.183   4.645 -0.0271 -0.0632 -0.4211
  150poe     o2  932   0.778   2.316   4.675 -0.6154 -0.0678  0.3130
  150poe    c23  933   0.677   2.401   4.727 -0.0417  0.5402  0.4410
  150poe    c23  934   0.701   2.542   4.668 -0.2752  0.3335 -0.1602
  150poe     o2  935   0.744   2.529   4.535 -0.3990  0.1940 -0.1868
  150poe    c31  936   0.728   2.655   4.473 -0.0684  0.1679 -0.3273
  151poe    c31  937   1.578   0.789   1.384  0.3598 -0.4439  0.3152
  151poe     o2  938   1.691   0.835   1.455  0.1652 -0.3562  0.5677
  151poe    c23  939   1.659   0.959   1.513  0.1073  0.1049 -0.4311
  151poe    c23  940   1.763   1.009   1.615 -0.1276 -0.0239 -0.1275
  151poe     o2  941   1.889   1.023   1.553 -0.1532  0.4945 -0.0616
  151poe    c23  942   1.970   1.106   1.634  0.2242 -0.0179  0.0857
  151poe    c23  943   2.107   1.105   1.563  0.5277  0.4626  0.6646
  151poe     o2  944   2.171   0.979   1.556  0.6065  0.5612 -0.5109
  151poe    c23  945   2.282   0.971   1.470  0.6685  0.3712 -0.4120
  151poe    c23  946   2.383   0.859   1.500 -0.2443 -0.2638  0.3453
  151poe     o2  947   2.303   0.745   1.524 -0.2965 -0.2509  0.2307
  151poe    c31  948   2.385   0.632   1.543  0.8418  0.5788  0.3487
  152poe    c31  949   1.754   0.998   5.248  0.5354 -0.0001  0.1209
  152poe     o2  950   1.830   1.114   5.221  0.1193  0.2506  0.0057
  152poe    c23  951   1.823   1.160   5.088  0.2519 -0.2213 -0.1699
  152poe    c23  952   1.918   1.282   5.080  0.4064 -0.2722  0.7367
  152poe     o2  953   1.881   1.393   5.158  0.1843  0.5476 -0.5090
  152poe    c23  954   1.964   1.506   5.145 -0.5234  1.0630 -0.6018
  152poe    c23  955   1.946   1.618   5.250  0.4707  0.6559  0.0209
  152poe     o2  956   1.970   1.562   5.377 -0.0673 -0.0656 -0.1831
  152poe    c23  957   2.013   1.653   5.476 -0.6291  0.0558 -0.0487
  152poe    c23  958   1.995   1.588   5.615 -0.3767  0.2360  0.0686
  152poe     o2  959   2.051   1.460   5.603 -0.2037  0.3089  0.0949
  152poe    c31  960   2.058   1.407   5.733  0.4656 -0.1864 -0.1371
  153poe    c31  961   0.741   0.153   2.565  0.4685 -0.7485  0.0810
  153poe     o2  962   0.761   0.031   2.499 -0.1367 -0.5382 -0.5035
  153poe    c23  963   0.849  -0.046   2.578 -0.1184 -0.3433 -0.3341
  153poe    c23  964   0.873  -0.187   2.521 -0.1929 -0.4871 -0.0087
  153poe     o2  965   0.867  -0.161   2.383 -0.0487  0.2995  0.1284
  153poe    c23  966   0.857  -0.280   2.308 -0.2180  0.2860  0.1719
  153poe    c23  967   0.927  -0.285   2.170 -0.1181  0.0525  0.2292
  153poe     o2  968   0.865  -0.193   2.083  0.6133  0.8236  0.5043
  153poe    c23  969   0.948  -0.168   1.971  0.0021 -0.5383 -0.2951
  153poe    c23  970   0.889  -0.056   1.884  0.1734 -0.1709  0.0532
  153poe     o2  971   0.842   0.052   1.961  0.4691  0.1929 -0.2723
  153poe    c31  972   0.804   0.145   1.861  0.4554  0.3862 -0.0873
  154poe    c31  973   1.107   0.756   1.451  0.2321  0.0961 -0.2429
  154poe     o2  974   1.094   0.753   1.311  0.3800 -0.6678 -0.2486
  154poe    c23  975   1.022   0.639   1.271 -0.2710 -0.3898  0.1088
  154poe    c23  976   0.968   0.646   1.127  0.2176 -0.2441 -0.0702
  154poe     o2  977   1.060   0.653   1.020  0.0274  0.0884 -0.2140
  154poe    c23  978   1.001   0.686   0.897 -0.0471 -0.3896 -0.3106
  154poe    c23  979   1.107   0.687   0.785  0.3915 -0.3902  0.1020
  154poe     o2  980   1.229   0.736   0.835  0.2328  0.2161 -0.0874
  154poe    c23  981   1.337   0.693   0.755  0.3056 -0.8184  0.5477
  154poe    c23  982   1.472   0.720   0.824  0.1538 -0.0016  0.5303
  154poe     o2  983   1.452   0.698   0.962 -0.2075 -0.3590  0.4227
  154poe    c31  984   1.578   0.677   1.021  0.0415 -0.4536 -0.1359
  155poe    c31  985   1.075   1.084   3.621  0.0157 -0.1494  0.0525
  155poe     o2  986   1.018   1.120   3.745 -0.0926  0.3657 -0.1443
  155poe    c23  987   0.934   1.019   3.796  0.1112 -0.0998 -0.7155
  155poe    c23  988   0.882   1.069   3.933 -0.1233  0.1236 -0.8858
  155poe     o2  989   0.803   1.183   3.907 -0.1168  0.3457  0.0370
  155poe    c23  990   0.766   1.233   4.033 -0.1760 -0.3853  0.3108
  155poe    c23  991   0.678   1.352   3.991  0.3068 -0.2264 -0.2492
  155poe     o2  992   0.759   1.419   3.897 -0.2102 -0.0819 -0.5985
  155poe    c23  993   0.703   1.545   3.869  0.2474  0.2674  0.0133
  155poe    c23  994   0.747   1.631   3.749 -0.0946  0.5236  0.0691
  155poe     o2  995   0.715   1.560   3.632 -0.2413 -0.3070  0.6053
  155poe    c31  996   0.731   1.645   3.520 -0.2389 -0.3915  0.5411
  156poe    c31  997   1.771   1.116   3.851 -0.1875  0.4012  0.3436
  156poe     o2  998   1.726   1.242   3.806 -0.3194  0.2594  0.0745
  156poe    c23  999   1.775   1.359   3.867 -0.2203  0.0636  0.3738
  156poe    c23 1000   1.726   1.467   3.768  0.5024 -0.0905 -0.1544
  156poe     o2 1001   1.746   1.434   3.632  0.0058  0.2766 -0.3172
  156poe    c23 1002   1.709   1.537   3.543 -0.4054  0.5998  0.2210
  156poe    c23 1003   1.726   1.474   3.403 -0.2223  0.6396  0.2253
  156poe     o2 1004   1.682   1.340   3.406  0.6026  0.3631  0.1635
  156poe    c23 1005   1.658   1.310   3.270  0.4454 -0.2543  0.3288
  156poe    c23 1006   1.628   1.161   3.243 -0.1124 -0.0523 -0.1775
  156poe     o2 1007   1.730   1.076   3.290 -0.3848 -0.3560 -0.1312
  156poe    c31 1008   1.702   0.944   3.250 -0.0504 -0.5533  0.2758
  157poe    c31 1009   1.745   1.571   1.070  0.3363 -0.0520 -0.3179
  157poe     o2 1010   1.766   1.434   1.092 -0.1986 -0.1177 -0.2108
  157poe    c23 1011   1.802   1.420   1.228  0.0841 -0.3356 -0.3043
  157poe    c23 1012   1.790   1.267   1.238 -0.3229 -0.3360 -0.7524
  157poe     o2 1013   1.859   1.184   1.148  0.2141 -0.2278 -0.4432
  157poe    c23 1014   1.800   1.056   1.147 -0.1909 -0.0475  0.1490
  157poe    c23 1015   1.873   0.980   1.035  0.0376  0.1999  0.1308
  157poe     o2 1016   1.876   1.061   0.919 -0.4124  0.1524  0.0849
  157poe    c23 1017   1.832   0.977   0.814 -0.4032 -0.2588  0.4096
  157poe    c23 1018   1.828   1.035   0.672 -1.1984 -0.6094  0.2861
  157poe     o2 1019   1.747   1.149   0.661 -0.2945  0.0248  0.0764
  157poe    c31 1020   1.760   1.193   0.528  0.3152  0.3100  0.2314
  158poe    c31 1021   1.788   0.460   4.264 -0.2241 -0.3062 -0.4713
  158poe     o2 1022   1.724   0.572   4.320  0.0578 -0.1276 -0.5011
  158poe    c23 1023   1.585   0.566   4.293 -0.0659  0.1490  0.0616
  158poe    c23 1024   1.511   0.673   4.376 -0.6766 -0.2362  0.0171
  158poe     o2 1025   1.543   0.802   4.329 -0.3902 -0.2107  0.2806
  158poe    c23 1026   1.489   0.904   4.409 -0.5045  0.0340 -0.1038
  158poe    c23 1027   1.550   1.042   4.378 -0.5003 -0.0215 -0.3443
  158poe     o2 1028   1.691   1.038   4.372 -0.4829 -0.4373  0.1611
  158poe    c23 1029   1.735   1.167   4.336 -0.2898 -0.3591  0.6656
  158poe    c23 1030   1.881   1.145   4.292 -0.3484 -0.0051  0.2841
  158poe     o2 1031   1.886   1.036   4.203  0.0920  0.1980  0.0553
  158poe    c31 1032   2.005   1.057   4.130 -0.1391  0.6146 -0.2070
  159poe    c31 1033   0.182   1.659   3.574  0.3956 -0.4315  0.4984
  159poe     o2 1034   0.303   1.621   3.511  0.5193  0.1419  0.3851
  159poe    c23 1035   0.299   1.635   3.370  0.5430  0.1804  0.3882
  159poe    c23 1036   0.422   1.579   3.295 -0.0969 -0.4178 -0.2236
  159poe     o2 1037   0.424   1.438   3.299 -0.1597 -0.4053  0.5299
  159poe    c23 1038   0.545   1.398   3.238 -0.2071 -0.1118  0.2395
  159poe    c23 1039   0.546   1.244   3.228  0.3136 -0.1012  0.1210
  159poe     o2 1040   0.537   1.215   3.366  0.1991  0.0334  0.1415
  159poe    c23 1041   0.615   1.107   3.409 -0.0945 -0.2883 -0.1279
  159poe    c23 1042   0.526   1.046   3.519 -0.0016  0.1454  0.1886
  159poe     o2 1043   0.491   1.156   3.600  0.3379  0.2105  0.2489
  159poe    c31 1044   0.433   1.111   3.721 -0.2476 -0.5828 -0.3166
  160poe    c31 1045   0.361   0.374   4.052 -0.3404  0.5237  0.3511
  160poe     o2 1046   0.417   0.349   3.925  0.0899  0.1802  0.6051
  160poe    c23 1047   0.459   0.215   3.924 -0.2403  0.0769  0.1368
  160poe    c23 1048   0.546   0.187   3.800  0.0084 -0.3723  0.4082
  160poe     o2 1049   0.487   0.257   3.693  0.4992 -0.2987  0.1814
  160poe    c23 1050   0.441   0.172   3.590  0.5791 -0.1421  0.0168
  160poe    c23 1051   0.373   0.246   3.473  0.4170 -0.1093  0.1320
  160poe     o2 1052   0.262   0.327   3.508  0.1398 -0.2382 -0.4368
  160poe    c23 1053   0.216   0.413   3.407  0.1614  0.4463  0.1309
  160poe    c23 1054   0.290   0.549   3.405  0.0910  0.4828  0.0086
  160poe     o2 1055   0.251   0.630   3.513  0.4448  0.3569  0.2304
  160poe    c31 1056   0.317   0.754   3.528  0.4793  0.3724 -0.0494
  161poe    c31 1057   2.189   0.689   0.046 -0.3108  0.2218  0.1321
  161poe     o2 1058   2.285   0.758  -0.031  0.0508  0.1066  0.4708
  161poe    c23 1059   2.415   0.767   0.022  0.2550  0.3211 -0.0610
  161poe    c23 1060   2.452   0.917   0.028  0.0102  0.3839 -0.1040
  161poe     o2 1061   2.437   0.952  -0.107  0.0439 -0.1385 -0.2477
  161poe    c23 1062   2.491   1.074  -0.154 -0.4381  0.0289 -0.3718
  161poe    c23 1063   2.468   1.092  -0.305 -0.5109  0.4011 -0.3184
  161poe     o2 1064   2.332   1.065  -0.328 -0.4696 -0.0560 -0.0259
  161poe    c23 1065   2.276   1.121  -0.444 -0.4265 -0.2562 -0.1443
  161poe    c23 1066   2.159   1.040  -0.503 -0.4108 -0.0106 -0.5183
  161poe     o2 1067   2.046   1.011  -0.424  0.0925 -0.4312  0.0618
  161poe    c31 1068   1.951   0.953  -0.512 -0.1216 -0.1660  0.1185
  162poe    c31 1069   1.613   1.893   2.447  0.5577  0.2502  0.4197
  162poe     o2 1070   1.547   1.917   2.569  0.2315  0.3292  0.2287
  162poe    c23 1071   1.524   2.054   2.594 -0.1025  0.3573 -0.2204
  162poe    c23 1072   1.435   2.086   2.715  0.3083  0.3415  0.0867
  162poe     o2 1073   1.461   2.024   2.839 -0.4551  0.1402  0.1500
  162poe    c23 1074   1.363   2.036   2.940 -0.3196 -0.0225  0.3023
  162poe    c23 1075   1.422   1.996   3.076 -0.0753 -0.5750  0.0372
  162poe     o2 1076   1.486   1.873   3.052  0.9843 -0.0299 -0.0173
  162poe    c23 1077   1.506   1.795   3.167  0.6034  0.3971  0.3394
  162poe    c23 1078   1.592   1.672   3.132 -0.4027  0.0083 -0.8338
  162poe     o2 1079   1.708   1.715   3.065  0.0225  0.2402  0.0287
  162poe    c31 1080   1.784   1.606   3.017 -0.0146  0.1528  0.1683
  163lim     li 1081   0.872   0.524   5.572 -0.5207 -0.4037  0.1531
  164lim     li 1082   0.317   1.501   0.681  1.1522 -0.6217  0.0124
  165lim     li 1083   1.106   1.617   1.930 -0.7232 -0.2437  0.1478
  166lim     li 1084   0.418   0.064   1.554 -0.2864 -0.8139  0.1031
  167lim     li 1085   0.007   1.493   1.868  0.0813 -0.2612 -1.1606
  168lim     li 1086   2.115   0.320   5.576  0.1799 -1.0118 -0.9941
  169lim     li 1087   1.996   2.116   4.296  1.2590 -0.5004  0.3512
  170lim     li 1088   1.649   1.332   2.345  0.4656  0.1525  0.3998
  171lim     li 1089   0.156   0.736   4.683 -0.6663 -1.3561 -0.2605
  172lim     li 1090   0.189   1.650   5.959  0.2572  1.6599 -0.8624
  173lim     li 1091   0.819   1.343   1.301  0.0091 -0.3146  1.4443
  174lim     li 1092   1.438   0.580   5.127  0.7321 -0.4835  0.0535
  175lim     li 1093   1.681   0.333   0.484 -0.3173 -0.3542  0.2651
  176lim     li 1094   0.797   1.118   2.556 -0.2519 -0.4625  0.2698
  177lim     li 1095   1.247   0.703   1.010 -0.7558  0.0812  0.3241
  178lim     li 1096   0.168   0.153   0.084  0.1234 -0.4896  0.7588
  179lim     li 1097   0.967   0.321   6.223 -0.1251  0.7692  0.4162
  180lim     li 1098   2.105   1.764   0.471 -0.2168 -0.4217  0.2905
  181lim     li 1099   0.443   0.429   3.767  0.4109 -0.6524  0.2784
  182lim     li 1100   1.091   0.645   2.922 -1.0804 -0.3453 -0.5475
  183lim     li 1101   1.596   1.863   2.920  0.0432 -0.3627 -0.3860
  184lim     li 1102   0.090   0.542   2.325  0.7210 -0.8224  0.9791
  185lim     li 1103   1.507   1.462   0.032 -0.5344  0.1291  1.0820
  186lim     li 1104   0.038   0.082   4.925 -0.3037 -0.3727  0.3305
  187lim     li 1105   2.178   2.270   2.961  0.6319  0.4660  0.6961
  188lim     li 1106   0.316   1.902   5.442 -0.2873  0.4292 -0.7047
  189lim     li 1107   1.352   2.059   1.294  1.1438 -0.5830  0.3092
  190lim     li 1108   1.020   0.598   2.004 -0.0628 -0.2371 -0.2692
  191lim     li 1109   1.967   1.382   5.456  0.9201  0.7704 -0.2677
  192lim     li 1110   1.883   0.549   3.299 -0.5390  1.2748  0.0182
  193lim     li 1111   0.955   0.830   0.299  0.8572 -0.6890  0.5061
  194lim     li 1112   2.136   0.802   1.577 -0.4817  0.1077 -0.3828
  195lim     li 1113   0.019   1.066   2.782  0.2650 -0.4943  0.5710
  196lim     li 1114   1.170   1.387   4.230 -1.0065  0.4346  0.7749
  197lim     li 1115   0.883   0.107   4.552 -1.0844  0.3477  0.4540
  198lim     li 1116   0.814   2.103   0.449  0.2074  0.3396 -0.5189
  199lim     li 1117   1.992   0.257   1.932  0.2005  0.1123 -0.3218
  200lim     li 1118   0.183   1.927   3.882  0.1460  0.2300 -0.4952
  201lim     li 1119   1.758   0.913   4.242  0.3277  0.8107 -0.4576
  202lim     li 1120   1.712   1.252   3.601  0.1328  0.1582 -0.9992
  203lim     li 1121   0.213   0.274   0.877 -0.4544  0.1197 -0.4412
  204lim     li 1122   1.847   1.270   0.984 -0.8440 -0.2037 -0.4413
  205lim     li 1123   0.729   2.289   3.332 -1.4369  0.0472  0.1534
  206lim     li 1124   0.475   1.919   2.246 -0.5122 -0.0838 -0.1941
  207lim     li 1125   1.193   0.290   3.875 -0.7398  0.6033 -0.8465
  208lim     li 1126   0.860   1.293   3.793  0.1579  0.3366 -0.4023
  209lim     li 1127   2.277   0.882   6.255  0.5192  0.1356 -0.4792
  210lim     li 1128   0.820   2.297   2.334  0.1406  0.1340 -0.4739
  211lim     li 1129   0.422   1.304   3.475  1.0874 -0.5083  1.3206
  212lim     li 1130   1.128   1.593   5.318 -1.5152  0.1003  0.1102
  213lim     li 1131   0.241   1.441   4.585  0.2673  0.9076 -0.3513
  214lim     li 1132   0.817   1.051   5.728  0.4320 -0.2284  0.0565
  215lim     li 1133   1.512   1.994   6.197  0.1150 -0.6720 -0.5963
  216lim     li 1134   1.347   1.945   4.781  0.4733 -0.4226  0.1671
  217ntf    cn1 1135   0.811   1.492   5.762 -0.0096  0.0763  0.0299
  217ntf    sn2 1136   0.715   1.377   5.865  0.1301 -0.1220 -0.0605
  217ntf    nn3 1137   0.784   1.407   6.003 -0.3617 -0.5036  0.2697
  217ntf    sn2 1138   0.880   1.308   6.078 -0.0134 -0.0966  0.3602
  217ntf    cn1 1139   0.837   1.349   6.250  0.8032  0.0215  0.5435
  217ntf    fn4 1140   0.791   1.619   5.792  0.0263  0.0841  0.0196
  217ntf    fn4 1141   0.942   1.474   5.766 -0.0520 -0.1290  0.4544
  217ntf    fn4 1142   0.778   1.476   5.635  0.0761 -0.0969  0.0291
  217ntf    on5 1143   0.579   1.423   5.852  0.2148  0.2090  0.2030
  217ntf    on5 1144   0.743   1.246   5.812  0.6507  0.2250 -0.6546
  217ntf    on5 1145   1.021   1.340   6.073 -0.0640  0.0299 -0.3571
  217ntf    on5 1146   0.857   1.166   6.078  0.1548 -0.1248  0.3470
  217ntf    fn4 1147   0.865   1.477   6.268 -0.2067  0.3247  0.0729
  217ntf    fn4 1148   0.707   1.330   6.263  0.6344  0.3177 -0.5535
  217ntf    fn4 1149   0.909   1.273   6.331  0.5107 -0.1967  0.5997
  218ntf    cn1 1150   1.541   0.127   4.521  0.0665  0.1651 -0.2510
  218ntf    sn2 1151   1.424   0.231   4.429 -0.2874 -0.2150 -0.2330
  218ntf    nn3 1152   1.434   0.361   4.516  0.1754 -0.3000 -0.1549
  218ntf    sn2 1153   1.341   0.393   4.638  0.0140  0.0489 -0.3671
  218ntf    cn1 1154   1.206   0.476   4.548 -0.2651 -0.0365 -0.0276
  218ntf    fn4 1155   1.508   0.137   4.649 -0.0448 -0.7921 -0.1976
  218ntf    fn4 1156   1.540   0.001   4.480 -0.1305 -0.0472  0.3924
  218ntf    fn4 1157   1.667   0.170   4.520  0.2164 -0.2501  0.1944
  218ntf    on5 1158   1.499   0.246   4.306  0.6077 -0.0304  0.3215
  218ntf    on5 1159   1.294   0.169   4.424 -0.3808 -0.0491  0.1475
  218ntf    on5 1160   1.400   0.489   4.728 -0.0337  0.0371 -0.3231
  218ntf    on5 1161   1.273   0.280   4.697  0.1771 -0.0310 -0.3317
  218ntf    fn4 1162   1.161   0.415   4.440 -0.7288  0.0105  0.1330
  218ntf    fn4 1163   1.104   0.510   4.626 -0.4483 -0.0942 -0.2440
  218ntf    fn4 1164   1.253   0.590   4.502 -0.4473  0.6289  1.3852
  219ntf    cn1 1165   0.396   0.499   2.820  0.2998  0.0053 -0.6908
  219ntf    sn2 1166   0.408   0.363   2.700  0.1845 -0.3427 -0.3101
  219ntf    nn3 1167   0.525   0.426   2.617  0.2784  0.2798  0.2864
  219ntf    sn2 1168   0.529   0.534   2.503 -0.1903  0.0095  0.0104
  219ntf    cn1 1169   0.539   0.430   2.354 -0.0303  0.1114 -0.0505
  219ntf    fn4 1170   0.509   0.518   2.887 -0.2386  0.1897  0.1832
  219ntf    fn4 1171   0.355   0.615   2.772  0.0971  0.0289 -0.4636
  219ntf    fn4 1172   0.303   0.473   2.909  0.3682 -0.4444 -0.7507
  219ntf    on5 1173   0.438   0.247   2.780  0.1459 -0.2661 -0.1850
  219ntf    on5 1174   0.282   0.359   2.630  0.1692  0.1022 -0.3104
  219ntf    on5 1175   0.653   0.608   2.501 -0.3410  0.2820  0.6822
  219ntf    on5 1176   0.408   0.613   2.492  0.0303  0.3735  0.1864
  219ntf    fn4 1177   0.422   0.369   2.341  0.1992 -0.3823  0.1848
  219ntf    fn4 1178   0.566   0.493   2.241  0.7255 -0.0012  0.0593
  219ntf    fn4 1179   0.631   0.335   2.359  0.1140  0.2308 -0.4044
  220ntf    cn1 1180   0.420   0.441   6.250 -0.1567  0.1959  0.4207
  220ntf    sn2 1181   0.404   0.615   6.199  0.2029 -0.0104 -0.4099
  220ntf    nn3 1182   0.450   0.691   6.328  0.0730  0.4112 -0.6117
  220ntf    sn2 1183   0.596   0.742   6.356  0.0140  0.1981  0.1196
  220ntf    cn1 1184   0.593   0.907   6.280  0.2804  0.1993  0.1110
  220ntf    fn4 1185   0.431   0.355   6.151  0.0032 -0.0669  0.6639
  220ntf    fn4 1186   0.524   0.402   6.323  0.0189  0.0474  0.0920
  220ntf    fn4 1187   0.308   0.409   6.313 -0.3266  0.2367  0.1379
  220ntf    on5 1188   0.484   0.639   6.082  0.7714  0.1493  0.0085
  220ntf    on5 1189   0.262   0.620   6.173  0.0808 -0.2101  0.1896
  220ntf    on5 1190   0.698   0.664   6.290 -0.0963 -0.0459  0.2338
  220ntf    on5 1191   0.606   0.764   6.498  0.1859  0.1547  0.1150
  220ntf    fn4 1192   0.600   0.896   6.149 -0.4421 -0.1050  0.0927
  220ntf    fn4 1193   0.476   0.965   6.302  0.2175  0.1076  0.0201
  220ntf    fn4 1194   0.686   0.991   6.323  0.1455  0.1596  0.4875
  221ntf    cn1 1195   1.076   2.299   5.731 -0.5795 -0.4258  0.2850
  221ntf    sn2 1196   1.129   2.435   5.840  0.0589 -0.1400 -0.3638
  221ntf    nn3 1197   1.277   2.431   5.788 -0.0163  0.0344 -0.5909
  221ntf    sn2 1198   1.370   2.553   5.756  0.0243  0.1637  0.0080
  221ntf    cn1 1199   1.522   2.497   5.840 -0.0224 -0.1699 -0.1301
  221ntf    fn4 1200   1.178   2.225   5.692 -0.0079  0.3204  0.3233
  221ntf    fn4 1201   0.996   2.215   5.793 -0.4196 -0.3285  0.6240
  221ntf    fn4 1202   1.018   2.334   5.617  0.3973  0.0039 -0.0945
  221ntf    on5 1203   1.045   2.547   5.806 -0.1957 -0.3114 -0.3026
  221ntf    on5 1204   1.104   2.370   5.967 -0.1558  0.2030 -0.2295
  221ntf    on5 1205   1.340   2.676   5.824 -0.1492  0.2682 -0.2597
  221ntf    on5 1206   1.412   2.549   5.618  0.2513  0.2759  0.0734
  221ntf    fn4 1207   1.503   2.502   5.971  0.5556  0.4182 -0.0638
  221ntf    fn4 1208   1.552   2.371   5.814 -0.0306 -0.1756 -0.1118
  221ntf    fn4 1209   1.631   2.563   5.808 -0.0322 -0.1515 -0.1255
  222ntf    cn1 1210   2.266   0.111   3.350 -0.2745  0.1844  0.3886
  222ntf    sn2 1211   2.314  -0.047   3.274 -0.0975  0.4775 -0.1104
  222ntf    nn3 1212   2.471  -0.045   3.283 -0.0268  0.0041 -1.0935
  222ntf    sn2 1213   2.571  -0.157   3.328 -0.2595  0.1062 -0.3014
  222ntf    cn1 1214   2.522  -0.286   3.209  0.4626 -0.1788 -0.2909
  222ntf    fn4 1215   2.294   0.218   3.278 -0.4164 -0.0008  0.0525
  222ntf    fn4 1216   2.135   0.117   3.370 -0.4593  0.0816 -0.7249
  222ntf    fn4 1217   2.318   0.132   3.470  0.1759  0.3868  0.1586
  222ntf    on5 1218   2.252  -0.152   3.350  0.7047  0.1071  0.0369
  222ntf    on5 1219   2.263  -0.043   3.139 -0.3941  0.2655 -0.0059
  222ntf    on5 1220   2.546  -0.221   3.454 -0.4018 -0.1298 -0.4486
  222ntf    on5 1221   2.709  -0.123   3.304 -0.3016 -0.0017 -0.7157
  222ntf    fn4 1222   2.408  -0.346   3.239 -0.0520  0.8483 -0.1645
  222ntf    fn4 1223   2.510  -0.231   3.090 -0.0186 -0.3228 -0.3122
  222ntf    fn4 1224   2.618  -0.375   3.185  0.9037  0.3250 -0.3987
  223ntf    cn1 1225   1.804   0.800   2.890 -0.2301  0.6585  0.0893
  223ntf    sn2 1226   1.933   0.753   2.770 -0.2706 -0.1336  0.3476
  223ntf    nn3 1227   1.917   0.597   2.770 -0.7478 -0.0854  0.3015
  223ntf    sn2 1228   2.022   0.486   2.732 -0.4479  0.2751  0.0646
  223ntf    cn1 1229   1.916   0.383   2.625  0.1447 -0.4400  0.1602
  223ntf    fn4 1230   1.774   0.929   2.892 -0.0008  0.7242 -0.3851
  223ntf    fn4 1231   1.690   0.739   2.864  0.5076 -0.7304  0.0033
  223ntf    fn4 1232   1.827   0.769   3.016 -0.1085  0.2732 -0.0243
  223ntf    on5 1233   1.885   0.829   2.657 -0.2227 -0.0284  0.3973
  223ntf    on5 1234   2.058   0.795   2.830 -0.3364 -0.0630  0.4346
  223ntf    on5 1235   2.064   0.404   2.843 -0.4620  0.4016  0.1640
  223ntf    on5 1236   2.125   0.522   2.638 -0.4226 -0.4467 -0.1892
  223ntf    fn4 1237   1.797   0.361   2.677 -0.1544  0.0681 -0.2998
  223ntf    fn4 1238   1.890   0.451   2.514  0.4684 -1.0504 -0.2940
  223ntf    fn4 1239   1.976   0.270   2.594  0.0485 -0.4711  0.0888
  224ntf    cn1 1240   0.811   0.196   0.994 -0.1580  0.0710  0.1051
  224ntf    sn2 1241   0.979   0.173   1.060 -0.1012  0.0205 -0.0546
  224ntf    nn3 1242   0.959   0.188   1.215  0.7556  0.4677  0.0184
  224ntf    sn2 1243   1.015   0.102   1.333  0.2225  0.1110  0.0156
  224ntf    cn1 1244   0.987   0.218   1.470 -0.1586 -0.0037  0.0352
  224ntf    fn4 1245   0.733   0.124   1.072  0.0091 -0.5436 -0.2809
  224ntf    fn4 1246   0.767   0.320   0.993  0.2147  0.2084  0.5333
  224ntf    fn4 1247   0.803   0.144   0.872 -0.4699  0.0039  0.1533
  224ntf    on5 1248   1.021   0.042   1.016 -0.2685 -0.0405 -0.0355
  224ntf    on5 1249   1.065   0.280   1.018 -0.2354  0.1079 -0.1068
  224ntf    on5 1250   1.159   0.087   1.338  0.1754 -0.3319  0.1480
  224ntf    on5 1251   0.936  -0.009   1.380  0.4727 -0.1306 -0.1287
  224ntf    fn4 1252   0.861   0.258   1.472 -0.3315 -0.4946 -0.6074
  224ntf    fn4 1253   1.010   0.168   1.590  0.2226 -0.5113 -0.2444
  224ntf    fn4 1254   1.062   0.324   1.443 -0.3140  0.0038 -0.3759
  225ntf    cn1 1255   1.427   1.935   3.562 -0.1262 -0.1318 -0.1941
  225ntf    sn2 1256   1.569   2.025   3.496 -0.0298  0.1184  0.3470
  225ntf    nn3 1257   1.592   2.133   3.608 -0.0084  0.6434 -0.1569
  225ntf    sn2 1258   1.712   2.156   3.706 -0.0904 -0.4334  0.2129
  225ntf    cn1 1259   1.792   2.296   3.622 -0.2345 -0.4874 -0.0172
  225ntf    fn4 1260   1.357   1.866   3.473 -0.1725 -0.5017  0.1221
  225ntf    fn4 1261   1.450   1.851   3.662  0.0766  0.4602  0.2601
  225ntf    fn4 1262   1.343   2.024   3.612  0.4043  0.0682  0.3454
  225ntf    on5 1263   1.664   1.917   3.489 -0.0798  0.0647  0.4976
  225ntf    on5 1264   1.531   2.088   3.372  0.1466 -0.5782 -0.0684
  225ntf    on5 1265   1.811   2.052   3.716  0.3260 -0.0418  0.2056
  225ntf    on5 1266   1.662   2.206   3.832 -0.5085 -0.3516  0.0171
  225ntf    fn4 1267   1.728   2.410   3.643 -0.1134 -0.3709 -0.2759
  225ntf    fn4 1268   1.918   2.305   3.662 -0.2656 -0.0835 -0.0037
  225ntf    fn4 1269   1.797   2.288   3.490  0.0941  0.1269 -0.0475
  226ntf    cn1 1270   2.145   0.798   3.811  0.1468 -0.1228 -0.1432
  226ntf    sn2 1271   2.022   0.665   3.799 -0.1968  0.1976 -0.1670
  226ntf    nn3 1272   2.114   0.541   3.772 -0.1565  0.2302 -0.1805
  226ntf    sn2 1273   2.177   0.434   3.868 -0.3635 -0.1416 -0.4540
  226ntf    cn1 1274   2.064   0.294   3.841 -0.3413 -0.2791  0.1558
  226ntf    fn4 1275   2.092   0.913   3.847 -0.1561 -0.2218 -0.2712
  226ntf    fn4 1276   2.240   0.785   3.902 -0.0080  0.1701  0.0579
  226ntf    fn4 1277   2.209   0.824   3.698  0.4429 -0.5025 -0.0665
  226ntf    on5 1278   1.951   0.675   3.925  0.2867  0.0899  0.1180
  226ntf    on5 1279   1.944   0.704   3.684  0.1947  0.5951 -0.3010
  226ntf    on5 1280   2.172   0.465   4.009  0.1416  0.9572 -0.6673
  226ntf    on5 1281   2.305   0.391   3.817 -0.3749 -0.2516 -0.3882
  226ntf    fn4 1282   2.101   0.188   3.911  0.3501  0.1727  0.4951
  226ntf    fn4 1283   1.941   0.328   3.876 -0.3262  0.2729 -0.3081
  226ntf    fn4 1284   2.059   0.261   3.713  0.5213  0.2836 -0.0315
  227ntf    cn1 1285   0.617   1.191   5.096 -0.0962 -0.5036 -0.2733
  227ntf    sn2 1286   0.771   1.200   5.192 -0.3885 -0.0461  0.1543
  227ntf    nn3 1287   0.873   1.170   5.076 -0.2846 -0.5866  0.3783
  227ntf    sn2 1288   0.972   1.055   5.039  0.3086  0.1090 -0.2355
  227ntf    cn1 1289   0.942   1.031   4.862  0.1895  0.0339 -0.2053
  227ntf    fn4 1290   0.514   1.215   5.174  0.2455 -0.0210  0.0309
  227ntf    fn4 1291   0.609   1.286   5.005  0.0591 -0.1896  0.0408
  227ntf    fn4 1292   0.596   1.073   5.040  0.3746 -0.5649 -0.3295
  227ntf    on5 1293   0.772   1.336   5.239 -0.2188  0.1909 -0.5355
  227ntf    on5 1294   0.758   1.106   5.301  0.2992 -1.0716 -0.6244
  227ntf    on5 1295   0.952   0.930   5.109  0.6349 -0.1523 -0.6021
  227ntf    on5 1296   1.112   1.091   5.046  0.2539  0.3471 -0.3833
  227ntf    fn4 1297   0.980   1.138   4.794  0.6265  0.1401  0.2048
  227ntf    fn4 1298   1.005   0.926   4.812  0.4254  0.0292  0.1023
  227ntf    fn4 1299   0.813   1.011   4.837  0.1603 -0.3272  0.2348
  228ntf    cn1 1300   1.680   1.345   1.743  0.1616 -0.2338  0.0056
  228ntf    sn2 1301   1.612   1.507   1.791  0.3295 -0.1706  0.0323
  228ntf    nn3 1302   1.680   1.595   1.681 -0.0868  0.1854  0.0575
  228ntf    sn2 1303   1.633   1.741   1.649  0.0796  0.1832 -0.1986
  228ntf    cn1 1304   1.787   1.830   1.685  0.0508  0.1253  0.0678
  228ntf    fn4 1305   1.624   1.297   1.633 -0.4153  0.0689  0.1607
  228ntf    fn4 1306   1.810   1.351   1.718  0.0779  0.1176 -0.3608
  228ntf    fn4 1307   1.669   1.247   1.831  0.2277 -0.0983  0.1646
  228ntf    on5 1308   1.468   1.495   1.780  0.3009  0.3886 -0.2155
  228ntf    on5 1309   1.665   1.527   1.924  0.1168 -0.6411  0.1930
  228ntf    on5 1310   1.536   1.813   1.729 -0.1594 -0.7506  0.3675
  228ntf    on5 1311   1.617   1.754   1.506 -0.1224  0.5956 -0.1399
  228ntf    fn4 1312   1.900   1.782   1.635  0.0003 -0.0328  0.1019
  228ntf    fn4 1313   1.781   1.949   1.628 -0.5258 -0.0810 -0.3068
  228ntf    fn4 1314   1.803   1.839   1.816  0.2556  0.0677  0.0473
  229ntf    cn1 1315   0.414   1.859   0.189  0.0036 -0.0495  0.2776
  229ntf    sn2 1316   0.414   2.015   0.095  0.0070 -0.1550  0.1023
  229ntf    nn3 1317   0.570   2.028   0.106 -0.0233  0.1248  0.2118
  229ntf    sn2 1318   0.683   2.058   0.001  0.0434 -0.0834  0.2245
  229ntf    cn1 1319   0.699   1.893  -0.076  0.3773  0.1066 -0.1211
  229ntf    fn4 1320   0.494   1.765   0.142 -0.1552  0.0927 -0.2883
  229ntf    fn4 1321   0.432   1.874   0.319  0.0252 -0.3892  0.3154
  229ntf    fn4 1322   0.289   1.817   0.181  0.0785 -0.2104 -0.0738
  229ntf    on5 1323   0.360   1.973  -0.032 -0.6259  0.5952  0.1189
  229ntf    on5 1324   0.344   2.105   0.183 -0.1781  0.2006 -0.4048
  229ntf    on5 1325   0.811   2.083   0.064 -0.1790  0.6001  0.4072
  229ntf    on5 1326   0.646   2.146  -0.107  0.7946 -0.0984 -0.0530
  229ntf    fn4 1327   0.732   1.799   0.010  0.2932 -0.1529 -0.3718
  229ntf    fn4 1328   0.581   1.851  -0.119  0.4418 -0.0621 -0.1313
  229ntf    fn4 1329   0.782   1.889  -0.178 -0.1162  0.3832 -0.5385
  230ntf    cn1 1330   0.550   0.705   1.515 -0.2442  0.4002  0.3134
  230ntf    sn2 1331   0.505   0.805   1.370 -0.0305 -0.2152 -0.1815
  230ntf    nn3 1332   0.420   0.692   1.300 -0.7038  0.1775 -0.0100
  230ntf    sn2 1333   0.391   0.652   1.151  0.0774 -0.2229 -0.0588
  230ntf    cn1 1334   0.220   0.711   1.140  0.0532 -0.2449  0.1928
  230ntf    fn4 1335   0.442   0.686   1.589 -0.0164 -0.6447  0.3858
  230ntf    fn4 1336   0.587   0.585   1.474 -0.2194  0.6672 -0.4718
  230ntf    fn4 1337   0.642   0.769   1.586 -0.0850  0.0256  0.4447
  230ntf    on5 1338   0.425   0.912   1.425  0.1001 -0.2648  0.1001
  230ntf    on5 1339   0.631   0.840   1.309 -0.2101  0.0514 -0.4033
  230ntf    on5 1340   0.378   0.509   1.145 -0.0758 -0.1801 -0.8813
  230ntf    on5 1341   0.461   0.724   1.047  0.5715 -0.5571  0.0378
  230ntf    fn4 1342   0.158   0.655   1.037  0.1693 -0.4041  0.2086
  230ntf    fn4 1343   0.144   0.685   1.245 -0.1262  0.0883  0.1472
  230ntf    fn4 1344   0.200   0.841   1.127 -0.5761 -0.3443  0.1059
  231ntf    cn1 1345   1.146   0.270   2.350 -0.3426  0.3967  0.0531
  231ntf    sn2 1346   1.093   0.164   2.213 -0.1049 -0.1496  0.3792
  231ntf    nn3 1347   1.233   0.101   2.179 -0.3277 -0.1319 -0.5973
  231ntf    sn2 1348   1.280  -0.038   2.234 -0.3002  0.0908 -0.0548
  231ntf    cn1 1349   1.456   0.004   2.259 -0.3293  0.2594 -0.1276
  231ntf    fn4 1350   1.047   0.354   2.373 -0.2667  0.3469  0.5765
  231ntf    fn4 1351   1.170   0.202   2.461  0.0718  0.1648 -0.1750
  231ntf    fn4 1352   1.258   0.339   2.335 -0.2878  0.3573  0.2821
  231ntf    on5 1353   0.992   0.078   2.271 -0.1330 -0.3095  0.1006
  231ntf    on5 1354   1.048   0.254   2.110  0.2538 -0.1339  0.2363
  231ntf    on5 1355   1.279  -0.138   2.130 -0.2431  0.2192 -0.1795
  231ntf    on5 1356   1.234  -0.075   2.365 -0.1952  0.4793  0.0950
  231ntf    fn4 1357   1.532  -0.104   2.256  0.2444  0.6586  0.0968
  231ntf    fn4 1358   1.504   0.071   2.156  0.1586  0.4782  0.2437
  231ntf    fn4 1359   1.479   0.072   2.370 -0.2892  0.3800 -0.2095
  232ntf    cn1 1360   0.272   0.185   2.075  0.0953 -0.1474  0.0356
  232ntf    sn2 1361   0.349   0.026   2.032  0.0982 -0.1096 -0.1006
  232ntf    nn3 1362   0.226  -0.072   2.027  0.0124 -0.0078 -0.0128
  232ntf    sn2 1363   0.106  -0.095   1.929 -0.1439 -0.2001  0.2239
  232ntf    cn1 1364   0.090  -0.276   1.939  0.2467 -0.2381  0.1599
  232ntf    fn4 1365   0.230   0.180   2.200  0.5368  0.3401  0.2089
  232ntf    fn4 1366   0.364   0.280   2.061  0.0528 -0.1695 -0.4138
  232ntf    fn4 1367   0.172   0.228   1.999 -0.1451 -0.5563  0.1183
  232ntf    on5 1368   0.423   0.043   1.910  0.3843 -0.1985  0.0607
  232ntf    on5 1369   0.420  -0.008   2.153 -0.1553  0.7904  0.3103
  232ntf    on5 1370   0.134  -0.066   1.790  0.5462  0.0428  0.4115
  232ntf    on5 1371  -0.017  -0.043   1.984 -0.5924 -0.2677 -0.6950
  232ntf    fn4 1372   0.073  -0.320   2.063  0.4105 -0.1005  0.2324
  232ntf    fn4 1373  -0.012  -0.316   1.865  0.0467  0.1798  0.2070
  232ntf    fn4 1374   0.200  -0.328   1.888  0.1322 -0.3203 -0.0052
  233ntf    cn1 1375   1.477   1.100   5.807  0.2251  0.0341  0.1710
  233ntf    sn2 1376   1.535   1.064   5.639 -0.2830  0.3304 -0.0691
  233ntf    nn3 1377   1.589   0.917   5.657 -0.1275  0.3413 -0.4270
  233ntf    sn2 1378   1.510   0.784   5.634  0.0443  0.1246  0.2216
  233ntf    cn1 1379   1.583   0.661   5.746 -0.0239 -0.0944  0.0257
  233ntf    fn4 1380   1.375   1.183   5.807  0.2440  0.0570  0.2026
  233ntf    fn4 1381   1.443   0.988   5.870 -0.0348  0.0965  0.1395
  233ntf    fn4 1382   1.574   1.155   5.878 -0.0347 -0.1182  0.6477
  233ntf    on5 1383   1.426   1.078   5.546 -0.4014  0.4422  0.0881
  233ntf    on5 1384   1.643   1.158   5.629  0.1779 -0.1604  0.2612
  233ntf    on5 1385   1.537   0.719   5.508  0.4270  0.5303  0.0920
  233ntf    on5 1386   1.370   0.783   5.672 -0.0775 -0.0354 -0.2217
  233ntf    fn4 1387   1.715   0.664   5.753  0.0087 -0.5859 -0.3004
  233ntf    fn4 1388   1.545   0.672   5.872  0.4569  0.6553  0.1121
  233ntf    fn4 1389   1.553   0.539   5.702  0.0230 -0.0984  0.0046
  234ntf    cn1 1390   2.163   1.030   5.351  0.3996 -0.1930  0.1629
  234ntf    sn2 1391   2.222   1.183   5.428  0.0713  0.0566 -0.0759
  234ntf    nn3 1392   2.364   1.183   5.361  0.2765  0.1239  0.3521
  234ntf    sn2 1393   2.406   1.246   5.223  0.1265  0.4034  0.4334
  234ntf    cn1 1394   2.447   1.418   5.264 -0.0667  0.5185  0.1542
  234ntf    fn4 1395   2.041   1.002   5.394 -0.0426  0.8801 -0.3485
  234ntf    fn4 1396   2.161   1.050   5.220 -0.6185  0.2800  0.2429
  234ntf    fn4 1397   2.242   0.925   5.364  0.6272 -0.0039  0.3170
  234ntf    on5 1398   2.128   1.284   5.386  0.3679  0.3395 -0.0715
  234ntf    on5 1399   2.232   1.154   5.569  0.0439 -0.3185 -0.1496
  234ntf    on5 1400   2.302   1.262   5.124  0.2779  0.2833  0.2543
  234ntf    on5 1401   2.531   1.188   5.182 -0.4946 -0.2574 -0.5954
  234ntf    fn4 1402   2.537   1.423   5.361  0.3194  0.0679 -0.1788
  234ntf    fn4 1403   2.499   1.484   5.162 -0.1473  0.3829  0.0241
  234ntf    fn4 1404   2.344   1.488   5.309 -0.3792  0.1728 -0.0271
  235ntf    cn1 1405   0.141   1.489   2.288 -0.3998 -0.0891 -0.1336
  235ntf    sn2 1406   0.218   1.531   2.128 -0.1140  0.3025  0.1054
  235ntf    nn3 1407   0.309   1.404   2.112  0.0460  0.3954  0.2742
  235ntf    sn2 1408   0.464   1.392   2.132  0.0028 -0.1112  0.3152
  235ntf    cn1 1409   0.483   1.213   2.104 -0.2069 -0.1056  0.1382
  235ntf    fn4 1410   0.065   1.381   2.280 -0.0615 -0.3381 -0.0161
  235ntf    fn4 1411   0.230   1.460   2.381  0.2878  0.5645 -0.5801
  235ntf    fn4 1412   0.068   1.591   2.330 -0.4040  0.0508 -0.4767
  235ntf    on5 1413   0.102   1.521   2.043  0.1241  0.3453 -0.2240
  235ntf    on5 1414   0.282   1.658   2.149  0.3407  0.1338 -0.2543
  235ntf    on5 1415   0.501   1.409   2.270  0.1161 -0.3485  0.3146
  235ntf    on5 1416   0.547   1.452   2.031  0.0471  0.0720  0.4604
  235ntf    fn4 1417   0.419   1.157   2.002  0.6392 -0.6858 -0.0837
  235ntf    fn4 1418   0.610   1.182   2.088 -0.0570  0.4185  0.2823
  235ntf    fn4 1419   0.440   1.141   2.206 -0.1829 -0.0740  0.1703
  236ntf    cn1 1420   0.756   1.830   1.117  0.1825 -0.2992  0.1721
  236ntf    sn2 1421   0.594   1.792   1.189  0.1599 -0.3516  0.0936
  236ntf    nn3 1422   0.613   1.839   1.337  0.3275  0.1104 -0.0741
  236ntf    sn2 1423   0.703   1.775   1.449 -0.0331 -0.1274  0.0827
  236ntf    cn1 1424   0.597   1.665   1.548 -0.0259 -0.3636 -0.1717
  236ntf    fn4 1425   0.856   1.748   1.144  0.6116  0.1704  0.0396
  236ntf    fn4 1426   0.748   1.831   0.985  0.0697  0.0939  0.1803
  236ntf    fn4 1427   0.789   1.955   1.145 -0.2501 -0.1029 -0.1795
  236ntf    on5 1428   0.490   1.866   1.123  0.2135 -0.0661  0.3259
  236ntf    on5 1429   0.590   1.649   1.171 -0.5561 -0.3392  0.1332
  236ntf    on5 1430   0.732   1.878   1.546 -0.1746  0.2264 -0.2490
  236ntf    on5 1431   0.810   1.689   1.404 -0.2636 -0.0654 -0.5991
  236ntf    fn4 1432   0.663   1.610   1.648 -0.4063  0.1694  0.3846
  236ntf    fn4 1433   0.499   1.730   1.608  0.3028  0.4767 -0.5295
  236ntf    fn4 1434   0.551   1.562   1.479 -0.3296 -0.3335 -0.0156
  237ntf    cn1 1435   1.036   1.746   2.743  0.2739 -0.1367 -0.0098
  237ntf    sn2 1436   0.856   1.749   2.716  0.2791  0.1392 -0.0208
  237ntf    nn3 1437   0.811   1.607   2.764  0.5878  0.0296 -0.0490
  237ntf    sn2 1438   0.676   1.526   2.753  0.4376  0.2487  0.1640
  237ntf    cn1 1439   0.623   1.483   2.921  0.1163 -0.2108 -0.0530
  237ntf    fn4 1440   1.061   1.701   2.865 -0.2033  0.5114  0.3359
  237ntf    fn4 1441   1.102   1.664   2.663 -0.8823 -0.6387 -0.4694
  237ntf    fn4 1442   1.091   1.867   2.734 -0.4927  0.2961  0.9593
  237ntf    on5 1443   0.803   1.849   2.806 -0.2356  0.0906 -0.2721
  237ntf    on5 1444   0.854   1.762   2.573  0.3800 -0.1595 -0.0506
  237ntf    on5 1445   0.710   1.393   2.707  0.0535  0.3715 -0.4893
  237ntf    on5 1446   0.554   1.580   2.700  0.4521  0.2437  0.1250
  237ntf    fn4 1447   0.597   1.593   2.991  0.4903  0.1798 -0.5216
  237ntf    fn4 1448   0.502   1.429   2.923  0.0312 -0.0266 -0.1750
  237ntf    fn4 1449   0.704   1.397   2.980  0.5394  0.1051 -0.1713
  238ntf    cn1 1450   2.131   2.145   2.434  0.0383  0.2763  0.5539
  238ntf    sn2 1451   2.183   1.983   2.500  0.2053  0.1284  0.0661
  238ntf    nn3 1452   2.207   2.025   2.650  0.3779  0.2846 -0.0051
  238ntf    sn2 1453   2.113   2.009   2.774  0.3666  0.0799 -0.0393
  238ntf    cn1 1454   2.153   1.840   2.825 -0.4998 -0.1257 -0.0154
  238ntf    fn4 1455   2.210   2.238   2.484  0.5043  0.1704  0.0281
  238ntf    fn4 1456   2.122   2.155   2.303  0.5470 -0.2363  0.4725
  238ntf    fn4 1457   2.011   2.177   2.478 -0.0777  0.2391  0.2651
  238ntf    on5 1458   2.068   1.900   2.478  0.0193  0.3591  0.1595
  238ntf    on5 1459   2.305   1.950   2.430  0.0406 -0.0057 -0.1583
  238ntf    on5 1460   1.973   2.011   2.737  0.4384 -0.8066 -0.3672
  238ntf    on5 1461   2.143   2.089   2.891 -0.8604 -0.0643  0.3938
  238ntf    fn4 1462   2.090   1.803   2.935 -0.0472 -0.0114  0.2877
  238ntf    fn4 1463   2.114   1.749   2.737 -0.2360 -0.3306  0.0751
  238ntf    fn4 1464   2.282   1.812   2.839 -0.4579  0.0866  0.0129
  239ntf    cn1 1465   1.643   1.649   5.802 -0.4256  0.4301 -0.2832
  239ntf    sn2 1466   1.612   1.789   5.691 -0.1955  0.6021 -0.1307
  239ntf    nn3 1467   1.745   1.869   5.712 -0.0504  0.3926 -0.2406
  239ntf    sn2 1468   1.776   1.981   5.818  0.3610  0.2413 -0.1986
  239ntf    cn1 1469   1.748   2.129   5.716  0.4339  0.3183 -0.1077
  239ntf    fn4 1470   1.650   1.676   5.932 -0.1640  0.1581 -0.2402
  239ntf    fn4 1471   1.551   1.555   5.786 -0.3599  0.3852 -0.3983
  239ntf    fn4 1472   1.758   1.589   5.776 -0.3274  0.4516  0.0938
  239ntf    on5 1473   1.601   1.730   5.560  0.1662  0.0383  0.0865
  239ntf    on5 1474   1.490   1.839   5.748 -0.0801  0.5669  0.1471
  239ntf    on5 1475   1.915   1.983   5.855  0.2827 -0.1343  0.1249
  239ntf    on5 1476   1.683   1.998   5.927 -0.2036 -0.1949 -0.6078
  239ntf    fn4 1477   1.809   2.124   5.598 -0.1949 -0.4645 -0.4094
  239ntf    fn4 1478   1.620   2.152   5.691  0.2225 -0.1885  0.4900
  239ntf    fn4 1479   1.798   2.239   5.771  0.0773  0.3513  0.1503
  240ntf    cn1 1480   1.405   1.969   4.067  0.0244 -0.1301  0.0705
  240ntf    sn2 1481   1.469   1.864   4.201  0.2266  0.0616  0.1255
  240ntf    nn3 1482   1.546   1.750   4.125  0.1035 -0.2682  0.4934
  240ntf    sn2 1483   1.693   1.696   4.136  0.1458 -0.2779 -0.1179
  240ntf    cn1 1484   1.764   1.781   3.992 -0.2934  0.2765 -0.0114
  240ntf    fn4 1485   1.274   1.949   4.056  0.0485 -0.0636 -0.3435
  240ntf    fn4 1486   1.415   2.099   4.090  0.6245 -0.2532  0.5417
  240ntf    fn4 1487   1.439   1.947   3.942  0.3809 -0.1644  0.1743
  240ntf    on5 1488   1.551   1.955   4.277  0.1458  0.2989 -0.0693
  240ntf    on5 1489   1.345   1.822   4.262  0.0205 -0.2762 -0.5150
  240ntf    on5 1490   1.694   1.557   4.098 -0.1627 -0.2666 -0.1676
  240ntf    on5 1491   1.769   1.744   4.248 -0.2428  0.0781 -0.0021
  240ntf    fn4 1492   1.895   1.767   4.007 -0.3782 -0.3241  0.1640
  240ntf    fn4 1493   1.720   1.731   3.878  0.3053  0.6052 -0.3959
  240ntf    fn4 1494   1.753   1.913   3.991  0.0875  0.3121  0.2120
  241ntf    cn1 1495   1.608   0.794   1.945  0.3028  0.0414  0.0531
  241ntf    sn2 1496   1.728   0.667   1.896  0.0698 -0.1852  0.0667
  241ntf    nn3 1497   1.804   0.660   2.033  0.7903  0.6032 -0.2828
  241ntf    sn2 1498   1.869   0.543   2.115 -0.1145  0.1514 -0.2028
  241ntf    cn1 1499   1.734   0.507   2.232  0.1184 -0.0215  0.0129
  241ntf    fn4 1500   1.665   0.913   1.955 -0.3225  0.3323  0.2085
  241ntf    fn4 1501   1.509   0.803   1.858  0.5348  0.0299 -0.2157
  241ntf    fn4 1502   1.552   0.764   2.061  0.2741  0.1331  0.0626
  241ntf    on5 1503   1.641   0.555   1.869 -0.1015 -0.1648  0.5237
  241ntf    on5 1504   1.790   0.730   1.782  0.7120 -0.4095  0.2857
  241ntf    on5 1505   1.977   0.595   2.195 -0.5067 -0.0470  0.4694
  241ntf    on5 1506   1.889   0.419   2.044 -0.1103  0.3717 -0.5872
  241ntf    fn4 1507   1.690   0.614   2.295 -0.0507  0.0963 -0.3095
  241ntf    fn4 1508   1.631   0.443   2.182 -0.0961  0.2196  0.1451
  241ntf    fn4 1509   1.783   0.424   2.324 -0.0928 -0.4281 -0.2397
  242ntf    cn1 1510   0.630   0.805   3.103 -0.5028 -0.2196 -0.0180
  242ntf    sn2 1511   0.679   0.672   3.215 -0.2113 -0.0729  0.0308
  242ntf    nn3 1512   0.703   0.765   3.340 -0.2049 -0.2100  0.1327
  242ntf    sn2 1513   0.773   0.716   3.471  0.0647 -0.3104 -0.0480
  242ntf    cn1 1514   0.949   0.719   3.427  0.1476  0.3901  0.3097
  242ntf    fn4 1515   0.704   0.915   3.109 -0.0519 -0.5407  0.3639
  242ntf    fn4 1516   0.636   0.771   2.975 -0.0298 -0.5533  0.0923
  242ntf    fn4 1517   0.506   0.848   3.121 -0.3906  0.2798 -0.3894
  242ntf    on5 1518   0.568   0.579   3.214 -0.5270  0.2619  1.3547
  242ntf    on5 1519   0.804   0.622   3.162 -0.0188 -0.0091  0.4171
  242ntf    on5 1520   0.745   0.580   3.510 -1.0533  0.0154  0.3279
  242ntf    on5 1521   0.769   0.818   3.573  0.3837 -0.1344 -0.2109
  242ntf    fn4 1522   0.983   0.642   3.324 -0.5026 -0.0634  0.4270
  242ntf    fn4 1523   0.982   0.843   3.395  0.1740  0.2256 -0.3172
  242ntf    fn4 1524   1.033   0.679   3.521  0.2022 -0.5558 -0.1302
  243ntf    cn1 1525   0.796   0.968   1.900 -0.1337  0.2468  0.1563
  243ntf    sn2 1526   0.956   0.895   1.855 -0.2974  0.1248 -0.2342
  243ntf    nn3 1527   1.050   1.021   1.864 -0.4114  0.1834  0.1311
  243ntf    sn2 1528   1.161   1.051   1.971 -0.0177  0.0153 -0.2303
  243ntf    cn1 1529   1.312   1.002   1.882  0.0495  0.2409 -0.2422
  243ntf    fn4 1530   0.694   0.888   1.869  0.2910 -0.3018  0.1607
  243ntf    fn4 1531   0.791   0.997   2.029 -0.1430  0.5017  0.0975
  243ntf    fn4 1532   0.786   1.082   1.834 -0.5409  0.0728 -0.0860
  243ntf    on5 1533   0.974   0.791   1.953  0.2147  0.4979  0.0740
  243ntf    on5 1534   0.935   0.850   1.720  0.1922 -0.3130 -0.1665
  243ntf    on5 1535   1.164   0.976   2.094 -0.7997 -0.2939 -0.3958
  243ntf    on5 1536   1.175   1.195   1.974 -0.4392  0.0452  0.4728
  243ntf    fn4 1537   1.290   0.902   1.798 -0.2219  0.3852 -0.3416
  243ntf    fn4 1538   1.367   1.102   1.815  0.0660  0.6541  0.3762
  243ntf    fn4 1539   1.411   0.965   1.962 -0.4714 -0.0750  0.2670
  244ntf    cn1 1540   0.035   1.210   3.850 -0.3905 -0.2379 -0.3881
  244ntf    sn2 1541   0.069   1.383   3.895 -0.1020 -0.5024  0.4400
  244ntf    nn3 1542   0.038   1.370   4.048 -0.1073 -0.2269  0.4629
  244ntf    sn2 1543  -0.019   1.484   4.140 -0.3791  0.0225 -0.0143
  244ntf    cn1 1544  -0.194   1.435   4.131 -0.2947 -0.2000 -0.4984
  244ntf    fn4 1545  -0.086   1.173   3.887 -0.5846  0.1940 -0.5836
  244ntf    fn4 1546   0.029   1.182   3.721  0.0885  0.0181 -0.4712
  244ntf    fn4 1547   0.124   1.127   3.904  0.0070  0.3889 -0.0666
  244ntf    on5 1548   0.210   1.394   3.865 -0.1840 -0.5837  0.0123
  244ntf    on5 1549  -0.028   1.451   3.813  0.2179 -0.2250  0.2914
  244ntf    on5 1550  -0.018   1.619   4.088  0.0414  0.2264  0.5178
  244ntf    on5 1551   0.018   1.458   4.276  0.2817  0.7248 -0.0547
  244ntf    fn4 1552  -0.244   1.461   4.011  0.0555  0.1190 -0.5771
  244ntf    fn4 1553  -0.209   1.306   4.156 -0.2387 -0.0446  0.3525
  244ntf    fn4 1554  -0.262   1.503   4.221  0.7041  0.4131 -0.1946
  245ntf    cn1 1555   0.781   1.460   4.797  0.4998 -0.0677  0.4766
  245ntf    sn2 1556   0.742   1.597   4.685  0.1253 -0.4803  0.0978
  245ntf    nn3 1557   0.825   1.545   4.562 -0.3998  0.0068 -0.4684
  245ntf    sn2 1558   0.835   1.607   4.418 -0.1915  0.0065 -0.4537
  245ntf    cn1 1559   0.734   1.481   4.336 -0.2181 -0.0931 -0.2678
  245ntf    fn4 1560   0.911   1.444   4.817  0.5123 -0.1154  0.3532
  245ntf    fn4 1561   0.715   1.472   4.912 -0.1736  0.2583  0.0586
  245ntf    fn4 1562   0.739   1.348   4.741  0.1501  0.3980 -0.2045
  245ntf    on5 1563   0.600   1.596   4.663  0.1287 -0.1667  0.0495
  245ntf    on5 1564   0.794   1.714   4.752 -0.5241 -0.3439  0.3682
  245ntf    on5 1565   0.963   1.588   4.355  0.1566  0.0929  0.2089
  245ntf    on5 1566   0.768   1.734   4.399 -0.0449  0.1657  0.0498
  245ntf    fn4 1567   0.716   1.512   4.209  0.3224 -0.2259 -0.3784
  245ntf    fn4 1568   0.790   1.361   4.330  0.3623  0.1643 -0.0460
  245ntf    fn4 1569   0.616   1.464   4.393 -0.0463  0.2237  0.1920
  246ntf    cn1 1570   1.744   0.926   0.127  0.0585  0.4969 -0.3995
  246ntf    sn2 1571   1.563   0.908   0.138  0.0938  0.0929 -0.4699
  246ntf    nn3 1572   1.556   0.794   0.246 -0.0152  0.3942 -0.1585
  246ntf    sn2 1573   1.500   0.791   0.392  0.1457 -0.3793 -0.1081
  246ntf    cn1 1574   1.653   0.746   0.478  0.3416 -0.1167 -0.3192
  246ntf    fn4 1575   1.783   1.002   0.228  0.3423 -0.2677  0.0750
  246ntf    fn4 1576   1.809   0.811   0.121  0.3398  0.6258  0.1672
  246ntf    fn4 1577   1.790   0.992   0.022  0.0696  0.5221 -0.3789
  246ntf    on5 1578   1.512   1.036   0.181 -0.0951 -0.2003  0.1838
  246ntf    on5 1579   1.530   0.859   0.006 -0.2008 -0.7420 -0.0962
  246ntf    on5 1580   1.421   0.675   0.423 -0.0277 -0.1972  0.1399
  246ntf    on5 1581   1.459   0.913   0.458 -0.7563 -0.5121 -0.4082
  246ntf    fn4 1582   1.643   0.771   0.608  0.2906  0.6209 -0.4573
  246ntf    fn4 1583   1.690   0.620   0.464  0.4869 -0.1346  0.1898
  246ntf    fn4 1584   1.748   0.824   0.427  0.6359 -0.6614 -0.6072
  247ntf    cn1 1585   0.092   1.004   3.291 -0.1016 -0.0707 -0.3080
  247ntf    sn2 1586   0.135   1.179   3.271 -0.1061 -0.0363 -0.0118
  247ntf    nn3 1587   0.015   1.237   3.354  0.0600  0.3853 -0.0640
  247ntf    sn2 1588  -0.123   1.285   3.296 -0.0398  0.1501 -0.0239
  247ntf    cn1 1589  -0.085   1.463   3.287 -0.4137  0.2461  0.2807
  247ntf    fn4 1590   0.125   0.957   3.410 -0.5807  0.2545 -0.0461
  247ntf    fn4 1591  -0.038   0.979   3.286 -0.0876 -0.2988  0.4411
  247ntf    fn4 1592   0.154   0.928   3.201  0.1882 -0.1226 -0.0685
  247ntf    on5 1593   0.254   1.199   3.350 -0.2743  0.2065  0.1805
  247ntf    on5 1594   0.137   1.211   3.130 -0.4190 -0.2977 -0.0756
  247ntf    on5 1595  -0.233   1.275   3.388 -0.3640 -0.0300 -0.4320
  247ntf    on5 1596  -0.152   1.254   3.158  0.0570 -0.0888  0.0087
  247ntf    fn4 1597  -0.069   1.523   3.403 -0.0466 -0.2230  0.4761
  247ntf    fn4 1598   0.026   1.490   3.220 -0.3476 -0.3497  0.1413
  247ntf    fn4 1599  -0.187   1.522   3.226 -0.6168 -0.6435 -0.2688
  248ntf    cn1 1600   0.036   1.629   1.164  0.0438 -0.1038 -0.2849
  248ntf    sn2 1601  -0.124   1.549   1.197  0.1091 -0.0725  0.1087
  248ntf    nn3 1602  -0.099   1.402   1.149  0.3505 -0.1450  0.4476
  248ntf    sn2 1603  -0.123   1.348   1.003  0.0945  0.0214  0.4291
  248ntf    cn1 1604  -0.048   1.184   1.019 -0.1733 -0.1491 -0.0450
  248ntf    fn4 1605   0.123   1.601   1.259 -0.5710  0.2896  0.4100
  248ntf    fn4 1606   0.094   1.585   1.054  0.0474 -0.6361 -0.0742
  248ntf    fn4 1607   0.036   1.762   1.161  0.2410 -0.0979 -0.0804
  248ntf    on5 1608  -0.143   1.553   1.340 -0.6141 -0.5131  0.0295
  248ntf    on5 1609  -0.221   1.619   1.117 -0.2083 -0.2377  0.3501
  248ntf    on5 1610  -0.047   1.407   0.896 -0.3969  0.1588  0.1503
  248ntf    on5 1611  -0.261   1.319   0.971  0.4155 -0.4927 -0.5104
  248ntf    fn4 1612  -0.127   1.100   1.084  0.2052 -0.2225  0.3232
  248ntf    fn4 1613  -0.018   1.132   0.901  0.5666 -0.2504  0.1794
  248ntf    fn4 1614   0.066   1.195   1.086 -0.4601 -0.3004  0.4726
  249ntf    cn1 1615   0.564   2.139   3.980 -0.4012  0.2861 -0.0941
  249ntf    sn2 1616   0.609   2.062   3.821 -0.1418 -0.0560  0.1439
  249ntf    nn3 1617   0.764   2.044   3.836 -0.1658 -0.5884 -0.2184
  249ntf    sn2 1618   0.878   2.144   3.794 -0.7256  0.1504  0.0048
  249ntf    cn1 1619   0.962   2.066   3.653 -0.1979  0.3183  0.2230
  249ntf    fn4 1620   0.649   2.238   4.001  0.1371 -0.1360 -0.2341
  249ntf    fn4 1621   0.443   2.190   3.967 -0.7743 -0.5746 -0.0708
  249ntf    fn4 1622   0.576   2.053   4.080  0.2602 -0.3229 -0.6778
  249ntf    on5 1623   0.544   1.933   3.814 -0.4506  0.1124 -0.0935
  249ntf    on5 1624   0.562   2.165   3.733  0.1230 -0.1881 -0.1524
  249ntf    on5 1625   0.977   2.147   3.899 -0.2610  0.6825 -0.4453
  249ntf    on5 1626   0.831   2.263   3.729 -1.2338  0.0073  0.1038
  249ntf    fn4 1627   0.972   1.936   3.679 -0.0017  0.2758 -0.0619
  249ntf    fn4 1628   0.886   2.059   3.545  0.3235 -0.1821 -0.1168
  249ntf    fn4 1629   1.077   2.122   3.622 -0.4458  0.7141  0.0081
  250ntf    cn1 1630   1.335   0.047   3.364 -0.0160 -0.1811 -0.1637
  250ntf    sn2 1631   1.202   0.160   3.313  0.0687  0.0708  0.1729
  250ntf    nn3 1632   1.167   0.102   3.172  0.0124  0.4763  0.0179
  250ntf    sn2 1633   1.208   0.144   3.026 -0.0387 -0.0485 -0.1501
  250ntf    cn1 1634   1.085   0.043   2.937 -0.0517 -0.2540  0.0981
  250ntf    fn4 1635   1.370   0.054   3.491 -0.0320  0.2822 -0.1817
  250ntf    fn4 1636   1.306  -0.080   3.343  0.0017 -0.1734 -0.2366
  250ntf    fn4 1637   1.444   0.080   3.296 -0.1519  0.7021  0.0356
  250ntf    on5 1638   1.102   0.132   3.413  0.0516 -0.7321 -0.0620
  250ntf    on5 1639   1.259   0.293   3.312 -0.2345  0.1995 -0.1572
  250ntf    on5 1640   1.334   0.086   2.986 -0.2109 -0.2043 -0.4684
  250ntf    on5 1641   1.170   0.277   2.985  0.1452 -0.0162 -0.2172
  250ntf    fn4 1642   0.967   0.068   2.990 -0.1553 -0.6771  0.0699
  250ntf    fn4 1643   1.089   0.070   2.808 -0.5384  0.1315  0.1611
  250ntf    fn4 1644   1.099  -0.088   2.953 -0.0123 -0.3051 -0.3396
  251ntf    cn1 1645   1.308   1.563   3.349  0.0877 -0.2554  0.1001
  251ntf    sn2 1646   1.231   1.432   3.449 -0.1133 -0.2889 -0.0985
  251ntf    nn3 1647   1.145   1.359   3.339 -0.0834  0.0974 -0.3790
  251ntf    sn2 1648   0.993   1.370   3.300 -0.2164 -0.3513 -0.0041
  251ntf    cn1 1649   0.992   1.267   3.150 -0.2306 -0.3629  0.0043
  251ntf    fn4 1650   1.341   1.503   3.236  0.2961 -0.4563  0.2656
  251ntf    fn4 1651   1.219   1.657   3.321  0.2411  0.0877  0.7329
  251ntf    fn4 1652   1.409   1.625   3.409  0.0149  0.3241 -0.3680
  251ntf    on5 1653   1.349   1.354   3.480  0.2908  0.2583 -0.2443
  251ntf    on5 1654   1.153   1.497   3.551 -0.0443 -0.2379 -0.0782
  251ntf    on5 1655   0.958   1.502   3.253  0.3810  0.0600  0.6800
  251ntf    on5 1656   0.898   1.305   3.386  0.1524 -0.2554  0.4824
  251ntf    fn4 1657   0.870   1.257   3.100 -0.3921 -0.1899  0.3584
  251ntf    fn4 1658   1.069   1.317   3.054 -0.1192 -0.2450  0.1536
  251ntf    fn4 1659   1.031   1.142   3.172  0.1220 -0.2176  0.2154
  252ntf    cn1 1660   0.363   2.250   5.918 -0.2107 -0.0070 -0.2136
  252ntf    sn2 1661   0.328   2.227   5.741  0.1251  0.1666 -0.3027
  252ntf    nn3 1662   0.445   2.127   5.711  0.1902 -0.0243  0.5716
  252ntf    sn2 1663   0.456   1.971   5.731  0.4682 -0.0356  0.3364
  252ntf    cn1 1664   0.635   1.945   5.749  0.4407 -0.2400  0.3108
  252ntf    fn4 1665   0.479   2.310   5.935 -0.1147 -0.1513 -0.3604
  252ntf    fn4 1666   0.269   2.327   5.971 -0.1893 -0.4121  0.4249
  252ntf    fn4 1667   0.357   2.139   5.989 -0.0198  0.4377  0.5057
  252ntf    on5 1668   0.195   2.172   5.735 -0.1301  0.7471  0.0181
  252ntf    on5 1669   0.355   2.360   5.693 -0.0455  0.3507  0.1074
  252ntf    on5 1670   0.412   1.893   5.618  0.1714 -0.2203  0.5816
  252ntf    on5 1671   0.410   1.929   5.861 -0.3600 -0.0138  0.0578
  252ntf    fn4 1672   0.710   2.025   5.675  0.1762 -0.2288  0.0509
  252ntf    fn4 1673   0.662   1.970   5.876  0.7320  0.6422  0.0820
  252ntf    fn4 1674   0.677   1.824   5.713 -0.2408 -0.4313  0.1375
  253ntf    cn1 1675   2.197   1.796   4.989  0.1144  0.0008 -0.0424
  253ntf    sn2 1676   2.255   1.886   5.135  0.1496  0.1542 -0.1506
  253ntf    nn3 1677   2.118   1.936   5.195  0.2483  0.4237 -0.1442
  253ntf    sn2 1678   2.045   2.074   5.198 -0.5442  0.0110 -0.0813
  253ntf    cn1 1679   1.953   2.064   5.354  0.0204 -0.5841  0.2174
  253ntf    fn4 1680   2.155   1.676   5.027  0.2496 -0.1263 -0.2863
  253ntf    fn4 1681   2.102   1.852   4.916  0.4349 -0.4968 -0.8548
  253ntf    fn4 1682   2.298   1.773   4.906  0.3451 -0.1274  0.2751
  253ntf    on5 1683   2.320   1.789   5.219 -0.5847  0.3668  0.6901
  253ntf    on5 1684   2.338   1.993   5.084  0.0240  0.2170 -0.2230
  253ntf    on5 1685   1.946   2.088   5.094 -0.3241 -0.0445 -0.2991
  253ntf    on5 1686   2.126   2.191   5.220  0.7390 -0.8015 -0.3898
  253ntf    fn4 1687   1.871   2.167   5.364 -0.0911 -0.6245 -0.2729
  253ntf    fn4 1688   1.874   1.958   5.361  0.0976 -0.6339  0.3341
  253ntf    fn4 1689   2.034   2.074   5.458 -0.1607 -0.3005  0.3327
  254ntf    cn1 1690   1.864   1.452   4.765  0.1842  0.1572  0.4855
  254ntf    sn2 1691   1.815   1.464   4.591  0.1846 -0.1144  0.4669
  254ntf    nn3 1692   1.672   1.399   4.588 -0.1153  0.5687 -1.0284
  254ntf    sn2 1693   1.528   1.460   4.600 -0.0575  0.5056  0.0597
  254ntf    cn1 1694   1.455   1.334   4.708  0.6804  0.1523  0.1503
  254ntf    fn4 1695   1.985   1.503   4.782  0.1527  0.2702  0.3739
  254ntf    fn4 1696   1.774   1.508   4.843  0.0168  0.3398  0.1621
  254ntf    fn4 1697   1.869   1.325   4.801 -0.0460  0.0133  0.0089
  254ntf    on5 1698   1.812   1.607   4.574 -0.6063 -0.1545  0.1987
  254ntf    on5 1699   1.915   1.389   4.519  0.0919 -0.2526  0.4815
  254ntf    on5 1700   1.456   1.453   4.476  0.1535 -0.1740 -0.0260
  254ntf    on5 1701   1.516   1.571   4.692  0.0764  0.0286  0.6599
  254ntf    fn4 1702   1.481   1.212   4.665 -0.3193  0.1449 -0.4612
  254ntf    fn4 1703   1.496   1.330   4.834 -0.0260 -0.4401  0.3676
  254ntf    fn4 1704   1.323   1.341   4.710  0.6662 -0.0610  0.0078
  255ntf    cn1 1705   2.098   1.187   0.139  0.3452 -0.1124 -0.0034
  255ntf    sn2 1706   2.068   1.367   0.134 -0.0107 -0.1659  0.1517
  255ntf    nn3 1707   2.186   1.408   0.040 -0.0593  0.1361  0.2210
  255ntf    sn2 1708   2.177   1.405  -0.117 -0.1359 -0.0202  0.2282
  255ntf    cn1 1709   2.073   1.547  -0.165  0.0054 -0.0176 -0.0732
  255ntf    fn4 1710   2.228   1.168   0.134  0.3881  0.2145 -0.2075
  255ntf    fn4 1711   2.063   1.126   0.251  0.0279 -0.1851 -0.1412
  255ntf    fn4 1712   2.048   1.120   0.037  0.0283  0.3244 -0.1384
  255ntf    on5 1713   1.933   1.392   0.090  0.1845  0.7877  0.0835
  255ntf    on5 1714   2.097   1.413   0.267 -0.1525  0.3850 -0.0062
  255ntf    on5 1715   2.105   1.289  -0.165  0.1126 -0.2727  0.4650
  255ntf    on5 1716   2.306   1.430  -0.176 -0.0255  0.3608  0.6213
  255ntf    fn4 1717   1.946   1.544  -0.130  0.0491 -0.0737  0.0823
  255ntf    fn4 1718   2.131   1.652  -0.109  0.1839  0.0599 -0.3992
  255ntf    fn4 1719   2.072   1.568  -0.295  0.2724  0.3642 -0.0162
  256ntf    cn1 1720   0.973   1.525   0.746 -0.2267  0.0843  0.1843
  256ntf    sn2 1721   0.974   1.431   0.590 -0.0554 -0.1644  0.3344
  256ntf    nn3 1722   0.832   1.461   0.531  0.1944  0.2343 -0.0722
  256ntf    sn2 1723   0.781   1.574   0.434 -0.3336  0.0482 -0.0125
  256ntf    cn1 1724   0.829   1.501   0.275 -0.3757  0.0766 -0.0384
  256ntf    fn4 1725   0.864   1.506   0.818  0.2475 -0.0388  0.8809
  256ntf    fn4 1726   1.068   1.487   0.829 -0.1430  0.4478  0.2588
  256ntf    fn4 1727   0.979   1.657   0.732  0.2117  0.0075 -0.3589
  256ntf    on5 1728   1.083   1.485   0.512  0.0471 -0.0297  0.5666
  256ntf    on5 1729   0.992   1.293   0.625  0.3657 -0.1381  0.2256
  256ntf    on5 1730   0.859   1.695   0.431 -0.3214  0.0407  0.0015
  256ntf    on5 1731   0.637   1.588   0.436 -0.2569  0.9140 -0.3035
  256ntf    fn4 1732   0.779   1.566   0.172 -0.3549  0.0226 -0.0824
  256ntf    fn4 1733   0.960   1.516   0.259 -0.3510 -0.0707  0.0203
  256ntf    fn4 1734   0.808   1.371   0.268 -0.1417  0.0055  0.4705
  257ntf    cn1 1735   0.282   0.853   1.874 -0.1078  0.1134  0.0236
  257ntf    sn2 1736   0.138   0.773   1.952 -0.4147  0.3460 -0.2990
  257ntf    nn3 1737   0.107   0.866   2.075 -0.5478 -0.4945  0.3094
  257ntf    sn2 1738   0.039   1.007   2.086 -0.1687 -0.2648 -0.2217
  257ntf    cn1 1739  -0.130   0.974   2.029 -0.3332 -0.1065  0.1670
  257ntf    fn4 1740   0.371   0.893   1.963  0.0706 -0.1645 -0.0304
  257ntf    fn4 1741   0.346   0.774   1.789  0.1246 -0.0642  0.3646
  257ntf    fn4 1742   0.244   0.961   1.806  0.4224  0.2614 -0.0427
  257ntf    on5 1743   0.035   0.773   1.851 -0.5932 -0.0393 -0.1150
  257ntf    on5 1744   0.194   0.648   1.996 -0.3714  0.1899 -0.7952
  257ntf    on5 1745   0.094   1.095   1.986  0.7476 -0.5462  0.0292
  257ntf    on5 1746   0.010   1.057   2.218 -0.1806  0.0257 -0.3342
  257ntf    fn4 1747  -0.222   1.067   2.049  0.1115  0.2012  0.7581
  257ntf    fn4 1748  -0.130   0.947   1.899 -0.5459 -0.1951  0.1834
  257ntf    fn4 1749  -0.175   0.870   2.097 -0.2901 -0.1912  0.0667
  258ntf    cn1 1750   0.781   0.105   5.185 -0.1644 -0.2580  0.1920
  258ntf    sn2 1751   0.816   0.233   5.060 -0.3136 -0.2827  0.1256
  258ntf    nn3 1752   0.667   0.257   5.015 -0.1959 -0.1853 -0.2113
  258ntf    sn2 1753   0.553   0.344   5.079  0.2486  0.2357  0.0220
  258ntf    cn1 1754   0.554   0.485   4.965 -0.0193  0.3141  0.1167
  258ntf    fn4 1755   0.671   0.119   5.257 -0.0279  0.2733  0.3018
  258ntf    fn4 1756   0.763  -0.003   5.110  0.4324 -0.1588 -0.1058
  258ntf    fn4 1757   0.885   0.083   5.264 -0.0790  0.4117  0.2721
  258ntf    on5 1758   0.869   0.346   5.132 -0.0284 -0.1267 -0.3239
  258ntf    on5 1759   0.905   0.171   4.965 -0.1063  0.0672  0.0910
  258ntf    on5 1760   0.581   0.401   5.208 -0.0727  0.4022  0.0181
  258ntf    on5 1761   0.425   0.280   5.057  0.5533 -0.3835  0.0221
  258ntf    fn4 1762   0.534   0.455   4.838 -0.3450  0.7029  0.0713
  258ntf    fn4 1763   0.461   0.574   4.997 -0.5921  0.0391 -0.7500
  258ntf    fn4 1764   0.673   0.541   4.981  0.1785  0.0146 -0.3208
  259ntf    cn1 1765   1.302   1.437   2.569 -0.4606  0.0917  0.1455
  259ntf    sn2 1766   1.444   1.335   2.620 -0.3704  0.1952  0.1034
  259ntf    nn3 1767   1.375   1.196   2.639 -0.1532  0.0229 -0.3567
  259ntf    sn2 1768   1.445   1.056   2.654  0.1281  0.1881 -0.1382
  259ntf    cn1 1769   1.470   1.043   2.833  0.5892  0.4220 -0.1819
  259ntf    fn4 1770   1.223   1.472   2.669  0.2298  0.0147  0.7258
  259ntf    fn4 1771   1.343   1.546   2.506 -0.4280 -0.1016 -0.1684
  259ntf    fn4 1772   1.223   1.383   2.478  0.3432 -0.3418 -0.3088
  259ntf    on5 1773   1.528   1.339   2.504  0.3803 -0.5062  0.6167
  259ntf    on5 1774   1.492   1.401   2.739 -0.0529 -0.1784  0.1808
  259ntf    on5 1775   1.585   1.069   2.619  0.2099  0.4232  0.2727
  259ntf    on5 1776   1.365   0.944   2.613  0.3467 -0.0569  0.1014
  259ntf    fn4 1777   1.501   0.926   2.885  0.0673  0.2459 -0.2638
  259ntf    fn4 1778   1.558   1.128   2.883  0.2234  0.3797  0.5504
  259ntf    fn4 1779   1.358   1.077   2.895 -0.0067 -0.5108 -0.7307
  260ntf    cn1 1780   1.311   0.788   3.475  0.2100  0.0539  0.0919
  260ntf    sn2 1781   1.461   0.766   3.574  0.0741  0.1198  0.3133
  260ntf    nn3 1782   1.389   0.730   3.709  0.0500 -1.1227 -0.0127
  260ntf    sn2 1783   1.409   0.813   3.841 -0.3660 -0.6667 -0.2330
  260ntf    cn1 1784   1.248   0.797   3.922 -0.3210 -0.0975 -0.0266
  260ntf    fn4 1785   1.334   0.848   3.359 -0.1033 -0.0574 -0.0285
  260ntf    fn4 1786   1.266   0.668   3.443 -0.5264  0.4297 -0.3077
  260ntf    fn4 1787   1.217   0.858   3.537 -0.3284 -0.2211 -0.4106
  260ntf    on5 1788   1.529   0.653   3.515  0.3811 -0.0598  0.9964
  260ntf    on5 1789   1.518   0.896   3.553  0.7219 -0.2128 -0.0278
  260ntf    on5 1790   1.419   0.957   3.838  0.3422 -0.7037  0.2072
  260ntf    on5 1791   1.503   0.745   3.926 -0.1311  0.2535  0.2591
  260ntf    fn4 1792   1.144   0.810   3.841 -0.5733 -0.6587  0.2024
  260ntf    fn4 1793   1.232   0.676   3.972  0.0547 -0.3923 -0.6174
  260ntf    fn4 1794   1.234   0.883   4.023  0.0907 -0.1020  0.0326
  261ntf    cn1 1795   1.524   0.317   1.455 -0.1331 -0.1905 -0.0195
  261ntf    sn2 1796   1.598   0.283   1.293 -0.1789 -0.1042 -0.0582
  261ntf    nn3 1797   1.743   0.318   1.344 -0.1581 -0.2190 -0.0384
  261ntf    sn2 1798   1.876   0.314   1.262 -0.2453  0.3152 -0.2130
  261ntf    cn1 1799   1.863   0.475   1.179  0.0302  0.5531  0.2001
  261ntf    fn4 1800   1.398   0.279   1.462 -0.1745 -0.0890 -0.2130
  261ntf    fn4 1801   1.578   0.259   1.562  0.3520 -0.1656 -0.2451
  261ntf    fn4 1802   1.521   0.448   1.474  0.1628 -0.1731 -0.0843
  261ntf    on5 1803   1.580   0.143   1.263  0.3428 -0.0735 -0.5512
  261ntf    on5 1804   1.545   0.385   1.206  0.0768  0.1192  0.0467
  261ntf    on5 1805   1.882   0.217   1.155 -1.3016  0.1381 -0.1136
  261ntf    on5 1806   1.999   0.317   1.338 -0.0368 -0.0251 -0.5259
  261ntf    fn4 1807   1.979   0.507   1.125  0.1662 -0.4817 -0.1459
  261ntf    fn4 1808   1.775   0.477   1.080  0.2854  0.1766 -0.0386
  261ntf    fn4 1809   1.822   0.569   1.262 -0.0914  0.6136  0.0719
  262ntf    cn1 1810   0.167   0.914   0.657 -0.1075 -0.0463 -0.1021
  262ntf    sn2 1811   0.130   0.816   0.508  0.0995  0.2173 -0.3272
  262ntf    nn3 1812  -0.027   0.813   0.524  0.1381  0.0836  0.0481
  262ntf    sn2 1813  -0.128   0.693   0.523  0.1958  0.0362 -0.3494
  262ntf    cn1 1814  -0.262   0.760   0.419 -0.0111 -0.2458 -0.2663
  262ntf    fn4 1815   0.102   1.029   0.667 -0.0722 -0.0403  0.0606
  262ntf    fn4 1816   0.135   0.847   0.767  0.4093 -0.1979 -0.0415
  262ntf    fn4 1817   0.297   0.932   0.664 -0.1492  0.2935 -0.1848
  262ntf    on5 1818   0.173   0.899   0.399 -0.6887  0.2251 -0.6435
  262ntf    on5 1819   0.201   0.693   0.529 -0.5536 -0.0554  0.3829
  262ntf    on5 1820  -0.187   0.683   0.654  0.3681  0.1070 -0.2668
  262ntf    on5 1821  -0.087   0.571   0.459  0.0608  0.0637 -0.4891
  262ntf    fn4 1822  -0.274   0.891   0.431 -0.0167 -0.2773  0.0922
  262ntf    fn4 1823  -0.254   0.745   0.288 -0.2826 -0.3000 -0.2762
  262ntf    fn4 1824  -0.376   0.705   0.458  0.0161 -0.0264  0.1223
  263ntf    cn1 1825   1.990   0.720   5.067  0.4792  0.0721  0.0424
  263ntf    sn2 1826   2.034   0.544   5.078  0.0268 -0.0499 -0.0812
  263ntf    nn3 1827   1.984   0.489   4.940  0.3445 -0.2641 -0.1138
  263ntf    sn2 1828   1.947   0.338   4.917  0.0470 -0.1970 -0.0833
  263ntf    cn1 1829   1.765   0.343   4.911  0.0620  0.2687 -0.2022
  263ntf    fn4 1830   2.041   0.786   5.170  0.6313  0.2664 -0.1547
  263ntf    fn4 1831   2.030   0.783   4.958  0.8644 -0.3302 -0.0495
  263ntf    fn4 1832   1.860   0.739   5.073  0.4122 -0.2968 -0.2448
  263ntf    on5 1833   2.178   0.541   5.094  0.0688  0.1373 -0.4079
  263ntf    on5 1834   1.954   0.504   5.191 -0.4311  0.0854 -0.3579
  263ntf    on5 1835   1.977   0.246   5.024  0.3475  0.2181  0.1932
  263ntf    on5 1836   1.995   0.301   4.787 -0.3793 -0.6243 -0.1203
  263ntf    fn4 1837   1.728   0.426   4.815  0.0133  0.3202 -0.1392
  263ntf    fn4 1838   1.709   0.225   4.893  0.0616  0.3255 -0.5874
  263ntf    fn4 1839   1.721   0.391   5.026 -0.0105  0.3169 -0.2505
  264ntf    cn1 1840   0.294   0.070   4.373  0.2258  0.2077 -0.1037
  264ntf    sn2 1841   0.200  -0.014   4.504 -0.0319 -0.0164 -0.4323
  264ntf    nn3 1842   0.243  -0.163   4.482 -0.2686 -0.1202 -0.1905
  264ntf    sn2 1843   0.190  -0.289   4.559 -0.0296 -0.0881  0.0303
  264ntf    cn1 1844   0.335  -0.320   4.664  0.1944  0.3098 -0.1604
  264ntf    fn4 1845   0.274   0.201   4.370  0.2333  0.2150  0.1159
  264ntf    fn4 1846   0.425   0.055   4.386  0.2018  0.2532  0.1981
  264ntf    fn4 1847   0.259   0.035   4.251  0.0909 -0.1112  0.0268
  264ntf    on5 1848   0.251   0.047   4.624  0.1189 -0.1281 -0.4386
  264ntf    on5 1849   0.061  -0.002   4.466 -0.2551 -0.6608  0.1798
  264ntf    on5 1850   0.184  -0.411   4.482 -0.1500 -0.0478 -0.0248
  264ntf    on5 1851   0.087  -0.261   4.656 -0.2526  0.2912 -0.3121
  264ntf    fn4 1852   0.350  -0.217   4.747  0.6622  0.1567 -0.0520
  264ntf    fn4 1853   0.321  -0.431   4.735  0.4205  0.3770 -0.0089
  264ntf    fn4 1854   0.442  -0.331   4.588  0.1478  0.5838 -0.2654
  265ntf    cn1 1855   1.122   0.382   0.410  0.1341 -0.4680 -0.0467
  265ntf    sn2 1856   0.981   0.296   0.334 -0.2816  0.1961 -0.0340
  265ntf    nn3 1857   0.882   0.317   0.454  0.0739  0.0458  0.2884
  265ntf    sn2 1858   0.732   0.361   0.446  0.0735 -0.0121 -0.0749
  265ntf    cn1 1859   0.723   0.461   0.598 -0.0642 -0.4799  0.2248
  265ntf    fn4 1860   1.147   0.329   0.529 -0.2909  0.4203  0.4417
  265ntf    fn4 1861   1.226   0.368   0.330  0.4787 -0.3912  0.3839
  265ntf    fn4 1862   1.096   0.510   0.429  0.7480 -0.2981 -0.3273
  265ntf    on5 1863   0.951   0.370   0.213 -0.0944  0.2201 -0.0658
  265ntf    on5 1864   1.022   0.159   0.318  0.1710  0.2263  0.8372
  265ntf    on5 1865   0.637   0.254   0.466 -0.0981  0.2444  0.5044
  265ntf    on5 1866   0.698   0.451   0.339 -0.3305  0.0407  0.0947
  265ntf    fn4 1867   0.827   0.540   0.620 -0.0583 -0.2379 -0.6722
  265ntf    fn4 1868   0.614   0.536   0.600 -0.2199 -0.6961 -0.0297
  265ntf    fn4 1869   0.713   0.392   0.711 -0.7713  0.3133  0.6587
  266ntf    cn1 1870   1.433   1.306   1.430  0.0003  0.3828 -0.0985
  266ntf    sn2 1871   1.324   1.247   1.297  0.0414 -0.2068  0.1281
  266ntf    nn3 1872   1.414   1.268   1.170 -0.1379  0.6416  0.1410
  266ntf    sn2 1873   1.363   1.327   1.033 -0.2811  0.1461 -0.0183
  266ntf    cn1 1874   1.336   1.501   1.078 -0.1718  0.1199  0.1488
  266ntf    fn4 1875   1.555   1.258   1.417 -0.1528  0.0045 -0.1557
  266ntf    fn4 1876   1.448   1.437   1.435 -0.0883  0.3868  0.0709
  266ntf    fn4 1877   1.384   1.265   1.546 -0.4532  0.3230 -0.3056
  266ntf    on5 1878   1.299   1.108   1.329  0.0993 -0.3089 -0.2605
  266ntf    on5 1879   1.220   1.345   1.316  0.3207  0.0468  0.3649
  266ntf    on5 1880   1.235   1.280   0.985 -0.3011  0.4643 -0.2781
  266ntf    on5 1881   1.472   1.324   0.939  0.2590  1.0783  0.5667
  266ntf    fn4 1882   1.441   1.553   1.139  0.0351 -0.4252  0.2626
  266ntf    fn4 1883   1.319   1.568   0.966 -0.4045 -0.4595 -0.1703
  266ntf    fn4 1884   1.232   1.524   1.157 -0.2413  0.0492  0.0782
  267ntf    cn1 1885   0.878   0.736   4.371 -0.5094 -0.1198  0.2030
  267ntf    sn2 1886   0.752   0.850   4.306 -0.3666 -0.1053 -0.0500
  267ntf    nn3 1887   0.736   0.808   4.155  0.0860 -0.2289 -0.0654
  267ntf    sn2 1888   0.629   0.711   4.093 -0.0345 -0.1041 -0.0526
  267ntf    cn1 1889   0.495   0.832   4.065 -0.0038  0.0059  0.2776
  267ntf    fn4 1890   0.839   0.611   4.390 -0.6424 -0.1060  0.0293
  267ntf    fn4 1891   0.979   0.738   4.285 -0.5660  0.6405  0.1407
  267ntf    fn4 1892   0.935   0.786   4.479  0.4649 -0.3336 -0.2022
  267ntf    on5 1893   0.647   0.821   4.401 -0.1744  0.4381  0.3317
  267ntf    on5 1894   0.814   0.979   4.318 -0.4177 -0.0648 -0.2141
  267ntf    on5 1895   0.578   0.605   4.175  0.4732 -0.1947  0.1505
  267ntf    on5 1896   0.665   0.670   3.959  0.7295 -0.0599  0.1348
  267ntf    fn4 1897   0.497   0.900   4.179  0.2002 -0.2647  0.4383
  267ntf    fn4 1898   0.529   0.914   3.968  0.2817  0.3158  0.6369
  267ntf    fn4 1899   0.378   0.777   4.036 -0.1763  0.3989  0.2303
  268ntf    cn1 1900   1.510   2.048   0.517 -0.1632  0.3397 -0.0044
  268ntf    sn2 1901   1.665   2.073   0.426 -0.1255  0.1884  0.0177
  268ntf    nn3 1902   1.601   2.097   0.285 -0.2480 -0.7991 -0.1006
  268ntf    sn2 1903   1.541   2.226   0.219  0.0046 -0.3990  0.4487
  268ntf    cn1 1904   1.679   2.317   0.144 -0.1347 -0.2957  0.3161
  268ntf    fn4 1905   1.541   2.050   0.645  0.7477 -0.6547 -0.1885
  268ntf    fn4 1906   1.420   2.144   0.503 -0.1343  0.3913  0.1728
  268ntf    fn4 1907   1.449   1.933   0.490 -0.3972  0.4121  0.2164
  268ntf    on5 1908   1.741   2.187   0.471  0.1333 -0.0217  0.1215
  268ntf    on5 1909   1.739   1.951   0.449 -0.3854  0.0617  0.1792
  268ntf    on5 1910   1.483   2.319   0.312  0.2134  0.3352 -0.1421
  268ntf    on5 1911   1.463   2.200   0.101  0.1121  0.2186  0.2397
  268ntf    fn4 1912   1.761   2.366   0.236  0.1648 -0.1157 -0.0421
  268ntf    fn4 1913   1.751   2.242   0.062  0.1734  0.0975  0.2222
  268ntf    fn4 1914   1.642   2.422   0.072 -0.2648 -0.4095  0.2174
  269ntf    cn1 1915   1.875   0.601   6.153  0.1207 -0.1763 -0.1027
  269ntf    sn2 1916   1.978   0.492   6.050  0.3633 -0.0064 -0.0429
  269ntf    nn3 1917   1.955   0.360   6.132 -0.2457 -0.2045 -0.5196
  269ntf    sn2 1918   2.054   0.265   6.211 -0.2947  0.1924  0.0237
  269ntf    cn1 1919   2.116   0.178   6.064 -0.0055 -0.2714  0.4211
  269ntf    fn4 1920   1.922   0.608   6.277  0.0556 -0.5307 -0.0587
  269ntf    fn4 1921   1.877   0.728   6.114 -0.5020 -0.1639 -0.0915
  269ntf    fn4 1922   1.748   0.569   6.168  0.0785 -0.1880 -0.4929
  269ntf    on5 1923   1.904   0.493   5.926 -0.5615  0.2290  0.5000
  269ntf    on5 1924   2.109   0.551   6.061 -0.1670  1.1418  0.2377
  269ntf    on5 1925   1.985   0.163   6.286  0.4136 -0.0007  0.4133
  269ntf    on5 1926   2.164   0.333   6.274  0.0601 -0.2398 -0.1275
  269ntf    fn4 1927   2.018   0.132   5.988  0.5170  0.0492 -0.4543
  269ntf    fn4 1928   2.188   0.255   5.984  0.1329 -0.4609  0.3624
  269ntf    fn4 1929   2.192   0.071   6.083  0.0635 -0.3491 -0.2617
  270ntf    cn1 1930   2.011   2.142   0.793  0.1782 -0.3573 -0.2080
  270ntf    sn2 1931   2.137   2.235   0.700  0.1938 -0.0410  0.1268
  270ntf    nn3 1932   2.260   2.200   0.791  0.2571 -0.0622  0.0333
  270ntf    sn2 1933   2.410   2.240   0.764  0.2659 -0.2422 -0.1894
  270ntf    cn1 1934   2.495   2.118   0.868 -0.0044 -0.3986 -0.1495
  270ntf    fn4 1935   1.984   2.193   0.912  0.9017  0.0373 -0.2050
  270ntf    fn4 1936   1.896   2.129   0.729 -0.0575 -0.0165  0.1375
  270ntf    fn4 1937   2.044   2.019   0.826  0.2506 -0.2311  0.1972
  270ntf    on5 1938   2.131   2.174   0.570  0.1812  0.8119 -0.2776
  270ntf    on5 1939   2.096   2.372   0.720 -0.5452 -0.3079  0.4724
  270ntf    on5 1940   2.450   2.366   0.822 -0.1065 -0.3130  0.2279
  270ntf    on5 1941   2.452   2.215   0.629  0.0456 -0.8897 -0.1381
  270ntf    fn4 1942   2.489   1.994   0.822 -0.2745 -0.3709 -0.1891
  270ntf    fn4 1943   2.625   2.141   0.883 -0.0041 -0.5500  0.0948
  270ntf    fn4 1944   2.445   2.111   0.990  0.1603  0.5302 -0.0210
   2.30009   2.30009   6.42497
