Converted from moscito
21600
    1SOL     ow    1   7.143   4.433   0.611  0.1093 -0.6278  0.3299
    1SOL     hw    2   7.180   4.407   0.695  3.6650 -3.3945 -1.8277
    1SOL     hw    3   7.053   4.400   0.613  0.1610 -0.8062  2.8787
    1SOL     vw    4   7.136   4.425   0.622  0.5856 -1.0166  0.3816
    2SOL     ow    5   2.693   6.031   2.676  0.1539 -0.1260  0.7176
    2SOL     hw    6   2.609   6.074   2.693 -0.3972 -1.4785  1.4959
    2SOL     hw    7   2.690   5.950   2.726  1.6783 -0.5071  0.2526
    2SOL     vw    8   2.682   6.026   2.684  0.2823 -0.3548  0.7589
    3SOL     ow    9   4.601   7.078   3.521 -0.0051 -0.1467 -0.2194
    3SOL     hw   10   4.675   7.074   3.461  0.1588  0.4428 -0.0603
    3SOL     hw   11   4.608   6.997   3.573  1.5851  0.7180  1.0150
    3SOL     vw   12   4.612   7.067   3.520  0.2263  0.0451 -0.0355
    4SOL     ow   13   7.140   6.461   5.042  0.1516  0.2780 -0.3088
    4SOL     hw   14   7.165   6.372   5.065  0.2441  0.5798  0.8053
    4SOL     hw   15   7.219   6.499   5.003  0.5104  0.2780  0.4173
    4SOL     vw   16   7.154   6.454   5.040  0.2112  0.3181 -0.0658
    5SOL     ow   17   1.301   2.002   6.416  0.0019 -0.7638  1.0028
    5SOL     hw   18   1.248   2.078   6.394  2.5184  0.5163 -1.1753
    5SOL     hw   19   1.273   1.935   6.353  0.1148 -0.5313  0.7064
    5SOL     vw   20   1.290   2.003   6.405  0.3489 -0.5642  0.6764
    6SOL     ow   21   3.089   1.685   5.641 -0.3614 -0.2364 -0.5874
    6SOL     hw   22   3.062   1.772   5.611  0.8606  0.2404 -0.3669
    6SOL     hw   23   3.109   1.697   5.734  0.1488 -0.6731 -0.6375
    6SOL     vw   24   3.088   1.698   5.649 -0.1328 -0.2310 -0.5651
    7SOL     ow   25   5.003   6.239   5.843  0.2063  0.7015  0.0044
    7SOL     hw   26   4.934   6.244   5.777 -0.7901 -2.7239  0.6110
    7SOL     hw   27   4.962   6.196   5.918  2.4228  0.6021  1.2501
    7SOL     vw   28   4.989   6.234   5.844  0.3669  0.2365  0.2487
    8SOL     ow   29   5.816   1.041   1.539  0.1689  0.0264  0.7463
    8SOL     hw   30   5.905   1.009   1.555  0.7599  0.5852 -1.1471
    8SOL     hw   31   5.829   1.129   1.504 -0.8938 -0.9262 -2.3881
    8SOL     vw   32   5.830   1.048   1.537  0.1066 -0.0256  0.0829
    9SOL     ow   33   1.669   1.903   7.145  0.1239  0.0198  0.1657
    9SOL     hw   34   1.608   1.863   7.082  1.4940 -0.3962 -0.9363
    9SOL     hw   35   1.635   1.875   7.230 -1.5883  0.3271 -0.3657
    9SOL     vw   36   1.656   1.894   7.148  0.0787  0.0054 -0.0498
   10SOL     ow   37   3.790   6.182   3.485 -0.1461  0.0021 -0.0139
   10SOL     hw   38   3.882   6.158   3.501  0.0945 -0.0151 -1.3420
   10SOL     hw   39   3.781   6.268   3.526 -0.2536 -1.0450  2.3438
   10SOL     vw   40   3.801   6.190   3.493 -0.1285 -0.1380  0.1218
   11SOL     ow   41   2.308   5.975   6.881 -0.1308  0.2287  0.0036
   11SOL     hw   42   2.399   5.995   6.901  0.7001 -0.5616 -2.5287
   11SOL     hw   43   2.308   5.882   6.859 -1.9574 -0.2648  1.7513
   11SOL     vw   44   2.320   5.965   6.880 -0.2621  0.0594 -0.0999
   12SOL     ow   45   5.003   3.366   5.759  0.8748 -0.2063  0.4267
   12SOL     hw   46   4.982   3.302   5.828  0.2967 -0.6083 -0.1064
   12SOL     hw   47   5.088   3.339   5.725  1.6057  0.5417  1.5956
   12SOL     vw   48   5.011   3.354   5.764  0.8950 -0.1606  0.5109
   13SOL     ow   49   5.513   0.986   1.482  0.0675  0.6583  0.4654
   13SOL     hw   50   5.479   0.905   1.446 -0.5136  0.6438  1.0139
   13SOL     hw   51   5.517   1.046   1.408  2.1790 -0.3694 -0.3151
   13SOL     vw   52   5.509   0.983   1.468  0.2694  0.5208  0.4348
   14SOL     ow   53   4.606   2.805   3.633 -0.1142  0.1332 -0.3063
   14SOL     hw   54   4.611   2.737   3.701 -3.9576  0.2327  0.2918
   14SOL     hw   55   4.594   2.756   3.552 -1.2764  0.0203 -0.0861
   14SOL     vw   56   4.605   2.789   3.632 -0.7746  0.1314 -0.1984
   15SOL     ow   57   5.461   4.261   5.005  0.2802 -0.1406 -0.4842
   15SOL     hw   58   5.398   4.288   4.938 -1.6150 -0.6276  1.0055
   15SOL     hw   59   5.415   4.194   5.056  1.9284 -0.3445  0.8424
   15SOL     vw   60   5.447   4.256   5.003  0.2477 -0.2315 -0.1128
   16SOL     ow   61   3.893   4.897   0.276  0.1867  0.0601 -0.5456
   16SOL     hw   62   3.902   4.827   0.340  1.2652 -1.8219 -2.6339
   16SOL     hw   63   3.834   4.862   0.210  1.2954  0.8156 -1.9991
   16SOL     vw   64   3.886   4.883   0.276  0.4753 -0.0885 -1.0128
   17SOL     ow   65   6.376   3.301   0.399  0.7400 -0.2740  1.3118
   17SOL     hw   66   6.370   3.348   0.315  0.0926 -4.3506 -1.1929
   17SOL     hw   67   6.464   3.320   0.430  1.3835  0.5697 -0.8228
   17SOL     vw   68   6.387   3.310   0.392  0.7396 -0.7005  0.6997
   18SOL     ow   69   3.161   4.566   6.847 -0.5199 -0.3497  0.1474
   18SOL     hw   70   3.153   4.527   6.759 -1.7241  1.7471 -0.7431
   18SOL     hw   71   3.198   4.653   6.831 -1.3601  0.3108  1.6536
   18SOL     vw   72   3.165   4.572   6.833 -0.7896  0.0138  0.2289
   19SOL     ow   73   3.114   2.682   3.632 -0.1948 -1.4172 -0.3393
   19SOL     hw   74   3.034   2.733   3.628  0.0672 -0.8993  0.7554
   19SOL     hw   75   3.090   2.597   3.595 -0.5473 -0.4465 -2.5036
   19SOL     vw   76   3.100   2.677   3.627 -0.2068 -1.2206 -0.4804
   20SOL     ow   77   0.529   0.945   5.370 -0.0411  0.0203 -0.2035
   20SOL     hw   78   0.467   0.908   5.433 -0.3225 -2.8843 -1.9877
   20SOL     hw   79   0.569   0.868   5.328  2.0527  1.8062 -1.7189
   20SOL     vw   80   0.526   0.930   5.373  0.1980 -0.1273 -0.6387
   21SOL     ow   81   1.365   6.890   0.643  0.1388  0.1481  0.1894
   21SOL     hw   82   1.274   6.874   0.669 -0.0499 -1.6733 -1.4004
   21SOL     hw   83   1.417   6.858   0.717 -0.4568 -2.5255 -0.4426
   21SOL     vw   84   1.360   6.883   0.656  0.0353 -0.4449 -0.1037
   22SOL     ow   85   5.247   4.101   5.404  0.5714 -0.1403  0.7526
   22SOL     hw   86   5.163   4.068   5.436  0.3155  0.9069  1.1996
   22SOL     hw   87   5.311   4.038   5.435  0.2532  0.4281  2.7508
   22SOL     vw   88   5.244   4.089   5.412  0.4957  0.0730  1.0753
   23SOL     ow   89   1.926   1.030   1.095  0.1300 -0.0755  0.2152
   23SOL     hw   90   1.938   0.983   1.012  0.7310  0.1803  0.1478
   23SOL     hw   91   1.853   0.986   1.138 -0.1253 -0.2733 -0.4097
   23SOL     vw   92   1.918   1.018   1.090  0.1757 -0.0679  0.1238
   24SOL     ow   93   3.708   0.011   6.158  0.1696 -0.5975  0.4346
   24SOL     hw   94   3.746  -0.020   6.076  0.6677 -0.6208  0.6697
   24SOL     hw   95   3.756   0.091   6.178 -1.3180  0.5462 -0.3416
   24SOL     vw   96   3.719   0.018   6.150  0.0391 -0.4499  0.3629
   25SOL     ow   97   3.451   3.279   1.520 -0.5463 -0.5705 -0.1750
   25SOL     hw   98   3.419   3.368   1.509  2.4129  0.5577 -0.6427
   25SOL     hw   99   3.430   3.236   1.437  0.0528  0.4674 -0.8957
   25SOL     vw  100   3.444   3.285   1.507 -0.0768 -0.2849 -0.3319
   26SOL     ow  101   4.931   3.655   5.775 -0.3085  0.5318  0.8019
   26SOL     hw  102   4.934   3.743   5.812 -2.2488  1.0247 -0.0714
   26SOL     hw  103   4.957   3.667   5.683  1.6766 -0.2225  1.2086
   26SOL     vw  104   4.935   3.668   5.768 -0.3028  0.4972  0.7403
   27SOL     ow  105   2.046   5.109   0.029 -0.2835  0.4019 -0.2904
   27SOL     hw  106   2.007   5.147  -0.050 -1.6805 -0.5176 -0.0843
   27SOL     hw  107   2.060   5.017   0.006 -1.1297  0.0186  0.6820
   27SOL     vw  108   2.043   5.102   0.015 -0.5795  0.2301 -0.1349
   28SOL     ow  109   0.923   3.298   4.968 -0.2481  0.1627  0.0916
   28SOL     hw  110   0.909   3.359   4.895 -1.3075 -0.0733  0.0777
   28SOL     hw  111   0.838   3.255   4.979  0.4183 -1.1481  0.2419
   28SOL     vw  112   0.910   3.300   4.959 -0.2999 -0.0415  0.1094
   29SOL     ow  113   0.350   2.656   2.516  0.9896  0.0847 -0.2838
   29SOL     hw  114   0.359   2.638   2.609 -1.3246  1.0554  0.1909
   29SOL     hw  115   0.278   2.719   2.510  1.7903  0.9072 -2.6567
   29SOL     vw  116   0.342   2.662   2.527  0.7899  0.3213 -0.5342
   30SOL     ow  117   1.207   0.501   6.540 -0.1146 -0.2566 -1.0790
   30SOL     hw  118   1.182   0.561   6.610 -0.6287  0.6338 -2.0062
   30SOL     hw  119   1.282   0.542   6.498  0.5817 -1.0860 -0.6931
   30SOL     vw  120   1.214   0.514   6.543 -0.0905 -0.2485 -1.1506
   31SOL     ow  121   3.030   4.865   1.606  0.0085 -0.1955  0.0593
   31SOL     hw  122   3.010   4.788   1.658  0.0508 -0.2398  0.0097
   31SOL     hw  123   2.948   4.888   1.563  0.3381 -1.1190 -1.1416
   31SOL     vw  124   3.017   4.858   1.607  0.0576 -0.3233 -0.1057
   32SOL     ow  125   0.854   6.989   2.076 -0.0300 -0.2286 -0.5160
   32SOL     hw  126   0.896   6.946   2.001 -0.8335 -0.8906 -0.5930
   32SOL     hw  127   0.874   6.931   2.151 -0.5162 -0.3731 -0.4952
   32SOL     vw  128   0.862   6.975   2.076 -0.2001 -0.3352 -0.5233
   33SOL     ow  129   5.136   4.024   3.181  0.1262  0.0613  0.2956
   33SOL     hw  130   5.202   4.015   3.251 -1.7663 -2.6785  1.9236
   33SOL     hw  131   5.186   4.015   3.100  2.1770  1.5078  1.3084
   33SOL     vw  132   5.151   4.022   3.180  0.1471 -0.1092  0.6440
   34SOL     ow  133   4.361   5.830   6.627  0.3048  0.1386  0.1982
   34SOL     hw  134   4.347   5.742   6.662  0.1174 -0.4149 -1.2155
   34SOL     hw  135   4.416   5.874   6.692 -0.4233 -0.6841  1.4001
   34SOL     vw  136   4.367   5.825   6.640  0.1841 -0.0427  0.1702
   35SOL     ow  137   5.798   2.212   0.394 -0.4576 -0.0697  0.2290
   35SOL     hw  138   5.887   2.177   0.404 -0.7492 -0.6924  0.6811
   35SOL     hw  139   5.790   2.231   0.300  0.8684  1.9423  0.4678
   35SOL     vw  140   5.809   2.210   0.383 -0.3214  0.1137  0.3201
   36SOL     ow  141   5.652   2.947   6.016 -0.9275  0.2482 -0.1515
   36SOL     hw  142   5.679   3.036   5.992 -1.5548  0.2590 -0.8711
   36SOL     hw  143   5.564   2.939   5.979 -1.7311  0.0619  1.6905
   36SOL     vw  144   5.644   2.958   6.008 -1.1163  0.2251 -0.0033
   37SOL     ow  145   0.736   1.509   5.270 -0.0538  0.1380 -0.1907
   37SOL     hw  146   0.719   1.600   5.247 -0.4525 -0.1649 -1.1465
   37SOL     hw  147   0.827   1.494   5.245 -0.4427 -0.1483 -1.4959
   37SOL     vw  148   0.746   1.519   5.264 -0.1577  0.0602 -0.4890
   38SOL     ow  149   7.055   3.949   2.048  0.0460  0.2256 -0.7373
   38SOL     hw  150   7.128   3.920   1.993  0.6493 -1.3532  0.7982
   38SOL     hw  151   7.002   3.870   2.059 -1.3689  1.1208 -1.0019
   38SOL     vw  152   7.058   3.934   2.042 -0.0611  0.1354 -0.5696
   39SOL     ow  153   4.511   1.614   5.590 -0.5370  0.2892  0.1134
   39SOL     hw  154   4.432   1.600   5.643  0.2915  0.4042  1.4171
   39SOL     hw  155   4.553   1.690   5.630 -1.1019  1.9417 -2.2156
   39SOL     vw  156   4.506   1.622   5.602 -0.5021  0.5225 -0.0222
   40SOL     ow  157   5.658   6.358   6.958  0.0634  0.2179 -0.0723
   40SOL     hw  158   5.692   6.389   7.042  1.4657 -0.5184 -0.3469
   40SOL     hw  159   5.733   6.361   6.899 -0.1654 -2.0387 -0.5499
   40SOL     vw  160   5.673   6.363   6.962  0.2182 -0.1769 -0.1717
   41SOL     ow  161   5.722   5.698   1.434  0.2716  0.0035 -0.7468
   41SOL     hw  162   5.687   5.683   1.522 -0.4926 -0.9586 -1.1927
   41SOL     hw  163   5.817   5.692   1.445  0.3709  2.3465  0.4313
   41SOL     vw  164   5.730   5.695   1.447  0.1836  0.1857 -0.6502
   42SOL     ow  165   2.253   0.061   4.037 -0.0236  0.3139 -0.1996
   42SOL     hw  166   2.239   0.151   4.065 -0.7971  0.2700 -0.4041
   42SOL     hw  167   2.180   0.043   3.977 -1.4564 -1.2881  1.8631
   42SOL     vw  168   2.242   0.070   4.033 -0.3146  0.0968  0.0455
   43SOL     ow  169   6.974   3.121   6.727  0.4178  0.1554  0.1405
   43SOL     hw  170   6.905   3.064   6.761 -3.0366  3.3080 -0.9675
   43SOL     hw  171   6.984   3.189   6.793  1.1929  0.7288 -0.5446
   43SOL     vw  172   6.967   3.122   6.740  0.0641  0.6469 -0.0961
   44SOL     ow  173   6.910   0.355   4.382 -0.4026 -0.0008 -0.2210
   44SOL     hw  174   6.895   0.346   4.288 -0.1003  0.2319 -0.2971
   44SOL     hw  175   6.910   0.266   4.416  0.0474 -0.1289 -0.5387
   44SOL     vw  176   6.908   0.342   4.374 -0.3033  0.0130 -0.2730
   45SOL     ow  177   6.902   2.979   2.985 -0.3264  0.2463 -0.0519
   45SOL     hw  178   6.980   3.005   3.033 -0.0453  0.3558 -0.5598
   45SOL     hw  179   6.829   3.006   3.040 -0.0598  2.2021 -0.5851
   45SOL     vw  180   6.903   2.986   2.998 -0.2542  0.5186 -0.1892
   46SOL     ow  181   0.463   1.743   2.894  0.6368 -0.1078 -0.8225
   46SOL     hw  182   0.503   1.664   2.856  1.1034  0.9827 -2.7386
   46SOL     hw  183   0.504   1.815   2.847 -0.3049  1.2687  0.3838
   46SOL     vw  184   0.474   1.742   2.883  0.5742  0.2176 -0.9162
   47SOL     ow  185   0.872   0.651   0.173  0.3844  0.1174  0.2672
   47SOL     hw  186   0.965   0.633   0.159 -0.2908 -3.6907 -0.3930
   47SOL     hw  187   0.836   0.660   0.084  0.1467  2.3410  0.5253
   47SOL     vw  188   0.879   0.650   0.159  0.2640 -0.0916  0.2142
   48SOL     ow  189   4.974   1.489   6.677  0.0367  0.1096  0.0926
   48SOL     hw  190   4.970   1.414   6.736  0.9343  1.0309  1.3996
   48SOL     hw  191   4.933   1.561   6.726 -1.1049  0.4173 -1.2565
   48SOL     vw  192   4.968   1.489   6.692  0.0043  0.2717  0.0873
   49SOL     ow  193   3.791   2.608   1.971 -0.6566  0.1584  0.1902
   49SOL     hw  194   3.711   2.575   1.932  0.8477 -0.7736 -2.3613
   49SOL     hw  195   3.818   2.680   1.915 -0.0134  0.8649  1.3572
   49SOL     vw  196   3.784   2.613   1.959 -0.3731  0.1287  0.0075
   50SOL     ow  197   1.154   1.966   1.951  0.9435 -0.3545 -0.7867
   50SOL     hw  198   1.131   1.985   1.860  0.8907 -2.8632 -1.3688
   50SOL     hw  199   1.098   1.893   1.975  3.2421 -1.9181  0.1490
   50SOL     vw  200   1.144   1.959   1.942  1.2398 -0.8918 -0.7401
   51SOL     ow  201   3.474   0.828   1.806  0.0733  0.0675  0.1931
   51SOL     hw  202   3.525   0.757   1.847  0.1738  1.4001  2.5755
   51SOL     hw  203   3.517   0.908   1.836 -1.3105  1.1781 -0.6867
   51SOL     vw  204   3.487   0.829   1.816 -0.0961  0.3899  0.3914
   52SOL     ow  205   2.883   4.098   6.112  0.0156  1.0101  0.7780
   52SOL     hw  206   2.940   4.121   6.186 -0.8121  1.8814  1.1626
   52SOL     hw  207   2.800   4.142   6.130 -0.8349 -0.3156  0.2663
   52SOL     vw  208   2.880   4.107   6.124 -0.2059  0.9503  0.7613
   53SOL     ow  209   1.149   5.291   2.882 -0.2148  0.8351  0.5408
   53SOL     hw  210   1.114   5.282   2.971 -2.2134  2.0199 -0.0792
   53SOL     hw  211   1.134   5.205   2.842 -0.5539  0.7147  0.9177
   53SOL     vw  212   1.143   5.278   2.888 -0.5231  0.9756  0.5088
   54SOL     ow  213   3.750   4.544   5.264  0.3813  0.1237  0.1270
   54SOL     hw  214   3.728   4.638   5.265  1.5321  0.4221 -0.7900
   54SOL     hw  215   3.743   4.520   5.172  0.9877 -0.4729  0.2356
   54SOL     vw  216   3.746   4.553   5.252  0.6131  0.0844  0.0203
   55SOL     ow  217   0.848   1.771   0.174 -0.5104  0.7511 -0.2000
   55SOL     hw  218   0.811   1.859   0.178 -0.1592  1.0570 -2.2605
   55SOL     hw  219   0.857   1.754   0.080  0.6330 -0.9790  0.1815
   55SOL     vw  220   0.844   1.780   0.162 -0.3132  0.5631 -0.4215
   56SOL     ow  221   3.541   1.151   4.186 -0.4021 -0.6318 -0.0128
   56SOL     hw  222   3.494   1.227   4.153  0.7828 -0.1367 -0.6247
   56SOL     hw  223   3.594   1.185   4.258  0.2404 -0.8259 -0.3796
   56SOL     vw  224   3.542   1.166   4.191 -0.1611 -0.5921 -0.1421
   57SOL     ow  225   6.948   6.707   5.083 -0.1993  0.3265  0.4085
   57SOL     hw  226   6.855   6.723   5.099 -0.6289  0.1662 -1.6947
   57SOL     hw  227   6.992   6.786   5.115 -0.8343 -0.2020  2.8207
   57SOL     vw  228   6.942   6.720   5.089 -0.3397  0.2356  0.4489
   58SOL     ow  229   0.547   0.824   4.023 -0.1385 -0.8047 -0.1156
   58SOL     hw  230   0.488   0.786   4.089 -0.3700  1.5987  1.1538
   58SOL     hw  231   0.622   0.855   4.073  1.8389 -2.8822 -1.5885
   58SOL     vw  232   0.549   0.823   4.038  0.0918 -0.7616 -0.1423
   59SOL     ow  233   6.696   1.457   6.906  0.3668 -0.3558 -0.3106
   59SOL     hw  234   6.619   1.439   6.961 -0.6320 -0.1912 -1.6205
   59SOL     hw  235   6.758   1.388   6.930 -0.5958 -1.1487 -0.0025
   59SOL     vw  236   6.694   1.445   6.917  0.1080 -0.4387 -0.4430
   60SOL     ow  237   2.723   0.387   5.474  0.4542 -0.2918  0.6593
   60SOL     hw  238   2.675   0.398   5.556 -0.1425 -0.1031  0.2874
   60SOL     hw  239   2.748   0.475   5.448  1.4109 -0.4193  1.0788
   60SOL     vw  240   2.720   0.400   5.482  0.5016 -0.2837  0.6654
   61SOL     ow  241   3.742   0.263   3.734 -0.2057  0.6415 -0.3682
   61SOL     hw  242   3.807   0.239   3.800  1.2063  0.6888 -1.7105
   61SOL     hw  243   3.693   0.335   3.774 -1.5253 -1.3290  1.8885
   61SOL     vw  244   3.744   0.269   3.748 -0.1935  0.3878 -0.2475
   62SOL     ow  245   0.225   2.035   5.844 -0.6240 -0.0911  0.6199
   62SOL     hw  246   0.292   2.072   5.787 -2.1406  0.8748 -0.6218
   62SOL     hw  247   0.184   2.112   5.885 -0.5995 -0.6979  1.8288
   62SOL     vw  248   0.229   2.050   5.842 -0.8209 -0.0436  0.6156
   63SOL     ow  249   2.015   0.862   0.435  0.3221 -0.8604  0.5928
   63SOL     hw  250   1.995   0.860   0.341 -0.8528 -1.4493  0.8414
   63SOL     hw  251   1.937   0.826   0.477  0.9230 -0.8070  1.7895
   63SOL     vw  252   2.002   0.857   0.428  0.2464 -0.9311  0.7835
   64SOL     ow  253   5.622   2.224   0.627  0.5370 -0.3394  0.7972
   64SOL     hw  254   5.672   2.196   0.550 -0.2986  0.6821 -0.1412
   64SOL     hw  255   5.531   2.201   0.606  0.4603 -1.3008  2.0751
   64SOL     vw  256   5.617   2.217   0.614  0.4168 -0.3314  0.8420
   65SOL     ow  257   5.833   1.332   6.334 -0.4963  0.3453 -0.4125
   65SOL     hw  258   5.829   1.347   6.428 -0.0889 -0.2243 -0.2927
   65SOL     hw  259   5.745   1.352   6.302 -0.9928 -0.6183  0.2811
   65SOL     vw  260   5.821   1.336   6.342 -0.5078  0.1430 -0.3052
   66SOL     ow  261   2.222   5.458   2.695  0.2321 -0.0826  0.1606
   66SOL     hw  262   2.236   5.504   2.612  1.3108 -0.0262  0.3670
   66SOL     hw  263   2.127   5.463   2.709  0.0560  0.0189 -0.9956
   66SOL     vw  264   2.211   5.465   2.686  0.3513 -0.0615  0.0352
   67SOL     ow  265   0.984   4.287   6.348  0.1952  0.5545  0.4147
   67SOL     hw  266   0.956   4.278   6.439 -0.2695 -1.0442  0.1417
   67SOL     hw  267   0.928   4.356   6.312 -0.8977 -0.0909  0.8490
   67SOL     vw  268   0.973   4.295   6.355 -0.0103  0.2584  0.4356
   68SOL     ow  269   5.573   6.864   1.215 -0.1689 -0.0794  0.5478
   68SOL     hw  270   5.523   6.932   1.170  1.1966 -0.2645 -1.4186
   68SOL     hw  271   5.584   6.796   1.149  2.2672 -0.2103  0.9949
   68SOL     vw  272   5.568   6.864   1.200  0.3328 -0.1211  0.3474
   69SOL     ow  273   5.480   0.243   3.340 -0.0359  0.8539  0.1712
   69SOL     hw  274   5.438   0.168   3.299 -1.7761  1.4692  0.7446
   69SOL     hw  275   5.502   0.301   3.268  0.8520  0.0588 -0.2287
   69SOL     vw  276   5.477   0.241   3.325 -0.1483  0.8302  0.1942
   70SOL     ow  277   1.389   7.109   0.496  0.0793  0.1177  0.0972
   70SOL     hw  278   1.302   7.147   0.510  0.2392  0.4932  0.0833
   70SOL     hw  279   1.382   7.021   0.533 -0.6682 -0.2961 -0.9986
   70SOL     vw  280   1.377   7.102   0.503  0.0017  0.1128 -0.0492
   71SOL     ow  281   3.686   4.273   2.541  0.6414 -0.7283 -0.2126
   71SOL     hw  282   3.604   4.235   2.511  1.4350 -0.9263 -2.2919
   71SOL     hw  283   3.666   4.366   2.554 -0.3102 -1.0716  1.0590
   71SOL     vw  284   3.673   4.280   2.539  0.6206 -0.7999 -0.3192
   72SOL     ow  285   6.232   5.094   2.035 -0.5188  0.1044 -0.2971
   72SOL     hw  286   6.232   5.188   2.019  0.7470 -0.1645 -2.2701
   72SOL     hw  287   6.213   5.055   1.949  2.5001 -1.4663 -0.4039
   72SOL     vw  288   6.229   5.101   2.021  0.0465 -0.1383 -0.5716
   73SOL     ow  289   5.281   5.329   1.501  0.4681 -0.4717  0.0171
   73SOL     hw  290   5.240   5.250   1.465 -0.1445  0.3856 -1.2559
   73SOL     hw  291   5.364   5.337   1.453  1.1458 -1.0134  1.0527
   73SOL     vw  292   5.287   5.320   1.490  0.4766 -0.4299 -0.0142
   74SOL     ow  293   7.128   1.764   2.404 -0.0709 -0.3418  0.3022
   74SOL     hw  294   7.174   1.755   2.320 -0.2868  0.8912  0.0351
   74SOL     hw  295   7.112   1.674   2.432  0.2186 -0.7748 -0.8581
   74SOL     vw  296   7.132   1.751   2.396 -0.0610 -0.2362  0.1138
   75SOL     ow  297   2.421   1.730   1.781 -0.0659  0.4158 -0.3945
   75SOL     hw  298   2.470   1.737   1.700 -2.0825  2.7680 -1.5275
   75SOL     hw  299   2.329   1.737   1.754 -0.9171 -0.7958  1.9120
   75SOL     vw  300   2.415   1.732   1.767 -0.4443  0.5663 -0.2397
   76SOL     ow  301   5.879   6.794   6.974 -0.4260 -0.3877 -0.9338
   76SOL     hw  302   5.820   6.732   6.931  0.8812 -0.8260 -2.1633
   76SOL     hw  303   5.843   6.880   6.953 -2.4933 -0.6408  1.1135
   76SOL     vw  304   5.866   6.797   6.966 -0.5262 -0.4787 -0.8259
   77SOL     ow  305   5.858   1.157   3.933 -0.1482  0.4716 -0.6468
   77SOL     hw  306   5.778   1.136   3.886 -2.2861 -1.2195  3.2611
   77SOL     hw  307   5.843   1.245   3.968  0.0184  0.4404 -0.4928
   77SOL     vw  308   5.846   1.166   3.932 -0.4082  0.2444 -0.1110
   78SOL     ow  309   1.474   5.230   2.801  0.2443  0.7510  0.4335
   78SOL     hw  310   1.475   5.162   2.868  0.1134  1.9894  1.7335
   78SOL     hw  311   1.555   5.279   2.816  0.6489  0.5249 -0.8938
   78SOL     vw  312   1.485   5.228   2.812  0.2804  0.8848  0.4299
   79SOL     ow  313   2.102   5.645   6.061 -1.0147 -0.3353  0.0602
   79SOL     hw  314   2.029   5.606   6.109  2.0094 -3.8642  2.3332
   79SOL     hw  315   2.109   5.593   5.981 -1.4093  0.5033 -0.5317
   79SOL     vw  316   2.093   5.633   6.057 -0.6679 -0.6905  0.2818
   80SOL     ow  317   7.145   5.289   3.305 -0.3890  0.2961  0.2078
   80SOL     hw  318   7.128   5.323   3.218  1.9738  1.7149  0.2364
   80SOL     hw  319   7.177   5.364   3.355  0.0388 -0.8723  1.7879
   80SOL     vw  320   7.147   5.303   3.300 -0.0208  0.3290  0.4202
   81SOL     ow  321   2.790   4.930   1.493 -0.0681 -0.1949  0.0773
   81SOL     hw  322   2.736   4.953   1.568 -0.7487 -0.8179 -0.2079
   81SOL     hw  323   2.740   4.862   1.447 -0.8634  1.8438 -2.2817
   81SOL     vw  324   2.777   4.924   1.497 -0.2627 -0.0081 -0.2715
   82SOL     ow  325   7.002   1.492   0.435 -0.4871  0.4642 -0.4132
   82SOL     hw  326   6.964   1.532   0.513 -0.8147 -1.3405  0.4092
   82SOL     hw  327   6.973   1.400   0.438  1.3905 -0.2229 -1.4025
   82SOL     vw  328   6.993   1.485   0.445 -0.2828  0.1355 -0.4352
   83SOL     ow  329   6.409   2.974   3.538  0.6416 -0.6121  0.1327
   83SOL     hw  330   6.409   2.884   3.505  1.2012  0.1869 -2.2170
   83SOL     hw  331   6.498   2.987   3.571  1.5926 -0.0004 -2.4428
   83SOL     vw  332   6.421   2.964   3.538  0.8409 -0.4261 -0.5171
   84SOL     ow  333   6.312   3.525   6.232 -0.1815  0.2808 -0.1135
   84SOL     hw  334   6.402   3.492   6.236 -0.2205  0.2876  0.9717
   84SOL     hw  335   6.321   3.618   6.211  0.0068  0.0611 -1.0775
   84SOL     vw  336   6.325   3.533   6.230 -0.1616  0.2527 -0.0975
   85SOL     ow  337   0.847   0.284   2.682  0.3401 -0.5757  1.3285
   85SOL     hw  338   0.822   0.363   2.730  1.5007  0.4319  0.3395
   85SOL     hw  339   0.943   0.282   2.688  0.5051 -0.5291 -0.7315
   85SOL     vw  340   0.856   0.294   2.689  0.5150 -0.4366  0.9263
   86SOL     ow  341   4.314   2.328   0.915  0.8933 -0.3540  0.1323
   86SOL     hw  342   4.349   2.417   0.906  1.5603 -0.3801  2.0293
   86SOL     hw  343   4.391   2.272   0.916  0.5048 -0.9034 -0.4884
   86SOL     vw  344   4.329   2.332   0.914  0.9298 -0.4301  0.3006
   87SOL     ow  345   6.266   5.532   4.491  0.1555 -0.0249  0.9549
   87SOL     hw  346   6.299   5.606   4.440 -0.0217 -0.5271  0.0977
   87SOL     hw  347   6.180   5.561   4.522 -0.9666 -0.7079 -1.3393
   87SOL     vw  348   6.259   5.546   4.489 -0.0157 -0.1812  0.5393
   88SOL     ow  349   4.662   6.350   4.483 -0.8941 -0.1117  0.4967
   88SOL     hw  350   4.704   6.270   4.514  0.2441  1.1658  2.5440
   88SOL     hw  351   4.730   6.395   4.432 -1.1987 -0.0076  0.1827
   88SOL     vw  352   4.677   6.345   4.481 -0.7842  0.0703  0.7255
   89SOL     ow  353   5.841   4.040   1.851 -0.6167  0.3243  0.2989
   89SOL     hw  354   5.918   3.983   1.853 -0.5562  0.3374 -0.8986
   89SOL     hw  355   5.767   3.981   1.865 -0.4210  0.2628  1.1233
   89SOL     vw  356   5.842   4.025   1.853 -0.5829  0.3181  0.2496
   90SOL     ow  357   4.192   6.616   1.688  0.5251 -0.0580 -0.2696
   90SOL     hw  358   4.144   6.545   1.644  0.2741  0.8907 -1.5908
   90SOL     hw  359   4.232   6.574   1.764 -0.2148 -1.4595 -0.6149
   90SOL     vw  360   4.191   6.601   1.692  0.3946 -0.1180 -0.4895
   91SOL     ow  361   4.771   5.620   0.616 -0.4547 -0.2866 -0.8641
   91SOL     hw  362   4.781   5.701   0.667  0.6574 -1.0298  0.1847
   91SOL     hw  363   4.860   5.583   0.615 -0.9848 -1.5815 -1.1498
   91SOL     vw  364   4.784   5.626   0.623 -0.3779 -0.5555 -0.7634
   92SOL     ow  365   5.618   0.418   5.706  0.1532 -0.0138  0.0575
   92SOL     hw  366   5.648   0.474   5.778 -0.5286 -0.1057  0.4223
   92SOL     hw  367   5.601   0.478   5.634 -1.0043  0.3282  0.5871
   92SOL     vw  368   5.619   0.433   5.706 -0.0896  0.0192  0.1755
   93SOL     ow  369   4.569   2.025   5.026  0.2710  0.0536 -0.0346
   93SOL     hw  370   4.570   2.114   5.061  1.8872  0.5416 -1.1869
   93SOL     hw  371   4.483   1.991   5.048 -0.3415  1.8712  0.5320
   93SOL     vw  372   4.558   2.032   5.033  0.4034  0.3579 -0.1118
   94SOL     ow  373   4.624   0.957   4.068 -0.5193  0.4505 -0.4128
   94SOL     hw  374   4.673   0.894   4.015  1.7305  3.2361 -1.9367
   94SOL     hw  375   4.545   0.974   4.016 -0.6931 -0.3746 -0.4402
   94SOL     vw  376   4.620   0.951   4.054 -0.2453  0.7092 -0.6173
   95SOL     ow  377   1.171   2.433   0.969 -0.1263 -0.0900  0.1971
   95SOL     hw  378   1.204   2.482   0.894 -0.3510 -1.6101 -0.9530
   95SOL     hw  379   1.096   2.482   1.000 -1.1220 -0.3227 -1.7157
   95SOL     vw  380   1.166   2.446   0.963 -0.2874 -0.3213 -0.2071
   96SOL     ow  381   0.999   6.115   0.750  0.4532  0.3640 -0.8476
   96SOL     hw  382   1.085   6.073   0.749  1.6274  2.5775  0.0042
   96SOL     hw  383   0.937   6.043   0.741  2.3636 -1.3803 -0.7996
   96SOL     vw  384   1.002   6.100   0.749  0.8602  0.4258 -0.7289
   97SOL     ow  385   3.562   5.919   3.511 -0.3215  0.5111  0.0275
   97SOL     hw  386   3.545   5.844   3.454  2.5724  0.2831 -0.6574
   97SOL     hw  387   3.576   5.881   3.597  0.1968  0.3400 -0.1281
   97SOL     vw  388   3.561   5.904   3.514  0.1289  0.4582 -0.0836
   98SOL     ow  389   4.699   3.223   2.170 -0.0955 -0.3176 -0.0973
   98SOL     hw  390   4.655   3.231   2.254 -0.1768 -0.0926 -0.1616
   98SOL     hw  391   4.758   3.148   2.181  2.1920  1.5273  1.1969
   98SOL     vw  392   4.701   3.214   2.182  0.1955 -0.0445  0.0650
   99SOL     ow  393   2.068   5.453   5.883  0.0318  0.2146  0.5511
   99SOL     hw  394   2.067   5.461   5.787  0.5673  1.6575  0.6407
   99SOL     hw  395   2.052   5.360   5.899  0.7823 -0.2113 -0.9570
   99SOL     vw  396   2.066   5.442   5.872  0.2015  0.3488  0.3641
  100SOL     ow  397   5.151   1.901   1.223 -0.5499  0.3799  0.0302
  100SOL     hw  398   5.059   1.930   1.224 -0.7400  0.1443 -2.7106
  100SOL     hw  399   5.178   1.906   1.314 -3.4898 -0.2079  1.0659
  100SOL     vw  400   5.142   1.906   1.235 -0.9630  0.2712 -0.1948
  101SOL     ow  401   2.085   6.051   3.792  0.5612  0.3142 -0.1314
  101SOL     hw  402   2.153   6.099   3.840 -0.5332  0.5805  1.2160
  101SOL     hw  403   2.095   6.080   3.701  0.1267  2.9406  0.5710
  101SOL     vw  404   2.096   6.061   3.786  0.3594  0.6957  0.1391
  102SOL     ow  405   5.533   0.495   6.731 -0.7794  0.4878 -0.7879
  102SOL     hw  406   5.492   0.538   6.805 -0.5911 -0.5579 -0.0485
  102SOL     hw  407   5.463   0.442   6.692 -0.3607 -0.7049  0.0166
  102SOL     vw  408   5.518   0.494   6.735 -0.6995  0.1925 -0.5839
  103SOL     ow  409   6.069   3.195   5.395  0.0764 -0.2038  0.4757
  103SOL     hw  410   6.145   3.245   5.424 -0.6087  0.8812  0.4548
  103SOL     hw  411   5.997   3.258   5.395 -0.8326 -1.2094  0.4996
  103SOL     vw  412   6.069   3.210   5.398 -0.1340 -0.1932  0.4759
  104SOL     ow  413   0.413   6.499   2.895  0.0763  0.2640 -0.0356
  104SOL     hw  414   0.436   6.454   2.976 -1.2316  0.0254  0.2356
  104SOL     hw  415   0.465   6.456   2.828 -0.1864 -0.8044  0.4125
  104SOL     vw  416   0.423   6.487   2.897 -0.1309  0.0918  0.0592
  105SOL     ow  417   6.263   0.281   4.961  0.2265  0.2860 -0.0374
  105SOL     hw  418   6.353   0.267   4.991 -0.2430 -1.8056  0.5300
  105SOL     hw  419   6.209   0.229   5.021 -1.1397 -0.4235 -1.7895
  105SOL     vw  420   6.268   0.272   4.973 -0.0157 -0.0836 -0.1941
  106SOL     ow  421   5.266   3.891   6.725  0.6778 -0.4395 -0.2118
  106SOL     hw  422   5.307   3.957   6.781 -0.2886  0.3006 -0.3415
  106SOL     hw  423   5.330   3.821   6.719  1.4324  0.1681  0.5361
  106SOL     vw  424   5.280   3.890   6.731  0.6499 -0.2617 -0.1299
  107SOL     ow  425   2.871   6.195   2.450 -0.7916 -0.0742 -0.0336
  107SOL     hw  426   2.891   6.289   2.441 -0.8935 -0.2207 -2.3515
  107SOL     hw  427   2.891   6.158   2.365  0.1311 -2.3843  1.0923
  107SOL     vw  428   2.876   6.203   2.438 -0.6833 -0.3986 -0.1909
  108SOL     ow  429   2.154   5.406   0.115  0.3393 -0.6681 -1.1525
  108SOL     hw  430   2.097   5.433   0.187  1.0557 -2.0347 -0.0199
  108SOL     hw  431   2.102   5.421   0.036 -0.6075  0.5226 -0.3411
  108SOL     vw  432   2.140   5.412   0.114  0.3089 -0.6914 -0.8960
  109SOL     ow  433   2.660   4.906   1.041 -0.7994  0.4686  0.2362
  109SOL     hw  434   2.629   4.854   1.114 -2.0961 -0.2817 -0.8058
  109SOL     hw  435   2.609   4.987   1.045 -1.5535  0.0309 -0.3734
  109SOL     vw  436   2.649   4.910   1.051 -1.0700  0.3116  0.0182
  110SOL     ow  437   0.350   1.659   0.234  0.6042  0.3297 -0.6122
  110SOL     hw  438   0.397   1.640   0.153 -0.1114  1.0234 -1.2055
  110SOL     hw  439   0.385   1.744   0.262  1.3438 -0.2193  0.1949
  110SOL     vw  440   0.361   1.668   0.227  0.6074  0.3487 -0.5840
  111SOL     ow  441   0.594   4.681   4.687  0.1987  0.4505 -0.2682
  111SOL     hw  442   0.597   4.598   4.734 -1.6868  1.1245  1.1805
  111SOL     hw  443   0.670   4.679   4.629  2.2700 -0.7482  2.2903
  111SOL     vw  444   0.605   4.670   4.685  0.2232  0.3815  0.2606
  112SOL     ow  445   6.057   2.890   2.677  0.4085 -0.5316 -0.3181
  112SOL     hw  446   6.004   2.852   2.607  0.9564 -1.7725 -0.0846
  112SOL     hw  447   6.083   2.976   2.643  2.8183 -2.0676 -2.8096
  112SOL     vw  448   6.053   2.896   2.663  0.7989 -0.8980 -0.6162
  113SOL     ow  449   3.457   5.887   4.780  0.3759  0.3544  1.0462
  113SOL     hw  450   3.463   5.956   4.715 -1.8409  0.5102  0.9516
  113SOL     hw  451   3.472   5.932   4.864  0.2626  0.7073  0.8786
  113SOL     vw  452   3.460   5.902   4.783  0.0684  0.4218  1.0116
  114SOL     ow  453   4.209   6.663   4.313  0.6542  0.4808  0.3290
  114SOL     hw  454   4.157   6.600   4.363  0.8773 -2.9779 -3.1982
  114SOL     hw  455   4.290   6.673   4.363 -1.6354  2.9201  3.9730
  114SOL     vw  456   4.213   6.656   4.326  0.3817  0.3462  0.3443
  115SOL     ow  457   1.253   6.308   6.600  0.6921  0.2532  0.2284
  115SOL     hw  458   1.292   6.329   6.685  3.0104 -1.9802 -0.1651
  115SOL     hw  459   1.286   6.375   6.541  2.9035 -0.7519  0.2233
  115SOL     vw  460   1.263   6.319   6.604  1.2897 -0.1743  0.1760
  116SOL     ow  461   1.793   4.567   5.902 -0.2818 -0.5967  0.3077
  116SOL     hw  462   1.871   4.580   5.955  3.0744 -3.0799 -3.4666
  116SOL     hw  463   1.772   4.474   5.910 -0.5287 -0.7426 -1.5370
  116SOL     vw  464   1.800   4.557   5.910  0.1284 -0.9437 -0.4339
  117SOL     ow  465   0.710   0.127   0.541 -0.1796  0.2488  0.8760
  117SOL     hw  466   0.722   0.050   0.597 -2.9984 -0.7479  0.2917
  117SOL     hw  467   0.786   0.182   0.559  1.2281 -2.0078  2.3841
  117SOL     vw  468   0.722   0.124   0.551 -0.3658 -0.1804  0.9979
  118SOL     ow  469   7.084   0.091   0.557  0.0638 -0.6189 -0.0770
  118SOL     hw  470   7.171   0.071   0.524  0.0168 -1.0896  0.0725
  118SOL     hw  471   7.037   0.130   0.483 -0.0609 -1.7054 -0.5843
  118SOL     vw  472   7.089   0.094   0.543  0.0410 -0.8244 -0.1242
  119SOL     ow  473   6.853   2.943   6.425  0.0895 -0.1423 -0.3467
  119SOL     hw  474   6.828   2.975   6.338 -0.2233  0.4152 -0.0606
  119SOL     hw  475   6.813   3.005   6.486 -2.4268 -2.2653  0.3475
  119SOL     vw  476   6.844   2.956   6.422 -0.2840 -0.3488 -0.2174
  120SOL     ow  477   0.130   2.424   0.371 -0.1196 -0.1665  0.5384
  120SOL     hw  478   0.209   2.408   0.422  0.5359 -0.2742 -0.4912
  120SOL     hw  479   0.144   2.377   0.289 -1.1805 -0.0464  0.2754
  120SOL     vw  480   0.142   2.416   0.367 -0.1731 -0.1650  0.3678
  121SOL     ow  481   3.225   2.886   3.420  0.7861  0.0183  0.4697
  121SOL     hw  482   3.281   2.937   3.479 -1.0223  1.4339  1.0798
  121SOL     hw  483   3.199   2.810   3.472  2.3405 -0.8417  0.0605
  121SOL     vw  484   3.229   2.883   3.435  0.7526  0.0917  0.4963
  122SOL     ow  485   6.768   1.943   7.102 -0.5355  0.2827  0.2652
  122SOL     hw  486   6.769   2.032   7.135  0.1051  0.4330 -0.1390
  122SOL     hw  487   6.771   1.888   7.180 -0.4375  0.6172  0.4972
  122SOL     vw  488   6.769   1.947   7.116 -0.4382  0.3468  0.2427
  123SOL     ow  489   5.338   6.753   2.796 -0.0927 -0.5878  0.3529
  123SOL     hw  490   5.387   6.722   2.720 -2.7038  0.4125 -1.9171
  123SOL     hw  491   5.381   6.835   2.821  0.0779 -0.2699 -0.9071
  123SOL     vw  492   5.350   6.760   2.789 -0.4148 -0.4141 -0.1128
  124SOL     ow  493   2.426   6.787   1.383  0.1850  0.2426 -0.5148
  124SOL     hw  494   2.390   6.848   1.448  2.1102  3.5117 -2.2596
  124SOL     hw  495   2.518   6.779   1.407  0.0290 -1.9179 -0.4788
  124SOL     vw  496   2.433   6.794   1.395  0.4185  0.3891 -0.7403
  125SOL     ow  497   5.233   4.593   3.769 -0.2672  0.5045 -1.2748
  125SOL     hw  498   5.249   4.633   3.855 -3.5768  1.0274 -0.7580
  125SOL     hw  499   5.187   4.661   3.720 -1.1251 -0.7909 -2.3442
  125SOL     vw  500   5.229   4.607   3.774 -0.8168  0.4027 -1.3478
  126SOL     ow  501   2.794   5.427   5.358 -0.2988 -0.1625  0.5896
  126SOL     hw  502   2.829   5.438   5.447 -4.6367 -1.6013  2.7347
  126SOL     hw  503   2.759   5.338   5.356 -2.8147  0.7400 -1.5341
  126SOL     vw  504   2.794   5.417   5.370 -1.2031 -0.2332  0.5925
  127SOL     ow  505   1.344   6.170   0.306 -0.1347  0.4426  0.5917
  127SOL     hw  506   1.323   6.088   0.261 -0.7172  1.4025 -0.9719
  127SOL     hw  507   1.435   6.188   0.281  1.0503 -1.1114  3.2615
  127SOL     vw  508   1.353   6.161   0.297 -0.0553  0.3641  0.7377
  128SOL     ow  509   7.031   0.804   2.857 -0.1625 -0.3888 -0.1503
  128SOL     hw  510   7.092   0.875   2.834 -1.5629  0.0382 -3.0676
  128SOL     hw  511   7.048   0.737   2.790 -3.6614  0.3164 -1.9586
  128SOL     vw  512   7.041   0.805   2.845 -0.8090 -0.2394 -0.7738
  129SOL     ow  513   4.757   6.246   2.083  0.5135 -0.5041  0.4486
  129SOL     hw  514   4.670   6.264   2.047  1.0818  1.0591 -0.2073
  129SOL     hw  515   4.742   6.173   2.144 -1.2419 -0.3012  0.3229
  129SOL     vw  516   4.743   6.238   2.087  0.3567 -0.2713  0.3455
  130SOL     ow  517   2.144   5.032   5.157  0.3455  0.0569 -0.6305
  130SOL     hw  518   2.214   5.066   5.101  1.0588 -0.6352 -0.1838
  130SOL     hw  519   2.186   4.963   5.210  0.8094  3.1952  3.6353
  130SOL     vw  520   2.159   5.027   5.157  0.5008  0.3798 -0.0088
  131SOL     ow  521   0.332   4.352   3.354  0.1729  0.7031 -0.6221
  131SOL     hw  522   0.307   4.293   3.426 -0.6847  1.5960 -0.1648
  131SOL     hw  523   0.251   4.398   3.332  1.2923  3.6192  0.7879
  131SOL     vw  524   0.318   4.350   3.361  0.2075  1.2057 -0.3756
  132SOL     ow  525   2.664   1.990   4.724  0.3711 -0.2855 -0.0126
  132SOL     hw  526   2.666   1.895   4.720 -2.6564 -0.4015 -1.9122
  132SOL     hw  527   2.716   2.019   4.649  0.6067 -0.4468  0.0868
  132SOL     vw  528   2.671   1.981   4.714  0.0029 -0.3222 -0.2501
  133SOL     ow  529   1.542   4.049   4.313 -0.3658 -0.4972  0.0197
  133SOL     hw  530   1.535   4.121   4.375 -0.3037  1.3348 -1.9649
  133SOL     hw  531   1.604   3.989   4.353 -0.0989  0.7540  1.5911
  133SOL     vw  532   1.549   4.051   4.326 -0.3224 -0.0901 -0.0350
  134SOL     ow  533   7.099   4.399   1.612  0.2337  0.1080 -0.2951
  134SOL     hw  534   7.179   4.347   1.613  0.2928 -0.0138  3.6242
  134SOL     hw  535   7.126   4.485   1.645 -0.9981  0.4530 -0.1379
  134SOL     vw  536   7.113   4.404   1.617  0.0789  0.1371  0.2428
  135SOL     ow  537   3.130   6.190   6.094 -0.0492 -0.4527 -0.2199
  135SOL     hw  538   3.168   6.171   6.008 -0.4868 -1.8475 -0.1162
  135SOL     hw  539   3.205   6.198   6.152  0.1902 -0.8669 -0.4680
  135SOL     vw  540   3.145   6.189   6.090 -0.0753 -0.6914 -0.2389
  136SOL     ow  541   5.267   1.667   1.013  0.3162 -0.1767 -0.7360
  136SOL     hw  542   5.207   1.611   1.061 -1.0828  1.2977 -0.6708
  136SOL     hw  543   5.278   1.624   0.928 -0.6593 -0.5996 -0.6599
  136SOL     vw  544   5.261   1.654   1.008  0.0031 -0.0379 -0.7173
  137SOL     ow  545   3.269   3.440   4.758  0.3197 -0.0186  0.1051
  137SOL     hw  546   3.322   3.519   4.757  1.5649 -0.8196 -0.7049
  137SOL     hw  547   3.189   3.463   4.712  1.2832  0.3981 -1.4179
  137SOL     vw  548   3.266   3.453   4.752  0.6111 -0.0694 -0.2024
  138SOL     ow  549   3.449   1.475   2.432  0.1930 -0.6504  0.1120
  138SOL     hw  550   3.362   1.440   2.410 -0.1337 -0.9930  1.8128
  138SOL     hw  551   3.451   1.476   2.527  2.9649 -2.9658  0.2270
  138SOL     vw  552   3.438   1.471   2.441  0.5156 -1.0011  0.3515
  139SOL     ow  553   0.141   5.142   6.121  0.0846  0.1060  0.1078
  139SOL     hw  554   0.195   5.077   6.077  0.3268  0.6261 -0.3867
  139SOL     hw  555   0.086   5.179   6.051  0.4348  0.9032  0.2414
  139SOL     vw  556   0.141   5.139   6.106  0.1628  0.2799  0.0606
  140SOL     ow  557   0.549   3.854   0.316  0.1762 -0.3766 -0.3294
  140SOL     hw  558   0.530   3.929   0.260  0.4047 -0.0113  0.0776
  140SOL     hw  559   0.615   3.886   0.377  1.6470 -1.4162 -1.2996
  140SOL     vw  560   0.556   3.868   0.317  0.4004 -0.4656 -0.4037
  141SOL     ow  561   2.333   2.899   6.156 -0.0054 -0.3247  0.3019
  141SOL     hw  562   2.284   2.825   6.192 -0.1322  0.3567  1.5842
  141SOL     hw  563   2.284   2.924   6.078  0.3959 -1.9809 -0.5181
  141SOL     vw  564   2.320   2.893   6.151  0.0310 -0.4532  0.3629
  142SOL     ow  565   3.827   6.927   0.657 -0.3832 -0.7853 -0.2797
  142SOL     hw  566   3.767   6.890   0.721  1.5078  0.0510  2.1381
  142SOL     hw  567   3.779   7.000   0.618 -1.8500 -1.7973 -0.4540
  142SOL     vw  568   3.813   6.932   0.660 -0.3273 -0.8085  0.0163
  143SOL     ow  569   7.082   1.305   1.543  0.1681  0.2609 -0.0936
  143SOL     hw  570   7.049   1.269   1.461  0.5539  1.1700 -0.6661
  143SOL     hw  571   7.154   1.247   1.567  1.5103  1.2145 -1.5905
  143SOL     vw  572   7.087   1.293   1.535  0.3960  0.5066 -0.3666
  144SOL     ow  573   3.170   1.506   3.867 -0.7331  0.4742  0.3452
  144SOL     hw  574   3.258   1.469   3.860 -0.8264  0.3776 -0.4262
  144SOL     hw  575   3.169   1.551   3.952 -0.1102  0.0424  0.5854
  144SOL     vw  576   3.181   1.507   3.878 -0.6632  0.4044  0.2750
  145SOL     ow  577   0.978   4.043   1.353 -0.0910  0.3136 -0.2087
  145SOL     hw  578   0.982   3.948   1.340 -3.0046  0.1863 -0.7669
  145SOL     hw  579   0.931   4.054   1.436  0.2888  1.2754 -0.1109
  145SOL     vw  580   0.972   4.032   1.362 -0.4253  0.4237 -0.2695
  146SOL     ow  581   0.172   1.042   6.810  0.1718  0.6618 -0.1182
  146SOL     hw  582   0.092   1.052   6.759 -1.0528  0.0346  1.6082
  146SOL     hw  583   0.143   1.010   6.895  2.2849  0.1900  0.4857
  146SOL     vw  584   0.158   1.039   6.815  0.2890  0.5169  0.1893
  147SOL     ow  585   1.121   1.274   4.827 -0.6378  0.0826  0.1176
  147SOL     hw  586   1.125   1.351   4.883 -1.7161  0.0886  0.2114
  147SOL     hw  587   1.200   1.278   4.774 -0.7748  1.3635 -0.0245
  147SOL     vw  588   1.132   1.284   4.827 -0.7981  0.2525  0.1113
  148SOL     ow  589   2.366   5.013   3.186 -0.1365 -0.6240  0.3091
  148SOL     hw  590   2.458   5.028   3.208 -0.1449  0.8846 -0.5521
  148SOL     hw  591   2.332   5.100   3.164 -1.1497 -1.4665 -1.6898
  148SOL     vw  592   2.373   5.027   3.186 -0.2713 -0.5362 -0.0683
  149SOL     ow  593   5.726   6.062   6.968  0.1022  0.1213 -0.3606
  149SOL     hw  594   5.747   5.969   6.965 -0.8591 -0.1456  0.5265
  149SOL     hw  595   5.805   6.103   7.001  0.6175 -0.3443 -0.9889
  149SOL     vw  596   5.739   6.055   6.972  0.0436  0.0250 -0.3266
  150SOL     ow  597   3.755   3.608   0.740 -0.2938  0.5297 -0.1441
  150SOL     hw  598   3.727   3.549   0.669 -0.5071 -0.2576  0.5770
  150SOL     hw  599   3.809   3.553   0.797  0.7349  1.4239 -0.2293
  150SOL     vw  600   3.758   3.593   0.738 -0.1862  0.5440 -0.0602
  151SOL     ow  601   3.279   1.988   6.285 -0.1741 -0.1290  0.0090
  151SOL     hw  602   3.249   2.078   6.294  0.6506  0.1795 -0.2950
  151SOL     hw  603   3.214   1.947   6.228  0.6008  0.8471 -1.6319
  151SOL     vw  604   3.266   1.994   6.279  0.0371  0.0405 -0.2475
  152SOL     ow  605   5.273   6.294   5.808  0.0501  0.2819 -0.2007
  152SOL     hw  606   5.309   6.253   5.729  1.1100  0.9315 -0.0717
  152SOL     hw  607   5.180   6.270   5.807  0.1105  0.0366 -1.4814
  152SOL     vw  608   5.265   6.285   5.798  0.1981  0.3355 -0.3526
  153SOL     ow  609   5.543   6.204   6.746 -0.0050 -1.0384 -0.0852
  153SOL     hw  610   5.465   6.183   6.694  0.2926  1.1273 -1.5220
  153SOL     hw  611   5.616   6.181   6.689  0.3292  1.3132 -0.6818
  153SOL     vw  612   5.542   6.198   6.731  0.0784 -0.4427 -0.3536
  154SOL     ow  613   0.073   5.552   1.154 -0.4351  0.1431  0.5571
  154SOL     hw  614   0.065   5.647   1.159 -2.0802  0.1458 -1.0118
  154SOL     hw  615   0.044   5.530   1.065  2.4311 -1.6319 -0.0723
  154SOL     vw  616   0.068   5.561   1.143 -0.2740 -0.0906  0.2670
  155SOL     ow  617   6.184   3.592   1.626  0.2038 -0.7582  0.1326
  155SOL     hw  618   6.103   3.559   1.663  0.0525  1.2990  1.8267
  155SOL     hw  619   6.164   3.681   1.598  1.6646 -0.4888 -0.1681
  155SOL     vw  620   6.171   3.599   1.627  0.3767 -0.4512  0.3164
  156SOL     ow  621   0.592   2.535   2.795  0.3408  0.1027 -0.0330
  156SOL     hw  622   0.509   2.583   2.796  0.7781  1.1342 -2.6131
  156SOL     hw  623   0.570   2.447   2.826 -2.0872 -0.0927 -1.9752
  156SOL     vw  624   0.578   2.530   2.799  0.0781  0.2133 -0.6297
  157SOL     ow  625   4.216   4.782   6.752 -0.2462 -0.1979  0.7905
  157SOL     hw  626   4.289   4.820   6.800 -0.2295 -2.3889  2.6121
  157SOL     hw  627   4.169   4.858   6.716  2.9480  1.2699 -0.6381
  157SOL     vw  628   4.219   4.797   6.753  0.1774 -0.2933  0.8423
  158SOL     ow  629   2.505   4.983   6.396 -0.0968 -0.8417  0.1933
  158SOL     hw  630   2.445   4.920   6.437 -0.3646 -0.7798 -0.1009
  158SOL     hw  631   2.586   4.935   6.384 -0.5737 -1.4026 -0.8473
  158SOL     vw  632   2.508   4.969   6.400 -0.1949 -0.9077  0.0174
  159SOL     ow  633   3.019   1.925   5.504  0.2078 -0.9146  0.2593
  159SOL     hw  634   2.925   1.926   5.487  0.1447 -0.3415  0.6037
  159SOL     hw  635   3.037   2.010   5.544  1.2148 -0.2367 -1.5350
  159SOL     vw  636   3.009   1.936   5.507  0.3324 -0.7495  0.0682
  160SOL     ow  637   5.975   1.669   5.115  0.4752  0.3985 -0.4109
  160SOL     hw  638   5.912   1.597   5.109  0.1541  0.6522 -0.1203
  160SOL     hw  639   5.923   1.744   5.144  1.0644  0.4120  0.6630
  160SOL     vw  640   5.959   1.670   5.118  0.5107  0.4338 -0.2308
  161SOL     ow  641   2.460   1.887   7.089 -0.2779 -0.9288  0.0089
  161SOL     hw  642   2.456   1.944   7.166  0.0033  1.7901 -1.8559
  161SOL     hw  643   2.396   1.925   7.028  1.4768 -1.2687 -2.1456
  161SOL     vw  644   2.451   1.899   7.091 -0.0093 -0.6149 -0.5217
  162SOL     ow  645   5.866   6.922   1.392 -0.3181  0.1012  0.1208
  162SOL     hw  646   5.851   6.993   1.453  0.7598 -0.0758  0.6113
  162SOL     hw  647   5.960   6.922   1.377 -0.3092 -1.1654  0.0629
  162SOL     vw  648   5.876   6.931   1.398 -0.1745 -0.0892  0.1779
  163SOL     ow  649   4.515   1.378   3.903  0.3003 -0.0118  0.4979
  163SOL     hw  650   4.561   1.339   3.977  0.6188 -0.0409  0.2841
  163SOL     hw  651   4.447   1.314   3.881  1.7887 -1.2101 -0.8422
  163SOL     vw  652   4.512   1.364   3.910  0.5386 -0.1737  0.2929
  164SOL     ow  653   2.975   3.241   6.883 -0.3332 -0.3171 -0.3918
  164SOL     hw  654   2.952   3.324   6.841 -0.6396 -0.3749 -0.3431
  164SOL     hw  655   3.067   3.228   6.862  0.2941  1.0596  1.3303
  164SOL     vw  656   2.984   3.250   6.875 -0.2909 -0.1431 -0.1581
  165SOL     ow  657   3.157   5.670   3.527  0.4203  0.6275  0.2954
  165SOL     hw  658   3.184   5.596   3.581 -1.3949 -0.0907  0.2803
  165SOL     hw  659   3.140   5.740   3.589  0.1821  0.3986  0.4887
  165SOL     vw  660   3.159   5.669   3.542  0.1494  0.5021  0.3190
  166SOL     ow  661   4.115   5.930   6.837 -0.4360 -0.3180  0.4234
  166SOL     hw  662   4.134   5.838   6.816  0.0117 -0.2216  0.4018
  166SOL     hw  663   4.196   5.976   6.818  0.3566 -0.3584  3.2894
  166SOL     vw  664   4.128   5.924   6.831 -0.2725 -0.3107  0.7987
  167SOL     ow  665   6.585   4.372   2.448 -0.7987  0.1790  0.4419
  167SOL     hw  666   6.520   4.415   2.504 -3.3742 -2.0224 -0.6054
  167SOL     hw  667   6.557   4.392   2.359 -0.6349 -1.5479 -0.0421
  167SOL     vw  668   6.572   4.380   2.444 -1.1172 -0.3393  0.2400
  168SOL     ow  669   6.909   1.997   4.817  0.9453 -0.4932 -0.0383
  168SOL     hw  670   6.999   2.019   4.789  1.1273 -1.9480 -0.6903
  168SOL     hw  671   6.869   1.959   4.739  0.2087 -1.1545  0.6493
  168SOL     vw  672   6.916   1.995   4.803  0.8721 -0.7724 -0.0336
  169SOL     ow  673   2.077   2.080   3.010 -0.1229  0.1964  0.2387
  169SOL     hw  674   2.089   2.170   3.042 -0.0688 -0.5064  2.3376
  169SOL     hw  675   2.046   2.031   3.086  0.3163 -1.6891 -0.7276
  169SOL     vw  676   2.075   2.086   3.024 -0.0578 -0.1451  0.3881
  170SOL     ow  677   3.001   2.014   7.048  0.5562 -0.3263  0.5030
  170SOL     hw  678   2.957   2.099   7.056 -0.9290 -0.8400 -1.5174
  170SOL     hw  679   3.094   2.035   7.060  0.0960  1.3186  1.5837
  170SOL     vw  680   3.007   2.028   7.051  0.2996 -0.1770  0.3791
  171SOL     ow  681   0.041   2.584   4.082  0.1744  0.0620  0.0656
  171SOL     hw  682   0.005   2.563   4.168  0.4006 -1.4642 -0.1776
  171SOL     hw  683   0.009   2.513   4.025  1.1224  0.3083 -0.8042
  171SOL     vw  684   0.032   2.572   4.086  0.3293 -0.1070 -0.0811
  172SOL     ow  685   4.192   0.409   0.196 -0.1232 -0.1538 -0.9241
  172SOL     hw  686   4.234   0.420   0.281  0.3280  1.1288 -1.2855
  172SOL     hw  687   4.132   0.336   0.208  0.6846 -0.6623  0.1966
  172SOL     vw  688   4.190   0.401   0.209  0.0432 -0.0516 -0.8239
  173SOL     ow  689   1.041   1.280   2.097 -0.3116 -0.5303 -0.2000
  173SOL     hw  690   1.035   1.272   2.192 -1.1859 -0.6806 -0.2518
  173SOL     hw  691   0.963   1.331   2.073  0.4060  0.3345 -0.7469
  173SOL     vw  692   1.030   1.286   2.106 -0.3322 -0.4361 -0.2791
  174SOL     ow  693   5.378   1.348   2.173 -0.0864  1.2485 -0.1243
  174SOL     hw  694   5.421   1.281   2.226 -1.1159 -0.6395 -1.5200
  174SOL     hw  695   5.310   1.385   2.229  0.5013  1.1367  0.6708
  174SOL     vw  696   5.375   1.344   2.187 -0.1447  0.9847 -0.2036
  175SOL     ow  697   3.664   6.572   2.236 -0.2019  0.5153  0.1448
  175SOL     hw  698   3.608   6.553   2.311  0.7649 -3.1991  0.1283
  175SOL     hw  699   3.616   6.537   2.161  0.4298  0.8278 -0.4191
  175SOL     vw  700   3.651   6.565   2.236  0.0089  0.0663  0.0682
  176SOL     ow  701   6.701   6.240   3.647 -0.5705  0.3787 -0.0583
  176SOL     hw  702   6.737   6.206   3.728 -2.0342  1.0340  0.9171
  176SOL     hw  703   6.656   6.166   3.607 -0.2600  0.1734 -0.0243
  176SOL     vw  704   6.700   6.226   3.652 -0.7224  0.4382  0.0750
  177SOL     ow  705   1.707   7.013   2.314  0.1311 -0.4979  0.1246
  177SOL     hw  706   1.697   7.078   2.383  0.3092 -0.7875  0.4268
  177SOL     hw  707   1.631   7.025   2.258  1.1466  1.3283 -0.9659
  177SOL     vw  708   1.696   7.023   2.316  0.2886 -0.2949  0.0207
  178SOL     ow  709   5.910   3.761   6.699 -0.0652  0.1413  0.5831
  178SOL     hw  710   5.846   3.690   6.690 -1.5352  1.0333  2.8955
  178SOL     hw  711   5.983   3.721   6.746  0.4185 -0.5117 -0.6926
  178SOL     vw  712   5.911   3.746   6.704 -0.1955  0.1731  0.7200
  179SOL     ow  713   4.342   2.232   0.646  0.4840 -0.0489  0.7433
  179SOL     hw  714   4.417   2.228   0.705  0.0731 -1.5028  1.2129
  179SOL     hw  715   4.326   2.141   0.622 -0.9760  0.2586  0.4622
  179SOL     vw  716   4.350   2.219   0.651  0.2372 -0.2002  0.7682
  180SOL     ow  717   2.113   6.464   5.791  0.6682  0.7512  0.0123
  180SOL     hw  718   2.198   6.460   5.746  0.3526 -1.9273 -0.5126
  180SOL     hw  719   2.071   6.381   5.769 -0.6068  0.4302  3.1634
  180SOL     vw  720   2.119   6.452   5.782  0.4584  0.3555  0.3588
  181SOL     ow  721   2.437   0.553   3.921 -0.2591  0.0348 -0.1439
  181SOL     hw  722   2.428   0.495   3.846 -0.3137  2.8968 -2.5358
  181SOL     hw  723   2.517   0.523   3.965  0.4992 -0.9668 -2.0809
  181SOL     vw  724   2.447   0.541   3.917 -0.1663  0.2802 -0.7149
  182SOL     ow  725   3.922   5.139   5.651  0.1676 -0.7140  0.1776
  182SOL     hw  726   3.939   5.147   5.557 -0.2094  2.4575  0.2551
  182SOL     hw  727   4.008   5.126   5.690  0.4856 -0.7430 -0.5208
  182SOL     vw  728   3.935   5.138   5.644  0.1599 -0.2995  0.0956
  183SOL     ow  729   0.555   0.028   0.934 -0.3352  0.1345  0.5711
  183SOL     hw  730   0.590   0.057   1.018 -1.1997 -1.9788  1.7347
  183SOL     hw  731   0.632   0.005   0.882  0.1684 -1.2211  1.8522
  183SOL     vw  732   0.569   0.029   0.938 -0.3828 -0.3232  0.8937
  184SOL     ow  733   2.113   1.376   4.273  0.0207  0.8261 -0.2938
  184SOL     hw  734   2.023   1.359   4.299 -0.1401 -0.2542 -1.4811
  184SOL     hw  735   2.166   1.344   4.345 -0.4405 -1.4877 -0.9140
  184SOL     vw  736   2.108   1.370   4.286 -0.0614  0.3783 -0.5324
  185SOL     ow  737   0.331   3.713   0.457 -0.1396 -0.5097  0.7559
  185SOL     hw  738   0.236   3.707   0.463 -0.1342  0.5503  2.5195
  185SOL     hw  739   0.357   3.763   0.534  2.0148 -2.3462  1.3446
  185SOL     vw  740   0.322   3.719   0.468  0.1454 -0.6123  1.0663
  186SOL     ow  741   2.711   5.804   0.013  0.4476  0.0566 -0.4568
  186SOL     hw  742   2.658   5.855  -0.048  1.2133 -1.2715 -2.3259
  186SOL     hw  743   2.702   5.713  -0.016 -0.2754 -0.8711  2.3096
  186SOL     vw  744   2.703   5.799   0.001  0.4531 -0.2410 -0.3384
  187SOL     ow  745   0.114   7.092   6.724 -0.6093 -0.7608  0.2104
  187SOL     hw  746   0.190   7.100   6.781 -0.2693 -1.2683 -0.1692
  187SOL     hw  747   0.041   7.124   6.777 -0.2208 -0.7971  0.7710
  187SOL     vw  748   0.114   7.097   6.739 -0.5131 -0.8326  0.2344
  188SOL     ow  749   3.617   6.078   2.412 -0.4111 -0.2036 -0.0309
  188SOL     hw  750   3.585   6.126   2.336 -2.4793 -2.1970 -0.5372
  188SOL     hw  751   3.656   6.144   2.469 -0.8239  1.6472 -1.8164
  188SOL     vw  752   3.618   6.093   2.410 -0.7385 -0.2222 -0.3332
  189SOL     ow  753   0.997   1.799   0.779  0.1753 -0.5798  0.2165
  189SOL     hw  754   1.088   1.824   0.794  0.0002 -0.3607  0.9244
  189SOL     hw  755   0.991   1.789   0.684  0.6053  0.7575  0.0184
  189SOL     vw  756   1.008   1.801   0.768  0.2090 -0.3745  0.2837
  190SOL     ow  757   7.073   2.013   2.561  0.5001 -0.4117 -0.2340
  190SOL     hw  758   7.027   1.959   2.625 -0.6125  1.5803  0.7602
  190SOL     hw  759   7.003   2.054   2.510  1.2322  1.1302 -0.0388
  190SOL     vw  760   7.058   2.011   2.563  0.4499  0.0546 -0.0770
  191SOL     ow  761   2.985   4.000   5.797  0.8420  0.3799  0.3236
  191SOL     hw  762   3.025   4.053   5.866  1.6596  1.3083 -0.7995
  191SOL     hw  763   3.057   3.945   5.765  0.7152  0.6125 -0.3767
  191SOL     vw  764   3.000   4.000   5.802  0.9333  0.5330  0.0832
  192SOL     ow  765   2.722   3.278   7.088  0.9838  0.5713  0.0010
  192SOL     hw  766   2.630   3.256   7.080  0.8975  1.0958 -0.5507
  192SOL     hw  767   2.727   3.333   7.166  1.3536 -2.1066  1.9775
  192SOL     vw  768   2.711   3.282   7.097  1.0211  0.2872  0.1891
  193SOL     ow  769   5.001   1.850   4.367 -0.1902 -0.5824  0.1011
  193SOL     hw  770   4.909   1.868   4.348  0.0031  1.0910  0.5346
  193SOL     hw  771   5.029   1.924   4.421  0.6845 -2.4485  2.4151
  193SOL     vw  772   4.993   1.862   4.372 -0.0496 -0.6078  0.4635
  194SOL     ow  773   1.632   4.728   6.609  0.1250  0.2181 -0.0491
  194SOL     hw  774   1.659   4.644   6.647 -0.2754 -0.4483 -1.2071
  194SOL     hw  775   1.608   4.782   6.685  1.5330 -0.2844  0.7914
  194SOL     vw  776   1.632   4.724   6.624  0.2580  0.0639 -0.0908
  195SOL     ow  777   2.183   2.792   6.762 -0.3894  0.4678  0.3917
  195SOL     hw  778   2.111   2.841   6.722 -0.7609  0.7570  1.3953
  195SOL     hw  779   2.197   2.718   6.703 -4.4689 -2.1444  2.3014
  195SOL     vw  780   2.175   2.789   6.749 -0.9767  0.1614  0.7761
  196SOL     ow  781   5.988   4.190   2.075  0.4172  0.2095 -0.0643
  196SOL     hw  782   5.990   4.275   2.119  0.3488  1.1283 -1.7498
  196SOL     hw  783   6.009   4.127   2.144 -0.7065  1.4578  1.5064
  196SOL     vw  784   5.991   4.193   2.090  0.2599  0.4954 -0.0795
  197SOL     ow  785   2.433   6.086   1.969 -0.2288  0.4972  0.4563
  197SOL     hw  786   2.391   6.172   1.971  2.3703  1.8757  2.7283
  197SOL     hw  787   2.462   6.076   1.878  0.4930  2.6592  0.3828
  197SOL     vw  788   2.432   6.096   1.957  0.2095  0.9644  0.7463
  198SOL     ow  789   1.599   6.884   6.642 -0.0198 -0.2049  0.2985
  198SOL     hw  790   1.513   6.908   6.607  1.5783  1.8081 -2.7799
  198SOL     hw  791   1.610   6.792   6.618 -1.2665 -0.4753  0.6913
  198SOL     vw  792   1.589   6.875   6.634  0.0266  0.0250 -0.0560
  199SOL     ow  793   0.712   1.886   2.912 -0.4831  0.1120 -0.4492
  199SOL     hw  794   0.725   1.812   2.972  0.7374  0.3070 -0.4525
  199SOL     hw  795   0.776   1.873   2.843  1.3467  2.3085  0.6839
  199SOL     vw  796   0.722   1.875   2.911 -0.0807  0.4276 -0.3003
  200SOL     ow  797   2.066   6.375   0.310  0.4568  0.8058 -0.3216
  200SOL     hw  798   2.105   6.323   0.380  1.7731  0.9855 -0.8937
  200SOL     hw  799   1.972   6.368   0.324  0.4744 -2.8047 -1.0928
  200SOL     vw  800   2.059   6.367   0.321  0.6328  0.3531 -0.4988
  201SOL     ow  801   1.583   5.972   2.947  0.5343  0.3135 -0.4516
  201SOL     hw  802   1.606   5.914   2.875 -2.1833  2.1809 -3.1172
  201SOL     hw  803   1.530   6.040   2.906 -3.6067  0.0821  3.6758
  201SOL     vw  804   1.579   5.973   2.932 -0.3706  0.5291 -0.2587
  202SOL     ow  805   3.815   5.723   5.039  0.4914 -0.2830  0.3517
  202SOL     hw  806   3.888   5.784   5.047 -0.3019  1.2871 -2.6688
  202SOL     hw  807   3.759   5.741   5.114  2.0068  0.1501  1.4170
  202SOL     vw  808   3.817   5.733   5.050  0.5867 -0.0191  0.0935
  203SOL     ow  809   3.162   7.110   2.263 -0.2416 -1.0324 -0.9797
  203SOL     hw  810   3.156   7.064   2.347 -1.5834  0.9290  0.0872
  203SOL     hw  811   3.249   7.149   2.263 -0.1875 -1.1448 -0.5688
  203SOL     vw  812   3.172   7.109   2.274 -0.4115 -0.7885 -0.7848
  204SOL     ow  813   2.993   5.025   4.370 -0.7251 -0.2420 -0.5294
  204SOL     hw  814   2.976   5.088   4.440  0.6947 -0.4141  0.0185
  204SOL     hw  815   3.079   4.988   4.392  0.3099  0.4910 -2.9209
  204SOL     vw  816   3.002   5.028   4.382 -0.4010 -0.1678 -0.7727
  205SOL     ow  817   0.753   0.907   3.623  0.2968 -0.6506 -0.2227
  205SOL     hw  818   0.824   0.939   3.567  0.8254 -0.3776  0.5980
  205SOL     hw  819   0.792   0.836   3.674 -0.4821 -1.6630 -0.9729
  205SOL     vw  820   0.768   0.902   3.622  0.2638 -0.7482 -0.2134
  206SOL     ow  821   3.709   4.578   3.560  0.1328  0.2053  0.0229
  206SOL     hw  822   3.787   4.619   3.597 -0.2070  1.2504 -0.3658
  206SOL     hw  823   3.710   4.489   3.593  0.3303  0.8290  1.7867
  206SOL     vw  824   3.720   4.572   3.569  0.1140  0.4253  0.2043
  207SOL     ow  825   5.561   2.519   7.110  0.1941 -0.4840 -0.6946
  207SOL     hw  826   5.653   2.498   7.094  0.7728  0.0202  1.5902
  207SOL     hw  827   5.557   2.538   7.204 -2.2501 -0.4538 -0.7508
  207SOL     vw  828   5.573   2.519   7.120 -0.0522 -0.4134 -0.4005
  208SOL     ow  829   1.196   5.238   6.591 -0.4908 -0.1659  0.2367
  208SOL     hw  830   1.267   5.234   6.654 -0.7710 -1.5795  0.4929
  208SOL     hw  831   1.127   5.287   6.635 -0.5700 -0.8824  0.9244
  208SOL     vw  832   1.196   5.244   6.605 -0.5382 -0.4470  0.3610
  209SOL     ow  833   0.821   2.604   3.912 -0.5830  0.6434 -0.7459
  209SOL     hw  834   0.774   2.534   3.957  0.1410  0.4596 -0.2556
  209SOL     hw  835   0.835   2.571   3.824  0.0731  0.0099 -0.4159
  209SOL     vw  836   0.817   2.590   3.907 -0.4009  0.5355 -0.6378
  210SOL     ow  837   7.127   2.090   5.681  0.6535 -0.0551 -0.5497
  210SOL     hw  838   7.047   2.076   5.731  0.2413 -1.5574 -1.5728
  210SOL     hw  839   7.164   2.170   5.718 -1.5276  0.9258 -0.3209
  210SOL     vw  840   7.121   2.099   5.692  0.3116 -0.1239 -0.6545
  211SOL     ow  841   5.203   4.113   0.421 -0.7882  0.3490 -0.3791
  211SOL     hw  842   5.125   4.082   0.375 -2.6903  1.9659  1.5905
  211SOL     hw  843   5.220   4.047   0.488 -2.0508  1.1919  0.8205
  211SOL     vw  844   5.195   4.100   0.424 -1.2057  0.6733  0.0390
  212SOL     ow  845   5.284   2.294   4.014  0.7113  0.4939 -0.0031
  212SOL     hw  846   5.292   2.309   3.920 -0.0391 -1.4579 -0.4439
  212SOL     hw  847   5.257   2.378   4.050 -1.2409  0.7670 -1.8826
  212SOL     vw  848   5.281   2.307   4.007  0.3545  0.2724 -0.3092
  213SOL     ow  849   6.039   2.403   5.890 -0.0606  0.6579  0.0988
  213SOL     hw  850   6.113   2.387   5.832 -0.7958  0.5269 -0.8257
  213SOL     hw  851   6.007   2.489   5.864 -0.5257  0.5043  0.1508
  213SOL     vw  852   6.045   2.412   5.879 -0.2191  0.6204 -0.0162
  214SOL     ow  853   1.306   0.635   2.028 -0.7842 -0.2591 -0.1236
  214SOL     hw  854   1.242   0.644   1.958 -0.8824 -0.6743 -0.0890
  214SOL     hw  855   1.257   0.594   2.100 -1.1428  1.6871  0.8150
  214SOL     vw  856   1.291   0.631   2.028 -0.8445 -0.0571  0.0046
  215SOL     ow  857   3.631   0.884   4.311 -0.0413  0.3647 -0.1515
  215SOL     hw  858   3.624   0.899   4.405 -0.9604 -1.2748  0.0758
  215SOL     hw  859   3.720   0.851   4.298  0.1754  0.8415  0.0856
  215SOL     vw  860   3.642   0.882   4.321 -0.1340  0.2113 -0.0901
  216SOL     ow  861   2.728   0.802   5.959 -0.2448  0.1702  0.4213
  216SOL     hw  862   2.639   0.783   5.990  0.0419  0.3274  1.3752
  216SOL     hw  863   2.783   0.788   6.036  0.4922  0.6277 -0.0186
  216SOL     vw  864   2.723   0.797   5.974 -0.1097  0.2513  0.4888
  217SOL     ow  865   2.547   6.090   2.247 -0.0424 -0.0224  0.3156
  217SOL     hw  866   2.532   6.185   2.246  1.9495  0.4669  3.6837
  217SOL     hw  867   2.642   6.081   2.237 -0.3017 -1.8090 -1.1035
  217SOL     vw  868   2.557   6.102   2.245  0.1862 -0.1938  0.5727
  218SOL     ow  869   1.384   3.272   0.977 -0.2557  1.0193  0.2997
  218SOL     hw  870   1.334   3.352   0.966  1.0060  1.6903 -0.8623
  218SOL     hw  871   1.430   3.260   0.894  0.5232 -0.2450  0.8717
  218SOL     vw  872   1.383   3.281   0.965  0.0135  0.9409  0.2218
  219SOL     ow  873   1.616   0.283   2.872 -0.8344  0.2048  0.0810
  219SOL     hw  874   1.611   0.188   2.864  2.5221  0.0698 -2.9432
  219SOL     hw  875   1.527   0.314   2.853 -1.3458 -2.2480 -2.0093
  219SOL     vw  876   1.603   0.275   2.868 -0.4590 -0.1366 -0.5938
  220SOL     ow  877   3.951   1.997   2.682 -0.4222  0.8088 -0.0172
  220SOL     hw  878   3.949   1.915   2.634  1.0711  1.4215 -1.1746
  220SOL     hw  879   3.858   2.016   2.700 -0.8727 -0.4417 -0.8921
  220SOL     vw  880   3.938   1.989   2.678 -0.2848  0.7246 -0.2855
  221SOL     ow  881   0.288   4.251   6.542  0.2654  0.1219  0.2654
  221SOL     hw  882   0.264   4.170   6.588  0.4816 -1.3226 -2.0292
  221SOL     hw  883   0.209   4.304   6.545 -1.4148 -2.0017 -1.8267
  221SOL     vw  884   0.274   4.247   6.549  0.0723 -0.3488 -0.3133
  222SOL     ow  885   5.655   6.700   6.827 -0.5798 -0.7556  0.9849
  222SOL     hw  886   5.597   6.775   6.811 -0.8181 -1.2137 -0.3751
  222SOL     hw  887   5.627   6.634   6.764  1.0034 -1.2240  0.7432
  222SOL     vw  888   5.644   6.701   6.816 -0.4025 -0.8779  0.7734
  223SOL     ow  889   4.087   4.949   3.934 -0.1633 -0.2845 -0.1895
  223SOL     hw  890   4.104   4.866   3.888 -2.3968  0.1216 -1.9075
  223SOL     hw  891   4.013   4.987   3.887 -0.4695  1.7536  1.8198
  223SOL     vw  892   4.079   4.943   3.922 -0.4981  0.0381 -0.1512
  224SOL     ow  893   3.779   3.826   0.439  0.5785  0.5835 -0.4953
  224SOL     hw  894   3.712   3.761   0.419  0.4388 -0.2286  2.1980
  224SOL     hw  895   3.735   3.910   0.432 -0.1602  0.1807 -0.7260
  224SOL     vw  896   3.765   3.828   0.435  0.4625  0.4232 -0.1704
  225SOL     ow  897   2.124   5.727   3.823 -0.5588 -0.2429 -0.4494
  225SOL     hw  898   2.112   5.644   3.869  0.7118  0.4116  1.1627
  225SOL     hw  899   2.201   5.713   3.768 -0.6767 -0.2998 -0.6005
  225SOL     vw  900   2.133   5.714   3.822 -0.4066 -0.1638 -0.2567
  226SOL     ow  901   6.481   6.503   3.795 -0.3562 -0.2854  0.2974
  226SOL     hw  902   6.492   6.432   3.858 -1.2885 -0.5309  0.1959
  226SOL     hw  903   6.388   6.526   3.800 -0.3782 -0.0817 -0.7535
  226SOL     vw  904   6.470   6.497   3.804 -0.4821 -0.2911  0.1454
  227SOL     ow  905   4.287   1.801   3.121 -0.2224 -0.4005 -0.1039
  227SOL     hw  906   4.336   1.842   3.192 -0.0854  0.7440 -0.8277
  227SOL     hw  907   4.342   1.728   3.092 -1.6207 -2.8462  2.8916
  227SOL     vw  908   4.301   1.797   3.126 -0.3886 -0.5721  0.1959
  228SOL     ow  909   2.325   1.110   2.290  0.1272 -0.5768  0.0935
  228SOL     hw  910   2.380   1.188   2.294 -5.0388  3.6839 -0.2550
  228SOL     hw  911   2.296   1.096   2.380 -0.4589 -0.8977 -0.1413
  228SOL     vw  912   2.328   1.119   2.302 -0.6317 -0.0570  0.0165
  229SOL     ow  913   6.858   0.262   3.349  0.1064  0.7829  0.1697
  229SOL     hw  914   6.782   0.204   3.343  0.0506  0.9537 -0.9662
  229SOL     hw  915   6.904   0.250   3.265 -0.0541  2.5697 -0.2108
  229SOL     vw  916   6.854   0.253   3.337  0.0780  1.0412 -0.0305
  230SOL     ow  917   0.761   3.587   3.023 -0.2436 -0.0892  0.1480
  230SOL     hw  918   0.771   3.532   3.100  1.1734  2.9549  2.3712
  230SOL     hw  919   0.849   3.593   2.985 -0.2122  1.0832  0.3495
  230SOL     vw  920   0.774   3.581   3.028 -0.0525  0.4673  0.4679
  231SOL     ow  921   2.359   2.347   3.472  0.1948 -0.8242 -0.7843
  231SOL     hw  922   2.400   2.397   3.402 -0.1063 -0.2507 -0.5618
  231SOL     hw  923   2.291   2.296   3.429 -0.1923 -0.2433 -0.8735
  231SOL     vw  924   2.355   2.347   3.457  0.1040 -0.6719 -0.7668
  232SOL     ow  925   0.905   6.897   6.814 -0.2470  0.3922 -0.8041
  232SOL     hw  926   0.910   6.853   6.730  1.0998  0.7641 -0.9497
  232SOL     hw  927   0.837   6.963   6.803  0.6674  1.1858 -1.9994
  232SOL     vw  928   0.897   6.900   6.802  0.0513  0.5462 -0.9809
  233SOL     ow  929   0.996   6.104   2.098  0.2686 -0.2047 -0.5673
  233SOL     hw  930   0.905   6.131   2.097 -0.0976 -0.9788  2.5053
  233SOL     hw  931   1.009   6.059   2.014 -2.1665 -0.1048 -1.0520
  233SOL     vw  932   0.986   6.102   2.087 -0.1010 -0.2935 -0.2259
  234SOL     ow  933   5.149   1.858   5.735  0.3276  0.5985  0.0452
  234SOL     hw  934   5.159   1.766   5.759 -0.0456  0.5950  0.1902
  234SOL     hw  935   5.146   1.857   5.639 -2.7781  0.0918  0.0152
  234SOL     vw  936   5.150   1.846   5.725 -0.1314  0.5312  0.0603
  235SOL     ow  937   6.176   3.263   6.171 -0.1887 -0.1314  0.0055
  235SOL     hw  938   6.232   3.185   6.174  2.5145  1.6850  2.5860
  235SOL     hw  939   6.186   3.297   6.083  1.8660 -0.5377  0.0408
  235SOL     vw  940   6.185   3.257   6.160  0.4392  0.0546  0.3507
  236SOL     ow  941   0.141   2.074   6.576 -0.5569 -0.1736  0.1253
  236SOL     hw  942   0.123   2.121   6.495  2.2747  0.8534 -0.0352
  236SOL     hw  943   0.077   2.106   6.638 -2.0112 -0.0738 -1.3535
  236SOL     vw  944   0.130   2.084   6.573 -0.3751 -0.0249 -0.0908
  237SOL     ow  945   6.607   1.578   5.110 -0.5864 -0.0709  0.8351
  237SOL     hw  946   6.532   1.636   5.118 -0.8052 -0.2829  0.3750
  237SOL     hw  947   6.578   1.496   5.149 -0.0890  0.2773  1.9963
  237SOL     vw  948   6.594   1.575   5.116 -0.5493 -0.0529  0.9274
  238SOL     ow  949   0.952   3.648   3.928  0.4000  0.2262  0.4810
  238SOL     hw  950   0.910   3.577   3.976  0.8764 -0.5034 -0.1517
  238SOL     hw  951   1.027   3.673   3.982 -0.7748  1.5256  1.6099
  238SOL     vw  952   0.956   3.642   3.941  0.3079  0.3015  0.5466
  239SOL     ow  953   1.940   5.650   0.060 -0.7954 -1.0480 -0.0594
  239SOL     hw  954   1.945   5.589   0.134  0.4008 -0.2919  0.5135
  239SOL     hw  955   1.850   5.684   0.063 -1.1879 -2.0620  0.1820
  239SOL     vw  956   1.929   5.646   0.070 -0.6893 -1.0822  0.0481
  240SOL     ow  957   6.973   5.150   1.704  0.4140 -0.6312  0.3212
  240SOL     hw  958   6.983   5.202   1.783 -0.0937  3.6924 -2.1287
  240SOL     hw  959   7.058   5.107   1.693  3.3085  4.4471 -0.2725
  240SOL     vw  960   6.986   5.151   1.713  0.7291  0.6094 -0.0803
  241SOL     ow  961   5.917   4.637   0.672  0.4633  0.5110 -0.5703
  241SOL     hw  962   5.935   4.672   0.759 -0.3080 -1.0709  0.2605
  241SOL     hw  963   5.972   4.559   0.665 -0.8625 -0.4442 -0.7325
  241SOL     vw  964   5.927   4.631   0.682  0.1869  0.1762 -0.4821
  242SOL     ow  965   3.501   5.697   0.711  0.2172  0.1627 -0.6608
  242SOL     hw  966   3.561   5.769   0.732  2.0130 -0.5582 -3.0081
  242SOL     hw  967   3.557   5.621   0.698 -1.1543 -0.5730 -2.8567
  242SOL     vw  968   3.516   5.697   0.712  0.2731 -0.0296 -1.2603
  243SOL     ow  969   3.824   4.307   2.813  0.1354 -0.6972 -0.1869
  243SOL     hw  970   3.853   4.257   2.890 -0.0336 -0.5129 -0.0006
  243SOL     hw  971   3.729   4.304   2.817  0.1236 -1.1733 -0.7119
  243SOL     vw  972   3.815   4.300   2.824  0.1116 -0.7358 -0.2317
  244SOL     ow  973   2.735   4.573   4.592 -0.0089 -0.3676  0.3531
  244SOL     hw  974   2.814   4.611   4.552  0.1198 -2.1481 -1.2082
  244SOL     hw  975   2.751   4.579   4.686  0.7720  1.7262  0.1485
  244SOL     vw  976   2.748   4.579   4.599  0.1112 -0.3264  0.1202
  245SOL     ow  977   4.546   5.458   0.564  0.3976 -1.1384  0.6284
  245SOL     hw  978   4.564   5.372   0.525  1.5325 -0.4131 -0.5175
  245SOL     hw  979   4.627   5.508   0.552 -0.8794  0.7653 -0.5432
  245SOL     vw  980   4.559   5.453   0.558  0.3788 -0.7913  0.3226
  246SOL     ow  981   4.271   0.165   4.616 -0.0142 -0.1862  0.3827
  246SOL     hw  982   4.178   0.147   4.630 -0.0762  0.2308  0.5353
  246SOL     hw  983   4.275   0.207   4.530  0.0069 -0.0301  0.4585
  246SOL     vw  984   4.259   0.168   4.607 -0.0200 -0.1106  0.4129
  247SOL     ow  985   3.529   6.110   1.342 -0.0656 -0.0101  0.0217
  247SOL     hw  986   3.582   6.187   1.363  0.2908 -0.8336  2.5039
  247SOL     hw  987   3.460   6.110   1.408 -1.0792 -0.9080 -0.9911
  247SOL     vw  988   3.527   6.120   1.354 -0.1525 -0.2375  0.2156
  248SOL     ow  989   0.660   6.140   0.709  0.4059 -0.6211 -0.4279
  248SOL     hw  990   0.654   6.106   0.798 -1.3598  1.7145  0.4307
  248SOL     hw  991   0.730   6.088   0.669  2.1520 -0.9123  2.6760
  248SOL     vw  992   0.669   6.128   0.715  0.4033 -0.3514  0.0949
  249SOL     ow  993   5.843   0.561   1.305 -0.5668  0.0511  0.3229
  249SOL     hw  994   5.893   0.585   1.383 -1.8893  2.0833  0.6249
  249SOL     hw  995   5.822   0.645   1.264 -4.2558 -0.6049  0.5722
  249SOL     vw  996   5.847   0.575   1.310 -1.2279  0.2326  0.3957
  250SOL     ow  997   0.706   4.901   1.054  0.4789  0.3699  0.0971
  250SOL     hw  998   0.635   4.935   0.999  0.6631  1.2045  0.3608
  250SOL     hw  999   0.752   4.979   1.084  0.1314 -0.0297  1.7943
  250SOL     vw 1000   0.703   4.916   1.051  0.4574  0.4275  0.3558
  251SOL     ow 1001   5.641   0.861   1.724 -0.0007 -0.6418  0.2282
  251SOL     hw 1002   5.645   0.774   1.684  0.3193 -0.2527 -0.6066
  251SOL     hw 1003   5.697   0.854   1.801 -1.3902 -1.6781  1.1901
  251SOL     vw 1004   5.649   0.849   1.729 -0.1419 -0.7272  0.2450
  252SOL     ow 1005   6.888   1.103   5.770 -0.2051  1.1138  0.5025
  252SOL     hw 1006   6.965   1.096   5.714  0.6462  1.3798  1.5931
  252SOL     hw 1007   6.824   1.044   5.731  0.1133  1.7759 -1.1106
  252SOL     vw 1008   6.889   1.095   5.758 -0.0508  1.2363  0.4332
  253SOL     ow 1009   5.752   6.656   6.338  0.3870  0.1288  0.6189
  253SOL     hw 1010   5.766   6.633   6.246 -0.7683  0.8782  0.2344
  253SOL     hw 1011   5.838   6.686   6.368  0.1099  3.1883 -1.2363
  253SOL     vw 1012   5.765   6.657   6.330  0.1981  0.6316  0.3235
  254SOL     ow 1013   4.034   6.882   1.676  0.0349 -0.6709 -0.0605
  254SOL     hw 1014   4.055   6.972   1.652  0.3247 -0.3765  1.2187
  254SOL     hw 1015   3.939   6.882   1.686  0.1856  0.0074  1.7750
  254SOL     vw 1016   4.024   6.894   1.674  0.0927 -0.5429  0.3505
  255SOL     ow 1017   0.937   3.780   3.627 -0.5587 -0.1929 -0.8366
  255SOL     hw 1018   1.005   3.724   3.588  2.3549  0.8745  2.2405
  255SOL     hw 1019   0.981   3.863   3.644 -3.8761  2.0772 -2.3430
  255SOL     vw 1020   0.952   3.784   3.624 -0.6120  0.2475 -0.6293
  256SOL     ow 1021   4.996   2.244   1.432 -0.1572  0.1502 -0.3082
  256SOL     hw 1022   5.042   2.206   1.357 -0.4303  0.5057 -0.6589
  256SOL     hw 1023   5.029   2.333   1.439 -1.9192  0.9721 -1.5701
  256SOL     vw 1024   5.006   2.251   1.423 -0.4256  0.3055 -0.5209
  257SOL     ow 1025   4.792   1.685   0.681  0.1827  0.4372 -0.8634
  257SOL     hw 1026   4.739   1.610   0.708  0.1456  0.9359  0.5104
  257SOL     hw 1027   4.867   1.647   0.636 -0.3741 -0.3592 -1.1425
  257SOL     vw 1028   4.795   1.670   0.678  0.1044  0.3980 -0.7190
  258SOL     ow 1029   5.097   1.918   6.018 -0.2799 -0.0316  0.1631
  258SOL     hw 1030   5.122   1.953   6.104  0.5013  0.0783 -0.0976
  258SOL     hw 1031   5.089   1.824   6.033 -0.8724  0.0712  0.5207
  258SOL     vw 1032   5.099   1.910   6.031 -0.2546 -0.0035  0.1760
  259SOL     ow 1033   4.618   2.393   2.472 -0.0614 -0.4199 -1.1529
  259SOL     hw 1034   4.528   2.401   2.440  0.1824 -0.1134 -1.7757
  259SOL     hw 1035   4.662   2.471   2.439  0.0587  0.2186  0.4349
  259SOL     vw 1036   4.612   2.404   2.464 -0.0134 -0.2952 -1.0256
  260SOL     ow 1037   3.908   3.571   3.554 -0.3557 -0.3503  0.4267
  260SOL     hw 1038   3.910   3.517   3.475  1.1978  1.5816 -0.9562
  260SOL     hw 1039   3.996   3.562   3.591  0.5230  2.4091 -0.7657
  260SOL     vw 1040   3.920   3.563   3.548 -0.0347  0.2686  0.0869
  261SOL     ow 1041   3.383   0.911   0.988 -0.0667 -0.2475  0.2839
  261SOL     hw 1042   3.333   0.960   1.053 -1.2996 -1.1964  0.0749
  261SOL     hw 1043   3.453   0.870   1.038  1.0744  1.7654  0.4531
  261SOL     vw 1044   3.386   0.912   1.003 -0.0789 -0.1072  0.2787
  262SOL     ow 1045   2.299   5.671   2.909 -0.6916  0.1195  0.3061
  262SOL     hw 1046   2.379   5.633   2.945 -1.5119  0.7570  2.9896
  262SOL     hw 1047   2.265   5.603   2.850  1.3467 -0.4895 -0.2402
  262SOL     vw 1048   2.305   5.657   2.906 -0.5310  0.1233  0.5881
  263SOL     ow 1049   4.279   4.522   6.865  0.2105 -0.3917  0.1231
  263SOL     hw 1050   4.294   4.463   6.939 -0.1660 -0.1259  0.4182
  263SOL     hw 1051   4.365   4.530   6.823  0.9491  1.1420  1.7920
  263SOL     vw 1052   4.292   4.515   6.869  0.2582 -0.1543  0.3822
  264SOL     ow 1053   4.136   1.424   1.242  0.9482  0.2939 -0.6234
  264SOL     hw 1054   4.172   1.453   1.326  0.5578 -1.4669  0.1990
  264SOL     hw 1055   4.214   1.409   1.188  1.3333 -0.6415  0.1606
  264SOL     vw 1056   4.151   1.426   1.246  0.9475 -0.0619 -0.4115
  265SOL     ow 1057   5.150   2.327   0.022 -0.0571 -0.0255  0.7205
  265SOL     hw 1058   5.201   2.408   0.017 -0.7046  0.4269  1.3183
  265SOL     hw 1059   5.165   2.295   0.111 -2.4943  1.2611  1.6819
  265SOL     vw 1060   5.159   2.333   0.033 -0.4640  0.2040  0.9260
  266SOL     ow 1061   0.717   0.195   4.183 -0.3041 -0.1253 -0.4484
  266SOL     hw 1062   0.746   0.280   4.214 -0.4251 -0.4347  0.5359
  266SOL     hw 1063   0.790   0.135   4.202  0.6654  0.0958 -3.0268
  266SOL     vw 1064   0.730   0.198   4.190 -0.1921 -0.1370 -0.6585
  267SOL     ow 1065   4.776   5.187   4.205  0.1182 -0.4507  0.2472
  267SOL     hw 1066   4.827   5.178   4.124 -0.8692 -1.4501 -0.2856
  267SOL     hw 1067   4.748   5.278   4.205 -0.9641 -0.7462 -1.2358
  267SOL     vw 1068   4.779   5.198   4.194 -0.1547 -0.6213 -0.0188
  268SOL     ow 1069   6.351   6.721   5.935 -0.0342  0.0849  0.2573
  268SOL     hw 1070   6.417   6.683   5.993  1.0745  2.2930  0.5631
  268SOL     hw 1071   6.284   6.757   5.993  0.4748  1.2291  0.1825
  268SOL     vw 1072   6.351   6.721   5.950  0.1795  0.5271  0.2878
  269SOL     ow 1073   1.134   0.649   3.665 -0.0749 -0.5267 -0.8290
  269SOL     hw 1074   1.095   0.664   3.752  0.6798  0.9403 -0.7004
  269SOL     hw 1075   1.061   0.660   3.604 -1.0394 -3.4593 -0.3416
  269SOL     vw 1076   1.120   0.652   3.669 -0.1026 -0.7200 -0.7478
  270SOL     ow 1077   0.690   5.082   5.565  0.1297 -0.1741  0.7452
  270SOL     hw 1078   0.634   5.004   5.566  0.6809 -0.5657  1.2726
  270SOL     hw 1079   0.675   5.120   5.478 -1.9104  0.4366  1.3015
  270SOL     vw 1080   0.680   5.077   5.553 -0.0668 -0.1452  0.8881
  271SOL     ow 1081   2.841   6.053   6.058  0.0171  0.8650  0.2013
  271SOL     hw 1082   2.813   6.065   6.148  0.2483  0.0847  0.3856
  271SOL     hw 1083   2.847   5.958   6.047 -0.0487  0.9496 -0.6465
  271SOL     vw 1084   2.838   6.042   6.068  0.0389  0.7732  0.1137
  272SOL     ow 1085   4.537   0.893   3.408 -0.8110  0.1579  0.4012
  272SOL     hw 1086   4.596   0.938   3.468 -2.5100  0.5022  1.9176
  272SOL     hw 1087   4.540   0.944   3.327  0.7817  0.2617  0.4993
  272SOL     vw 1088   4.545   0.905   3.405 -0.8254  0.2170  0.6143
  273SOL     ow 1089   6.329   0.774   6.946 -0.2374  0.1712 -0.1340
  273SOL     hw 1090   6.276   0.796   6.870  0.6329 -0.2313 -0.8719
  273SOL     hw 1091   6.416   0.807   6.925  1.0472 -3.3720 -1.1139
  273SOL     vw 1092   6.333   0.781   6.933  0.0467 -0.3494 -0.3610
  274SOL     ow 1093   5.404   0.409   1.970  0.1828 -0.0674 -0.4202
  274SOL     hw 1094   5.399   0.443   1.881 -0.9639  0.3524 -0.2128
  274SOL     hw 1095   5.488   0.441   2.003 -0.3488  1.6315 -0.6173
  274SOL     vw 1096   5.415   0.417   1.963 -0.0386  0.2121 -0.4188
  275SOL     ow 1097   0.830   3.337   0.731  0.8267 -0.5349 -0.7680
  275SOL     hw 1098   0.833   3.265   0.794 -1.9775 -0.6700 -0.6492
  275SOL     hw 1099   0.756   3.391   0.760  1.2759  1.0027 -2.3038
  275SOL     vw 1100   0.821   3.335   0.743  0.5161 -0.3498 -0.9549
  276SOL     ow 1101   5.464   2.821   2.873 -0.6355 -0.3802  0.2878
  276SOL     hw 1102   5.506   2.902   2.844 -0.9025 -1.1569 -2.6456
  276SOL     hw 1103   5.379   2.821   2.830 -0.7061 -2.0977  0.3513
  276SOL     vw 1104   5.459   2.831   2.863 -0.6800 -0.7093 -0.0908
  277SOL     ow 1105   0.861   4.045   4.142  0.4226 -0.1189 -0.3695
  277SOL     hw 1106   0.886   3.983   4.211 -0.1457 -0.6453 -0.6196
  277SOL     hw 1107   0.926   4.032   4.073  0.1450 -0.6650 -0.5423
  277SOL     vw 1108   0.873   4.035   4.142  0.3110 -0.2606 -0.4251
  278SOL     ow 1109   3.912   3.039   4.633  0.2449 -0.7694  0.5052
  278SOL     hw 1110   3.835   2.984   4.651 -0.1162  0.0426  1.6002
  278SOL     hw 1111   3.920   3.038   4.538 -0.3976 -1.8346  0.4389
  278SOL     vw 1112   3.903   3.032   4.623  0.1124 -0.8028  0.6409
  279SOL     ow 1113   2.537   5.923   0.276 -0.5638 -0.2046 -0.0922
  279SOL     hw 1114   2.521   6.017   0.268  2.4072  0.4011  0.1550
  279SOL     hw 1115   2.536   5.891   0.186 -1.8060 -0.0166 -0.1638
  279SOL     vw 1116   2.534   5.931   0.263 -0.3358 -0.0999 -0.0690
  280SOL     ow 1117   5.478   4.483   3.636 -0.3133  0.0031 -0.7051
  280SOL     hw 1118   5.392   4.504   3.601  0.6255  1.4322 -2.3103
  280SOL     hw 1119   5.465   4.474   3.730 -1.9295  1.7483 -0.7195
  280SOL     vw 1120   5.465   4.484   3.644 -0.4029  0.4218 -0.9189
  281SOL     ow 1121   3.254   6.807   1.519 -0.0742  0.3220  0.0524
  281SOL     hw 1122   3.340   6.790   1.557 -0.8734  0.5867  2.0722
  281SOL     hw 1123   3.260   6.897   1.487  0.8377 -0.1500 -1.2019
  281SOL     vw 1124   3.266   6.817   1.520 -0.0595  0.2947  0.1533
  282SOL     ow 1125   6.075   2.122   2.424  0.5732  0.4278 -0.5668
  282SOL     hw 1126   5.987   2.139   2.459 -0.4703  1.2250 -3.3451
  282SOL     hw 1127   6.060   2.098   2.333  3.2986  1.1507 -1.2779
  282SOL     vw 1128   6.061   2.121   2.417  0.7951  0.6285 -1.0272
  283SOL     ow 1129   6.944   0.199   0.335 -0.1841  0.6924 -1.2141
  283SOL     hw 1130   7.000   0.206   0.258 -2.1746  1.2662 -2.7019
  283SOL     hw 1131   6.913   0.108   0.333 -0.0012  0.6235 -0.9098
  283SOL     vw 1132   6.947   0.188   0.324 -0.4227  0.7590 -1.3703
  284SOL     ow 1133   6.243   0.250   2.388 -0.3656 -0.8928  0.7670
  284SOL     hw 1134   6.246   0.155   2.375 -2.7784 -0.9114 -0.1645
  284SOL     hw 1135   6.311   0.284   2.330 -0.4196 -1.9918  0.0215
  284SOL     vw 1136   6.253   0.242   2.379 -0.6909 -1.0402  0.5457
  285SOL     ow 1137   4.203   5.583   3.056  0.1552  0.7318 -0.4520
  285SOL     hw 1138   4.179   5.532   2.979  1.5508  1.0523 -1.1304
  285SOL     hw 1139   4.192   5.674   3.029  1.3221  0.8634 -0.5308
  285SOL     vw 1140   4.198   5.588   3.043  0.4933  0.7913 -0.5519
  286SOL     ow 1141   6.377   1.899   1.927 -0.0324  0.1040 -0.0938
  286SOL     hw 1142   6.447   1.950   1.967  0.9185 -1.1188 -0.1332
  286SOL     hw 1143   6.309   1.963   1.908 -0.5259  0.8101  3.3398
  286SOL     vw 1144   6.377   1.914   1.930  0.0277  0.0359  0.3541
  287SOL     ow 1145   2.966   3.555   4.836 -0.3876 -0.3764 -0.2495
  287SOL     hw 1146   2.934   3.477   4.791  0.2114 -0.3811 -0.6756
  287SOL     hw 1147   2.931   3.628   4.786  0.7232 -0.3795 -1.0771
  287SOL     vw 1148   2.957   3.554   4.824 -0.1620 -0.3774 -0.4151
  288SOL     ow 1149   3.753   4.407   5.622  0.3282  0.0377 -0.2925
  288SOL     hw 1150   3.803   4.403   5.540 -1.9154  2.9029 -2.0012
  288SOL     hw 1151   3.800   4.471   5.675  0.5009 -0.0410 -0.3484
  288SOL     vw 1152   3.766   4.415   5.618  0.0550  0.4053 -0.5255
  289SOL     ow 1153   0.248   0.855   1.081 -0.2849 -0.2342 -0.0305
  289SOL     hw 1154   0.206   0.940   1.091 -1.7720 -1.0845  1.5735
  289SOL     hw 1155   0.186   0.793   1.120  0.9807 -1.9876 -0.6718
  289SOL     vw 1156   0.234   0.858   1.088 -0.3141 -0.5777  0.0966
  290SOL     ow 1157   6.738   5.959   3.250  0.4038  0.2647  0.0534
  290SOL     hw 1158   6.702   5.918   3.171 -2.8278  0.1345  1.4481
  290SOL     hw 1159   6.698   6.046   3.252  0.3332  0.2155  1.6276
  290SOL     vw 1160   6.728   5.965   3.239 -0.0317  0.2410  0.4450
  291SOL     ow 1161   1.172   7.034   5.121 -0.0347  0.5593 -0.2524
  291SOL     hw 1162   1.156   6.946   5.089  1.2039  1.1015 -2.5221
  291SOL     hw 1163   1.088   7.079   5.110  0.3777  0.7825 -3.1150
  291SOL     vw 1164   1.159   7.029   5.116  0.1830  0.6599 -0.9296
  292SOL     ow 1165   2.696   6.604   6.743  0.0543  0.1765  0.3527
  292SOL     hw 1166   2.711   6.518   6.781  0.2144  0.6739  1.4680
  292SOL     hw 1167   2.783   6.634   6.715  0.1854  0.4167  0.9820
  292SOL     vw 1168   2.710   6.597   6.745  0.0926  0.2742  0.5829
  293SOL     ow 1169   1.282   5.234   6.300  0.4536  0.2046  0.7563
  293SOL     hw 1170   1.319   5.280   6.225  3.2589 -1.5449  0.9009
  293SOL     hw 1171   1.221   5.171   6.262  0.9683  0.1320  0.0352
  293SOL     vw 1172   1.279   5.231   6.285  0.8916 -0.0358  0.6802
  294SOL     ow 1173   1.467   3.245   2.988  0.2958 -0.1350 -0.6267
  294SOL     hw 1174   1.441   3.301   3.061  3.5526 -0.7704  1.1880
  294SOL     hw 1175   1.508   3.305   2.925 -0.0712  0.0451 -0.6989
  294SOL     vw 1176   1.469   3.261   2.989  0.6771 -0.1950 -0.3967
  295SOL     ow 1177   6.281   5.896   6.129 -0.0940  1.0084  0.2100
  295SOL     hw 1178   6.329   5.933   6.055 -1.2167 -0.0193 -1.0828
  295SOL     hw 1179   6.195   5.874   6.093 -0.1193 -1.0471  1.3960
  295SOL     vw 1180   6.276   5.898   6.115 -0.2456  0.6015  0.1960
  296SOL     ow 1181   4.604   4.446   2.096  0.2070  0.3171  0.6229
  296SOL     hw 1182   4.619   4.538   2.116  2.0410  0.5373 -1.4460
  296SOL     hw 1183   4.528   4.447   2.038  0.2773  0.5258  0.5341
  296SOL     vw 1184   4.596   4.458   2.091  0.4582  0.3738  0.3382
  297SOL     ow 1185   6.375   5.451   1.295 -0.5466 -0.2504  0.2059
  297SOL     hw 1186   6.323   5.377   1.325 -0.9559  0.8155  2.3877
  297SOL     hw 1187   6.442   5.462   1.362 -1.0969  1.9009  0.5011
  297SOL     vw 1188   6.377   5.443   1.308 -0.6731  0.1740  0.5326
  298SOL     ow 1189   3.020   4.673   0.678  0.1266 -0.2814 -0.4148
  298SOL     hw 1190   2.936   4.701   0.714 -0.1139 -0.6797 -0.6533
  298SOL     hw 1191   3.061   4.753   0.647 -1.0032 -0.2845 -2.0574
  298SOL     vw 1192   3.014   4.687   0.678 -0.0541 -0.3343 -0.6630
  299SOL     ow 1193   5.338   6.865   0.324  0.1837  0.0098 -0.4377
  299SOL     hw 1194   5.254   6.872   0.278 -0.5871 -1.5151  0.6763
  299SOL     hw 1195   5.315   6.860   0.416  1.5949  0.7562 -0.0087
  299SOL     vw 1196   5.324   6.866   0.330  0.2680 -0.0930 -0.2341
  300SOL     ow 1197   1.927   1.505   5.442 -0.3381 -0.0433 -0.6123
  300SOL     hw 1198   1.938   1.426   5.495  1.2391  0.7238  0.2659
  300SOL     hw 1199   1.838   1.498   5.407 -0.3517 -2.0190 -0.2710
  300SOL     vw 1200   1.916   1.494   5.445 -0.1318 -0.2028 -0.4516
  301SOL     ow 1201   5.764   4.765   5.988 -0.4440 -0.2510  0.2629
  301SOL     hw 1202   5.750   4.716   6.069 -2.5736  0.9981  0.7218
  301SOL     hw 1203   5.685   4.750   5.936  0.5387 -0.3943 -1.2834
  301SOL     vw 1204   5.752   4.757   5.992 -0.5956 -0.1051  0.1197
  302SOL     ow 1205   2.423   0.800   2.270  0.4280  0.3474  0.4214
  302SOL     hw 1206   2.420   0.746   2.349  0.4850 -0.9038 -0.4024
  302SOL     hw 1207   2.336   0.789   2.230 -0.2570  2.4450  1.2322
  302SOL     vw 1208   2.411   0.791   2.275  0.3452  0.4591  0.4197
  303SOL     ow 1209   0.984   0.369   1.286 -1.1325  0.0662 -0.0168
  303SOL     hw 1210   0.950   0.398   1.201  0.0998 -2.7242 -1.6000
  303SOL     hw 1211   0.931   0.293   1.308 -0.7166  0.1093  1.1810
  303SOL     vw 1212   0.972   0.363   1.277 -0.9151 -0.2962 -0.0677
  304SOL     ow 1213   2.370   2.491   2.752  0.7742 -0.1570  0.8354
  304SOL     hw 1214   2.404   2.406   2.724 -1.5272 -0.8258 -0.1885
  304SOL     hw 1215   2.309   2.470   2.823 -0.5076  0.5056 -0.0352
  304SOL     vw 1216   2.366   2.477   2.758  0.3015 -0.1578  0.5852
  305SOL     ow 1217   6.468   5.726   6.967  0.4647  0.3854  0.4516
  305SOL     hw 1218   6.494   5.726   7.060  1.0906  0.4481  0.2804
  305SOL     hw 1219   6.489   5.814   6.937 -0.6365  0.6733  0.4870
  305SOL     vw 1220   6.475   5.738   6.976  0.4020  0.4320  0.4337
  306SOL     ow 1221   2.409   3.347   1.422  0.1848 -0.3292 -0.3265
  306SOL     hw 1222   2.486   3.394   1.452 -0.2578  1.5097 -1.8287
  306SOL     hw 1223   2.336   3.408   1.436 -0.3861 -0.4001 -2.5764
  306SOL     vw 1224   2.409   3.361   1.427  0.0510 -0.0958 -0.8215
  307SOL     ow 1225   2.809   2.225   0.389 -0.3712  0.2318 -0.1829
  307SOL     hw 1226   2.816   2.130   0.382  0.8611  0.3714 -1.3081
  307SOL     hw 1227   2.715   2.242   0.390 -0.6117 -1.0208  0.6305
  307SOL     vw 1228   2.797   2.215   0.388 -0.2403  0.0851 -0.2241
  308SOL     ow 1229   1.372   0.845   0.673  0.1903 -0.1515 -0.0849
  308SOL     hw 1230   1.284   0.829   0.639 -0.4117 -0.4078  1.5030
  308SOL     hw 1231   1.403   0.759   0.701  0.8911 -0.0389 -0.4904
  308SOL     vw 1232   1.364   0.832   0.673  0.2034 -0.1705  0.0710
  309SOL     ow 1233   2.365   5.844   3.122 -0.3686 -0.5653  0.5225
  309SOL     hw 1234   2.312   5.870   3.198  0.6622  4.2212 -0.0640
  309SOL     hw 1235   2.448   5.815   3.160 -0.5724 -0.1871  1.2935
  309SOL     vw 1236   2.369   5.844   3.137 -0.2596  0.1161  0.5467
  310SOL     ow 1237   5.529   2.515   0.612  0.5690  0.1674 -0.6090
  310SOL     hw 1238   5.453   2.528   0.554 -0.5870  0.1857  0.8586
  310SOL     hw 1239   5.554   2.603   0.639  1.3523  0.1874 -1.3389
  310SOL     vw 1240   5.522   2.528   0.608  0.5200  0.1725 -0.5116
  311SOL     ow 1241   0.529   1.103   5.083 -0.9936 -0.2053 -0.1133
  311SOL     hw 1242   0.475   1.042   5.033 -3.3354  1.8950 -0.3227
  311SOL     hw 1243   0.536   1.181   5.028  2.0894 -0.2263  0.0577
  311SOL     vw 1244   0.523   1.105   5.069 -0.8958  0.0690 -0.1185
  312SOL     ow 1245   3.187   1.647   3.054  0.5605  0.0154 -0.2481
  312SOL     hw 1246   3.254   1.605   3.001 -1.6174 -0.7566 -2.6245
  312SOL     hw 1247   3.234   1.713   3.104  3.0661 -0.3998 -1.8447
  312SOL     vw 1248   3.202   1.650   3.053  0.6038 -0.1413 -0.7722
  313SOL     ow 1249   4.493   3.817   1.545  0.3922  0.5883  0.4113
  313SOL     hw 1250   4.557   3.826   1.615  0.2572 -1.6229  0.9102
  313SOL     hw 1251   4.413   3.787   1.589 -1.2800  3.8674 -0.1078
  313SOL     vw 1252   4.491   3.814   1.560  0.1535  0.7291  0.4085
  314SOL     ow 1253   6.273   4.898   3.550 -0.5612 -0.0881 -0.5788
  314SOL     hw 1254   6.272   4.821   3.606 -0.2799  0.4936  0.2606
  314SOL     hw 1255   6.364   4.929   3.554 -0.8755  0.8178 -0.1350
  314SOL     vw 1256   6.285   4.892   3.558 -0.5653  0.1082 -0.4096
  315SOL     ow 1257   2.602   5.196   2.310 -0.3772 -0.1440  0.5970
  315SOL     hw 1258   2.516   5.237   2.322 -1.3866 -1.5781 -1.0913
  315SOL     hw 1259   2.619   5.151   2.392 -2.2216 -1.4256  0.3442
  315SOL     vw 1260   2.593   5.195   2.322 -0.7538 -0.5021  0.3408
  316SOL     ow 1261   3.529   3.417   1.806  0.4392  0.1052 -0.1395
  316SOL     hw 1262   3.468   3.487   1.781  1.4238  1.1058  0.1722
  316SOL     hw 1263   3.554   3.438   1.896  1.8545  0.2090 -0.5196
  316SOL     vw 1264   3.524   3.429   1.814  0.7558  0.2509 -0.1485
  317SOL     ow 1265   0.945   4.115   6.123  0.5567 -0.0926  0.1056
  317SOL     hw 1266   0.935   4.159   6.038 -0.4114 -0.0341  0.2368
  317SOL     hw 1267   0.882   4.043   6.120  1.8894 -1.2914  0.0289
  317SOL     vw 1268   0.935   4.111   6.112  0.6048 -0.2427  0.1125
  318SOL     ow 1269   4.555   6.531   5.663  0.3341 -0.4865 -0.4144
  318SOL     hw 1270   4.526   6.451   5.707 -1.3065  0.2208 -0.1357
  318SOL     hw 1271   4.477   6.586   5.661  1.6191  1.4223  0.0923
  318SOL     vw 1272   4.541   6.527   5.668  0.2873 -0.1411 -0.3107
  319SOL     ow 1273   7.094   1.960   4.187  0.2483 -1.0357  0.4075
  319SOL     hw 1274   7.013   1.925   4.152 -0.2939  0.6342 -0.1036
  319SOL     hw 1275   7.090   1.942   4.281 -0.7537 -0.8833  0.3994
  319SOL     vw 1276   7.083   1.953   4.195  0.0446 -0.7953  0.3390
  320SOL     ow 1277   5.088   1.198   4.748 -0.4777  0.0378  0.3763
  320SOL     hw 1278   5.176   1.225   4.776 -0.8935  1.4206  0.4127
  320SOL     hw 1279   5.029   1.258   4.794 -1.4819 -1.2146  0.7555
  320SOL     vw 1280   5.092   1.210   4.758 -0.6647  0.0551  0.4311
  321SOL     ow 1281   2.471   5.028   2.102  0.2688 -0.0001  0.4501
  321SOL     hw 1282   2.456   5.041   2.009  3.6147 -1.0457 -0.3663
  321SOL     hw 1283   2.403   4.967   2.129  0.8931 -1.9679 -2.0374
  321SOL     vw 1284   2.460   5.022   2.093  0.7925 -0.3977  0.0142
  322SOL     ow 1285   2.137   0.348   1.872  0.5345  0.3462 -0.1280
  322SOL     hw 1286   2.094   0.277   1.825  0.9571  0.0784 -0.1099
  322SOL     hw 1287   2.085   0.359   1.952  0.0568  0.5318 -0.4574
  322SOL     vw 1288   2.124   0.340   1.877  0.5273  0.3353 -0.1690
  323SOL     ow 1289   6.780   1.009   3.895  0.2938  0.2110 -0.0383
  323SOL     hw 1290   6.852   1.041   3.840 -0.8433  1.0474 -1.1005
  323SOL     hw 1291   6.707   0.997   3.834 -0.4907 -0.5738  1.0207
  323SOL     vw 1292   6.780   1.012   3.879  0.0405  0.2179 -0.0387
  324SOL     ow 1293   2.362   5.605   0.104 -0.5900  0.6101 -0.0089
  324SOL     hw 1294   2.317   5.521   0.112 -1.9428  1.3525  0.6492
  324SOL     hw 1295   2.420   5.594   0.029  1.4911 -1.8395  1.7869
  324SOL     vw 1296   2.363   5.593   0.095 -0.4939  0.3850  0.3149
  325SOL     ow 1297   4.705   2.818   6.411  0.3698  0.6654  0.4514
  325SOL     hw 1298   4.672   2.908   6.416 -0.0851  0.5875 -0.7213
  325SOL     hw 1299   4.639   2.766   6.459 -0.9860  0.5926 -1.3757
  325SOL     vw 1300   4.692   2.823   6.418  0.1311  0.6455  0.0558
  326SOL     ow 1301   6.936   1.182   0.717  0.3078  0.4190 -0.3181
  326SOL     hw 1302   6.934   1.209   0.625 -0.5075  2.5661  0.2718
  326SOL     hw 1303   6.921   1.262   0.766  2.3794 -0.3427  1.7930
  326SOL     vw 1304   6.934   1.196   0.711  0.4735  0.6019  0.0383
  327SOL     ow 1305   0.649   5.837   5.042 -0.3023 -0.3662  0.3453
  327SOL     hw 1306   0.651   5.747   5.076 -0.5286 -0.5668 -0.1708
  327SOL     hw 1307   0.582   5.836   4.974 -0.5604  0.2883  0.5885
  327SOL     vw 1308   0.641   5.825   5.038 -0.3662 -0.3064  0.3095
  328SOL     ow 1309   6.258   2.658   0.765 -0.7063 -0.1899  0.6323
  328SOL     hw 1310   6.228   2.568   0.760 -0.6118 -0.1789 -0.2536
  328SOL     hw 1311   6.344   2.658   0.723  0.0491  0.0036  2.1072
  328SOL     vw 1312   6.265   2.646   0.759 -0.5944 -0.1628  0.7100
  329SOL     ow 1313   0.114   3.965   5.812  0.4276 -0.1915 -0.3448
  329SOL     hw 1314   0.201   3.963   5.773 -0.5210 -2.3954 -2.6194
  329SOL     hw 1315   0.073   4.044   5.777  1.5517  1.0868  1.0634
  329SOL     vw 1316   0.120   3.975   5.802  0.4508 -0.3135 -0.4592
  330SOL     ow 1317   0.089   2.885   1.161 -0.1539  0.0059 -0.2022
  330SOL     hw 1318   0.121   2.871   1.250  2.4735 -0.7849 -1.1717
  330SOL     hw 1319   0.161   2.856   1.105 -1.7860  0.3098 -2.6065
  330SOL     vw 1320   0.103   2.879   1.165 -0.0226 -0.0582 -0.6473
  331SOL     ow 1321   1.314   4.083   2.214  0.8044 -0.3272 -0.3548
  331SOL     hw 1322   1.241   4.059   2.271 -0.0205  0.2364 -1.1414
  331SOL     hw 1323   1.377   4.125   2.272 -0.0112  0.2311  0.1520
  331SOL     vw 1324   1.312   4.086   2.229  0.5879 -0.1791 -0.3917
  332SOL     ow 1325   4.167   1.892   2.798  0.6467 -0.3503 -0.2622
  332SOL     hw 1326   4.189   1.823   2.734 -1.9066  0.4472 -2.1402
  332SOL     hw 1327   4.083   1.927   2.768  1.1945  2.7089  1.3927
  332SOL     vw 1328   4.159   1.887   2.785  0.3822  0.1586 -0.2916
  333SOL     ow 1329   0.456   4.888   4.856 -1.4565 -0.1311  0.0157
  333SOL     hw 1330   0.485   4.967   4.902  4.1313 -1.3433 -0.7115
  333SOL     hw 1331   0.449   4.822   4.925 -0.6678 -0.1915  0.0499
  333SOL     vw 1332   0.459   4.890   4.872 -0.6152 -0.2992 -0.0756
  334SOL     ow 1333   1.754   3.212   3.090  0.5336  0.0513 -0.1928
  334SOL     hw 1334   1.821   3.272   3.057  0.7970  0.1852  0.5676
  334SOL     hw 1335   1.772   3.205   3.183  0.2700 -0.9115 -0.2017
  334SOL     vw 1336   1.765   3.219   3.098  0.5335 -0.0581 -0.0937
  335SOL     ow 1337   4.894   1.782   3.702  0.7011  0.2728  0.0379
  335SOL     hw 1338   4.855   1.845   3.640 -1.8731 -2.4613 -1.3795
  335SOL     hw 1339   4.826   1.770   3.769  2.0829  0.6225  1.5534
  335SOL     vw 1340   4.880   1.789   3.703  0.5441 -0.0418  0.0508
  336SOL     ow 1341   4.086   6.491   6.008 -0.6795 -0.5497  0.3335
  336SOL     hw 1342   4.153   6.431   6.040 -0.1455  1.2456  2.9262
  336SOL     hw 1343   4.024   6.436   5.962  0.5936 -2.8409  1.2137
  336SOL     vw 1344   4.087   6.476   6.006 -0.4408 -0.6149  0.7918
  337SOL     ow 1345   1.513   3.391   4.328  0.3159  0.2232 -0.4285
  337SOL     hw 1346   1.513   3.394   4.232 -1.3655  0.6125 -0.4581
  337SOL     hw 1347   1.531   3.300   4.350  0.6050  0.1116 -1.1306
  337SOL     vw 1348   1.515   3.379   4.318  0.1322  0.2596 -0.5252
  338SOL     ow 1349   6.775   6.319   4.587  0.0067 -0.5724  0.0589
  338SOL     hw 1350   6.815   6.256   4.647 -1.4183 -1.5769  0.0160
  338SOL     hw 1351   6.693   6.343   4.630 -0.2160  0.0311 -0.6861
  338SOL     vw 1352   6.769   6.314   4.601 -0.2108 -0.6254 -0.0453
  339SOL     ow 1353   4.904   6.949   2.884  0.1710 -0.6188  0.1681
  339SOL     hw 1354   4.876   6.862   2.857  1.3194 -0.7729 -0.5850
  339SOL     hw 1355   4.910   6.944   2.979 -0.5285 -1.1212  0.1923
  339SOL     vw 1356   4.901   6.937   2.893  0.2306 -0.7055  0.0719
  340SOL     ow 1357   6.023   4.927   5.890  0.2343 -0.0275 -0.7421
  340SOL     hw 1358   6.085   4.936   5.818  1.4683 -2.9589 -0.1802
  340SOL     hw 1359   6.066   4.972   5.963 -0.6578  2.2450 -1.5176
  340SOL     vw 1360   6.037   4.934   5.890  0.2797 -0.1144 -0.7703
  341SOL     ow 1361   1.961   0.702   4.583 -0.5036 -0.1071  0.5594
  341SOL     hw 1362   1.938   0.784   4.540 -1.6960  0.4324  2.0921
  341SOL     hw 1363   2.000   0.648   4.515 -2.1787  0.7293 -1.1270
  341SOL     vw 1364   1.963   0.706   4.569 -0.8820  0.0744  0.5391
  342SOL     ow 1365   4.067   2.222   5.688  0.1862 -1.0003 -0.6351
  342SOL     hw 1366   4.151   2.269   5.688  0.1767 -0.9336  0.7844
  342SOL     hw 1367   4.002   2.292   5.692  0.1978 -0.9734  3.7467
  342SOL     vw 1368   4.070   2.238   5.689  0.1862 -0.9879  0.1304
  343SOL     ow 1369   1.011   1.542   3.734 -0.1809 -0.1436  0.1325
  343SOL     hw 1370   1.032   1.521   3.643 -0.7698 -0.0333 -0.0329
  343SOL     hw 1371   0.929   1.592   3.728  1.1246  2.2028  0.4870
  343SOL     vw 1372   1.003   1.546   3.721 -0.0864  0.1805  0.1575
  344SOL     ow 1373   2.797   4.760   0.811  0.5688 -0.4306 -0.3047
  344SOL     hw 1374   2.800   4.677   0.858 -2.2552  1.5646  4.1065
  344SOL     hw 1375   2.713   4.759   0.765  0.3735  0.0508  0.0305
  344SOL     vw 1376   2.787   4.749   0.811  0.1705 -0.1035  0.3215
  345SOL     ow 1377   2.814   0.979   3.542  0.0305 -0.1580  0.0845
  345SOL     hw 1378   2.891   0.922   3.538  0.0506 -0.0558 -1.9164
  345SOL     hw 1379   2.829   1.044   3.474 -2.4929 -1.0418 -1.4512
  345SOL     vw 1380   2.826   0.980   3.533 -0.2998 -0.2611 -0.3821
  346SOL     ow 1381   1.936   5.748   5.348 -0.3307 -0.1348  0.4518
  346SOL     hw 1382   1.952   5.654   5.341  0.8811  0.0928 -0.0567
  346SOL     hw 1383   1.903   5.774   5.263  0.9347  0.1719  0.0313
  346SOL     vw 1384   1.934   5.739   5.336 -0.0038 -0.0644  0.3293
  347SOL     ow 1385   6.407   4.578   1.109 -0.3048  0.5622 -0.4310
  347SOL     hw 1386   6.457   4.657   1.131  0.6385  0.1992 -1.1703
  347SOL     hw 1387   6.443   4.551   1.024 -1.2043 -0.1818 -0.5817
  347SOL     vw 1388   6.419   4.585   1.100 -0.2990  0.4160 -0.5484
  348SOL     ow 1389   6.018   1.352   3.373 -0.3709 -0.3821 -0.2729
  348SOL     hw 1390   6.032   1.268   3.330  0.0552  0.0718 -1.0573
  348SOL     hw 1391   5.933   1.382   3.341 -0.2657 -0.2574 -0.4362
  348SOL     vw 1392   6.009   1.345   3.363 -0.3009 -0.3058 -0.3979
  349SOL     ow 1393   0.405   1.896   6.438  0.0930  0.0409 -0.2957
  349SOL     hw 1394   0.465   1.826   6.464 -1.2281 -0.8182  0.5687
  349SOL     hw 1395   0.354   1.857   6.367 -0.0230  0.4628 -0.4434
  349SOL     vw 1396   0.406   1.881   6.432 -0.0966 -0.0167 -0.2010
  350SOL     ow 1397   4.560   2.993   0.340 -0.0755 -1.1718  0.1773
  350SOL     hw 1398   4.508   2.970   0.417 -1.1677 -1.3655 -0.5978
  350SOL     hw 1399   4.498   3.037   0.281  0.9560 -0.1768 -0.2156
  350SOL     vw 1400   4.545   2.996   0.342 -0.0832 -1.0662  0.0232
  351SOL     ow 1401   1.869   5.330   4.384 -0.3314 -0.2802 -0.2386
  351SOL     hw 1402   1.800   5.312   4.320 -0.4578  0.1747 -0.2323
  351SOL     hw 1403   1.822   5.350   4.465 -0.2694  1.7713 -0.6553
  351SOL     vw 1404   1.854   5.330   4.386 -0.3399  0.0505 -0.2930
  352SOL     ow 1405   3.799   3.115   3.068 -0.0785  0.4441 -0.0432
  352SOL     hw 1406   3.749   3.193   3.090  2.6333  1.8360  1.6536
  352SOL     hw 1407   3.874   3.116   3.127  1.0722 -2.4589 -1.2396
  352SOL     vw 1408   3.802   3.125   3.078  0.4311  0.2447  0.0229
  353SOL     ow 1409   0.548   4.192   4.131  0.3107 -0.4416  0.2107
  353SOL     hw 1410   0.454   4.196   4.115  0.1555 -1.2433  0.8769
  353SOL     hw 1411   0.573   4.283   4.148 -0.0979 -0.0295 -1.2090
  353SOL     vw 1412   0.539   4.204   4.131  0.2364 -0.4930  0.1111
  354SOL     ow 1413   1.387   3.802   5.816  0.0386  0.0044  0.5367
  354SOL     hw 1414   1.334   3.870   5.775  1.6421  0.8253 -0.2640
  354SOL     hw 1415   1.469   3.800   5.766  0.0659 -2.5433  0.5231
  354SOL     vw 1416   1.391   3.810   5.804  0.2538 -0.2235  0.4294
  355SOL     ow 1417   0.728   6.610   5.936  0.2392  0.0140 -0.4864
  355SOL     hw 1418   0.687   6.683   5.982  0.4076 -0.8456  1.1195
  355SOL     hw 1419   0.666   6.589   5.866 -0.7506  0.4842  0.2108
  355SOL     vw 1420   0.714   6.617   5.933  0.1308 -0.0370 -0.1826
  356SOL     ow 1421   1.959   1.907   2.794  0.3266 -0.3998  0.3669
  356SOL     hw 1422   1.891   1.970   2.819  0.4862 -0.8204  2.0245
  356SOL     hw 1423   1.925   1.865   2.715 -3.3565 -3.4228  3.1584
  356SOL     vw 1424   1.945   1.910   2.787 -0.1383 -0.8541  0.9539
  357SOL     ow 1425   6.682   3.675   4.577  0.5313  1.0420 -0.1196
  357SOL     hw 1426   6.689   3.714   4.489  0.9498  1.8781  0.2735
  357SOL     hw 1427   6.653   3.748   4.632  2.5723  1.1425  0.8809
  357SOL     vw 1428   6.679   3.690   4.572  0.8557  1.1655  0.0641
  358SOL     ow 1429   1.045   0.510   6.010  0.1287  0.5849 -0.0894
  358SOL     hw 1430   1.114   0.549   6.064 -0.8240  0.6396  1.1262
  358SOL     hw 1431   1.089   0.488   5.928  1.2922  1.8325  0.1498
  358SOL     vw 1432   1.060   0.512   6.006  0.1566  0.7568  0.1025
  359SOL     ow 1433   5.219   4.494   5.791 -0.3549 -0.4254 -0.1813
  359SOL     hw 1434   5.244   4.552   5.720 -0.0649 -0.9737 -0.5375
  359SOL     hw 1435   5.172   4.550   5.853  2.4405  0.8869  0.9520
  359SOL     vw 1436   5.216   4.509   5.790  0.0520 -0.3245 -0.0789
  360SOL     ow 1437   5.852   5.459   3.351  0.7911  0.1808 -0.2736
  360SOL     hw 1438   5.921   5.392   3.353  0.3885 -0.2490 -0.6945
  360SOL     hw 1439   5.773   5.413   3.379  0.3549  0.2800 -1.3102
  360SOL     vw 1440   5.851   5.444   3.355  0.6804  0.1373 -0.4660
  361SOL     ow 1441   6.974   6.834   1.165 -0.0173  0.2990 -0.0695
  361SOL     hw 1442   6.896   6.887   1.180 -0.1135  0.0148  0.4735
  361SOL     hw 1443   6.954   6.782   1.087 -0.3673  0.2312  0.0666
  361SOL     vw 1444   6.961   6.834   1.157 -0.0761  0.2527  0.0201
  362SOL     ow 1445   4.853   0.163   5.162  0.5883  0.2572 -0.2928
  362SOL     hw 1446   4.848   0.071   5.187  2.5770  0.2732  0.3587
  362SOL     hw 1447   4.838   0.163   5.068  0.5150 -0.7293 -0.2939
  362SOL     vw 1448   4.850   0.151   5.153  0.8409  0.1291 -0.2067
  363SOL     ow 1449   0.674   1.673   3.069  0.2705 -0.6008  0.1041
  363SOL     hw 1450   0.754   1.671   3.121 -0.6952  0.2770  1.6912
  363SOL     hw 1451   0.693   1.615   2.995  2.9014  0.7552 -0.4284
  363SOL     vw 1452   0.687   1.665   3.066  0.4902 -0.3061  0.2431
  364SOL     ow 1453   0.054   1.355   4.897 -0.0678  0.2819 -0.0142
  364SOL     hw 1454   0.009   1.271   4.901 -2.4756  1.4250 -1.0964
  364SOL     hw 1455   0.043   1.385   4.807  1.2204  1.5218  0.1962
  364SOL     vw 1456   0.046   1.348   4.886 -0.2155  0.5963 -0.1292
  365SOL     ow 1457   5.700   7.001   4.856  0.3387 -0.0739  0.0439
  365SOL     hw 1458   5.754   7.065   4.902 -0.1515  1.1848 -1.0621
  365SOL     hw 1459   5.764   6.948   4.807  0.7944 -0.9100  1.4784
  365SOL     vw 1460   5.716   7.003   4.855  0.3343 -0.0184  0.0875
  366SOL     ow 1461   5.993   3.160   1.795 -0.1819 -0.6024  0.2226
  366SOL     hw 1462   6.013   3.249   1.824  1.6423 -0.6238 -0.8342
  366SOL     hw 1463   5.915   3.136   1.845 -1.1831  1.8409 -0.0122
  366SOL     vw 1464   5.986   3.169   1.806 -0.0732 -0.2829  0.0521
  367SOL     ow 1465   7.093   6.283   6.824  0.4647 -0.0280  0.4880
  367SOL     hw 1466   7.010   6.238   6.806 -0.8282  3.3062 -3.6929
  367SOL     hw 1467   7.150   6.259   6.751  2.3163 -0.2413  1.9212
  367SOL     vw 1468   7.090   6.274   6.812  0.5383  0.3839  0.1254
  368SOL     ow 1469   6.564   0.188   5.610 -0.4708  0.4032  0.2493
  368SOL     hw 1470   6.657   0.202   5.628 -0.2809 -0.3025 -0.1361
  368SOL     hw 1471   6.554   0.207   5.517 -0.0692 -2.3885 -0.4726
  368SOL     vw 1472   6.575   0.192   5.601 -0.3927 -0.0582  0.1032
  369SOL     ow 1473   6.521   6.672   5.608  0.0825 -0.2619 -0.0960
  369SOL     hw 1474   6.594   6.613   5.627  0.1090 -0.3590 -0.4808
  369SOL     hw 1475   6.535   6.699   5.517 -2.1371 -2.9443 -1.4036
  369SOL     vw 1476   6.532   6.667   5.598 -0.2072 -0.6285 -0.3192
  370SOL     ow 1477   3.954   2.850   4.877  0.3441  0.1359  0.9474
  370SOL     hw 1478   3.938   2.870   4.969 -3.7218  2.8292 -0.0843
  370SOL     hw 1479   3.925   2.759   4.866 -0.8467  0.3703  2.0226
  370SOL     vw 1480   3.948   2.841   4.887 -0.3494  0.5221  0.9530
  371SOL     ow 1481   7.146   0.395   4.593  0.0350  0.6249 -0.3052
  371SOL     hw 1482   7.181   0.306   4.591 -1.9562 -0.2795  1.1984
  371SOL     hw 1483   7.128   0.411   4.686 -1.0812  1.9867 -0.7268
  371SOL     vw 1484   7.149   0.385   4.605 -0.3750  0.6852 -0.1621
  372SOL     ow 1485   1.765   0.876   1.283 -0.4423  0.5240 -0.1158
  372SOL     hw 1486   1.731   0.792   1.312 -1.6476  0.9555 -0.2142
  372SOL     hw 1487   1.831   0.900   1.348  0.7637 -1.0158 -0.7070
  372SOL     vw 1488   1.769   0.868   1.295 -0.4422  0.3778 -0.2068
  373SOL     ow 1489   6.973   6.021   3.185  0.3518 -0.2552  0.4113
  373SOL     hw 1490   6.972   6.077   3.107  0.7323  0.0152  0.5915
  373SOL     hw 1491   6.881   6.002   3.203  0.3069 -1.3640 -0.8328
  373SOL     vw 1492   6.961   6.026   3.178  0.3963 -0.3655  0.2710
  374SOL     ow 1493   6.716   1.774   6.868  0.4461  0.0903 -0.1375
  374SOL     hw 1494   6.809   1.760   6.852  0.1133 -0.9930 -1.2284
  374SOL     hw 1495   6.713   1.823   6.950  2.0766  2.5296 -1.4262
  374SOL     vw 1496   6.728   1.779   6.877  0.6173  0.2692 -0.4513
  375SOL     ow 1497   4.884   0.418   5.949  0.0127 -0.6593 -0.4184
  375SOL     hw 1498   4.880   0.426   5.854 -0.0584  0.5388 -0.3254
  375SOL     hw 1499   4.945   0.345   5.964  0.2365 -0.6832 -1.3751
  375SOL     vw 1500   4.892   0.409   5.939  0.0331 -0.5044 -0.5322
  376SOL     ow 1501   2.206   3.068   4.821 -0.8464  0.0590 -0.5276
  376SOL     hw 1502   2.225   2.975   4.833 -1.0893 -0.0765 -1.1605
  376SOL     hw 1503   2.158   3.092   4.901  1.9076  0.4384  1.1520
  376SOL     vw 1504   2.202   3.059   4.833 -0.5150  0.0913 -0.3893
  377SOL     ow 1505   4.139   2.500   0.741 -0.1636 -0.0853  1.0384
  377SOL     hw 1506   4.120   2.552   0.663 -1.6697 -0.8950  0.8294
  377SOL     hw 1507   4.086   2.540   0.810  0.5507  0.1318  1.4733
  377SOL     vw 1508   4.129   2.512   0.740 -0.2682 -0.1636  1.0682
  378SOL     ow 1509   4.568   5.620   2.191 -0.1861 -0.2889 -0.0742
  378SOL     hw 1510   4.609   5.702   2.219 -0.6957  0.3248 -1.0377
  378SOL     hw 1511   4.636   5.554   2.203  0.9688  0.6204 -1.1940
  378SOL     vw 1512   4.583   5.622   2.196 -0.1009 -0.0882 -0.3489
  379SOL     ow 1513   5.917   1.790   0.055 -0.0638 -0.3984 -0.2045
  379SOL     hw 1514   5.940   1.719  -0.005 -1.1527 -1.7487  0.9115
  379SOL     hw 1515   5.900   1.865  -0.003  0.4897 -1.2014 -1.4545
  379SOL     vw 1516   5.918   1.791   0.039 -0.1342 -0.6825 -0.2221
  380SOL     ow 1517   3.664   1.221   2.301  0.4039 -0.1917 -0.2538
  380SOL     hw 1518   3.599   1.160   2.336 -0.5540  0.0212 -1.5731
  380SOL     hw 1519   3.721   1.241   2.375 -0.2027 -1.4677  0.5913
  380SOL     vw 1520   3.663   1.216   2.315  0.1975 -0.3319 -0.3163
  381SOL     ow 1521   1.161   4.325   4.489  0.4125  0.5597  0.2725
  381SOL     hw 1522   1.103   4.253   4.512 -0.6398  1.2943 -0.0284
  381SOL     hw 1523   1.104   4.390   4.447  1.5916  0.9329 -0.8203
  381SOL     vw 1524   1.146   4.324   4.486  0.4292  0.7057  0.0887
  382SOL     ow 1525   0.217   5.021   7.084 -0.3785 -0.4392  0.0170
  382SOL     hw 1526   0.210   4.937   7.038  0.8653 -0.2851 -0.4726
  382SOL     hw 1527   0.126   5.047   7.099 -0.7888 -1.8915  0.2329
  382SOL     vw 1528   0.204   5.013   7.080 -0.2685 -0.6106 -0.0191
  383SOL     ow 1529   0.217   6.947   6.446  0.1980  0.0395  0.9338
  383SOL     hw 1530   0.248   6.883   6.381  2.2320  0.2200  1.6563
  383SOL     hw 1531   0.199   7.026   6.395  3.5704  0.7843  0.7067
  383SOL     vw 1532   0.219   6.949   6.431  0.9113  0.1614  0.9990
  384SOL     ow 1533   4.905   4.791   0.956  0.7940 -0.5579 -0.1130
  384SOL     hw 1534   4.874   4.816   1.043  0.9972 -0.5219 -0.0506
  384SOL     hw 1535   4.960   4.715   0.972  0.1151 -1.0968 -0.3103
  384SOL     vw 1536   4.908   4.784   0.970  0.7310 -0.6242 -0.1308
  385SOL     ow 1537   1.339   1.093   0.882 -0.7693 -0.2137  0.1688
  385SOL     hw 1538   1.290   1.135   0.953 -1.9172 -1.1263 -0.0537
  385SOL     hw 1539   1.397   1.031   0.926 -0.7682 -0.0790  0.3593
  385SOL     vw 1540   1.340   1.090   0.897 -0.9205 -0.3164  0.1646
  386SOL     ow 1541   5.301   2.544   7.106 -0.5859 -0.2690 -0.0022
  386SOL     hw 1542   5.390   2.520   7.080 -0.6764  0.1138 -0.6655
  386SOL     hw 1543   5.308   2.636   7.134 -0.6605 -0.4146  0.5109
  386SOL     vw 1544   5.314   2.553   7.107 -0.6080 -0.2378 -0.0222
  387SOL     ow 1545   6.105   6.651   7.074  0.2754  0.4372 -0.4379
  387SOL     hw 1546   6.095   6.555   7.072 -1.6076  0.5864  0.4609
  387SOL     hw 1547   6.039   6.683   7.013 -0.1589  1.2384  0.4403
  387SOL     vw 1548   6.095   6.642   7.065 -0.0303  0.5627 -0.2036
  388SOL     ow 1549   0.764   5.829   2.342  0.7811  0.2128 -0.2198
  388SOL     hw 1550   0.674   5.852   2.366  0.8224  0.7996 -0.6039
  388SOL     hw 1551   0.755   5.756   2.281  0.6383 -0.7114  0.8771
  388SOL     vw 1552   0.751   5.823   2.337  0.7677  0.1683 -0.1258
  389SOL     ow 1553   1.534   4.254   2.937  0.1570  0.3550  0.1295
  389SOL     hw 1554   1.498   4.175   2.896 -1.0067  1.0172 -0.1637
  389SOL     hw 1555   1.472   4.276   3.006  1.3372  0.0950  1.3358
  389SOL     vw 1556   1.521   4.246   2.941  0.1591  0.4079  0.2501
  390SOL     ow 1557   6.911   4.697   4.543 -0.2197 -0.7381 -0.4397
  390SOL     hw 1558   6.882   4.771   4.490  1.0197  0.6930  0.7499
  390SOL     hw 1559   6.902   4.621   4.487 -1.7699  0.2804 -1.6371
  390SOL     vw 1560   6.906   4.697   4.529 -0.2606 -0.4148 -0.4411
  391SOL     ow 1561   1.886   4.969   4.990 -0.0341  0.4523  0.4640
  391SOL     hw 1562   1.817   4.938   4.933 -0.9990  2.0138  0.7326
  391SOL     hw 1563   1.962   4.979   4.933 -0.9249  1.7960 -0.5329
  391SOL     vw 1564   1.887   4.966   4.975 -0.2789  0.8357  0.3679
  392SOL     ow 1565   1.992   3.014   0.361 -0.1725  0.3984  0.2569
  392SOL     hw 1566   2.026   3.070   0.291  0.6365 -0.8688 -0.3961
  392SOL     hw 1567   2.049   3.032   0.435 -2.1620  3.1506  1.2797
  392SOL     vw 1568   2.004   3.024   0.361 -0.3283  0.5944  0.3057
  393SOL     ow 1569   4.943   1.370   7.074  0.4202  0.5395  0.3583
  393SOL     hw 1570   4.928   1.342   6.983  0.7902  0.9012  0.1796
  393SOL     hw 1571   4.856   1.387   7.109  0.2312 -0.2164  0.2742
  393SOL     vw 1572   4.930   1.369   7.066  0.4439  0.4875  0.3238
  394SOL     ow 1573   5.006   4.063   6.638  0.0069  0.0145  0.1746
  394SOL     hw 1574   4.914   4.078   6.656  0.3686  1.7266  0.7598
  394SOL     hw 1575   5.038   4.146   6.603  0.9303 -1.1061 -1.7991
  394SOL     vw 1576   4.998   4.076   6.636  0.1764  0.0927 -0.0086
  395SOL     ow 1577   5.350   6.062   1.411  0.0910  0.4638  0.0394
  395SOL     hw 1578   5.381   6.139   1.458 -1.0562  1.4921 -0.8184
  395SOL     hw 1579   5.273   6.093   1.363 -0.1675 -1.1284 -0.6286
  395SOL     vw 1580   5.344   6.076   1.411 -0.0947  0.3893 -0.1619
  396SOL     ow 1581   6.401   5.894   6.432 -0.2722 -0.2555 -1.0494
  396SOL     hw 1582   6.364   5.983   6.424  0.3216 -0.0246 -1.2820
  396SOL     hw 1583   6.440   5.893   6.520  1.8214  0.5446 -1.9112
  396SOL     vw 1584   6.401   5.906   6.443  0.0825 -0.1194 -1.1940
  397SOL     ow 1585   1.065   4.508   2.114  0.3232 -0.1468 -0.4178
  397SOL     hw 1586   1.029   4.597   2.120 -0.2049 -0.3525 -0.4871
  397SOL     hw 1587   1.042   4.467   2.198 -1.4904 -0.9649 -1.2614
  397SOL     vw 1588   1.057   4.515   2.126  0.0142 -0.2818 -0.5383
  398SOL     ow 1589   3.033   2.341   0.607 -0.2582 -0.6196 -0.4664
  398SOL     hw 1590   3.016   2.270   0.669  0.3684 -1.6142 -1.4052
  398SOL     hw 1591   3.105   2.390   0.648 -3.1262  1.8827  2.0843
  398SOL     vw 1592   3.040   2.338   0.621 -0.5541 -0.4207 -0.2538
  399SOL     ow 1593   4.769   5.339   4.446  0.0435 -0.1058 -0.0270
  399SOL     hw 1594   4.821   5.420   4.448 -1.5808  0.9933 -0.6036
  399SOL     hw 1595   4.716   5.343   4.526 -2.0921  0.8628 -1.4139
  399SOL     vw 1596   4.769   5.350   4.457 -0.4528  0.1671 -0.2861
  400SOL     ow 1597   4.692   6.546   5.894 -0.9630  0.3291  0.0882
  400SOL     hw 1598   4.660   6.609   5.959  0.2189 -0.6813  1.7088
  400SOL     hw 1599   4.738   6.479   5.945 -2.5076 -2.1154 -1.5248
  400SOL     vw 1600   4.694   6.546   5.909 -1.0107 -0.1268  0.0894
  401SOL     ow 1601   6.315   0.405   4.414 -0.3914 -0.2978 -0.0800
  401SOL     hw 1602   6.336   0.479   4.358 -1.6962 -0.9107 -1.4399
  401SOL     hw 1603   6.223   0.417   4.437 -0.0737 -0.4448  1.3692
  401SOL     vw 1604   6.306   0.416   4.410 -0.5217 -0.3980 -0.0682
  402SOL     ow 1605   2.869   3.849   6.018 -0.0369 -0.4142 -0.4496
  402SOL     hw 1606   2.873   3.936   6.058 -0.1906 -0.0918 -1.1197
  402SOL     hw 1607   2.902   3.790   6.086 -0.3239  0.1133  0.1595
  402SOL     vw 1608   2.874   3.852   6.032 -0.0951 -0.3021 -0.4578
  403SOL     ow 1609   0.630   3.858   2.896 -0.0482  0.7823 -0.2084
  403SOL     hw 1610   0.645   3.805   2.818 -1.1919  0.2960 -0.1257
  403SOL     hw 1611   0.582   3.935   2.864 -1.1027  0.2677  0.0774
  403SOL     vw 1612   0.626   3.861   2.881 -0.3383  0.6502 -0.1596
  404SOL     ow 1613   4.435   3.229   1.989  0.2637  0.3843 -0.5950
  404SOL     hw 1614   4.355   3.225   2.043 -0.4869 -0.5536 -1.7449
  404SOL     hw 1615   4.404   3.217   1.899  1.4678  2.1144 -1.2954
  404SOL     vw 1616   4.420   3.227   1.984  0.3240  0.4888 -0.8392
  405SOL     ow 1617   0.534   3.648   4.169  0.1131 -0.6889  0.6185
  405SOL     hw 1618   0.461   3.607   4.123  0.7647 -0.0273 -1.0944
  405SOL     hw 1619   0.501   3.663   4.258 -1.3846 -1.5203  0.2442
  405SOL     vw 1620   0.520   3.644   4.175  0.0014 -0.7113  0.3428
  406SOL     ow 1621   1.632   5.070   1.193 -0.4604  0.0227 -0.1836
  406SOL     hw 1622   1.538   5.084   1.180 -0.4813 -0.6702 -0.8495
  406SOL     hw 1623   1.671   5.096   1.109 -0.1471 -0.4635 -0.1920
  406SOL     vw 1624   1.625   5.075   1.180 -0.4218 -0.1328 -0.2726
  407SOL     ow 1625   3.419   0.465   6.629  0.3959  0.0098  0.8214
  407SOL     hw 1626   3.339   0.439   6.677 -0.4605  1.5095  0.2621
  407SOL     hw 1627   3.491   0.439   6.687 -0.3290 -3.4590  0.3664
  407SOL     vw 1628   3.418   0.458   6.643  0.1873 -0.2500  0.6876
  408SOL     ow 1629   0.011   2.606   0.534  0.7690 -0.2606 -0.1484
  408SOL     hw 1630   0.011   2.694   0.496 -1.3168  0.0419  0.4104
  408SOL     hw 1631  -0.035   2.616   0.618  1.5616 -1.6757  0.4946
  408SOL     vw 1632   0.005   2.619   0.540  0.5984 -0.4073  0.0101
  409SOL     ow 1633   6.162   2.510   2.796  0.1538  0.2106  0.3980
  409SOL     hw 1634   6.144   2.485   2.887 -0.9573 -0.8160 -0.0758
  409SOL     hw 1635   6.202   2.597   2.802  3.7948 -1.3527  2.1068
  409SOL     vw 1636   6.165   2.518   2.809  0.4878 -0.1311  0.5610
  410SOL     ow 1637   3.892   6.428   1.731  0.1378 -0.2676  0.0152
  410SOL     hw 1638   3.840   6.381   1.796  0.1593 -0.9868 -0.4711
  410SOL     hw 1639   3.833   6.497   1.699  0.1260  0.0853  0.7696
  410SOL     vw 1640   3.877   6.431   1.735  0.1391 -0.3159  0.0506
  411SOL     ow 1641   3.071   2.177   5.608  0.1836 -0.3691 -0.1685
  411SOL     hw 1642   2.994   2.225   5.577  0.0947  0.1159  0.7742
  411SOL     hw 1643   3.061   2.174   5.703  1.7481  0.4694  0.0650
  411SOL     vw 1644   3.060   2.183   5.616  0.3784 -0.1944 -0.0136
  412SOL     ow 1645   6.730   2.180   0.097  0.1544  0.1383  0.1852
  412SOL     hw 1646   6.661   2.155   0.158  0.5308  0.4961  0.7678
  412SOL     hw 1647   6.685   2.228   0.028 -0.7923 -3.0700 -1.6287
  412SOL     vw 1648   6.715   2.183   0.096  0.0792 -0.2377  0.0228
  413SOL     ow 1649   0.549   4.010   1.278  0.8287 -0.2867 -0.4860
  413SOL     hw 1650   0.462   4.040   1.251  0.2717 -0.5813  0.8857
  413SOL     hw 1651   0.604   4.089   1.277  0.5885 -0.1304 -1.5138
  413SOL     vw 1652   0.545   4.025   1.275  0.7235 -0.3049 -0.4407
  414SOL     ow 1653   1.190   0.366   5.820  0.3634  0.3669  0.5420
  414SOL     hw 1654   1.172   0.307   5.746 -1.5794  0.6683  0.7097
  414SOL     hw 1655   1.261   0.323   5.867  0.6187 -0.6176 -0.6560
  414SOL     vw 1656   1.197   0.352   5.816  0.1407  0.2768  0.4063
  415SOL     ow 1657   2.300   1.906   2.835  0.1542 -0.3495  0.2522
  415SOL     hw 1658   2.365   1.958   2.788  1.3399 -1.0978  1.0136
  415SOL     hw 1659   2.351   1.846   2.890 -1.0815  1.8024  4.1131
  415SOL     vw 1660   2.315   1.905   2.836  0.1476 -0.1643  0.8620
  416SOL     ow 1661   2.746   1.930   0.041  0.4820  0.4553 -0.1539
  416SOL     hw 1662   2.826   1.958  -0.004 -0.3308  0.3947 -1.7011
  416SOL     hw 1663   2.769   1.932   0.134  2.6058 -0.5535 -0.5902
  416SOL     vw 1664   2.760   1.934   0.048  0.6551  0.3142 -0.4156
  417SOL     ow 1665   1.862   2.416   1.712 -0.6822  0.2093 -0.4762
  417SOL     hw 1666   1.839   2.507   1.697 -0.2835  0.2833 -0.6627
  417SOL     hw 1667   1.779   2.369   1.712 -0.9355  0.6426  0.1261
  417SOL     vw 1668   1.848   2.422   1.710 -0.6630  0.2761 -0.4213
  418SOL     ow 1669   4.245   0.969   5.078 -0.4347  0.1896  0.0836
  418SOL     hw 1670   4.293   1.051   5.086 -1.4440  0.9000 -0.7309
  418SOL     hw 1671   4.290   0.908   5.137  0.0468  1.4566  1.0732
  418SOL     vw 1672   4.257   0.972   5.087 -0.5045  0.4505  0.1068
  419SOL     ow 1673   4.445   6.551   4.491 -0.2094  0.1708  0.2961
  419SOL     hw 1674   4.463   6.571   4.583  2.0109 -0.5402  0.0677
  419SOL     hw 1675   4.520   6.586   4.443  1.5639 -4.1915 -0.6122
  419SOL     vw 1676   4.457   6.558   4.497  0.3173 -0.4985  0.1459
  420SOL     ow 1677   1.753   6.946   6.398 -0.0643  0.1649 -0.4028
  420SOL     hw 1678   1.692   6.946   6.324 -0.6479 -0.2903  0.0655
  420SOL     hw 1679   1.839   6.940   6.357 -0.2806  1.4627 -1.1024
  420SOL     vw 1680   1.756   6.945   6.383 -0.1699  0.2761 -0.4332
  421SOL     ow 1681   2.943   2.813   4.507 -0.1558 -0.0433  0.0448
  421SOL     hw 1682   2.888   2.790   4.582  0.3768 -1.2455  0.1007
  421SOL     hw 1683   3.033   2.798   4.538  0.1619  0.9645 -0.3465
  421SOL     vw 1684   2.948   2.808   4.521 -0.0436 -0.0691  0.0005
  422SOL     ow 1685   3.012   5.710   3.251 -0.1682 -0.4993  0.3820
  422SOL     hw 1686   2.952   5.658   3.197 -0.1313 -0.5169  0.3582
  422SOL     hw 1687   3.082   5.736   3.191  0.1191 -0.9167  0.5340
  422SOL     vw 1688   3.013   5.707   3.236 -0.1255 -0.5565  0.3989
  423SOL     ow 1689   0.479   2.741   1.823 -0.4238  0.2487  0.0966
  423SOL     hw 1690   0.443   2.671   1.877 -0.9992 -1.3170 -2.1904
  423SOL     hw 1691   0.572   2.719   1.816 -0.3307  0.5032  0.4963
  423SOL     vw 1692   0.487   2.729   1.829 -0.4874  0.0757 -0.1524
  424SOL     ow 1693   2.661   1.729   4.699  0.0352 -0.1183 -0.4371
  424SOL     hw 1694   2.581   1.687   4.669  0.2631 -0.4395 -0.5937
  424SOL     hw 1695   2.711   1.659   4.741 -0.7739  0.5227  1.7590
  424SOL     vw 1696   2.657   1.715   4.701 -0.0415 -0.0761 -0.1681
  425SOL     ow 1697   5.916   5.976   1.190 -0.1788 -0.6721  0.1091
  425SOL     hw 1698   5.871   5.937   1.265 -1.5188  0.1153 -0.2559
  425SOL     hw 1699   5.881   6.064   1.184  2.6608  0.6214  0.7990
  425SOL     vw 1700   5.906   5.982   1.199  0.0191 -0.3972  0.1519
  426SOL     ow 1701   3.845   6.921   6.304  0.4892 -0.0906  0.3095
  426SOL     hw 1702   3.809   7.004   6.273 -0.0504 -0.2180  0.5867
  426SOL     hw 1703   3.901   6.945   6.378  1.0687  0.1178 -0.1856
  426SOL     vw 1704   3.848   6.935   6.309  0.4945 -0.0801  0.2806
  427SOL     ow 1705   1.543   3.416   2.252 -0.8934 -0.8353 -0.4127
  427SOL     hw 1706   1.590   3.497   2.236  0.9993 -1.4450  1.5963
  427SOL     hw 1707   1.478   3.439   2.319  1.8958 -1.5060  2.7913
  427SOL     vw 1708   1.540   3.430   2.259 -0.2756 -1.0042  0.2751
  428SOL     ow 1709   4.028   4.465   5.177 -0.3225 -0.2185  0.0989
  428SOL     hw 1710   4.010   4.372   5.183  1.1739 -0.5014  0.6404
  428SOL     hw 1711   3.972   4.497   5.107 -1.2487 -1.4161  0.2818
  428SOL     vw 1712   4.019   4.457   5.169 -0.2475 -0.4141  0.1943
  429SOL     ow 1713   0.301   0.283   5.741  0.2000 -0.2560 -0.9894
  429SOL     hw 1714   0.382   0.299   5.692  0.6967  0.1193 -0.0609
  429SOL     hw 1715   0.258   0.211   5.693  2.4072 -2.3827  0.0239
  429SOL     vw 1716   0.306   0.276   5.728  0.5567 -0.4871 -0.7331
  430SOL     ow 1717   6.041   5.617   4.588  0.8654  0.3504  0.0203
  430SOL     hw 1718   5.948   5.593   4.593  0.9547  0.0280  0.0899
  430SOL     hw 1719   6.049   5.689   4.651  0.6547  0.4046 -0.0119
  430SOL     vw 1720   6.030   5.624   4.597  0.8492  0.3150  0.0255
  431SOL     ow 1721   0.694   2.315   3.216  0.1370 -0.0682 -0.3014
  431SOL     hw 1722   0.618   2.363   3.183  0.5554  0.0272 -1.1635
  431SOL     hw 1723   0.701   2.341   3.308 -2.5251 -2.2452  0.6185
  431SOL     vw 1724   0.685   2.325   3.224 -0.1591 -0.3431 -0.2937
  432SOL     ow 1725   2.471   3.185   7.036  0.1486  0.1203 -0.1754
  432SOL     hw 1726   2.404   3.252   7.021  0.7585  0.8029  0.0444
  432SOL     hw 1727   2.482   3.183   7.131 -0.4476 -0.8983 -0.1133
  432SOL     vw 1728   2.464   3.194   7.047  0.1504  0.0759 -0.1383
  433SOL     ow 1729   6.753   1.912   1.719  0.2503 -0.2334 -0.6355
  433SOL     hw 1730   6.843   1.897   1.691  0.8802  0.2632  0.9826
  433SOL     hw 1731   6.752   2.003   1.748 -0.7695 -0.2370 -0.6172
  433SOL     vw 1732   6.765   1.922   1.719  0.1988 -0.1683 -0.4196
  434SOL     ow 1733   3.564   5.134   1.962  0.1447 -0.3726 -0.0658
  434SOL     hw 1734   3.618   5.086   1.899 -1.2793 -0.1076 -1.5630
  434SOL     hw 1735   3.537   5.213   1.915 -0.4084  0.1816  1.1323
  434SOL     vw 1736   3.567   5.138   1.947 -0.1162 -0.2649 -0.1053
  435SOL     ow 1737   1.776   5.996   5.513 -0.0613 -0.0880  0.5649
  435SOL     hw 1738   1.706   6.009   5.576 -0.4532 -0.1693  0.1525
  435SOL     hw 1739   1.833   6.072   5.524  0.3655 -0.5526  1.6365
  435SOL     vw 1740   1.774   6.008   5.523 -0.0567 -0.1600  0.6518
  436SOL     ow 1741   6.965   4.203   1.811 -0.3837  0.0299  0.0788
  436SOL     hw 1742   7.055   4.201   1.843 -0.6481  2.2192  1.0940
  436SOL     hw 1743   6.914   4.162   1.881 -0.2983 -0.4243 -0.1189
  436SOL     vw 1744   6.970   4.197   1.824 -0.4070  0.2589  0.1867
  437SOL     ow 1745   1.735   3.862   1.530 -0.4665  0.0652  0.5178
  437SOL     hw 1746   1.715   3.793   1.593 -3.0111 -0.1058 -0.3511
  437SOL     hw 1747   1.717   3.823   1.444 -1.6573  1.6509 -0.0151
  437SOL     vw 1748   1.730   3.848   1.527 -0.9594  0.2518  0.3330
  438SOL     ow 1749   5.658   0.193   3.537 -0.3845  0.3405  0.1286
  438SOL     hw 1750   5.587   0.211   3.475 -1.0182  0.1640  0.7924
  438SOL     hw 1751   5.673   0.277   3.581 -0.8564  0.1498  0.6696
  438SOL     vw 1752   5.651   0.207   3.534 -0.5302  0.2921  0.2877
  439SOL     ow 1753   3.478   1.723   6.291  1.4010  0.3117  0.9126
  439SOL     hw 1754   3.389   1.749   6.269  1.0365 -0.2814  1.6485
  439SOL     hw 1755   3.468   1.658   6.360  2.3775 -0.2102  0.5881
  439SOL     vw 1756   3.465   1.718   6.297  1.4819  0.1646  0.9668
  440SOL     ow 1757   2.967   3.410   5.093  0.0984  0.1265 -0.1077
  440SOL     hw 1758   2.995   3.350   5.161  0.2481  2.3026  1.9074
  440SOL     hw 1759   2.875   3.389   5.079  0.2302 -0.7675  0.3166
  440SOL     vw 1760   2.958   3.400   5.100  0.1355  0.2956  0.2141
  441SOL     ow 1761   1.524   3.118   4.334 -0.2592  1.0319  0.4883
  441SOL     hw 1762   1.571   3.104   4.251  0.2756 -0.2142  0.9835
  441SOL     hw 1763   1.448   3.060   4.328 -0.9212  1.8862  0.3551
  441SOL     vw 1764   1.520   3.109   4.322 -0.2760  0.9801  0.5360
  442SOL     ow 1765   1.419   0.692   5.466  0.5164  0.1847  0.7478
  442SOL     hw 1766   1.460   0.732   5.389 -0.1453  0.3584  0.4846
  442SOL     hw 1767   1.488   0.638   5.504  0.9440  0.3470  0.2151
  442SOL     vw 1768   1.434   0.690   5.461  0.4854  0.2291  0.6430
  443SOL     ow 1769   0.325   1.136   5.298 -0.3366 -0.4020  0.4991
  443SOL     hw 1770   0.257   1.191   5.259 -0.8631 -1.1752  0.2847
  443SOL     hw 1771   0.332   1.167   5.388 -2.0005 -1.2150  0.9432
  443SOL     vw 1772   0.317   1.147   5.305 -0.6256 -0.6113  0.5295
  444SOL     ow 1773   1.549   1.046   2.971  0.3421  0.0171  0.2353
  444SOL     hw 1774   1.631   1.016   2.933 -0.5895  0.0221 -1.9549
  444SOL     hw 1775   1.484   1.033   2.901 -0.8445  3.4122  0.5110
  444SOL     vw 1776   1.551   1.041   2.957  0.0626  0.4656 -0.0174
  445SOL     ow 1777   3.366   3.943   3.368  0.2595 -0.3237 -0.0133
  445SOL     hw 1778   3.391   3.866   3.318 -2.2151 -0.8160 -0.6082
  445SOL     hw 1779   3.416   3.936   3.450  2.7111 -0.6414 -1.4307
  445SOL     vw 1780   3.376   3.932   3.372  0.2564 -0.4306 -0.2789
  446SOL     ow 1781   6.335   6.837   2.118 -0.5604  0.2092  0.2150
  446SOL     hw 1782   6.328   6.755   2.165  0.6639  0.0715  0.1763
  446SOL     hw 1783   6.414   6.878   2.152  0.0176  0.3849 -1.2673
  446SOL     vw 1784   6.344   6.832   2.129 -0.3226  0.2141  0.0143
  447SOL     ow 1785   6.026   4.014   6.562  0.7284 -0.1474  0.4892
  447SOL     hw 1786   5.994   3.974   6.481 -1.6306  0.7583  0.9176
  447SOL     hw 1787   6.090   4.079   6.532 -0.5906  0.6450 -0.7510
  447SOL     vw 1788   6.030   4.017   6.547  0.2434  0.0768  0.3822
  448SOL     ow 1789   5.999   3.143   2.596  0.1277 -0.5460  0.8518
  448SOL     hw 1790   5.964   3.152   2.507  0.0224 -2.9893  0.5742
  448SOL     hw 1791   5.924   3.158   2.653  0.3493  1.8125  0.6434
  448SOL     vw 1792   5.985   3.146   2.592  0.1428 -0.5573  0.7877
  449SOL     ow 1793   4.778   5.933   1.649 -0.1182 -0.4890 -0.5912
  449SOL     hw 1794   4.699   5.984   1.634  1.4622  2.0312 -0.9331
  449SOL     hw 1795   4.800   5.950   1.741  0.3472 -0.6642 -0.6661
  449SOL     vw 1796   4.771   5.942   1.659  0.1519 -0.1798 -0.6462
  450SOL     ow 1797   0.316   1.415   4.774  0.0019 -0.3723  0.1362
  450SOL     hw 1798   0.282   1.498   4.741 -0.8060 -0.5058  0.5941
  450SOL     hw 1799   0.409   1.416   4.751 -0.6233 -0.7508 -2.6910
  450SOL     vw 1800   0.324   1.426   4.767 -0.1872 -0.4398 -0.1764
  451SOL     ow 1801   5.535   0.834   3.530  0.2773 -0.1175 -0.1519
  451SOL     hw 1802   5.450   0.867   3.561 -0.2213 -0.0268 -1.5061
  451SOL     hw 1803   5.569   0.782   3.602 -1.4679 -1.0928  0.0237
  451SOL     vw 1804   5.528   0.832   3.544 -0.0188 -0.2342 -0.3074
  452SOL     ow 1805   0.606   6.951   3.526  0.6396  0.7188 -0.1338
  452SOL     hw 1806   0.618   6.898   3.605 -0.7523  0.7649  0.1220
  452SOL     hw 1807   0.694   6.957   3.489  1.0736 -0.5903  0.5870
  452SOL     vw 1808   0.620   6.945   3.531  0.5132  0.5522 -0.0048
  453SOL     ow 1809   3.945   5.868   1.270 -0.2787 -0.5189  0.4372
  453SOL     hw 1810   4.008   5.941   1.268 -0.6144 -0.2220  0.6077
  453SOL     hw 1811   3.896   5.881   1.351 -1.3391 -0.0773 -0.2534
  453SOL     vw 1812   3.947   5.880   1.280 -0.4630 -0.4215  0.3685
  454SOL     ow 1813   5.022   4.684   5.212  0.3104 -0.0458  0.0448
  454SOL     hw 1814   4.996   4.775   5.200 -1.9245 -0.5235  0.6165
  454SOL     hw 1815   5.113   4.687   5.240 -0.4037  2.1946  2.4967
  454SOL     vw 1816   5.030   4.696   5.214 -0.0784  0.1872  0.4437
  455SOL     ow 1817   0.758   5.672   0.685 -0.1434 -0.4107  0.1054
  455SOL     hw 1818   0.699   5.612   0.730 -0.1487 -1.0253 -0.6950
  455SOL     hw 1819   0.768   5.634   0.597 -1.0301  1.3430 -0.8106
  455SOL     vw 1820   0.752   5.659   0.679 -0.2611 -0.2604 -0.1210
  456SOL     ow 1821   5.324   5.801   1.784 -0.4562  0.2077 -0.2027
  456SOL     hw 1822   5.408   5.830   1.818  1.0313 -2.0437 -1.7132
  456SOL     hw 1823   5.281   5.760   1.859  1.7515 -2.5737 -0.2948
  456SOL     vw 1824   5.329   5.800   1.799  0.0312 -0.4563 -0.4141
  457SOL     ow 1825   2.941   2.279   2.533  0.1375  0.0930  0.0610
  457SOL     hw 1826   2.890   2.249   2.608  0.1431  0.4985  0.2313
  457SOL     hw 1827   3.032   2.260   2.557  0.0903 -0.3137 -0.0932
  457SOL     vw 1828   2.946   2.273   2.546  0.1318  0.0929  0.0632
  458SOL     ow 1829   3.281   1.426   1.713  0.3331 -0.6774 -0.4476
  458SOL     hw 1830   3.352   1.459   1.768 -0.3648  0.8151 -0.3936
  458SOL     hw 1831   3.221   1.382   1.773 -0.0202  0.2449 -0.0965
  458SOL     vw 1832   3.283   1.425   1.728  0.1942 -0.3588 -0.3941
  459SOL     ow 1833   5.995   0.643   5.972  0.0376  0.1894 -0.0600
  459SOL     hw 1834   6.000   0.620   6.065 -0.5071  0.9466  0.1673
  459SOL     hw 1835   5.901   0.645   5.953  0.1554 -2.1703 -1.2104
  459SOL     vw 1836   5.984   0.641   5.982 -0.0186 -0.0220 -0.1817
  460SOL     ow 1837   6.202   2.865   0.962 -0.0589 -0.1737 -0.3683
  460SOL     hw 1838   6.286   2.830   0.992  0.4672  0.7246 -0.7510
  460SOL     hw 1839   6.179   2.932   1.026  0.3825  0.7755 -1.1703
  460SOL     vw 1840   6.210   2.869   0.974  0.0687  0.0701 -0.5246
  461SOL     ow 1841   2.784   6.407   4.161  0.8879 -0.2063 -0.2814
  461SOL     hw 1842   2.771   6.397   4.255  0.6986  0.3481 -0.2476
  461SOL     hw 1843   2.713   6.464   4.132  0.8721 -0.4683 -0.7841
  461SOL     vw 1844   2.773   6.413   4.169  0.8608 -0.1678 -0.3431
  462SOL     ow 1845   3.837   1.660   7.019 -0.4134 -0.4884 -0.1526
  462SOL     hw 1846   3.751   1.626   7.044 -0.3778 -1.6225 -1.4205
  462SOL     hw 1847   3.846   1.741   7.067 -2.2026 -0.3389  0.0022
  462SOL     vw 1848   3.827   1.666   7.028 -0.6448 -0.6183 -0.2997
  463SOL     ow 1849   6.048   5.466   4.195 -0.2008 -0.9015 -0.1532
  463SOL     hw 1850   5.968   5.423   4.226  0.1416 -1.9788 -0.6875
  463SOL     hw 1851   6.093   5.398   4.144  0.6013 -0.0315 -0.6391
  463SOL     vw 1852   6.043   5.451   4.192 -0.0496 -0.9291 -0.2878
  464SOL     ow 1853   0.511   1.160   6.934  0.0929 -0.6463 -0.4077
  464SOL     hw 1854   0.587   1.104   6.952  0.6513 -0.2585 -1.4854
  464SOL     hw 1855   0.534   1.244   6.975  0.2440 -0.5364 -0.7135
  464SOL     vw 1856   0.524   1.164   6.942  0.1865 -0.5807 -0.5901
  465SOL     ow 1857   5.886   0.333   4.778 -0.3215 -0.2483  0.6004
  465SOL     hw 1858   5.795   0.362   4.772  0.1475  1.4256  0.9626
  465SOL     hw 1859   5.882   0.255   4.834 -1.5894 -0.6332  0.0313
  465SOL     vw 1860   5.873   0.326   4.785 -0.4270 -0.0782  0.5729
  466SOL     ow 1861   3.198   1.529   1.457  0.2686 -0.8517  0.2726
  466SOL     hw 1862   3.234   1.478   1.529 -0.2174  0.6994  1.6747
  466SOL     hw 1863   3.251   1.505   1.381  2.9644 -0.1866  1.8140
  466SOL     vw 1864   3.210   1.519   1.457  0.5602 -0.5593  0.6609
  467SOL     ow 1865   6.807   2.131   5.017  0.0958 -0.5514 -0.5311
  467SOL     hw 1866   6.837   2.091   4.936 -1.6613  0.3428 -1.6884
  467SOL     hw 1867   6.743   2.197   4.989 -0.0715  0.2416  1.5429
  467SOL     vw 1868   6.802   2.135   5.003 -0.1581 -0.3287 -0.4101
  468SOL     ow 1869   2.975   0.284   2.811  0.4482 -0.3338 -0.0690
  468SOL     hw 1870   3.036   0.291   2.884  1.2986  0.6783 -0.8293
  468SOL     hw 1871   2.993   0.199   2.772 -0.9596 -1.4853  1.6698
  468SOL     vw 1872   2.985   0.274   2.815  0.3747 -0.3522  0.0603
  469SOL     ow 1873   5.140   3.502   1.567  0.3756 -0.2984 -0.0352
  469SOL     hw 1874   5.211   3.492   1.630 -1.4823  0.0406  2.2242
  469SOL     hw 1875   5.110   3.412   1.550  0.8916 -0.3907 -0.5001
  469SOL     vw 1876   5.146   3.489   1.573  0.1986 -0.2658  0.2015
  470SOL     ow 1877   0.359   6.079   3.561 -0.1043  0.2707 -0.0306
  470SOL     hw 1878   0.347   6.144   3.492  0.9585  0.1719 -0.3193
  470SOL     hw 1879   0.301   6.108   3.632  1.2748  2.2258  0.3500
  470SOL     vw 1880   0.349   6.091   3.561  0.2179  0.5157 -0.0186
  471SOL     ow 1881   2.921   6.281   3.907 -0.1705 -0.0079  1.2679
  471SOL     hw 1882   2.877   6.196   3.902  2.1604 -1.2445 -0.4845
  471SOL     hw 1883   2.909   6.318   3.819 -0.1246  0.9324  1.6551
  471SOL     vw 1884   2.913   6.274   3.894  0.1431 -0.0470  1.0877
  472SOL     ow 1885   0.567   1.243   3.815 -0.4079 -0.3208 -0.5630
  472SOL     hw 1886   0.662   1.258   3.814 -0.6240  1.6546  1.5046
  472SOL     hw 1887   0.534   1.290   3.739  0.0281  1.2831  0.2074
  472SOL     vw 1888   0.576   1.251   3.805 -0.3789  0.1516 -0.1886
  473SOL     ow 1889   0.506   0.977   3.744 -0.2399  0.1592 -0.6095
  473SOL     hw 1890   0.589   0.965   3.698  0.3984  0.6464  0.3683
  473SOL     hw 1891   0.496   1.072   3.750 -0.6797  0.1014 -0.3900
  473SOL     vw 1892   0.515   0.988   3.739 -0.2137  0.2159 -0.4516
  474SOL     ow 1893   6.236   3.006   0.718  0.2326 -0.2590 -0.7275
  474SOL     hw 1894   6.305   3.048   0.769 -0.0561  0.7423 -1.1400
  474SOL     hw 1895   6.272   2.998   0.630 -0.1935  0.3244 -0.9584
  474SOL     vw 1896   6.250   3.010   0.713  0.1383 -0.0499 -0.8124
  475SOL     ow 1897   1.916   1.452   4.058  0.5446 -0.3982  0.0006
  475SOL     hw 1898   1.837   1.502   4.079 -0.0506 -0.3258 -2.1899
  475SOL     hw 1899   1.886   1.362   4.053  0.3757 -0.2650 -1.7381
  475SOL     vw 1900   1.901   1.447   4.060  0.4438 -0.3711 -0.5178
  476SOL     ow 1901   1.271   6.744   1.443 -0.5406  0.3211 -0.1423
  476SOL     hw 1902   1.194   6.732   1.499 -1.2771 -0.8417 -1.3349
  476SOL     hw 1903   1.248   6.820   1.388 -0.1226  1.0092  0.6198
  476SOL     vw 1904   1.257   6.752   1.443 -0.5826  0.2584 -0.1991
  477SOL     ow 1905   5.171   1.468   0.075 -0.7975 -0.2377  0.0803
  477SOL     hw 1906   5.263   1.478   0.051 -0.4555 -0.0516  1.3459
  477SOL     hw 1907   5.159   1.528   0.149 -2.7434  2.0093 -1.9134
  477SOL     vw 1908   5.182   1.477   0.082 -1.0092  0.0833 -0.0158
  478SOL     ow 1909   1.051   1.546   0.222 -0.3097 -0.1163 -0.5118
  478SOL     hw 1910   1.024   1.467   0.268 -0.0928 -1.9907 -3.3068
  478SOL     hw 1911   1.124   1.517   0.166  1.2399  2.5961 -0.0766
  478SOL     vw 1912   1.057   1.532   0.221 -0.0766 -0.0057 -0.8231
  479SOL     ow 1913   5.117   2.060   6.956 -0.7164 -0.0973  0.2038
  479SOL     hw 1914   5.188   2.007   6.920 -1.3947 -3.2168  3.0069
  479SOL     hw 1915   5.038   2.020   6.921 -1.2290 -0.3023  1.5526
  479SOL     vw 1916   5.116   2.048   6.946 -0.8736 -0.5360  0.7515
  480SOL     ow 1917   0.287   4.886   6.074 -0.6880  0.2680 -0.1761
  480SOL     hw 1918   0.369   4.860   6.116 -0.7991 -1.5463 -0.9891
  480SOL     hw 1919   0.226   4.815   6.092 -1.6296  0.8583 -0.8812
  480SOL     vw 1920   0.290   4.873   6.082 -0.8269  0.1063 -0.3765
  481SOL     ow 1921   3.620   0.365   6.766 -0.5190  0.4369  0.1474
  481SOL     hw 1922   3.646   0.436   6.825  0.7721  0.0382  0.0846
  481SOL     hw 1923   3.696   0.351   6.710 -0.3350 -1.7053  0.8573
  481SOL     vw 1924   3.634   0.372   6.767 -0.3242  0.1016  0.2327
  482SOL     ow 1925   6.331   6.022   5.868  0.1465 -0.3120  0.0033
  482SOL     hw 1926   6.267   6.093   5.864 -0.0012 -0.4625 -0.2896
  482SOL     hw 1927   6.414   6.063   5.844 -0.1783 -0.5314 -1.5922
  482SOL     vw 1928   6.333   6.037   5.865  0.0842 -0.3610 -0.2458
  483SOL     ow 1929   3.616   5.203   5.699 -0.3660  0.3861  0.1032
  483SOL     hw 1930   3.588   5.294   5.705 -0.9138  0.1589  1.2715
  483SOL     hw 1931   3.540   5.153   5.729  0.0516 -0.4396 -0.1843
  483SOL     vw 1932   3.602   5.208   5.704 -0.3831  0.2472  0.2196
  484SOL     ow 1933   1.919   2.214   6.302  0.3264  0.2064  0.4767
  484SOL     hw 1934   1.842   2.226   6.358  0.4773  0.0103  0.7263
  484SOL     hw 1935   1.914   2.286   6.239 -0.6155 -0.3784 -0.1419
  484SOL     vw 1936   1.908   2.225   6.301  0.2220  0.1034  0.4282
  485SOL     ow 1937   0.318   3.767   0.139  0.6218  0.3381 -0.0986
  485SOL     hw 1938   0.366   3.807   0.066 -0.2624  1.1063 -0.2832
  485SOL     hw 1939   0.253   3.711   0.097  0.8836 -0.1538  0.1381
  485SOL     vw 1940   0.316   3.765   0.124  0.5397  0.3746 -0.0917
  486SOL     ow 1941   2.716   2.709   5.992 -0.1828 -0.2643  0.8234
  486SOL     hw 1942   2.757   2.683   6.074  1.0272 -0.1427  0.2875
  486SOL     hw 1943   2.727   2.804   5.988 -0.4764 -0.2371  0.6591
  486SOL     vw 1944   2.723   2.718   6.002 -0.0619 -0.2447  0.7310
  487SOL     ow 1945   5.169   0.684   3.053 -0.6257 -0.0556 -0.4182
  487SOL     hw 1946   5.187   0.692   3.147 -0.2880 -0.5410 -0.4357
  487SOL     hw 1947   5.161   0.774   3.022  2.2353  0.2594 -0.4831
  487SOL     vw 1948   5.170   0.697   3.061 -0.2038 -0.0781 -0.4289
  488SOL     ow 1949   6.541   4.261   1.495 -0.6237 -0.1903  0.1099
  488SOL     hw 1950   6.502   4.196   1.553  0.9773 -0.6601  0.7137
  488SOL     hw 1951   6.618   4.292   1.542  1.1654 -1.1218 -2.0266
  488SOL     vw 1952   6.546   4.257   1.509 -0.1764 -0.3750 -0.0923
  489SOL     ow 1953   4.768   4.156   6.826 -0.2785  0.0795 -0.1934
  489SOL     hw 1954   4.834   4.113   6.879 -0.6262  1.0534  1.0919
  489SOL     hw 1955   4.717   4.208   6.888 -2.1920 -0.5359 -1.1476
  489SOL     vw 1956   4.770   4.157   6.841 -0.5770  0.1268 -0.1495
  490SOL     ow 1957   6.059   2.952   6.871  0.1664  0.1528 -0.4729
  490SOL     hw 1958   6.106   2.962   6.788 -0.9566  1.5821 -0.9764
  490SOL     hw 1959   6.031   3.040   6.894 -1.0743 -0.4578  0.5008
  490SOL     vw 1960   6.061   2.965   6.863 -0.1452  0.2608 -0.4108
  491SOL     ow 1961   4.897   2.614   6.501  0.1195 -0.0986 -0.3257
  491SOL     hw 1962   4.830   2.552   6.530  0.2418  0.0585  0.2987
  491SOL     hw 1963   4.955   2.562   6.445  0.5709 -0.7177  0.6802
  491SOL     vw 1964   4.896   2.599   6.498  0.1950 -0.1596 -0.1109
  492SOL     ow 1965   2.191   3.337   4.597 -0.2024  0.1550  0.1670
  492SOL     hw 1966   2.264   3.381   4.553 -0.6990 -0.5047 -1.4327
  492SOL     hw 1967   2.122   3.333   4.530 -1.1804 -0.5047  1.1751
  492SOL     vw 1968   2.191   3.342   4.582 -0.3970 -0.0190  0.0892
  493SOL     ow 1969   2.073   4.862   3.209  0.6168  0.1915  0.3472
  493SOL     hw 1970   1.979   4.858   3.192  0.6261 -0.1497  0.3658
  493SOL     hw 1971   2.079   4.878   3.303  0.5766  0.7313  0.2634
  493SOL     vw 1972   2.061   4.863   3.219  0.6127  0.2177  0.3387
  494SOL     ow 1973   6.210   2.617   4.235 -0.2836 -0.1268  0.3271
  494SOL     hw 1974   6.251   2.683   4.291  0.4237  1.0914 -1.5261
  494SOL     hw 1975   6.122   2.651   4.218 -0.1998 -0.0701  0.0113
  494SOL     vw 1976   6.204   2.630   4.240 -0.1791  0.0414  0.0410
  495SOL     ow 1977   3.728   3.465   2.617 -0.1207  0.5216 -0.3895
  495SOL     hw 1978   3.819   3.446   2.598 -0.1110 -1.6298  1.3689
  495SOL     hw 1979   3.730   3.518   2.697 -0.3963  1.0537 -0.7311
  495SOL     vw 1980   3.740   3.469   2.625 -0.1558  0.3079 -0.2025
  496SOL     ow 1981   3.926   1.824   2.306  0.3526  0.1462  0.2582
  496SOL     hw 1982   3.839   1.834   2.267  0.1653  0.1414  0.6726
  496SOL     hw 1983   3.910   1.813   2.400  0.7342 -0.9119  0.2162
  496SOL     vw 1984   3.912   1.824   2.313  0.3784  0.0059  0.3076
  497SOL     ow 1985   5.586   2.185   4.092 -0.2314  0.8856 -0.0423
  497SOL     hw 1986   5.676   2.160   4.070 -0.6650 -0.3498 -0.5270
  497SOL     hw 1987   5.575   2.272   4.055  0.3646  0.5129 -1.1562
  497SOL     vw 1988   5.596   2.193   4.084 -0.2098  0.6732 -0.2530
  498SOL     ow 1989   3.598   4.146   5.630  0.2845  1.0561  0.0167
  498SOL     hw 1990   3.550   4.064   5.619  0.8152  1.0286 -3.1468
  498SOL     hw 1991   3.678   4.121   5.676 -0.5471  0.2543  1.0716
  498SOL     vw 1992   3.603   4.132   5.635  0.2447  0.9465 -0.2615
  499SOL     ow 1993   2.225   0.090   5.541 -0.8258 -0.5666  0.2673
  499SOL     hw 1994   2.289   0.030   5.580 -0.2127  0.0129  0.1669
  499SOL     hw 1995   2.197   0.046   5.460  2.7292  1.0207 -2.0827
  499SOL     vw 1996   2.229   0.076   5.535 -0.2760 -0.2807 -0.0558
  500SOL     ow 1997   2.280   6.743   1.180 -0.3292 -0.2926 -0.2635
  500SOL     hw 1998   2.336   6.736   1.257  1.4295  1.0919 -1.3344
  500SOL     hw 1999   2.215   6.809   1.203 -0.3848 -0.5616  0.3544
  500SOL     vw 2000   2.279   6.751   1.193 -0.1045 -0.1457 -0.3233
  501SOL     ow 2001   2.252   3.271   5.596  0.3186  0.1291 -0.5409
  501SOL     hw 2002   2.210   3.245   5.678 -1.2250 -1.7776 -1.8416
  501SOL     hw 2003   2.338   3.229   5.599  0.0175 -0.4767 -0.1601
  501SOL     vw 2004   2.258   3.262   5.607  0.0752 -0.2025 -0.6618
  502SOL     ow 2005   6.216   2.964   3.328 -0.7644 -0.1850  0.6834
  502SOL     hw 2006   6.210   2.877   3.289 -2.3756  0.4733 -0.6764
  502SOL     hw 2007   6.231   3.023   3.253 -1.3412  0.8510  1.3558
  502SOL     vw 2008   6.217   2.960   3.313 -1.0531  0.0386  0.5927
  503SOL     ow 2009   5.229   2.178   1.310  0.1360 -0.3158  0.1225
  503SOL     hw 2010   5.306   2.229   1.283  1.3908 -2.1347  0.0770
  503SOL     hw 2011   5.227   2.104   1.248 -0.9233 -0.9445  0.8780
  503SOL     vw 2012   5.239   2.175   1.298  0.1619 -0.6387  0.2162
  504SOL     ow 2013   1.133   0.032   0.568  0.7397 -0.3321 -0.4392
  504SOL     hw 2014   1.070  -0.038   0.554  1.8117 -0.8134 -3.7677
  504SOL     hw 2015   1.099   0.081   0.643 -1.5036 -2.7454  0.2574
  504SOL     vw 2016   1.121   0.029   0.576  0.5852 -0.7140 -0.7864
  505SOL     ow 2017   0.729   1.772   0.717  0.2798 -0.8516  0.5905
  505SOL     hw 2018   0.737   1.678   0.701  0.0214 -0.7274 -0.3520
  505SOL     hw 2019   0.670   1.803   0.648 -4.0735 -0.8370  3.9551
  505SOL     vw 2020   0.723   1.764   0.706 -0.3287 -0.8333  0.9100
  506SOL     ow 2021   1.158   3.663   3.541  0.5977  0.2054  0.6406
  506SOL     hw 2022   1.224   3.595   3.527  0.3773 -0.3604  2.1683
  506SOL     hw 2023   1.203   3.745   3.523  1.5407 -0.2127  1.0336
  506SOL     vw 2024   1.172   3.665   3.537  0.6931  0.0756  0.8940
  507SOL     ow 2025   4.159   0.749   6.951  1.0894 -0.0457 -0.2803
  507SOL     hw 2026   4.069   0.758   6.920  0.2605 -1.1091  1.6356
  507SOL     hw 2027   4.194   0.838   6.949 -0.6498  0.7226  0.7126
  507SOL     vw 2028   4.152   0.762   6.947  0.7503 -0.0846  0.1032
  508SOL     ow 2029   0.399   5.997   5.554  0.1873  0.7296  0.2290
  508SOL     hw 2030   0.475   6.053   5.568 -1.8577  3.1547  2.5028
  508SOL     hw 2031   0.419   5.916   5.602  3.0186 -0.6267 -2.7970
  508SOL     vw 2032   0.411   5.993   5.562  0.2911  0.8705  0.1299
  509SOL     ow 2033   0.760   1.517   6.609 -0.0362  0.2392  0.2960
  509SOL     hw 2034   0.669   1.531   6.585  0.0385  2.2674  1.0120
  509SOL     hw 2035   0.792   1.604   6.634  0.5850 -1.1085  5.1763
  509SOL     vw 2036   0.752   1.531   6.609  0.0556  0.3290  1.0343
  510SOL     ow 2037   2.980   5.992   2.613  0.3965 -0.1498  0.1875
  510SOL     hw 2038   3.064   5.997   2.569  0.6374  0.2339  0.6887
  510SOL     hw 2039   2.959   5.898   2.614  0.6233 -0.2064 -0.2899
  510SOL     vw 2040   2.988   5.980   2.608  0.4582 -0.1066  0.1906
  511SOL     ow 2041   6.942   2.209   4.326  0.7216 -0.9349 -0.3775
  511SOL     hw 2042   6.944   2.239   4.417 -1.9509  0.6278 -0.7448
  511SOL     hw 2043   6.900   2.124   4.329 -0.4234 -0.3774 -0.2329
  511SOL     vw 2044   6.937   2.202   4.338  0.2179 -0.6551 -0.4070
  512SOL     ow 2045   2.775   5.936   4.933 -0.1533  0.8231  0.0274
  512SOL     hw 2046   2.831   5.902   4.863 -1.6468  0.3859 -0.9868
  512SOL     hw 2047   2.715   5.865   4.954  1.1051  0.4272  2.7742
  512SOL     vw 2048   2.775   5.922   4.927 -0.1844  0.7131  0.2558
  513SOL     ow 2049   1.238   3.934   1.985  0.2971  0.8006  0.5645
  513SOL     hw 2050   1.275   3.957   1.899  0.0854 -0.5221  0.1002
  513SOL     hw 2051   1.293   3.982   2.048  1.4222  0.6132 -0.2340
  513SOL     vw 2052   1.250   3.943   1.982  0.4176  0.6014  0.3979
  514SOL     ow 2053   5.502   5.782   1.247  0.4515 -0.2590  0.0342
  514SOL     hw 2054   5.432   5.725   1.279  1.5154 -1.0988  0.9816
  514SOL     hw 2055   5.565   5.784   1.320  0.6312  1.8276 -0.1298
  514SOL     vw 2056   5.501   5.775   1.261  0.6154 -0.0947  0.1376
  515SOL     ow 2057   4.959   4.960   0.713 -0.4624 -0.6545  0.2776
  515SOL     hw 2058   5.043   4.986   0.752 -0.1545  1.6333 -1.7075
  515SOL     hw 2059   4.971   4.973   0.619 -2.8099 -1.0139 -0.1275
  515SOL     vw 2060   4.972   4.965   0.706 -0.7315 -0.4001 -0.0378
  516SOL     ow 2061   5.721   4.617   4.112 -0.2914 -0.3678 -0.0076
  516SOL     hw 2062   5.710   4.618   4.017 -1.0843 -0.2409  0.0726
  516SOL     hw 2063   5.815   4.629   4.126 -0.0466 -1.2491 -0.7900
  516SOL     vw 2064   5.732   4.618   4.102 -0.3636 -0.4673 -0.1004
  517SOL     ow 2065   2.462   0.447   6.210 -0.1025 -0.1307  0.2973
  517SOL     hw 2066   2.436   0.539   6.203  1.4870  0.2242 -2.7744
  517SOL     hw 2067   2.381   0.398   6.193 -0.7905  0.6845  1.0979
  517SOL     vw 2068   2.448   0.453   6.207  0.0163  0.0237 -0.0021
  518SOL     ow 2069   3.102   2.714   4.266  0.1921  0.0753  0.9749
  518SOL     hw 2070   3.154   2.635   4.279 -0.0121 -0.0266  1.1722
  518SOL     hw 2071   3.161   2.785   4.290  1.0293  0.1210 -1.0522
  518SOL     vw 2072   3.117   2.713   4.271  0.2757  0.0677  0.7334
  519SOL     ow 2073   5.469   5.479   6.303 -0.7075 -0.4788 -0.2176
  519SOL     hw 2074   5.539   5.519   6.354 -0.1479  1.5209 -2.3944
  519SOL     hw 2075   5.411   5.552   6.281 -3.4362 -2.0184  1.2790
  519SOL     vw 2076   5.470   5.494   6.307 -0.9937 -0.4184 -0.3073
  520SOL     ow 2077   3.933   2.876   3.112  0.8900  1.0947 -0.0484
  520SOL     hw 2078   3.982   2.837   3.039  0.1039 -0.9217  0.4216
  520SOL     hw 2079   3.991   2.867   3.187 -0.6198 -2.9489  0.9061
  520SOL     vw 2080   3.947   2.869   3.112  0.5871  0.2950  0.1395
  521SOL     ow 2081   0.557   2.847   2.392 -0.4094  0.1807  0.5501
  521SOL     hw 2082   0.585   2.878   2.306 -2.5819 -0.2247 -0.3571
  521SOL     hw 2083   0.503   2.917   2.427 -0.9743 -0.3754  0.8120
  521SOL     vw 2084   0.554   2.860   2.385 -0.7706  0.0539  0.4650
  522SOL     ow 2085   6.170   1.630   2.030  0.0244 -0.3624 -0.1371
  522SOL     hw 2086   6.115   1.662   1.958  1.3142 -0.5665 -1.2594
  522SOL     hw 2087   6.111   1.628   2.106 -1.8000 -1.5684 -1.4764
  522SOL     vw 2088   6.155   1.634   2.030 -0.0460 -0.5485 -0.4619
  523SOL     ow 2089   0.080   6.091   1.912  0.3261 -0.2746 -0.3142
  523SOL     hw 2090   0.155   6.059   1.962 -0.6334  0.6800  1.8426
  523SOL     hw 2091   0.098   6.064   1.822  2.9178 -0.6372  0.2460
  523SOL     vw 2092   0.092   6.083   1.907  0.5415 -0.1967  0.0442
  524SOL     ow 2093   2.204   0.761   3.877  0.2597 -0.2243 -0.2211
  524SOL     hw 2094   2.226   0.844   3.919  1.5324 -0.7837  0.2786
  524SOL     hw 2095   2.130   0.781   3.821 -0.4538  0.9138  1.0612
  524SOL     vw 2096   2.197   0.775   3.875  0.3335 -0.1479  0.0141
  525SOL     ow 2097   1.161   6.312   2.093 -0.3523 -0.1833  0.5507
  525SOL     hw 2098   1.230   6.256   2.056  0.4271  0.9670  0.1879
  525SOL     hw 2099   1.082   6.259   2.088 -0.6109  0.2241 -4.0367
  525SOL     vw 2100   1.160   6.298   2.087 -0.2836  0.0222 -0.1024
  526SOL     ow 2101   3.107   5.148   5.216  0.0135  0.8379  0.3856
  526SOL     hw 2102   3.100   5.230   5.265  0.8152 -0.1762  2.2960
  526SOL     hw 2103   3.159   5.170   5.139 -1.8584  2.6310 -0.4640
  526SOL     vw 2104   3.113   5.161   5.213 -0.1278  0.9406  0.5255
  527SOL     ow 2105   6.332   1.668   5.067 -0.9314  0.6414 -0.0234
  527SOL     hw 2106   6.365   1.747   5.024 -1.0996  0.1748 -1.0169
  527SOL     hw 2107   6.292   1.617   4.997  0.0059 -0.7767  0.4282
  527SOL     vw 2108   6.331   1.672   5.052 -0.8299  0.3927 -0.0951
  528SOL     ow 2109   1.579   5.332   1.659 -0.0089 -0.2054 -0.8014
  528SOL     hw 2110   1.572   5.242   1.628 -2.3258  0.0534 -1.2285
  528SOL     hw 2111   1.572   5.385   1.579  0.3636  0.3717 -0.4550
  528SOL     vw 2112   1.577   5.327   1.644 -0.2654 -0.0951 -0.8121
  529SOL     ow 2113   6.045   5.920   6.026 -0.3131 -0.4759  0.4033
  529SOL     hw 2114   5.952   5.909   6.045 -1.4121  2.3238 -2.4934
  529SOL     hw 2115   6.055   6.014   6.009  2.7888 -0.8820 -0.6392
  529SOL     vw 2116   6.034   5.931   6.026 -0.0489 -0.1602 -0.1166
  530SOL     ow 2117   0.463   2.389   0.123  0.1818 -0.0429 -0.0780
  530SOL     hw 2118   0.459   2.393   0.219 -1.6879  0.6768 -0.1516
  530SOL     hw 2119   0.374   2.368   0.096  0.6341  0.0043 -1.6794
  530SOL     vw 2120   0.451   2.387   0.132 -0.0052  0.0581 -0.2990
  531SOL     ow 2121   2.969   0.859   5.760  0.5512  0.1418 -1.2878
  531SOL     hw 2122   2.946   0.950   5.779 -1.3368  0.5706 -4.7554
  531SOL     hw 2123   3.047   0.865   5.705  0.7735 -0.4098 -1.0457
  531SOL     vw 2124   2.976   0.872   5.755  0.3314  0.1256 -1.7130
  532SOL     ow 2125   0.237   1.942   5.578  0.3093 -0.3872  0.0054
  532SOL     hw 2126   0.209   1.992   5.502  1.3701  0.5260  0.1939
  532SOL     hw 2127   0.327   1.916   5.559  0.2106 -1.1075  0.4795
  532SOL     vw 2128   0.245   1.945   5.566  0.4363 -0.3617  0.0930
  533SOL     ow 2129   1.695   0.035   6.629  0.0446 -0.2157  0.5062
  533SOL     hw 2130   1.758   0.102   6.603  2.0957 -1.9281  0.8414
  533SOL     hw 2131   1.655   0.070   6.708 -1.2786  1.9719 -1.0054
  533SOL     vw 2132   1.698   0.048   6.636  0.1407 -0.1530  0.3510
  534SOL     ow 2133   1.814   0.372   2.593  0.0607 -0.3952  0.2544
  534SOL     hw 2134   1.867   0.421   2.530 -1.0122 -0.9772 -1.1630
  534SOL     hw 2135   1.858   0.288   2.602 -0.5717 -0.8834 -0.9345
  534SOL     vw 2136   1.826   0.368   2.586 -0.1643 -0.5364 -0.0895
  535SOL     ow 2137   6.881   1.252   0.462  0.5666 -0.3717  0.4341
  535SOL     hw 2138   6.789   1.270   0.442  0.1768 -2.3329  0.3149
  535SOL     hw 2139   6.900   1.170   0.418  2.3418 -0.1129  0.6456
  535SOL     vw 2140   6.871   1.244   0.454  0.7493 -0.5963  0.4463
  536SOL     ow 2141   3.754   1.521   2.270 -0.2487  0.1829  0.3947
  536SOL     hw 2142   3.849   1.522   2.273 -0.1575 -0.2639 -1.3812
  536SOL     hw 2143   3.730   1.605   2.230 -0.6476  0.5378  1.3473
  536SOL     vw 2144   3.763   1.532   2.265 -0.2893  0.1708  0.2861
  537SOL     ow 2145   2.886   2.606   4.179 -0.1563 -0.2973  1.0856
  537SOL     hw 2146   2.796   2.576   4.173 -0.1671 -0.0880 -0.0274
  537SOL     hw 2147   2.936   2.544   4.126 -0.1803  1.5263 -1.2260
  537SOL     vw 2148   2.881   2.594   4.171 -0.1609 -0.0291  0.6335
  538SOL     ow 2149   1.965   1.306   0.978 -0.4405  0.0073  0.5582
  538SOL     hw 2150   1.875   1.321   0.950  0.5679  1.8518 -2.0333
  538SOL     hw 2151   2.018   1.322   0.900  2.2087 -0.3442  2.1618
  538SOL     vw 2152   1.960   1.310   0.964  0.0421  0.2043  0.4279
  539SOL     ow 2153   1.817   2.779   4.494 -0.7369 -0.2438 -0.7468
  539SOL     hw 2154   1.807   2.785   4.399  1.9964 -0.3696 -1.1272
  539SOL     hw 2155   1.852   2.691   4.508  0.8336  0.4827  0.1279
  539SOL     vw 2156   1.820   2.768   4.483 -0.1690 -0.1645 -0.6816
  540SOL     ow 2157   6.249   3.778   4.562  0.0405 -0.7665 -0.5480
  540SOL     hw 2158   6.247   3.864   4.518  1.3697  1.0926  2.6881
  540SOL     hw 2159   6.185   3.786   4.633  0.6832 -2.2036  0.2387
  540SOL     vw 2160   6.240   3.791   4.565  0.3006 -0.7107 -0.0169
  541SOL     ow 2161   5.679   2.868   6.297 -0.1061  0.2663  0.2500
  541SOL     hw 2162   5.597   2.833   6.331 -2.1520  3.6520 -0.6533
  541SOL     hw 2163   5.698   2.943   6.353  2.1486 -0.1284  0.1025
  541SOL     vw 2164   5.671   2.873   6.309 -0.0782  0.6609  0.1113
  542SOL     ow 2165   6.743   4.321   1.644 -0.5939  0.2713  0.2482
  542SOL     hw 2166   6.691   4.299   1.721 -1.9394  2.5983  0.1013
  542SOL     hw 2167   6.758   4.415   1.651 -1.6287  0.7796 -2.7639
  542SOL     vw 2168   6.738   4.330   1.655 -0.9079  0.6452 -0.1686
  543SOL     ow 2169   6.183   5.735   5.418  0.5600 -0.0446 -0.1642
  543SOL     hw 2170   6.263   5.736   5.471 -0.9290  0.3685  2.2320
  543SOL     hw 2171   6.211   5.763   5.331  3.3550 -1.8816  0.0171
  543SOL     vw 2172   6.197   5.739   5.414  0.7322 -0.2327  0.1760
  544SOL     ow 2173   6.769   2.086   5.844 -0.3117 -0.3139  0.2117
  544SOL     hw 2174   6.795   2.083   5.936 -0.6312 -0.5751  0.2979
  544SOL     hw 2175   6.695   2.147   5.841  0.8107  1.0819 -0.1697
  544SOL     vw 2176   6.762   2.093   5.856 -0.2060 -0.1643  0.1724
  545SOL     ow 2177   3.740   6.624   6.174 -0.1098  0.0815  0.0864
  545SOL     hw 2178   3.678   6.562   6.212  0.1923  0.2140  0.8110
  545SOL     hw 2179   3.732   6.611   6.079 -2.4154  1.2228  0.0412
  545SOL     vw 2180   3.731   6.614   6.167 -0.3741  0.2496  0.1762
  546SOL     ow 2181   3.579   5.214   7.082 -0.6371 -0.7770 -0.1060
  546SOL     hw 2182   3.567   5.120   7.090 -2.1304 -0.5886  0.1449
  546SOL     hw 2183   3.674   5.226   7.080 -0.3907 -2.4639 -2.6673
  546SOL     vw 2184   3.590   5.204   7.083 -0.8014 -0.9749 -0.4110
  547SOL     ow 2185   0.043   3.544   3.815 -0.8802  0.2397  0.5452
  547SOL     hw 2186   0.022   3.611   3.880 -0.3161  0.9399  0.0186
  547SOL     hw 2187   0.093   3.479   3.864 -1.0925  0.3961  0.9784
  547SOL     vw 2188   0.047   3.544   3.830 -0.8338  0.3527  0.5331
  548SOL     ow 2189   1.753   3.127   1.398  0.3236 -0.2089 -0.2516
  548SOL     hw 2190   1.813   3.053   1.393  1.3268  0.3817  1.7884
  548SOL     hw 2191   1.690   3.102   1.465 -1.2222 -0.4407 -1.7321
  548SOL     vw 2192   1.753   3.114   1.406  0.2521 -0.1615 -0.1778
  549SOL     ow 2193   3.548   5.445   3.295 -0.3635 -0.2917 -0.0131
  549SOL     hw 2194   3.507   5.531   3.296  1.4617  0.6147  2.0950
  549SOL     hw 2195   3.584   5.434   3.382 -0.6782 -3.3038 -0.1598
  549SOL     vw 2196   3.547   5.455   3.306 -0.1642 -0.5696  0.2456
  550SOL     ow 2197   3.925   6.637   6.418  0.2666  0.0561  0.5232
  550SOL     hw 2198   4.017   6.609   6.409 -0.1233 -1.1649  0.0972
  550SOL     hw 2199   3.880   6.560   6.452 -0.8812  0.1365 -0.7169
  550SOL     vw 2200   3.931   6.623   6.421  0.0638 -0.0944  0.3033
  551SOL     ow 2201   5.684   4.210   3.645 -0.2958  0.4556  0.7197
  551SOL     hw 2202   5.726   4.159   3.577  0.8316  0.8763  1.0807
  551SOL     hw 2203   5.661   4.146   3.713  1.8988  0.4863  1.5660
  551SOL     vw 2204   5.686   4.195   3.645  0.1423  0.5152  0.8790
  552SOL     ow 2205   4.935   6.212   3.723  0.9073  0.2260  0.3553
  552SOL     hw 2206   4.893   6.234   3.640 -0.5571 -1.1105  0.6972
  552SOL     hw 2207   4.966   6.122   3.711 -2.3143 -1.3345  2.2487
  552SOL     vw 2208   4.934   6.203   3.711  0.2894 -0.1564  0.6502
  553SOL     ow 2209   1.493   2.259   1.327  1.2427 -0.2793  0.3137
  553SOL     hw 2210   1.459   2.246   1.416  1.2377 -1.9927  0.0886
  553SOL     hw 2211   1.443   2.197   1.273  0.8106  1.1596 -1.0122
  553SOL     vw 2212   1.482   2.249   1.332  1.1851 -0.3155  0.1091
  554SOL     ow 2213   4.800   0.999   2.724  0.0758 -0.0298 -0.0082
  554SOL     hw 2214   4.836   1.059   2.789 -2.3273 -0.1942  1.6051
  554SOL     hw 2215   4.719   0.968   2.763  0.4698 -3.1941 -1.4399
  554SOL     vw 2216   4.794   1.003   2.738 -0.1888 -0.4690  0.0159
  555SOL     ow 2217   0.777   3.899   3.883 -0.0742  0.1056  0.2049
  555SOL     hw 2218   0.705   3.881   3.945 -1.3876  0.0769 -1.2662
  555SOL     hw 2219   0.748   3.977   3.835 -0.3702 -1.3893 -2.1769
  555SOL     vw 2220   0.763   3.907   3.885 -0.2866 -0.0955 -0.3035
  556SOL     ow 2221   2.690   3.996   5.762  0.1188 -0.7542 -0.2494
  556SOL     hw 2222   2.621   4.059   5.783 -0.2961 -1.1819 -0.3096
  556SOL     hw 2223   2.670   3.967   5.673  0.1156 -1.2131 -0.1024
  556SOL     vw 2224   2.679   4.001   5.753  0.0637 -0.8709 -0.2377
  557SOL     ow 2225   6.944   6.517   5.292 -0.0981 -0.8143 -0.0126
  557SOL     hw 2226   6.867   6.490   5.342  1.0254 -0.7432  1.8661
  557SOL     hw 2227   6.955   6.610   5.314  0.1469 -0.6564 -0.7904
  557SOL     vw 2228   6.935   6.526   5.302  0.0823 -0.7842  0.1328
  558SOL     ow 2229   0.144   0.558   5.683 -0.3813  0.3994  0.8306
  558SOL     hw 2230   0.113   0.519   5.602 -1.6864  0.4253  1.3036
  558SOL     hw 2231   0.195   0.634   5.655  2.8285 -1.8685 -0.1599
  558SOL     vw 2232   0.147   0.563   5.669 -0.1300  0.1036  0.7625
  559SOL     ow 2233   4.146   5.988   7.137  0.2984  0.5117  0.1067
  559SOL     hw 2234   4.240   5.975   7.125 -0.2694 -3.8934 -1.1527
  559SOL     hw 2235   4.133   5.978   7.232  0.7660 -3.7543 -0.1036
  559SOL     vw 2236   4.156   5.985   7.148  0.2851 -0.6323 -0.0872
  560SOL     ow 2237   5.266   2.551   4.159 -0.5075  0.2283 -0.5923
  560SOL     hw 2238   5.180   2.589   4.177 -1.9441 -1.5377 -3.0411
  560SOL     hw 2239   5.304   2.607   4.092 -0.2374  0.3909 -0.3022
  560SOL     vw 2240   5.260   2.563   4.153 -0.6616  0.0167 -0.8774
  561SOL     ow 2241   6.013   5.751   4.283 -0.4484 -1.4284  0.0975
  561SOL     hw 2242   6.024   5.707   4.367  0.6416  0.2630  0.8870
  561SOL     hw 2243   5.951   5.821   4.300 -0.1758 -1.0341 -0.5006
  561SOL     vw 2244   6.006   5.754   4.296 -0.2687 -1.1530  0.1230
  562SOL     ow 2245   3.138   3.291   4.438 -0.2699 -0.7831 -0.3694
  562SOL     hw 2246   3.179   3.259   4.519  0.5545  0.8195 -0.0934
  562SOL     hw 2247   3.211   3.301   4.377 -0.2817  1.4137 -0.1132
  562SOL     vw 2248   3.153   3.288   4.441 -0.1627 -0.2817 -0.2992
  563SOL     ow 2249   1.916   0.964   6.448  0.8053  0.3908 -0.6200
  563SOL     hw 2250   1.971   1.042   6.457  2.0358 -0.3085 -1.5510
  563SOL     hw 2251   1.942   0.927   6.363 -0.5021 -0.4586 -0.6773
  563SOL     vw 2252   1.927   0.969   6.438  0.7951  0.1865 -0.7503
  564SOL     ow 2253   6.331   4.379   6.801  0.4247 -0.2085 -0.1135
  564SOL     hw 2254   6.307   4.313   6.736 -0.8743 -0.1282  0.2533
  564SOL     hw 2255   6.247   4.412   6.833  1.0539  0.6928  0.6536
  564SOL     vw 2256   6.316   4.375   6.796  0.3362 -0.0789  0.0362
  565SOL     ow 2257   3.084   2.708   3.951 -0.7943 -0.7699  0.1770
  565SOL     hw 2258   3.075   2.703   4.046 -0.0778  0.4384  0.3318
  565SOL     hw 2259   2.998   2.737   3.920 -0.9561 -0.9358  0.4695
  565SOL     vw 2260   3.072   2.711   3.959 -0.7211 -0.6323  0.2360
  566SOL     ow 2261   0.204   6.742   1.568  0.2552 -0.1432 -0.3093
  566SOL     hw 2262   0.254   6.821   1.548  1.4244 -0.8127 -0.0773
  566SOL     hw 2263   0.203   6.736   1.663  0.4239 -0.5620 -0.3305
  566SOL     vw 2264   0.210   6.751   1.578  0.4317 -0.2866 -0.2815
  567SOL     ow 2265   3.638   2.790   3.143  0.5439  0.0918  0.8306
  567SOL     hw 2266   3.681   2.721   3.193  0.8518  0.3121  0.8750
  567SOL     hw 2267   3.545   2.780   3.162  0.7700  1.2941  2.9036
  567SOL     vw 2268   3.631   2.780   3.152  0.6143  0.2795  1.1100
  568SOL     ow 2269   5.995   1.353   0.562 -0.2189  0.0738 -0.5343
  568SOL     hw 2270   5.959   1.429   0.607 -2.5812 -0.4353 -1.4415
  568SOL     hw 2271   6.027   1.387   0.479  0.2704  0.3209 -0.2506
  568SOL     vw 2272   5.995   1.367   0.557 -0.4661  0.0392 -0.6166
  569SOL     ow 2273   2.874   0.103   5.401  0.1625  0.1652 -0.2852
  569SOL     hw 2274   2.927   0.101   5.322  0.8622 -0.3782  0.1890
  569SOL     hw 2275   2.903   0.027   5.452 -1.4682 -0.5082 -0.2689
  569SOL     vw 2276   2.885   0.092   5.397  0.0398  0.0047 -0.2201
  570SOL     ow 2277   3.296   5.617   0.927 -0.0470  0.0335 -0.5367
  570SOL     hw 2278   3.333   5.529   0.915  1.4420  0.7191 -1.1174
  570SOL     hw 2279   3.235   5.606   1.000 -0.5484 -1.6697 -1.1431
  570SOL     vw 2280   3.293   5.604   0.935  0.0833 -0.1011 -0.6934
  571SOL     ow 2281   2.169   2.147   2.723 -0.2552 -0.4538 -0.2245
  571SOL     hw 2282   2.249   2.198   2.710 -0.1727 -0.0346  1.6743
  571SOL     hw 2283   2.120   2.159   2.641  0.6642  1.0387 -0.5980
  571SOL     vw 2284   2.173   2.156   2.710 -0.1230 -0.2015 -0.0232
  572SOL     ow 2285   0.454   3.050   5.151 -0.0283 -0.8258 -0.1832
  572SOL     hw 2286   0.447   2.967   5.104  1.6301 -2.2077  1.8094
  572SOL     hw 2287   0.370   3.060   5.195  0.2127 -2.2431  0.6809
  572SOL     vw 2288   0.442   3.040   5.151  0.2223 -1.1952  0.1936
  573SOL     ow 2289   3.826   0.019   7.028  0.4999  0.1090 -0.1518
  573SOL     hw 2290   3.873   0.037   6.947  0.7096 -0.9347 -0.2810
  573SOL     hw 2291   3.893  -0.011   7.089  0.1251 -0.6731 -0.1105
  573SOL     vw 2292   3.841   0.017   7.026  0.4783 -0.1319 -0.1633
  574SOL     ow 2293   0.855   1.575   6.331  0.0305  0.3710 -0.0273
  574SOL     hw 2294   0.771   1.561   6.286  0.2970 -0.0180 -0.4070
  574SOL     hw 2295   0.915   1.602   6.262  0.2141  0.6781  0.2491
  574SOL     vw 2296   0.852   1.577   6.316  0.0899  0.3602 -0.0408
  575SOL     ow 2297   2.278   3.516   5.956  0.6257  0.6774 -0.0528
  575SOL     hw 2298   2.238   3.431   5.938  0.6342  0.3329  1.4183
  575SOL     hw 2299   2.258   3.533   6.048 -0.0931  2.6786 -0.5298
  575SOL     vw 2300   2.270   3.507   5.966  0.5320  0.8961  0.0782
  576SOL     ow 2301   7.116   4.538   4.710 -0.4281 -0.2715 -0.0341
  576SOL     hw 2302   7.179   4.482   4.665  1.7772 -0.4660  3.0046
  576SOL     hw 2303   7.122   4.513   4.802 -2.3643  2.1987  0.8945
  576SOL     vw 2304   7.125   4.527   4.716 -0.3925  0.0288  0.4892
  577SOL     ow 2305   2.314   4.977   4.015 -0.1505  0.3753 -0.2635
  577SOL     hw 2306   2.387   4.914   4.017  0.3606  0.9761  0.2918
  577SOL     hw 2307   2.236   4.923   4.025  0.3358 -0.1037  1.0760
  577SOL     vw 2308   2.313   4.961   4.016 -0.0190  0.3912 -0.0134
  578SOL     ow 2309   6.089   5.907   5.678  0.2191  0.8796 -0.2067
  578SOL     hw 2310   6.171   5.957   5.672  1.3782 -0.8739  0.2286
  578SOL     hw 2311   6.094   5.863   5.763  0.3751 -1.7344 -1.4476
  578SOL     vw 2312   6.101   5.908   5.689  0.3927  0.3035 -0.3130
  579SOL     ow 2313   5.500   3.517   2.321 -0.2955 -0.3434  0.6025
  579SOL     hw 2314   5.572   3.456   2.337  2.3168  2.5382  0.8037
  579SOL     hw 2315   5.491   3.519   2.225  1.1348  0.5005  0.4597
  579SOL     vw 2316   5.508   3.509   2.310  0.2379  0.1481  0.6102
  580SOL     ow 2317   6.998   5.361   1.289 -0.0111 -0.0659 -0.2967
  580SOL     hw 2318   6.918   5.372   1.237 -0.1085 -0.8149 -0.3218
  580SOL     hw 2319   6.998   5.268   1.311  1.6195 -0.4057 -1.5390
  580SOL     vw 2320   6.987   5.350   1.285  0.1910 -0.2093 -0.4639
  581SOL     ow 2321   6.587   1.901   1.499  0.1421 -0.2136 -0.1616
  581SOL     hw 2322   6.649   1.890   1.571  2.2539  0.4216 -1.7963
  581SOL     hw 2323   6.544   1.985   1.518  2.3191  1.1013 -0.7406
  581SOL     vw 2324   6.589   1.911   1.511  0.7079  0.0436 -0.4537
  582SOL     ow 2325   4.065   6.192   3.539 -0.1950  0.0765 -0.3022
  582SOL     hw 2326   4.142   6.159   3.491  0.8506 -1.0501  1.9669
  582SOL     hw 2327   4.079   6.287   3.544 -0.9092  0.4096 -3.0480
  582SOL     vw 2328   4.077   6.200   3.533 -0.1512 -0.0281 -0.3650
  583SOL     ow 2329   6.396   6.201   5.061  0.5160  0.3547  0.0840
  583SOL     hw 2330   6.358   6.194   4.973 -0.2201  0.7276  0.3659
  583SOL     hw 2331   6.489   6.187   5.047  0.8157  2.8799 -1.1331
  583SOL     vw 2332   6.403   6.198   5.047  0.4585  0.7370 -0.0391
  584SOL     ow 2333   1.039   6.844   7.132 -0.1452 -0.1799  0.3079
  584SOL     hw 2334   1.081   6.897   7.201 -0.7734 -0.6136  1.0401
  584SOL     hw 2335   1.074   6.756   7.146 -2.0813 -0.8096  1.6593
  584SOL     vw 2336   1.049   6.839   7.143 -0.4836 -0.3202  0.5827
  585SOL     ow 2337   6.852   6.284   0.347 -0.7612  0.0234 -0.7824
  585SOL     hw 2338   6.775   6.242   0.387 -0.5582  0.3722  0.0030
  585SOL     hw 2339   6.877   6.351   0.410 -0.3473  0.5081 -1.4602
  585SOL     vw 2340   6.845   6.287   0.361 -0.6797  0.1333 -0.7682
  586SOL     ow 2341   0.374   5.696   5.217 -0.1026  0.3398 -0.0625
  586SOL     hw 2342   0.334   5.782   5.206 -0.8482 -0.0748 -0.6283
  586SOL     hw 2343   0.468   5.712   5.207 -0.1186  1.2751  1.0246
  586SOL     vw 2344   0.381   5.710   5.214 -0.2031  0.4086  0.0060
  587SOL     ow 2345   1.922   6.605   3.905  0.4495  0.0450 -0.5279
  587SOL     hw 2346   1.914   6.698   3.881 -0.5026  0.2214  0.3923
  587SOL     hw 2347   2.002   6.601   3.958 -0.1606  0.5812  0.4594
  587SOL     vw 2348   1.932   6.617   3.909  0.2434  0.1390 -0.2762
  588SOL     ow 2349   5.828   0.859   4.021 -0.2872 -0.0478 -0.0065
  588SOL     hw 2350   5.819   0.767   3.998 -2.1357  0.3212 -0.9393
  588SOL     hw 2351   5.757   0.874   4.084  1.1526  0.3265  1.5904
  588SOL     vw 2352   5.817   0.849   4.027 -0.3409  0.0503  0.0811
  589SOL     ow 2353   3.172   1.360   4.764  0.1219  0.4849  0.1525
  589SOL     hw 2354   3.214   1.351   4.678  0.9179 -2.7559  0.7624
  589SOL     hw 2355   3.080   1.377   4.744  0.7039  2.3295 -1.2573
  589SOL     vw 2356   3.166   1.361   4.750  0.3039  0.3006  0.0470
  590SOL     ow 2357   5.607   1.196   1.689  0.0816  0.3535 -0.4058
  590SOL     hw 2358   5.568   1.186   1.776  1.2752 -0.7903  0.0135
  590SOL     hw 2359   5.574   1.281   1.658 -0.6617  0.5965  0.9891
  590SOL     vw 2360   5.597   1.206   1.696  0.1409  0.2346 -0.1665
  591SOL     ow 2361   3.004   0.608   4.861 -0.4311 -0.4106  0.0975
  591SOL     hw 2362   3.074   0.631   4.922 -0.7555 -1.7520  1.0300
  591SOL     hw 2363   3.020   0.661   4.783  0.6538  0.5066  0.9287
  591SOL     vw 2364   3.015   0.618   4.859 -0.3307 -0.4666  0.3300
  592SOL     ow 2365   0.453   1.025   6.696  0.3459  0.2571 -0.7517
  592SOL     hw 2366   0.444   0.997   6.605 -1.2672 -0.9917 -0.2601
  592SOL     hw 2367   0.472   0.944   6.744 -0.1619  0.6756  0.1800
  592SOL     vw 2368   0.454   1.010   6.691  0.0661  0.1476 -0.5639
  593SOL     ow 2369   6.088   3.003   3.619 -0.1419  0.4844  0.3701
  593SOL     hw 2370   6.069   3.044   3.703 -0.8501 -0.9793  0.9536
  593SOL     hw 2371   6.013   2.946   3.603 -0.1599  0.9407 -1.4093
  593SOL     vw 2372   6.076   3.001   3.628 -0.2375  0.3514  0.2123
  594SOL     ow 2373   0.617   6.007   5.901  0.2839 -0.4596  0.0506
  594SOL     hw 2374   0.677   6.007   5.827  0.2957 -0.0528  0.0580
  594SOL     hw 2375   0.613   5.915   5.929  0.6601 -0.5365 -0.1419
  594SOL     vw 2376   0.624   5.995   5.895  0.3351 -0.4158  0.0260
  595SOL     ow 2377   4.762   6.253   0.597  0.1190 -0.3412  0.8218
  595SOL     hw 2378   4.698   6.187   0.571  0.4660 -0.3387 -0.0849
  595SOL     hw 2379   4.824   6.255   0.524  0.3462  0.6742  1.0355
  595SOL     vw 2380   4.761   6.245   0.584  0.1948 -0.2069  0.7304
  596SOL     ow 2381   3.775   6.802   0.317 -0.3807  0.0404 -0.3601
  596SOL     hw 2382   3.788   6.896   0.303  1.6032 -0.2532 -0.8204
  596SOL     hw 2383   3.785   6.763   0.230 -2.3883 -0.5385 -0.3933
  596SOL     vw 2384   3.778   6.809   0.304 -0.3839 -0.0749 -0.4252
  597SOL     ow 2385   3.861   0.101   2.215  0.1200  0.1170 -0.0650
  597SOL     hw 2386   3.835   0.161   2.145 -0.5523 -4.1513 -3.9397
  597SOL     hw 2387   3.779   0.078   2.258  0.0002  0.0698 -0.3160
  597SOL     vw 2388   3.847   0.106   2.211  0.0156 -0.4523 -0.6093
  598SOL     ow 2389   0.070   6.007   6.807 -0.1485 -0.5111  0.0393
  598SOL     hw 2390   0.028   6.022   6.723  0.6437 -1.4803 -0.5457
  598SOL     hw 2391   0.163   6.020   6.790  0.0444 -0.9235  0.7168
  598SOL     vw 2392   0.077   6.011   6.794 -0.0185 -0.6936  0.0513
  599SOL     ow 2393   0.192   6.183   6.303  0.8936  0.1612 -0.0843
  599SOL     hw 2394   0.105   6.143   6.313  1.2907 -1.1632 -1.5198
  599SOL     hw 2395   0.190   6.258   6.361 -0.8417 -0.4561  0.7384
  599SOL     vw 2396   0.180   6.187   6.312  0.7170 -0.0949 -0.1652
  600SOL     ow 2397   1.289   2.157   3.591 -0.7143 -0.2854  0.1016
  600SOL     hw 2398   1.285   2.097   3.516 -0.8847  3.1075 -2.8306
  600SOL     hw 2399   1.203   2.149   3.632 -0.0400 -3.4642  1.1817
  600SOL     vw 2400   1.277   2.148   3.586 -0.6478 -0.2570 -0.1427
  601SOL     ow 2401   6.607   0.328   4.366  0.8282  0.0335 -1.1234
  601SOL     hw 2402   6.646   0.244   4.342  2.2285  0.7007 -1.3361
  601SOL     hw 2403   6.669   0.393   4.332  0.1748  1.1300 -0.2748
  601SOL     vw 2404   6.621   0.326   4.358  0.9270  0.2662 -1.0395
  602SOL     ow 2405   2.855   7.053   2.118  0.6320 -0.8104  0.1557
  602SOL     hw 2406   2.779   7.021   2.069  1.0773 -0.2143 -0.9541
  602SOL     hw 2407   2.819   7.119   2.177  0.3584 -0.0275 -0.8491
  602SOL     vw 2408   2.840   7.057   2.119  0.6546 -0.6287 -0.1235
  603SOL     ow 2409   1.953   0.799   0.903  0.7669  0.4328 -0.2346
  603SOL     hw 2410   1.949   0.705   0.888  1.6323  0.3700 -0.1456
  603SOL     hw 2411   1.993   0.834   0.823 -0.2939  0.8320 -0.6131
  603SOL     vw 2412   1.958   0.791   0.890  0.7412  0.4772 -0.2728
  604SOL     ow 2413   2.859   0.312   5.708 -0.1126 -0.0674  0.6030
  604SOL     hw 2414   2.785   0.306   5.768  0.2720 -1.6182  0.9791
  604SOL     hw 2415   2.928   0.260   5.750  0.3026 -0.8414 -0.9592
  604SOL     vw 2416   2.858   0.304   5.722 -0.0072 -0.3741  0.4468
  605SOL     ow 2417   2.984   1.050   2.731 -0.3470  0.6726  0.6958
  605SOL     hw 2418   3.000   1.078   2.821 -1.3051  0.1027  1.0525
  605SOL     hw 2419   2.889   1.046   2.724 -0.2749 -1.2541  0.2822
  605SOL     vw 2420   2.974   1.054   2.742 -0.4641  0.3433  0.6883
  606SOL     ow 2421   1.216   2.707   5.284 -0.3110 -0.3716 -0.1259
  606SOL     hw 2422   1.299   2.676   5.246 -0.9413 -2.0705 -0.2146
  606SOL     hw 2423   1.241   2.776   5.345  0.9683  0.6753 -1.7322
  606SOL     vw 2424   1.230   2.712   5.287 -0.2254 -0.4576 -0.3495
  607SOL     ow 2425   5.306   3.590   2.545 -0.1234 -0.1897 -0.2259
  607SOL     hw 2426   5.290   3.556   2.633 -0.5343  1.0826  0.2088
  607SOL     hw 2427   5.343   3.677   2.558 -0.0577 -0.0340 -1.3156
  607SOL     vw 2428   5.309   3.597   2.558 -0.1690 -0.0014 -0.3123
  608SOL     ow 2429   4.786   0.543   6.265  0.7896  0.5829 -0.0550
  608SOL     hw 2430   4.865   0.580   6.305  1.7520 -0.7699 -0.6392
  608SOL     hw 2431   4.763   0.470   6.323  0.6182  0.2910 -0.4904
  608SOL     vw 2432   4.794   0.538   6.278  0.8941  0.3659 -0.1898
  609SOL     ow 2433   5.264   4.945   6.817 -0.2283  1.1703  0.2230
  609SOL     hw 2434   5.292   4.898   6.739  2.1181  0.3100  1.4926
  609SOL     hw 2435   5.303   4.897   6.890 -3.3296  1.2026  2.1049
  609SOL     vw 2436   5.272   4.933   6.817 -0.3281  1.0607  0.6385
  610SOL     ow 2437   4.095   3.495   2.850 -0.1058 -0.2479 -0.1487
  610SOL     hw 2438   4.044   3.564   2.894 -1.3291 -1.4564  0.3927
  610SOL     hw 2439   4.048   3.479   2.768  0.8302  0.3409 -0.8175
  610SOL     vw 2440   4.082   3.502   2.845 -0.1438 -0.3297 -0.1656
  611SOL     ow 2441   4.349   0.214   4.934  0.1832 -0.2434 -0.3964
  611SOL     hw 2442   4.389   0.292   4.972  1.2603  0.0089 -1.9663
  611SOL     hw 2443   4.256   0.222   4.954  0.1795  1.7723 -1.1100
  611SOL     vw 2444   4.342   0.225   4.942  0.3250  0.0559 -0.6976
  612SOL     ow 2445   3.925   1.935   1.438 -0.1862 -0.4047  0.8905
  612SOL     hw 2446   3.893   1.958   1.526 -1.6795 -0.8657  0.4952
  612SOL     hw 2447   3.905   1.841   1.430 -0.1641 -0.3371  0.0218
  612SOL     vw 2448   3.918   1.926   1.449 -0.3803 -0.4565  0.7238
  613SOL     ow 2449   5.131   5.564   1.504  0.1372 -0.5537  0.0938
  613SOL     hw 2450   5.045   5.522   1.512 -1.0467 -0.2746 -6.0533
  613SOL     hw 2451   5.194   5.491   1.507 -1.0624 -1.7499 -1.6942
  613SOL     vw 2452   5.128   5.549   1.506 -0.1771 -0.6747 -0.9531
  614SOL     ow 2453   0.723   0.078   5.332  0.0401 -0.0998  0.2132
  614SOL     hw 2454   0.720   0.034   5.417 -2.8053 -0.4392  0.0238
  614SOL     hw 2455   0.693   0.167   5.349  2.3954  0.8309 -0.0168
  614SOL     vw 2456   0.719   0.084   5.346 -0.0246 -0.0218  0.1578
  615SOL     ow 2457   3.248   0.793   0.274  0.4888  0.0087  0.0938
  615SOL     hw 2458   3.299   0.757   0.202  1.9237 -0.3604  1.2433
  615SOL     hw 2459   3.157   0.785   0.245  0.9221 -1.6771 -0.9930
  615SOL     vw 2460   3.243   0.787   0.261  0.7354 -0.2624  0.1020
  616SOL     ow 2461   0.147   6.757   5.816 -0.4159  0.0659  0.0363
  616SOL     hw 2462   0.173   6.676   5.772 -2.2138 -1.7673  2.0959
  616SOL     hw 2463   0.220   6.778   5.873 -0.1181 -0.3872 -0.1722
  616SOL     vw 2464   0.160   6.749   5.818 -0.6138 -0.2360  0.2806
  617SOL     ow 2465   3.915   6.455   1.264  0.4904 -0.9734 -0.0792
  617SOL     hw 2466   3.959   6.402   1.198  2.0052 -0.6246  0.6091
  617SOL     hw 2467   3.972   6.451   1.340 -0.5591 -0.2846  0.7757
  617SOL     vw 2468   3.928   6.448   1.265  0.5518 -0.8366  0.1244
  618SOL     ow 2469   3.744   5.104   5.935  0.0777 -0.0742  0.4178
  618SOL     hw 2470   3.692   5.119   6.013 -0.6536 -2.2388  0.4149
  618SOL     hw 2471   3.818   5.050   5.964  0.9385  0.8090 -0.0453
  618SOL     vw 2472   3.747   5.099   5.949  0.0948 -0.2434  0.3562
  619SOL     ow 2473   7.079   2.293   5.035  0.4750 -0.4152 -0.3674
  619SOL     hw 2474   7.154   2.351   5.051  0.3182  0.1872 -1.7219
  619SOL     hw 2475   7.106   2.240   4.960 -0.5029 -0.0711 -0.9760
  619SOL     vw 2476   7.093   2.294   5.027  0.3252 -0.2903 -0.6263
  620SOL     ow 2477   4.986   2.521   2.058  0.6966 -0.7442  0.5752
  620SOL     hw 2478   4.977   2.509   2.152  0.6700 -0.5130  0.6015
  620SOL     hw 2479   4.931   2.597   2.038 -1.7658 -2.5623 -0.0860
  620SOL     vw 2480   4.978   2.529   2.068  0.3681 -0.9534  0.4914
  621SOL     ow 2481   0.940   6.273   4.162  0.2804 -0.1042  0.3543
  621SOL     hw 2482   0.887   6.343   4.124 -0.0669 -0.3856  0.3160
  621SOL     hw 2483   1.025   6.280   4.118 -0.0468 -0.2872 -0.3112
  621SOL     vw 2484   0.944   6.283   4.151  0.1914 -0.1652  0.2615
  622SOL     ow 2485   2.817   4.050   3.619 -0.4764  0.3363 -0.3326
  622SOL     hw 2486   2.755   4.025   3.688 -1.1369 -1.1693 -1.4140
  622SOL     hw 2487   2.769   4.115   3.566 -0.3506  0.7158  0.0117
  622SOL     vw 2488   2.802   4.055   3.621 -0.5469  0.1879 -0.4297
  623SOL     ow 2489   4.247   2.290   3.827 -0.6511  0.0651  0.7649
  623SOL     hw 2490   4.300   2.211   3.819  0.2293  0.5988  1.0668
  623SOL     hw 2491   4.224   2.294   3.920  0.9064  1.1226  1.1455
  623SOL     vw 2492   4.251   2.280   3.839 -0.3295  0.2750  0.8550
  624SOL     ow 2493   4.503   5.444   3.185  0.6412 -0.2271  0.0402
  624SOL     hw 2494   4.571   5.510   3.203  0.6506  0.1501 -1.3263
  624SOL     hw 2495   4.551   5.372   3.144  0.6112 -1.0697  1.4255
  624SOL     vw 2496   4.519   5.443   3.182  0.6385 -0.2885  0.0426
  625SOL     ow 2497   0.227   0.849   3.134 -0.0558  0.0068  0.6782
  625SOL     hw 2498   0.228   0.897   3.051 -0.8448  1.7156  1.6035
  625SOL     hw 2499   0.155   0.888   3.184  1.8752  0.7506  3.1196
  625SOL     vw 2500   0.218   0.860   3.130  0.0949  0.3304  1.1225
  626SOL     ow 2501   4.559   5.876   6.412 -0.3167 -0.5594  0.4913
  626SOL     hw 2502   4.621   5.875   6.485 -0.4761 -0.4792  0.6265
  626SOL     hw 2503   4.597   5.937   6.349 -0.5021 -0.1347  0.7861
  626SOL     vw 2504   4.572   5.884   6.413 -0.3622 -0.4928  0.5479
  627SOL     ow 2505   6.933   4.466   4.343  0.0809 -0.7381 -0.3882
  627SOL     hw 2506   6.936   4.549   4.294  0.6396 -0.2469  0.4465
  627SOL     hw 2507   7.021   4.457   4.379 -0.2474 -1.2209  0.3055
  627SOL     vw 2508   6.945   4.476   4.341  0.1111 -0.7367 -0.1864
  628SOL     ow 2509   0.069   1.536   4.172  0.7897  0.1632 -0.4736
  628SOL     hw 2510   0.045   1.444   4.169  0.5087  0.2743 -2.6898
  628SOL     hw 2511  -0.005   1.578   4.216  0.4950 -0.5183 -0.3025
  628SOL     vw 2512   0.056   1.530   4.178  0.7137  0.0880 -0.7439
  629SOL     ow 2513   4.666   4.911   1.547  0.1973 -0.0713  0.3809
  629SOL     hw 2514   4.727   4.976   1.511 -0.0242  0.5235  1.0399
  629SOL     hw 2515   4.579   4.948   1.530 -0.2839 -2.3416 -3.4115
  629SOL     vw 2516   4.662   4.925   1.540  0.1049 -0.2925 -0.0325
  630SOL     ow 2517   0.410   6.175   6.026 -0.2754 -0.3238 -0.9757
  630SOL     hw 2518   0.472   6.141   5.962 -1.3385  2.1238 -3.5329
  630SOL     hw 2519   0.410   6.270   6.011 -2.3432  0.0779  1.0396
  630SOL     vw 2520   0.418   6.183   6.015 -0.6885  0.0522 -1.0471
  631SOL     ow 2521   6.376   2.964   0.453  0.4118 -0.1826  0.3232
  631SOL     hw 2522   6.469   2.941   0.454  0.5527  0.1903  2.7614
  631SOL     hw 2523   6.331   2.880   0.456  0.7207 -0.3394  0.6704
  631SOL     vw 2524   6.382   2.950   0.453  0.4711 -0.1543  0.6907
  632SOL     ow 2525   6.927   1.403   0.853  0.1854 -0.1586  0.2288
  632SOL     hw 2526   6.919   1.498   0.859 -0.8721 -0.1234 -1.1787
  632SOL     hw 2527   7.017   1.384   0.882  1.0054  1.4472 -1.1131
  632SOL     vw 2528   6.938   1.413   0.858  0.1540  0.0579 -0.1339
  633SOL     ow 2529   0.972   3.193   7.099  0.1727  0.1117  0.5660
  633SOL     hw 2530   0.978   3.098   7.088 -1.1751  0.0445  0.2333
  633SOL     hw 2531   0.899   3.205   7.160 -0.3803  0.9576 -0.2350
  633SOL     vw 2532   0.963   3.182   7.106 -0.0781  0.2143  0.4168
  634SOL     ow 2533   0.367   2.568   4.121  0.1455 -0.1737 -0.8435
  634SOL     hw 2534   0.374   2.554   4.216  0.0808  0.6257 -0.7148
  634SOL     hw 2535   0.406   2.490   4.083 -2.9929 -2.2634 -0.1891
  634SOL     vw 2536   0.373   2.556   4.129 -0.2771 -0.3439 -0.7401
  635SOL     ow 2537   0.846   6.060   5.734  0.3248  0.3054  0.3619
  635SOL     hw 2538   0.891   5.979   5.756  1.1729  0.2897 -1.2988
  635SOL     hw 2539   0.915   6.117   5.698 -0.3056  1.6565  1.1863
  635SOL     vw 2540   0.861   6.057   5.732  0.3535  0.4818  0.2515
  636SOL     ow 2541   1.987   1.602   3.114  0.0909 -0.4787 -0.1541
  636SOL     hw 2542   1.997   1.569   3.025 -1.1587  0.1575 -0.5532
  636SOL     hw 2543   1.935   1.682   3.105  0.6083  0.0324  1.0723
  636SOL     vw 2544   1.982   1.609   3.101 -0.0057 -0.3273 -0.0449
  637SOL     ow 2545   6.122   1.447   6.285  0.0203  0.1399 -0.6871
  637SOL     hw 2546   6.116   1.542   6.278  1.4604  0.2159 -1.1192
  637SOL     hw 2547   6.209   1.425   6.253 -0.1370 -1.3004 -0.2294
  637SOL     vw 2548   6.133   1.456   6.280  0.1898 -0.0402 -0.6835
  638SOL     ow 2549   2.890   1.026   5.055 -0.1624  0.8020 -0.9920
  638SOL     hw 2550   2.891   1.044   4.961 -1.3933  1.2024 -0.9454
  638SOL     hw 2551   2.900   0.931   5.061 -2.9190  0.3805 -1.7103
  638SOL     vw 2552   2.891   1.016   5.043 -0.6887  0.7993 -1.0803
  639SOL     ow 2553   4.813   2.961   3.818 -0.2462 -0.2509  0.1104
  639SOL     hw 2554   4.865   2.916   3.885 -1.8814 -0.8942  1.0198
  639SOL     hw 2555   4.868   2.959   3.740  0.8393 -1.4458  0.8480
  639SOL     vw 2556   4.827   2.955   3.817 -0.3190 -0.4935  0.3277
  640SOL     ow 2557   2.321   4.407   0.091  0.5173  0.1916  0.3260
  640SOL     hw 2558   2.383   4.340   0.061  0.2856  0.3933 -0.6206
  640SOL     hw 2559   2.308   4.464   0.015 -0.6673  0.2790  0.5734
  640SOL     vw 2560   2.328   4.406   0.077  0.3303  0.2296  0.2337
  641SOL     ow 2561   4.241   1.803   2.102  0.6693  0.9000  0.7492
  641SOL     hw 2562   4.323   1.832   2.061  0.6100  0.3409  0.2070
  641SOL     hw 2563   4.241   1.708   2.090 -1.0438  1.0691 -1.1814
  641SOL     vw 2564   4.252   1.794   2.095  0.4354  0.8485  0.4230
  642SOL     ow 2565   6.805   0.908   0.656 -0.0612  0.3578 -0.0032
  642SOL     hw 2566   6.874   0.896   0.592  0.6015  0.9741  0.5776
  642SOL     hw 2567   6.725   0.919   0.604  0.5611  1.4959 -0.7564
  642SOL     vw 2568   6.803   0.908   0.641  0.1080  0.5893 -0.0259
  643SOL     ow 2569   6.996   5.960   2.042 -0.4445 -0.0975 -0.4904
  643SOL     hw 2570   7.076   5.923   2.004 -1.2093 -0.3853 -1.9233
  643SOL     hw 2571   6.925   5.920   1.991 -1.6690 -1.5086  2.1268
  643SOL     vw 2572   6.997   5.950   2.030 -0.7069 -0.3216 -0.3343
  644SOL     ow 2573   1.839   4.277   2.881  0.3365 -0.2590 -0.0355
  644SOL     hw 2574   1.848   4.237   2.794  0.5018  0.1222 -0.1997
  644SOL     hw 2575   1.928   4.282   2.915  0.4641  0.9981 -0.5002
  644SOL     vw 2576   1.852   4.273   2.874  0.3752 -0.0432 -0.1186
  645SOL     ow 2577   6.752   3.461   4.842 -0.0625  0.1461  0.4667
  645SOL     hw 2578   6.690   3.487   4.911 -0.8963  0.6839 -0.4643
  645SOL     hw 2579   6.821   3.413   4.889 -0.2327  1.1080  1.7847
  645SOL     vw 2580   6.753   3.458   4.857 -0.1950  0.3439  0.5178
  646SOL     ow 2581   0.186   4.281   5.073  0.2155  0.2004 -0.8035
  646SOL     hw 2582   0.239   4.311   5.000 -0.0919 -2.0774 -2.0861
  646SOL     hw 2583   0.095   4.290   5.042 -0.0506  1.3671  0.2371
  646SOL     vw 2584   0.181   4.286   5.060  0.1398  0.0539 -0.8357
  647SOL     ow 2585   4.706   5.619   3.307  0.0798  0.3266 -0.8406
  647SOL     hw 2586   4.663   5.660   3.382 -0.2436  1.9738 -1.8807
  647SOL     hw 2587   4.799   5.620   3.329 -0.0884 -0.0536 -0.0841
  647SOL     vw 2588   4.713   5.624   3.320  0.0148  0.4935 -0.8781
  648SOL     ow 2589   4.688   5.884   2.801  0.2671  0.2457  0.3184
  648SOL     hw 2590   4.749   5.851   2.735  0.1792 -2.2748  1.3765
  648SOL     hw 2591   4.607   5.903   2.752  0.7431  0.0969 -0.5419
  648SOL     vw 2592   4.685   5.882   2.786  0.3181 -0.1066  0.3444
  649SOL     ow 2593   5.885   2.832   3.547  0.0775  0.3931  0.2836
  649SOL     hw 2594   5.941   2.756   3.561 -1.2498 -1.3696 -2.9485
  649SOL     hw 2595   5.801   2.807   3.586  0.4526  1.6070  2.0135
  649SOL     vw 2596   5.881   2.819   3.554 -0.0482  0.3208  0.0854
  650SOL     ow 2597   2.556   5.838   0.592  0.2102  0.5497  0.0524
  650SOL     hw 2598   2.480   5.807   0.642 -0.5280  0.2784 -1.1807
  650SOL     hw 2599   2.553   5.933   0.601  2.3654  0.4592  3.6910
  650SOL     vw 2600   2.545   5.846   0.600  0.3971  0.5019  0.3698
  651SOL     ow 2601   4.368   4.436   1.955  0.1063  0.2172 -0.5274
  651SOL     hw 2602   4.308   4.416   1.884  0.6442  0.2978 -1.0076
  651SOL     hw 2603   4.315   4.484   2.019 -0.9439 -1.6778  0.1357
  651SOL     vw 2604   4.354   4.440   1.954  0.0386 -0.0222 -0.5032
  652SOL     ow 2605   4.039   0.034   4.702  0.3181  0.0321 -0.1837
  652SOL     hw 2606   3.966   0.094   4.720  0.9522  0.1800  2.0645
  652SOL     hw 2607   4.030  -0.035   4.768  1.1524 -0.9598 -1.0759
  652SOL     vw 2608   4.028   0.033   4.713  0.5119 -0.0792 -0.0048
  653SOL     ow 2609   2.947   4.029   1.832  0.5458  0.0390  0.5428
  653SOL     hw 2610   2.867   3.977   1.823  0.6015  0.2376 -1.6381
  653SOL     hw 2611   3.011   3.969   1.871 -0.2264 -0.5931  0.8618
  653SOL     vw 2612   2.945   4.014   1.836  0.4512 -0.0181  0.2971
  654SOL     ow 2613   2.698   5.241   2.019 -0.1997  0.4358 -0.5557
  654SOL     hw 2614   2.652   5.230   1.936  0.0195  0.3063 -0.6613
  654SOL     hw 2615   2.760   5.312   2.003 -0.4519  0.7002 -0.3748
  654SOL     vw 2616   2.700   5.249   2.006 -0.2041  0.4537 -0.5459
  655SOL     ow 2617   3.180   3.050   4.837 -0.1897  0.7351 -0.0665
  655SOL     hw 2618   3.104   3.107   4.850  0.5582  1.6910  0.1665
  655SOL     hw 2619   3.209   3.028   4.926  1.0320  2.0516 -0.1056
  655SOL     vw 2620   3.173   3.054   4.851  0.0702  1.0350 -0.0410
  656SOL     ow 2621   5.148   2.889   0.493  0.0785  0.3863  0.3564
  656SOL     hw 2622   5.166   2.803   0.532 -0.9570 -0.4111 -0.8321
  656SOL     hw 2623   5.216   2.900   0.427 -1.6032 -1.1175 -1.8190
  656SOL     vw 2624   5.159   2.879   0.489 -0.2799  0.0825 -0.0874
  657SOL     ow 2625   3.909   6.818   2.243  0.0390 -0.1185 -0.0822
  657SOL     hw 2626   3.984   6.876   2.230 -0.3719  0.2008 -1.0981
  657SOL     hw 2627   3.835   6.877   2.259 -0.1098 -0.4124  0.3326
  657SOL     vw 2628   3.909   6.833   2.243 -0.0349 -0.1154 -0.1614
  658SOL     ow 2629   3.963   4.495   5.459  0.7721  0.3163 -0.0073
  658SOL     hw 2630   3.990   4.404   5.457 -0.5386 -0.0866 -0.3948
  658SOL     hw 2631   3.973   4.522   5.550  1.8146  0.0043 -0.0214
  658SOL     vw 2632   3.968   4.487   5.470  0.7367  0.2220 -0.0603
  659SOL     ow 2633   2.391   2.611   5.418  0.7963 -0.1362  0.2993
  659SOL     hw 2634   2.452   2.685   5.427  1.7360 -0.7976 -0.4449
  659SOL     hw 2635   2.447   2.533   5.424 -0.0128 -0.7629 -0.1646
  659SOL     vw 2636   2.407   2.611   5.420  0.8136 -0.3060  0.1400
  660SOL     ow 2637   6.085   3.830   0.736 -0.2384 -0.7848 -0.6705
  660SOL     hw 2638   5.989   3.827   0.741 -0.2248  0.0134  0.5569
  660SOL     hw 2639   6.105   3.923   0.725  0.4505 -0.3624  2.7722
  660SOL     vw 2640   6.075   3.842   0.735 -0.1457 -0.6239 -0.0544
  661SOL     ow 2641   3.802   2.899   0.619  0.2092  0.1579  0.2110
  661SOL     hw 2642   3.829   2.818   0.661  0.1760  0.4855  0.8790
  661SOL     hw 2643   3.756   2.947   0.688  1.4901  1.3764  0.2789
  661SOL     vw 2644   3.800   2.895   0.634  0.3738  0.3619  0.3080
  662SOL     ow 2645   1.144   5.096   4.014  0.5197 -0.4966 -0.1139
  662SOL     hw 2646   1.239   5.099   4.011  0.4704  1.5552 -1.4623
  662SOL     hw 2647   1.122   5.004   3.998  2.2360 -0.8236 -0.7611
  662SOL     vw 2648   1.154   5.084   4.012  0.7396 -0.2692 -0.3772
  663SOL     ow 2649   5.532   2.686   0.888  0.0022  0.5212 -0.6986
  663SOL     hw 2650   5.490   2.770   0.904 -2.9083 -0.5316 -2.1643
  663SOL     hw 2651   5.492   2.627   0.951 -0.3966 -0.4220 -1.8063
  663SOL     vw 2652   5.521   2.689   0.899 -0.4344  0.2580 -1.0382
  664SOL     ow 2653   1.677   1.480   5.682  0.0006  0.0079 -0.1042
  664SOL     hw 2654   1.667   1.442   5.595 -2.6221  1.1258 -0.3909
  664SOL     hw 2655   1.764   1.520   5.681 -0.6471  1.6403 -2.9445
  664SOL     vw 2656   1.687   1.481   5.670 -0.4308  0.3708 -0.5169
  665SOL     ow 2657   6.760   0.876   4.193  0.1733  0.6309  0.0251
  665SOL     hw 2658   6.776   0.782   4.189 -0.3605  0.5365  0.0277
  665SOL     hw 2659   6.707   0.888   4.272 -0.4709  0.8288 -0.4305
  665SOL     vw 2660   6.755   0.865   4.203  0.0179  0.6446 -0.0346
  666SOL     ow 2661   2.684   4.236   6.221 -0.0996 -0.1128  0.3171
  666SOL     hw 2662   2.607   4.272   6.264  1.5838  4.4142  0.1170
  666SOL     hw 2663   2.730   4.188   6.290 -1.5039 -0.1050  1.2892
  666SOL     vw 2664   2.680   4.235   6.235 -0.0627  0.4859  0.4189
  667SOL     ow 2665   1.890   1.790   6.993 -0.2034  0.4876 -0.1835
  667SOL     hw 2666   1.861   1.830   6.911 -2.5495 -1.2422 -0.3152
  667SOL     hw 2667   1.953   1.723   6.966  0.1779  0.9318 -0.4097
  667SOL     vw 2668   1.894   1.786   6.978 -0.4627  0.3180 -0.2308
  668SOL     ow 2669   0.018   6.720   1.317 -0.3693 -0.0663  0.4282
  668SOL     hw 2670  -0.047   6.765   1.262  0.2442  1.7721  1.1521
  668SOL     hw 2671   0.032   6.636   1.273 -0.5201  0.9981 -1.7692
  668SOL     vw 2672   0.011   6.715   1.304 -0.3083  0.3169  0.2338
  669SOL     ow 2673   5.319   2.081   5.347 -0.6598 -0.5796  0.4019
  669SOL     hw 2674   5.276   1.997   5.366 -1.9258  0.0906  0.5688
  669SOL     hw 2675   5.396   2.081   5.404 -0.5077 -1.7349  0.2227
  669SOL     vw 2676   5.323   2.070   5.357 -0.8068 -0.6436  0.4005
  670SOL     ow 2677   6.351   2.781   4.387 -0.2743  0.4904  0.1371
  670SOL     hw 2678   6.432   2.801   4.340 -0.0266 -0.3540  0.1949
  670SOL     hw 2679   6.376   2.780   4.479 -0.7632  2.1510  0.3349
  670SOL     vw 2680   6.365   2.784   4.393 -0.3059  0.5981  0.1709
  671SOL     ow 2681   6.859   6.420   4.361  0.3280  0.2514  0.7104
  671SOL     hw 2682   6.770   6.417   4.324  0.8478  0.7166 -0.6071
  671SOL     hw 2683   6.851   6.372   4.444 -1.2031  0.4705  0.7318
  671SOL     vw 2684   6.846   6.413   4.367  0.1945  0.3419  0.5395
  672SOL     ow 2685   6.222   0.492   5.914 -0.2258  0.1398 -0.3691
  672SOL     hw 2686   6.306   0.522   5.949 -0.0703  2.4201 -2.4961
  672SOL     hw 2687   6.158   0.553   5.951 -0.7114 -0.4582 -0.2163
  672SOL     vw 2688   6.225   0.504   5.924 -0.2694  0.3617 -0.6297
  673SOL     ow 2689   1.325   3.542   4.437 -0.2611  0.1026 -0.0656
  673SOL     hw 2690   1.390   3.489   4.391 -0.5457 -0.6891  0.4384
  673SOL     hw 2691   1.375   3.615   4.474  0.2602 -0.2399 -0.0899
  673SOL     vw 2692   1.340   3.545   4.436 -0.2299 -0.0470 -0.0021
  674SOL     ow 2693   0.868   0.355   2.129 -0.4474  0.3986  0.0795
  674SOL     hw 2694   0.932   0.406   2.080 -0.1016  1.5030  1.6129
  674SOL     hw 2695   0.879   0.265   2.097 -0.4135  1.0985 -1.9858
  674SOL     vw 2696   0.878   0.350   2.119 -0.3973  0.6367  0.0094
  675SOL     ow 2697   0.370   0.601   3.282 -0.0235  0.4065 -0.2381
  675SOL     hw 2698   0.361   0.577   3.375  1.8746  0.6818  0.0474
  675SOL     hw 2699   0.330   0.528   3.235  2.7292 -1.9335  0.7173
  675SOL     vw 2700   0.364   0.588   3.288  0.5901  0.1341 -0.0745
  676SOL     ow 2701   2.543   3.116   1.312  0.6198  0.7544 -0.2212
  676SOL     hw 2702   2.551   3.176   1.238 -0.0702  0.0821 -0.8576
  676SOL     hw 2703   2.632   3.080   1.323  0.8794  1.3789 -0.2680
  676SOL     vw 2704   2.556   3.119   1.304  0.5630  0.7482 -0.3113
  677SOL     ow 2705   3.578   3.495   5.310 -0.2605  0.3361 -0.8906
  677SOL     hw 2706   3.660   3.472   5.267 -0.4992  1.4592 -1.9901
  677SOL     hw 2707   3.531   3.547   5.246 -2.4227 -1.3345 -0.7526
  677SOL     vw 2708   3.583   3.499   5.296 -0.5773  0.2639 -1.0176
  678SOL     ow 2709   6.822   4.575   1.705  0.1011 -0.5165 -0.1796
  678SOL     hw 2710   6.887   4.644   1.719  0.1035 -0.6997  0.7440
  678SOL     hw 2711   6.802   4.542   1.792 -1.6024 -0.1377 -0.3822
  678SOL     vw 2712   6.828   4.580   1.718 -0.1233 -0.4909 -0.0844
  679SOL     ow 2713   1.190   3.804   5.277 -0.0668  0.0622 -0.2165
  679SOL     hw 2714   1.264   3.854   5.312 -0.4165  1.6751 -1.6536
  679SOL     hw 2715   1.165   3.746   5.349  2.4508 -0.4131  0.3660
  679SOL     vw 2716   1.197   3.803   5.291  0.2193  0.2123 -0.3293
  680SOL     ow 2717   0.489   5.136   0.014  0.7935 -0.5672 -0.1798
  680SOL     hw 2718   0.449   5.074   0.076 -1.1703  1.3903  0.6445
  680SOL     hw 2719   0.540   5.080  -0.045 -3.7953 -3.6052 -1.9143
  680SOL     vw 2720   0.490   5.120   0.015 -0.0710 -0.7098 -0.2997
  681SOL     ow 2721   4.710   6.795   5.638 -0.2720 -0.1181 -0.7455
  681SOL     hw 2722   4.619   6.814   5.617 -0.1992  1.3271  0.0808
  681SOL     hw 2723   4.724   6.837   5.724  1.8987  2.2271 -2.0994
  681SOL     vw 2724   4.700   6.803   5.647  0.0241  0.3822 -0.8152
  682SOL     ow 2725   3.969   4.566   5.709  0.3214  0.5157  0.2299
  682SOL     hw 2726   4.021   4.647   5.709  0.7623  0.2654  1.5765
  682SOL     hw 2727   4.004   4.516   5.782 -0.6983 -0.4130  0.1023
  682SOL     vw 2728   3.980   4.570   5.719  0.2451  0.3603  0.3908
  683SOL     ow 2729   6.034   1.780   0.367  0.3513 -0.2292 -0.3237
  683SOL     hw 2730   6.125   1.772   0.398  0.4392 -0.3667 -0.6150
  683SOL     hw 2731   6.002   1.859   0.409  0.8361  0.2237 -0.7779
  683SOL     vw 2732   6.042   1.789   0.377  0.4265 -0.1876 -0.4221
  684SOL     ow 2733   5.914   1.011   2.133 -0.1242  0.2583  0.3706
  684SOL     hw 2734   5.992   1.014   2.078 -0.5224 -3.7632 -0.8047
  684SOL     hw 2735   5.851   0.958   2.082 -1.9032 -0.5025  3.1280
  684SOL     vw 2736   5.916   1.004   2.119 -0.4115 -0.3727  0.5792
  685SOL     ow 2737   2.965   2.663   0.896 -0.1611  0.3715  0.5732
  685SOL     hw 2738   2.951   2.682   0.803 -0.7645  0.2513  0.6389
  685SOL     hw 2739   2.877   2.658   0.934  0.0540 -0.3986  0.9911
  685SOL     vw 2740   2.952   2.665   0.889 -0.2124  0.2539  0.6370
  686SOL     ow 2741   5.168   2.276   5.207  0.0331 -0.2647  0.4720
  686SOL     hw 2742   5.169   2.366   5.174 -0.9074 -1.1069 -2.1078
  686SOL     hw 2743   5.088   2.270   5.258  0.3639  0.4806  1.0982
  686SOL     vw 2744   5.158   2.287   5.209 -0.0472 -0.2774  0.2143
  687SOL     ow 2745   4.893   1.069   4.494  0.8145  0.1788  0.9051
  687SOL     hw 2746   4.884   1.016   4.573  0.4676 -2.6999 -0.9057
  687SOL     hw 2747   4.819   1.043   4.439  0.3554  2.9834  0.0560
  687SOL     vw 2748   4.882   1.059   4.497  0.7081  0.1690  0.5541
  688SOL     ow 2749   3.979   5.046   2.371  0.2197  0.6458 -0.7771
  688SOL     hw 2750   4.010   5.113   2.311  1.1927  0.2714 -0.7062
  688SOL     hw 2751   4.052   5.031   2.431  0.5030 -1.3378 -1.5237
  688SOL     vw 2752   3.993   5.053   2.371  0.3854  0.3350 -0.8664
  689SOL     ow 2753   3.247   4.470   6.031 -0.0781  0.1002  0.0791
  689SOL     hw 2754   3.287   4.383   6.035 -0.6712 -0.1382  1.1511
  689SOL     hw 2755   3.319   4.528   6.007  0.0600 -0.8378 -1.9835
  689SOL     vw 2756   3.262   4.466   6.028 -0.1382 -0.0551 -0.0515
  690SOL     ow 2757   5.711   5.815   1.039  0.1466 -0.1133 -0.3968
  690SOL     hw 2758   5.760   5.877   1.092  0.5986 -1.4150  0.7509
  690SOL     hw 2759   5.773   5.785   0.972 -0.4134  1.5014 -1.7198
  690SOL     vw 2760   5.725   5.819   1.037  0.1323 -0.0720 -0.4199
  691SOL     ow 2761   2.192   3.814   0.529 -0.3687  0.5409  0.5858
  691SOL     hw 2762   2.161   3.823   0.619  1.0101  0.0387  1.1311
  691SOL     hw 2763   2.175   3.900   0.490 -1.3304  0.6494  1.1963
  691SOL     vw 2764   2.186   3.827   0.536 -0.3136  0.4889  0.7383
  692SOL     ow 2765   1.066   2.154   0.886  0.6278 -0.3797 -0.0372
  692SOL     hw 2766   1.085   2.247   0.902 -2.3821  0.0930  1.4591
  692SOL     hw 2767   1.110   2.108   0.957  0.8085  0.0709  0.1502
  692SOL     vw 2768   1.074   2.160   0.897  0.2546 -0.2578  0.1850
  693SOL     ow 2769   5.760   4.515   3.529 -0.0212 -0.1096  0.4501
  693SOL     hw 2770   5.777   4.604   3.559 -0.9690  0.5795 -0.9233
  693SOL     hw 2771   5.798   4.512   3.441 -0.3567 -0.9269  0.3279
  693SOL     vw 2772   5.767   4.526   3.522 -0.1905 -0.1264  0.2527
  694SOL     ow 2773   3.695   5.937   5.831 -0.5089  0.2577 -0.3324
  694SOL     hw 2774   3.740   5.956   5.913 -1.9765 -0.8658  0.7924
  694SOL     hw 2775   3.618   5.994   5.832 -1.5365 -1.0911  0.0139
  694SOL     vw 2776   3.690   5.947   5.842 -0.8382 -0.0684 -0.1383
  695SOL     ow 2777   3.785   0.961   0.716  0.7344 -0.2723  0.5238
  695SOL     hw 2778   3.778   1.044   0.762  0.9542  1.1947 -1.9547
  695SOL     hw 2779   3.793   0.896   0.786  1.6284  1.8535  2.5163
  695SOL     vw 2780   3.785   0.963   0.732  0.8814  0.2017  0.4597
  696SOL     ow 2781   4.090   6.436   1.533  0.0967 -0.0017 -0.2537
  696SOL     hw 2782   4.027   6.424   1.603  1.0741 -0.8963  0.5061
  696SOL     hw 2783   4.150   6.362   1.542  1.2760  0.8397 -0.9110
  696SOL     vw 2784   4.090   6.425   1.543  0.3810 -0.0086 -0.2402
  697SOL     ow 2785   5.490   1.117   5.282 -0.7563  0.0913 -0.1067
  697SOL     hw 2786   5.406   1.073   5.269  0.4101 -1.9401 -1.1236
  697SOL     hw 2787   5.549   1.076   5.219  0.8975  1.8380  0.2186
  697SOL     vw 2788   5.487   1.106   5.272 -0.3841  0.0538 -0.1981
  698SOL     ow 2789   3.155   0.295   4.801 -0.3699 -0.6545  0.1912
  698SOL     hw 2790   3.248   0.299   4.780  0.0210 -3.9014  0.7718
  698SOL     hw 2791   3.147   0.340   4.885 -0.1748  3.2482 -1.6335
  698SOL     vw 2792   3.166   0.302   4.809 -0.2925 -0.5680  0.0269
  699SOL     ow 2793   5.055   3.780   6.563  0.4682 -0.3278  0.2219
  699SOL     hw 2794   5.108   3.704   6.542 -0.1551 -0.8078  0.3755
  699SOL     hw 2795   5.045   3.827   6.480 -0.5532 -1.3114 -0.2412
  699SOL     vw 2796   5.060   3.776   6.549  0.2513 -0.5207  0.1812
  700SOL     ow 2797   7.079   1.545   1.699 -0.5432  0.0294 -0.5567
  700SOL     hw 2798   7.156   1.563   1.645 -0.0259 -1.5980 -0.4299
  700SOL     hw 2799   7.107   1.566   1.788  0.6204 -2.6113 -0.1705
  700SOL     vw 2800   7.093   1.550   1.703 -0.3216 -0.5338 -0.4891
  701SOL     ow 2801   5.383   1.437   1.924  0.1395 -0.4649  0.0103
  701SOL     hw 2802   5.316   1.371   1.944 -0.5062  0.8221  2.4025
  701SOL     hw 2803   5.333   1.512   1.892  0.7113 -0.4150 -0.8082
  701SOL     vw 2804   5.367   1.438   1.922  0.1297 -0.2885  0.2180
  702SOL     ow 2805   7.096   0.443   6.440  0.8892 -0.2443  0.2336
  702SOL     hw 2806   7.188   0.452   6.414  0.6245  2.0339 -0.1715
  702SOL     hw 2807   7.047   0.460   6.359 -0.0269 -5.4771 -0.6524
  702SOL     vw 2808   7.101   0.446   6.426  0.7331 -0.6342  0.0632
  703SOL     ow 2809   2.060   6.727   0.399 -0.4337 -0.1162  0.1631
  703SOL     hw 2810   2.102   6.662   0.342 -2.6367 -1.9456  0.4526
  703SOL     hw 2811   1.987   6.761   0.347  0.9856  2.6335 -0.1733
  703SOL     vw 2812   2.056   6.723   0.385 -0.5370  0.0055  0.1569
  704SOL     ow 2813   4.534   5.092   4.112 -0.0404  0.5054  0.4132
  704SOL     hw 2814   4.519   5.093   4.018  0.1050  1.6829  0.3811
  704SOL     hw 2815   4.627   5.116   4.122  0.0527 -0.0125  0.8410
  704SOL     vw 2816   4.544   5.095   4.101 -0.0088  0.5927  0.4659
  705SOL     ow 2817   5.140   4.349   6.168 -0.4620 -0.1979  0.2305
  705SOL     hw 2818   5.125   4.420   6.106 -0.5165 -1.2702 -1.0155
  705SOL     hw 2819   5.053   4.327   6.202 -0.6147 -0.5370 -0.3715
  705SOL     vw 2820   5.126   4.356   6.164 -0.4892 -0.3841 -0.0131
  706SOL     ow 2821   1.777   4.733   5.600  0.8390  0.4829 -0.1584
  706SOL     hw 2822   1.860   4.770   5.568  0.5399  0.1765 -1.3468
  706SOL     hw 2823   1.709   4.785   5.557  0.4139 -1.0920 -1.5182
  706SOL     vw 2824   1.779   4.744   5.590  0.7435  0.2344 -0.4947
  707SOL     ow 2825   2.236   3.103   1.446 -0.3222  0.4466 -0.4068
  707SOL     hw 2826   2.179   3.109   1.523  0.3795 -1.5039  0.3249
  707SOL     hw 2827   2.201   3.029   1.397  1.4432 -0.7477  0.0133
  707SOL     vw 2828   2.224   3.094   1.450  0.0033  0.0317 -0.2549
  708SOL     ow 2829   1.169   4.243   2.025  0.1315 -0.7555  0.1888
  708SOL     hw 2830   1.131   4.161   1.992  0.0206 -0.8087  0.4464
  708SOL     hw 2831   1.214   4.218   2.105 -0.1089 -0.5199  0.3991
  708SOL     vw 2832   1.170   4.229   2.031  0.0851 -0.7315  0.2505
  709SOL     ow 2833   3.674   1.827   3.616  1.4731 -0.1662  0.0232
  709SOL     hw 2834   3.630   1.825   3.701  1.1681  3.5584  0.1180
  709SOL     hw 2835   3.620   1.772   3.560  1.0497 -1.8031  1.9241
  709SOL     vw 2836   3.661   1.819   3.620  1.3769  0.1093  0.2865
  710SOL     ow 2837   2.819   3.963   3.358 -0.8563 -0.0839 -0.2412
  710SOL     hw 2838   2.749   4.018   3.392  0.0308  0.7795  0.2418
  710SOL     hw 2839   2.859   4.015   3.288 -0.3583 -0.3314 -0.1465
  710SOL     vw 2840   2.815   3.977   3.354 -0.6734 -0.0025 -0.1650
  711SOL     ow 2841   0.498   1.857   0.614 -0.6114  0.1005  0.0598
  711SOL     hw 2842   0.505   1.951   0.633 -0.3488  0.3326 -1.0912
  711SOL     hw 2843   0.468   1.853   0.523  0.0859 -0.9210 -0.1487
  711SOL     vw 2844   0.495   1.869   0.604 -0.4847 -0.0036 -0.1196
  712SOL     ow 2845   3.691   3.527   4.525  0.2446 -0.1734 -0.3953
  712SOL     hw 2846   3.766   3.572   4.486 -0.7912  2.5708  0.5594
  712SOL     hw 2847   3.616   3.579   4.499 -1.1967 -1.9557 -0.0050
  712SOL     vw 2848   3.691   3.540   4.517 -0.0823 -0.0465 -0.2174
  713SOL     ow 2849   5.143   5.441   0.274 -0.1131 -0.2914 -0.0063
  713SOL     hw 2850   5.229   5.400   0.288  1.6443  2.6798 -1.3170
  713SOL     hw 2851   5.086   5.396   0.337  2.3537 -2.3650  0.9673
  713SOL     vw 2852   5.147   5.430   0.284  0.4444 -0.1733 -0.0508
  714SOL     ow 2853   0.585   3.908   4.067 -0.2091 -0.2975  0.0374
  714SOL     hw 2854   0.511   3.930   4.009  1.5783  1.1134 -1.8643
  714SOL     hw 2855   0.563   3.822   4.102 -1.0402 -1.7085 -3.5263
  714SOL     vw 2856   0.572   3.900   4.064 -0.0829 -0.2973 -0.6835
  715SOL     ow 2857   5.447   2.234   5.117 -0.0360 -0.7061  0.4670
  715SOL     hw 2858   5.434   2.324   5.147 -2.4486 -0.1966 -1.7196
  715SOL     hw 2859   5.429   2.237   5.023  1.1528 -3.2476  0.0649
  715SOL     vw 2860   5.443   2.246   5.109 -0.1976 -0.9741  0.1252
  716SOL     ow 2861   2.806   4.250   4.628 -0.6456  0.0721 -0.1812
  716SOL     hw 2862   2.780   4.158   4.632  1.9062 -0.7129  0.0454
  716SOL     hw 2863   2.840   4.269   4.716  4.2070 -0.6440 -1.5895
  716SOL     vw 2864   2.807   4.240   4.640  0.3313 -0.1261 -0.3369
  717SOL     ow 2865   3.934   0.396   2.303 -0.1984  0.0596  0.8947
  717SOL     hw 2866   3.964   0.478   2.342  0.2012  0.1716  0.3567
  717SOL     hw 2867   3.865   0.423   2.242  0.6441  0.1096 -0.0496
  717SOL     vw 2868   3.929   0.411   2.300 -0.0345  0.0810  0.6992
  718SOL     ow 2869   6.072   5.820   2.780 -0.6129  0.2194 -0.1192
  718SOL     hw 2870   6.155   5.818   2.732 -0.4758 -0.6787  0.1483
  718SOL     hw 2871   6.091   5.871   2.858 -0.3385  0.1163 -0.1161
  718SOL     vw 2872   6.085   5.826   2.784 -0.5589  0.0873 -0.0836
  719SOL     ow 2873   5.960   6.771   4.148  0.8759 -0.2638 -0.1378
  719SOL     hw 2874   6.006   6.845   4.107  1.7581 -1.3085 -1.1168
  719SOL     hw 2875   5.909   6.811   4.219  2.8294  1.0589  0.6266
  719SOL     vw 2876   5.960   6.786   4.152  1.2500 -0.2272 -0.1662
  720SOL     ow 2877   4.962   2.292   1.725 -0.6706  0.4941  0.6525
  720SOL     hw 2878   5.014   2.239   1.785 -1.5930 -1.0087  0.1657
  720SOL     hw 2879   5.025   2.356   1.690  0.8345 -1.1513  0.1896
  720SOL     vw 2880   4.977   2.294   1.728 -0.5937  0.0787  0.5272
  721SOL     ow 2881   2.838   0.139   0.465 -0.9156 -0.4863  0.6923
  721SOL     hw 2882   2.863   0.115   0.554 -0.2559 -0.2044  0.5872
  721SOL     hw 2883   2.774   0.073   0.439 -0.4923 -1.0503  1.0731
  721SOL     vw 2884   2.833   0.127   0.473 -0.7728 -0.5235  0.7287
  722SOL     ow 2885   2.095   5.873   3.017 -0.1165 -0.4045  0.5449
  722SOL     hw 2886   2.103   5.926   3.097 -0.6134  0.4211  0.0586
  722SOL     hw 2887   2.004   5.844   3.017  0.0855 -1.0710  0.6728
  722SOL     vw 2888   2.084   5.876   3.028 -0.1553 -0.3836  0.4977
  723SOL     ow 2889   0.207   1.078   2.062 -0.9206  0.5122 -0.6036
  723SOL     hw 2890   0.145   1.064   1.990  0.9653 -0.2262 -2.1483
  723SOL     hw 2891   0.266   1.146   2.030  1.4050 -1.4810 -0.8112
  723SOL     vw 2892   0.206   1.085   2.048 -0.3649  0.1518 -0.8348
  724SOL     ow 2893   4.228   2.067   1.407 -0.2698  0.3370  1.0071
  724SOL     hw 2894   4.248   2.146   1.457 -1.5863  0.0047  2.0931
  724SOL     hw 2895   4.268   1.996   1.457  1.4308  0.3185 -0.2721
  724SOL     vw 2896   4.236   2.068   1.420 -0.2191  0.2908  0.9816
  725SOL     ow 2897   3.789   6.707   0.083 -0.0772  0.9147 -0.2608
  725SOL     hw 2898   3.826   6.623   0.111 -1.0568  0.7095  0.4529
  725SOL     hw 2899   3.707   6.685   0.039  0.4365  1.3979 -1.5109
  725SOL     vw 2900   3.783   6.693   0.081 -0.1386  0.9513 -0.3316
  726SOL     ow 2901   3.903   5.886   4.137 -0.9848 -0.0292  0.0931
  726SOL     hw 2902   3.858   5.968   4.157 -1.7096 -0.4000  0.0385
  726SOL     hw 2903   3.996   5.908   4.137 -1.2238  1.4055 -2.5913
  726SOL     vw 2904   3.909   5.900   4.139 -1.1120  0.1111 -0.2682
  727SOL     ow 2905   4.678   1.286   2.890 -0.0844 -0.0950  0.1546
  727SOL     hw 2906   4.632   1.204   2.871  1.6810 -1.4104  1.1774
  727SOL     hw 2907   4.753   1.259   2.944  0.8003  2.1580  0.1563
  727SOL     vw 2908   4.682   1.272   2.895  0.2651  0.0287  0.2897
  728SOL     ow 2909   2.735   4.957   2.125  0.2576  0.1332 -0.4767
  728SOL     hw 2910   2.827   4.937   2.108  0.0926 -1.3076  0.1691
  728SOL     hw 2911   2.688   4.882   2.090 -0.5586  0.2069  0.4404
  728SOL     vw 2912   2.741   4.944   2.118  0.1280 -0.0472 -0.2705
  729SOL     ow 2913   0.593   2.573   3.070 -0.3403 -0.2599 -0.1073
  729SOL     hw 2914   0.578   2.548   2.979  1.0523  3.8454 -1.7260
  729SOL     hw 2915   0.505   2.584   3.106 -0.9254 -1.4631 -1.0640
  729SOL     vw 2916   0.579   2.571   3.063 -0.2338  0.1231 -0.4472
  730SOL     ow 2917   6.969   2.346   2.262  0.4047  0.1656 -0.1619
  730SOL     hw 2918   6.881   2.374   2.236  0.2231  1.6813  1.8407
  730SOL     hw 2919   7.028   2.395   2.206 -0.0046  1.1905  0.2816
  730SOL     vw 2920   6.965   2.356   2.251  0.3266  0.5008  0.1608
  731SOL     ow 2921   5.262   5.839   1.536 -0.2405  0.4064  0.3718
  731SOL     hw 2922   5.310   5.821   1.617  1.5081  0.4646 -0.6066
  731SOL     hw 2923   5.302   5.919   1.502 -0.4158 -0.0497 -0.9499
  731SOL     vw 2924   5.274   5.847   1.543 -0.0329  0.3538  0.0683
  732SOL     ow 2925   1.660   0.009   0.318 -0.0761 -0.4217  0.0622
  732SOL     hw 2926   1.707  -0.074   0.323  2.4859  0.8099 -1.5020
  732SOL     hw 2927   1.639   0.020   0.225  3.2111  2.3866 -0.5224
  732SOL     vw 2928   1.663  -0.000   0.306  0.6957  0.1111 -0.2213
  733SOL     ow 2929   6.159   1.445   5.615 -0.0664  0.1198  0.4190
  733SOL     hw 2930   6.219   1.520   5.618 -0.6294  0.8816 -2.9398
  733SOL     hw 2931   6.111   1.450   5.698 -0.4509  3.8791  0.1747
  733SOL     vw 2932   6.160   1.456   5.626 -0.1915  0.7163 -0.0565
  734SOL     ow 2933   1.900   2.124   6.006 -0.8884 -0.8627  0.2653
  734SOL     hw 2934   1.818   2.087   5.972 -2.0222  0.9786  0.8598
  734SOL     hw 2935   1.953   2.141   5.928 -0.3984 -3.4052 -0.0493
  734SOL     vw 2936   1.896   2.121   5.991 -0.9733 -0.9551  0.3021
  735SOL     ow 2937   1.089   6.516   3.237  0.8303 -0.3566 -0.1694
  735SOL     hw 2938   1.167   6.486   3.282  1.4752 -1.6827 -2.0316
  735SOL     hw 2939   1.035   6.437   3.227 -1.9452  0.8771  3.1002
  735SOL     vw 2940   1.092   6.502   3.242  0.5491 -0.3688  0.0163
  736SOL     ow 2941   3.819   3.307   4.402  0.9709  0.7665  0.2997
  736SOL     hw 2942   3.915   3.304   4.403  0.9669  0.0601  1.8144
  736SOL     hw 2943   3.795   3.271   4.317  2.0316 -0.3352  0.4355
  736SOL     vw 2944   3.829   3.302   4.391  1.1102  0.5279  0.5174
  737SOL     ow 2945   3.932   3.881   0.680  0.0267 -0.5763 -0.8384
  737SOL     hw 2946   3.908   3.970   0.705 -0.1312 -0.9924  0.5810
  737SOL     hw 2947   4.017   3.866   0.722 -0.7061 -1.6469  0.3329
  737SOL     vw 2948   3.940   3.891   0.689 -0.0908 -0.7725 -0.4966
  738SOL     ow 2949   6.734   6.507   3.634 -0.4081 -0.6379  0.0481
  738SOL     hw 2950   6.752   6.522   3.542 -0.7849 -0.2066  0.0416
  738SOL     hw 2951   6.717   6.413   3.641 -0.3921 -0.6666 -0.3191
  738SOL     vw 2952   6.734   6.497   3.623 -0.4556 -0.5846 -0.0013
  739SOL     ow 2953   0.649   3.036   1.798  0.2802 -1.0799  0.5269
  739SOL     hw 2954   0.686   3.066   1.881  1.0837 -3.0776  0.9325
  739SOL     hw 2955   0.723   3.036   1.738 -0.7085  2.5835 -0.9498
  739SOL     vw 2956   0.664   3.040   1.801  0.2558 -0.8602  0.3855
  740SOL     ow 2957   1.553   6.607   2.573 -0.6429  0.5458  0.0309
  740SOL     hw 2958   1.550   6.534   2.634  0.2270  0.7354  0.3024
  740SOL     hw 2959   1.493   6.672   2.610  1.3649  1.5036  1.7993
  740SOL     vw 2960   1.544   6.606   2.586 -0.2633  0.6971  0.2999
  741SOL     ow 2961   2.727   5.081   0.794  0.3132  0.5366  0.5944
  741SOL     hw 2962   2.799   5.142   0.776 -0.1638  0.4459 -2.1844
  741SOL     hw 2963   2.651   5.137   0.809 -0.2666  0.8143 -2.5826
  741SOL     vw 2964   2.726   5.097   0.793  0.1737  0.5615 -0.1914
  742SOL     ow 2965   6.206   0.349   4.727  0.2678 -0.3834 -0.3505
  742SOL     hw 2966   6.242   0.316   4.809  0.6364 -2.9124 -1.4399
  742SOL     hw 2967   6.191   0.271   4.674  0.5572  1.1850 -2.9184
  742SOL     vw 2968   6.209   0.334   4.731  0.3548 -0.5101 -0.8330
  743SOL     ow 2969   1.140   6.349   2.394  0.2115  0.9957 -0.4359
  743SOL     hw 2970   1.187   6.275   2.432  0.1244  0.5482 -1.1867
  743SOL     hw 2971   1.140   6.416   2.463 -0.0745  0.1456  0.4074
  743SOL     vw 2972   1.146   6.348   2.408  0.1624  0.8245 -0.4238
  744SOL     ow 2973   0.644   0.782   5.199 -0.3500 -0.3623 -0.4893
  744SOL     hw 2974   0.701   0.710   5.225 -1.7378 -1.4232 -0.2723
  744SOL     hw 2975   0.605   0.752   5.116 -0.3702  0.4635 -0.7828
  744SOL     vw 2976   0.646   0.768   5.191 -0.5358 -0.3933 -0.4997
  745SOL     ow 2977   6.240   3.240   3.497 -0.3072 -0.1258  0.3305
  745SOL     hw 2978   6.234   3.317   3.552  0.3401  0.0606  0.1485
  745SOL     hw 2979   6.323   3.250   3.449  0.5052 -1.5870  1.3232
  745SOL     vw 2980   6.250   3.251   3.498 -0.1144 -0.2940  0.4375
  746SOL     ow 2981   3.593   5.661   4.845 -0.2316 -0.3167  0.6659
  746SOL     hw 2982   3.561   5.595   4.782 -2.5182  1.7205 -0.4836
  746SOL     hw 2983   3.551   5.742   4.817  3.7313  2.0807  1.0305
  746SOL     vw 2984   3.583   5.663   4.833 -0.0105  0.2682  0.5624
  747SOL     ow 2985   1.015   6.025   2.378 -0.2231 -0.7221  0.0604
  747SOL     hw 2986   1.028   6.039   2.284 -1.9786 -2.1078 -0.4377
  747SOL     hw 2987   1.099   5.992   2.409 -0.3961 -3.0273 -1.6463
  747SOL     vw 2988   1.028   6.022   2.370 -0.4776 -1.2090 -0.2306
  748SOL     ow 2989   2.444   2.195   3.780  0.3878 -0.0563  0.0955
  748SOL     hw 2990   2.360   2.152   3.796  0.6539 -0.5542  0.1609
  748SOL     hw 2991   2.454   2.255   3.854 -0.8512  1.5015 -0.9332
  748SOL     vw 2992   2.434   2.197   3.792  0.2594  0.0834 -0.0315
  749SOL     ow 2993   3.039   2.749   1.161 -0.0006  0.1918  0.3217
  749SOL     hw 2994   2.997   2.748   1.075  0.6076  2.6602 -0.0811
  749SOL     hw 2995   2.979   2.700   1.217 -1.5461  0.4213 -1.0367
  749SOL     vw 2996   3.025   2.742   1.157 -0.1242  0.5478  0.0893
  750SOL     ow 2997   7.049   5.859   6.983  0.2495 -0.3601  0.3462
  750SOL     hw 2998   7.062   5.773   6.942  1.5224 -0.7130  1.4151
  750SOL     hw 2999   6.965   5.851   7.028 -0.3081 -0.5621 -0.6898
  750SOL     vw 3000   7.040   5.846   6.984  0.3438 -0.4334  0.3505
  751SOL     ow 3001   5.699   6.619   5.966 -0.2333  0.0209 -0.0172
  751SOL     hw 3002   5.781   6.570   5.958  0.0450  0.5198 -0.2667
  751SOL     hw 3003   5.701   6.680   5.892 -2.7901 -2.7527 -2.6837
  751SOL     vw 3004   5.710   6.620   5.955 -0.5341 -0.2792 -0.4020
  752SOL     ow 3005   1.232   1.537   4.728  0.0495 -0.6283 -0.1512
  752SOL     hw 3006   1.167   1.582   4.782 -1.9191 -2.8429 -0.4937
  752SOL     hw 3007   1.181   1.472   4.679  2.0108 -0.0202 -3.2777
  752SOL     vw 3008   1.217   1.534   4.729  0.0485 -0.8403 -0.6092
  753SOL     ow 3009   6.494   5.112   5.282 -0.2744  0.0163 -0.4761
  753SOL     hw 3010   6.475   5.059   5.205  1.6160 -0.5233 -0.6153
  753SOL     hw 3011   6.417   5.100   5.339  0.1753 -3.1419 -0.3779
  753SOL     vw 3012   6.481   5.103   5.279  0.0343 -0.4716 -0.4814
  754SOL     ow 3013   4.841   1.272   2.673  0.1973  0.5453 -0.2384
  754SOL     hw 3014   4.934   1.290   2.687  0.4722 -0.7967 -0.2201
  754SOL     hw 3015   4.801   1.285   2.759  0.0667  2.6205 -0.5503
  754SOL     vw 3016   4.848   1.276   2.687  0.2162  0.6420 -0.2770
  755SOL     ow 3017   5.077   2.014   2.805 -0.6088  0.9538  0.6851
  755SOL     hw 3018   5.088   2.088   2.745 -1.8151  0.1824 -0.5415
  755SOL     hw 3019   5.073   1.937   2.748 -2.8674  0.2926  1.6147
  755SOL     vw 3020   5.078   2.014   2.790 -1.0660  0.7648  0.6459
  756SOL     ow 3021   6.166   2.110   4.467  1.2089 -0.3057  0.5576
  756SOL     hw 3022   6.146   2.039   4.405  2.7943 -1.0334  0.8416
  756SOL     hw 3023   6.129   2.080   4.550  0.2434  0.0739  0.2844
  756SOL     vw 3024   6.158   2.096   4.470  1.2908 -0.3517  0.5589
  757SOL     ow 3025   4.454   1.707   3.945  0.1183 -0.0060  0.0117
  757SOL     hw 3026   4.401   1.699   4.024 -0.7188 -0.7442 -0.5943
  757SOL     hw 3027   4.486   1.797   3.946 -0.2137  0.1117  0.9750
  757SOL     vw 3028   4.451   1.718   3.955 -0.0362 -0.0880  0.0589
  758SOL     ow 3029   6.707   6.770   2.620 -0.2290  0.1371 -0.2270
  758SOL     hw 3030   6.709   6.674   2.625 -0.1691  0.2109  2.3163
  758SOL     hw 3031   6.616   6.793   2.641  0.4257  0.6727  2.3835
  758SOL     vw 3032   6.695   6.760   2.624 -0.1349  0.2174  0.4530
  759SOL     ow 3033   7.051   6.647   2.958  0.3922 -0.3653  0.6770
  759SOL     hw 3034   6.983   6.640   3.024  1.4986 -1.0680  1.7928
  759SOL     hw 3035   7.061   6.558   2.924 -1.5090  0.2881 -1.9257
  759SOL     vw 3036   7.044   6.634   2.962  0.2873 -0.3719  0.4809
  760SOL     ow 3037   4.989   2.990   4.260  0.9121  0.4872  0.2173
  760SOL     hw 3038   4.949   2.951   4.337  0.5875  0.2379 -0.0753
  760SOL     hw 3039   4.955   2.939   4.187  2.0148  0.0561 -0.0216
  760SOL     vw 3040   4.979   2.978   4.261  1.0147  0.3973  0.1473
  761SOL     ow 3041   3.741   5.658   4.293 -0.3723  0.8037  0.1393
  761SOL     hw 3042   3.705   5.578   4.332 -2.4708  1.6902  0.1848
  761SOL     hw 3043   3.701   5.728   4.344  0.8113  1.9117 -0.4097
  761SOL     vw 3044   3.731   5.657   4.305 -0.4929  1.0667  0.0727
  762SOL     ow 3045   1.457   0.259   0.415  1.0107 -0.1128 -0.4931
  762SOL     hw 3046   1.504   0.340   0.434  2.1279 -0.7671 -0.3533
  762SOL     hw 3047   1.436   0.264   0.322  3.2252 -0.6868 -1.0878
  762SOL     vw 3048   1.460   0.270   0.405  1.4502 -0.2749 -0.5531
  763SOL     ow 3049   3.956   3.621   0.532  0.2086 -0.3037  0.2033
  763SOL     hw 3050   3.940   3.603   0.439  1.4105  0.9035 -0.2710
  763SOL     hw 3051   4.048   3.596   0.545  1.2618  3.0597  0.0576
  763SOL     vw 3052   3.966   3.615   0.521  0.5060  0.2992  0.1215
  764SOL     ow 3053   3.636   2.073   4.411  0.4662 -0.4528  0.0415
  764SOL     hw 3054   3.591   2.003   4.459 -0.9611  0.1960 -0.2987
  764SOL     hw 3055   3.728   2.065   4.437 -0.2634  0.0439  3.1382
  764SOL     vw 3056   3.642   2.063   4.421  0.1818 -0.3016  0.4053
  765SOL     ow 3057   4.547   4.518   6.804  0.7686  1.2344  0.3815
  765SOL     hw 3058   4.577   4.442   6.854 -2.7080 -0.6442 -0.0726
  765SOL     hw 3059   4.613   4.530   6.736  1.9769 -0.7054  1.1391
  765SOL     vw 3060   4.560   4.509   6.801  0.4694  0.7310  0.4215
  766SOL     ow 3061   0.290   0.252   1.255  0.3278  0.2278 -0.6727
  766SOL     hw 3062   0.269   0.341   1.284  0.1011  1.1196 -3.3591
  766SOL     hw 3063   0.315   0.206   1.336 -1.7438  2.0596  1.1430
  766SOL     vw 3064   0.290   0.257   1.270  0.0246  0.5871 -0.7876
  767SOL     ow 3065   2.421   5.734   6.008 -0.0393 -0.2251  0.1206
  767SOL     hw 3066   2.432   5.796   5.936 -0.5007  1.6704  1.6009
  767SOL     hw 3067   2.506   5.690   6.016  0.6294  0.9519 -0.3237
  767SOL     vw 3068   2.433   5.736   6.000 -0.0118  0.1805  0.2573
  768SOL     ow 3069   0.966   2.613   4.182  0.4295 -0.0347 -0.3826
  768SOL     hw 3070   1.010   2.665   4.249  1.4037  2.3647 -2.7171
  768SOL     hw 3071   1.027   2.541   4.165  0.1555 -0.7104  1.2238
  768SOL     vw 3072   0.980   2.610   4.189  0.5219  0.1928 -0.4785
  769SOL     ow 3073   0.694   4.096   2.439 -0.7427 -0.1160  0.0368
  769SOL     hw 3074   0.615   4.061   2.482 -0.3190 -0.4963  0.5108
  769SOL     hw 3075   0.697   4.050   2.355 -1.9770  1.1603 -0.7339
  769SOL     vw 3076   0.684   4.085   2.434 -0.8496  0.0024 -0.0023
  770SOL     ow 3077   7.104   6.174   7.043 -0.8350 -0.6185 -0.5285
  770SOL     hw 3078   7.176   6.221   7.085 -2.1760 -0.2785  1.5019
  770SOL     hw 3079   7.078   6.231   6.971 -0.3765  0.2224 -0.0567
  770SOL     vw 3080   7.110   6.188   7.039 -0.9513 -0.4625 -0.1981
  771SOL     ow 3081   6.690   0.883   2.828 -0.1463  0.4799 -0.0285
  771SOL     hw 3082   6.646   0.954   2.781 -0.7684 -0.8836 -1.6216
  771SOL     hw 3083   6.622   0.847   2.886 -0.0235  0.7566  0.2895
  771SOL     vw 3084   6.675   0.887   2.829 -0.2122  0.3365 -0.1967
  772SOL     ow 3085   2.376   6.931   4.006  0.8882  0.5994 -0.3621
  772SOL     hw 3086   2.295   6.925   3.955  1.3995  1.1911 -1.2595
  772SOL     hw 3087   2.402   6.840   4.020 -1.4622  0.2239  2.4919
  772SOL     vw 3088   2.369   6.918   4.001  0.6455  0.6280 -0.1042
  773SOL     ow 3089   5.446   6.529   5.934  0.0118 -0.2600  0.1462
  773SOL     hw 3090   5.518   6.542   5.995  1.1507  0.2795 -1.2627
  773SOL     hw 3091   5.465   6.588   5.861 -2.2008  0.3621  0.0151
  773SOL     vw 3092   5.458   6.538   5.933 -0.1299 -0.1068 -0.0572
  774SOL     ow 3093   0.164   1.768   0.998  0.5727  0.9879  0.1434
  774SOL     hw 3094   0.072   1.791   1.009 -0.7008 -1.5068 -3.4521
  774SOL     hw 3095   0.174   1.686   1.047  0.1377  0.0081 -1.3365
  774SOL     vw 3096   0.153   1.760   1.006  0.3473  0.5295 -0.5263
  775SOL     ow 3097   0.682   3.793   0.938 -0.5550 -0.5517 -0.6793
  775SOL     hw 3098   0.694   3.734   0.863  1.0752 -0.4792 -0.5068
  775SOL     hw 3099   0.622   3.860   0.906  0.2855 -0.3998 -2.0144
  775SOL     vw 3100   0.675   3.794   0.924 -0.2290 -0.5221 -0.8327
  776SOL     ow 3101   6.866   3.260   6.539  0.4499 -0.5464 -0.2691
  776SOL     hw 3102   6.780   3.281   6.576  1.4345  0.3862  1.6416
  776SOL     hw 3103   6.901   3.193   6.598  1.7636  0.4239  0.0955
  776SOL     vw 3104   6.859   3.254   6.552  0.7532 -0.2954  0.0312
  777SOL     ow 3105   0.474   5.027   0.935 -0.2544  0.7566  0.6477
  777SOL     hw 3106   0.396   4.977   0.959  1.2677 -2.4387 -0.4874
  777SOL     hw 3107   0.441   5.114   0.913 -3.4929 -0.4503  0.2304
  777SOL     vw 3108   0.459   5.032   0.935 -0.4809  0.1760  0.4429
  778SOL     ow 3109   3.923   6.533   2.359  0.2800 -0.7265 -0.4653
  778SOL     hw 3110   3.885   6.516   2.445  0.0239 -2.1673 -0.8248
  778SOL     hw 3111   4.004   6.481   2.358  1.1193  0.5515 -0.5199
  778SOL     vw 3112   3.929   6.524   2.370  0.3569 -0.7479 -0.5199
  779SOL     ow 3113   1.248   4.898   3.772  0.0712  0.2686  0.7211
  779SOL     hw 3114   1.269   4.881   3.864 -0.2304 -0.5309  0.6504
  779SOL     hw 3115   1.153   4.887   3.768  0.2677 -1.5612 -0.0424
  779SOL     vw 3116   1.238   4.894   3.784  0.0573 -0.0784  0.6109
  780SOL     ow 3117   5.524   2.488   2.896 -0.1014  0.4598 -0.4415
  780SOL     hw 3118   5.614   2.456   2.884 -0.6747 -1.5093  0.0962
  780SOL     hw 3119   5.472   2.438   2.833 -1.2900 -1.0301  1.5736
  780SOL     vw 3120   5.529   2.477   2.886 -0.3338  0.0033 -0.1047
  781SOL     ow 3121   2.544   6.584   5.113  0.0494 -0.0895 -0.0022
  781SOL     hw 3122   2.507   6.496   5.102 -1.0160  0.4667 -1.0834
  781SOL     hw 3123   2.624   6.570   5.162 -0.5070 -1.5870  0.5396
  781SOL     vw 3124   2.550   6.571   5.118 -0.1644 -0.2136 -0.0734
  782SOL     ow 3125   6.138   6.038   1.074 -0.0599 -0.1513  0.2056
  782SOL     hw 3126   6.071   6.001   1.132 -1.1068  2.0029  0.4800
  782SOL     hw 3127   6.203   6.076   1.133 -0.0941  0.2952 -0.0396
  782SOL     vw 3128   6.138   6.038   1.089 -0.2022  0.1919  0.2094
  783SOL     ow 3129   4.969   2.239   5.951 -0.7199 -0.2501 -0.1345
  783SOL     hw 3130   4.991   2.331   5.942  0.1158 -0.3144  1.0862
  783SOL     hw 3131   4.965   2.224   6.046 -2.0291 -1.1944 -0.3085
  783SOL     vw 3132   4.971   2.249   5.962 -0.7823 -0.3833  0.0036
  784SOL     ow 3133   0.949   1.637   3.127  0.2663  0.8756  1.1935
  784SOL     hw 3134   0.993   1.697   3.186  0.8763  0.1177  1.5189
  784SOL     hw 3135   0.989   1.552   3.144  0.2852  0.5983 -0.1356
  784SOL     vw 3136   0.960   1.634   3.137  0.3493  0.7390  1.0611
  785SOL     ow 3137   2.276   0.034   1.455  0.4516  0.4428  0.2710
  785SOL     hw 3138   2.277  -0.048   1.505  0.7723  0.2572 -0.0385
  785SOL     hw 3139   2.186   0.064   1.462  0.0449 -0.5235 -0.5589
  785SOL     vw 3140   2.264   0.027   1.463  0.4402  0.2908  0.1206
  786SOL     ow 3141   5.356   2.002   5.897 -0.3175  0.5004 -0.4049
  786SOL     hw 3142   5.367   2.072   5.961  0.0052  1.3488 -1.3675
  786SOL     hw 3143   5.440   1.956   5.897  0.3189  1.5961 -1.4603
  786SOL     vw 3144   5.368   2.005   5.905 -0.1910  0.7569 -0.6711
  787SOL     ow 3145   0.568   5.611   2.809  0.3055 -0.6768 -0.1090
  787SOL     hw 3146   0.563   5.670   2.733 -0.2582 -0.2495  0.2505
  787SOL     hw 3147   0.559   5.669   2.884  0.3835 -1.1552  0.2721
  787SOL     vw 3148   0.566   5.627   2.809  0.2415 -0.6835 -0.0112
  788SOL     ow 3149   3.747   2.548   2.291 -0.4916  0.3958 -0.1723
  788SOL     hw 3150   3.715   2.486   2.356 -0.7221  2.1555  1.4884
  788SOL     hw 3151   3.686   2.622   2.297  1.8863  2.4341  0.7258
  788SOL     vw 3152   3.735   2.550   2.301 -0.2081  0.8968  0.1653
  789SOL     ow 3153   2.081   4.382   1.537 -0.4584 -1.5879  0.3515
  789SOL     hw 3154   2.163   4.384   1.486  0.5434  0.2227  1.9034
  789SOL     hw 3155   2.019   4.431   1.483 -0.4291 -2.6099 -0.6514
  789SOL     vw 3156   2.084   4.389   1.523 -0.3223 -1.4837  0.4240
  790SOL     ow 3157   2.239   6.611   0.236  0.5076  0.3721  0.9819
  790SOL     hw 3158   2.297   6.589   0.308  2.8632  2.0172 -0.2777
  790SOL     hw 3159   2.260   6.702   0.215 -2.1595  0.8591  0.0571
  790SOL     vw 3160   2.250   6.620   0.243  0.4665  0.6535  0.6937
  791SOL     ow 3161   5.010   5.737   1.725  0.1039 -0.2030  0.1952
  791SOL     hw 3162   5.045   5.790   1.797  0.5313 -0.4994  0.2088
  791SOL     hw 3163   4.979   5.657   1.766 -1.6511  0.5046  0.3413
  791SOL     vw 3164   5.010   5.734   1.740 -0.0713 -0.1488  0.2162
  792SOL     ow 3165   0.374   1.598   3.142  0.1859 -0.0099  0.2170
  792SOL     hw 3166   0.307   1.551   3.092  2.3823 -2.2658 -0.8227
  792SOL     hw 3167   0.356   1.575   3.234 -1.1278  0.4122  0.0891
  792SOL     vw 3168   0.363   1.589   3.148  0.3024 -0.2518  0.0629
  793SOL     ow 3169   6.526   5.485   0.409 -0.0495  0.8239  0.3586
  793SOL     hw 3170   6.559   5.564   0.367  0.7992 -0.3479 -1.2718
  793SOL     hw 3171   6.600   5.452   0.461  1.2651 -1.3213 -2.6016
  793SOL     vw 3172   6.540   5.491   0.411  0.2358  0.3862 -0.2470
  794SOL     ow 3173   3.824   2.161   6.719 -0.0209  0.1584  0.0155
  794SOL     hw 3174   3.838   2.156   6.814 -0.2281 -0.6271  0.0104
  794SOL     hw 3175   3.752   2.100   6.702  0.2411  0.0343 -0.6877
  794SOL     vw 3176   3.817   2.152   6.730 -0.0135  0.0381 -0.0780
  795SOL     ow 3177   4.363   4.236   0.358  0.9507  0.6415  0.1073
  795SOL     hw 3178   4.401   4.249   0.271 -0.4601 -0.6878 -0.7754
  795SOL     hw 3179   4.437   4.241   0.418  1.6770  4.1931 -0.8179
  795SOL     vw 3180   4.378   4.239   0.354  0.8602  0.9346 -0.1312
  796SOL     ow 3181   3.132   6.084   7.041 -1.1278  0.1396 -0.2469
  796SOL     hw 3182   3.184   6.088   7.121 -1.7247  0.9047  0.1225
  796SOL     hw 3183   3.077   6.006   7.052  0.9393 -1.5840 -1.3136
  796SOL     vw 3184   3.131   6.074   7.053 -0.9339  0.0131 -0.3388
  797SOL     ow 3185   5.949   6.261   2.343 -0.2893 -0.0930  0.3059
  797SOL     hw 3186   5.921   6.277   2.433  0.5151 -0.9541  0.7302
  797SOL     hw 3187   5.884   6.200   2.307 -1.6270  1.6077 -0.3170
  797SOL     vw 3188   5.937   6.255   2.350 -0.3598  0.0176  0.2797
  798SOL     ow 3189   3.644   1.883   0.805  0.7450  0.2281 -0.0730
  798SOL     hw 3190   3.702   1.957   0.789  0.0821  1.0031  0.9954
  798SOL     hw 3191   3.661   1.858   0.896 -0.7923  0.6851  0.3722
  798SOL     vw 3192   3.653   1.890   0.815  0.4548  0.3906  0.1267
  799SOL     ow 3193   4.341   6.309   4.571  0.0644  0.8351 -0.7502
  799SOL     hw 3194   4.272   6.370   4.595 -0.4180  0.4424 -1.1261
  799SOL     hw 3195   4.295   6.234   4.534  0.7206  1.0065 -1.9712
  799SOL     vw 3196   4.326   6.307   4.569  0.0873  0.8061 -0.9611
  800SOL     ow 3197   3.986   5.617   4.080  0.1767  0.0811  0.6399
  800SOL     hw 3198   4.063   5.623   4.023  0.5340  2.8630  1.3171
  800SOL     hw 3199   4.013   5.659   4.162 -1.6438 -0.1400  1.3957
  800SOL     vw 3200   4.000   5.623   4.083 -0.0163  0.4191  0.8290
  801SOL     ow 3201   6.810   4.885   4.379  0.7588  0.0198  0.0529
  801SOL     hw 3202   6.764   4.959   4.419 -0.0627  0.0492 -0.8866
  801SOL     hw 3203   6.839   4.919   4.294 -2.8837 -1.6613 -2.1253
  801SOL     vw 3204   6.808   4.899   4.373  0.1700 -0.1981 -0.3581
  802SOL     ow 3205   6.270   6.384   4.116  0.4766 -0.9309  0.2951
  802SOL     hw 3206   6.351   6.426   4.142  1.0018 -2.4910  1.3572
  802SOL     hw 3207   6.245   6.427   4.034  0.5030  1.9472  1.7007
  802SOL     vw 3208   6.277   6.395   4.108  0.5493 -0.7570  0.6208
  803SOL     ow 3209   0.449   2.944   1.588 -0.1943 -1.1638  0.5715
  803SOL     hw 3210   0.445   2.864   1.535  0.4253 -1.0387  0.3253
  803SOL     hw 3211   0.473   3.012   1.525 -1.3492 -0.6509  0.6490
  803SOL     vw 3212   0.451   2.942   1.572 -0.2650 -1.0796  0.5492
  804SOL     ow 3213   6.758   1.566   6.630 -0.0012  0.9005  0.3961
  804SOL     hw 3214   6.758   1.584   6.536  0.4083 -0.6707  0.0766
  804SOL     hw 3215   6.794   1.478   6.638  0.8109  1.3399  2.1008
  804SOL     vw 3216   6.763   1.557   6.619  0.1602  0.7512  0.5789
  805SOL     ow 3217   2.458   3.651   0.527  0.0807  0.2604  0.4876
  805SOL     hw 3218   2.537   3.602   0.502 -0.0638  0.0861  0.3728
  805SOL     hw 3219   2.491   3.737   0.555  0.2053  0.6049 -0.6768
  805SOL     vw 3220   2.473   3.656   0.528  0.0781  0.2828  0.3188
  806SOL     ow 3221   4.015   6.888   0.911  0.0275 -0.6589  0.4098
  806SOL     hw 3222   3.997   6.841   0.992 -1.2345  0.0703  0.5798
  806SOL     hw 3223   4.005   6.980   0.933  2.4760 -0.2480  0.0759
  806SOL     vw 3224   4.011   6.894   0.924  0.1841 -0.5083  0.3882
  807SOL     ow 3225   4.675   1.091   4.322 -1.0599 -0.4437 -0.2381
  807SOL     hw 3226   4.593   1.141   4.319 -1.2763 -0.8021 -0.4021
  807SOL     hw 3227   4.723   1.120   4.244 -1.5699 -1.1323 -0.8223
  807SOL     vw 3228   4.671   1.102   4.311 -1.1559 -0.5818 -0.3369
  808SOL     ow 3229   2.194   5.804   0.010  0.3771  0.0222 -0.2547
  808SOL     hw 3230   2.273   5.755   0.031  0.3316  0.5681  1.3185
  808SOL     hw 3231   2.209   5.839  -0.077  1.0898 -1.3949 -0.7350
  808SOL     vw 3232   2.206   5.802   0.001  0.4652 -0.0927 -0.1105
  809SOL     ow 3233   3.592   3.982   6.765  0.2138 -0.2668 -0.0213
  809SOL     hw 3234   3.526   3.924   6.801 -0.7640  0.0513 -1.2317
  809SOL     hw 3235   3.675   3.939   6.785 -0.3926 -1.0726  0.8215
  809SOL     vw 3236   3.595   3.969   6.772  0.0048 -0.3312 -0.0696
  810SOL     ow 3237   3.325   5.173   5.041  0.1098 -0.1974  0.4640
  810SOL     hw 3238   3.391   5.135   5.098  1.8961  1.1280 -0.6018
  810SOL     hw 3239   3.363   5.165   4.953 -0.5308  1.7765 -0.0350
  810SOL     vw 3240   3.339   5.167   5.037  0.2609  0.2377  0.2575
  811SOL     ow 3241   6.346   6.712   0.970  0.7444  0.5040  0.4948
  811SOL     hw 3242   6.357   6.625   0.933 -0.2427  1.1575 -1.5663
  811SOL     hw 3243   6.258   6.738   0.942  0.5176  1.6623  2.1662
  811SOL     vw 3244   6.336   6.704   0.961  0.5846  0.7432  0.4433
  812SOL     ow 3245   6.640   6.783   3.640  0.4997  1.0240 -0.2693
  812SOL     hw 3246   6.558   6.820   3.607  0.3446  1.6340  0.7381
  812SOL     hw 3247   6.703   6.794   3.569 -0.9077 -1.9573 -2.1793
  812SOL     vw 3248   6.637   6.789   3.626  0.2937  0.7110 -0.3884
  813SOL     ow 3249   3.589   0.170   6.942 -0.1432 -1.0615 -0.1024
  813SOL     hw 3250   3.573   0.249   6.995  0.5571 -2.1274  1.7985
  813SOL     hw 3251   3.613   0.204   6.856  0.1732  0.8134  0.6658
  813SOL     vw 3252   3.590   0.185   6.938 -0.0091 -0.9547  0.2496
  814SOL     ow 3253   3.055   3.259   5.308  0.0746 -0.2980 -0.4510
  814SOL     hw 3254   3.100   3.176   5.326 -0.9335 -0.8469 -0.3813
  814SOL     hw 3255   3.042   3.298   5.394 -2.0942 -1.5161 -0.1269
  814SOL     vw 3256   3.059   3.253   5.322 -0.3448 -0.5313 -0.3991
  815SOL     ow 3257   2.272   4.273   1.718 -0.4454 -0.1877 -0.1277
  815SOL     hw 3258   2.335   4.208   1.686 -1.7642 -0.0997 -3.2964
  815SOL     hw 3259   2.208   4.223   1.767 -0.1603 -0.9464 -0.5116
  815SOL     vw 3260   2.272   4.258   1.720 -0.5819 -0.2763 -0.5964
  816SOL     ow 3261   0.949   3.223   6.116  0.0860  0.3084 -0.4235
  816SOL     hw 3262   1.028   3.249   6.163 -0.7851  0.5646  0.9615
  816SOL     hw 3263   0.981   3.179   6.037  1.6414 -1.1898  0.9656
  816SOL     vw 3264   0.963   3.220   6.112  0.1763  0.1446 -0.0575
  817SOL     ow 3265   2.984   3.528   4.503  0.0784 -0.4598  0.4923
  817SOL     hw 3266   2.931   3.488   4.571  0.4625 -1.6254  0.1194
  817SOL     hw 3267   3.040   3.458   4.470 -1.5999 -0.5772 -2.5298
  817SOL     vw 3268   2.984   3.514   4.507 -0.0923 -0.6291  0.0443
  818SOL     ow 3269   5.416   4.859   6.593 -0.0972  0.0729  0.1260
  818SOL     hw 3270   5.443   4.799   6.523 -2.1018 -0.4669 -0.2353
  818SOL     hw 3271   5.498   4.893   6.627  1.0761 -1.9407 -0.4842
  818SOL     vw 3272   5.431   4.855   6.588 -0.2067 -0.2642 -0.0021
  819SOL     ow 3273   2.842   3.261   4.445 -0.3397 -0.4328 -0.4055
  819SOL     hw 3274   2.920   3.222   4.484 -0.9901  0.1511  1.6279
  819SOL     hw 3275   2.874   3.310   4.369  1.1904 -0.5631  0.1266
  819SOL     vw 3276   2.856   3.263   4.440 -0.2238 -0.3729 -0.0668
  820SOL     ow 3277   5.519   0.465   0.412  0.5006  0.3740  0.0832
  820SOL     hw 3278   5.435   0.512   0.411 -0.0751 -0.5754 -1.9015
  820SOL     hw 3279   5.581   0.527   0.450 -1.0137  1.2334  1.2587
  820SOL     vw 3280   5.516   0.479   0.417  0.2248  0.3622 -0.0236
  821SOL     ow 3281   6.936   2.934   5.217 -0.3045  0.2327 -0.0647
  821SOL     hw 3282   7.011   2.994   5.215  0.7833 -1.0596 -2.6137
  821SOL     hw 3283   6.942   2.891   5.303  1.3208  0.8407  0.1722
  821SOL     vw 3284   6.947   2.936   5.228  0.0536  0.1423 -0.3693
  822SOL     ow 3285   3.612   4.302   5.373 -0.2144 -0.4709 -0.4353
  822SOL     hw 3286   3.540   4.259   5.325 -1.4499  0.1367  0.8230
  822SOL     hw 3287   3.637   4.375   5.317 -1.9182  0.4776 -0.0453
  822SOL     vw 3288   3.606   4.306   5.359 -0.6021 -0.2658 -0.2179
  823SOL     ow 3289   4.085   1.611   7.027  0.5408 -0.5134  0.1972
  823SOL     hw 3290   4.079   1.540   7.091 -0.7408  0.2320  0.9559
  823SOL     hw 3291   3.994   1.629   7.003  0.8908  0.3779 -0.5358
  823SOL     vw 3292   4.072   1.604   7.032  0.4179 -0.2975  0.2007
  824SOL     ow 3293   0.624   3.985   4.336  0.0632 -0.4534  0.6403
  824SOL     hw 3294   0.688   3.962   4.404  0.7885 -1.9445 -0.4861
  824SOL     hw 3295   0.540   3.986   4.382  0.7788  0.7617  1.9908
  824SOL     vw 3296   0.622   3.982   4.351  0.2533 -0.4898  0.6697
  825SOL     ow 3297   3.269   6.832   0.713  0.0351 -0.0558  0.8706
  825SOL     hw 3298   3.234   6.776   0.644  0.1803 -3.3386  3.2362
  825SOL     hw 3299   3.192   6.861   0.762 -0.2834  3.8644 -1.4458
  825SOL     vw 3300   3.254   6.829   0.711  0.0123  0.0284  0.8771
  826SOL     ow 3301   1.181   1.771   6.617 -0.8672 -0.2696 -0.3469
  826SOL     hw 3302   1.148   1.729   6.697 -1.7809 -0.8634 -1.0201
  826SOL     hw 3303   1.108   1.824   6.586  0.9672  4.1674  1.8862
  826SOL     vw 3304   1.167   1.772   6.624 -0.7458  0.2375 -0.1414
  827SOL     ow 3305   4.952   4.145   3.064 -0.0766 -0.0769 -0.2764
  827SOL     hw 3306   4.879   4.177   3.117  0.0204  0.0964 -0.2472
  827SOL     hw 3307   5.017   4.115   3.128  0.6927  1.5458 -0.2414
  827SOL     vw 3308   4.951   4.145   3.079  0.0377  0.1600 -0.2677
  828SOL     ow 3309   5.105   6.998   4.055  0.3716 -0.6589  0.5714
  828SOL     hw 3310   5.065   6.967   4.136 -0.9010 -0.6663 -0.0316
  828SOL     hw 3311   5.032   7.035   4.005  1.0187 -1.1934 -0.8195
  828SOL     vw 3312   5.090   6.999   4.059  0.2890 -0.7303  0.3083
  829SOL     ow 3313   1.498   3.851   0.800  0.4019  0.1684  0.5299
  829SOL     hw 3314   1.459   3.763   0.807  2.4467 -0.8133  0.4701
  829SOL     hw 3315   1.558   3.856   0.874  3.1754 -0.0672 -1.5433
  829SOL     vw 3316   1.501   3.840   0.811  1.0378  0.0079  0.2485
  830SOL     ow 3317   5.767   2.387   1.701  0.5426  0.7662 -0.5744
  830SOL     hw 3318   5.844   2.437   1.726  1.1720 -1.2429  2.0071
  830SOL     hw 3319   5.733   2.352   1.784  0.2842 -3.1334 -2.1104
  830SOL     vw 3320   5.772   2.389   1.716  0.5915 -0.0135 -0.4364
  831SOL     ow 3321   5.218   1.885   1.516  0.1890  0.0860  0.7060
  831SOL     hw 3322   5.261   1.802   1.536  1.5140  0.7856  0.8555
  831SOL     hw 3323   5.160   1.900   1.591 -1.6969 -1.6854 -0.2719
  831SOL     vw 3324   5.216   1.876   1.529  0.1149 -0.0555  0.5966
  832SOL     ow 3325   6.294   2.860   3.966  0.6798  0.2446 -0.3211
  832SOL     hw 3326   6.237   2.808   4.023 -1.0589 -2.1774 -3.8956
  832SOL     hw 3327   6.241   2.937   3.945  0.0148 -0.3996 -1.0660
  832SOL     vw 3328   6.279   2.863   3.971  0.3626 -0.1599 -0.8910
  833SOL     ow 3329   0.237   4.111   5.495  0.5451  0.0077 -0.1758
  833SOL     hw 3330   0.187   4.189   5.516 -1.9490 -1.8686  1.4917
  833SOL     hw 3331   0.328   4.134   5.514 -0.4786  1.4000  4.0337
  833SOL     vw 3332   0.242   4.124   5.500  0.0810 -0.0565  0.5994
  834SOL     ow 3333   5.953   1.998   0.506 -0.2563  0.1175  0.7511
  834SOL     hw 3334   5.901   1.945   0.566 -1.8525  1.2815  0.4469
  834SOL     hw 3335   5.991   2.067   0.561 -0.1344  0.0630  0.7370
  834SOL     vw 3336   5.951   2.000   0.521 -0.4506  0.2638  0.7091
  835SOL     ow 3337   2.339   6.009   2.889 -0.5083  0.4075  0.8529
  835SOL     hw 3338   2.305   6.030   2.802 -0.9077 -1.7829  0.4084
  835SOL     hw 3339   2.400   6.080   2.909 -3.0445  2.8937  0.3838
  835SOL     vw 3340   2.342   6.021   2.880 -0.8956  0.4466  0.7324
  836SOL     ow 3341   2.865   0.404   4.735  0.1860  0.1385 -0.8710
  836SOL     hw 3342   2.822   0.347   4.798  0.0384  0.7420 -0.4213
  836SOL     hw 3343   2.876   0.487   4.781  3.0028 -0.3371 -0.4694
  836SOL     vw 3344   2.861   0.407   4.749  0.5382  0.1554 -0.7586
  837SOL     ow 3345   3.330   6.216   6.273 -0.7342  0.3267  0.0688
  837SOL     hw 3346   3.324   6.247   6.363 -0.2706 -0.6325  0.4418
  837SOL     hw 3347   3.406   6.261   6.237  1.4866 -2.1264  1.3772
  837SOL     vw 3348   3.339   6.226   6.280 -0.3800 -0.1235  0.2909
  838SOL     ow 3349   4.925   2.967   0.650  0.8495 -0.3373 -0.4015
  838SOL     hw 3350   5.016   2.948   0.628  1.0548 -0.8793  0.8111
  838SOL     hw 3351   4.889   3.006   0.571  2.7381  1.9919 -0.2196
  838SOL     vw 3352   4.932   2.970   0.637  1.1258 -0.1016 -0.2175
  839SOL     ow 3353   1.381   6.348   6.877  0.0883  0.6795 -0.7649
  839SOL     hw 3354   1.399   6.300   6.958 -1.7786  1.2009  0.0147
  839SOL     hw 3355   1.459   6.400   6.862  1.0575 -0.5437 -0.1295
  839SOL     vw 3356   1.393   6.349   6.886 -0.0301  0.5867 -0.5782
  840SOL     ow 3357   5.091   4.006   0.679  0.2993 -0.5670  0.3880
  840SOL     hw 3358   5.063   3.933   0.733  0.7817  0.4910  2.1520
  840SOL     hw 3359   5.010   4.053   0.658  0.0164 -1.4387 -0.5515
  840SOL     vw 3360   5.076   4.003   0.683  0.3254 -0.5424  0.4968
  841SOL     ow 3361   4.707   5.880   6.638  0.4031  0.4213 -0.0171
  841SOL     hw 3362   4.779   5.822   6.663  0.3907  1.0563  1.6337
  841SOL     hw 3363   4.652   5.885   6.717 -2.1923 -1.0508 -1.5561
  841SOL     vw 3364   4.709   5.873   6.652  0.0591  0.3111 -0.0024
  842SOL     ow 3365   3.956   6.733   1.198  0.2002  0.1284 -0.2106
  842SOL     hw 3366   3.903   6.776   1.265 -0.9280  0.5195 -1.3068
  842SOL     hw 3367   3.947   6.639   1.217  2.1953  0.2573  1.8321
  842SOL     vw 3368   3.948   6.726   1.209  0.3146  0.1969 -0.0857
  843SOL     ow 3369   3.104   5.644   5.401 -0.1306 -0.5585 -0.0377
  843SOL     hw 3370   3.045   5.615   5.471  1.0723 -0.4308  1.0711
  843SOL     hw 3371   3.179   5.585   5.407  0.8153  0.6160  0.0145
  843SOL     vw 3372   3.106   5.632   5.411  0.1528 -0.3865  0.1156
  844SOL     ow 3373   3.473   1.493   2.152 -0.8510 -1.2858  0.1849
  844SOL     hw 3374   3.423   1.570   2.180 -1.6920 -2.7870  3.1821
  844SOL     hw 3375   3.411   1.441   2.101 -0.6485 -0.6387 -0.7609
  844SOL     vw 3376   3.459   1.497   2.149 -0.9352 -1.3985  0.4556
  845SOL     ow 3377   1.062   2.807   2.871  0.5085  0.1344  0.0868
  845SOL     hw 3378   1.126   2.762   2.927  0.3047 -1.6565 -1.0460
  845SOL     hw 3379   1.115   2.849   2.803  0.5566 -0.5481 -0.3051
  845SOL     vw 3380   1.078   2.807   2.870  0.4879 -0.1920 -0.1144
  846SOL     ow 3381   0.402   2.386   0.413 -0.2276  0.2852  0.2825
  846SOL     hw 3382   0.400   2.291   0.408 -0.5092  0.3465 -1.3484
  846SOL     hw 3383   0.459   2.405   0.488 -1.6693 -1.1447  1.8425
  846SOL     vw 3384   0.409   2.376   0.422 -0.4550  0.1045  0.2732
  847SOL     ow 3385   3.613   4.526   2.616 -0.5749 -0.8948  0.3356
  847SOL     hw 3386   3.599   4.518   2.710 -1.5458  4.0523  0.8636
  847SOL     hw 3387   3.529   4.555   2.581  0.6330  0.7734 -1.4264
  847SOL     vw 3388   3.600   4.529   2.624 -0.5435 -0.0219  0.1729
  848SOL     ow 3389   1.265   0.637   5.754  0.2640  0.1706  0.3178
  848SOL     hw 3390   1.252   0.676   5.840 -2.4392 -0.3035  0.2078
  848SOL     hw 3391   1.240   0.545   5.766 -0.1582  0.1003 -0.9502
  848SOL     vw 3392   1.260   0.630   5.767 -0.1484  0.0987  0.1359
  849SOL     ow 3393   0.818   5.122   1.164 -0.0503 -0.0193  0.5106
  849SOL     hw 3394   0.909   5.151   1.160 -0.4049  1.2447  0.9843
  849SOL     hw 3395   0.767   5.200   1.140 -1.0349 -0.4321  1.1988
  849SOL     vw 3396   0.823   5.136   1.160 -0.2269  0.0930  0.6639
  850SOL     ow 3397   0.823   4.840   1.819  0.4219  0.4386  0.6673
  850SOL     hw 3398   0.755   4.789   1.864  1.2249 -1.1097  0.1943
  850SOL     hw 3399   0.879   4.774   1.778  3.0242  1.5850  2.1593
  850SOL     vw 3400   0.821   4.824   1.820  0.8712  0.3855  0.8017
  851SOL     ow 3401   6.063   0.928   1.532  0.0429 -0.2867 -0.3580
  851SOL     hw 3402   6.105   0.863   1.475  3.4956  1.1896  0.2327
  851SOL     hw 3403   6.081   0.897   1.621  0.3702  0.6593 -0.0798
  851SOL     vw 3404   6.071   0.915   1.536  0.5414  0.0329 -0.2433
  852SOL     ow 3405   4.532   0.528   1.421  0.3519 -0.2889  0.1070
  852SOL     hw 3406   4.442   0.539   1.388  0.7527 -0.6732 -1.1972
  852SOL     hw 3407   4.521   0.500   1.512 -0.8511 -0.3043 -0.0227
  852SOL     vw 3408   4.518   0.525   1.428  0.2460 -0.3416 -0.0822
  853SOL     ow 3409   2.582   6.144   5.086 -0.9292 -0.7962  0.1826
  853SOL     hw 3410   2.586   6.184   5.173 -1.8384  0.3147 -0.2620
  853SOL     hw 3411   2.488   6.132   5.069 -0.8028 -0.3234 -0.9324
  853SOL     vw 3412   2.570   6.148   5.095 -1.0324 -0.5872 -0.0231
  854SOL     ow 3413   0.360   1.281   6.717  0.4076  0.6634  0.2136
  854SOL     hw 3414   0.303   1.317   6.650 -1.4829 -4.2010 -1.2046
  854SOL     hw 3415   0.437   1.249   6.669  1.2171  1.1961  1.1072
  854SOL     vw 3416   0.363   1.281   6.702  0.2650  0.0919  0.1445
  855SOL     ow 3417   6.679   3.570   6.414 -0.4402 -0.2627 -0.0359
  855SOL     hw 3418   6.588   3.602   6.415  0.4129  2.4080  0.5457
  855SOL     hw 3419   6.692   3.540   6.324 -2.4005 -2.5650  0.3188
  855SOL     vw 3420   6.669   3.570   6.402 -0.5863 -0.2141  0.0875
  856SOL     ow 3421   6.808   6.450   5.026 -0.1486 -0.3648 -0.6742
  856SOL     hw 3422   6.717   6.481   5.023  0.0424  0.6283  1.8136
  856SOL     hw 3423   6.804   6.361   4.992 -2.8202 -1.8429  2.9261
  856SOL     vw 3424   6.795   6.442   5.021 -0.4756 -0.4287  0.1287
  857SOL     ow 3425   1.531   2.599   1.249 -0.0809 -0.1781 -0.3169
  857SOL     hw 3426   1.551   2.668   1.313  3.1975 -1.8021  0.6561
  857SOL     hw 3427   1.572   2.629   1.168  1.6387 -0.9945  0.1915
  857SOL     vw 3428   1.539   2.612   1.247  0.5785 -0.5000 -0.1215
  858SOL     ow 3429   2.990   4.403   0.565 -0.0255 -0.0850  0.5743
  858SOL     hw 3430   2.938   4.452   0.502  1.3881  1.6496  0.6759
  858SOL     hw 3431   2.925   4.356   0.618 -1.2641 -1.3496 -1.8785
  858SOL     vw 3432   2.975   4.403   0.564 -0.0024 -0.0231  0.2641
  859SOL     ow 3433   6.656   4.344   4.227  0.3397  0.5320 -0.3563
  859SOL     hw 3434   6.665   4.396   4.147 -2.4496 -0.2099 -1.2726
  859SOL     hw 3435   6.580   4.382   4.271 -0.4563 -1.3953  0.0275
  859SOL     vw 3436   6.647   4.356   4.222 -0.1333  0.1800 -0.4263
  860SOL     ow 3437   0.336   2.017   1.067 -0.4019  0.3082  0.1168
  860SOL     hw 3438   0.389   2.096   1.056 -1.2324  0.7961 -0.5748
  860SOL     hw 3439   0.294   2.027   1.152  0.4849 -0.0062  0.5955
  860SOL     vw 3440   0.337   2.029   1.077 -0.3944  0.3312  0.0887
  861SOL     ow 3441   5.693   3.349   0.189  0.1996  0.0208 -0.2037
  861SOL     hw 3442   5.624   3.303   0.142  0.5275  2.0549 -2.8898
  861SOL     hw 3443   5.763   3.361   0.125  0.8196  2.6889  0.8291
  861SOL     vw 3444   5.693   3.344   0.175  0.3247  0.6412 -0.4219
  862SOL     ow 3445   5.500   5.363   5.983 -0.4899 -0.0125 -0.4269
  862SOL     hw 3446   5.492   5.458   5.979  0.7035  0.1000 -0.5043
  862SOL     hw 3447   5.450   5.331   5.908 -0.3828  0.5909 -0.7621
  862SOL     vw 3448   5.492   5.371   5.973 -0.3183  0.0820 -0.4814
  863SOL     ow 3449   5.707   6.701   1.424  0.1886 -0.5073  0.5729
  863SOL     hw 3450   5.759   6.671   1.498 -1.2943 -1.2039  1.3845
  863SOL     hw 3451   5.705   6.626   1.364 -0.4678 -0.7607  0.8954
  863SOL     vw 3452   5.713   6.687   1.426 -0.0935 -0.6325  0.7226
  864SOL     ow 3453   1.951   5.230   5.199  0.3344 -0.3637 -0.1260
  864SOL     hw 3454   1.856   5.222   5.213  0.3783 -0.3259  0.2027
  864SOL     hw 3455   1.971   5.321   5.221 -0.0352  0.5129 -3.0947
  864SOL     vw 3456   1.941   5.241   5.204  0.2915 -0.2429 -0.4742
  865SOL     ow 3457   0.382   0.342   2.161  0.4378  0.5732  0.5898
  865SOL     hw 3458   0.309   0.403   2.146 -0.4491  0.5257  3.8690
  865SOL     hw 3459   0.459   0.399   2.169  0.1024  0.9973  0.8429
  865SOL     vw 3460   0.382   0.358   2.160  0.2765  0.6229  1.0558
  866SOL     ow 3461   0.303   4.160   1.160  0.0886  0.3673  0.5634
  866SOL     hw 3462   0.228   4.173   1.219 -1.2068 -1.4966 -0.5436
  866SOL     hw 3463   0.266   4.167   1.072  1.4876  0.6248 -0.0329
  866SOL     vw 3464   0.288   4.163   1.156  0.1023  0.1552  0.3387
  867SOL     ow 3465   4.586   4.720   6.540 -0.4583  0.6638 -0.3626
  867SOL     hw 3466   4.666   4.722   6.487  0.3740 -0.8891  0.7710
  867SOL     hw 3467   4.519   4.685   6.481  0.2739 -0.3096 -0.6489
  867SOL     vw 3468   4.588   4.716   6.525 -0.2520  0.3307 -0.2511
  868SOL     ow 3469   1.042   2.057   2.196  0.4301 -0.6338  1.1139
  868SOL     hw 3470   0.998   2.128   2.151  1.1878  0.3370  1.8578
  868SOL     hw 3471   0.998   2.050   2.281 -0.6121 -2.0671  0.4985
  868SOL     vw 3472   1.031   2.065   2.201  0.3926 -0.6948  1.1308
  869SOL     ow 3473   2.760   5.724   0.432  0.1584  0.3180 -0.4299
  869SOL     hw 3474   2.756   5.644   0.484 -2.5420  0.5315 -0.1798
  869SOL     hw 3475   2.852   5.750   0.436  0.8525 -1.9958  0.6252
  869SOL     vw 3476   2.772   5.717   0.439 -0.1063  0.0408 -0.2577
  870SOL     ow 3477   1.936   5.954   7.058  0.4823 -0.2073 -0.1603
  870SOL     hw 3478   1.986   6.028   7.025 -1.4935  1.7384  0.9699
  870SOL     hw 3479   1.924   5.897   6.981 -1.4767  2.7115 -2.2271
  870SOL     vw 3480   1.941   5.956   7.043 -0.0368  0.4344 -0.2837
  871SOL     ow 3481   3.039   4.744   2.958 -0.1626 -0.0637 -0.3027
  871SOL     hw 3482   2.995   4.800   3.021  2.1975  1.0400  0.5118
  871SOL     hw 3483   3.092   4.684   3.012 -0.6123 -1.3171 -1.2072
  871SOL     vw 3484   3.040   4.743   2.974  0.0894 -0.0834 -0.3145
  872SOL     ow 3485   5.506   6.812   4.187  0.5328 -0.9700  0.1661
  872SOL     hw 3486   5.590   6.783   4.223  0.6151  0.1634  0.9492
  872SOL     hw 3487   5.441   6.758   4.231  0.8940 -3.0792 -1.7092
  872SOL     vw 3488   5.508   6.801   4.197  0.5910 -1.0989  0.0219
  873SOL     ow 3489   3.285   2.918   1.245  0.3157  0.4768  0.6962
  873SOL     hw 3490   3.297   2.858   1.318  1.4267 -1.8720 -1.2510
  873SOL     hw 3491   3.241   2.994   1.283 -0.7758 -1.3566  3.4201
  873SOL     vw 3492   3.281   2.920   1.259  0.3182 -0.0749  0.7986
  874SOL     ow 3493   3.493   1.555   7.065 -0.0226  0.2610 -0.0052
  874SOL     hw 3494   3.447   1.639   7.061 -0.3652  0.0402 -1.1574
  874SOL     hw 3495   3.468   1.510   6.984 -0.9837 -1.5465  1.2037
  874SOL     vw 3496   3.483   1.560   7.054 -0.1948 -0.0067  0.0021
  875SOL     ow 3497   4.846   0.498   7.103  0.3666 -0.4658  0.1043
  875SOL     hw 3498   4.932   0.489   7.063  1.0241  0.9448  1.1281
  875SOL     hw 3499   4.785   0.475   7.033  1.5230  0.1369 -1.1567
  875SOL     vw 3500   4.849   0.494   7.088  0.6058 -0.2001  0.0732
  876SOL     ow 3501   5.013   0.980   1.251  0.1223  0.8914  0.1904
  876SOL     hw 3502   5.089   0.979   1.194  0.6762 -0.8632  0.9126
  876SOL     hw 3503   5.043   0.941   1.333 -2.1622 -2.4110 -0.3497
  876SOL     vw 3504   5.027   0.975   1.255 -0.1059  0.2242  0.2144
  877SOL     ow 3505   2.872   0.569   5.808  0.6814 -0.2078 -0.4641
  877SOL     hw 3506   2.864   0.491   5.754  0.2444  1.0089 -2.2267
  877SOL     hw 3507   2.949   0.552   5.863  1.1935 -1.4558 -1.5158
  877SOL     vw 3508   2.881   0.557   5.808  0.6913 -0.2119 -0.8352
  878SOL     ow 3509   1.031   2.889   0.993 -0.0808  0.3088 -0.1518
  878SOL     hw 3510   0.960   2.927   0.942 -2.2005 -3.1761 -0.0874
  878SOL     hw 3511   1.083   2.840   0.929  1.8931  2.0902 -0.0474
  878SOL     vw 3512   1.029   2.888   0.978 -0.1000  0.0842 -0.1295
  879SOL     ow 3513   6.784   1.391   1.723 -0.2857  0.4326  0.0283
  879SOL     hw 3514   6.739   1.398   1.807  1.5066  1.4911  0.9638
  879SOL     hw 3515   6.719   1.353   1.664 -1.7218  0.0244  1.7807
  879SOL     vw 3516   6.770   1.387   1.727 -0.2387  0.5184  0.3830
  880SOL     ow 3517   6.367   0.236   5.829  0.5946  0.3935 -0.3822
  880SOL     hw 3518   6.450   0.199   5.798 -0.2345  0.2579 -2.6575
  880SOL     hw 3519   6.332   0.170   5.889  2.2147  0.5810  0.8540
  880SOL     vw 3520   6.374   0.222   5.833  0.6993  0.4004 -0.5193
  881SOL     ow 3521   2.264   2.989   3.723  0.2244  0.1793 -0.3532
  881SOL     hw 3522   2.278   3.044   3.800 -1.6057  0.0515  0.1100
  881SOL     hw 3523   2.183   2.942   3.741  0.7304 -1.2727 -1.5628
  881SOL     vw 3524   2.255   2.990   3.735  0.0497 -0.0292 -0.4517
  882SOL     ow 3525   3.329   4.104   6.705  0.2452 -0.1700  0.0641
  882SOL     hw 3526   3.294   4.067   6.787 -1.1048  1.5682  0.3225
  882SOL     hw 3527   3.265   4.079   6.638 -1.7559  3.0235  0.5400
  882SOL     vw 3528   3.316   4.096   6.707 -0.1969  0.4804  0.1609
  883SOL     ow 3529   6.081   2.362   4.395 -0.2612  0.2534 -0.2669
  883SOL     hw 3530   6.110   2.275   4.424  0.7352 -0.0936 -2.1223
  883SOL     hw 3531   6.016   2.388   4.459  2.3804 -0.0202  2.8170
  883SOL     vw 3532   6.076   2.354   4.407  0.2189  0.1715 -0.1047
  884SOL     ow 3533   3.028   4.681   2.633 -0.1947  1.0014  0.3788
  884SOL     hw 3534   3.075   4.646   2.556 -1.0286  1.7473 -0.4843
  884SOL     hw 3535   2.960   4.617   2.650  0.4768  0.4335  1.0050
  884SOL     vw 3536   3.025   4.668   2.625 -0.2161  1.0247  0.3475
  885SOL     ow 3537   4.955   0.410   3.016 -0.1496 -0.2899 -0.8042
  885SOL     hw 3538   4.940   0.356   3.094  3.5650 -1.5773 -0.7843
  885SOL     hw 3539   4.933   0.353   2.942  1.3613 -1.0124 -0.7303
  885SOL     vw 3540   4.950   0.395   3.017  0.5398 -0.5551 -0.7918
  886SOL     ow 3541   6.471   0.735   0.117  0.2937  0.3135 -0.0966
  886SOL     hw 3542   6.401   0.726   0.181  0.6061 -0.1858  0.1797
  886SOL     hw 3543   6.511   0.820   0.137 -0.6741  0.9329 -0.7153
  886SOL     vw 3544   6.467   0.745   0.128  0.2072  0.3293 -0.1418
  887SOL     ow 3545   2.171   2.918   4.123 -1.3746 -0.8076 -0.3658
  887SOL     hw 3546   2.210   2.830   4.122 -0.5432 -0.4530 -1.4174
  887SOL     hw 3547   2.080   2.903   4.149 -1.5310 -2.1283 -1.5346
  887SOL     vw 3548   2.164   2.904   4.126 -1.2857 -0.9351 -0.6588
  888SOL     ow 3549   2.497   3.539   2.855  0.7966 -0.8207  0.8492
  888SOL     hw 3550   2.406   3.530   2.826  1.3887 -2.3880 -0.7292
  888SOL     hw 3551   2.549   3.501   2.784  2.8668  1.9973  0.6624
  888SOL     vw 3552   2.492   3.533   2.842  1.1479 -0.6558  0.6163
  889SOL     ow 3553   0.225   0.185   1.923 -0.1210  0.1030 -0.5043
  889SOL     hw 3554   0.216   0.099   1.881 -0.5280  0.4936 -1.2353
  889SOL     hw 3555   0.179   0.245   1.864  0.7152  0.9294 -0.3233
  889SOL     vw 3556   0.217   0.181   1.910 -0.0644  0.2636 -0.5769
  890SOL     ow 3557   3.579   2.825   6.140 -0.7966 -0.1590  0.1113
  890SOL     hw 3558   3.548   2.766   6.071 -0.3056 -1.0106  0.5930
  890SOL     hw 3559   3.507   2.829   6.203 -0.8664 -0.1799  0.0332
  890SOL     vw 3560   3.566   2.817   6.139 -0.7410 -0.2743  0.1647
  891SOL     ow 3561   0.163   3.764   6.043  0.4802  0.2461  0.1844
  891SOL     hw 3562   0.114   3.688   6.075  2.0054 -0.2749  1.3904
  891SOL     hw 3563   0.245   3.728   6.009 -0.8390  0.8049 -4.1844
  891SOL     vw 3564   0.167   3.749   6.043  0.5073  0.2512 -0.2329
  892SOL     ow 3565   2.861   0.218   3.077  0.0988  0.1361 -0.1728
  892SOL     hw 3566   2.790   0.154   3.084  0.6626 -0.5806 -0.7948
  892SOL     hw 3567   2.940   0.168   3.095  0.3858  1.1643  1.6050
  892SOL     vw 3568   2.862   0.203   3.080  0.2111  0.1772 -0.0203
  893SOL     ow 3569   3.932   1.003   3.678  0.0876 -1.1555  0.5003
  893SOL     hw 3570   3.990   1.013   3.753  2.9038 -0.4754 -1.6112
  893SOL     hw 3571   3.875   1.080   3.681  1.9350  0.2616  0.5511
  893SOL     vw 3572   3.932   1.014   3.688  0.7030 -0.8788  0.2284
  894SOL     ow 3573   3.538   7.096   0.026  0.0806 -0.4408 -0.3158
  894SOL     hw 3574   3.581   7.065   0.106 -0.8864  2.7539  1.6119
  894SOL     hw 3575   3.453   7.052   0.026 -0.5796  0.7389  1.3939
  894SOL     vw 3576   3.532   7.086   0.037 -0.1340  0.1364  0.1641
  895SOL     ow 3577   1.186   4.238   6.068  1.0330  0.0802  0.3877
  895SOL     hw 3578   1.274   4.273   6.057  0.1447  2.1023 -0.8854
  895SOL     hw 3579   1.154   4.223   5.979  0.5225 -1.9260  0.8542
  895SOL     vw 3580   1.193   4.241   6.055  0.8484  0.0825  0.2811
  896SOL     ow 3581   0.714   7.050   6.766 -0.9630  0.4016 -0.4743
  896SOL     hw 3582   0.649   7.040   6.836 -0.3000 -1.2443 -0.0494
  896SOL     hw 3583   0.728   7.145   6.760 -0.4844  0.5892  2.1615
  896SOL     vw 3584   0.707   7.061   6.775 -0.8124  0.2091 -0.0708
  897SOL     ow 3585   6.705   2.109   6.893  0.1188  0.6191 -0.1189
  897SOL     hw 3586   6.711   2.047   6.965 -0.9599  1.7226  0.9684
  897SOL     hw 3587   6.721   2.056   6.814 -0.9102 -1.0681  0.7427
  897SOL     vw 3588   6.708   2.094   6.892 -0.1593  0.5422  0.1383
  898SOL     ow 3589   5.612   7.117   3.741  0.1389 -0.3180 -0.4734
  898SOL     hw 3590   5.529   7.158   3.715  0.7679 -0.0787 -2.2016
  898SOL     hw 3591   5.611   7.121   3.837 -1.7171 -0.0801 -0.4678
  898SOL     vw 3592   5.601   7.123   3.751 -0.0229 -0.2551 -0.7007
  899SOL     ow 3593   1.238   1.353   1.904 -0.1121 -0.7647  0.2109
  899SOL     hw 3594   1.249   1.397   1.988  0.1709  1.7385 -1.0446
  899SOL     hw 3595   1.327   1.345   1.870 -0.3999  1.1636 -1.1705
  899SOL     vw 3596   1.252   1.358   1.911 -0.1127 -0.1800 -0.1370
  900SOL     ow 3597   3.410   6.768   5.011 -0.0644 -0.1038 -0.2220
  900SOL     hw 3598   3.467   6.784   4.936  0.0854 -2.4989 -0.6901
  900SOL     hw 3599   3.344   6.837   5.005 -0.5788 -0.7051 -3.0936
  900SOL     vw 3600   3.409   6.779   5.000 -0.1124 -0.4990 -0.6628
  901SOL     ow 3601   4.895   3.039   0.370 -0.1847 -0.3569 -0.1294
  901SOL     hw 3602   4.971   2.981   0.366  0.2550  0.2328 -0.6387
  901SOL     hw 3603   4.918   3.111   0.311 -1.1357 -0.1659 -0.2753
  901SOL     vw 3604   4.908   3.041   0.362 -0.2525 -0.2537 -0.2158
  902SOL     ow 3605   6.099   6.925   0.037  0.1960 -0.0926  0.2505
  902SOL     hw 3606   6.125   6.982   0.109 -0.8693  1.4166 -0.5166
  902SOL     hw 3607   6.006   6.906   0.054  0.8170 -2.7932  1.2374
  902SOL     vw 3608   6.090   6.930   0.049  0.1373 -0.2496  0.2795
  903SOL     ow 3609   4.665   2.725   1.438  0.5074 -0.2332 -0.4734
  903SOL     hw 3610   4.757   2.727   1.411  0.3623  2.1003 -1.0125
  903SOL     hw 3611   4.667   2.749   1.531  0.5478 -2.4707  0.1780
  903SOL     vw 3612   4.678   2.728   1.447  0.4938 -0.2205 -0.4586
  904SOL     ow 3613   3.936   4.097   2.606  0.2634  0.1700 -0.9498
  904SOL     hw 3614   3.980   4.046   2.674  0.1788  0.4606 -0.6766
  904SOL     hw 3615   3.993   4.090   2.529  0.1848 -0.4526 -0.9565
  904SOL     vw 3616   3.949   4.089   2.605  0.2420  0.1261 -0.9146
  905SOL     ow 3617   0.341   3.008   1.872  1.0677 -0.3653 -0.3282
  905SOL     hw 3618   0.249   2.982   1.884  0.7485  0.1381 -1.5497
  905SOL     hw 3619   0.359   3.066   1.946  0.3576 -0.3671 -0.1419
  905SOL     vw 3620   0.331   3.012   1.883  0.9319 -0.2992 -0.4648
  906SOL     ow 3621   0.041   4.389   6.590  0.0898  0.5888 -0.1063
  906SOL     hw 3622  -0.037   4.363   6.640  1.8430 -0.6150  2.2174
  906SOL     hw 3623   0.054   4.481   6.613  0.2856  0.3253  0.9222
  906SOL     vw 3624   0.032   4.398   6.600  0.3470  0.3953  0.3359
  907SOL     ow 3625   0.258   1.143   4.842 -0.2997 -0.8307  0.4777
  907SOL     hw 3626   0.199   1.090   4.896  1.5247 -1.8079  1.6067
  907SOL     hw 3627   0.295   1.080   4.780  0.7142 -0.5682  0.8085
  907SOL     vw 3628   0.255   1.128   4.841  0.0747 -0.9249  0.6704
  908SOL     ow 3629   0.760   0.503   6.176 -0.9127  0.3584  0.1324
  908SOL     hw 3630   0.709   0.423   6.164  0.0393 -0.3783  0.7975
  908SOL     hw 3631   0.709   0.555   6.238 -1.1831 -0.0666  0.2701
  908SOL     vw 3632   0.746   0.499   6.183 -0.8228  0.2051  0.2382
  909SOL     ow 3633   6.122   5.266   4.060 -0.2642  0.3872 -0.1925
  909SOL     hw 3634   6.091   5.250   3.970 -1.4523  1.7021 -0.0524
  909SOL     hw 3635   6.205   5.220   4.065  0.4381  1.2783 -2.3680
  909SOL     vw 3636   6.129   5.258   4.049 -0.3283  0.6781 -0.4611
  910SOL     ow 3637   6.744   4.190   0.146  0.4132  0.2816 -0.1411
  910SOL     hw 3638   6.707   4.170   0.232 -1.4350 -0.0808 -0.9543
  910SOL     hw 3639   6.694   4.266   0.116  0.3927 -0.1569 -1.2632
  910SOL     vw 3640   6.732   4.198   0.153  0.1669  0.1762 -0.3964
  911SOL     ow 3641   4.237   7.106   1.171 -0.5854  0.5402 -0.2385
  911SOL     hw 3642   4.313   7.160   1.150 -1.3570  1.1001 -1.6956
  911SOL     hw 3643   4.185   7.160   1.231  1.1952 -0.7257  2.6755
  911SOL     vw 3644   4.240   7.120   1.176 -0.4523  0.4473 -0.0463
  912SOL     ow 3645   0.868   6.082   4.939 -0.1923  0.5925 -0.7214
  912SOL     hw 3646   0.950   6.107   4.897 -0.2408  0.7375 -0.7299
  912SOL     hw 3647   0.828   6.165   4.964  1.0031  0.4594  1.9052
  912SOL     vw 3648   0.873   6.096   4.937 -0.0410  0.5944 -0.3757
  913SOL     ow 3649   2.005   4.889   5.556 -0.2292  0.5530 -0.6826
  913SOL     hw 3650   2.061   4.967   5.556 -0.5427  0.8301  1.4263
  913SOL     hw 3651   2.054   4.823   5.604 -1.2117  0.4389  0.2040
  913SOL     vw 3652   2.019   4.891   5.562 -0.4003  0.5748 -0.2873
  914SOL     ow 3653   2.586   1.124   5.242  0.1814 -0.4171  0.3991
  914SOL     hw 3654   2.593   1.184   5.168  2.6778 -0.3173  0.6296
  914SOL     hw 3655   2.522   1.059   5.213  0.4181  0.1135 -1.4958
  914SOL     vw 3656   2.578   1.123   5.228  0.5419 -0.3340  0.1793
  915SOL     ow 3657   3.636   4.710   3.249  0.0063 -0.1227 -0.0611
  915SOL     hw 3658   3.591   4.661   3.180 -0.3611 -1.0870  0.8175
  915SOL     hw 3659   3.572   4.774   3.279 -1.1371 -1.9028  1.6169
  915SOL     vw 3660   3.622   4.712   3.244 -0.1930 -0.4845  0.2762
  916SOL     ow 3661   6.975   6.693   4.261  0.1158  0.0666  0.0068
  916SOL     hw 3662   6.927   6.611   4.243 -0.8166  0.3734  0.9631
  916SOL     hw 3663   6.986   6.733   4.175 -2.5090  0.5934 -0.1826
  916SOL     vw 3664   6.970   6.687   4.247 -0.3533  0.1769  0.1080
  917SOL     ow 3665   5.006   6.783   1.453 -0.3858  0.8399  0.4703
  917SOL     hw 3666   5.062   6.789   1.530 -1.2569 -1.4375  1.3664
  917SOL     hw 3667   4.983   6.874   1.433  0.7674  1.5653  2.1841
  917SOL     vw 3668   5.010   6.796   1.460 -0.3486  0.6354  0.8147
  918SOL     ow 3669   6.953   3.567   6.513  0.2216 -0.4297 -0.1773
  918SOL     hw 3670   6.899   3.575   6.591 -0.1244 -2.4307 -0.1495
  918SOL     hw 3671   6.897   3.599   6.442  0.1320  0.3498  0.2363
  918SOL     vw 3672   6.938   3.572   6.514  0.1645 -0.5908 -0.1192
  919SOL     ow 3673   6.157   2.905   5.362 -0.3636 -0.3613 -0.1613
  919SOL     hw 3674   6.234   2.892   5.417  0.1226 -2.4950 -1.2276
  919SOL     hw 3675   6.086   2.862   5.409 -0.1819 -1.2306 -0.6637
  919SOL     vw 3676   6.158   2.898   5.375 -0.2759 -0.7576 -0.3684
  920SOL     ow 3677   0.471   0.261   0.635 -0.0028 -0.1233  0.2808
  920SOL     hw 3678   0.519   0.338   0.668  0.8648 -1.3462  2.0239
  920SOL     hw 3679   0.540   0.198   0.613 -0.7316 -1.1203  0.7663
  920SOL     vw 3680   0.487   0.263   0.637  0.0155 -0.4162  0.5748
  921SOL     ow 3681   1.369   1.755   4.564 -0.2212 -0.0340  0.2748
  921SOL     hw 3682   1.285   1.800   4.554 -0.4444 -0.5269 -0.1518
  921SOL     hw 3683   1.431   1.809   4.515 -0.0261  1.0018  1.6230
  921SOL     vw 3684   1.366   1.768   4.556 -0.2249  0.0376  0.3965
  922SOL     ow 3685   5.637   0.949   5.524  0.3141  0.3125  0.5207
  922SOL     hw 3686   5.668   0.874   5.472  1.8826 -0.5462  2.5844
  922SOL     hw 3687   5.591   0.909   5.598 -1.3366  1.5060  0.1940
  922SOL     vw 3688   5.635   0.934   5.527  0.3033  0.3567  0.7501
  923SOL     ow 3689   1.127   6.824   4.401 -0.7150  0.0329 -0.4488
  923SOL     hw 3690   1.086   6.835   4.487 -1.5565  0.6779 -0.9155
  923SOL     hw 3691   1.155   6.913   4.376 -0.6942 -0.1095 -0.9443
  923SOL     vw 3692   1.125   6.837   4.409 -0.8233  0.0992 -0.5755
  924SOL     ow 3693   4.522   2.858   2.791 -0.0059 -0.2214  0.9769
  924SOL     hw 3694   4.427   2.845   2.782  0.3614 -2.3375 -0.6413
  924SOL     hw 3695   4.555   2.858   2.701  1.7686 -1.9494  1.5690
  924SOL     vw 3696   4.514   2.856   2.778  0.2766 -0.7285  0.8417
  925SOL     ow 3697   4.222   5.054   2.548  0.0521  0.2011 -0.5448
  925SOL     hw 3698   4.176   5.117   2.604 -0.4581 -0.1015 -0.6179
  925SOL     hw 3699   4.312   5.087   2.544  0.7786 -1.0484  2.4469
  925SOL     vw 3700   4.228   5.067   2.555  0.0806 -0.0036 -0.1597
  926SOL     ow 3701   2.523   3.182   5.640 -0.2664 -1.5362  0.8494
  926SOL     hw 3702   2.579   3.180   5.562 -0.8075 -2.2904  0.4637
  926SOL     hw 3703   2.581   3.158   5.712  0.4080 -0.1182  0.8089
  926SOL     vw 3704   2.538   3.179   5.639 -0.2488 -1.4486  0.7930
  927SOL     ow 3705   6.406   5.620   1.058 -0.0498  0.1953 -0.3711
  927SOL     hw 3706   6.477   5.567   1.024  0.9084  1.7990 -1.0068
  927SOL     hw 3707   6.421   5.707   1.021 -1.4703  0.9558  0.7136
  927SOL     vw 3708   6.417   5.625   1.049 -0.1109  0.5071 -0.3119
  928SOL     ow 3709   2.419   0.245   1.717 -0.2600 -0.2663 -0.0733
  928SOL     hw 3710   2.459   0.174   1.667 -1.1913  0.8004 -2.5049
  928SOL     hw 3711   2.482   0.317   1.710  0.9479 -0.8936  2.8528
  928SOL     vw 3712   2.433   0.245   1.710 -0.2234 -0.2083 -0.0082
  929SOL     ow 3713   5.012   0.224   5.408  0.2742  0.7641 -0.0357
  929SOL     hw 3714   4.931   0.246   5.453  1.4905 -0.2399  2.8700
  929SOL     hw 3715   5.025   0.131   5.426  0.1661 -0.1469 -3.8061
  929SOL     vw 3716   5.003   0.215   5.416  0.4203  0.5114 -0.1500
  930SOL     ow 3717   6.484   1.641   6.735 -0.3592 -0.1601  0.1035
  930SOL     hw 3718   6.412   1.661   6.795 -0.2461  5.7351 -1.1455
  930SOL     hw 3719   6.441   1.612   6.655 -1.1960  0.6967  0.2251
  930SOL     vw 3720   6.469   1.640   6.733 -0.4544  0.7308 -0.0451
  931SOL     ow 3721   0.030   1.530   0.219 -0.7404  0.6547  0.2626
  931SOL     hw 3722  -0.034   1.532   0.290 -1.0214  3.5633  0.0225
  931SOL     hw 3723   0.000   1.596   0.157  3.2418  3.4228  0.9235
  931SOL     vw 3724   0.018   1.539   0.221 -0.2521  1.4036  0.3181
  932SOL     ow 3725   6.369   4.659   6.853  0.3027  0.1452 -0.2622
  932SOL     hw 3726   6.406   4.699   6.932 -0.4747 -1.6309  1.0592
  932SOL     hw 3727   6.287   4.707   6.838  0.7568  0.9068 -0.3873
  932SOL     vw 3728   6.363   4.671   6.861  0.2601  0.0112 -0.1044
  933SOL     ow 3729   3.733   3.798   3.696 -0.0881  0.7294  0.4449
  933SOL     hw 3730   3.658   3.812   3.754 -2.3938  0.3085 -2.2107
  933SOL     hw 3731   3.749   3.884   3.657  1.4946  1.0270  1.6430
  933SOL     vw 3732   3.725   3.811   3.698 -0.1836  0.7132  0.2525
  934SOL     ow 3733   1.424   6.781   1.700 -0.0324  0.3839 -0.2394
  934SOL     hw 3734   1.390   6.865   1.730  0.7097  0.7045 -0.2889
  934SOL     hw 3735   1.494   6.759   1.761 -0.0370 -0.0684 -0.3885
  934SOL     vw 3736   1.429   6.789   1.712  0.0649  0.3667 -0.2656
  935SOL     ow 3737   0.186   1.771   6.670 -1.1511  0.9260  0.3260
  935SOL     hw 3738   0.127   1.772   6.745 -0.7636  0.7405  0.6350
  935SOL     hw 3739   0.209   1.679   6.659 -0.9393  0.9949  0.1920
  935SOL     vw 3740   0.181   1.759   6.679 -1.0720  0.9106  0.3490
  936SOL     ow 3741   1.984   7.001   2.456 -0.4277  0.4276 -0.1638
  936SOL     hw 3742   2.060   7.026   2.404 -0.0995  2.3369  1.1187
  936SOL     hw 3743   2.019   6.946   2.525 -0.3437  0.5848 -0.0807
  936SOL     vw 3744   1.999   6.997   2.458 -0.3733  0.7002  0.0165
  937SOL     ow 3745   3.250   1.768   6.510 -0.5862 -0.7997 -0.1555
  937SOL     hw 3746   3.174   1.731   6.464  0.4284 -1.1747 -1.6103
  937SOL     hw 3747   3.268   1.706   6.580 -0.9891 -1.2626 -0.4515
  937SOL     vw 3748   3.242   1.755   6.513 -0.5053 -0.9102 -0.3862
  938SOL     ow 3749   5.455   7.004   5.042  0.0737 -0.0190  0.0258
  938SOL     hw 3750   5.416   6.931   5.091 -0.7562 -0.5506 -1.3534
  938SOL     hw 3751   5.534   7.027   5.091  1.3866 -3.0668 -0.3992
  938SOL     vw 3752   5.460   6.997   5.055  0.1376 -0.4914 -0.2124
  939SOL     ow 3753   0.837   3.767   5.355  0.3195 -0.2384 -0.0956
  939SOL     hw 3754   0.799   3.744   5.440 -0.6651 -0.7786 -0.6709
  939SOL     hw 3755   0.856   3.683   5.313 -0.5833 -0.0022 -1.0076
  939SOL     vw 3756   0.835   3.753   5.361  0.0705 -0.2786 -0.2918
  940SOL     ow 3757   3.373   0.623   6.375  0.6675  0.1595 -0.6105
  940SOL     hw 3758   3.278   0.609   6.372  0.9273 -1.7935 -1.2565
  940SOL     hw 3759   3.389   0.692   6.311 -0.2273 -0.1623 -1.1969
  940SOL     vw 3760   3.363   0.630   6.366  0.5836 -0.1406 -0.7732
  941SOL     ow 3761   7.057   1.291   1.850  0.3028 -0.0008  0.7073
  941SOL     hw 3762   7.042   1.200   1.875  1.7514 -2.0086 -4.4401
  941SOL     hw 3763   7.152   1.301   1.850  0.3247  0.3807 -1.7317
  941SOL     vw 3764   7.067   1.281   1.853  0.4968 -0.2153 -0.2936
  942SOL     ow 3765   2.322   5.015   3.722  0.2204  0.1066 -0.6583
  942SOL     hw 3766   2.337   4.920   3.722 -0.2456  0.0299 -0.9750
  942SOL     hw 3767   2.250   5.028   3.661 -1.7950  0.3249  1.6050
  942SOL     vw 3768   2.315   5.004   3.714 -0.1070  0.1254 -0.4014
  943SOL     ow 3769   5.174   5.779   0.280 -0.4445  0.2959  0.4253
  943SOL     hw 3770   5.175   5.874   0.284  0.2359  0.3124 -0.0064
  943SOL     hw 3771   5.260   5.752   0.310  0.7311 -0.0007 -2.8262
  943SOL     vw 3772   5.185   5.788   0.284 -0.1998  0.2587 -0.0607
  944SOL     ow 3773   1.284   4.422   6.718 -0.8991  0.3377  0.2934
  944SOL     hw 3774   1.372   4.447   6.748 -0.4275 -2.2244  1.2888
  944SOL     hw 3775   1.282   4.447   6.626  0.7476  0.7348  0.3370
  944SOL     vw 3776   1.295   4.429   6.710 -0.6196  0.0522  0.4306
  945SOL     ow 3777   2.393   0.366   6.512  0.4151  0.3470  0.4378
  945SOL     hw 3778   2.442   0.341   6.590 -0.2675  0.1141  0.8063
  945SOL     hw 3779   2.301   0.355   6.537  0.1878 -1.4700 -0.9300
  945SOL     vw 3780   2.387   0.361   6.526  0.2949  0.0766  0.3059
  946SOL     ow 3781   3.233   7.049   3.655 -0.2619  0.2192  0.8631
  946SOL     hw 3782   3.293   6.975   3.660 -0.4177  0.1057  1.0882
  946SOL     hw 3783   3.255   7.092   3.572 -0.5445 -0.3906  0.4665
  946SOL     vw 3784   3.244   7.045   3.645 -0.3197  0.1240  0.8405
  947SOL     ow 3785   4.494   5.635   0.781  0.1254 -0.1694 -0.0800
  947SOL     hw 3786   4.584   5.666   0.772  0.0373  0.1344  0.0771
  947SOL     hw 3787   4.485   5.612   0.873  0.1841 -0.6438 -0.1920
  947SOL     vw 3788   4.504   5.636   0.792  0.1214 -0.1922 -0.0741
  948SOL     ow 3789   5.943   0.911   2.380  0.3418  0.5017 -0.3903
  948SOL     hw 3790   5.920   0.972   2.310 -2.4944 -1.1678 -1.0326
  948SOL     hw 3791   5.861   0.890   2.423  1.6045 -0.8121  1.5731
  948SOL     vw 3792   5.929   0.917   2.376  0.1345  0.1081 -0.2159
  949SOL     ow 3793   5.489   1.195   2.370 -0.1871 -0.1309  0.6167
  949SOL     hw 3794   5.575   1.175   2.334 -0.4779  1.4474 -1.1052
  949SOL     hw 3795   5.502   1.198   2.465  1.5696 -0.2606  0.3977
  949SOL     vw 3796   5.502   1.193   2.378  0.0064  0.0603  0.3606
  950SOL     ow 3797   2.218   6.395   7.144 -0.0430  0.6432 -0.4129
  950SOL     hw 3798   2.194   6.318   7.093  2.2597 -0.7672  0.4737
  950SOL     hw 3799   2.314   6.397   7.142  0.2255  0.6556  3.4989
  950SOL     vw 3800   2.228   6.385   7.137  0.2964  0.4590  0.2202
  951SOL     ow 3801   2.303   5.467   6.638 -0.1342  0.5071 -0.0709
  951SOL     hw 3802   2.207   5.475   6.635 -0.0167  2.1945 -0.6034
  951SOL     hw 3803   2.330   5.534   6.701  0.7178  0.2559 -0.1617
  951SOL     vw 3804   2.294   5.477   6.646 -0.0064  0.6967 -0.1531
  952SOL     ow 3805   5.357   6.283   6.109  0.0710  0.0043  0.0420
  952SOL     hw 3806   5.422   6.222   6.143 -0.4837 -1.3117 -1.1391
  952SOL     hw 3807   5.274   6.236   6.119 -0.7996  1.8174  1.9356
  952SOL     vw 3808   5.354   6.268   6.115 -0.1173  0.0696  0.1361
  953SOL     ow 3809   5.194   2.654   5.242 -0.2105  0.0457  0.3833
  953SOL     hw 3810   5.105   2.664   5.275  0.2348  3.8921  0.8861
  953SOL     hw 3811   5.192   2.695   5.155  1.3328  1.6725  1.0510
  953SOL     vw 3812   5.182   2.661   5.235  0.0517  0.7678  0.5376
  954SOL     ow 3813   2.331   0.790   0.529  0.2144 -0.2450  0.8002
  954SOL     hw 3814   2.382   0.862   0.490 -0.0675 -0.5898 -0.2431
  954SOL     hw 3815   2.379   0.767   0.608  0.0670  1.3887  1.4123
  954SOL     vw 3816   2.344   0.796   0.534  0.1578 -0.0750  0.7433
  955SOL     ow 3817   3.062   0.270   5.514 -0.6193 -0.1952  0.2911
  955SOL     hw 3818   3.115   0.199   5.552  1.2420  1.0074  0.0614
  955SOL     hw 3819   3.124   0.342   5.501 -2.4122  1.4427  0.3735
  955SOL     vw 3820   3.078   0.270   5.517 -0.6104  0.1796  0.2718
  956SOL     ow 3821   6.886   2.170   2.445 -0.6249 -0.1838  0.4073
  956SOL     hw 3822   6.922   2.233   2.384 -0.0946 -1.5937 -0.8031
  956SOL     hw 3823   6.832   2.112   2.391 -1.8833 -0.2052  1.6281
  956SOL     vw 3824   6.883   2.170   2.430 -0.7207 -0.3724  0.4086
  957SOL     ow 3825   3.665   6.352   1.346 -0.5559 -0.5408  0.2955
  957SOL     hw 3826   3.606   6.427   1.361 -0.5311 -0.1714 -1.3367
  957SOL     hw 3827   3.751   6.392   1.335 -0.1800 -0.9942  1.4589
  957SOL     vw 3828   3.668   6.367   1.347 -0.5031 -0.5519  0.2338
  958SOL     ow 3829   2.913   5.927   6.786  0.0907 -0.5702  0.1056
  958SOL     hw 3830   2.854   5.981   6.733  0.5980 -0.1591 -0.0404
  958SOL     hw 3831   2.868   5.920   6.870  0.9938  1.8985  0.8678
  958SOL     vw 3832   2.899   5.933   6.790  0.2769 -0.1900  0.1869
  959SOL     ow 3833   3.636   4.567   4.259 -0.5534 -0.3924  0.7567
  959SOL     hw 3834   3.584   4.526   4.190  1.1278  0.9711 -1.4638
  959SOL     hw 3835   3.579   4.636   4.293 -0.4798  0.8026 -1.3265
  959SOL     vw 3836   3.622   4.570   4.254 -0.3217 -0.0548  0.1888
  960SOL     ow 3837   5.039   0.051   2.678  0.7210  0.2114 -0.0849
  960SOL     hw 3838   5.027   0.038   2.584  0.2635 -0.6573  0.0840
  960SOL     hw 3839   5.116   0.108   2.685 -0.9148  2.7627 -1.0872
  960SOL     vw 3840   5.047   0.057   2.667  0.4447  0.4334 -0.1948
  961SOL     ow 3841   0.258   0.799   3.870 -1.2676  0.0009  0.3005
  961SOL     hw 3842   0.193   0.752   3.922 -2.9485  0.2779 -1.4102
  961SOL     hw 3843   0.206   0.857   3.814  0.3775 -0.4341 -1.8063
  961SOL     vw 3844   0.243   0.800   3.869 -1.2723 -0.0199 -0.2031
  962SOL     ow 3845   2.150   4.206   0.200 -0.2482 -0.2134 -0.2065
  962SOL     hw 3846   2.138   4.139   0.267  1.9543 -0.1888  0.3125
  962SOL     hw 3847   2.099   4.174   0.125 -1.7515 -0.8648  1.0474
  962SOL     vw 3848   2.142   4.193   0.199 -0.1559 -0.2961  0.0274
  963SOL     ow 3849   6.951   1.937   3.370  0.1452 -0.0371 -0.0809
  963SOL     hw 3850   6.892   1.915   3.298 -0.3989  0.4123  0.2201
  963SOL     hw 3851   6.991   1.854   3.396 -1.5530 -0.6299  0.7701
  963SOL     vw 3852   6.949   1.923   3.364 -0.1504 -0.0560  0.0712
  964SOL     ow 3853   2.504   3.728   3.128 -1.3110  0.3103  0.1145
  964SOL     hw 3854   2.490   3.822   3.136 -1.5944  0.3805 -1.1321
  964SOL     hw 3855   2.428   3.689   3.170 -1.2206  0.6262  0.5825
  964SOL     vw 3856   2.492   3.735   3.135 -1.3365  0.3613  0.0118
  965SOL     ow 3857   6.442   3.446   2.672  0.1732 -0.6891 -0.0909
  965SOL     hw 3858   6.496   3.521   2.697 -0.7447 -0.1651  0.3846
  965SOL     hw 3859   6.504   3.380   2.642  1.0342  0.0654  0.0046
  965SOL     vw 3860   6.457   3.447   2.672  0.1655 -0.5203 -0.0156
  966SOL     ow 3861   5.751   4.727   4.353  0.0736  0.3061  0.5474
  966SOL     hw 3862   5.719   4.764   4.436 -0.0956 -0.0733  0.6542
  966SOL     hw 3863   5.838   4.767   4.342  1.6904 -2.2461  2.7211
  966SOL     vw 3864   5.758   4.737   4.363  0.2646 -0.0803  0.8483
  967SOL     ow 3865   2.836   3.345   2.264  0.0529 -0.4292 -0.2708
  967SOL     hw 3866   2.921   3.381   2.238  0.0536  1.0463  1.5256
  967SOL     hw 3867   2.857   3.265   2.312  0.2417 -1.3513 -1.8310
  967SOL     vw 3868   2.850   3.339   2.267  0.0780 -0.3561 -0.2396
  968SOL     ow 3869   4.003   4.414   2.571  0.1910 -0.1230  0.4136
  968SOL     hw 3870   3.998   4.487   2.632  1.1938 -0.5281  1.0052
  968SOL     hw 3871   4.041   4.451   2.492  0.0987  0.1316  0.4879
  968SOL     vw 3872   4.007   4.428   2.569  0.3111 -0.1428  0.5014
  969SOL     ow 3873   4.754   5.515   6.266 -0.1876  0.5658  0.3712
  969SOL     hw 3874   4.746   5.562   6.349  0.0094  2.3970 -0.6061
  969SOL     hw 3875   4.801   5.575   6.209  1.5208 -1.4681 -0.4886
  969SOL     vw 3876   4.759   5.529   6.270  0.0634  0.5391  0.1287
  970SOL     ow 3877   2.975   3.612   4.204 -0.0665  0.5659  0.3179
  970SOL     hw 3878   3.071   3.616   4.196  0.1414 -1.6930  1.0641
  970SOL     hw 3879   2.948   3.554   4.133 -0.8313  0.7245  0.4727
  970SOL     vw 3880   2.984   3.605   4.193 -0.1402  0.2887  0.4368
  971SOL     ow 3881   6.834   6.930   2.798 -0.0180  0.8738  0.2286
  971SOL     hw 3882   6.824   7.019   2.830  1.4505  0.6170  1.5678
  971SOL     hw 3883   6.785   6.876   2.860 -1.1586  0.7627 -0.7541
  971SOL     vw 3884   6.826   6.935   2.810  0.0255  0.8256  0.2757
  972SOL     ow 3885   4.491   2.887   5.670 -0.4817 -0.0840 -0.0361
  972SOL     hw 3886   4.449   2.801   5.660 -0.2933 -0.2035  0.1739
  972SOL     hw 3887   4.579   2.866   5.701 -0.3744  0.1794 -0.1625
  972SOL     vw 3888   4.497   2.873   5.673 -0.4427 -0.0650 -0.0253
  973SOL     ow 3889   6.113   7.122   2.947 -0.2956  0.2446  0.5346
  973SOL     hw 3890   6.052   7.162   2.885 -0.7627  0.7255  1.2851
  973SOL     hw 3891   6.159   7.196   2.986 -2.0486  0.2536  2.8685
  973SOL     vw 3892   6.111   7.137   2.944 -0.5884  0.3092  0.9416
  974SOL     ow 3893   6.313   6.745   0.155  0.0114  0.5373 -0.4642
  974SOL     hw 3894   6.289   6.749   0.248 -1.2542  2.7046 -0.8203
  974SOL     hw 3895   6.349   6.657   0.144 -3.3268 -1.2490  1.2365
  974SOL     vw 3896   6.314   6.734   0.166 -0.5956  0.5877 -0.2868
  975SOL     ow 3897   5.492   0.125   5.605  0.2895 -0.0696 -0.9720
  975SOL     hw 3898   5.501   0.039   5.644 -1.7583 -0.1423 -0.5388
  975SOL     hw 3899   5.546   0.122   5.526  0.9827 -1.4070 -0.4753
  975SOL     vw 3900   5.501   0.114   5.600  0.1109 -0.2557 -0.8492
  976SOL     ow 3901   2.424   4.181   2.347 -0.2729 -0.5773 -0.2567
  976SOL     hw 3902   2.409   4.135   2.264 -0.7678  1.1041 -1.1601
  976SOL     hw 3903   2.342   4.169   2.396 -0.2191 -1.0580 -0.2843
  976SOL     vw 3904   2.411   4.174   2.342 -0.3310 -0.4191 -0.3794
  977SOL     ow 3905   3.279   5.008   1.752  0.5585 -0.1454 -0.0549
  977SOL     hw 3906   3.287   4.960   1.835  1.6472  2.1906  1.2812
  977SOL     hw 3907   3.295   5.099   1.775  1.3811  0.5423 -2.9257
  977SOL     vw 3908   3.282   5.014   1.766  0.8107  0.2534 -0.2574
  978SOL     ow 3909   2.587   2.450   3.657 -0.2650  0.2711 -0.2238
  978SOL     hw 3910   2.664   2.437   3.712 -0.3118  1.3496  0.1209
  978SOL     hw 3911   2.529   2.504   3.709 -1.7207 -1.3497 -0.0865
  978SOL     vw 3912   2.590   2.455   3.671 -0.4634  0.1996 -0.1602
  979SOL     ow 3913   3.289   5.658   6.079 -0.0014  0.0665  0.4817
  979SOL     hw 3914   3.247   5.681   6.162 -0.7068  0.8224 -0.0576
  979SOL     hw 3915   3.241   5.581   6.048 -0.8747  0.7879 -0.0186
  979SOL     vw 3916   3.277   5.651   6.086 -0.2097  0.2615  0.3448
  980SOL     ow 3917   6.020   1.086   0.794  0.2922  0.1513 -0.1033
  980SOL     hw 3918   6.087   1.019   0.807 -0.4095 -0.6300 -0.3952
  980SOL     hw 3919   6.016   1.133   0.878 -0.4626 -1.3659  0.7512
  980SOL     vw 3920   6.028   1.083   0.807  0.1001 -0.1520 -0.0291
  981SOL     ow 3921   5.086   5.070   3.274  0.3451  0.1876  0.0397
  981SOL     hw 3922   5.083   5.102   3.184  0.4258 -0.1805 -0.0959
  981SOL     hw 3923   4.994   5.059   3.298  0.3055  0.8289  0.2027
  981SOL     vw 3924   5.073   5.073   3.265  0.3507  0.2236  0.0433
  982SOL     ow 3925   1.980   4.857   2.536 -0.4000 -0.6618 -0.2142
  982SOL     hw 3926   1.970   4.765   2.558  0.6856 -0.3856  1.6426
  982SOL     hw 3927   2.041   4.858   2.462 -1.3637 -1.4475 -1.0609
  982SOL     vw 3928   1.987   4.845   2.529 -0.3839 -0.7291 -0.0809
  983SOL     ow 3929   0.043   6.186   5.040  0.0637 -0.1117 -0.6469
  983SOL     hw 3930   0.083   6.137   4.968 -0.3658 -1.6694  0.1202
  983SOL     hw 3931  -0.038   6.139   5.060  0.1084  0.3368  0.7590
  983SOL     vw 3932   0.038   6.173   5.033  0.0131 -0.2582 -0.3603
  984SOL     ow 3933   1.751   3.452   5.221  0.4290  0.4898  0.2594
  984SOL     hw 3934   1.704   3.532   5.196  0.1924  0.5606  0.8915
  984SOL     hw 3935   1.693   3.381   5.197  0.1565  0.5613  0.6954
  984SOL     vw 3936   1.737   3.453   5.215  0.3618  0.5085  0.4003
  985SOL     ow 3937   2.556   0.995   1.270  0.7521  0.2389  1.2094
  985SOL     hw 3938   2.488   0.927   1.267 -1.3997  2.2783  0.3134
  985SOL     hw 3939   2.554   1.027   1.360  1.6305 -0.7102  1.5804
  985SOL     vw 3940   2.547   0.990   1.281  0.5840  0.3827  1.1401
  986SOL     ow 3941   1.506   4.205   4.510  1.2588  0.0799  0.4732
  986SOL     hw 3942   1.430   4.172   4.558  0.4335  2.5515  1.0182
  986SOL     hw 3943   1.557   4.252   4.576  1.7184  0.9393 -0.4662
  986SOL     vw 3944   1.503   4.207   4.525  1.2106  0.5193  0.4213
  987SOL     ow 3945   4.727   0.399   1.235  0.3356 -0.0592  0.1971
  987SOL     hw 3946   4.793   0.422   1.300 -1.1880 -2.5052  2.8903
  987SOL     hw 3947   4.644   0.428   1.274 -0.4764  0.3056 -1.7025
  987SOL     vw 3948   4.725   0.406   1.249  0.0277 -0.3338  0.3018
  988SOL     ow 3949   0.947   3.054   1.237 -0.5899  0.0665  0.2927
  988SOL     hw 3950   0.945   3.019   1.326  0.3765  0.2042  0.3776
  988SOL     hw 3951   0.894   3.134   1.241  0.0886  0.4901  0.9273
  988SOL     vw 3952   0.939   3.060   1.249 -0.3729  0.1405  0.3877
  989SOL     ow 3953   5.779   0.135   2.603 -0.3417  0.1701 -0.0062
  989SOL     hw 3954   5.788   0.052   2.556  1.2572  0.2334  0.1240
  989SOL     hw 3955   5.693   0.130   2.644 -0.4737 -1.2162 -0.3907
  989SOL     vw 3956   5.769   0.123   2.602 -0.1481 -0.0044 -0.0397
  990SOL     ow 3957   0.410   2.010   6.719 -0.0957 -0.5823  0.5571
  990SOL     hw 3958   0.447   1.954   6.787 -0.1335 -0.5997  0.5633
  990SOL     hw 3959   0.398   2.095   6.762  0.5613 -0.3891  0.3640
  990SOL     vw 3960   0.413   2.014   6.734 -0.0140 -0.5591  0.5324
  991SOL     ow 3961   2.250   2.766   2.625  1.2782 -0.0015  0.9428
  991SOL     hw 3962   2.165   2.739   2.589  0.6546  0.2900  2.1410
  991SOL     hw 3963   2.245   2.862   2.628  2.1771  0.1054 -0.1853
  991SOL     vw 3964   2.238   2.775   2.621  1.3144  0.0511  0.9520
  992SOL     ow 3965   5.662   3.534   0.694 -0.4700  0.4668  0.7466
  992SOL     hw 3966   5.661   3.630   0.704  0.8639  0.3627  2.3351
  992SOL     hw 3967   5.636   3.502   0.780 -1.2488 -0.6204  0.1192
  992SOL     vw 3968   5.658   3.543   0.707 -0.3967  0.3097  0.8734
  993SOL     ow 3969   1.315   5.242   1.911 -0.0194 -0.2232  0.4714
  993SOL     hw 3970   1.252   5.305   1.945  1.1028  0.5463  1.2250
  993SOL     hw 3971   1.303   5.164   1.965  0.6252  0.4273  1.6102
  993SOL     vw 3972   1.305   5.240   1.923  0.2137 -0.0358  0.7211
  994SOL     ow 3973   6.270   6.807   6.293 -0.0218  0.0178 -0.5671
  994SOL     hw 3974   6.239   6.746   6.360  0.0751  1.1136  0.5085
  994SOL     hw 3975   6.206   6.800   6.223  0.5953 -2.1491 -1.0025
  994SOL     vw 3976   6.258   6.798   6.292  0.0722 -0.1233 -0.4828
  995SOL     ow 3977   1.584   3.223   5.058 -0.1643 -0.1136  0.4237
  995SOL     hw 3978   1.652   3.156   5.065 -0.6413 -0.5067  1.5254
  995SOL     hw 3979   1.517   3.196   5.121 -1.5586  0.0209 -0.9616
  995SOL     vw 3980   1.585   3.211   5.067 -0.4112 -0.1477  0.3860
  996SOL     ow 3981   3.358   1.490   0.201 -0.0293  0.6106  0.2813
  996SOL     hw 3982   3.357   1.549   0.276  0.0150  0.4510  0.4064
  996SOL     hw 3983   3.272   1.500   0.161 -0.2869  0.2109  0.7285
  996SOL     vw 3984   3.347   1.499   0.206 -0.0576  0.5369  0.3568
  997SOL     ow 3985   1.199   2.172   5.323  0.9937  0.6484  0.2341
  997SOL     hw 3986   1.247   2.208   5.398  1.9174  0.2688 -0.1578
  997SOL     hw 3987   1.180   2.082   5.348 -0.6206  1.1323  0.8871
  997SOL     vw 3988   1.203   2.165   5.337  0.9026  0.6622  0.2682
  998SOL     ow 3989   2.561   1.164   5.510  0.4228 -0.1239  0.1181
  998SOL     hw 3990   2.486   1.121   5.551  0.4178 -1.2292 -0.9914
  998SOL     hw 3991   2.546   1.154   5.416  3.5951 -3.5313 -0.2482
  998SOL     vw 3992   2.549   1.157   5.503  0.8407 -0.7194 -0.0765
  999SOL     ow 3993   7.133   4.840   4.749 -0.8596 -0.6364  0.3622
  999SOL     hw 3994   7.183   4.904   4.698 -0.7798 -1.1293 -0.1986
  999SOL     hw 3995   7.065   4.891   4.792  0.4093  0.1292  1.5401
  999SOL     vw 3996   7.131   4.855   4.748 -0.6816 -0.6006  0.4437
 1000SOL     ow 3997   5.558   6.229   5.880  0.5949  0.1307 -0.9966
 1000SOL     hw 3998   5.518   6.149   5.845  2.1793 -0.3713 -1.7399
 1000SOL     hw 3999   5.633   6.246   5.823  1.0473  1.4400 -0.0713
 1000SOL     vw 4000   5.563   6.221   5.868  0.8636  0.2370 -0.9725
 1001SOL     ow 4001   1.763   4.805   2.306 -0.2603 -0.0255  0.2430
 1001SOL     hw 4002   1.741   4.712   2.315  0.5065 -0.1449  1.1205
 1001SOL     hw 4003   1.796   4.813   2.217  1.2657 -0.9740  0.6793
 1001SOL     vw 4004   1.764   4.793   2.296  0.0423 -0.1662  0.4163
 1002SOL     ow 4005   5.099   3.628   4.971 -0.5910 -0.3523 -0.0742
 1002SOL     hw 4006   5.039   3.599   4.902  0.4896  0.6096 -1.4823
 1002SOL     hw 4007   5.045   3.630   5.050 -2.2080 -0.3194 -1.1247
 1002SOL     vw 4008   5.084   3.625   4.972 -0.6618 -0.2210 -0.3989
 1003SOL     ow 4009   3.023   0.307   0.231 -0.2159 -0.3968 -0.3865
 1003SOL     hw 4010   3.098   0.346   0.276 -0.2702  1.2366 -1.6111
 1003SOL     hw 4011   3.053   0.294   0.141 -1.6145  1.1507 -1.1422
 1003SOL     vw 4012   3.037   0.311   0.225 -0.4076  0.0228 -0.6478
 1004SOL     ow 4013   7.138   3.410   6.663  0.2155  0.1252 -0.1175
 1004SOL     hw 4014   7.231   3.433   6.656  0.4268 -0.5582  0.3321
 1004SOL     hw 4015   7.127   3.383   6.754 -0.2311 -0.6378 -0.3931
 1004SOL     vw 4016   7.149   3.410   6.674  0.1843 -0.0656 -0.0944
 1005SOL     ow 4017   5.148   1.860   5.420 -0.0970 -0.3371  0.2412
 1005SOL     hw 4018   5.191   1.775   5.411  1.1488  0.1183  1.5018
 1005SOL     hw 4019   5.079   1.860   5.354 -0.0652 -2.2874  0.1669
 1005SOL     vw 4020   5.144   1.849   5.410  0.0713 -0.5343  0.3977
 1006SOL     ow 4021   5.019   5.029   3.575  0.0865 -0.6311  0.1776
 1006SOL     hw 4022   4.993   5.092   3.642  0.1360 -0.1354 -0.2613
 1006SOL     hw 4023   5.022   4.945   3.621  1.3590 -0.1112  1.0791
 1006SOL     vw 4024   5.016   5.027   3.590  0.2606 -0.4971  0.2385
 1007SOL     ow 4025   7.070   5.122   6.335  0.7077  0.1238  0.1103
 1007SOL     hw 4026   6.997   5.184   6.340  0.7394  0.3385 -1.5447
 1007SOL     hw 4027   7.081   5.090   6.425  1.2586  3.1492  1.2363
 1007SOL     vw 4028   7.062   5.126   6.348  0.7844  0.5512  0.0405
 1008SOL     ow 4029   5.290   6.499   1.958 -0.0933 -0.2568  0.5158
 1008SOL     hw 4030   5.321   6.466   1.874 -0.6785  0.6479 -0.0799
 1008SOL     hw 4031   5.321   6.435   2.023  0.2100 -1.0602 -0.4037
 1008SOL     vw 4032   5.298   6.486   1.956 -0.1304 -0.2434  0.3159
 1009SOL     ow 4033   2.209   4.589   1.687  0.7288 -0.4160 -0.9106
 1009SOL     hw 4034   2.163   4.671   1.702  0.1627 -0.4996 -2.0854
 1009SOL     hw 4035   2.301   4.615   1.673  0.3301  0.2061 -2.7186
 1009SOL     vw 4036   2.215   4.603   1.687  0.6015 -0.3450 -1.3041
 1010SOL     ow 4037   4.709   4.178   2.212 -0.3852 -0.5122  0.1363
 1010SOL     hw 4038   4.711   4.117   2.138 -1.3918  0.2282 -0.5333
 1010SOL     hw 4039   4.628   4.157   2.258  0.0746 -0.7450  0.8430
 1010SOL     vw 4040   4.698   4.167   2.208 -0.4573 -0.4454  0.1413
 1011SOL     ow 4041   5.253   3.416   5.269  0.1397  0.3631 -0.4747
 1011SOL     hw 4042   5.274   3.382   5.182 -0.7607  0.5698 -0.7829
 1011SOL     hw 4043   5.177   3.472   5.255 -0.2071  0.1507  0.4926
 1011SOL     vw 4044   5.246   3.419   5.255 -0.0248  0.3624 -0.3879
 1012SOL     ow 4045   3.171   4.034   1.651  0.2014 -0.0347  0.0113
 1012SOL     hw 4046   3.195   4.002   1.565  3.2961 -0.2029  0.8145
 1012SOL     hw 4047   3.245   4.087   1.679  0.4125 -1.7968  3.4298
 1012SOL     vw 4048   3.184   4.037   1.644  0.6377 -0.2892  0.5683
 1013SOL     ow 4049   0.889   4.650   1.085 -0.1041 -0.1021  0.9131
 1013SOL     hw 4050   0.955   4.635   1.017 -1.4565  0.7211 -0.6325
 1013SOL     hw 4051   0.937   4.694   1.155  1.0572  0.2393 -0.0543
 1013SOL     vw 4052   0.904   4.653   1.085 -0.1293  0.0513  0.5815
 1014SOL     ow 4053   5.997   0.297   2.467 -0.2483  0.2898 -0.4018
 1014SOL     hw 4054   6.078   0.256   2.436 -0.7001 -1.5474  0.6598
 1014SOL     hw 4055   5.929   0.259   2.412 -0.5542  0.6241 -0.2568
 1014SOL     vw 4056   5.999   0.287   2.456 -0.3481  0.0915 -0.2426
 1015SOL     ow 4057   3.600   1.532   6.119  0.3756 -0.0026  0.0797
 1015SOL     hw 4058   3.679   1.498   6.161  0.5383 -1.3891 -1.2647
 1015SOL     hw 4059   3.575   1.607   6.172  2.1494 -0.0120  0.9917
 1015SOL     vw 4060   3.607   1.537   6.132  0.6311 -0.1867  0.0226
 1016SOL     ow 4061   2.196   3.038   0.553 -0.4950 -0.0332  0.3359
 1016SOL     hw 4062   2.265   3.075   0.498  2.3297 -1.8327  2.4197
 1016SOL     hw 4063   2.184   3.102   0.623 -1.1675  0.3941 -0.1588
 1016SOL     vw 4064   2.203   3.052   0.555 -0.2109 -0.2142  0.5456
 1017SOL     ow 4065   6.523   2.857   0.908  0.2563  0.5890 -0.8178
 1017SOL     hw 4066   6.528   2.862   1.003  0.7972 -0.6496 -0.7629
 1017SOL     hw 4067   6.568   2.775   0.885 -0.5135  0.4823 -2.0790
 1017SOL     vw 4068   6.529   2.847   0.917  0.2258  0.4115 -0.9770
 1018SOL     ow 4069   6.350   3.359   0.148  0.5180  0.3040  0.1729
 1018SOL     hw 4070   6.435   3.381   0.110  1.0253 -2.3871 -0.4469
 1018SOL     hw 4071   6.286   3.380   0.079  0.8446  0.7650  0.0072
 1018SOL     vw 4072   6.353   3.365   0.134  0.6280  0.0098  0.0693
 1019SOL     ow 4073   3.487   1.284   6.099 -0.4043 -0.2314 -0.0067
 1019SOL     hw 4074   3.394   1.285   6.123 -0.8576 -1.8078 -1.4810
 1019SOL     hw 4075   3.513   1.376   6.101 -1.7716  0.1654  1.2349
 1019SOL     vw 4076   3.478   1.297   6.102 -0.6446 -0.3870 -0.0374
 1020SOL     ow 4077   4.499   4.074   5.964 -0.0184  0.2109 -0.0611
 1020SOL     hw 4078   4.588   4.106   5.952  0.6551 -2.4320 -3.6472
 1020SOL     hw 4079   4.446   4.129   5.907 -0.0934 -0.2513 -0.4458
 1020SOL     vw 4080   4.504   4.085   5.955  0.0603 -0.1988 -0.5851
 1021SOL     ow 4081   0.342   7.149   3.691  0.1154  0.3249  0.1689
 1021SOL     hw 4082   0.351   7.131   3.785  1.6112  1.3863  0.2631
 1021SOL     hw 4083   0.310   7.239   3.687 -0.5917  0.0594 -0.3470
 1021SOL     vw 4084   0.339   7.159   3.703  0.2195  0.4299  0.1135
 1022SOL     ow 4085   6.242   6.216   0.880  0.5416  0.2615  0.0367
 1022SOL     hw 4086   6.229   6.254   0.967  0.8545 -2.5436  1.3996
 1022SOL     hw 4087   6.331   6.241   0.856  0.2841  1.4752  0.2489
 1022SOL     vw 4088   6.252   6.224   0.888  0.5488  0.0515  0.2445
 1023SOL     ow 4089   0.767   3.812   1.198 -0.0188  0.1187 -0.6105
 1023SOL     hw 4090   0.805   3.724   1.203  1.3242  0.6706 -0.4953
 1023SOL     hw 4091   0.746   3.825   1.106 -0.0002 -0.2379 -0.6627
 1023SOL     vw 4092   0.770   3.802   1.187  0.1608  0.1444 -0.6022
 1024SOL     ow 4093   5.450   2.907   2.143 -0.1166  0.2263 -0.0681
 1024SOL     hw 4094   5.429   2.942   2.056  0.4502  0.0079 -0.2998
 1024SOL     hw 4095   5.509   2.971   2.181 -0.8002  0.5934  0.3800
 1024SOL     vw 4096   5.455   2.920   2.136 -0.1321  0.2460 -0.0395
 1025SOL     ow 4097   1.657   2.508   4.542 -0.4710  0.0982 -0.2280
 1025SOL     hw 4098   1.626   2.486   4.454 -1.0729  0.9368 -0.2368
 1025SOL     hw 4099   1.735   2.454   4.554 -1.0890 -0.9500 -0.7934
 1025SOL     vw 4100   1.663   2.498   4.532 -0.6320  0.0705 -0.3037
 1026SOL     ow 4101   5.830   2.647   0.968  0.4716  0.0690 -0.2257
 1026SOL     hw 4102   5.743   2.687   0.959 -0.4142 -1.6282  0.4238
 1026SOL     hw 4103   5.850   2.654   1.062  1.4006  1.1113 -0.4757
 1026SOL     vw 4104   5.821   2.653   0.980  0.4771 -0.0174 -0.1730
 1027SOL     ow 4105   6.245   2.790   2.847  0.3697 -0.1265  0.3225
 1027SOL     hw 4106   6.223   2.791   2.940  0.9347 -0.0167  0.4573
 1027SOL     hw 4107   6.172   2.837   2.805  1.5185  2.4862  1.0405
 1027SOL     vw 4108   6.232   2.796   2.854  0.5958  0.2327  0.4351
 1028SOL     ow 4109   0.973   4.177   2.400 -0.3371  0.3834  0.2429
 1028SOL     hw 4110   1.041   4.243   2.409  1.4230 -1.3427  0.1335
 1028SOL     hw 4111   1.002   4.104   2.455 -1.6687 -0.7224 -0.4492
 1028SOL     vw 4112   0.986   4.176   2.408 -0.2806  0.0098  0.1373
 1029SOL     ow 4113   0.038   2.218   4.159 -0.9256 -0.2536 -0.0378
 1029SOL     hw 4114   0.129   2.215   4.188 -1.1435  0.9229  0.8382
 1029SOL     hw 4115   0.006   2.128   4.170  0.0569 -0.6241 -0.1502
 1029SOL     vw 4116   0.046   2.206   4.164 -0.8247 -0.1472  0.0629
 1030SOL     ow 4117   0.345   0.793   0.810 -0.5531  0.4088  0.1080
 1030SOL     hw 4118   0.323   0.700   0.814 -1.7065  0.6617 -0.0030
 1030SOL     hw 4119   0.278   0.831   0.753 -0.7622  1.4938  1.0344
 1030SOL     vw 4120   0.333   0.786   0.803 -0.7328  0.5853  0.2156
 1031SOL     ow 4121   3.350   7.147   6.121 -0.2670  0.1702 -0.3132
 1031SOL     hw 4122   3.355   7.181   6.032  0.7849 -1.3821 -0.8956
 1031SOL     hw 4123   3.261   7.114   6.129 -0.0257 -0.8059 -1.2721
 1031SOL     vw 4124   3.339   7.147   6.110 -0.0964 -0.1633 -0.5164
 1032SOL     ow 4125   1.661   0.976   6.624 -0.2116 -1.2712 -0.2937
 1032SOL     hw 4126   1.590   0.928   6.665 -1.6071 -0.2956 -1.4888
 1032SOL     hw 4127   1.622   1.058   6.596  2.0736  0.6181  1.6213
 1032SOL     vw 4128   1.647   0.980   6.626 -0.0942 -0.8932 -0.1986
 1033SOL     ow 4129   2.720   2.603   0.963  0.7832  0.0188  0.2014
 1033SOL     hw 4130   2.676   2.586   1.047  1.5734  0.9726  0.8285
 1033SOL     hw 4131   2.684   2.537   0.904 -0.8240  0.1885  0.9247
 1033SOL     vw 4132   2.709   2.592   0.966  0.6754  0.1670  0.3796
 1034SOL     ow 4133   4.962   5.843   1.466  0.6527 -0.1455 -0.0092
 1034SOL     hw 4134   4.938   5.873   1.378  1.2644 -0.8277 -0.4207
 1034SOL     hw 4135   4.889   5.872   1.521 -0.8269 -1.5441 -1.0962
 1034SOL     vw 4136   4.949   5.851   1.461  0.5383 -0.4201 -0.2069
 1035SOL     ow 4137   4.058   4.232   0.488  0.7176 -0.7347 -0.1611
 1035SOL     hw 4138   3.982   4.233   0.546  0.0788 -4.7528 -0.5987
 1035SOL     hw 4139   4.025   4.262   0.404 -0.0034 -0.9753  0.0318
 1035SOL     vw 4140   4.044   4.236   0.484  0.5383 -1.2965 -0.1934
 1036SOL     ow 4141   6.641   6.693   1.182 -0.1660 -0.0553 -0.2228
 1036SOL     hw 4142   6.674   6.684   1.272 -1.3675  3.0625  0.6805
 1036SOL     hw 4143   6.719   6.702   1.128  0.7417  3.7006  1.3930
 1036SOL     vw 4144   6.655   6.693   1.187 -0.2048  0.8519  0.1096
 1037SOL     ow 4145   5.574   2.683   5.370 -0.2826  0.1815  0.2345
 1037SOL     hw 4146   5.547   2.710   5.458 -0.0109 -1.0496  0.7168
 1037SOL     hw 4147   5.524   2.739   5.312 -0.8581  0.6691  1.1671
 1037SOL     vw 4148   5.564   2.694   5.374 -0.3223  0.0832  0.4210
 1038SOL     ow 4149   3.590   7.050   6.864 -0.6103  0.0726 -0.5722
 1038SOL     hw 4150   3.499   7.027   6.850 -0.5663 -0.2536 -0.3553
 1038SOL     hw 4151   3.627   7.060   6.777 -1.0490  1.0123 -0.6508
 1038SOL     vw 4152   3.583   7.048   6.851 -0.6624  0.1535 -0.5541
 1039SOL     ow 4153   3.074   0.970   2.423  0.4991  0.5610  0.3536
 1039SOL     hw 4154   3.004   1.011   2.372  0.0479  0.5312  0.9334
 1039SOL     hw 4155   3.107   0.899   2.368 -0.0268  0.4866  0.1364
 1039SOL     vw 4156   3.069   0.966   2.409  0.3700  0.5472  0.4015
 1040SOL     ow 4157   3.912   0.921   5.016 -0.8526 -0.5638  0.3585
 1040SOL     hw 4158   3.836   0.946   4.965  0.1380 -0.0436 -0.9262
 1040SOL     hw 4159   3.946   0.843   4.971  1.1517  1.0197 -1.0287
 1040SOL     vw 4160   3.907   0.914   5.003 -0.4574 -0.2862  0.0060
 1041SOL     ow 4161   3.841   2.794   7.084 -0.6372  0.3013 -0.5121
 1041SOL     hw 4162   3.936   2.791   7.077 -0.6673  2.0793 -2.8839
 1041SOL     hw 4163   3.813   2.704   7.067  0.5961 -0.4975  1.3761
 1041SOL     vw 4164   3.849   2.782   7.081 -0.4785  0.4306 -0.5758
 1042SOL     ow 4165   0.468   4.547   3.122 -0.0623  0.0730 -0.2720
 1042SOL     hw 4166   0.503   4.629   3.088 -0.1901  0.1719 -0.1675
 1042SOL     hw 4167   0.452   4.494   3.044 -2.4919  1.1344 -0.5901
 1042SOL     vw 4168   0.470   4.551   3.107 -0.3997  0.2260 -0.3003
 1043SOL     ow 4169   1.170   6.869   3.221 -0.3767 -0.2316 -0.5196
 1043SOL     hw 4170   1.214   6.916   3.150  1.9595 -1.5461 -0.0556
 1043SOL     hw 4171   1.132   6.938   3.275 -0.0495  0.9244 -1.6941
 1043SOL     vw 4172   1.171   6.885   3.218 -0.0253 -0.2525 -0.6133
 1044SOL     ow 4173   4.319   0.882   6.417  0.2102 -0.4053  0.1093
 1044SOL     hw 4174   4.258   0.812   6.442 -0.5945 -0.7998 -2.6091
 1044SOL     hw 4175   4.268   0.962   6.427 -0.3909 -0.6308 -0.9773
 1044SOL     vw 4176   4.304   0.883   6.422  0.0248 -0.4871 -0.3929
 1045SOL     ow 4177   3.571   3.221   4.521  0.1698 -0.2154 -0.0877
 1045SOL     hw 4178   3.509   3.212   4.593 -0.8050  3.6020 -0.2465
 1045SOL     hw 4179   3.519   3.207   4.442  0.5720 -1.4283 -0.1570
 1045SOL     vw 4180   3.556   3.218   4.520  0.0942  0.1281 -0.1180
 1046SOL     ow 4181   1.852   0.147   2.755 -0.0503  0.0306 -0.6077
 1046SOL     hw 4182   1.810   0.063   2.740 -0.0434 -0.3235  1.1783
 1046SOL     hw 4183   1.942   0.125   2.779 -0.2071  0.4962  0.4578
 1046SOL     vw 4184   1.858   0.133   2.756 -0.0700  0.0453 -0.2315
 1047SOL     ow 4185   4.675   6.535   0.463 -0.0032 -0.1620 -0.4190
 1047SOL     hw 4186   4.734   6.575   0.399  0.4311  0.9455  0.6205
 1047SOL     hw 4187   4.604   6.599   0.474  0.4053  0.1152  0.8496
 1047SOL     vw 4188   4.674   6.549   0.456  0.1080  0.0210 -0.1145
 1048SOL     ow 4189   7.076   2.821   6.281 -0.0850  0.2405  0.8956
 1048SOL     hw 4190   7.109   2.875   6.210 -1.5657  2.3307  1.6819
 1048SOL     hw 4191   7.024   2.754   6.238 -0.5553  1.1751 -0.0359
 1048SOL     vw 4192   7.074   2.819   6.266 -0.3424  0.6396  0.8762
 1049SOL     ow 4193   6.003   2.706   7.099 -0.8499  0.2096 -0.0847
 1049SOL     hw 4194   5.993   2.688   7.193 -1.6585 -2.5513 -0.6125
 1049SOL     hw 4195   6.074   2.649   7.072 -2.1679 -0.8195 -1.5471
 1049SOL     vw 4196   6.011   2.696   7.108 -1.1306 -0.2905 -0.3474
 1050SOL     ow 4197   1.165   3.218   6.876 -0.3288  0.0924 -0.0411
 1050SOL     hw 4198   1.205   3.149   6.930 -1.2781 -0.4246  0.0266
 1050SOL     hw 4199   1.211   3.213   6.792  1.3421  1.0691  0.7486
 1050SOL     vw 4200   1.177   3.208   6.872 -0.2337  0.1532  0.0722
 1051SOL     ow 4201   7.144   1.499   2.519 -0.0139 -0.1806  0.2031
 1051SOL     hw 4202   7.180   1.549   2.592  0.2178 -0.3837  0.2311
 1051SOL     hw 4203   7.164   1.408   2.541  0.8167 -0.1884 -0.5209
 1051SOL     vw 4204   7.152   1.494   2.531  0.1266 -0.2084  0.1113
 1052SOL     ow 4205   0.663   2.658   6.007 -0.6941 -0.2110  0.0376
 1052SOL     hw 4206   0.700   2.645   5.920 -2.1458 -2.2407 -0.3558
 1052SOL     hw 4207   0.729   2.620   6.066 -0.7837 -1.0700 -0.3988
 1052SOL     vw 4208   0.677   2.651   6.003 -0.8974 -0.5921 -0.0718
 1053SOL     ow 4209   0.032   5.955   1.644  0.2843 -0.0810 -0.1466
 1053SOL     hw 4210   0.083   5.950   1.563  0.2529 -3.3298 -0.1057
 1053SOL     hw 4211  -0.056   5.981   1.615 -0.5052 -3.7750 -1.7841
 1053SOL     vw 4212   0.027   5.958   1.629  0.1760 -0.9968 -0.3572
 1054SOL     ow 4213   3.752   2.867   2.864 -0.3704  0.0693 -0.0362
 1054SOL     hw 4214   3.796   2.859   2.780  1.2341  0.6071  0.7013
 1054SOL     hw 4215   3.703   2.786   2.874  0.5100 -0.5841 -0.8839
 1054SOL     vw 4216   3.751   2.856   2.855 -0.0424  0.0539 -0.0507
 1055SOL     ow 4217   5.810   5.024   5.364  0.4022  0.1025  0.3951
 1055SOL     hw 4218   5.811   4.929   5.350  0.9468  0.4478 -2.4607
 1055SOL     hw 4219   5.873   5.038   5.435  4.4629 -1.3305 -2.5553
 1055SOL     vw 4220   5.818   5.013   5.371  1.0099 -0.0410 -0.3710
 1056SOL     ow 4221   2.332   2.827   1.154  0.2903 -0.3092  0.3300
 1056SOL     hw 4222   2.328   2.741   1.111 -2.0064 -0.3475  0.4968
 1056SOL     hw 4223   2.375   2.809   1.238 -0.3188 -1.3461  0.4372
 1056SOL     vw 4224   2.337   2.813   1.160 -0.0931 -0.4512  0.3662
 1057SOL     ow 4225   0.655   5.201   0.218  0.0950 -0.0025 -0.2161
 1057SOL     hw 4226   0.609   5.177   0.137  1.5570  0.1110 -1.1125
 1057SOL     hw 4227   0.690   5.119   0.251 -0.4548 -0.0398  0.2908
 1057SOL     vw 4228   0.654   5.187   0.211  0.2154  0.0074 -0.2675
 1058SOL     ow 4229   0.841   2.728   3.054  0.0189  0.3400 -0.3289
 1058SOL     hw 4230   0.754   2.696   3.028 -0.0450 -1.2180  1.5215
 1058SOL     hw 4231   0.836   2.733   3.150  1.9348  0.3938 -0.2025
 1058SOL     vw 4232   0.829   2.725   3.063  0.2633  0.1415 -0.0681
 1059SOL     ow 4233   6.415   5.158   2.291  0.3432 -0.5099  0.3963
 1059SOL     hw 4234   6.426   5.109   2.373 -1.9687  0.2296  1.2350
 1059SOL     hw 4235   6.357   5.231   2.314  1.8807  1.3620 -1.3156
 1059SOL     vw 4236   6.409   5.161   2.305  0.2406 -0.1655  0.2811
 1060SOL     ow 4237   1.992   0.883   0.136 -0.4598 -0.2909 -0.0203
 1060SOL     hw 4238   2.051   0.952   0.165  1.7949 -1.1124 -2.2948
 1060SOL     hw 4239   1.912   0.930   0.110  0.2875  1.2127  0.2983
 1060SOL     vw 4240   1.989   0.898   0.136 -0.0637 -0.2009 -0.2784
 1061SOL     ow 4241   2.308   4.832   6.556 -0.1284 -0.1486  0.4067
 1061SOL     hw 4242   2.260   4.812   6.636  0.1002  0.6666  0.7528
 1061SOL     hw 4243   2.323   4.746   6.515 -0.4509 -0.5476  1.1132
 1061SOL     vw 4244   2.304   4.818   6.561 -0.1408 -0.0939  0.5457
 1062SOL     ow 4245   3.966   4.644   0.999 -0.2883 -0.1192  0.1920
 1062SOL     hw 4246   4.024   4.612   0.929  0.4671 -2.4204  1.7432
 1062SOL     hw 4247   3.929   4.725   0.964  1.7511  0.0018 -1.9699
 1062SOL     vw 4248   3.969   4.651   0.985  0.0805 -0.4067  0.1115
 1063SOL     ow 4249   6.467   2.741   3.747 -0.6841 -0.7498  0.0915
 1063SOL     hw 4250   6.549   2.742   3.697  0.6102 -0.5330  2.1178
 1063SOL     hw 4251   6.415   2.672   3.705  1.1748 -2.0004 -0.3003
 1063SOL     vw 4252   6.471   2.732   3.735 -0.2680 -0.8862  0.3071
 1064SOL     ow 4253   3.293   5.801   5.804  0.1168  0.5120 -0.0841
 1064SOL     hw 4254   3.204   5.798   5.768 -0.5190  1.3990  1.3594
 1064SOL     hw 4255   3.334   5.877   5.762  0.1681  0.1661 -0.6676
 1064SOL     vw 4256   3.287   5.811   5.794  0.0397  0.5834  0.0293
 1065SOL     ow 4257   2.568   3.289   1.110  0.1699 -0.1022  0.0297
 1065SOL     hw 4258   2.554   3.266   1.018 -0.9799 -0.5023  0.2921
 1065SOL     hw 4259   2.573   3.385   1.110 -1.2220 -0.0061 -0.2912
 1065SOL     vw 4260   2.567   3.299   1.098 -0.1655 -0.1422  0.0220
 1066SOL     ow 4261   2.281   1.069   0.504 -0.5348  0.2270 -0.0839
 1066SOL     hw 4262   2.365   1.107   0.476 -1.1317 -0.7820 -3.7561
 1066SOL     hw 4263   2.218   1.141   0.494 -0.5242  0.2734  0.1723
 1066SOL     vw 4264   2.284   1.084   0.499 -0.6123  0.1000 -0.5347
 1067SOL     ow 4265   3.288   1.651   0.414  0.9400  0.2271 -0.1107
 1067SOL     hw 4266   3.228   1.581   0.440 -0.3016  0.2913 -2.4721
 1067SOL     hw 4267   3.241   1.732   0.432  1.1265  0.3443 -0.1474
 1067SOL     vw 4268   3.274   1.652   0.419  0.8006  0.2511 -0.4271
 1068SOL     ow 4269   1.592   5.471   1.425 -0.0739 -0.1519 -0.0596
 1068SOL     hw 4270   1.615   5.562   1.406  0.2910 -0.0824  0.6892
 1068SOL     hw 4271   1.525   5.449   1.360 -0.0009  0.5748 -0.3907
 1068SOL     vw 4272   1.586   5.480   1.414 -0.0162 -0.0467 -0.0045
 1069SOL     ow 4273   1.516   4.769   0.359 -0.4898 -0.4328  0.1003
 1069SOL     hw 4274   1.522   4.706   0.287  2.1538 -1.0868  0.7583
 1069SOL     hw 4275   1.604   4.769   0.398 -1.5926  0.4450  2.8654
 1069SOL     vw 4276   1.528   4.761   0.355 -0.2865 -0.4032  0.5519
 1070SOL     ow 4277   6.858   2.679   2.913 -0.0361 -0.3500  0.4046
 1070SOL     hw 4278   6.938   2.666   2.963  0.8982 -0.7309 -1.1296
 1070SOL     hw 4279   6.853   2.603   2.855 -0.5689  0.5187 -0.7286
 1070SOL     vw 4280   6.868   2.667   2.912  0.0169 -0.2856  0.0527
 1071SOL     ow 4281   7.114   6.205   0.276  0.1830 -0.0566 -0.6095
 1071SOL     hw 4282   7.205   6.223   0.253  0.4905 -0.6680  0.0984
 1071SOL     hw 4283   7.108   6.226   0.369  0.0321 -1.5506 -0.2487
 1071SOL     vw 4284   7.125   6.210   0.286  0.2034 -0.3345 -0.4685
 1072SOL     ow 4285   7.120   6.883   4.501 -0.1916  0.4335  0.0567
 1072SOL     hw 4286   7.144   6.909   4.590  1.8124 -0.4987 -0.1566
 1072SOL     hw 4287   7.188   6.921   4.446 -0.7842  0.0436 -0.9731
 1072SOL     vw 4288   7.132   6.892   4.506 -0.0052  0.2589 -0.1070
 1073SOL     ow 4289   3.288   5.035   3.964  0.3825 -0.1397 -0.5541
 1073SOL     hw 4290   3.244   4.970   3.909  0.9288 -1.8098  0.8753
 1073SOL     hw 4291   3.332   4.983   4.032 -2.8347  1.7490  3.4365
 1073SOL     vw 4292   3.288   5.020   3.966  0.0299 -0.1109  0.1612
 1074SOL     ow 4293   1.429   1.363   5.812  0.0069 -0.5110 -0.1335
 1074SOL     hw 4294   1.374   1.329   5.883 -0.7573  0.7547 -0.1016
 1074SOL     hw 4295   1.370   1.417   5.760  0.5281 -1.4978 -1.8274
 1074SOL     vw 4296   1.414   1.366   5.814 -0.0252 -0.4742 -0.3526
 1075SOL     ow 4297   7.065   1.544   1.981 -0.1734  0.2806  0.0476
 1075SOL     hw 4298   7.081   1.611   2.048  0.7009 -0.3378  0.4746
 1075SOL     hw 4299   7.002   1.484   2.021 -0.7884  0.7084 -0.2534
 1075SOL     vw 4300   7.059   1.545   1.995 -0.1392  0.2555  0.0643
 1076SOL     ow 4301   3.174   3.950   0.921  0.7953  0.0491 -0.1301
 1076SOL     hw 4302   3.116   4.014   0.881  2.5866  0.7392 -1.8340
 1076SOL     hw 4303   3.200   3.989   1.004  0.6454  0.8274 -0.4401
 1076SOL     vw 4304   3.170   3.963   0.926  1.0118  0.2428 -0.3958
 1077SOL     ow 4305   5.932   5.746   4.009  0.1526  0.4387  0.8706
 1077SOL     hw 4306   5.936   5.824   3.953 -2.0832 -0.7133 -1.0688
 1077SOL     hw 4307   5.856   5.760   4.065 -1.3399 -0.9966 -0.6914
 1077SOL     vw 4308   5.922   5.758   4.009 -0.3395  0.0973  0.4089
 1078SOL     ow 4309   6.261   4.891   0.464  0.2254 -0.5732  0.8080
 1078SOL     hw 4310   6.261   4.947   0.386 -0.5553  1.9697  2.4937
 1078SOL     hw 4311   6.344   4.843   0.459  0.5031  0.0071 -1.2147
 1078SOL     vw 4312   6.272   4.892   0.453  0.1593 -0.1612  0.7636
 1079SOL     ow 4313   5.547   4.529   1.603 -0.0405 -0.1003 -0.6358
 1079SOL     hw 4314   5.630   4.575   1.591 -0.0967  1.5794  3.7315
 1079SOL     hw 4315   5.480   4.595   1.585 -0.2586 -0.0181  0.4055
 1079SOL     vw 4316   5.549   4.544   1.599 -0.0763  0.1326  0.0778
 1080SOL     ow 4317   6.738   4.486   6.118 -0.7212  0.7364 -0.5166
 1080SOL     hw 4318   6.684   4.511   6.044 -3.2870  1.8081  1.5534
 1080SOL     hw 4319   6.682   4.428   6.170  1.4848 -1.1266 -0.0599
 1080SOL     vw 4320   6.724   4.482   6.115 -0.7687  0.6318 -0.1833
 1081SOL     ow 4321   2.338   1.661   4.203  0.1416 -0.7177  0.3552
 1081SOL     hw 4322   2.421   1.627   4.238  0.1389 -0.5047  0.5707
 1081SOL     hw 4323   2.324   1.743   4.250  0.3182 -0.2402 -0.4170
 1081SOL     vw 4324   2.347   1.667   4.214  0.1644 -0.6266  0.2818
 1082SOL     ow 4325   6.637   1.924   3.547 -0.1212  1.0113  0.2884
 1082SOL     hw 4326   6.564   1.981   3.524 -0.8601  0.3078  0.8117
 1082SOL     hw 4327   6.652   1.871   3.469 -1.2144  0.0936  0.6710
 1082SOL     vw 4328   6.630   1.924   3.534 -0.3629  0.7975  0.4079
 1083SOL     ow 4329   5.812   0.891   1.918 -0.3702 -0.4732 -0.2176
 1083SOL     hw 4330   5.801   0.823   1.985 -1.5305 -0.6143 -0.5413
 1083SOL     hw 4331   5.900   0.875   1.883  1.2282  0.9343  2.7031
 1083SOL     vw 4332   5.822   0.880   1.922 -0.3121 -0.3062  0.1251
 1084SOL     ow 4333   0.877   5.532   5.323  0.6251  0.0407  0.1301
 1084SOL     hw 4334   0.953   5.484   5.289  0.4277  1.4403 -2.4797
 1084SOL     hw 4335   0.914   5.588   5.392  1.9922  0.6485 -1.0406
 1084SOL     vw 4336   0.892   5.533   5.328  0.7794  0.3057 -0.3691
 1085SOL     ow 4337   5.798   1.463   5.054 -0.8927  0.3015 -0.3038
 1085SOL     hw 4338   5.834   1.390   5.105  0.3499  1.9599  1.3525
 1085SOL     hw 4339   5.704   1.456   5.065 -0.7379 -0.3953  0.8424
 1085SOL     vw 4340   5.791   1.452   5.062 -0.7083  0.4283  0.0658
 1086SOL     ow 4341   1.616   3.283   1.139 -0.0770  1.0137 -0.0421
 1086SOL     hw 4342   1.651   3.205   1.096  1.0768  1.5358 -0.0917
 1086SOL     hw 4343   1.527   3.292   1.104 -0.6699 -0.9159  0.8230
 1086SOL     vw 4344   1.609   3.274   1.129 -0.0030  0.8280  0.0655
 1087SOL     ow 4345   5.686   4.432   5.057  0.1257  0.3660  0.5697
 1087SOL     hw 4346   5.775   4.423   5.091  0.0111 -2.0243  0.4362
 1087SOL     hw 4347   5.630   4.435   5.135  0.3140  2.7019  0.6790
 1087SOL     vw 4348   5.690   4.431   5.072  0.1352  0.3591  0.5665
 1088SOL     ow 4349   3.155   6.040   6.754 -0.5635  0.3512  0.4126
 1088SOL     hw 4350   3.157   6.040   6.658  1.2812  0.7031  0.4123
 1088SOL     hw 4351   3.083   5.981   6.776  0.0676 -1.1130 -1.1953
 1088SOL     vw 4352   3.146   6.032   6.744 -0.2367  0.2041  0.2003
 1089SOL     ow 4353   5.309   6.671   4.336 -0.4044  0.6616  0.7025
 1089SOL     hw 4354   5.347   6.586   4.359  0.8855  0.1020 -2.8854
 1089SOL     hw 4355   5.218   6.652   4.313 -0.0683  0.1956 -0.2637
 1089SOL     vw 4356   5.302   6.658   4.336 -0.1903  0.5264  0.1016
 1090SOL     ow 4357   2.413   5.291   6.462  0.0162 -0.0232 -0.1968
 1090SOL     hw 4358   2.344   5.308   6.397  1.2371  1.6395 -1.1430
 1090SOL     hw 4359   2.397   5.354   6.532  0.4398  0.2385 -0.3288
 1090SOL     vw 4360   2.402   5.301   6.463  0.2332  0.2306 -0.3393
 1091SOL     ow 4361   6.745   4.501   5.322  0.2385 -0.3982 -0.1487
 1091SOL     hw 4362   6.728   4.418   5.277  1.3143  0.2580 -1.8697
 1091SOL     hw 4363   6.838   4.517   5.309 -0.0175  1.2567 -0.1851
 1091SOL     vw 4364   6.755   4.492   5.314  0.3464 -0.0930 -0.3805
 1092SOL     ow 4365   6.931   0.446   6.725 -0.3479  0.2313 -0.3882
 1092SOL     hw 4366   6.841   0.442   6.693 -0.2823 -2.6445 -0.5080
 1092SOL     hw 4367   6.929   0.398   6.808  1.2805 -1.1859 -1.0957
 1092SOL     vw 4368   6.919   0.439   6.731 -0.1247 -0.3351 -0.4973
 1093SOL     ow 4369   4.643   5.836   3.153  0.4566 -0.1154  0.0100
 1093SOL     hw 4370   4.565   5.887   3.174  1.1877  1.0870 -0.0948
 1093SOL     hw 4371   4.636   5.757   3.207 -1.4898 -0.7099 -0.9985
 1093SOL     vw 4372   4.632   5.832   3.163  0.2961 -0.0350 -0.1369
 1094SOL     ow 4373   2.239   5.952   2.147  0.1231  0.1888  0.0044
 1094SOL     hw 4374   2.198   5.962   2.233  1.6932 -1.0077  0.9549
 1094SOL     hw 4375   2.192   5.879   2.106  0.5212 -0.4203  0.6110
 1094SOL     vw 4376   2.227   5.944   2.153  0.3828 -0.0494  0.2098
 1095SOL     ow 4377   4.486   1.542   3.644 -0.8310 -0.6074 -0.2797
 1095SOL     hw 4378   4.445   1.617   3.601 -2.4091 -0.3788  1.4734
 1095SOL     hw 4379   4.494   1.475   3.576 -0.3446  0.7678 -1.6263
 1095SOL     vw 4380   4.482   1.543   3.630 -0.9751 -0.3957 -0.2260
 1096SOL     ow 4381   5.009   4.830   2.979  0.6097 -0.5252  0.2842
 1096SOL     hw 4382   4.970   4.852   3.063  2.2544  1.5458  0.5901
 1096SOL     hw 4383   5.059   4.750   2.996 -0.8842 -1.4412  0.6304
 1096SOL     vw 4384   5.010   4.822   2.992  0.6297 -0.3729  0.3704
 1097SOL     ow 4385   3.519   6.496   5.093 -0.6006  0.0272 -0.1774
 1097SOL     hw 4386   3.513   6.403   5.075 -0.0789 -0.3574  1.4145
 1097SOL     hw 4387   3.611   6.518   5.077 -0.7179  0.2630 -0.5336
 1097SOL     vw 4388   3.530   6.487   5.089 -0.5473  0.0076 -0.0143
 1098SOL     ow 4389   6.513   6.949   1.114  0.2377  0.1502  0.4640
 1098SOL     hw 4390   6.511   6.999   1.033 -2.7459  0.5429  0.6520
 1098SOL     hw 4391   6.572   6.999   1.171  2.7872 -0.4058 -1.5101
 1098SOL     vw 4392   6.520   6.962   1.111  0.1805  0.1283  0.2283
 1099SOL     ow 4393   0.714   3.131   4.958  0.0599  0.4580  0.7226
 1099SOL     hw 4394   0.766   3.057   4.989  0.5611  1.1728  1.6538
 1099SOL     hw 4395   0.712   3.121   4.863  2.1857  0.5629  0.6165
 1099SOL     vw 4396   0.721   3.120   4.949  0.4065  0.5662  0.8316
 1100SOL     ow 4397   4.578   0.893   6.288  0.1628  0.1784  0.0138
 1100SOL     hw 4398   4.554   0.962   6.226  0.8255  1.1392  0.7995
 1100SOL     hw 4399   4.628   0.938   6.356  1.0360 -1.1645  0.2939
 1100SOL     vw 4400   4.581   0.908   6.289  0.3655  0.1280  0.1545
 1101SOL     ow 4401   7.032   2.851   2.755  0.3457 -0.1556 -0.2354
 1101SOL     hw 4402   7.078   2.798   2.690 -0.1507  2.2314 -2.7305
 1101SOL     hw 4403   7.100   2.876   2.817  1.3909 -0.5860 -1.1563
 1101SOL     vw 4404   7.047   2.847   2.754  0.4182  0.1026 -0.6860
 1102SOL     ow 4405   0.308   4.535   5.580  0.0570  0.3033  0.1925
 1102SOL     hw 4406   0.245   4.474   5.620  0.3910  0.3918  0.8757
 1102SOL     hw 4407   0.393   4.504   5.612  0.2433  1.0141  0.3893
 1102SOL     vw 4408   0.311   4.523   5.590  0.1256  0.4086  0.3088
 1103SOL     ow 4409   2.500   5.808   2.105 -0.1810 -0.4920  0.3983
 1103SOL     hw 4410   2.543   5.747   2.044 -1.4953 -0.8386 -0.2296
 1103SOL     hw 4411   2.436   5.754   2.151 -3.1924  0.7683 -1.9629
 1103SOL     vw 4412   2.497   5.793   2.103 -0.7517 -0.3715  0.0038
 1104SOL     ow 4413   1.974   2.243   1.514 -0.3777  0.0204  0.3222
 1104SOL     hw 4414   1.924   2.161   1.512 -2.1175  1.0195 -1.5890
 1104SOL     hw 4415   2.046   2.228   1.453 -0.6394 -0.1503  0.0468
 1104SOL     vw 4416   1.977   2.230   1.506 -0.6419  0.1298  0.0337
 1105SOL     ow 4417   0.865   5.923   0.653 -0.1660  0.4931 -0.6884
 1105SOL     hw 4418   0.880   5.903   0.561 -2.6087  0.3451 -1.1459
 1105SOL     hw 4419   0.841   5.839   0.692  1.4040  0.4469  0.2501
 1105SOL     vw 4420   0.864   5.909   0.646 -0.2812  0.4673 -0.6249
 1106SOL     ow 4421   1.524   2.597   4.834 -0.0311 -0.0988  0.6252
 1106SOL     hw 4422   1.560   2.667   4.888  1.9412 -0.0928 -0.6081
 1106SOL     hw 4423   1.560   2.517   4.872 -1.7088 -0.4406  1.5931
 1106SOL     vw 4424   1.533   2.596   4.846  0.0078 -0.1431  0.5898
 1107SOL     ow 4425   3.809   3.005   5.912  0.1598 -0.5117 -0.1809
 1107SOL     hw 4426   3.768   2.995   5.826 -1.6255  0.4993  0.5083
 1107SOL     hw 4427   3.864   3.083   5.903 -1.1094  0.4296 -0.0551
 1107SOL     vw 4428   3.811   3.014   5.899 -0.2431 -0.2542 -0.0732
 1108SOL     ow 4429   1.621   0.285   3.536 -0.8496  0.0921  0.4846
 1108SOL     hw 4430   1.600   0.361   3.591 -2.6000 -1.3359  1.9264
 1108SOL     hw 4431   1.695   0.244   3.580  1.3594  1.9046 -1.3399
 1108SOL     vw 4432   1.628   0.290   3.549 -0.7892  0.1429  0.4340
 1109SOL     ow 4433   6.888   0.627   1.730 -0.0652  0.1631 -0.7795
 1109SOL     hw 4434   6.956   0.692   1.712 -0.5249  0.8082 -0.2283
 1109SOL     hw 4435   6.926   0.572   1.799 -0.3607  0.9517  0.0275
 1109SOL     vw 4436   6.902   0.628   1.737 -0.1647  0.3523 -0.6004
 1110SOL     ow 4437   1.674   0.498   4.335 -0.0287  0.5479 -0.4074
 1110SOL     hw 4438   1.764   0.467   4.341  0.0904  0.3704 -2.4134
 1110SOL     hw 4439   1.649   0.518   4.425  1.4460 -0.9802  0.3910
 1110SOL     vw 4440   1.683   0.496   4.347  0.1816  0.3229 -0.5670
 1111SOL     ow 4441   2.134   0.932   0.715 -0.5753 -0.7286 -0.2642
 1111SOL     hw 4442   2.148   1.007   0.657 -1.6709 -0.8425 -0.6990
 1111SOL     hw 4443   2.217   0.923   0.763  0.0782 -0.1605 -1.2514
 1111SOL     vw 4444   2.147   0.941   0.714 -0.6336 -0.6686 -0.4518
 1112SOL     ow 4445   6.658   0.703   1.880 -0.3157 -0.9791 -0.2808
 1112SOL     hw 4446   6.594   0.750   1.934  0.6590  1.4895 -1.1325
 1112SOL     hw 4447   6.727   0.679   1.942  0.4924  1.2668 -0.2040
 1112SOL     vw 4448   6.659   0.706   1.895 -0.0803 -0.3571 -0.3831
 1113SOL     ow 4449   3.437   4.419   5.586  0.1615  0.2815 -0.5745
 1113SOL     hw 4450   3.397   4.501   5.557  0.5439  0.2189 -1.3253
 1113SOL     hw 4451   3.372   4.379   5.643  1.0999  2.4698  2.2504
 1113SOL     vw 4452   3.424   4.425   5.589  0.3358  0.5622 -0.3011
 1114SOL     ow 4453   4.834   0.149   4.893 -0.2842 -0.5633 -0.1611
 1114SOL     hw 4454   4.753   0.168   4.846 -1.8008 -2.7979  1.3383
 1114SOL     hw 4455   4.892   0.109   4.828 -1.4667 -1.5078 -0.6601
 1114SOL     vw 4456   4.831   0.146   4.878 -0.6404 -0.9827 -0.0293
 1115SOL     ow 4457   3.903   0.984   0.396 -0.7878  0.1897 -0.8380
 1115SOL     hw 4458   3.915   1.063   0.344 -0.8753 -0.1137 -1.3300
 1115SOL     hw 4459   3.819   0.948   0.365 -1.3129  0.5099  0.1809
 1115SOL     vw 4460   3.893   0.990   0.385 -0.8686  0.1919 -0.7685
 1116SOL     ow 4461   1.144   1.817   0.195  0.4189 -0.4517 -0.0147
 1116SOL     hw 4462   1.206   1.774   0.137 -1.1339 -0.1253 -2.0034
 1116SOL     hw 4463   1.151   1.910   0.174 -1.4965 -0.5124 -1.0953
 1116SOL     vw 4464   1.153   1.824   0.185 -0.0387 -0.4166 -0.4196
 1117SOL     ow 4465   4.542   0.128   3.314  0.2552 -0.0199  0.7037
 1117SOL     hw 4466   4.534   0.220   3.289 -1.5642 -0.0805  0.8808
 1117SOL     hw 4467   4.589   0.087   3.242 -0.0667  0.8113  0.0013
 1117SOL     vw 4468   4.547   0.135   3.301 -0.0274  0.0817  0.6343
 1118SOL     ow 4469   6.997   3.334   6.867 -0.1156  0.1809  0.4017
 1118SOL     hw 4470   7.056   3.292   6.930  1.8800  0.7893 -0.9783
 1118SOL     hw 4471   6.933   3.381   6.921 -1.0072 -2.5936  1.9861
 1118SOL     vw 4472   6.996   3.334   6.883  0.0303 -0.1048  0.4289
 1119SOL     ow 4473   0.324   0.579   5.932 -0.1413  0.1535  0.7576
 1119SOL     hw 4474   0.316   0.591   6.027  0.7498  0.5310  0.7906
 1119SOL     hw 4475   0.376   0.654   5.903 -0.2891 -0.0396 -0.0089
 1119SOL     vw 4476   0.330   0.591   5.941 -0.0432  0.1778  0.6607
 1120SOL     ow 4477   0.500   5.288   2.933  0.1713  0.2761  0.0190
 1120SOL     hw 4478   0.421   5.307   2.983 -0.1283  2.5000 -1.1601
 1120SOL     hw 4479   0.519   5.196   2.952 -2.8137 -0.4105  0.1642
 1120SOL     vw 4480   0.492   5.279   2.942 -0.2621  0.4790 -0.1174
 1121SOL     ow 4481   3.296   4.731   1.620  0.1423 -0.0313  0.3539
 1121SOL     hw 4482   3.387   4.740   1.647  0.3776 -0.0759 -0.4108
 1121SOL     hw 4483   3.296   4.659   1.557 -0.0859  1.1957 -1.1188
 1121SOL     vw 4484   3.308   4.723   1.615  0.1433  0.1247  0.0587
 1122SOL     ow 4485   3.280   6.671   1.207  0.2250 -0.2812  0.3837
 1122SOL     hw 4486   3.371   6.643   1.208  0.2536 -0.2688 -0.6333
 1122SOL     hw 4487   3.243   6.628   1.129 -1.2704 -2.2305  2.0584
 1122SOL     vw 4488   3.287   6.662   1.197  0.0315 -0.5369  0.4705
 1123SOL     ow 4489   0.375   5.928   6.260 -0.7545 -0.8553  0.3175
 1123SOL     hw 4490   0.399   5.936   6.352  0.8719  2.0808 -0.2261
 1123SOL     hw 4491   0.439   5.868   6.223 -0.0916 -0.4123  0.7281
 1123SOL     vw 4492   0.387   5.921   6.267 -0.4525 -0.4096  0.2999
 1124SOL     ow 4493   3.826   1.282   1.345 -0.4460 -0.6923  0.4631
 1124SOL     hw 4494   3.776   1.215   1.392  0.8256 -0.7608  1.7978
 1124SOL     hw 4495   3.829   1.356   1.407  0.7766 -0.5610  0.2599
 1124SOL     vw 4496   3.820   1.283   1.360 -0.1168 -0.6841  0.6124
 1125SOL     ow 4497   6.862   5.363   1.536 -0.3224 -0.1095  0.1586
 1125SOL     hw 4498   6.871   5.306   1.613 -0.3354 -1.4812 -0.8098
 1125SOL     hw 4499   6.949   5.360   1.495 -0.1780  1.0022  0.3657
 1125SOL     vw 4500   6.875   5.355   1.541 -0.3052 -0.1435  0.0581
 1126SOL     ow 4501   2.514   1.091   3.449 -0.7624 -0.0071  0.0742
 1126SOL     hw 4502   2.501   1.090   3.354  0.5709 -1.7673 -0.1333
 1126SOL     hw 4503   2.511   1.184   3.472 -1.5277  0.4246 -1.6213
 1126SOL     vw 4504   2.512   1.103   3.440 -0.6874 -0.1824 -0.1768
 1127SOL     ow 4505   0.159   1.495   2.997 -0.1130 -0.1924  0.0541
 1127SOL     hw 4506   0.075   1.464   3.032 -0.6678  0.7694 -0.3893
 1127SOL     hw 4507   0.201   1.416   2.962 -0.4987 -0.8032  0.9387
 1127SOL     vw 4508   0.153   1.480   2.997 -0.2371 -0.1461  0.1123
 1128SOL     ow 4509   7.105   3.331   3.638 -0.5028 -0.4480  0.3158
 1128SOL     hw 4510   7.026   3.306   3.687 -0.2275 -4.4161 -0.8740
 1128SOL     hw 4511   7.159   3.252   3.639  1.6832  0.8764 -2.2190
 1128SOL     vw 4512   7.101   3.317   3.644 -0.1781 -0.7968 -0.1757
 1129SOL     ow 4513   0.504   5.839   4.814  0.2015  0.3907 -0.0881
 1129SOL     hw 4514   0.443   5.768   4.798  1.5389 -0.6655 -0.6339
 1129SOL     hw 4515   0.498   5.894   4.736  0.0584  0.2269 -0.1931
 1129SOL     vw 4516   0.495   5.837   4.802  0.3591  0.2296 -0.1740
 1130SOL     ow 4517   2.638   5.642   1.888 -0.0633 -0.2130 -0.4023
 1130SOL     hw 4518   2.595   5.568   1.846 -0.3531  0.8948 -2.2031
 1130SOL     hw 4519   2.643   5.709   1.819  2.2450  0.6295  0.4654
 1130SOL     vw 4520   2.633   5.641   1.873  0.2029  0.0443 -0.5254
 1131SOL     ow 4521   0.063   1.728   5.762 -0.0196 -0.9051 -0.0877
 1131SOL     hw 4522   0.055   1.694   5.851 -4.1261 -0.0513  0.0701
 1131SOL     hw 4523   0.042   1.654   5.706 -0.7313 -0.6971 -0.1178
 1131SOL     vw 4524   0.059   1.714   5.767 -0.6553 -0.7650 -0.0706
 1132SOL     ow 4525   4.768   1.332   1.799  0.5183  0.0290  0.3287
 1132SOL     hw 4526   4.859   1.321   1.772  0.0591  0.3081 -1.4708
 1132SOL     hw 4527   4.733   1.399   1.740 -1.6945 -2.2817 -1.1904
 1132SOL     vw 4528   4.775   1.339   1.788  0.1657 -0.2390 -0.1091
 1133SOL     ow 4529   0.936   6.240   1.059  0.0421  0.1388 -0.0555
 1133SOL     hw 4530   0.863   6.179   1.050  2.1833 -2.6336 -0.0981
 1133SOL     hw 4531   0.985   6.230   0.977  1.3440  0.6260  0.6403
 1133SOL     vw 4532   0.933   6.230   1.047  0.4964 -0.1624  0.0306
 1134SOL     ow 4533   2.269   2.626   5.118  0.0509  0.8507 -0.1062
 1134SOL     hw 4534   2.350   2.661   5.082 -0.7208  4.0386  0.9250
 1134SOL     hw 4535   2.201   2.659   5.059 -0.5698 -1.8833 -1.0356
 1134SOL     vw 4536   2.270   2.635   5.105 -0.1329  0.9105 -0.0932
 1135SOL     ow 4537   0.489   1.525   0.807 -0.2020 -0.0128 -0.3850
 1135SOL     hw 4538   0.571   1.495   0.768  1.7919  3.6810  0.4817
 1135SOL     hw 4539   0.488   1.485   0.893  0.8945  0.1113 -0.2915
 1135SOL     vw 4540   0.500   1.516   0.813  0.2058  0.4910 -0.2583
 1136SOL     ow 4541   2.843   4.645   5.672  0.3010  0.8969 -0.0236
 1136SOL     hw 4542   2.768   4.640   5.612  1.2537  0.5672 -1.2168
 1136SOL     hw 4543   2.911   4.593   5.630  0.9326  0.4636  1.4701
 1136SOL     vw 4544   2.842   4.638   5.658  0.5101  0.7963  0.0160
 1137SOL     ow 4545   5.761   4.130   5.008 -0.0315 -0.0387  0.6382
 1137SOL     hw 4546   5.803   4.098   4.928  1.6235  1.8335  0.6855
 1137SOL     hw 4547   5.757   4.054   5.066 -0.3717 -1.1998 -0.8353
 1137SOL     vw 4548   5.766   4.116   5.005  0.1419  0.0548  0.4499
 1138SOL     ow 4549   3.331   6.090   1.127  0.9143 -0.6802  0.6807
 1138SOL     hw 4550   3.269   6.044   1.183  0.5699 -0.9629  0.0788
 1138SOL     hw 4551   3.295   6.177   1.116 -0.0118 -1.2074 -0.6389
 1138SOL     vw 4552   3.318   6.095   1.133  0.7466 -0.7873  0.4272
 1139SOL     ow 4553   0.205   6.222   5.612  0.6349 -0.2206 -0.0026
 1139SOL     hw 4554   0.288   6.253   5.647  0.5672 -0.7671  0.6646
 1139SOL     hw 4555   0.150   6.300   5.607  1.1166  0.1027 -0.2462
 1139SOL     vw 4556   0.209   6.236   5.616  0.6895 -0.2503  0.0534
 1140SOL     ow 4557   6.735   5.727   2.524 -0.1099 -0.2151 -0.6136
 1140SOL     hw 4558   6.816   5.776   2.537  1.3657 -2.9110  1.4762
 1140SOL     hw 4559   6.719   5.686   2.609 -2.0989 -2.0399 -1.7748
 1140SOL     vw 4560   6.744   5.728   2.537 -0.1776 -0.8116 -0.4911
 1141SOL     ow 4561   6.589   0.998   0.487 -0.1556  0.2993  0.0957
 1141SOL     hw 4562   6.553   0.949   0.413  0.2644 -1.5317  1.0423
 1141SOL     hw 4563   6.528   0.979   0.559  0.3226  0.7463  0.6239
 1141SOL     vw 4564   6.576   0.989   0.487 -0.0367  0.1167  0.2903
 1142SOL     ow 4565   1.670   0.423   3.110  0.5563 -0.3092 -0.0015
 1142SOL     hw 4566   1.649   0.514   3.090 -2.4979 -1.2222 -1.5750
 1142SOL     hw 4567   1.665   0.378   3.025  1.3055 -2.0455  0.8304
 1142SOL     vw 4568   1.666   0.429   3.096  0.2521 -0.6588 -0.0994
 1143SOL     ow 4569   1.356   4.488   2.009 -0.1116  0.4765  0.5069
 1143SOL     hw 4570   1.390   4.453   2.091 -3.1230 -0.4074  1.5100
 1143SOL     hw 4571   1.346   4.582   2.024  3.0163  1.0749 -0.3508
 1143SOL     vw 4572   1.359   4.496   2.022 -0.0962  0.4392  0.5261
 1144SOL     ow 4573   6.616   1.302   0.444 -0.1024  0.2890 -0.5262
 1144SOL     hw 4574   6.552   1.289   0.514  1.0846 -2.2612  0.2134
 1144SOL     hw 4575   6.573   1.270   0.365 -1.6169  3.5900 -1.2241
 1144SOL     vw 4576   6.602   1.296   0.443 -0.1457  0.3881 -0.5207
 1145SOL     ow 4577   1.249   4.103   6.317  0.7860 -0.7061 -0.1057
 1145SOL     hw 4578   1.276   4.121   6.407  2.1416  0.4479 -0.6961
 1145SOL     hw 4579   1.330   4.105   6.267 -0.0477 -0.2643 -1.5091
 1145SOL     vw 4580   1.263   4.106   6.322  0.8548 -0.4954 -0.3688
 1146SOL     ow 4581   3.797   4.558   4.500 -0.4311  0.1482  0.2907
 1146SOL     hw 4582   3.865   4.559   4.567  1.5438 -1.0958 -1.5636
 1146SOL     hw 4583   3.759   4.471   4.505  0.2220 -0.2048 -0.6263
 1146SOL     vw 4584   3.801   4.547   4.510 -0.0844 -0.0627 -0.0749
 1147SOL     ow 4585   1.614   2.805   4.657 -0.6348  0.1524  0.5281
 1147SOL     hw 4586   1.689   2.788   4.601 -0.0437  1.0277  1.0281
 1147SOL     hw 4587   1.651   2.847   4.735 -0.9811 -3.7189  3.0759
 1147SOL     vw 4588   1.629   2.808   4.660 -0.6025 -0.2429  0.9301
 1148SOL     ow 4589   0.424   2.419   6.056  0.3144  0.3556  0.1025
 1148SOL     hw 4590   0.330   2.400   6.064  0.6292 -2.2701 -1.3240
 1148SOL     hw 4591   0.465   2.333   6.049  2.6840  1.4810 -0.9768
 1148SOL     vw 4592   0.417   2.405   6.056  0.6686  0.1577 -0.2284
 1149SOL     ow 4593   6.668   1.871   3.875  0.2686  0.1687  0.2338
 1149SOL     hw 4594   6.711   1.833   3.952 -0.8312 -0.0976  0.7361
 1149SOL     hw 4595   6.688   1.964   3.881  1.1031  0.0000  0.2363
 1149SOL     vw 4596   6.676   1.878   3.886  0.2334  0.1113  0.3003
 1150SOL     ow 4597   2.242   4.241   5.144 -0.3072 -0.1812 -1.0441
 1150SOL     hw 4598   2.261   4.190   5.065  1.0318  0.0439 -0.8960
 1150SOL     hw 4599   2.325   4.241   5.192 -1.0443 -0.1194  0.2543
 1150SOL     vw 4600   2.256   4.234   5.140 -0.2278 -0.1433 -0.8531
 1151SOL     ow 4601   2.956   6.995   3.775 -0.2913 -0.1573 -0.3365
 1151SOL     hw 4602   2.967   6.968   3.867 -0.1677  0.4503 -0.1679
 1151SOL     hw 4603   2.877   6.949   3.746 -1.4017  1.0690  0.6355
 1151SOL     vw 4604   2.947   6.985   3.784 -0.4214  0.0849 -0.1860
 1152SOL     ow 4605   1.174   4.157   1.110  0.0083 -0.7533 -0.2842
 1152SOL     hw 4606   1.255   4.201   1.085 -1.2047  1.1205 -1.1147
 1152SOL     hw 4607   1.200   4.066   1.127  2.3069 -0.1377 -0.2372
 1152SOL     vw 4608   1.188   4.151   1.109  0.1515 -0.4249 -0.3875
 1153SOL     ow 4609   3.017   1.753   6.376 -0.4256  0.5467 -0.2375
 1153SOL     hw 4610   2.930   1.723   6.352 -1.0594  3.4612 -2.0955
 1153SOL     hw 4611   3.062   1.768   6.293  1.7120 -0.3363  0.6677
 1153SOL     vw 4612   3.012   1.751   6.362 -0.2272  0.8147 -0.3633
 1154SOL     ow 4613   1.047   1.571   6.751  0.5092 -0.1675 -0.0048
 1154SOL     hw 4614   1.058   1.507   6.820  0.0731 -0.1074  0.1288
 1154SOL     hw 4615   0.962   1.611   6.770 -0.5351 -1.4800 -1.6584
 1154SOL     vw 4616   1.037   1.568   6.763  0.3139 -0.3328 -0.2055
 1155SOL     ow 4617   4.985   2.939   6.471 -0.4274  0.5474  0.1352
 1155SOL     hw 4618   5.041   2.939   6.394 -0.4996 -0.7280  0.0711
 1155SOL     hw 4619   4.934   3.020   6.463  0.3992  1.0190 -0.5293
 1155SOL     vw 4620   4.986   2.950   6.460 -0.3276  0.4413  0.0393
 1156SOL     ow 4621   0.125   6.922   3.096  0.3077 -0.7328  0.1253
 1156SOL     hw 4622   0.131   6.989   3.027  3.6642 -1.0017 -0.0386
 1156SOL     hw 4623   0.033   6.895   3.096  0.1632 -1.1881 -4.7124
 1156SOL     vw 4624   0.114   6.927   3.087  0.7315 -0.8283 -0.5345
 1157SOL     ow 4625   3.836   1.593   3.664 -0.2680  0.0144 -0.2238
 1157SOL     hw 4626   3.911   1.541   3.693 -0.2051  0.4224  0.3557
 1157SOL     hw 4627   3.771   1.528   3.635 -0.8342 -0.4926  2.0103
 1157SOL     vw 4628   3.837   1.578   3.664 -0.3344  0.0014  0.1472
 1158SOL     ow 4629   0.149   6.664   2.960 -0.3906 -0.9426 -0.1977
 1158SOL     hw 4630   0.150   6.746   3.010  0.8967 -0.1418 -1.4394
 1158SOL     hw 4631   0.057   6.646   2.945 -0.7355 -0.3115  1.0283
 1158SOL     vw 4632   0.137   6.673   2.965 -0.2663 -0.7536 -0.1998
 1159SOL     ow 4633   4.751   2.643   2.936 -0.3985 -0.2319  0.3564
 1159SOL     hw 4634   4.712   2.561   2.906  3.7186 -2.2236 -0.2620
 1159SOL     hw 4635   4.754   2.635   3.031  1.1160 -1.5204  0.2468
 1159SOL     vw 4636   4.746   2.632   2.945  0.3443 -0.6648  0.2602
 1160SOL     ow 4637   0.991   1.728   0.467  0.7901  0.3136  0.5305
 1160SOL     hw 4638   0.970   1.636   0.478  0.5950  0.5619  2.5414
 1160SOL     hw 4639   1.085   1.734   0.484  0.9041  0.4264 -0.1020
 1160SOL     vw 4640   1.001   1.717   0.470  0.7794  0.3613  0.7124
 1161SOL     ow 4641   1.433   2.379   1.070  0.8943 -0.4871  0.5015
 1161SOL     hw 4642   1.490   2.391   0.995  1.0702  0.7861  0.8071
 1161SOL     hw 4643   1.344   2.387   1.035  0.9525 -0.6684  0.3128
 1161SOL     vw 4644   1.429   2.382   1.056  0.9251 -0.3431  0.5170
 1162SOL     ow 4645   6.684   2.979   3.623 -0.3907 -0.3452  0.0045
 1162SOL     hw 4646   6.696   2.895   3.578  0.9722 -2.2241  3.4714
 1162SOL     hw 4647   6.774   3.011   3.636 -0.8646  1.2966 -0.5629
 1162SOL     vw 4648   6.698   2.972   3.619 -0.2737 -0.3763  0.3871
 1163SOL     ow 4649   0.199   2.311   0.140 -0.1502  0.4962  0.1515
 1163SOL     hw 4650   0.242   2.225   0.134  1.4804  1.0763  2.3795
 1163SOL     hw 4651   0.183   2.335   0.049 -1.4727 -2.5253 -0.5379
 1163SOL     vw 4652   0.203   2.303   0.127 -0.1095  0.1742  0.3545
 1164SOL     ow 4653   2.423   3.182   6.205  0.1697 -0.2991  0.0236
 1164SOL     hw 4654   2.476   3.251   6.244  0.6366 -0.7302  0.1586
 1164SOL     hw 4655   2.350   3.229   6.164  2.3550  0.7003 -3.1499
 1164SOL     vw 4656   2.420   3.198   6.205  0.5196 -0.2241 -0.3774
 1165SOL     ow 4657   2.194   4.464   0.375 -0.5784 -0.2273  0.1689
 1165SOL     hw 4658   2.219   4.419   0.456  1.1286 -0.6564 -0.5468
 1165SOL     hw 4659   2.179   4.555   0.401 -0.3955 -0.4363  1.0318
 1165SOL     vw 4660   2.195   4.470   0.389 -0.3291 -0.3119  0.1883
 1166SOL     ow 4661   3.035   3.790   5.032 -0.6110 -0.0318  0.2696
 1166SOL     hw 4662   3.071   3.876   5.014 -0.1629 -0.2460  0.1227
 1166SOL     hw 4663   2.968   3.804   5.099 -0.8774  0.4931 -0.1014
 1166SOL     vw 4664   3.031   3.803   5.038 -0.5872  0.0092  0.2012
 1167SOL     ow 4665   6.093   1.569   3.211  0.3988 -0.2219 -0.2630
 1167SOL     hw 4666   6.038   1.645   3.190  1.9951  1.0343 -0.0591
 1167SOL     hw 4667   6.148   1.557   3.133  0.6523 -0.7294 -0.0085
 1167SOL     vw 4668   6.093   1.577   3.198  0.6430 -0.1231 -0.2024
 1168SOL     ow 4669   3.439   3.138   1.279  0.0730 -0.0308 -0.5569
 1168SOL     hw 4670   3.420   3.044   1.278 -0.3297  0.0433 -0.0861
 1168SOL     hw 4671   3.498   3.151   1.204  0.7497 -0.7859 -0.1730
 1168SOL     vw 4672   3.444   3.127   1.269  0.1091 -0.1205 -0.4441
 1169SOL     ow 4673   1.819   0.964   2.955  0.2659 -0.3912 -0.6643
 1169SOL     hw 4674   1.894   1.019   2.933 -0.1043  0.3103 -0.2207
 1169SOL     hw 4675   1.825   0.953   3.050 -1.7987  2.1966 -0.0936
 1169SOL     vw 4676   1.829   0.970   2.965 -0.0553  0.0427 -0.5305
 1170SOL     ow 4677   3.494   5.489   7.133 -0.0402  0.1666 -0.6231
 1170SOL     hw 4678   3.446   5.489   7.216  2.0340 -0.4548  0.6727
 1170SOL     hw 4679   3.562   5.556   7.146 -0.1826  0.6345 -2.1598
 1170SOL     vw 4680   3.497   5.498   7.146  0.2146  0.1464 -0.6549
 1171SOL     ow 4681   3.764   6.110   5.592 -0.2314  0.0639 -1.0623
 1171SOL     hw 4682   3.758   6.149   5.505 -1.5454 -0.3088 -1.1648
 1171SOL     hw 4683   3.735   6.178   5.652  1.2102  0.5097 -0.8348
 1171SOL     vw 4684   3.759   6.124   5.588 -0.2146  0.0734 -1.0457
 1172SOL     ow 4685   2.096   4.062   0.434  0.4269 -0.5738  0.2484
 1172SOL     hw 4686   2.101   4.123   0.507  0.9104 -0.6647  0.2959
 1172SOL     hw 4687   2.002   4.050   0.419  0.2777 -1.7578  1.8809
 1172SOL     vw 4688   2.084   4.068   0.441  0.4710 -0.7424  0.4701
 1173SOL     ow 4689   3.405   1.457   5.008 -0.5295 -0.2750  0.0824
 1173SOL     hw 4690   3.407   1.386   5.072 -2.2084  0.6550  1.2766
 1173SOL     hw 4691   3.491   1.499   5.015  0.6421 -2.3591 -0.9433
 1173SOL     vw 4692   3.416   1.453   5.017 -0.5964 -0.4272  0.1047
 1174SOL     ow 4693   3.520   0.977   0.705 -0.1315 -0.6674  0.1563
 1174SOL     hw 4694   3.602   0.931   0.686  0.9556  1.4254 -0.5918
 1174SOL     hw 4695   3.533   1.065   0.669 -0.4347  1.6679  4.9745
 1174SOL     vw 4696   3.533   0.983   0.697 -0.0281 -0.0832  0.6933
 1175SOL     ow 4697   6.159   6.379   1.079 -0.6337  0.7414  1.1489
 1175SOL     hw 4698   6.173   6.474   1.084 -2.6796  1.6142 -3.7003
 1175SOL     hw 4699   6.064   6.369   1.092 -1.5140  0.3765 -3.7182
 1175SOL     vw 4700   6.148   6.390   1.082 -1.0197  0.8085 -0.1331
 1176SOL     ow 4701   1.573   1.639   1.647  0.0113 -0.1307 -0.1065
 1176SOL     hw 4702   1.620   1.629   1.730 -0.0870 -1.9983 -0.2298
 1176SOL     hw 4703   1.637   1.679   1.588  0.1642  0.9790  0.7669
 1176SOL     vw 4704   1.587   1.643   1.650  0.0185 -0.2307 -0.0075
 1177SOL     ow 4705   6.597   2.007   1.219  0.2665  0.5903 -0.5231
 1177SOL     hw 4706   6.633   2.086   1.260  2.5922 -1.0213  0.8588
 1177SOL     hw 4707   6.612   2.019   1.126 -0.0293  2.0370 -0.4016
 1177SOL     vw 4708   6.604   2.019   1.212  0.5343  0.5685 -0.3247
 1178SOL     ow 4709   5.188   2.016   5.054 -0.1491  0.1348  0.3515
 1178SOL     hw 4710   5.131   1.950   5.092 -0.7691  0.6861  0.3899
 1178SOL     hw 4711   5.151   2.032   4.967 -0.3455  0.8415  0.5608
 1178SOL     vw 4712   5.176   2.009   5.048 -0.2570  0.3009  0.3841
 1179SOL     ow 4713   6.786   1.808   5.042  0.3553  0.2852  0.7802
 1179SOL     hw 4714   6.706   1.854   5.066 -0.9318 -0.6373 -1.3877
 1179SOL     hw 4715   6.855   1.875   5.044  0.1635  0.6284  5.0635
 1179SOL     vw 4716   6.785   1.823   5.046  0.1602  0.2087  1.0593
 1180SOL     ow 4717   5.478   5.644   0.896 -0.2344 -0.6489 -0.5412
 1180SOL     hw 4718   5.535   5.617   0.824 -0.3602 -1.2016 -0.4413
 1180SOL     hw 4719   5.447   5.561   0.934  0.9206 -0.3851  1.0371
 1180SOL     vw 4720   5.481   5.629   0.892 -0.0987 -0.6869 -0.3197
 1181SOL     ow 4721   2.051   0.708   6.992 -0.0383 -1.1523  0.3779
 1181SOL     hw 4722   2.082   0.784   6.943  1.1368 -1.2345  0.9770
 1181SOL     hw 4723   2.079   0.633   6.940  0.5458 -1.2209  0.7874
 1181SOL     vw 4724   2.059   0.708   6.979  0.1940 -1.1722  0.5109
 1182SOL     ow 4725   3.370   2.790   3.183 -0.0832  0.4900  0.1932
 1182SOL     hw 4726   3.372   2.738   3.263 -1.5414  0.7643  0.4461
 1182SOL     hw 4727   3.338   2.730   3.116 -2.2952  1.1055  0.5973
 1182SOL     vw 4728   3.366   2.775   3.185 -0.5676  0.6074  0.2799
 1183SOL     ow 4729   0.495   5.821   3.605 -0.0320  0.0999  0.3646
 1183SOL     hw 4730   0.557   5.750   3.617  0.0135  0.1153  0.2186
 1183SOL     hw 4731   0.410   5.778   3.599 -0.4606  0.2305  3.6688
 1183SOL     vw 4732   0.492   5.806   3.606 -0.0826  0.1192  0.7812
 1184SOL     ow 4733   7.035   3.140   1.205 -0.2198 -0.1808  0.8477
 1184SOL     hw 4734   6.942   3.116   1.203 -0.3661  0.3956  0.6420
 1184SOL     hw 4735   7.037   3.226   1.248 -0.1834  1.5405 -2.3319
 1184SOL     vw 4736   7.023   3.148   1.211 -0.2346  0.1223  0.4010
 1185SOL     ow 4737   0.947   4.358   1.230  0.0039  0.1717 -0.4701
 1185SOL     hw 4738   1.015   4.419   1.259  0.1054 -0.1821  0.0441
 1185SOL     hw 4739   0.874   4.415   1.204  0.1996  0.5262 -0.2548
 1185SOL     vw 4740   0.946   4.374   1.231  0.0431  0.1717 -0.3739
 1186SOL     ow 4741   7.080   5.002   6.583  0.2855 -0.5962  0.0623
 1186SOL     hw 4742   7.104   4.941   6.654  3.1864 -0.3484 -0.5775
 1186SOL     hw 4743   7.063   5.085   6.628  1.1859 -0.6745  0.5815
 1186SOL     vw 4744   7.081   5.005   6.598  0.7868 -0.5739  0.0463
 1187SOL     ow 4745   1.822   5.967   3.122  0.4145 -0.7424  0.1060
 1187SOL     hw 4746   1.907   5.977   3.165  0.4159 -1.8451  0.3723
 1187SOL     hw 4747   1.835   6.005   3.035  1.2016 -0.9517  0.1284
 1187SOL     vw 4748   1.835   5.973   3.116  0.5186 -0.9155  0.1442
 1188SOL     ow 4749   5.839   2.422   0.585 -0.4367 -0.2120 -0.1719
 1188SOL     hw 4750   5.857   2.417   0.491  1.3444  1.9683 -0.0645
 1188SOL     hw 4751   5.912   2.374   0.625 -2.2012 -2.7945  0.1499
 1188SOL     vw 4752   5.851   2.415   0.578 -0.4346 -0.2651 -0.1152
 1189SOL     ow 4753   2.459   6.231   1.240 -0.3003  0.3515  0.1732
 1189SOL     hw 4754   2.459   6.153   1.185 -2.0669 -0.9306  1.8569
 1189SOL     hw 4755   2.543   6.229   1.286 -0.7304 -1.1710  0.9475
 1189SOL     vw 4756   2.470   6.221   1.239 -0.5902 -0.0188  0.4975
 1190SOL     ow 4757   6.889   4.200   4.201  0.4055  0.0763  0.3297
 1190SOL     hw 4758   6.957   4.161   4.256  1.6868  1.1164 -0.4403
 1190SOL     hw 4759   6.857   4.128   4.148  1.2233 -0.3612  0.4056
 1190SOL     vw 4760   6.894   4.186   4.201  0.6824  0.1559  0.2382
 1191SOL     ow 4761   3.688   3.084   0.362  0.3555 -0.1614 -0.1146
 1191SOL     hw 4762   3.605   3.036   0.366 -0.4115  1.1609  0.8434
 1191SOL     hw 4763   3.671   3.164   0.412  1.9836  0.4944 -0.5605
 1191SOL     vw 4764   3.674   3.088   0.369  0.4691  0.0995 -0.0471
 1192SOL     ow 4765   1.258   3.692   2.114  0.2681  0.3231 -0.1408
 1192SOL     hw 4766   1.341   3.739   2.117 -1.1126  2.9152  0.0724
 1192SOL     hw 4767   1.230   3.687   2.206 -1.4299  2.6891 -0.4527
 1192SOL     vw 4768   1.265   3.697   2.127 -0.1382  0.9773 -0.1539
 1193SOL     ow 4769   6.408   1.127   2.497 -0.2036  0.3016  0.5966
 1193SOL     hw 4770   6.423   1.133   2.403 -1.2043  0.4168  0.4272
 1193SOL     hw 4771   6.491   1.153   2.537  0.8359 -1.5926 -0.2483
 1193SOL     vw 4772   6.421   1.131   2.490 -0.1984  0.0669  0.4628
 1194SOL     ow 4773   3.295   3.198   4.663 -0.3180  0.2451  0.3804
 1194SOL     hw 4774   3.278   3.283   4.702 -0.6384 -0.0777  0.9575
 1194SOL     hw 4775   3.255   3.135   4.724  2.2631 -0.5165  1.4086
 1194SOL     vw 4776   3.287   3.201   4.676 -0.0198  0.1019  0.5922
 1195SOL     ow 4777   1.466   7.059   5.312 -0.0158  0.5408 -0.6197
 1195SOL     hw 4778   1.447   6.972   5.346 -0.6027 -0.1152 -2.4952
 1195SOL     hw 4779   1.459   7.117   5.388  0.9627 -1.0857  0.7901
 1195SOL     vw 4780   1.463   7.056   5.326  0.0359  0.2396 -0.6814
 1196SOL     ow 4781   1.661   0.125   0.593  0.4650 -0.1861  0.6675
 1196SOL     hw 4782   1.752   0.122   0.565  0.6634  2.4614  0.7937
 1196SOL     hw 4783   1.656   0.202   0.650 -1.4838 -1.3056  2.1230
 1196SOL     vw 4784   1.672   0.135   0.597  0.2341  0.0155  0.8762
 1197SOL     ow 4785   6.734   4.291   1.196 -0.0765 -0.5141 -0.6252
 1197SOL     hw 4786   6.798   4.359   1.179  0.9375 -1.3620 -0.3468
 1197SOL     hw 4787   6.727   4.243   1.114 -0.8697 -0.0238 -0.8540
 1197SOL     vw 4788   6.742   4.293   1.183 -0.0474 -0.5612 -0.6186
 1198SOL     ow 4789   2.805   1.381   4.069 -0.2164  0.4781 -0.6401
 1198SOL     hw 4790   2.866   1.375   4.143 -0.8015  2.4704  0.0523
 1198SOL     hw 4791   2.722   1.348   4.104 -0.3216  0.7652 -0.6205
 1198SOL     vw 4792   2.802   1.376   4.083 -0.3076  0.7789 -0.5462
 1199SOL     ow 4793   3.713   3.670   5.508 -0.8035  0.7108 -0.3909
 1199SOL     hw 4794   3.731   3.716   5.426  3.5903  0.0952 -0.0561
 1199SOL     hw 4795   3.739   3.731   5.577 -1.9545  0.3068  0.4276
 1199SOL     vw 4796   3.719   3.684   5.506 -0.3756  0.5764 -0.2387
 1200SOL     ow 4797   5.978   2.749   0.766 -0.2590  0.2143 -0.5552
 1200SOL     hw 4798   5.927   2.721   0.842 -1.2901  0.1728 -1.2398
 1200SOL     hw 4799   5.930   2.713   0.690 -0.4760  2.0289 -1.3392
 1200SOL     vw 4800   5.965   2.741   0.766 -0.4234  0.4481 -0.7489
 1201SOL     ow 4801   0.587   4.250   6.431 -0.1897  0.5766  0.4414
 1201SOL     hw 4802   0.591   4.156   6.415 -1.2652  0.5293  0.3591
 1201SOL     hw 4803   0.678   4.277   6.438  0.1811 -0.2211 -0.9915
 1201SOL     vw 4804   0.599   4.241   6.430 -0.2827  0.4652  0.2415
 1202SOL     ow 4805   2.935   7.006   3.478 -0.0300  0.0688  0.0946
 1202SOL     hw 4806   2.954   6.913   3.464 -2.3052 -0.5686  0.7527
 1202SOL     hw 4807   2.845   7.016   3.447 -1.0534  1.2394  3.1286
 1202SOL     vw 4808   2.925   6.995   3.472 -0.4652  0.1390  0.5817
 1203SOL     ow 4809   2.072   0.367   5.480  0.7204 -0.3282  0.4175
 1203SOL     hw 4810   2.142   0.411   5.432  1.2747 -0.9938  0.6031
 1203SOL     hw 4811   2.000   0.360   5.417  0.7428  0.5469  0.2929
 1203SOL     vw 4812   2.071   0.372   5.465  0.7964 -0.3006  0.4256
 1204SOL     ow 4813   5.185   4.442   0.365 -0.0922  0.6812  0.5906
 1204SOL     hw 4814   5.121   4.511   0.345 -0.4393 -0.1482 -1.3094
 1204SOL     hw 4815   5.236   4.432   0.285 -0.1200 -1.3349  0.7755
 1204SOL     vw 4816   5.183   4.450   0.352 -0.1416  0.3057  0.3643
 1205SOL     ow 4817   6.972   6.742   5.831 -0.2832 -0.4644 -0.3055
 1205SOL     hw 4818   6.948   6.666   5.779  0.3321  0.0379 -1.3666
 1205SOL     hw 4819   6.971   6.712   5.922 -3.4838 -0.8452 -0.3589
 1205SOL     vw 4820   6.968   6.728   5.836 -0.6244 -0.4482 -0.4528
 1206SOL     ow 4821   3.467   4.849   4.099  0.3927  0.1067 -0.3428
 1206SOL     hw 4822   3.402   4.779   4.095  0.1489  0.2620  0.6720
 1206SOL     hw 4823   3.534   4.824   4.035 -0.2228 -0.5053 -0.7499
 1206SOL     vw 4824   3.467   4.836   4.090  0.2793  0.0463 -0.2625
 1207SOL     ow 4825   6.823   4.436   3.815  0.3383 -0.4313 -0.2217
 1207SOL     hw 4826   6.758   4.367   3.820  1.2553 -1.2650  0.4554
 1207SOL     hw 4827   6.773   4.517   3.828 -0.7700 -0.9222 -1.2058
 1207SOL     vw 4828   6.808   4.438   3.817  0.3130 -0.6061 -0.2621
 1208SOL     ow 4829   2.643   4.449   7.007 -0.2296 -0.1920 -0.0190
 1208SOL     hw 4830   2.594   4.394   7.069  2.0898  0.5016  2.6060
 1208SOL     hw 4831   2.617   4.538   7.029 -0.2345  0.0297 -0.8866
 1208SOL     vw 4832   2.633   4.453   7.018  0.0758 -0.0715  0.2127
 1209SOL     ow 4833   0.500   0.818   6.869 -0.3309  0.2716 -0.5348
 1209SOL     hw 4834   0.578   0.864   6.900 -1.0839  0.4841  1.1050
 1209SOL     hw 4835   0.532   0.731   6.845  0.5749  0.6811 -0.8833
 1209SOL     vw 4836   0.515   0.812   6.870 -0.3108  0.3537 -0.3643
 1210SOL     ow 4837   2.296   3.154   3.929  1.0663 -0.3811  0.9175
 1210SOL     hw 4838   2.384   3.190   3.944  0.2479  1.3777  1.8181
 1210SOL     hw 4839   2.277   3.102   4.006  1.8371 -1.9552  0.0866
 1210SOL     vw 4840   2.305   3.152   3.941  1.0599 -0.3568  0.9269
 1211SOL     ow 4841   4.846   6.964   2.592 -0.8362  0.1744 -0.5221
 1211SOL     hw 4842   4.759   6.929   2.610 -0.4799 -1.9688 -2.4235
 1211SOL     hw 4843   4.861   6.943   2.499  1.7670  0.2649 -0.1950
 1211SOL     vw 4844   4.837   6.956   2.582 -0.4461 -0.0963 -0.7298
 1212SOL     ow 4845   1.783   6.774   2.511  0.0157 -0.2742  1.0154
 1212SOL     hw 4846   1.688   6.763   2.515  0.1785 -1.9479  0.9748
 1212SOL     hw 4847   1.818   6.697   2.555  1.3797 -0.6791 -0.6731
 1212SOL     vw 4848   1.775   6.762   2.517  0.2172 -0.5484  0.7874
 1213SOL     ow 4849   1.276   2.861   6.195  0.1280  0.2301  0.5190
 1213SOL     hw 4850   1.198   2.877   6.142 -2.0910 -0.7969  3.2461
 1213SOL     hw 4851   1.283   2.938   6.251  1.8260  0.8242 -0.4320
 1213SOL     vw 4852   1.267   2.873   6.195  0.0592  0.1729  0.7532
 1214SOL     ow 4853   5.207   1.246   6.981 -0.6354 -0.3467  0.0734
 1214SOL     hw 4854   5.301   1.248   6.967 -0.5226  1.3031  0.8744
 1214SOL     hw 4855   5.177   1.171   6.930  1.1054 -0.9396 -0.1362
 1214SOL     vw 4856   5.215   1.236   6.972 -0.3910 -0.2072  0.1516
 1215SOL     ow 4857   1.984   5.055   4.478 -0.0560  0.1946 -0.0772
 1215SOL     hw 4858   1.908   5.008   4.512 -0.2536  0.6970  0.1953
 1215SOL     hw 4859   2.059   5.010   4.517 -0.1672 -0.7570 -0.9184
 1215SOL     vw 4860   1.984   5.043   4.488 -0.0968  0.1352 -0.1523
 1216SOL     ow 4861   3.983   5.070   0.547  0.2889 -0.1441  0.7645
 1216SOL     hw 4862   4.044   5.022   0.603  2.6530  1.5989 -0.1450
 1216SOL     hw 4863   3.955   5.144   0.601  2.3827  1.4033 -0.1286
 1216SOL     vw 4864   3.988   5.074   0.562  0.8771  0.2899  0.5267
 1217SOL     ow 4865   3.104   2.699   2.387  0.2211 -0.0346  0.1032
 1217SOL     hw 4866   3.191   2.661   2.391  0.6597  0.8233 -0.8628
 1217SOL     hw 4867   3.102   2.763   2.459  0.4442  0.0440  0.0410
 1217SOL     vw 4868   3.115   2.703   2.397  0.3086  0.0889 -0.0323
 1218SOL     ow 4869   6.232   3.275   2.520  0.3884 -0.8238 -0.0226
 1218SOL     hw 4870   6.161   3.226   2.563 -0.6271  1.2642  0.8522
 1218SOL     hw 4871   6.248   3.228   2.439 -0.4211 -2.6450  0.8004
 1218SOL     vw 4872   6.224   3.262   2.515  0.1476 -0.7887  0.2015
 1219SOL     ow 4873   6.763   1.146   6.064  0.7023 -0.6820 -0.1143
 1219SOL     hw 4874   6.705   1.081   6.026 -1.6006  0.1241  1.7757
 1219SOL     hw 4875   6.721   1.170   6.147  2.2233  2.1082 -0.0323
 1219SOL     vw 4876   6.750   1.141   6.070  0.5991 -0.2074  0.1457
 1220SOL     ow 4877   3.911   4.671   1.328 -0.2194  0.4298  0.0845
 1220SOL     hw 4878   3.893   4.764   1.342  0.3189  0.5752 -0.1478
 1220SOL     hw 4879   3.891   4.630   1.412 -2.5665  0.4104 -0.4358
 1220SOL     vw 4880   3.906   4.678   1.341 -0.4580  0.4466 -0.0148
 1221SOL     ow 4881   2.902   5.620   5.196 -0.2880 -0.3120  0.4256
 1221SOL     hw 4882   2.860   5.551   5.247  1.2820 -1.2474  0.5127
 1221SOL     hw 4883   2.837   5.641   5.128 -0.5754 -2.3411 -0.0027
 1221SOL     vw 4884   2.888   5.614   5.193 -0.1187 -0.7031  0.3808
 1222SOL     ow 4885   4.649   1.493   5.329 -0.4965  0.1652  0.0387
 1222SOL     hw 4886   4.714   1.450   5.272 -2.0210  0.2881 -1.9044
 1222SOL     hw 4887   4.568   1.444   5.314 -0.6681 -0.8509  3.4505
 1222SOL     vw 4888   4.647   1.480   5.319 -0.7203  0.0473  0.2325
 1223SOL     ow 4889   6.393   6.577   2.222  0.6437  0.1163  0.4402
 1223SOL     hw 4890   6.398   6.537   2.135  1.8840  0.0793  0.5099
 1223SOL     hw 4891   6.459   6.531   2.273  0.0592  0.2691  1.3651
 1223SOL     vw 4892   6.402   6.566   2.218  0.7303  0.1316  0.5715
 1224SOL     ow 4893   6.088   3.049   1.451  0.2318 -0.2539  0.9278
 1224SOL     hw 4894   6.151   3.080   1.386  1.3695  0.3380  2.2673
 1224SOL     hw 4895   6.126   2.968   1.485  2.2536  1.8964  4.3263
 1224SOL     vw 4896   6.101   3.042   1.447  0.6487  0.1079  1.5530
 1225SOL     ow 4897   2.989   6.667   6.650  0.5019  0.1314  0.2809
 1225SOL     hw 4898   3.005   6.724   6.725  0.2280  0.5424  0.0315
 1225SOL     hw 4899   3.068   6.675   6.596  0.8440 -0.4292  0.6850
 1225SOL     vw 4900   3.001   6.675   6.653  0.5109  0.1113  0.3016
 1226SOL     ow 4901   5.124   6.883   2.680  0.2377 -0.3173 -0.6951
 1226SOL     hw 4902   5.200   6.844   2.722 -0.1225 -0.8151 -0.4909
 1226SOL     hw 4903   5.129   6.854   2.589 -0.9387 -2.3110 -0.1903
 1226SOL     vw 4904   5.135   6.874   2.674  0.0348 -0.6459 -0.6015
 1227SOL     ow 4905   2.870   6.307   2.717  0.2137  0.0285 -0.4707
 1227SOL     hw 4906   2.827   6.392   2.711  0.6774  0.2808 -0.2287
 1227SOL     hw 4907   2.943   6.320   2.777  1.6688  0.0465 -2.1410
 1227SOL     vw 4908   2.874   6.320   2.724  0.4669  0.0644 -0.6593
 1228SOL     ow 4909   6.183   4.136   5.135 -0.2621 -0.0358 -0.0395
 1228SOL     hw 4910   6.206   4.193   5.063 -2.0827  0.1411 -0.5257
 1228SOL     hw 4911   6.143   4.060   5.094  3.1089 -2.3571  0.4846
 1228SOL     vw 4912   6.181   4.133   5.120 -0.0577 -0.3185 -0.0346
 1229SOL     ow 4913   0.927   2.445   3.041  0.2363 -0.3196 -0.3070
 1229SOL     hw 4914   0.967   2.458   2.955  0.8060  0.3442  0.0413
 1229SOL     hw 4915   0.921   2.534   3.077  1.1121 -0.6996  0.8164
 1229SOL     vw 4916   0.932   2.459   3.034  0.4270 -0.2820 -0.1130
 1230SOL     ow 4917   2.283   5.672   6.296  0.4746 -0.4181 -0.3148
 1230SOL     hw 4918   2.239   5.599   6.340  1.4545  0.1333  1.6849
 1230SOL     hw 4919   2.286   5.741   6.362  1.6975  0.5827 -1.3861
 1230SOL     vw 4920   2.278   5.671   6.311  0.7653 -0.2134 -0.1922
 1231SOL     ow 4921   1.699   3.976   0.646 -0.3274  0.4297  0.3083
 1231SOL     hw 4922   1.763   4.018   0.589 -2.1106  0.2515 -1.9974
 1231SOL     hw 4923   1.749   3.914   0.699  1.5782  1.4493 -0.2249
 1231SOL     vw 4924   1.714   3.974   0.646 -0.3113  0.5407 -0.0663
 1232SOL     ow 4925   5.363   4.332   5.939  0.1230 -0.3259 -0.0297
 1232SOL     hw 4926   5.423   4.282   5.884  1.0711  0.6600  0.0714
 1232SOL     hw 4927   5.320   4.393   5.879  0.2572 -0.0769  0.1259
 1232SOL     vw 4928   5.365   4.333   5.924  0.2661 -0.1628  0.0043
 1233SOL     ow 4929   1.379   2.091   1.980 -0.6630  0.4237 -0.0081
 1233SOL     hw 4930   1.397   2.001   1.954 -2.7602 -0.2072  0.5773
 1233SOL     hw 4931   1.463   2.124   2.012 -0.1461 -1.7764  1.0590
 1233SOL     vw 4932   1.393   2.084   1.981 -0.8715  0.0502  0.2099
 1234SOL     ow 4933   3.530   1.918   6.466 -0.2959  0.2249 -0.3826
 1234SOL     hw 4934   3.570   1.902   6.552 -3.1200 -0.2548  0.9445
 1234SOL     hw 4935   3.561   1.846   6.411 -1.2528 -1.5514  1.3130
 1234SOL     vw 4936   3.540   1.907   6.470 -0.7948 -0.0727  0.0162
 1235SOL     ow 4937   5.404   6.418   4.401 -0.1640  0.1805  0.6923
 1235SOL     hw 4938   5.336   6.371   4.449 -0.9696 -0.9095 -1.3910
 1235SOL     hw 4939   5.485   6.399   4.449 -0.7839 -1.6763  1.0833
 1235SOL     vw 4940   5.406   6.410   4.413 -0.3519 -0.2084  0.4692
 1236SOL     ow 4941   2.260   6.676   0.587 -0.1038  0.9470  0.4882
 1236SOL     hw 4942   2.168   6.687   0.562 -0.4328 -2.4529 -0.2514
 1236SOL     hw 4943   2.309   6.706   0.510 -0.8693 -2.0190 -1.3178
 1236SOL     vw 4944   2.254   6.681   0.573 -0.2482  0.1070  0.1523
 1237SOL     ow 4945   1.435   2.548   6.281 -0.2038 -0.2629 -0.0759
 1237SOL     hw 4946   1.379   2.534   6.358  0.0330  0.5072  0.2503
 1237SOL     hw 4947   1.411   2.478   6.221 -0.2640 -0.9906  0.7699
 1237SOL     vw 4948   1.424   2.537   6.283 -0.1805 -0.2575  0.0789
 1238SOL     ow 4949   2.466   2.922   6.416 -0.2922 -0.4432 -0.0430
 1238SOL     hw 4950   2.380   2.893   6.447 -1.3493  0.8483 -1.6079
 1238SOL     hw 4951   2.506   2.962   6.493  0.4914 -4.1309  1.7052
 1238SOL     vw 4952   2.460   2.924   6.430 -0.3283 -0.7592 -0.0186
 1239SOL     ow 4953   5.121   2.130   5.744 -0.6810  0.2057  0.3904
 1239SOL     hw 4954   5.154   2.197   5.684 -1.8713 -1.2254 -1.9919
 1239SOL     hw 4955   5.064   2.179   5.804 -1.3467  1.3925 -1.1350
 1239SOL     vw 4956   5.118   2.145   5.744 -0.9260  0.1733 -0.1249
 1240SOL     ow 4957   2.578   3.383   2.384  0.1054  0.1369  0.0705
 1240SOL     hw 4958   2.499   3.419   2.424  0.2654 -0.0846  0.6004
 1240SOL     hw 4959   2.567   3.288   2.390  0.1573  0.1007 -0.3682
 1240SOL     vw 4960   2.566   3.375   2.390  0.1335  0.1029  0.0825
 1241SOL     ow 4961   0.889   2.229   5.128  0.5736 -0.6247 -0.9657
 1241SOL     hw 4962   0.799   2.244   5.158  0.5748 -0.0465 -1.2394
 1241SOL     hw 4963   0.886   2.250   5.035  1.4761  1.5856 -0.5565
 1241SOL     vw 4964   0.877   2.234   5.120  0.6928 -0.2568 -0.9480
 1242SOL     ow 4965   4.618   3.517   7.070 -0.1209 -0.0298  0.4663
 1242SOL     hw 4966   4.650   3.430   7.049  1.5082  0.6048  0.1361
 1242SOL     hw 4967   4.560   3.504   7.145  0.8356 -1.2950  1.0321
 1242SOL     vw 4968   4.615   3.504   7.077  0.2201 -0.1130  0.4973
 1243SOL     ow 4969   0.465   2.151   5.721  0.2910 -0.9117  0.1766
 1243SOL     hw 4970   0.517   2.080   5.684 -0.7478 -1.9407  0.6174
 1243SOL     hw 4971   0.500   2.164   5.809  2.7155  1.4878 -1.0072
 1243SOL     vw 4972   0.476   2.143   5.728  0.4738 -0.7309  0.0784
 1244SOL     ow 4973   4.435   2.238   5.151  0.2475  0.0947 -0.2360
 1244SOL     hw 4974   4.481   2.321   5.163 -0.3881  0.6051 -1.1777
 1244SOL     hw 4975   4.377   2.253   5.076 -0.8050 -0.7990  0.3630
 1244SOL     vw 4976   4.433   2.251   5.143  0.0248  0.0440 -0.2813
 1245SOL     ow 4977   1.041   1.388   6.516 -0.1719 -0.2431  0.1735
 1245SOL     hw 4978   1.100   1.376   6.442 -0.0704 -1.5346  0.4407
 1245SOL     hw 4979   1.082   1.457   6.568  0.1339  0.1582 -0.5764
 1245SOL     vw 4980   1.054   1.396   6.513 -0.1181 -0.3605  0.1099
 1246SOL     ow 4981   2.457   2.530   3.241 -0.1336  0.6905 -0.2212
 1246SOL     hw 4982   2.511   2.574   3.175 -0.1808  2.3587  0.7904
 1246SOL     hw 4983   2.367   2.542   3.211 -0.2154  2.2004  0.5164
 1246SOL     vw 4984   2.453   2.538   3.228 -0.1506  1.1097  0.0098
 1247SOL     ow 4985   7.057   5.433   4.260  0.1696  0.7058 -0.6554
 1247SOL     hw 4986   7.013   5.442   4.175 -1.4010 -1.4940 -0.1695
 1247SOL     hw 4987   6.993   5.388   4.315  1.4681  1.3243  1.4761
 1247SOL     vw 4988   7.043   5.428   4.256  0.1335  0.4971 -0.3099
 1248SOL     ow 4989   0.876   4.091   1.101 -0.6201 -0.4560  0.0081
 1248SOL     hw 4990   0.895   4.038   1.023 -1.7455 -1.2467  0.2446
 1248SOL     hw 4991   0.839   4.028   1.163  1.6123 -0.1635  1.7556
 1248SOL     vw 4992   0.874   4.076   1.099 -0.4740 -0.5219  0.2699
 1249SOL     ow 4993   4.716   3.765   4.959  0.2612 -0.0725  0.3190
 1249SOL     hw 4994   4.733   3.825   5.031 -1.3580  0.0963  0.5974
 1249SOL     hw 4995   4.682   3.686   5.000 -1.4815  0.3281 -0.2651
 1249SOL     vw 4996   4.714   3.763   4.974 -0.1824  0.0025  0.2787
 1250SOL     ow 4997   5.836   6.562   2.293 -0.2332 -0.1953  0.7609
 1250SOL     hw 4998   5.772   6.533   2.358 -0.9842 -0.1932  0.0399
 1250SOL     hw 4999   5.818   6.656   2.282 -0.2606 -0.2427  0.3883
 1250SOL     vw 5000   5.825   6.571   2.301 -0.3362 -0.2012  0.6166
 1251SOL     ow 5001   1.430   5.403   6.523 -0.4113 -0.0122  0.2821
 1251SOL     hw 5002   1.524   5.412   6.511  0.0775 -0.3308  3.0768
 1251SOL     hw 5003   1.415   5.431   6.613 -2.8364 -1.0063  0.2622
 1251SOL     vw 5004   1.440   5.408   6.533 -0.6668 -0.1855  0.6480
 1252SOL     ow 5005   6.769   4.213   2.583 -0.4136 -0.4604  0.2345
 1252SOL     hw 5006   6.852   4.193   2.541 -1.4169 -3.5561 -0.5245
 1252SOL     hw 5007   6.720   4.261   2.516 -0.0488 -0.5980 -0.1390
 1252SOL     vw 5008   6.773   4.217   2.569 -0.4978 -0.8869  0.0850
 1253SOL     ow 5009   2.605   2.145   3.523  0.4810  0.0392 -0.5280
 1253SOL     hw 5010   2.579   2.055   3.539  0.6175  0.4510  2.6334
 1253SOL     hw 5011   2.700   2.144   3.529  0.6863  0.0582 -2.9274
 1253SOL     vw 5012   2.614   2.133   3.526  0.5261  0.0961 -0.4275
 1254SOL     ow 5013   0.855   1.311   3.900  0.4102  0.2038  0.0147
 1254SOL     hw 5014   0.838   1.348   3.987 -2.0768 -0.1135 -0.2490
 1254SOL     hw 5015   0.860   1.217   3.915 -0.7602  0.0844 -0.2379
 1254SOL     vw 5016   0.853   1.304   3.914 -0.0724  0.1462 -0.0534
 1255SOL     ow 5017   6.085   5.304   3.323 -0.7032  0.5146 -0.0342
 1255SOL     hw 5018   6.071   5.218   3.363  0.0087  0.9662  1.2727
 1255SOL     hw 5019   6.116   5.284   3.235 -1.1941 -0.5547  0.0144
 1255SOL     vw 5020   6.088   5.290   3.317 -0.6740  0.4330  0.1446
 1256SOL     ow 5021   6.285   5.784   1.317  0.3508 -0.2056 -0.6990
 1256SOL     hw 5022   6.358   5.841   1.293  1.4982 -0.9980  0.7817
 1256SOL     hw 5023   6.233   5.837   1.377  0.2303  0.0091 -0.9872
 1256SOL     vw 5024   6.288   5.799   1.322  0.4861 -0.2818 -0.5417
 1257SOL     ow 5025   0.712   3.655   3.733  0.4478 -0.5327 -0.9899
 1257SOL     hw 5026   0.683   3.565   3.717 -1.2462  0.1434 -2.0922
 1257SOL     hw 5027   0.631   3.704   3.747  1.1066  1.2499 -2.8258
 1257SOL     vw 5028   0.697   3.650   3.733  0.3112 -0.2083 -1.3777
 1258SOL     ow 5029   6.209   5.690   4.007  0.6636  0.7998  0.6293
 1258SOL     hw 5030   6.300   5.667   3.986  0.3076  1.7495 -2.4688
 1258SOL     hw 5031   6.187   5.758   3.944 -2.8190 -0.7673 -0.0627
 1258SOL     vw 5032   6.218   5.696   3.996  0.1571  0.7184  0.1291
 1259SOL     ow 5033   0.861   7.141   5.026  0.4039  0.4441  0.4001
 1259SOL     hw 5034   0.835   7.225   4.990  2.0943  0.4296 -0.9916
 1259SOL     hw 5035   0.888   7.090   4.950 -3.0764 -2.4143  0.8255
 1259SOL     vw 5036   0.861   7.145   5.011  0.1677  0.0650  0.2728
 1260SOL     ow 5037   4.229   5.438   3.349 -0.0543  0.2129 -0.4741
 1260SOL     hw 5038   4.304   5.433   3.409  1.1304  2.3310 -1.6638
 1260SOL     hw 5039   4.156   5.464   3.404  0.6399  0.5327  0.3229
 1260SOL     vw 5040   4.229   5.441   3.364  0.1936  0.5345 -0.5258
 1261SOL     ow 5041   1.277   0.360   1.877  0.0094  0.6819 -0.6585
 1261SOL     hw 5042   1.190   0.385   1.908 -0.3287 -0.0063 -1.0280
 1261SOL     hw 5043   1.261   0.286   1.818  0.8377  0.6010 -0.7929
 1261SOL     vw 5044   1.264   0.353   1.873  0.0739  0.5805 -0.7250
 1262SOL     ow 5045   1.030   5.295   3.126  0.5630  0.0859  0.2409
 1262SOL     hw 5046   1.038   5.350   3.204 -0.7568 -0.1441  0.5651
 1262SOL     hw 5047   1.006   5.209   3.160  1.0526 -0.2952 -0.3594
 1262SOL     vw 5048   1.028   5.291   3.141  0.4535  0.0055  0.2046
 1263SOL     ow 5049   5.292   4.068   5.128  0.6024  0.4616  0.4372
 1263SOL     hw 5050   5.325   3.979   5.115 -1.1495  0.0371 -1.5247
 1263SOL     hw 5051   5.276   4.074   5.222 -0.1534 -1.6449  0.4958
 1263SOL     vw 5052   5.295   4.057   5.139  0.2713  0.1278  0.1862
 1264SOL     ow 5053   2.712   0.772   5.645  0.6819  0.8315 -0.4256
 1264SOL     hw 5054   2.653   0.716   5.595  0.3911  1.7509 -1.1431
 1264SOL     hw 5055   2.774   0.806   5.580 -0.8011  3.4937 -0.6119
 1264SOL     vw 5056   2.712   0.769   5.630  0.4480  1.3041 -0.5448
 1265SOL     ow 5057   4.898   0.278   2.784  0.4814  0.0495 -0.0615
 1265SOL     hw 5058   4.949   0.200   2.763  2.2245  0.5535  2.0155
 1265SOL     hw 5059   4.874   0.314   2.698  0.9546 -1.8773 -1.0687
 1265SOL     vw 5060   4.901   0.272   2.770  0.7739 -0.1382  0.0798
 1266SOL     ow 5061   0.816   2.050   0.842  0.0154 -0.4472 -0.8901
 1266SOL     hw 5062   0.745   2.096   0.888  0.7681 -1.4541  1.3920
 1266SOL     hw 5063   0.892   2.107   0.854 -0.0434 -0.1043 -2.0362
 1266SOL     vw 5064   0.817   2.064   0.849  0.1070 -0.5348 -0.7403
 1267SOL     ow 5065   4.133   6.686   1.406 -0.3847 -0.2845  0.0946
 1267SOL     hw 5066   4.062   6.706   1.345  0.3977  0.0994 -0.7095
 1267SOL     hw 5067   4.145   6.591   1.398  0.8944 -0.0283 -1.7295
 1267SOL     vw 5068   4.125   6.676   1.397 -0.1128 -0.1998 -0.2521
 1268SOL     ow 5069   2.656   2.971   6.187 -0.3266  0.0887 -0.1795
 1268SOL     hw 5070   2.686   3.025   6.114 -1.2079  2.1978  0.9370
 1268SOL     hw 5071   2.737   2.941   6.229  0.1816 -1.1815 -1.9928
 1268SOL     vw 5072   2.671   2.974   6.183 -0.3760  0.1993 -0.2713
 1269SOL     ow 5073   2.824   1.083   5.385 -1.4397 -0.7861  0.3375
 1269SOL     hw 5074   2.800   1.097   5.293  0.7833 -0.8972 -0.3408
 1269SOL     hw 5075   2.874   1.001   5.383 -1.7138 -1.0025  1.7347
 1269SOL     vw 5076   2.828   1.074   5.373 -1.1827 -0.8293  0.4325
 1270SOL     ow 5077   4.727   4.628   5.284  0.1151  0.3512 -0.3904
 1270SOL     hw 5078   4.692   4.634   5.195 -1.6126  2.1860  0.3338
 1270SOL     hw 5079   4.659   4.583   5.333  0.9420 -0.4083  0.0867
 1270SOL     vw 5080   4.713   4.623   5.278 -0.0036  0.4933 -0.2317
 1271SOL     ow 5081   6.553   6.493   4.979 -0.2428  0.1009  0.2973
 1271SOL     hw 5082   6.473   6.460   4.937  1.4022 -1.6779 -1.7131
 1271SOL     hw 5083   6.531   6.581   5.008 -3.4320 -0.9259  1.4239
 1271SOL     vw 5084   6.540   6.500   4.977 -0.4463 -0.2692  0.1807
 1272SOL     ow 5085   2.008   1.548   2.869  0.3918 -0.4553  0.1984
 1272SOL     hw 5086   2.010   1.490   2.794  2.8903 -1.4187  0.9370
 1272SOL     hw 5087   2.031   1.634   2.834 -0.6336 -0.4253 -0.4466
 1272SOL     vw 5088   2.011   1.552   2.854  0.5863 -0.5785  0.2109
 1273SOL     ow 5089   5.466   4.341   1.325  1.2937 -0.2533 -0.1209
 1273SOL     hw 5090   5.449   4.250   1.301 -1.3326 -0.0470  0.6539
 1273SOL     hw 5091   5.476   4.387   1.242 -0.6013 -0.7355 -0.6467
 1273SOL     vw 5092   5.465   4.335   1.311  0.6974 -0.2899 -0.0880
 1274SOL     ow 5093   4.282   5.932   6.296  0.3445  0.3110  0.3053
 1274SOL     hw 5094   4.263   6.017   6.255 -0.3158  0.1403  0.2391
 1274SOL     hw 5095   4.199   5.908   6.338  0.1630 -0.8686 -0.6875
 1274SOL     vw 5096   4.268   5.940   6.296  0.2334  0.1330  0.1657
 1275SOL     ow 5097   5.535   5.604   5.012 -0.4986 -0.0648 -0.4939
 1275SOL     hw 5098   5.550   5.552   4.933 -0.3636 -1.1527  0.2282
 1275SOL     hw 5099   5.621   5.638   5.036  0.1875 -2.6808  1.1584
 1275SOL     vw 5100   5.548   5.602   5.005 -0.3903 -0.5536 -0.1802
 1276SOL     ow 5101   5.013   6.438   1.990  0.0483  0.1928 -0.4177
 1276SOL     hw 5102   5.100   6.476   1.976 -0.4042  0.4572 -3.1595
 1276SOL     hw 5103   5.000   6.382   1.914 -2.6698  1.1443 -0.7413
 1276SOL     vw 5104   5.023   6.436   1.978 -0.3698  0.3536 -0.8221
 1277SOL     ow 5105   5.716   6.872   6.606  0.0036 -0.1441  0.0244
 1277SOL     hw 5106   5.745   6.815   6.678 -1.1825 -2.7862 -1.4579
 1277SOL     hw 5107   5.786   6.936   6.598  0.0251  0.5163  3.7247
 1277SOL     vw 5108   5.729   6.873   6.615 -0.1502 -0.4058  0.3171
 1278SOL     ow 5109   5.940   0.377   1.099  0.2427  1.0648 -0.1330
 1278SOL     hw 5110   5.907   0.405   1.014  1.2099  0.8876 -0.5817
 1278SOL     hw 5111   5.966   0.286   1.087 -2.3145  0.0437  1.1618
 1278SOL     vw 5112   5.939   0.369   1.087  0.0329  0.9067 -0.0213
 1279SOL     ow 5113   2.841   5.448   1.962 -0.5011  0.9558 -0.0428
 1279SOL     hw 5114   2.771   5.502   1.923 -1.5104 -0.3359 -0.0604
 1279SOL     hw 5115   2.909   5.447   1.895  0.5728  4.0395  0.8150
 1279SOL     vw 5116   2.841   5.455   1.948 -0.4926  1.1923  0.0680
 1280SOL     ow 5117   0.160   3.148   3.590  0.5857  0.6634 -0.2971
 1280SOL     hw 5118   0.148   3.202   3.511  0.4611  2.6734  1.0168
 1280SOL     hw 5119   0.243   3.177   3.627  0.8596 -0.5663  0.1052
 1280SOL     vw 5120   0.169   3.159   3.584  0.6053  0.7664 -0.0707
 1281SOL     ow 5121   3.359   1.755   0.738  0.4596  0.5478  0.4271
 1281SOL     hw 5122   3.282   1.789   0.692  3.0588  1.0714 -4.1420
 1281SOL     hw 5123   3.379   1.672   0.694  1.1597 -0.9135  3.2493
 1281SOL     vw 5124   3.352   1.749   0.727  0.8949  0.4241  0.1966
 1282SOL     ow 5125   6.783   0.619   2.764 -0.1776  0.0231  0.2898
 1282SOL     hw 5126   6.822   0.531   2.765 -0.8925 -0.3608 -1.5372
 1282SOL     hw 5127   6.775   0.641   2.671  0.1888  2.1380  0.7027
 1282SOL     vw 5128   6.787   0.610   2.751 -0.2239  0.2515  0.1032
 1283SOL     ow 5129   1.982   3.367   5.062  0.3832 -0.0305  0.2866
 1283SOL     hw 5130   1.904   3.419   5.081 -0.3740 -1.5858  1.7113
 1283SOL     hw 5131   2.049   3.403   5.120  0.9521  1.6592 -1.3188
 1283SOL     vw 5132   1.981   3.379   5.072  0.3584 -0.0126  0.2627
 1284SOL     ow 5133   1.099   6.148   0.490  0.1219  0.3771  0.2508
 1284SOL     hw 5134   1.058   6.128   0.574  1.3611  0.8453  0.9898
 1284SOL     hw 5135   1.092   6.067   0.440 -0.1337 -0.0847  1.0127
 1284SOL     vw 5136   1.093   6.135   0.494  0.2517  0.3779  0.4488
 1285SOL     ow 5137   1.191   4.295   4.908 -0.4047 -0.2565 -0.4736
 1285SOL     hw 5138   1.121   4.334   4.961 -0.3417  2.1147 -1.9566
 1285SOL     hw 5139   1.151   4.219   4.867 -3.1309  2.3403 -3.2174
 1285SOL     vw 5140   1.177   4.290   4.910 -0.7560  0.3989 -1.0312
 1286SOL     ow 5141   3.449   5.840   2.529  0.9487 -0.1076  0.0224
 1286SOL     hw 5142   3.358   5.870   2.535  0.9719 -0.0721  0.2244
 1286SOL     hw 5143   3.448   5.752   2.567  1.0516  0.0088  0.2971
 1286SOL     vw 5144   3.437   5.833   2.535  0.9655 -0.0875  0.0854
 1287SOL     ow 5145   4.038   2.361   5.961  0.2550  0.1960  0.4482
 1287SOL     hw 5146   4.028   2.451   5.929 -1.0437  1.0750  3.0356
 1287SOL     hw 5147   4.107   2.324   5.906 -1.2957  1.7164 -2.7583
 1287SOL     vw 5148   4.046   2.368   5.950 -0.1209  0.5125  0.3667
 1288SOL     ow 5149   1.375   1.281   3.069  0.2805 -0.0450  0.2245
 1288SOL     hw 5150   1.380   1.321   2.982 -0.1488 -2.6033 -1.0980
 1288SOL     hw 5151   1.281   1.281   3.090  0.3845  0.5785  0.7018
 1288SOL     vw 5152   1.363   1.286   3.060  0.2376 -0.3002  0.1129
 1289SOL     ow 5153   1.800   5.247   1.300 -0.4255 -0.0989  0.2375
 1289SOL     hw 5154   1.773   5.177   1.240  1.8738  0.6228 -1.7953
 1289SOL     hw 5155   1.718   5.288   1.327 -1.6063 -0.5671 -2.3330
 1289SOL     vw 5156   1.785   5.243   1.295 -0.2779 -0.0656 -0.3698
 1290SOL     ow 5157   4.291   3.998   1.360 -0.2878  0.4738  0.4257
 1290SOL     hw 5158   4.235   4.048   1.419 -1.2504 -0.1325  0.0627
 1290SOL     hw 5159   4.230   3.954   1.301  0.5486 -0.5807  0.3074
 1290SOL     vw 5160   4.276   3.999   1.360 -0.3042  0.2548  0.3623
 1291SOL     ow 5161   1.363   0.383   4.255 -0.2434  0.0866 -0.1996
 1291SOL     hw 5162   1.272   0.373   4.229 -0.1212  0.0735 -0.6305
 1291SOL     hw 5163   1.377   0.314   4.321 -0.5757  0.1714 -0.0412
 1291SOL     vw 5164   1.353   0.372   4.260 -0.2710  0.0960 -0.2358
 1292SOL     ow 5165   1.723   2.964   0.486  0.6178  0.1524 -0.0927
 1292SOL     hw 5166   1.712   2.971   0.580  1.0777  2.2806 -0.1513
 1292SOL     hw 5167   1.640   2.928   0.455  0.4639 -0.5707  1.1127
 1292SOL     vw 5168   1.710   2.960   0.494  0.6582  0.3377  0.0586
 1293SOL     ow 5169   5.026   3.885   6.909 -0.0109 -0.0955  0.1068
 1293SOL     hw 5170   5.081   3.924   6.977  1.8571 -0.1303 -1.3004
 1293SOL     hw 5171   4.966   3.827   6.957  2.4040 -1.5052  1.6274
 1293SOL     vw 5172   5.025   3.883   6.925  0.5543 -0.2862  0.1216
 1294SOL     ow 5173   1.939   6.830   2.216 -0.1354  0.0172 -0.2381
 1294SOL     hw 5174   2.031   6.855   2.204 -0.3462  1.2674  0.5857
 1294SOL     hw 5175   1.932   6.746   2.171  1.4850 -0.2578 -0.0657
 1294SOL     vw 5176   1.951   6.822   2.209  0.0506  0.1462 -0.1067
 1295SOL     ow 5177   3.942   6.998   4.529  0.3476 -0.1910 -0.4144
 1295SOL     hw 5178   3.958   7.064   4.597 -1.1113  0.2862 -0.4873
 1295SOL     hw 5179   3.922   6.918   4.578  2.5745 -0.7625 -0.3233
 1295SOL     vw 5180   3.941   6.996   4.545  0.4487 -0.2034 -0.4120
 1296SOL     ow 5181   4.907   1.115   2.449  0.3772 -0.3051  0.0992
 1296SOL     hw 5182   4.964   1.190   2.463  0.7437 -0.3634 -1.0266
 1296SOL     hw 5183   4.945   1.068   2.375 -3.3651  1.9565 -3.6961
 1296SOL     vw 5184   4.919   1.118   2.441 -0.0682 -0.0144 -0.5500
 1297SOL     ow 5185   1.451   3.101   2.291  0.0206  0.7141  0.0391
 1297SOL     hw 5186   1.437   3.088   2.385  1.8211  0.2735  0.2841
 1297SOL     hw 5187   1.516   3.035   2.267  1.1811  2.1838 -1.0603
 1297SOL     vw 5188   1.458   3.091   2.300  0.4112  0.8498 -0.0737
 1298SOL     ow 5189   5.609   0.378   3.140  0.0716  0.5039  0.1237
 1298SOL     hw 5190   5.693   0.341   3.168 -1.2674 -1.7670  1.4566
 1298SOL     hw 5191   5.614   0.377   3.044  1.1597 -0.6479  0.1640
 1298SOL     vw 5192   5.621   0.373   3.131  0.0386  0.0523  0.3049
 1299SOL     ow 5193   2.046   2.556   1.517  0.0496 -0.6823 -0.0161
 1299SOL     hw 5194   2.130   2.602   1.518 -0.1893 -0.2308  1.6641
 1299SOL     hw 5195   2.040   2.520   1.428  0.7207  1.6549 -1.0939
 1299SOL     vw 5196   2.056   2.557   1.505  0.1067 -0.3144  0.0634
 1300SOL     ow 5197   6.384   6.467   4.474  0.3959 -0.1021 -0.0244
 1300SOL     hw 5198   6.338   6.541   4.433 -1.3065  0.1609  2.1521
 1300SOL     hw 5199   6.465   6.458   4.424  0.0170  2.3382 -1.2270
 1300SOL     vw 5200   6.388   6.475   4.462  0.1214  0.2544  0.1044
 1301SOL     ow 5201   4.546   6.033   5.111  0.1661  0.2015 -0.0569
 1301SOL     hw 5202   4.537   6.123   5.142 -0.3156  0.1359  0.0078
 1301SOL     hw 5203   4.585   5.986   5.185 -1.4347 -0.0611  0.6833
 1301SOL     vw 5204   4.550   6.039   5.125 -0.1085  0.1581  0.0494
 1302SOL     ow 5205   5.409   0.667   6.536 -0.2739 -0.1980  0.3692
 1302SOL     hw 5206   5.391   0.718   6.457 -0.1627  0.0178  0.4831
 1302SOL     hw 5207   5.330   0.679   6.590 -0.6645 -0.9389 -0.0164
 1302SOL     vw 5208   5.396   0.676   6.532 -0.3107 -0.2673  0.3333
 1303SOL     ow 5209   3.339   5.914   0.878 -0.4410  0.3846 -0.7778
 1303SOL     hw 5210   3.303   5.945   0.962 -2.1472 -0.6579 -1.0808
 1303SOL     hw 5211   3.324   5.987   0.818  1.3297  1.3693 -0.0756
 1303SOL     vw 5212   3.332   5.928   0.881 -0.4324  0.3769 -0.7251
 1304SOL     ow 5213   4.447   6.351   4.257 -0.2658 -0.3348  0.3049
 1304SOL     hw 5214   4.519   6.338   4.195 -1.3544 -1.2012 -0.8502
 1304SOL     hw 5215   4.368   6.333   4.205 -1.2838 -0.0032  1.6843
 1304SOL     vw 5216   4.446   6.347   4.242 -0.5436 -0.4051  0.3345
 1305SOL     ow 5217   3.999   3.483   2.585 -0.4837 -0.1880  0.3305
 1305SOL     hw 5218   4.060   3.556   2.591  1.0287 -1.3907  0.0535
 1305SOL     hw 5219   4.020   3.441   2.502 -0.7577 -1.4243  0.8721
 1305SOL     vw 5220   4.010   3.487   2.575 -0.3204 -0.5097  0.3655
 1306SOL     ow 5221   1.495   2.370   0.300  0.6644 -0.7005  0.1328
 1306SOL     hw 5222   1.481   2.442   0.362  0.0182 -1.1249  0.4862
 1306SOL     hw 5223   1.450   2.396   0.220  2.6412  0.4768 -0.6702
 1306SOL     vw 5224   1.487   2.383   0.298  0.8401 -0.6012  0.0735
 1307SOL     ow 5225   2.689   2.487   5.742 -0.3595 -0.1893  0.4205
 1307SOL     hw 5226   2.674   2.431   5.667 -2.2286  0.6463  0.1259
 1307SOL     hw 5227   2.766   2.449   5.786 -0.2370 -1.6280 -0.9821
 1307SOL     vw 5228   2.697   2.475   5.738 -0.5900 -0.2688  0.1967
 1308SOL     ow 5229   6.702   3.187   5.186 -0.2365  0.6446  0.1840
 1308SOL     hw 5230   6.661   3.240   5.254  1.5971  1.0002  1.0659
 1308SOL     hw 5231   6.776   3.239   5.156 -0.2505 -0.0690 -1.2030
 1308SOL     vw 5232   6.706   3.201   5.191  0.0033  0.5975  0.1173
 1309SOL     ow 5233   6.157   6.140   5.213 -0.3493 -0.2101 -0.5528
 1309SOL     hw 5234   6.079   6.128   5.158 -0.3877 -2.4976 -0.0694
 1309SOL     hw 5235   6.205   6.058   5.205  0.7572  0.2342  1.1355
 1309SOL     vw 5236   6.153   6.128   5.204 -0.2084 -0.4535 -0.2661
 1310SOL     ow 5237   4.031   6.766   6.131  0.3638 -0.5249 -0.5237
 1310SOL     hw 5238   4.072   6.849   6.107 -1.9131  0.4563 -1.2991
 1310SOL     hw 5239   4.070   6.702   6.072  2.7693 -0.2368  0.6428
 1310SOL     vw 5240   4.041   6.768   6.120  0.3808 -0.3574 -0.4721
 1311SOL     ow 5241   6.172   2.269   2.678 -0.3677  0.4528  0.2326
 1311SOL     hw 5242   6.137   2.193   2.724 -0.7439 -0.0244 -0.8112
 1311SOL     hw 5243   6.109   2.339   2.697  0.1632  0.6227  1.4818
 1311SOL     vw 5244   6.159   2.269   2.687 -0.3474  0.4122  0.2596
 1312SOL     ow 5245   0.707   3.511   0.890  0.5837  0.2825 -0.3000
 1312SOL     hw 5246   0.722   3.521   0.984  1.7643  1.4692 -0.5764
 1312SOL     hw 5247   0.624   3.464   0.883  1.3700 -1.4795  1.3351
 1312SOL     vw 5248   0.698   3.506   0.901  0.8432  0.2066 -0.1207
 1313SOL     ow 5249   3.923   5.318   5.890 -0.1261 -0.3511  0.4134
 1313SOL     hw 5250   4.005   5.315   5.840 -0.2095 -0.2690  0.2726
 1313SOL     hw 5251   3.951   5.343   5.979 -0.2169  2.0594 -0.1458
 1313SOL     vw 5252   3.938   5.321   5.895 -0.1491 -0.0222  0.3209
 1314SOL     ow 5253   1.403   2.191   3.895  0.5068  0.1478 -0.5028
 1314SOL     hw 5254   1.386   2.133   3.970 -0.5930  0.5349 -0.4368
 1314SOL     hw 5255   1.481   2.240   3.921  1.1228 -0.8735 -0.3193
 1314SOL     vw 5256   1.411   2.190   3.908  0.4429  0.0640 -0.4699
 1315SOL     ow 5257   5.177   5.250   6.787 -0.0045 -0.8387 -0.3500
 1315SOL     hw 5258   5.161   5.339   6.757 -0.2503 -0.1610  1.6352
 1315SOL     hw 5259   5.268   5.232   6.764 -0.2334 -0.4503 -1.6104
 1315SOL     vw 5260   5.187   5.259   6.780 -0.0672 -0.6983 -0.2544
 1316SOL     ow 5261   1.192   4.774   0.280 -0.0079  0.1038  0.2552
 1316SOL     hw 5262   1.242   4.838   0.228 -3.0568  1.3766 -1.3710
 1316SOL     hw 5263   1.103   4.779   0.244 -0.8391 -3.7239  1.3880
 1316SOL     vw 5264   1.187   4.783   0.268 -0.5198 -0.2332  0.1901
 1317SOL     ow 5265   4.412   2.050   4.718 -0.0671  0.0036  0.6119
 1317SOL     hw 5266   4.377   1.973   4.673  0.8280  1.3113 -2.5574
 1317SOL     hw 5267   4.335   2.095   4.752 -1.2092  0.4985 -2.3368
 1317SOL     vw 5268   4.397   2.046   4.716 -0.0997  0.2413 -0.1953
 1318SOL     ow 5269   3.041   1.846   2.858 -0.0149 -0.1845  0.0813
 1318SOL     hw 5270   2.962   1.860   2.805 -0.1274 -1.5790 -0.1557
 1318SOL     hw 5271   3.109   1.895   2.813 -0.5267  0.2068 -0.2836
 1318SOL     vw 5272   3.039   1.854   2.845 -0.0974 -0.3169  0.0018
 1319SOL     ow 5273   0.431   4.558   5.267 -0.8822 -0.8893  0.3699
 1319SOL     hw 5274   0.495   4.630   5.263 -0.3411 -1.3413  0.8483
 1319SOL     hw 5275   0.422   4.530   5.176 -1.4781  0.1044  0.1017
 1319SOL     vw 5276   0.439   4.564   5.254 -0.8894 -0.8180  0.3974
 1320SOL     ow 5277   6.159   3.311   1.603 -0.2527  0.0274  0.2376
 1320SOL     hw 5278   6.221   3.325   1.674  1.2400 -0.1578 -0.9765
 1320SOL     hw 5279   6.151   3.398   1.562 -1.2013  0.1619  0.6850
 1320SOL     vw 5280   6.166   3.325   1.607 -0.1810  0.0209  0.1364
 1321SOL     ow 5281   7.046   3.889   0.062 -0.3073  0.1563 -0.2309
 1321SOL     hw 5282   7.043   3.825  -0.009 -0.3346  0.2651 -0.3276
 1321SOL     hw 5283   7.033   3.837   0.142  0.6937 -0.1030 -0.2238
 1321SOL     vw 5284   7.044   3.874   0.063 -0.1788  0.1363 -0.2427
 1322SOL     ow 5285   5.470   6.558   0.341 -0.1733 -0.0325  0.2391
 1322SOL     hw 5286   5.518   6.539   0.421 -1.8607 -1.0549  1.0653
 1322SOL     hw 5287   5.449   6.472   0.303 -2.5339  0.2642  0.6984
 1322SOL     vw 5288   5.473   6.544   0.346 -0.7074 -0.1283  0.4087
 1323SOL     ow 5289   6.096   1.677   4.864 -0.1586  0.3832 -0.0411
 1323SOL     hw 5290   6.088   1.662   4.958 -2.1551  1.8515  0.1044
 1323SOL     hw 5291   6.093   1.772   4.855 -0.0078  0.2670 -1.6021
 1323SOL     vw 5292   6.095   1.688   4.875 -0.4022  0.5616 -0.2279
 1324SOL     ow 5293   1.339   3.390   4.894 -0.3979  0.3471  0.0704
 1324SOL     hw 5294   1.289   3.401   4.976 -0.9526 -0.8612 -0.0861
 1324SOL     hw 5295   1.280   3.420   4.826 -0.4383  0.1138  0.0009
 1324SOL     vw 5296   1.325   3.395   4.896 -0.4764  0.1570  0.0405
 1325SOL     ow 5297   3.379   6.137   6.850  0.3513  0.4411  0.0260
 1325SOL     hw 5298   3.392   6.059   6.795  0.5086  0.3775  0.1527
 1325SOL     hw 5299   3.464   6.180   6.851  0.5704  0.0124  0.8713
 1325SOL     vw 5300   3.392   6.132   6.843  0.4008  0.3762  0.1540
 1326SOL     ow 5301   6.988   4.171   0.007 -0.0150  0.0171  0.0589
 1326SOL     hw 5302   6.911   4.155   0.060  0.6608 -0.4703  0.9108
 1326SOL     hw 5303   6.959   4.153  -0.083 -1.0057  0.2890  0.3097
 1326SOL     vw 5304   6.974   4.167   0.002 -0.0565 -0.0117  0.2044
 1327SOL     ow 5305   5.256   6.264   3.247 -0.3116 -0.0819 -0.4136
 1327SOL     hw 5306   5.236   6.178   3.285 -2.2239 -0.0864 -1.3186
 1327SOL     hw 5307   5.205   6.267   3.166 -2.4163  2.9117  0.8488
 1327SOL     vw 5308   5.247   6.253   3.241 -0.8414  0.3123 -0.3664
 1328SOL     ow 5309   5.740   5.024   5.052  0.3971  0.1135 -0.4258
 1328SOL     hw 5310   5.686   5.102   5.038  0.4106  0.4878  1.3613
 1328SOL     hw 5311   5.721   4.967   4.977 -3.0464 -0.0836  0.4334
 1328SOL     vw 5312   5.730   5.027   5.040 -0.0556  0.1366 -0.0765
 1329SOL     ow 5313   0.306   1.437   4.007  0.1901  0.2013 -0.1427
 1329SOL     hw 5314   0.331   1.368   4.069 -1.7366  0.6449  1.2495
 1329SOL     hw 5315   0.386   1.455   3.958  0.9392 -2.5287 -0.1173
 1329SOL     vw 5316   0.320   1.430   4.009  0.0347 -0.1004  0.0441
 1330SOL     ow 5317   0.903   6.579   6.222  0.8075 -0.1103  0.2992
 1330SOL     hw 5318   0.953   6.617   6.294  2.1952  0.4985 -0.9133
 1330SOL     hw 5319   0.863   6.501   6.258 -0.4229  1.3668  2.3338
 1330SOL     vw 5320   0.905   6.574   6.236  0.8283  0.1650  0.4077
 1331SOL     ow 5321   0.399   6.340   0.563  0.0200 -0.3836 -0.2350
 1331SOL     hw 5322   0.345   6.269   0.599 -0.9746  0.0540 -0.8179
 1331SOL     hw 5323   0.425   6.309   0.476 -1.4019  0.4096 -0.9833
 1331SOL     vw 5324   0.395   6.326   0.556 -0.2988 -0.2213 -0.4106
 1332SOL     ow 5325   0.987   6.237   1.409 -0.4868  0.0126  0.2169
 1332SOL     hw 5326   0.905   6.217   1.455 -0.5404 -0.7133 -0.1769
 1332SOL     hw 5327   1.032   6.153   1.402  0.2964  0.4060  0.4270
 1332SOL     vw 5328   0.982   6.223   1.414 -0.3905 -0.0310  0.1926
 1333SOL     ow 5329   6.161   6.445   3.879  0.6783  0.1712  0.2966
 1333SOL     hw 5330   6.120   6.469   3.796  0.7254 -0.9776 -0.0659
 1333SOL     hw 5331   6.136   6.354   3.894  2.4120 -0.3208  0.4575
 1333SOL     vw 5332   6.152   6.437   3.870  0.9129 -0.0453  0.2700
 1334SOL     ow 5333   4.704   1.087   1.979  1.0206 -0.1426  0.0102
 1334SOL     hw 5334   4.726   1.020   2.044 -1.1372 -1.2636 -0.3137
 1334SOL     hw 5335   4.677   1.037   1.902  0.2970  1.0989 -0.5692
 1334SOL     vw 5336   4.703   1.071   1.978  0.6404 -0.1267 -0.1090
 1335SOL     ow 5337   6.495   1.024   0.171 -0.9196  0.0014 -0.7182
 1335SOL     hw 5338   6.490   1.117   0.149  0.9905 -0.3669 -3.0002
 1335SOL     hw 5339   6.588   1.004   0.172 -1.3240 -2.3733 -2.5809
 1335SOL     vw 5340   6.506   1.034   0.168 -0.7210 -0.3604 -1.2650
 1336SOL     ow 5341   7.107   2.227   3.381  0.3152  0.7444  0.0682
 1336SOL     hw 5342   7.197   2.203   3.404 -0.1998 -0.1395  1.2491
 1336SOL     hw 5343   7.081   2.290   3.448 -0.3288  0.1216  0.4097
 1336SOL     vw 5344   7.116   2.232   3.392  0.1624  0.5456  0.2691
 1337SOL     ow 5345   6.011   6.912   3.175 -0.8877  0.5632 -0.4080
 1337SOL     hw 5346   5.981   6.843   3.234 -1.7139  1.4137  0.1953
 1337SOL     hw 5347   5.936   6.971   3.167 -2.1990 -1.3170 -5.1991
 1337SOL     vw 5348   5.997   6.911   3.182 -1.1699  0.4272 -0.9606
 1338SOL     ow 5349   5.771   3.400   0.430  0.2173 -0.2201 -0.0487
 1338SOL     hw 5350   5.797   3.491   0.415  1.5142 -0.5395  0.1041
 1338SOL     hw 5351   5.750   3.367   0.343 -0.6992  0.3414 -0.0510
 1338SOL     vw 5352   5.772   3.408   0.417  0.2675 -0.1882 -0.0288
 1339SOL     ow 5353   4.852   4.466   2.249  0.5066  0.1840 -0.0300
 1339SOL     hw 5354   4.800   4.494   2.325  0.0105  0.0590 -0.3193
 1339SOL     hw 5355   4.940   4.502   2.266  1.3580 -2.6208  2.2499
 1339SOL     vw 5356   4.857   4.475   2.261  0.5536 -0.2024  0.2327
 1340SOL     ow 5357   6.012   6.396   2.069  0.1654 -0.0543  0.0981
 1340SOL     hw 5358   6.068   6.319   2.053 -1.1562 -1.3055  1.1872
 1340SOL     hw 5359   5.939   6.385   2.008  0.1613  0.5567 -0.0095
 1340SOL     vw 5360   6.010   6.384   2.059 -0.0095 -0.1390  0.2277
 1341SOL     ow 5361   3.825   0.739   2.212  0.0101  0.0909 -0.0837
 1341SOL     hw 5362   3.788   0.654   2.189  2.3687 -1.4276  1.2682
 1341SOL     hw 5363   3.851   0.778   2.128 -0.4447 -0.8496 -0.6684
 1341SOL     vw 5364   3.824   0.733   2.198  0.2614 -0.2334  0.0175
 1342SOL     ow 5365   4.520   3.797   7.061 -0.7870  0.0487  0.1353
 1342SOL     hw 5366   4.426   3.791   7.076 -0.8070  1.3872  0.6420
 1342SOL     hw 5367   4.538   3.891   7.058  0.3981 -0.1856 -0.8478
 1342SOL     vw 5368   4.510   3.808   7.063 -0.6335  0.1944  0.0725
 1343SOL     ow 5369   2.206   2.403   1.706  0.7141 -0.3328 -0.0518
 1343SOL     hw 5370   2.283   2.350   1.684  0.8490 -0.0248 -0.3273
 1343SOL     hw 5371   2.241   2.473   1.762  0.5307 -0.5475  0.3392
 1343SOL     vw 5372   2.221   2.405   1.711  0.7077 -0.3206 -0.0365
 1344SOL     ow 5373   5.115   1.950   3.632  0.3469 -0.5832 -0.3843
 1344SOL     hw 5374   5.189   1.987   3.584  0.5533 -0.8714 -0.2937
 1344SOL     hw 5375   5.068   2.026   3.668  1.1363 -0.4318  0.3604
 1344SOL     vw 5376   5.119   1.965   3.631  0.4780 -0.6012 -0.2742
 1345SOL     ow 5377   0.426   4.919   0.187 -0.1109  0.0815  0.7372
 1345SOL     hw 5378   0.354   4.883   0.241 -1.2672 -3.6288 -2.7563
 1345SOL     hw 5379   0.502   4.865   0.211  0.0064  0.0959  0.3897
 1345SOL     vw 5380   0.426   4.907   0.198 -0.2480 -0.4060  0.2304
 1346SOL     ow 5381   2.620   6.178   4.763  0.1900  0.1896 -0.3325
 1346SOL     hw 5382   2.546   6.126   4.731 -0.5193  1.4278 -0.7991
 1346SOL     hw 5383   2.590   6.269   4.755  1.4201  0.6764  0.3640
 1346SOL     vw 5384   2.606   6.183   4.758  0.2586  0.4170 -0.3023
 1347SOL     ow 5385   6.971   6.435   0.157  0.9844  0.3394  0.1604
 1347SOL     hw 5386   6.926   6.502   0.107  2.5781  1.6687  0.4094
 1347SOL     hw 5387   6.984   6.474   0.243 -1.6153 -1.8592  1.7152
 1347SOL     vw 5388   6.967   6.449   0.162  0.8514  0.2246  0.3984
 1348SOL     ow 5389   3.684   5.687   0.093  0.0472  0.0595  0.0966
 1348SOL     hw 5390   3.741   5.691   0.170 -0.9518  0.2615  0.8496
 1348SOL     hw 5391   3.639   5.771   0.092 -0.3274 -0.1419 -0.4181
 1348SOL     vw 5392   3.686   5.698   0.103 -0.1340  0.0596  0.1280
 1349SOL     ow 5393   4.339   0.703   3.456 -0.3490  0.2941  0.7908
 1349SOL     hw 5394   4.412   0.765   3.458 -0.4737  0.4542  0.3631
 1349SOL     hw 5395   4.324   0.686   3.363  1.0770 -2.0058  0.8759
 1349SOL     vw 5396   4.347   0.709   3.444 -0.1774  0.0117  0.7455
 1350SOL     ow 5397   2.068   1.732   5.548 -0.0135  0.1223  0.1839
 1350SOL     hw 5398   2.143   1.686   5.585  1.1666  2.4869  0.8758
 1350SOL     hw 5399   2.097   1.823   5.538 -2.3002  0.8126 -0.9380
 1350SOL     vw 5400   2.081   1.738   5.551 -0.1595  0.5254  0.1268
 1351SOL     ow 5401   4.003   2.150   2.443 -0.1044  0.3846  0.1747
 1351SOL     hw 5402   3.929   2.189   2.396 -0.3920 -0.1758  0.1622
 1351SOL     hw 5403   3.966   2.122   2.526 -0.8148 -3.1472 -1.1442
 1351SOL     vw 5404   3.988   2.152   2.447 -0.2360 -0.1552 -0.0010
 1352SOL     ow 5405   1.278   2.921   1.199 -0.0417  0.0202  0.2190
 1352SOL     hw 5406   1.363   2.965   1.191  1.2695 -2.6503 -2.0830
 1352SOL     hw 5407   1.283   2.876   1.283  0.3542  0.7027  0.5786
 1352SOL     vw 5408   1.290   2.921   1.209  0.1836 -0.2421 -0.0373
 1353SOL     ow 5409   0.109   0.256   1.054  0.1875 -0.6068 -0.0705
 1353SOL     hw 5410   0.025   0.276   1.095  0.3582 -0.7029  0.3243
 1353SOL     hw 5411   0.171   0.253   1.126  0.6915  0.3107 -0.4450
 1353SOL     vw 5412   0.106   0.258   1.069  0.2765 -0.4985 -0.0678
 1354SOL     ow 5413   3.475   3.674   2.497  0.2678 -1.2068  0.3631
 1354SOL     hw 5414   3.440   3.745   2.551  0.4685 -1.5093  0.8978
 1354SOL     hw 5415   3.410   3.661   2.428  0.1391 -0.6371  0.3766
 1354SOL     vw 5416   3.462   3.681   2.495  0.2774 -1.1716  0.4355
 1355SOL     ow 5417   0.748   4.909   4.833  0.6746 -0.1188  0.5111
 1355SOL     hw 5418   0.784   4.865   4.910  0.7763 -0.4911  0.2522
 1355SOL     hw 5419   0.772   5.002   4.845  1.4430 -0.3069  0.4989
 1355SOL     vw 5420   0.756   4.916   4.845  0.7894 -0.1929  0.4754
 1356SOL     ow 5421   6.248   4.087   3.276  0.3425  0.5818 -0.0852
 1356SOL     hw 5422   6.188   4.069   3.349 -0.1691  2.0125 -0.1327
 1356SOL     hw 5423   6.319   4.138   3.315  0.6534  0.3718 -0.3725
 1356SOL     vw 5424   6.249   4.091   3.291  0.3161  0.7429 -0.1293
 1357SOL     ow 5425   0.222   1.997   1.588 -0.1123 -0.8225 -0.2895
 1357SOL     hw 5426   0.248   2.043   1.509  0.6404 -1.1526 -0.2411
 1357SOL     hw 5427   0.291   2.016   1.651 -1.5340  0.8655  0.8728
 1357SOL     vw 5428   0.234   2.006   1.586 -0.2006 -0.6434 -0.1297
 1358SOL     ow 5429   1.418   3.854   0.514  0.2953  0.4156  0.1185
 1358SOL     hw 5430   1.426   3.760   0.496  0.5888  0.6029 -0.7697
 1358SOL     hw 5431   1.341   3.882   0.465 -0.2151  0.5096  0.9523
 1358SOL     vw 5432   1.409   3.845   0.505  0.2666  0.4526  0.1114
 1359SOL     ow 5433   4.665   6.403   3.825  0.0504 -0.0159 -0.1576
 1359SOL     hw 5434   4.651   6.462   3.751 -0.6642  0.1520  0.1085
 1359SOL     hw 5435   4.639   6.454   3.901 -0.7940 -0.7536  0.0546
 1359SOL     vw 5436   4.660   6.418   3.825 -0.1552 -0.0911 -0.0945
 1360SOL     ow 5437   2.263   1.498   3.986  0.1437  0.1805  0.6353
 1360SOL     hw 5438   2.342   1.447   3.964 -0.3679 -0.3477 -0.0436
 1360SOL     hw 5439   2.296   1.576   4.029  1.2110  0.9627 -1.4414
 1360SOL     vw 5440   2.278   1.501   3.989  0.2171  0.2140  0.2718
 1361SOL     ow 5441   5.961   0.123   1.108 -0.5258  0.3236 -0.3913
 1361SOL     hw 5442   6.057   0.119   1.107 -0.4794  1.2960 -0.8265
 1361SOL     hw 5443   5.937   0.117   1.015 -1.0898 -3.2744 -0.1604
 1361SOL     vw 5444   5.971   0.122   1.095 -0.5939 -0.0224 -0.4182
 1362SOL     ow 5445   4.686   5.019   0.805 -0.1003 -0.0509 -0.4227
 1362SOL     hw 5446   4.675   4.985   0.894  0.9921  2.5863  0.8173
 1362SOL     hw 5447   4.597   5.030   0.772 -0.5069 -1.7958 -0.0079
 1362SOL     vw 5448   4.673   5.016   0.812 -0.0098  0.0670 -0.2044
 1363SOL     ow 5449   2.370   3.420   4.405  0.2777  0.4326 -0.7046
 1363SOL     hw 5450   2.389   3.393   4.315 -2.1181  1.5231 -1.6171
 1363SOL     hw 5451   2.403   3.510   4.410  0.9786  0.1574 -0.2718
 1363SOL     vw 5452   2.377   3.428   4.394  0.0541  0.5403 -0.7679
 1364SOL     ow 5453   1.718   6.024   4.773 -0.6657 -0.0653 -0.2445
 1364SOL     hw 5454   1.670   5.975   4.839  0.0516  1.5018  1.5347
 1364SOL     hw 5455   1.725   6.113   4.809  0.0367  0.7665 -2.2896
 1364SOL     vw 5456   1.713   6.030   4.787 -0.4783  0.2513 -0.2797
 1365SOL     ow 5457   2.336   1.843   4.389  0.2308 -0.4220 -0.9731
 1365SOL     hw 5458   2.329   1.773   4.455  2.6654  0.1371 -0.0111
 1365SOL     hw 5459   2.247   1.878   4.382 -0.0764 -0.1550  2.4850
 1365SOL     vw 5460   2.324   1.838   4.397  0.5115 -0.3130 -0.3901
 1366SOL     ow 5461   4.204   3.942   5.979 -0.0396 -0.9763  0.0735
 1366SOL     hw 5462   4.183   4.011   6.043 -0.0415 -0.2414 -0.7031
 1366SOL     hw 5463   4.123   3.893   5.970  0.7991 -3.2301  3.1124
 1366SOL     vw 5464   4.191   3.945   5.986  0.0708 -1.1766  0.3717
 1367SOL     ow 5465   2.931   2.472   2.341 -0.5090  0.0637  0.3095
 1367SOL     hw 5466   2.935   2.427   2.425 -0.2187  1.2913  0.9765
 1367SOL     hw 5467   2.997   2.541   2.347  1.6391 -1.5878 -2.0433
 1367SOL     vw 5468   2.940   2.475   2.353 -0.1873  0.0077  0.0870
 1368SOL     ow 5469   2.219   0.542   4.126  0.1372  0.0518  0.0566
 1368SOL     hw 5470   2.156   0.483   4.168  0.7921 -1.1884 -0.6622
 1368SOL     hw 5471   2.272   0.576   4.199  1.4395 -2.2875  0.3025
 1368SOL     vw 5472   2.218   0.539   4.141  0.3954 -0.4205 -0.0060
 1369SOL     ow 5473   0.797   5.098   5.888 -0.3500  0.1029 -0.3243
 1369SOL     hw 5474   0.755   5.070   5.969 -1.1050  1.0313 -0.3745
 1369SOL     hw 5475   0.795   5.194   5.892 -0.0660  0.1586 -1.2674
 1369SOL     vw 5476   0.791   5.107   5.899 -0.4122  0.2327 -0.4554
 1370SOL     ow 5477   6.484   3.109   0.812 -0.0454  0.4588  0.0267
 1370SOL     hw 5478   6.507   3.027   0.856  2.1048 -0.5609 -2.7036
 1370SOL     hw 5479   6.516   3.178   0.871  1.5249 -0.7734  0.6960
 1370SOL     vw 5480   6.491   3.107   0.826  0.4454  0.1619 -0.2452
 1371SOL     ow 5481   6.780   4.510   4.084 -0.5484 -0.7218  0.2584
 1371SOL     hw 5482   6.784   4.606   4.090  2.0430 -0.8003  0.9803
 1371SOL     hw 5483   6.811   4.490   3.996 -1.4343 -0.9080 -0.0189
 1371SOL     vw 5484   6.784   4.520   4.073 -0.3233 -0.7567  0.3169
 1372SOL     ow 5485   1.162   6.023   6.389  0.5617  0.3989 -0.6360
 1372SOL     hw 5486   1.078   5.981   6.411  1.1377 -0.0488  0.8492
 1372SOL     hw 5487   1.156   6.040   6.295 -1.0584  0.0712 -0.6267
 1372SOL     vw 5488   1.150   6.019   6.379  0.4240  0.2968 -0.4387
 1373SOL     ow 5489   5.616   2.461   1.437  0.4772 -0.0674 -0.2971
 1373SOL     hw 5490   5.614   2.555   1.424 -1.4898  0.2570  1.7446
 1373SOL     hw 5491   5.550   2.427   1.376 -1.9702  0.4464  1.8660
 1373SOL     vw 5492   5.607   2.469   1.428 -0.1054  0.0433  0.2578
 1374SOL     ow 5493   2.337   6.095   1.485 -0.1711  0.3931 -0.0636
 1374SOL     hw 5494   2.272   6.042   1.531 -0.3919  0.9629  0.2883
 1374SOL     hw 5495   2.404   6.114   1.550  0.5975 -0.5832 -0.5473
 1374SOL     vw 5496   2.337   6.090   1.500 -0.0988  0.3395 -0.0811
 1375SOL     ow 5497   5.691   4.417   4.423 -0.0125 -0.0120 -0.2285
 1375SOL     hw 5498   5.777   4.397   4.460  0.7627  1.2299 -1.2508
 1375SOL     hw 5499   5.702   4.503   4.383 -1.6486  0.0155 -0.6962
 1375SOL     vw 5500   5.704   4.426   4.423 -0.1259  0.1552 -0.4249
 1376SOL     ow 5501   1.484   2.074   0.248  0.0558 -0.4559  0.2155
 1376SOL     hw 5502   1.468   1.996   0.302 -1.2650 -0.4056 -0.0780
 1376SOL     hw 5503   1.410   2.078   0.188  0.5658  0.5313 -0.3790
 1376SOL     vw 5504   1.472   2.064   0.248 -0.0512 -0.3190  0.0983
 1377SOL     ow 5505   6.240   3.986   2.929 -0.1944  0.7103 -0.2529
 1377SOL     hw 5506   6.186   3.940   2.865  1.1472  2.1034 -2.5481
 1377SOL     hw 5507   6.229   4.079   2.907  0.5565  1.2239  1.3681
 1377SOL     vw 5508   6.232   3.992   2.918  0.0815  0.9620 -0.3418
 1378SOL     ow 5509   5.511   5.881   5.166  0.3426 -0.7552 -0.0606
 1378SOL     hw 5510   5.578   5.947   5.149  0.7940 -1.4285 -1.0092
 1378SOL     hw 5511   5.452   5.922   5.230  0.5379  0.6014 -0.7181
 1378SOL     vw 5512   5.512   5.895   5.172  0.4277 -0.6652 -0.2723
 1379SOL     ow 5513   4.007   0.513   2.712  0.0249  0.0486 -0.7779
 1379SOL     hw 5514   3.966   0.430   2.737 -3.7615  1.2146 -2.3925
 1379SOL     hw 5515   4.013   0.563   2.793  0.8970 -1.1756 -0.0523
 1379SOL     vw 5516   4.002   0.509   2.726 -0.3598  0.0409 -0.8951
 1380SOL     ow 5517   0.226   2.029   0.798  0.6055  0.0084 -0.6768
 1380SOL     hw 5518   0.131   2.021   0.788  0.5051 -2.1992  1.2458
 1380SOL     hw 5519   0.253   2.086   0.725 -2.1047  0.3494 -1.5264
 1380SOL     vw 5520   0.217   2.036   0.787  0.2347 -0.2379 -0.5352
 1381SOL     ow 5521   3.535   6.800   0.489  0.0783 -0.3515  0.1088
 1381SOL     hw 5522   3.516   6.709   0.508  0.0403 -0.5575 -0.8587
 1381SOL     hw 5523   3.592   6.797   0.413 -0.8185  0.4597 -0.6248
 1381SOL     vw 5524   3.540   6.788   0.481 -0.0449 -0.2716 -0.1156
 1382SOL     ow 5525   6.101   6.762   6.077  0.2595 -0.5622 -0.8846
 1382SOL     hw 5526   6.027   6.802   6.031  0.1213 -1.3733 -1.3970
 1382SOL     hw 5527   6.080   6.668   6.078  0.1127 -0.5531  1.1166
 1382SOL     vw 5528   6.088   6.755   6.071  0.2217 -0.6678 -0.6883
 1383SOL     ow 5529   0.346   2.648   2.790 -0.3795  0.6638 -0.4475
 1383SOL     hw 5530   0.317   2.613   2.875  1.8088 -0.6117 -0.1565
 1383SOL     hw 5531   0.373   2.737   2.809 -0.0705  0.4457  0.1687
 1383SOL     vw 5532   0.345   2.655   2.804 -0.0500  0.4667 -0.3277
 1384SOL     ow 5533   5.290   2.598   2.132  0.0654  0.3678  0.4737
 1384SOL     hw 5534   5.247   2.586   2.048 -1.3175 -0.0690  1.1992
 1384SOL     hw 5535   5.311   2.509   2.161  2.8940  0.6193 -0.5151
 1384SOL     vw 5536   5.287   2.584   2.125  0.2561  0.3433  0.4389
 1385SOL     ow 5537   6.782   5.357   1.098 -0.7571 -0.1500  0.0768
 1385SOL     hw 5538   6.691   5.361   1.069 -0.8100 -0.3908  0.2059
 1385SOL     hw 5539   6.833   5.368   1.017 -0.8594 -5.2543 -1.0177
 1385SOL     vw 5540   6.777   5.359   1.083 -0.7775 -0.8552 -0.0506
 1386SOL     ow 5541   7.055   2.481   4.268 -0.5705 -0.2886  0.3652
 1386SOL     hw 5542   6.961   2.497   4.276 -0.6402  0.8592 -2.0210
 1386SOL     hw 5543   7.084   2.465   4.358 -2.9025  0.0368  1.2461
 1386SOL     vw 5544   7.047   2.481   4.281 -0.8876 -0.0941  0.1664
 1387SOL     ow 5545   4.817   2.852   6.693  0.2852  0.4930 -0.3099
 1387SOL     hw 5546   4.900   2.850   6.742  0.4905  1.3527 -0.6183
 1387SOL     hw 5547   4.766   2.922   6.735  0.6726  1.6097 -1.6567
 1387SOL     vw 5548   4.821   2.861   6.705  0.3631  0.7538 -0.5283
 1388SOL     ow 5549   4.770   4.662   1.423  0.2629 -0.2136 -0.0259
 1388SOL     hw 5550   4.772   4.569   1.399  3.0939 -0.8398  2.1707
 1388SOL     hw 5551   4.846   4.700   1.380  0.1276  0.6953  0.5167
 1388SOL     vw 5552   4.780   4.655   1.414  0.6182 -0.1762  0.3355
 1389SOL     ow 5553   4.690   4.730   0.742  0.5638 -0.4684  0.0711
 1389SOL     hw 5554   4.616   4.754   0.686  2.0068  0.1184 -1.6560
 1389SOL     hw 5555   4.662   4.651   0.787 -0.7224 -0.8521 -1.3464
 1389SOL     vw 5556   4.677   4.723   0.741  0.5844 -0.4418 -0.3439
 1390SOL     ow 5557   4.838   3.686   7.023  0.3788  0.3020  0.6296
 1390SOL     hw 5558   4.863   3.687   7.116  2.7209  2.0018  0.0824
 1390SOL     hw 5559   4.888   3.614   6.985 -0.7285 -0.5193  0.6759
 1390SOL     vw 5560   4.848   3.677   7.030  0.5417  0.4179  0.5639
 1391SOL     ow 5561   4.978   3.947   2.808  0.0918 -0.1074 -0.3338
 1391SOL     hw 5562   5.058   3.970   2.762 -0.3961 -1.0486 -1.7032
 1391SOL     hw 5563   4.976   3.851   2.807 -0.9974 -0.1018 -0.2272
 1391SOL     vw 5564   4.988   3.937   2.802 -0.1163 -0.2307 -0.5004
 1392SOL     ow 5565   1.125   5.153   4.298  0.5300 -0.4030  0.7175
 1392SOL     hw 5566   1.060   5.215   4.332  1.8932  1.2621  0.4276
 1392SOL     hw 5567   1.097   5.068   4.332 -1.3272  0.3763  1.2616
 1392SOL     vw 5568   1.113   5.150   4.307  0.4649 -0.0806  0.7513
 1393SOL     ow 5569   4.897   5.237   6.298  0.0727  0.6015 -0.2883
 1393SOL     hw 5570   4.928   5.147   6.292  0.4372  0.6839  0.2334
 1393SOL     hw 5571   4.970   5.284   6.339 -0.5906  0.8849  0.6003
 1393SOL     vw 5572   4.911   5.231   6.303  0.0334  0.6497 -0.1020
 1394SOL     ow 5573   0.465   1.600   6.511 -0.8767 -0.3482 -0.0316
 1394SOL     hw 5574   0.498   1.614   6.600  2.1637 -1.6513 -0.8440
 1394SOL     hw 5575   0.393   1.539   6.521 -0.7993 -0.2159  1.5623
 1394SOL     vw 5576   0.460   1.594   6.524 -0.4653 -0.5026  0.0715
 1395SOL     ow 5577   6.392   3.620   4.387 -0.0174  0.1654 -0.0257
 1395SOL     hw 5578   6.437   3.704   4.392 -1.1898  0.8826 -1.0888
 1395SOL     hw 5579   6.412   3.587   4.299  0.7357 -0.8625  0.5077
 1395SOL     vw 5580   6.400   3.627   4.376 -0.0725  0.1245 -0.0956
 1396SOL     ow 5581   4.488   2.916   5.344 -0.5447  0.1128  0.1876
 1396SOL     hw 5582   4.544   2.960   5.280  0.8196  1.7086  2.3286
 1396SOL     hw 5583   4.493   2.823   5.321  0.5918  0.5493 -1.4780
 1396SOL     vw 5584   4.496   2.909   5.333 -0.2148  0.3808  0.2506
 1397SOL     ow 5585   2.009   6.047   6.182 -0.3756  0.0962  0.6743
 1397SOL     hw 5586   2.045   6.110   6.244 -1.7357  2.2600 -0.6088
 1397SOL     hw 5587   1.968   5.980   6.236  1.4410  0.0371  2.0854
 1397SOL     vw 5588   2.009   6.047   6.197 -0.3154  0.3743  0.6912
 1398SOL     ow 5589   4.345   0.628   7.115 -0.0006 -0.2898  0.6446
 1398SOL     hw 5590   4.309   0.676   7.040 -0.9503 -1.7831  0.0832
 1398SOL     hw 5591   4.406   0.565   7.076  0.3059 -0.3620  1.2358
 1398SOL     vw 5592   4.348   0.626   7.100 -0.0856 -0.4964  0.6485
 1399SOL     ow 5593   1.933   5.462   0.282  0.2097 -0.2124  0.0486
 1399SOL     hw 5594   1.932   5.456   0.377  0.8447 -0.7075  0.0267
 1399SOL     hw 5595   1.840   5.457   0.257 -0.1308  1.8633  0.7334
 1399SOL     vw 5596   1.920   5.460   0.291  0.2486 -0.0041  0.1360
 1400SOL     ow 5597   6.598   4.046   1.291  0.3509  1.1290  0.1967
 1400SOL     hw 5598   6.578   3.974   1.232 -0.3654 -0.0654  1.8305
 1400SOL     hw 5599   6.673   4.016   1.342  0.9819  2.1566 -0.0907
 1400SOL     vw 5600   6.605   4.033   1.290  0.3397  1.1070  0.3743
 1401SOL     ow 5601   2.952   4.491   6.968  0.4173  0.9090 -0.2491
 1401SOL     hw 5602   2.974   4.399   6.984 -1.0247  0.1456 -2.2736
 1401SOL     hw 5603   3.035   4.530   6.940  1.0865  0.3049  0.7933
 1401SOL     vw 5604   2.966   4.484   6.966  0.3154  0.7288 -0.3786
 1402SOL     ow 5605   3.599   5.311   2.986 -0.5907 -0.1673 -0.2962
 1402SOL     hw 5606   3.681   5.278   2.949  0.0775 -0.8711  1.7000
 1402SOL     hw 5607   3.548   5.338   2.909  0.2146 -2.6401 -1.8323
 1402SOL     vw 5608   3.603   5.310   2.971 -0.3964 -0.5865 -0.2354
 1403SOL     ow 5609   4.770   1.152   1.075 -0.4982  0.2355 -0.1634
 1403SOL     hw 5610   4.814   1.179   0.994 -1.5076 -1.7163 -1.4329
 1403SOL     hw 5611   4.687   1.200   1.075  1.1039  3.2962  1.8252
 1403SOL     vw 5612   4.765   1.162   1.064 -0.4201  0.3818 -0.0684
 1404SOL     ow 5613   3.654   5.134   2.216  0.9839  0.5242 -0.0892
 1404SOL     hw 5614   3.615   5.164   2.134 -1.1094  0.4567  0.8155
 1404SOL     hw 5615   3.603   5.178   2.284  1.7325 -0.5260  1.1867
 1404SOL     vw 5616   3.642   5.144   2.214  0.8063  0.3767  0.1985
 1405SOL     ow 5617   4.631   0.556   0.145  0.4912  0.4695  0.1599
 1405SOL     hw 5618   4.593   0.535   0.230  1.9504  1.0423  0.9916
 1405SOL     hw 5619   4.636   0.652   0.143 -2.7190  0.7655 -2.0754
 1405SOL     vw 5620   4.627   0.566   0.156  0.2604  0.5842 -0.0253
 1406SOL     ow 5621   4.759   4.811   2.771  0.0374 -0.2794 -0.1047
 1406SOL     hw 5622   4.683   4.787   2.719  0.3755  1.8704 -1.7283
 1406SOL     hw 5623   4.725   4.817   2.861 -1.1740 -1.4192 -0.4518
 1406SOL     vw 5624   4.744   4.809   2.776 -0.0777 -0.1462 -0.3647
 1407SOL     ow 5625   4.554   0.462   7.046 -0.5337  0.2823 -0.1754
 1407SOL     hw 5626   4.508   0.379   7.036  1.3643 -0.9395  0.5863
 1407SOL     hw 5627   4.551   0.479   7.140 -0.3248  0.7174 -0.2465
 1407SOL     vw 5628   4.548   0.453   7.057 -0.2558  0.1785 -0.0842
 1408SOL     ow 5629   2.445   5.652   0.393  0.0710  0.3092 -0.2261
 1408SOL     hw 5630   2.385   5.653   0.468  1.5961 -0.7291  1.0994
 1408SOL     hw 5631   2.391   5.622   0.320 -1.1781  0.0042  0.7720
 1408SOL     vw 5632   2.430   5.648   0.393  0.1074  0.1321  0.0805
 1409SOL     ow 5633   6.944   4.198   1.477 -0.0790 -0.2653 -0.1621
 1409SOL     hw 5634   6.965   4.108   1.450  0.9675  0.3428 -1.5121
 1409SOL     hw 5635   6.993   4.253   1.416 -0.1120  1.2407  1.1100
 1409SOL     vw 5636   6.953   4.193   1.465  0.0548  0.0138 -0.1724
 1410SOL     ow 5637   1.383   4.094   6.576 -0.5858  0.2019  0.1505
 1410SOL     hw 5638   1.446   4.165   6.562 -1.8465  1.2067 -0.6192
 1410SOL     hw 5639   1.384   4.080   6.671  1.5416 -0.5629  0.0811
 1410SOL     vw 5640   1.391   4.101   6.587 -0.4714  0.2334  0.0396
 1411SOL     ow 5641   0.813   2.160   2.949 -0.0444 -0.3146  0.2709
 1411SOL     hw 5642   0.831   2.174   2.856 -0.3205 -1.9998 -0.0684
 1411SOL     hw 5643   0.775   2.072   2.953 -1.5349  0.3434  1.7892
 1411SOL     vw 5644   0.810   2.150   2.937 -0.2775 -0.4503  0.4265
 1412SOL     ow 5645   2.419   6.446   0.391 -0.4643 -0.5819  0.2008
 1412SOL     hw 5646   2.400   6.396   0.470  0.1822 -0.9929  0.1067
 1412SOL     hw 5647   2.514   6.459   0.394 -0.5362  0.0453 -0.1268
 1412SOL     vw 5648   2.429   6.441   0.402 -0.3886 -0.5534  0.1452
 1413SOL     ow 5649   2.025   4.356   1.850  0.7864  0.3454  0.0980
 1413SOL     hw 5650   1.937   4.386   1.828  0.3979 -0.0429  1.0963
 1413SOL     hw 5651   2.021   4.332   1.942  1.7737 -0.2683  0.0046
 1413SOL     vw 5652   2.013   4.357   1.859  0.8655  0.2131  0.2173
 1414SOL     ow 5653   2.963   3.169   4.886  0.1962  0.0562 -0.3440
 1414SOL     hw 5654   2.919   3.086   4.907  0.2050  0.1642  0.1054
 1414SOL     hw 5655   2.957   3.221   4.966  1.7987 -0.2189 -0.0064
 1414SOL     vw 5656   2.956   3.165   4.899  0.4089  0.0341 -0.2401
 1415SOL     ow 5657   2.094   3.615   5.773 -0.2562  0.1108  0.0089
 1415SOL     hw 5658   2.040   3.623   5.851 -0.6137 -2.8791  0.1887
 1415SOL     hw 5659   2.048   3.551   5.719  0.8253  0.8822 -1.9535
 1415SOL     vw 5660   2.081   3.608   5.776 -0.1607 -0.1819 -0.2263
 1416SOL     ow 5661   2.875   1.477   3.815 -0.3057  0.3103 -0.7311
 1416SOL     hw 5662   2.852   1.570   3.811 -0.8025  0.1492 -2.1423
 1416SOL     hw 5663   2.860   1.452   3.906 -0.0468  1.6321 -0.3091
 1416SOL     vw 5664   2.870   1.486   3.826 -0.3371  0.4635 -0.8615
 1417SOL     ow 5665   7.002   5.135   1.414 -0.3846  0.0845 -0.0821
 1417SOL     hw 5666   7.048   5.055   1.440 -1.4640 -0.8640 -1.0040
 1417SOL     hw 5667   6.932   5.145   1.480 -0.1159  0.4016  0.1595
 1417SOL     vw 5668   6.998   5.126   1.426 -0.4919  0.0012 -0.1718
 1418SOL     ow 5669   2.293   6.582   0.881  0.5668 -0.4153 -0.0555
 1418SOL     hw 5670   2.318   6.592   0.789 -0.3182 -2.2193 -0.5243
 1418SOL     hw 5671   2.317   6.492   0.903 -0.6630 -0.5097  1.0203
 1418SOL     vw 5672   2.300   6.571   0.872  0.2878 -0.6657  0.0246
 1419SOL     ow 5673   6.284   1.489   5.295 -0.4413  0.1064  0.5508
 1419SOL     hw 5674   6.295   1.545   5.217  1.5276  0.4963  1.0333
 1419SOL     hw 5675   6.367   1.442   5.301 -1.7208 -2.2553  0.6923
 1419SOL     vw 5676   6.297   1.490   5.285 -0.3505 -0.1538  0.6332
 1420SOL     ow 5677   6.645   5.438   1.394  0.4916 -0.5426  0.6819
 1420SOL     hw 5678   6.720   5.406   1.444 -0.0206  0.9429  2.5011
 1420SOL     hw 5679   6.669   5.421   1.303  2.4386 -1.3337  1.2780
 1420SOL     vw 5680   6.658   5.431   1.389  0.6809 -0.4511  1.0006
 1421SOL     ow 5681   0.266   1.429   5.071  0.1745 -0.3857  0.0155
 1421SOL     hw 5682   0.346   1.482   5.066  0.9036 -1.3351  1.0290
 1421SOL     hw 5683   0.202   1.485   5.113  1.0432 -0.3885  1.4049
 1421SOL     vw 5684   0.268   1.443   5.076  0.3853 -0.5113  0.3326
 1422SOL     ow 5685   0.740   0.784   0.377 -0.4745 -0.2948 -0.3517
 1422SOL     hw 5686   0.653   0.797   0.339 -1.6165  0.5588  2.3091
 1422SOL     hw 5687   0.787   0.865   0.357 -0.7236 -0.2313 -0.6895
 1422SOL     vw 5688   0.735   0.796   0.369 -0.6581 -0.1739 -0.0452
 1423SOL     ow 5689   2.112   1.227   4.023  0.0813 -0.2730  0.5677
 1423SOL     hw 5690   2.184   1.170   4.049  0.1847  0.0444  0.9865
 1423SOL     hw 5691   2.033   1.178   4.048  0.0438 -1.5295 -1.6955
 1423SOL     vw 5692   2.111   1.213   4.030  0.0899 -0.3968  0.3242
 1424SOL     ow 5693   4.932   4.557   0.302 -0.2133 -0.6088  0.6794
 1424SOL     hw 5694   4.867   4.624   0.326  0.5872  0.4687 -0.0301
 1424SOL     hw 5695   4.898   4.519   0.221 -1.0567 -1.6408  1.4845
 1424SOL     vw 5696   4.919   4.561   0.295 -0.2191 -0.6030  0.6920
 1425SOL     ow 5697   5.434   3.421   3.498 -0.3906 -0.2854 -0.0423
 1425SOL     hw 5698   5.397   3.363   3.564  0.5089 -2.0984 -1.0470
 1425SOL     hw 5699   5.398   3.507   3.519 -3.6550 -1.5519  0.1845
 1425SOL     vw 5700   5.424   3.425   3.509 -0.7029 -0.6918 -0.1450
 1426SOL     ow 5701   0.263   0.883   2.331  0.2772  0.6667 -0.4473
 1426SOL     hw 5702   0.247   0.788   2.331  0.7577  0.5510  1.1846
 1426SOL     hw 5703   0.346   0.893   2.378  0.9385  1.8144 -1.7961
 1426SOL     vw 5704   0.272   0.872   2.337  0.4279  0.8029 -0.4101
 1427SOL     ow 5705   0.772   6.115   1.526 -0.0181  0.4571 -0.5493
 1427SOL     hw 5706   0.809   6.029   1.545  0.3718  0.9547  1.1138
 1427SOL     hw 5707   0.695   6.122   1.583  0.4473  1.5209 -0.0038
 1427SOL     vw 5708   0.767   6.105   1.536  0.0947  0.6633 -0.2580
 1428SOL     ow 5709   6.543   2.401   6.738 -0.0310 -0.6023 -0.5170
 1428SOL     hw 5710   6.474   2.398   6.673 -0.7826 -3.0914  0.2768
 1428SOL     hw 5711   6.587   2.485   6.724 -2.3756  0.4641 -1.8780
 1428SOL     vw 5712   6.540   2.411   6.728 -0.4394 -0.7900 -0.5915
 1429SOL     ow 5713   0.624   1.549   2.813 -0.0671  0.1620  0.2121
 1429SOL     hw 5714   0.594   1.473   2.763  0.3272 -0.9719  1.6125
 1429SOL     hw 5715   0.693   1.588   2.760 -1.7060  0.8547 -1.5193
 1429SOL     vw 5716   0.629   1.544   2.799 -0.2313  0.1038  0.1686
 1430SOL     ow 5717   5.484   4.903   2.326 -0.5700 -0.0275 -0.2965
 1430SOL     hw 5718   5.410   4.847   2.299  1.9026 -2.5014 -2.5960
 1430SOL     hw 5719   5.508   4.869   2.413  0.4798 -2.2539 -1.3839
 1430SOL     vw 5720   5.477   4.891   2.334 -0.1054 -0.6475 -0.7434
 1431SOL     ow 5721   3.393   0.242   4.684 -0.0270 -0.0821 -0.2383
 1431SOL     hw 5722   3.443   0.171   4.725  2.9288  2.4507  0.9616
 1431SOL     hw 5723   3.454   0.282   4.623 -0.1131  3.6416  1.8024
 1431SOL     vw 5724   3.407   0.238   4.682  0.3515  0.7434  0.1891
 1432SOL     ow 5725   1.887   6.951   6.657 -0.0991  0.2010 -0.3851
 1432SOL     hw 5726   1.907   6.859   6.672 -1.4756 -0.1429 -0.4706
 1432SOL     hw 5727   1.921   6.996   6.734 -0.2870 -0.5230  0.1311
 1432SOL     vw 5728   1.894   6.945   6.669 -0.3055  0.0601 -0.3285
 1433SOL     ow 5729   1.901   4.946   5.319 -0.6674  0.3603  0.1838
 1433SOL     hw 5730   1.950   4.920   5.397 -0.6496 -2.1125 -0.5766
 1433SOL     hw 5731   1.809   4.943   5.346 -0.6311  0.1625  0.2893
 1433SOL     vw 5732   1.895   4.943   5.333 -0.6602  0.0081  0.0978
 1434SOL     ow 5733   6.822   5.667   2.240 -0.3225  0.1360  0.3595
 1434SOL     hw 5734   6.802   5.720   2.163 -0.3983  0.8001  0.8237
 1434SOL     hw 5735   6.888   5.605   2.210 -1.3918 -0.5745 -0.6094
 1434SOL     vw 5736   6.828   5.666   2.226 -0.4735  0.1297  0.2928
 1435SOL     ow 5737   1.011   2.407   5.345  0.1166 -1.3702  0.2102
 1435SOL     hw 5738   1.012   2.364   5.431 -2.4212 -1.8761  0.0546
 1435SOL     hw 5739   1.012   2.500   5.364  0.9787 -1.4688  0.7105
 1435SOL     vw 5740   1.011   2.413   5.359 -0.1046 -1.4499  0.2558
 1436SOL     ow 5741   0.223   4.020   5.151 -0.2396  0.5280  0.0977
 1436SOL     hw 5742   0.187   3.963   5.084 -0.4506  0.7501  0.0234
 1436SOL     hw 5743   0.217   4.108   5.114  1.8563  0.4310 -0.6034
 1436SOL     vw 5744   0.218   4.024   5.138  0.0091  0.5445 -0.0045
 1437SOL     ow 5745   6.008   0.135   2.761 -0.3349 -0.6423 -0.0772
 1437SOL     hw 5746   6.058   0.065   2.720  2.0354 -0.5546  2.3385
 1437SOL     hw 5747   6.075   0.188   2.806 -2.3701  1.2220  0.9151
 1437SOL     vw 5748   6.024   0.133   2.762 -0.2906 -0.3847  0.3724
 1438SOL     ow 5749   4.711   1.559   3.821  0.4464  0.5979 -0.0226
 1438SOL     hw 5750   4.738   1.479   3.866  0.9894  0.3703 -0.7470
 1438SOL     hw 5751   4.703   1.535   3.729  1.1443  1.4938 -0.3341
 1438SOL     vw 5752   4.714   1.545   3.815  0.6099  0.6860 -0.1593
 1439SOL     ow 5753   3.185   1.852   1.429  0.3196 -0.6686 -0.5623
 1439SOL     hw 5754   3.158   1.912   1.359 -0.3171  0.6655  0.7666
 1439SOL     hw 5755   3.217   1.909   1.498 -0.5581 -1.8432  0.8619
 1439SOL     vw 5756   3.185   1.867   1.429  0.1197 -0.6477 -0.1991
 1440SOL     ow 5757   5.730   0.244   0.396 -0.0944  0.5392  0.6803
 1440SOL     hw 5758   5.782   0.207   0.468 -3.0190 -2.3525  1.5079
 1440SOL     hw 5759   5.794   0.262   0.327  2.2158 -1.0887  2.2680
 1440SOL     vw 5760   5.746   0.242   0.397 -0.1757 -0.0571  0.9990
 1441SOL     ow 5761   6.127   3.529   2.740  0.0099  0.4603 -0.1992
 1441SOL     hw 5762   6.071   3.466   2.785  0.8442 -0.2618 -0.1260
 1441SOL     hw 5763   6.071   3.568   2.673 -0.4752 -0.5786 -0.4288
 1441SOL     vw 5764   6.112   3.526   2.737  0.0560  0.2279 -0.2198
 1442SOL     ow 5765   2.728   3.621   4.348  0.1501  0.5312  0.3986
 1442SOL     hw 5766   2.708   3.598   4.257 -1.6223 -3.3140  1.5992
 1442SOL     hw 5767   2.651   3.669   4.378 -0.0940  0.1067  0.4418
 1442SOL     vw 5768   2.715   3.625   4.340 -0.1158 -0.0321  0.5627
 1443SOL     ow 5769   6.218   3.718   0.991 -0.3810 -0.2091 -0.1885
 1443SOL     hw 5770   6.292   3.676   1.035  0.7583  1.4643 -0.4137
 1443SOL     hw 5771   6.208   3.802   1.037  0.4756  1.3532 -2.6350
 1443SOL     vw 5772   6.227   3.724   1.003 -0.1173  0.2178 -0.5410
 1444SOL     ow 5773   5.385   7.010   4.021  0.1694 -0.2546  0.1911
 1444SOL     hw 5774   5.299   6.992   4.059 -0.3305  0.0408 -0.7574
 1444SOL     hw 5775   5.406   7.099   4.050 -0.4592  0.1778 -0.6413
 1444SOL     vw 5776   5.377   7.020   4.030  0.0203 -0.1588 -0.0439
 1445SOL     ow 5777   6.011   6.498   4.250  0.9778  0.0894  0.5851
 1445SOL     hw 5778   5.960   6.511   4.330  0.7239  0.1975  0.4070
 1445SOL     hw 5779   6.035   6.586   4.222 -1.3351  0.3007 -1.0073
 1445SOL     vw 5780   6.008   6.511   4.257  0.6390  0.1316  0.3510
 1446SOL     ow 5781   4.292   4.918   4.086 -0.1722  0.3489 -0.1006
 1446SOL     hw 5782   4.327   4.837   4.050 -2.6419  0.0982 -2.1589
 1446SOL     hw 5783   4.221   4.942   4.028  0.0747  3.7213  0.7836
 1446SOL     vw 5784   4.287   4.911   4.074 -0.4652  0.7610 -0.2553
 1447SOL     ow 5785   0.154   4.417   5.295  0.8841 -0.2852 -0.0734
 1447SOL     hw 5786   0.184   4.351   5.234  1.5520 -0.1102  0.0547
 1447SOL     hw 5787   0.059   4.424   5.279  0.7302 -1.5505  0.1948
 1447SOL     vw 5788   0.145   4.409   5.285  0.9519 -0.4292 -0.0210
 1448SOL     ow 5789   4.106   0.766   3.551  0.5405  0.5883  0.3510
 1448SOL     hw 5790   4.186   0.737   3.508 -0.4390  0.3621 -1.3981
 1448SOL     hw 5791   4.122   0.752   3.644  3.0911  1.9453  0.2006
 1448SOL     vw 5792   4.118   0.761   3.558  0.7477  0.7375  0.1005
 1449SOL     ow 5793   3.643   2.322   4.592 -0.4633  0.5392 -0.4494
 1449SOL     hw 5794   3.555   2.342   4.623 -0.5564  0.4774 -0.6748
 1449SOL     hw 5795   3.697   2.325   4.671 -0.9596 -1.2076  0.0118
 1449SOL     vw 5796   3.639   2.325   4.607 -0.5410  0.3005 -0.4184
 1450SOL     ow 5797   1.374   4.376   4.685  0.4652  0.2058  0.4002
 1450SOL     hw 5798   1.301   4.366   4.624  0.9561  1.5370 -0.4573
 1450SOL     hw 5799   1.443   4.417   4.633  2.2993 -2.0956  0.8624
 1450SOL     vw 5800   1.374   4.380   4.671  0.7719  0.0777  0.3481
 1451SOL     ow 5801   1.214   3.489   4.686  0.2015 -0.2826  0.3840
 1451SOL     hw 5802   1.186   3.578   4.705 -0.2368 -0.1741 -0.7117
 1451SOL     hw 5803   1.245   3.492   4.595 -0.5530 -1.4134  0.0678
 1451SOL     vw 5804   1.215   3.501   4.677  0.0442 -0.4175  0.1974
 1452SOL     ow 5805   2.260   6.939   1.569 -0.9769 -0.3710 -0.3027
 1452SOL     hw 5806   2.171   6.937   1.604 -0.9281  1.2124 -0.0113
 1452SOL     hw 5807   2.316   6.938   1.647 -0.7636 -0.5432 -0.4588
 1452SOL     vw 5808   2.256   6.939   1.584 -0.9423 -0.1853 -0.2849
 1453SOL     ow 5809   5.860   0.221   1.333  0.4895  0.7600  0.5778
 1453SOL     hw 5810   5.892   0.198   1.246  0.4973 -1.8238  1.1837
 1453SOL     hw 5811   5.940   0.240   1.383  0.5804  1.0200  0.3335
 1453SOL     vw 5812   5.875   0.220   1.328  0.5026  0.4534  0.6255
 1454SOL     ow 5813   3.770   4.637   6.332  0.1594  0.0755 -0.1521
 1454SOL     hw 5814   3.856   4.655   6.294  0.0259  1.0026 -0.0543
 1454SOL     hw 5815   3.728   4.578   6.270 -0.3641  2.1823 -1.9188
 1454SOL     vw 5816   3.776   4.632   6.319  0.0727  0.4759 -0.3724
 1455SOL     ow 5817   3.776   6.744   3.025 -0.3574  0.4534  0.5333
 1455SOL     hw 5818   3.737   6.695   2.953  0.3586 -0.0177  0.4611
 1455SOL     hw 5819   3.734   6.709   3.104  0.0365 -0.1812  0.4692
 1455SOL     vw 5820   3.765   6.733   3.026 -0.2110  0.3073  0.5153
 1456SOL     ow 5821   3.136   4.003   3.533 -0.1522  0.3142  0.1988
 1456SOL     hw 5822   3.201   3.995   3.464 -1.5647 -1.0701 -1.0753
 1456SOL     hw 5823   3.173   4.066   3.595  1.7170  0.6510 -1.1787
 1456SOL     vw 5824   3.149   4.010   3.532 -0.0919  0.1760 -0.1509
 1457SOL     ow 5825   6.021   1.569   5.364 -0.1917 -1.1570  0.1141
 1457SOL     hw 5826   6.027   1.649   5.416  2.9284 -1.8498  1.0439
 1457SOL     hw 5827   6.007   1.599   5.274  1.4275  0.5266  0.3710
 1457SOL     vw 5828   6.020   1.583   5.359  0.4337 -1.0263  0.2704
 1458SOL     ow 5829   2.434   5.437   1.849 -0.6983  0.5229 -0.3146
 1458SOL     hw 5830   2.375   5.476   1.914 -0.4546  0.2251  0.0911
 1458SOL     hw 5831   2.377   5.383   1.795 -0.7277 -0.1688  0.3938
 1458SOL     vw 5832   2.418   5.435   1.850 -0.6701  0.3922 -0.1676
 1459SOL     ow 5833   6.247   5.484   7.017 -0.6385 -0.8244 -0.2941
 1459SOL     hw 5834   6.233   5.423   7.089 -3.1314 -0.7187 -0.5966
 1459SOL     hw 5835   6.163   5.530   7.008 -0.1573 -0.2870 -2.7402
 1459SOL     vw 5836   6.234   5.482   7.025 -0.9038 -0.7396 -0.6568
 1460SOL     ow 5837   2.297   3.034   6.927 -0.3424  0.3683  0.1262
 1460SOL     hw 5838   2.289   3.080   6.844 -0.4079  0.1783  0.0267
 1460SOL     hw 5839   2.366   3.081   6.975  0.1842  0.0584 -0.3137
 1460SOL     vw 5840   2.305   3.046   6.923 -0.2816  0.3023  0.0551
 1461SOL     ow 5841   5.056   1.384   6.403 -0.2408 -0.0730  0.0513
 1461SOL     hw 5842   5.133   1.330   6.420  1.4559  1.3963 -2.3113
 1461SOL     hw 5843   5.033   1.366   6.312 -1.3305  1.1338  0.0538
 1461SOL     vw 5844   5.063   1.375   6.393 -0.1605  0.2801 -0.2601
 1462SOL     ow 5845   2.046   1.756   0.788  0.0042  1.2706 -0.4735
 1462SOL     hw 5846   2.078   1.723   0.704  1.7920  2.7181 -0.4366
 1462SOL     hw 5847   2.023   1.677   0.837  1.6973  0.2064 -1.2902
 1462SOL     vw 5848   2.047   1.741   0.783  0.4634  1.3211 -0.5764
 1463SOL     ow 5849   5.140   3.955   4.893  0.7385  0.3852  0.1910
 1463SOL     hw 5850   5.134   4.008   4.973  1.0955 -0.2264  0.6347
 1463SOL     hw 5851   5.097   4.007   4.826  0.0871  0.7361  0.8711
 1463SOL     vw 5852   5.134   3.969   4.895  0.6998  0.3508  0.3393
 1464SOL     ow 5853   2.848   3.366   4.704 -0.4257  0.8176  0.6216
 1464SOL     hw 5854   2.816   3.334   4.620  1.8940  1.8007 -0.7097
 1464SOL     hw 5855   2.875   3.287   4.751 -0.6005  0.3577 -0.0468
 1464SOL     vw 5856   2.847   3.351   4.699 -0.1426  0.8867  0.3576
 1465SOL     ow 5857   1.442   4.135   0.630 -0.0896 -0.0992 -0.2816
 1465SOL     hw 5858   1.347   4.130   0.620 -0.0702 -0.8703 -0.1492
 1465SOL     hw 5859   1.456   4.212   0.686 -0.5936  0.3503 -0.7545
 1465SOL     vw 5860   1.431   4.145   0.636 -0.1535 -0.1416 -0.3265
 1466SOL     ow 5861   0.648   5.599   5.216  0.0349 -0.0193 -0.1609
 1466SOL     hw 5862   0.617   5.521   5.170  1.8279 -2.2866  2.1691
 1466SOL     hw 5863   0.740   5.581   5.236  0.0785  1.9425  1.9418
 1466SOL     vw 5864   0.656   5.587   5.213  0.2772 -0.0596  0.4241
 1467SOL     ow 5865   3.063   2.431   2.036 -0.3042 -0.5455 -0.0157
 1467SOL     hw 5866   3.072   2.381   1.955  0.2561  0.8096 -0.8232
 1467SOL     hw 5867   3.054   2.522   2.008 -1.1914 -0.1561  1.4135
 1467SOL     vw 5868   3.063   2.437   2.022 -0.3473 -0.3153  0.0664
 1468SOL     ow 5869   5.376   0.374   1.233  0.0092 -0.4144 -0.4542
 1468SOL     hw 5870   5.339   0.347   1.149 -2.6951 -2.4034  1.2357
 1468SOL     hw 5871   5.372   0.296   1.288 -0.6897  1.4139  2.2795
 1468SOL     vw 5872   5.371   0.360   1.229 -0.4396 -0.4356  0.1295
 1469SOL     ow 5873   0.496   4.912   4.551  0.4128  0.5184  0.3979
 1469SOL     hw 5874   0.510   4.858   4.473 -0.1320  0.4818  0.3213
 1469SOL     hw 5875   0.401   4.912   4.564  0.5040  0.4113  1.1440
 1469SOL     vw 5876   0.485   4.905   4.543  0.3530  0.4995  0.4864
 1470SOL     ow 5877   7.115   0.986   1.937 -0.4006  0.5933 -0.1940
 1470SOL     hw 5878   7.085   1.014   2.024 -0.0016 -1.2500  0.5696
 1470SOL     hw 5879   7.108   0.891   1.938 -1.0649  0.5725 -2.4638
 1470SOL     vw 5880   7.110   0.977   1.949 -0.4356  0.3474 -0.3927
 1471SOL     ow 5881   4.326   5.586   1.942  0.3704  0.3345 -0.1714
 1471SOL     hw 5882   4.383   5.532   1.887 -1.9667  0.4666 -2.9742
 1471SOL     hw 5883   4.237   5.568   1.910 -0.7355  4.0778  0.2504
 1471SOL     vw 5884   4.322   5.577   1.930 -0.0839  0.8461 -0.4855
 1472SOL     ow 5885   3.816   5.275   3.159 -0.0986 -0.7598 -0.1010
 1472SOL     hw 5886   3.876   5.203   3.141  2.7029  1.7084 -1.5013
 1472SOL     hw 5887   3.861   5.329   3.223 -0.5222  1.3975 -1.5090
 1472SOL     vw 5888   3.830   5.273   3.165  0.2152 -0.1497 -0.4715
 1473SOL     ow 5889   3.276   3.049   3.048  0.3059  0.4683  0.7124
 1473SOL     hw 5890   3.260   3.143   3.041  1.9000  0.6635 -1.5043
 1473SOL     hw 5891   3.194   3.008   3.019 -0.4277  1.1544  1.7764
 1473SOL     vw 5892   3.263   3.056   3.043  0.4194  0.5845  0.5603
 1474SOL     ow 5893   1.890   0.778   4.891 -0.1975  0.6108 -0.3414
 1474SOL     hw 5894   1.828   0.761   4.962  0.7316 -0.1301  0.3296
 1474SOL     hw 5895   1.930   0.862   4.914 -1.7629  1.6974 -1.4080
 1474SOL     vw 5896   1.887   0.787   4.903 -0.2814  0.6564 -0.3939
 1475SOL     ow 5897   5.117   6.891   0.149  0.5242  0.7102  0.1165
 1475SOL     hw 5898   5.024   6.870   0.156  1.2083 -3.2850 -0.7536
 1475SOL     hw 5899   5.130   6.916   0.058  0.2818  1.9155  0.3851
 1475SOL     vw 5900   5.107   6.892   0.138  0.5825  0.3421  0.0371
 1476SOL     ow 5901   0.814   0.361   2.380 -0.0478 -0.7585 -0.6029
 1476SOL     hw 5902   0.839   0.342   2.290  1.0872 -2.7719  0.0779
 1476SOL     hw 5903   0.872   0.433   2.406 -1.1959  0.6512 -1.8024
 1476SOL     vw 5904   0.825   0.368   2.372 -0.0495 -0.8382 -0.6714
 1477SOL     ow 5905   5.801   5.849   2.727 -0.1068 -0.2827 -0.0970
 1477SOL     hw 5906   5.822   5.932   2.771 -0.1146  0.1331 -0.8649
 1477SOL     hw 5907   5.706   5.846   2.725 -0.1558 -1.1730  1.5102
 1477SOL     vw 5908   5.792   5.860   2.733 -0.1142 -0.3452  0.0138
 1478SOL     ow 5909   2.212   5.258   3.926  0.3818 -0.0173  0.5371
 1478SOL     hw 5910   2.117   5.266   3.933  0.2972 -0.8858  0.4785
 1478SOL     hw 5911   2.245   5.344   3.951 -0.4522  0.5362 -0.2056
 1478SOL     vw 5912   2.204   5.270   3.931  0.2606 -0.0587  0.4313
 1479SOL     ow 5913   5.544   2.821   4.650  0.2637 -0.0170 -0.6160
 1479SOL     hw 5914   5.508   2.906   4.675  0.4544 -0.3154  0.7977
 1479SOL     hw 5915   5.631   2.819   4.691  0.4341 -0.7116 -0.9945
 1479SOL     vw 5916   5.551   2.832   4.659  0.3111 -0.1481 -0.4795
 1480SOL     ow 5917   6.129   6.511   2.389  0.4537  0.6691 -0.3975
 1480SOL     hw 5918   6.211   6.465   2.406 -0.8195 -1.0200  1.5262
 1480SOL     hw 5919   6.114   6.563   2.468 -1.3635 -0.7288  0.2373
 1480SOL     vw 5920   6.138   6.512   2.401  0.0463  0.2620 -0.0600
 1481SOL     ow 5921   5.417   2.485   5.226  0.5291 -0.5089  0.7537
 1481SOL     hw 5922   5.350   2.551   5.245 -1.9222 -2.1807 -1.4846
 1481SOL     hw 5923   5.476   2.529   5.165 -0.3837 -0.0050  0.2147
 1481SOL     vw 5924   5.416   2.500   5.221  0.0854 -0.6632  0.3874
 1482SOL     ow 5925   6.391   5.102   3.746  0.3501  0.5571 -0.0220
 1482SOL     hw 5926   6.366   5.095   3.838  0.9393  2.1868  0.3010
 1482SOL     hw 5927   6.445   5.181   3.742  1.9914 -0.5657 -1.4212
 1482SOL     vw 5928   6.395   5.111   3.758  0.6444  0.6242 -0.1640
 1483SOL     ow 5929   0.466   6.216   6.332  0.0360 -1.5262 -0.1283
 1483SOL     hw 5930   0.464   6.190   6.424 -0.0264 -0.4623  0.1857
 1483SOL     hw 5931   0.520   6.295   6.330 -1.8598 -0.1815 -0.6283
 1483SOL     vw 5932   0.473   6.223   6.344 -0.2224 -1.2083 -0.1531
 1484SOL     ow 5933   3.970   6.890   4.291  0.2663  0.6841 -0.0047
 1484SOL     hw 5934   3.955   6.937   4.373 -0.0088  0.8407 -0.1402
 1484SOL     hw 5935   3.884   6.856   4.267  0.0676  1.7065 -0.8665
 1484SOL     vw 5936   3.956   6.892   4.299  0.2038  0.8397 -0.1364
 1485SOL     ow 5937   4.685   2.883   0.837 -0.8079 -0.2739  1.0477
 1485SOL     hw 5938   4.621   2.951   0.814 -0.4895 -0.5766 -0.8853
 1485SOL     hw 5939   4.674   2.816   0.769  2.8873  0.5566 -0.6374
 1485SOL     vw 5940   4.675   2.883   0.825 -0.2782 -0.2042  0.5704
 1486SOL     ow 5941   5.397   3.274   3.710  1.1729  0.3491 -0.9065
 1486SOL     hw 5942   5.403   3.334   3.784  0.2337  1.1415 -1.4449
 1486SOL     hw 5943   5.470   3.213   3.722  1.3785  0.8154  0.3432
 1486SOL     vw 5944   5.407   3.274   3.721  1.0762  0.5152 -0.8126
 1487SOL     ow 5945   1.718   4.193   1.560  0.5069  0.3191  0.2774
 1487SOL     hw 5946   1.644   4.185   1.500  1.2362 -2.3817 -0.4245
 1487SOL     hw 5947   1.722   4.286   1.581 -2.1816  0.7714 -0.7639
 1487SOL     vw 5948   1.709   4.204   1.555  0.2484  0.0224  0.0474
 1488SOL     ow 5949   5.845   5.807   3.379  0.0117  0.0953 -0.0663
 1488SOL     hw 5950   5.885   5.882   3.335 -1.0473  0.0438 -1.1892
 1488SOL     hw 5951   5.757   5.837   3.402  0.1351 -0.2892  0.9671
 1488SOL     vw 5952   5.839   5.821   3.376 -0.1116  0.0377 -0.0782
 1489SOL     ow 5953   0.294   2.167   1.387 -0.0433 -0.5061 -0.1154
 1489SOL     hw 5954   0.240   2.237   1.349  0.4209  0.7552  1.4391
 1489SOL     hw 5955   0.383   2.201   1.383  0.3429 -1.5238 -0.3932
 1489SOL     vw 5956   0.298   2.181   1.382  0.0689 -0.4739  0.0530
 1490SOL     ow 5957   6.086   2.238   6.099  0.1605  0.7209 -0.3996
 1490SOL     hw 5958   6.083   2.278   6.013 -1.4691  0.5375 -0.4527
 1490SOL     hw 5959   6.177   2.249   6.127  0.3147  2.3568 -1.3872
 1490SOL     vw 5960   6.098   2.245   6.092 -0.0341  0.9125 -0.5367
 1491SOL     ow 5961   5.501   6.337   3.430  0.5326 -0.2669 -0.2846
 1491SOL     hw 5962   5.596   6.341   3.418  0.3819  1.4559 -1.2668
 1491SOL     hw 5963   5.489   6.287   3.511  2.5890  4.0508  3.1224
 1491SOL     vw 5964   5.512   6.331   3.439  0.7842  0.5302  0.0353
 1492SOL     ow 5965   4.112   3.223   3.043  0.1791 -0.6480  0.5137
 1492SOL     hw 5966   4.170   3.173   3.100 -0.2069  0.0822  1.5662
 1492SOL     hw 5967   4.100   3.167   2.966 -1.4962 -2.9298  2.3018
 1492SOL     vw 5968   4.118   3.209   3.040 -0.0927 -0.8527  0.8886
 1493SOL     ow 5969   4.364   1.525   6.995 -0.0336 -0.2852 -0.7172
 1493SOL     hw 5970   4.457   1.541   6.980 -0.1793 -0.4182 -1.8347
 1493SOL     hw 5971   4.357   1.431   7.006 -0.1244 -0.3677 -1.4113
 1493SOL     vw 5972   4.376   1.515   6.994 -0.0648 -0.3136 -0.9561
 1494SOL     ow 5973   5.359   2.553   4.429 -0.2480  0.7448 -0.4266
 1494SOL     hw 5974   5.285   2.542   4.489 -0.1139  0.0570 -0.3707
 1494SOL     hw 5975   5.322   2.543   4.342 -0.0168 -1.0145 -0.3559
 1494SOL     vw 5976   5.345   2.550   4.425 -0.1998  0.4220 -0.4098
 1495SOL     ow 5977   2.921   5.883   7.050 -0.7357  0.0249 -0.4321
 1495SOL     hw 5978   2.960   5.798   7.031 -0.2583 -0.0253  0.6998
 1495SOL     hw 5979   2.838   5.862   7.092  0.7203 -0.0087  2.7328
 1495SOL     vw 5980   2.915   5.869   7.053 -0.4804  0.0138  0.1349
 1496SOL     ow 5981   3.442   0.069   3.762 -0.7921 -0.2969 -0.7337
 1496SOL     hw 5982   3.387  -0.006   3.741 -2.2862  0.9166 -1.3891
 1496SOL     hw 5983   3.400   0.109   3.838 -1.3174  1.0711 -1.6938
 1496SOL     vw 5984   3.429   0.065   3.769 -1.0585  0.0437 -0.9468
 1497SOL     ow 5985   6.423   5.232   0.301 -0.3195  0.5307  0.0043
 1497SOL     hw 5986   6.507   5.224   0.256  0.1609  1.2194  0.7596
 1497SOL     hw 5987   6.367   5.167   0.258  0.4637  0.3653 -0.7984
 1497SOL     vw 5988   6.427   5.222   0.289 -0.1528  0.5999 -0.0019
 1498SOL     ow 5989   0.603   0.501   2.158  0.2774  0.2955  1.0818
 1498SOL     hw 5990   0.683   0.450   2.158 -0.0802 -0.3499 -0.7507
 1498SOL     hw 5991   0.628   0.585   2.118 -0.1938 -0.4443 -0.9152
 1498SOL     vw 5992   0.617   0.506   2.152  0.1680  0.1128  0.5764
 1499SOL     ow 5993   3.223   3.566   5.025 -0.4720  1.0807 -0.4230
 1499SOL     hw 5994   3.290   3.634   5.023  1.6762 -0.8222  0.8607
 1499SOL     hw 5995   3.256   3.498   4.966 -0.8799 -0.2030  0.7787
 1499SOL     vw 5996   3.236   3.566   5.017 -0.2424  0.6603 -0.0949
 1500SOL     ow 5997   6.490   4.276   2.718  0.0430 -0.1553 -0.2405
 1500SOL     hw 5998   6.422   4.233   2.667  0.1985 -1.2226  0.4324
 1500SOL     hw 5999   6.448   4.355   2.753 -1.4138 -1.6762  1.6097
 1500SOL     vw 6000   6.475   4.281   2.716 -0.1287 -0.4969  0.0925
 1501SOL     ow 6001   4.415   3.990   4.930  0.0346  0.2961 -0.7878
 1501SOL     hw 6002   4.375   4.076   4.941  0.4191  0.3514  0.3661
 1501SOL     hw 6003   4.362   3.931   4.984  0.4803  0.0494 -0.6111
 1501SOL     vw 6004   4.403   3.994   4.939  0.1442  0.2707 -0.6123
 1502SOL     ow 6005   1.438   3.781   6.466  0.2146 -0.6923  0.1793
 1502SOL     hw 6006   1.510   3.796   6.405  1.8996  2.7204  2.6876
 1502SOL     hw 6007   1.400   3.867   6.480 -1.8652 -1.7953  1.9467
 1502SOL     vw 6008   1.442   3.794   6.460  0.1625 -0.3875  0.7436
 1503SOL     ow 6009   3.922   6.628   2.037 -0.0420 -0.7112  0.6827
 1503SOL     hw 6010   3.949   6.552   1.985  1.0653  0.2090 -0.1240
 1503SOL     hw 6011   3.988   6.695   2.019 -2.3806  1.3805 -0.7788
 1503SOL     vw 6012   3.934   6.627   2.028 -0.2046 -0.3140  0.3835
 1504SOL     ow 6013   0.395   1.770   0.846 -0.5740  0.0496  0.1307
 1504SOL     hw 6014   0.442   1.804   0.770  0.7821 -0.4367  0.7201
 1504SOL     hw 6015   0.414   1.676   0.846  0.3758  0.2050  1.6647
 1504SOL     vw 6016   0.403   1.762   0.836 -0.2698  0.0058  0.4109
 1505SOL     ow 6017   1.050   0.410   6.337  0.5794  0.0935 -0.6807
 1505SOL     hw 6018   0.991   0.348   6.295 -0.7500 -0.2472  1.5073
 1505SOL     hw 6019   1.089   0.459   6.265  0.0515 -1.8239 -2.3647
 1505SOL     vw 6020   1.047   0.408   6.322  0.3344 -0.2045 -0.6142
 1506SOL     ow 6021   6.444   4.303   1.178 -0.0919  0.3314  0.2115
 1506SOL     hw 6022   6.444   4.396   1.158 -0.7091  1.0758  3.1037
 1506SOL     hw 6023   6.366   4.290   1.232  1.9762 -0.9221  3.2047
 1506SOL     vw 6024   6.434   4.314   1.183  0.0997  0.2644  0.9880
 1507SOL     ow 6025   1.322   2.481   1.394  0.5932 -0.1918  0.2475
 1507SOL     hw 6026   1.230   2.509   1.398  0.2180 -1.2354 -0.5737
 1507SOL     hw 6027   1.364   2.527   1.467  0.0824  2.5924 -1.0983
 1507SOL     vw 6028   1.315   2.491   1.404  0.4763  0.0378 -0.0384
 1508SOL     ow 6029   3.847   0.328   5.608 -1.1793 -0.1598 -0.2368
 1508SOL     hw 6030   3.884   0.254   5.655 -1.8430 -0.8704 -0.8210
 1508SOL     hw 6031   3.791   0.372   5.673 -0.9009 -0.2514  0.0660
 1508SOL     vw 6032   3.844   0.324   5.623 -1.2300 -0.2656 -0.2742
 1509SOL     ow 6033   0.540   2.619   7.021 -0.0221 -0.1133 -0.0185
 1509SOL     hw 6034   0.479   2.645   6.951 -0.5408 -0.2889  0.3645
 1509SOL     hw 6035   0.626   2.631   6.982 -0.2488  1.6040 -0.0705
 1509SOL     vw 6036   0.543   2.624   7.006 -0.1204  0.0901  0.0253
 1510SOL     ow 6037   1.828   6.270   3.816 -0.2682 -0.2135 -0.3990
 1510SOL     hw 6038   1.790   6.199   3.765 -2.4805 -0.2403  1.1520
 1510SOL     hw 6039   1.885   6.226   3.879 -1.6892 -0.6984  0.6077
 1510SOL     vw 6040   1.830   6.255   3.818 -0.7476 -0.2811 -0.0615
 1511SOL     ow 6041   2.496   3.115   1.612 -0.3538 -0.0036  0.4293
 1511SOL     hw 6042   2.455   3.049   1.669 -1.1312  1.4424  1.6149
 1511SOL     hw 6043   2.590   3.100   1.623 -0.4930 -0.0840  1.7455
 1511SOL     vw 6044   2.503   3.104   1.621 -0.4747  0.1767  0.7593
 1512SOL     ow 6045   6.928   5.283   4.449 -0.4403  0.4217 -0.6849
 1512SOL     hw 6046   6.878   5.240   4.518 -0.2997  1.2293 -0.0562
 1512SOL     hw 6047   7.010   5.235   4.444 -0.6239  0.0973 -0.5843
 1512SOL     vw 6048   6.932   5.271   4.458 -0.4461  0.4857 -0.5889
 1513SOL     ow 6049   4.204   5.772   1.374 -0.2805  0.5630  0.1605
 1513SOL     hw 6050   4.224   5.776   1.467 -0.2287  1.4610  0.1185
 1513SOL     hw 6051   4.275   5.821   1.332 -1.1239  1.4808 -0.2217
 1513SOL     vw 6052   4.216   5.779   1.381 -0.3850  0.8025  0.1045
 1514SOL     ow 6053   4.001   0.626   2.467  0.3409 -0.0647  0.7986
 1514SOL     hw 6054   4.094   0.630   2.446  0.2026 -0.0294  0.1538
 1514SOL     hw 6055   3.996   0.570   2.544  1.1016  1.7765  2.2756
 1514SOL     vw 6056   4.013   0.619   2.474  0.4232  0.1829  0.9084
 1515SOL     ow 6057   6.790   0.484   3.590  0.5495 -0.3943  0.2114
 1515SOL     hw 6058   6.715   0.541   3.571 -0.5013 -1.8927 -0.3566
 1515SOL     hw 6059   6.867   0.539   3.574 -0.4178  0.8956 -0.1542
 1515SOL     vw 6060   6.790   0.498   3.585  0.2832 -0.4218  0.0882
 1516SOL     ow 6061   6.159   0.994   2.549  0.5393  0.5701 -0.1948
 1516SOL     hw 6062   6.243   1.038   2.530 -0.4483  3.0231  0.7302
 1516SOL     hw 6063   6.094   1.063   2.539 -1.2072 -0.8565  0.8854
 1516SOL     vw 6064   6.162   1.009   2.545  0.1786  0.7055  0.0696
 1517SOL     ow 6065   3.321   6.101   1.536 -0.0811  0.5181  0.1192
 1517SOL     hw 6066   3.236   6.076   1.498  0.5377 -2.1324  0.2835
 1517SOL     hw 6067   3.303   6.111   1.630  0.0217 -1.6769  0.4271
 1517SOL     vw 6068   3.307   6.099   1.544  0.0141 -0.1214  0.1815
 1518SOL     ow 6069   2.393   3.184   3.549  0.3420  0.2000  0.8442
 1518SOL     hw 6070   2.484   3.206   3.572  1.5597 -1.3644 -1.9770
 1518SOL     hw 6071   2.342   3.256   3.587  2.8104  1.5550  1.9103
 1518SOL     vw 6072   2.399   3.197   3.557  0.8284  0.1726  0.6126
 1519SOL     ow 6073   7.141   1.857   1.754  0.2396  0.0605  0.0450
 1519SOL     hw 6074   7.200   1.805   1.809  0.3748 -1.2083 -1.2452
 1519SOL     hw 6075   7.111   1.928   1.811  1.5064 -0.3704  1.3004
 1519SOL     vw 6076   7.145   1.860   1.769  0.4244 -0.1637  0.0404
 1520SOL     ow 6077   3.314   2.222   5.482 -0.1618  0.1606  0.2620
 1520SOL     hw 6078   3.223   2.243   5.506 -0.4278 -2.8148  2.4614
 1520SOL     hw 6079   3.344   2.163   5.552  2.8991 -0.3625 -1.3325
 1520SOL     vw 6080   3.306   2.217   5.495  0.2068 -0.3011  0.3417
 1521SOL     ow 6081   6.539   1.358   5.266 -0.4614 -0.2159  0.5158
 1521SOL     hw 6082   6.524   1.270   5.233 -3.4684  1.0464 -1.9138
 1521SOL     hw 6083   6.626   1.354   5.307 -0.1747 -4.0508 -0.1458
 1521SOL     vw 6084   6.549   1.346   5.267 -0.8204 -0.5553  0.1078
 1522SOL     ow 6085   6.540   3.020   3.850  0.0195  0.2189  0.2936
 1522SOL     hw 6086   6.595   3.045   3.776 -0.6663  0.2018 -0.2334
 1522SOL     hw 6087   6.477   3.091   3.858  0.0066  0.1529  0.7700
 1522SOL     vw 6088   6.539   3.032   3.841 -0.0727  0.2079  0.2868
 1523SOL     ow 6089   5.689   2.393   0.876 -0.4808  0.0801  0.5482
 1523SOL     hw 6090   5.750   2.328   0.912 -1.2447  0.1706  2.0892
 1523SOL     hw 6091   5.715   2.476   0.919 -0.1122  0.6292 -0.6903
 1523SOL     vw 6092   5.701   2.396   0.887 -0.5331  0.1645  0.5881
 1524SOL     ow 6093   3.002   5.098   4.097  0.4011  0.6924  0.2673
 1524SOL     hw 6094   3.002   5.042   4.175  1.4774  1.0182  0.5181
 1524SOL     hw 6095   2.934   5.163   4.114 -2.8797 -2.0283 -1.1982
 1524SOL     vw 6096   2.993   5.099   4.110  0.1103  0.3762  0.1068
 1525SOL     ow 6097   1.648   4.005   3.999 -0.1744 -0.0470  0.0057
 1525SOL     hw 6098   1.622   4.023   3.908  0.1390  1.3404  0.1717
 1525SOL     hw 6099   1.684   3.916   3.997 -2.4555 -1.0371 -0.7403
 1525SOL     vw 6100   1.649   3.996   3.987 -0.4340  0.0052 -0.0709
 1526SOL     ow 6101   3.715   2.975   6.821  0.1295  0.0430 -0.6681
 1526SOL     hw 6102   3.722   2.908   6.753  0.7633 -0.2081 -0.3677
 1526SOL     hw 6103   3.656   3.040   6.784  1.1894  0.3857 -1.8745
 1526SOL     vw 6104   3.708   2.975   6.807  0.3530  0.0551 -0.7877
 1527SOL     ow 6105   5.651   3.409   3.281 -0.3432 -0.6042 -0.5740
 1527SOL     hw 6106   5.696   3.443   3.204  0.1121  1.0456  0.3484
 1527SOL     hw 6107   5.720   3.399   3.347 -0.8893 -0.8395 -0.0235
 1527SOL     vw 6108   5.666   3.412   3.280 -0.3550 -0.4176 -0.3797
 1528SOL     ow 6109   7.147   0.143   0.829 -0.0191  0.9023  0.1023
 1528SOL     hw 6110   7.077   0.188   0.876  0.8163  1.4678  0.8517
 1528SOL     hw 6111   7.105   0.106   0.752 -1.0432  1.6169  0.3013
 1528SOL     vw 6112   7.132   0.144   0.825 -0.0440  1.0712  0.2275
 1529SOL     ow 6113   4.037   0.426   5.391  0.0825  0.1844  0.1650
 1529SOL     hw 6114   4.062   0.453   5.302 -1.8359 -1.7676 -1.0686
 1529SOL     hw 6115   4.106   0.365   5.417 -1.0190 -1.9049 -1.4778
 1529SOL     vw 6116   4.049   0.422   5.383 -0.3161 -0.3488 -0.2148
 1530SOL     ow 6117   5.426   1.475   0.006  0.0202  0.8048  0.1608
 1530SOL     hw 6118   5.446   1.440   0.093 -1.7669  1.4210  0.8687
 1530SOL     hw 6119   5.492   1.436  -0.051  1.2973  0.4582  1.7977
 1530SOL     vw 6120   5.438   1.465   0.010 -0.0472  0.8403  0.4702
 1531SOL     ow 6121   0.464   4.552   6.517  0.2361  0.2274 -0.6790
 1531SOL     hw 6122   0.498   4.622   6.573  0.8628 -0.7460  0.1744
 1531SOL     hw 6123   0.495   4.575   6.429  2.3062 -0.0896 -0.0922
 1531SOL     vw 6124   0.473   4.565   6.513  0.5919  0.0570 -0.4892
 1532SOL     ow 6125   3.860   4.945   6.354 -0.6995 -0.5726  0.2853
 1532SOL     hw 6126   3.890   5.020   6.404 -0.0295 -0.1611 -0.7052
 1532SOL     hw 6127   3.905   4.953   6.270 -1.7865 -1.2525 -0.3757
 1532SOL     vw 6128   3.870   4.956   6.350 -0.7545 -0.6080  0.0675
 1533SOL     ow 6129   0.241   3.970   6.621  0.6267  0.0333 -0.3020
 1533SOL     hw 6130   0.326   3.938   6.652  0.6254  0.2787 -0.0394
 1533SOL     hw 6131   0.196   3.892   6.591  1.4860  0.0684 -1.7790
 1533SOL     vw 6132   0.246   3.956   6.621  0.7399  0.0703 -0.4621
 1534SOL     ow 6133   0.654   2.613   2.547  0.1595 -0.0950 -0.0269
 1534SOL     hw 6134   0.641   2.569   2.630  1.4118 -0.6954 -0.1288
 1534SOL     hw 6135   0.703   2.551   2.494 -1.5567 -0.1755 -1.6331
 1534SOL     vw 6136   0.659   2.599   2.551  0.0983 -0.1849 -0.2524
 1535SOL     ow 6137   0.024   1.044   2.312 -0.0192  0.4482  0.4779
 1535SOL     hw 6138  -0.032   1.122   2.308 -1.4977 -0.4313  2.6388
 1535SOL     hw 6139   0.044   1.034   2.405  1.7663 -0.6821  0.0141
 1535SOL     vw 6140   0.020   1.053   2.324  0.0213  0.1830  0.7018
 1536SOL     ow 6141   4.767   3.229   4.203 -0.6641  0.5779 -0.1904
 1536SOL     hw 6142   4.724   3.202   4.284  1.1316  1.5039  1.1293
 1536SOL     hw 6143   4.710   3.297   4.167 -1.2847  0.4234  0.4826
 1536SOL     vw 6144   4.754   3.234   4.209 -0.5093  0.6797  0.0725
 1537SOL     ow 6145   2.320   4.079   4.925 -0.3429 -0.0123 -0.0373
 1537SOL     hw 6146   2.397   4.023   4.930  1.1576  1.9088 -0.2564
 1537SOL     hw 6147   2.277   4.054   4.844 -0.4368 -1.6718  0.4968
 1537SOL     vw 6148   2.324   4.069   4.915 -0.1574  0.0222  0.0038
 1538SOL     ow 6149   3.422   5.697   3.368 -0.2597 -0.0744 -0.7853
 1538SOL     hw 6150   3.347   5.674   3.423  0.0043  1.8497  0.4791
 1538SOL     hw 6151   3.383   5.727   3.286 -0.9496  1.3787  0.0379
 1538SOL     vw 6152   3.407   5.698   3.364 -0.3158  0.3712 -0.5099
 1539SOL     ow 6153   5.681   4.359   4.767 -0.3111 -0.3692 -0.3732
 1539SOL     hw 6154   5.709   4.298   4.699 -0.8721 -1.1928  0.1151
 1539SOL     hw 6155   5.750   4.425   4.770  0.3480 -1.0191 -0.8632
 1539SOL     vw 6156   5.694   4.359   4.758 -0.2983 -0.5634 -0.3734
 1540SOL     ow 6157   3.198   5.736   0.651 -0.2063  0.4652 -0.5992
 1540SOL     hw 6158   3.155   5.652   0.666 -0.5801  0.7271 -0.1970
 1540SOL     hw 6159   3.126   5.799   0.645  0.1248  0.9096  0.1115
 1540SOL     vw 6160   3.183   5.733   0.652 -0.2118  0.5584 -0.4523
 1541SOL     ow 6161   2.848   1.109   5.729 -0.1570 -0.1679  0.3477
 1541SOL     hw 6162   2.803   1.147   5.805 -0.0584  4.4524 -1.5582
 1541SOL     hw 6163   2.932   1.155   5.726  0.3254 -1.1080 -1.8783
 1541SOL     vw 6164   2.853   1.120   5.739 -0.0803  0.3176 -0.1976
 1542SOL     ow 6165   5.207   3.296   5.570  0.1108 -0.4438 -0.0159
 1542SOL     hw 6166   5.184   3.273   5.479  0.5893  0.9558 -0.5156
 1542SOL     hw 6167   5.302   3.300   5.570  0.2864 -2.7710  1.1877
 1542SOL     vw 6168   5.217   3.294   5.558  0.1972 -0.5662  0.0770
 1543SOL     ow 6169   5.556   4.110   4.408 -0.0684 -0.2706 -0.2182
 1543SOL     hw 6170   5.466   4.079   4.414 -0.1695  0.1816  0.6458
 1543SOL     hw 6171   5.585   4.082   4.321 -1.4927  0.7995 -1.0785
 1543SOL     vw 6172   5.548   4.102   4.397 -0.2697 -0.0699 -0.2177
 1544SOL     ow 6173   0.919   0.108   2.076 -0.5627  0.1086  0.3431
 1544SOL     hw 6174   0.906   0.014   2.076 -4.0235  0.4062 -1.9929
 1544SOL     hw 6175   0.947   0.129   1.987 -1.3706  1.3752  0.3514
 1544SOL     vw 6176   0.921   0.099   2.065 -1.1259  0.3149  0.0359
 1545SOL     ow 6177   0.584   4.264   1.159 -0.4715  0.3536 -0.3195
 1545SOL     hw 6178   0.490   4.257   1.143 -0.5955  0.4790  0.3281
 1545SOL     hw 6179   0.625   4.231   1.079 -1.0659  1.6058 -1.1830
 1545SOL     vw 6180   0.577   4.259   1.146 -0.5663  0.5355 -0.3480
 1546SOL     ow 6181   0.014   3.877   2.317  0.0331 -0.3186  0.1261
 1546SOL     hw 6182   0.087   3.928   2.353 -1.1795  1.8934 -0.3684
 1546SOL     hw 6183  -0.013   3.925   2.239 -0.9987 -1.9301 -0.5626
 1546SOL     vw 6184   0.020   3.890   2.312 -0.2630 -0.2394 -0.0302
 1547SOL     ow 6185   0.853   5.129   1.928  0.1042  0.0732 -0.0710
 1547SOL     hw 6186   0.883   5.094   2.012  1.1719  0.1321 -0.4256
 1547SOL     hw 6187   0.826   5.218   1.948 -1.4982 -0.5199  0.5905
 1547SOL     vw 6188   0.853   5.136   1.942  0.0336  0.0029 -0.0306
 1548SOL     ow 6189   5.962   4.373   5.180 -0.4902 -0.2797 -0.3688
 1548SOL     hw 6190   5.933   4.303   5.238  0.0161 -0.7674 -0.6910
 1548SOL     hw 6191   6.027   4.331   5.123  0.0684  0.5256 -0.3408
 1548SOL     vw 6192   5.967   4.358   5.180 -0.3498 -0.2375 -0.4077
 1549SOL     ow 6193   6.256   3.568   2.475  0.1080 -0.5014 -0.2761
 1549SOL     hw 6194   6.197   3.632   2.436  1.9471  1.2644 -0.3358
 1549SOL     hw 6195   6.314   3.542   2.403  1.9497  0.9125  0.6133
 1549SOL     vw 6196   6.256   3.573   2.460  0.5937 -0.0819 -0.1667
 1550SOL     ow 6197   6.225   3.106   5.151  0.1687  0.4266 -0.0687
 1550SOL     hw 6198   6.263   3.193   5.138  0.4717  0.4533  0.8784
 1550SOL     hw 6199   6.230   3.065   5.065  0.4851  1.1665 -0.4180
 1550SOL     vw 6200   6.231   3.112   5.138  0.2503  0.5277  0.0103
 1551SOL     ow 6201   2.112   0.630   0.556  0.6437  0.2851  0.7419
 1551SOL     hw 6202   2.139   0.566   0.621  0.6854  0.5131  0.9528
 1551SOL     hw 6203   2.020   0.611   0.539  0.8803 -0.3926  0.1420
 1551SOL     vw 6204   2.104   0.619   0.562  0.6804  0.2257  0.6905
 1552SOL     ow 6205   3.178   2.037   5.295 -0.2120 -0.1327 -0.5722
 1552SOL     hw 6206   3.099   2.081   5.263  0.3968 -0.2277 -2.3051
 1552SOL     hw 6207   3.145   1.960   5.341 -1.1588  0.4455 -0.2532
 1552SOL     vw 6208   3.163   2.033   5.297 -0.2565 -0.0689 -0.7589
 1553SOL     ow 6209   1.154   3.164   1.060  0.3879  0.5687  0.3330
 1553SOL     hw 6210   1.234   3.202   1.022  0.6965 -1.0093 -0.6873
 1553SOL     hw 6211   1.105   3.240   1.092  0.6831  1.9505 -2.1739
 1553SOL     vw 6212   1.158   3.179   1.059  0.4676  0.5428 -0.1323
 1554SOL     ow 6213   2.879   3.712   5.760  0.7546 -0.0780  0.1764
 1554SOL     hw 6214   2.974   3.697   5.752  0.6876  0.0277 -1.0965
 1554SOL     hw 6215   2.840   3.643   5.707  0.1684  0.5051 -0.1663
 1554SOL     vw 6216   2.887   3.701   5.752  0.6684  0.0129 -0.0370
 1555SOL     ow 6217   3.455   5.937   6.060 -0.1496  1.0114 -0.9065
 1555SOL     hw 6218   3.415   5.948   6.146  1.5058  1.1037 -0.1148
 1555SOL     hw 6219   3.526   6.001   6.057  1.5780 -0.7862 -1.2101
 1555SOL     vw 6220   3.459   5.947   6.071  0.2967  0.7865 -0.8421
 1556SOL     ow 6221   3.917   2.872   6.171  0.4942 -0.0787 -0.1081
 1556SOL     hw 6222   3.957   2.903   6.252 -0.5630  0.5003  0.2134
 1556SOL     hw 6223   3.990   2.862   6.110  0.9877  2.3632 -0.0010
 1556SOL     vw 6224   3.932   2.875   6.174  0.4199  0.3197 -0.0517
 1557SOL     ow 6225   5.665   1.105   3.322 -0.0102  0.0836 -0.2830
 1557SOL     hw 6226   5.619   1.170   3.269  1.3716  0.6056 -0.8953
 1557SOL     hw 6227   5.675   1.147   3.408 -2.9720 -1.0813  0.7373
 1557SOL     vw 6228   5.660   1.119   3.327 -0.2186 -0.0011 -0.2292
 1558SOL     ow 6229   4.459   6.762   6.795  0.2207 -0.3385 -0.5274
 1558SOL     hw 6230   4.455   6.775   6.701 -0.5563  2.1784 -0.2258
 1558SOL     hw 6231   4.367   6.765   6.824  0.5086 -0.0588  0.4154
 1558SOL     vw 6232   4.446   6.764   6.787  0.1562  0.0305 -0.3633
 1559SOL     ow 6233   5.641   0.337   1.158  0.1937 -0.0096  0.1767
 1559SOL     hw 6234   5.618   0.268   1.097  1.8835  0.6994 -1.3388
 1559SOL     hw 6235   5.558   0.361   1.199 -0.9491 -0.7282 -1.5971
 1559SOL     vw 6236   5.627   0.331   1.156  0.2661 -0.0109 -0.2573
 1560SOL     ow 6237   0.356   0.170   0.855 -0.4538 -0.4345  0.1077
 1560SOL     hw 6238   0.392   0.189   0.768 -0.7622  1.1131  0.2889
 1560SOL     hw 6239   0.423   0.116   0.897 -0.3126 -1.2361 -1.0818
 1560SOL     vw 6240   0.370   0.165   0.849 -0.4759 -0.3360 -0.0254
 1561SOL     ow 6241   3.832   1.706   6.758  0.3176 -0.3764  0.0679
 1561SOL     hw 6242   3.820   1.619   6.719 -1.3485  0.3423 -1.1032
 1561SOL     hw 6243   3.816   1.692   6.852  0.9283 -1.4742  0.0330
 1561SOL     vw 6244   3.828   1.692   6.765  0.1783 -0.4264 -0.0911
 1562SOL     ow 6245   6.707   6.627   3.924  0.3216 -0.1179 -0.8545
 1562SOL     hw 6246   6.777   6.568   3.951 -0.7916 -2.7560 -3.1662
 1562SOL     hw 6247   6.654   6.639   4.003  0.1760 -2.9517 -0.4224
 1562SOL     vw 6248   6.709   6.621   3.938  0.1554 -0.8397 -1.1026
 1563SOL     ow 6249   6.450   4.108   5.291  0.5578 -1.0046  1.4225
 1563SOL     hw 6250   6.476   4.020   5.320  0.0749 -2.5456 -2.2060
 1563SOL     hw 6251   6.512   4.130   5.222 -1.1046  0.1198  0.2018
 1563SOL     vw 6252   6.461   4.099   5.286  0.2747 -1.0598  0.7830
 1564SOL     ow 6253   3.799   2.604   3.362 -0.6056 -0.3189  0.3791
 1564SOL     hw 6254   3.797   2.558   3.277  0.1711  0.1853  0.0777
 1564SOL     hw 6255   3.772   2.537   3.425 -2.8774 -0.2870 -0.4257
 1564SOL     vw 6256   3.795   2.589   3.359 -0.8030 -0.2482  0.2332
 1565SOL     ow 6257   1.972   3.500   5.382  0.1816  0.0006  0.0924
 1565SOL     hw 6258   1.960   3.442   5.457  2.9011 -0.7513  0.0605
 1565SOL     hw 6259   1.894   3.488   5.329 -0.8227 -1.0857  1.7333
 1565SOL     vw 6260   1.960   3.491   5.385  0.4080 -0.2419  0.3045
 1566SOL     ow 6261   2.304   3.821   5.819  0.0570  0.5738 -0.4014
 1566SOL     hw 6262   2.375   3.867   5.865  1.1532  0.0594 -1.5189
 1566SOL     hw 6263   2.224   3.851   5.862  0.7486  3.1378 -0.7377
 1566SOL     vw 6264   2.303   3.831   5.831  0.2929  0.8442 -0.5932
 1567SOL     ow 6265   5.641   5.206   2.279  0.3305  0.1585 -0.2430
 1567SOL     hw 6266   5.608   5.205   2.189  1.5111 -5.0505 -0.9819
 1567SOL     hw 6267   5.736   5.214   2.269  0.3185  2.6979  0.9251
 1567SOL     vw 6268   5.649   5.207   2.265  0.4847 -0.1936 -0.1863
 1568SOL     ow 6269   2.128   6.155   6.970 -0.7014  0.8254  0.5975
 1568SOL     hw 6270   2.094   6.184   6.885 -1.7901  1.0885  1.0989
 1568SOL     hw 6271   2.206   6.104   6.949 -1.4516  0.1344 -0.6256
 1568SOL     vw 6272   2.134   6.152   6.956 -0.9441  0.7687  0.5021
 1569SOL     ow 6273   6.170   1.508   4.566  0.1824  0.0947  0.3527
 1569SOL     hw 6274   6.144   1.557   4.489 -2.2861  1.1857  1.7607
 1569SOL     hw 6275   6.221   1.434   4.532 -3.2134 -1.1492 -2.6569
 1569SOL     vw 6276   6.173   1.505   4.551 -0.5915  0.0745  0.1414
 1570SOL     ow 6277   3.020   4.603   5.965 -0.1435 -0.4929  0.1557
 1570SOL     hw 6278   3.078   4.535   6.000  0.6026  0.3253  0.5403
 1570SOL     hw 6279   3.006   4.663   6.038 -0.2204  0.1526 -0.3816
 1570SOL     vw 6280   3.026   4.602   5.979 -0.0552 -0.2995  0.1354
 1571SOL     ow 6281   7.018   3.673   2.109  0.6281 -0.2940  0.3909
 1571SOL     hw 6282   6.972   3.595   2.140  1.5250 -0.1913  2.0721
 1571SOL     hw 6283   7.065   3.643   2.031  0.2986 -1.2025  0.5281
 1571SOL     vw 6284   7.018   3.659   2.103  0.7029 -0.4003  0.6307
 1572SOL     ow 6285   2.099   5.200   1.289  0.4545 -0.5494 -0.0796
 1572SOL     hw 6286   2.119   5.218   1.381 -0.7626 -0.3660  0.1748
 1572SOL     hw 6287   2.122   5.108   1.276  1.3088 -0.3817  0.2052
 1572SOL     vw 6288   2.104   5.190   1.299  0.4065 -0.5033 -0.0085
 1573SOL     ow 6289   1.523   0.414   1.969 -0.2010  0.4500  0.0022
 1573SOL     hw 6290   1.445   0.362   1.949  0.7532 -1.8339  1.7340
 1573SOL     hw 6291   1.556   0.377   2.051  3.0455  0.8911 -0.9582
 1573SOL     vw 6292   1.517   0.402   1.977  0.3532  0.2069  0.1041
 1574SOL     ow 6293   1.465   3.667   6.079  0.0426 -0.3083  0.3679
 1574SOL     hw 6294   1.501   3.756   6.083 -0.6112 -0.0216 -0.0065
 1574SOL     hw 6295   1.536   3.614   6.042  0.5135  0.0095  0.8040
 1574SOL     vw 6296   1.479   3.672   6.075  0.0185 -0.2285  0.3760
 1575SOL     ow 6297   6.619   0.317   0.233 -0.3575  0.0738  0.1793
 1575SOL     hw 6298   6.538   0.266   0.230 -0.6907  0.6302 -1.8407
 1575SOL     hw 6299   6.665   0.293   0.152  2.2713 -1.3653  1.9628
 1575SOL     vw 6300   6.614   0.307   0.222 -0.0548 -0.0427  0.1481
 1576SOL     ow 6301   5.167   3.512   1.274  0.2724  0.3508 -0.1318
 1576SOL     hw 6302   5.115   3.530   1.195  1.3509  1.3292 -0.6521
 1576SOL     hw 6303   5.250   3.478   1.240 -0.3080 -2.1352  0.7168
 1576SOL     vw 6304   5.171   3.510   1.259  0.3381  0.1520 -0.0885
 1577SOL     ow 6305   3.452   6.548   0.547  0.0628  0.2309  0.2032
 1577SOL     hw 6306   3.362   6.532   0.518  0.6199 -3.0740 -0.0665
 1577SOL     hw 6307   3.461   6.496   0.627  0.6991  3.5963  2.5847
 1577SOL     vw 6308   3.441   6.539   0.554  0.2201  0.2387  0.4818
 1578SOL     ow 6309   2.358   1.736   2.076 -0.2106  0.5634 -0.3012
 1578SOL     hw 6310   2.444   1.772   2.101  0.0523  1.2379 -2.0465
 1578SOL     hw 6311   2.307   1.738   2.157  1.5851 -0.3809  0.9092
 1578SOL     vw 6312   2.363   1.741   2.090  0.0609  0.5278 -0.3718
 1579SOL     ow 6313   0.600   1.258   5.328 -0.0214 -0.1786  0.5669
 1579SOL     hw 6314   0.577   1.252   5.421 -2.5079  0.5507  0.0638
 1579SOL     hw 6315   0.662   1.331   5.324  0.0269 -0.1422  1.6222
 1579SOL     vw 6316   0.605   1.267   5.340 -0.3431 -0.0777  0.6397
 1580SOL     ow 6317   1.902   6.110   4.518  0.1452 -0.6438 -0.5915
 1580SOL     hw 6318   1.874   6.201   4.527 -1.9846 -1.3391  0.4765
 1580SOL     hw 6319   1.997   6.113   4.529  0.1095  1.4201 -0.4443
 1580SOL     vw 6320   1.911   6.122   4.521 -0.1404 -0.4632 -0.4313
 1581SOL     ow 6321   2.778   5.055   5.179  0.1906  0.0437 -0.1812
 1581SOL     hw 6322   2.701   5.024   5.131 -0.0343  1.1245 -0.5370
 1581SOL     hw 6323   2.765   5.023   5.268  0.4594 -1.7332 -0.7283
 1581SOL     vw 6324   2.766   5.046   5.184  0.1963 -0.0479 -0.3002
 1582SOL     ow 6325   4.144   2.036   2.246 -0.1629  0.3098 -0.4643
 1582SOL     hw 6326   4.109   2.095   2.312 -5.3743 -1.4204 -1.2185
 1582SOL     hw 6327   4.197   2.092   2.189 -1.7415  3.4329  0.9128
 1582SOL     vw 6328   4.147   2.051   2.247 -1.0586  0.4935 -0.3821
 1583SOL     ow 6329   5.622   2.364   5.415 -0.2861  0.1764 -0.5240
 1583SOL     hw 6330   5.627   2.270   5.430 -0.2663  0.2581 -0.0069
 1583SOL     hw 6331   5.529   2.382   5.401 -0.1207 -0.1792 -2.4202
 1583SOL     vw 6332   5.611   2.354   5.415 -0.2618  0.1403 -0.7057
 1584SOL     ow 6333   1.954   4.179   5.070 -0.4389 -0.0186  0.3899
 1584SOL     hw 6334   1.932   4.086   5.068 -2.4257  0.3987  0.5749
 1584SOL     hw 6335   1.913   4.215   4.992  1.1905  0.5599 -0.2315
 1584SOL     vw 6336   1.946   4.171   5.060 -0.4860  0.1128  0.3324
 1585SOL     ow 6337   1.174   0.969   4.913  0.0119 -0.1045 -0.0094
 1585SOL     hw 6338   1.219   0.962   4.829  1.3871  4.6264  0.0527
 1585SOL     hw 6339   1.231   0.922   4.974  0.0109 -1.9302 -1.3418
 1585SOL     vw 6340   1.188   0.962   4.910  0.1932  0.2788 -0.1767
 1586SOL     ow 6341   3.979   3.587   6.406 -0.1707 -0.1833  0.7827
 1586SOL     hw 6342   3.997   3.505   6.451  1.3745 -0.6863 -0.6283
 1586SOL     hw 6343   4.013   3.574   6.317  1.3873  2.4474  0.8932
 1586SOL     vw 6344   3.986   3.574   6.400  0.2389  0.0974  0.6111
 1587SOL     ow 6345   2.191   5.910   6.062  0.0545  0.0425 -0.2804
 1587SOL     hw 6346   2.251   5.979   6.033  0.3100 -0.9393 -2.3240
 1587SOL     hw 6347   2.113   5.956   6.090  0.1737  1.1927 -1.7008
 1587SOL     vw 6348   2.189   5.925   6.062  0.1038  0.0648 -0.7374
 1588SOL     ow 6349   7.092   2.646   3.014 -0.4519  0.3117 -0.2408
 1588SOL     hw 6350   7.177   2.686   3.034 -0.4539 -0.5876  1.8592
 1588SOL     hw 6351   7.113   2.554   2.998 -1.0485 -0.0457  0.8808
 1588SOL     vw 6352   7.106   2.639   3.015 -0.5307  0.1459  0.1842
 1589SOL     ow 6353   0.505   1.931   3.139 -0.2096  0.0103 -0.1609
 1589SOL     hw 6354   0.472   1.970   3.058 -0.7983  0.6418  0.3726
 1589SOL     hw 6355   0.575   1.990   3.167 -0.1179 -0.1155 -0.1234
 1589SOL     vw 6356   0.510   1.944   3.132 -0.2752  0.0770 -0.0854
 1590SOL     ow 6357   5.805   0.408   2.683  0.5107 -0.3934  0.1787
 1590SOL     hw 6358   5.764   0.490   2.657  1.5004 -0.0344 -0.3089
 1590SOL     hw 6359   5.833   0.422   2.774 -1.2006 -0.9597  0.8348
 1590SOL     vw 6360   5.804   0.421   2.692  0.4156 -0.4208  0.2009
 1591SOL     ow 6361   2.016   3.403   5.634  0.5587 -0.1621  0.2268
 1591SOL     hw 6362   2.002   3.332   5.697 -3.0818 -2.4388 -2.6769
 1591SOL     hw 6363   2.094   3.377   5.585 -0.7145 -2.3774 -0.7902
 1591SOL     vw 6364   2.024   3.390   5.636 -0.0895 -0.7546 -0.2902
 1592SOL     ow 6365   5.976   4.790   3.404  0.4923 -0.1353  0.0814
 1592SOL     hw 6366   5.882   4.809   3.406  0.6469  0.6277  0.1887
 1592SOL     hw 6367   5.989   4.742   3.322 -0.2202 -1.5205  0.7415
 1592SOL     vw 6368   5.965   4.786   3.394  0.4187 -0.2172  0.1827
 1593SOL     ow 6369   6.035   4.699   0.393 -0.0715  0.5218  0.0395
 1593SOL     hw 6370   6.086   4.631   0.348  2.0377  1.2631  1.1859
 1593SOL     hw 6371   6.098   4.769   0.411 -1.7358  1.9327  0.6739
 1593SOL     vw 6372   6.050   4.699   0.390 -0.0129  0.8059  0.2745
 1594SOL     ow 6373   7.102   6.332   1.914  0.2957  0.3819  0.6489
 1594SOL     hw 6374   7.030   6.366   1.862 -1.2559  0.0507  2.4523
 1594SOL     hw 6375   7.144   6.409   1.952  1.0270  0.5842 -0.5351
 1594SOL     vw 6376   7.098   6.346   1.912  0.1874  0.3648  0.7306
 1595SOL     ow 6377   6.364   5.127   4.033  0.7595 -0.5534  0.0894
 1595SOL     hw 6378   6.438   5.075   4.062  1.9270 -0.3170 -2.2093
 1595SOL     hw 6379   6.401   5.213   4.011  0.0805 -0.7676 -2.1571
 1595SOL     vw 6380   6.379   5.132   4.034  0.8237 -0.5507 -0.5102
 1596SOL     ow 6381   3.603   1.013   6.042  0.4780 -0.6920  0.1471
 1596SOL     hw 6382   3.692   0.980   6.054  1.2160  1.2909  0.4373
 1596SOL     hw 6383   3.564   0.953   5.978  2.8060 -0.2729 -1.8053
 1596SOL     vw 6384   3.610   1.001   6.035  0.8825 -0.3751 -0.0720
 1597SOL     ow 6385   3.856   1.970   5.569  0.4130  0.4114  0.7750
 1597SOL     hw 6386   3.789   1.940   5.630 -1.3813 -0.8110 -1.6266
 1597SOL     hw 6387   3.873   1.894   5.512  0.9844  1.8335 -1.0737
 1597SOL     vw 6388   3.849   1.956   5.569  0.2518  0.4377  0.2141
 1598SOL     ow 6389   6.521   5.368   1.026 -0.2511  0.1138 -0.6011
 1598SOL     hw 6390   6.513   5.274   1.014  1.0927  0.0735 -1.2558
 1598SOL     hw 6391   6.467   5.386   1.104  0.2839 -1.3262  0.1426
 1598SOL     vw 6392   6.513   5.358   1.035 -0.0033 -0.0818 -0.5894
 1599SOL     ow 6393   2.469   2.079   4.499 -0.1343  1.4312 -0.7187
 1599SOL     hw 6394   2.439   2.002   4.450 -1.1977  2.0268 -1.0257
 1599SOL     hw 6395   2.506   2.137   4.432  3.5031 -0.0047 -0.1914
 1599SOL     vw 6396   2.470   2.076   4.484  0.2052  1.3202 -0.6900
 1600SOL     ow 6397   1.419   1.884   1.641 -0.4562 -0.1394  0.8743
 1600SOL     hw 6398   1.428   1.885   1.737  2.6500 -0.7767  0.6995
 1600SOL     hw 6399   1.393   1.974   1.619  1.3512  0.7704  2.1981
 1600SOL     vw 6400   1.417   1.896   1.651  0.1920 -0.1035  1.0259
 1601SOL     ow 6401   0.717   6.040   4.228  0.1625  0.1112 -0.3591
 1601SOL     hw 6402   0.732   5.977   4.157  2.1966 -2.1941  1.9223
 1601SOL     hw 6403   0.631   6.016   4.264 -0.7571  1.1247 -1.7491
 1601SOL     vw 6404   0.707   6.029   4.223  0.3095 -0.0591 -0.2413
 1602SOL     ow 6405   6.110   5.027   3.313 -0.3461 -0.2362 -0.1974
 1602SOL     hw 6406   6.188   5.054   3.265 -0.4943  0.8617  0.1433
 1602SOL     hw 6407   6.058   4.978   3.250  0.5346 -0.8276 -0.4720
 1602SOL     vw 6408   6.113   5.024   3.299 -0.2494 -0.1695 -0.1888
 1603SOL     ow 6409   1.618   1.560   5.961 -0.0233  0.0543  0.5341
 1603SOL     hw 6410   1.535   1.600   5.990 -1.1893 -1.1106 -1.0478
 1603SOL     hw 6411   1.664   1.631   5.917 -1.3946  0.1138 -0.9061
 1603SOL     vw 6412   1.613   1.575   5.959 -0.3581 -0.0916  0.1354
 1604SOL     ow 6413   3.873   3.755   6.629  0.0163 -0.3854 -0.3168
 1604SOL     hw 6414   3.964   3.729   6.631  0.6719  0.9792 -4.0446
 1604SOL     hw 6415   3.866   3.823   6.696  1.4047 -1.2212  0.7356
 1604SOL     vw 6416   3.884   3.761   6.638  0.2859 -0.3157 -0.6695
 1605SOL     ow 6417   7.003   5.014   3.284  0.1476 -0.4108 -0.1520
 1605SOL     hw 6418   6.951   4.935   3.272  2.7022 -2.1299 -0.8344
 1605SOL     hw 6419   7.055   5.020   3.204  0.7150  1.4385  0.3045
 1605SOL     vw 6420   7.003   5.005   3.272  0.5596 -0.3936 -0.1818
 1606SOL     ow 6421   5.173   6.119   6.194  0.3831  0.4594 -0.3436
 1606SOL     hw 6422   5.084   6.129   6.227 -0.3016 -0.1056 -1.9266
 1606SOL     hw 6423   5.192   6.026   6.202  0.1792  0.2967 -1.5214
 1606SOL     vw 6424   5.164   6.108   6.199  0.2661  0.3633 -0.7079
 1607SOL     ow 6425   6.166   6.278   4.377  0.0527 -0.5652  0.4057
 1607SOL     hw 6426   6.158   6.185   4.397  3.2400 -1.4438 -1.4760
 1607SOL     hw 6427   6.221   6.314   4.447 -0.1664 -0.4098  0.4978
 1607SOL     vw 6428   6.172   6.271   4.389  0.4444 -0.6609  0.1698
 1608SOL     ow 6429   2.676   4.227   2.441  0.3285  0.2838  0.2004
 1608SOL     hw 6430   2.586   4.194   2.430 -0.2579  1.6602  0.6423
 1608SOL     hw 6431   2.729   4.148   2.453 -0.3929 -0.7353 -2.5792
 1608SOL     vw 6432   2.671   4.212   2.442  0.1559  0.3309 -0.1080
 1609SOL     ow 6433   3.662   1.913   6.693  0.5623 -0.2771 -0.7455
 1609SOL     hw 6434   3.721   1.838   6.702  0.4404 -0.3678 -0.6982
 1609SOL     hw 6435   3.606   1.910   6.771 -0.3919 -0.9777 -1.4334
 1609SOL     vw 6436   3.663   1.903   6.704  0.4202 -0.3815 -0.8299
 1610SOL     ow 6437   2.005   6.605   0.094 -0.1779  0.1579 -0.2019
 1610SOL     hw 6438   2.021   6.692   0.056 -0.6087  0.0791 -0.5777
 1610SOL     hw 6439   1.916   6.611   0.128 -0.0487 -0.0015  0.1635
 1610SOL     vw 6440   1.995   6.617   0.093 -0.2177  0.1261 -0.2033
 1611SOL     ow 6441   3.824   3.293   4.707  0.0553 -0.1625  0.0620
 1611SOL     hw 6442   3.844   3.288   4.800 -1.7191 -0.4349  0.4598
 1611SOL     hw 6443   3.855   3.210   4.671 -0.1340 -0.4672  0.5946
 1611SOL     vw 6444   3.830   3.282   4.714 -0.2038 -0.2385  0.1845
 1612SOL     ow 6445   6.151   1.604   3.485  0.1882  0.0072 -0.4745
 1612SOL     hw 6446   6.163   1.547   3.561  1.1087  1.6109  0.6234
 1612SOL     hw 6447   6.075   1.658   3.507 -0.6381 -0.7064 -1.4823
 1612SOL     vw 6448   6.143   1.603   3.498  0.2007  0.1246 -0.4625
 1613SOL     ow 6449   7.129   5.123   3.580 -0.9236  0.3524  0.1360
 1613SOL     hw 6450   7.068   5.093   3.647 -0.8383  0.3877  0.2307
 1613SOL     hw 6451   7.202   5.160   3.629 -0.2462 -0.8240  0.0367
 1613SOL     vw 6452   7.131   5.124   3.595 -0.8230  0.2017  0.1353
 1614SOL     ow 6453   6.885   6.159   0.041  0.1144  0.1464 -0.3906
 1614SOL     hw 6454   6.828   6.096  -0.002  0.8170 -0.8397  0.0748
 1614SOL     hw 6455   6.965   6.158  -0.012  0.1749  0.5547 -0.3085
 1614SOL     vw 6456   6.888   6.150   0.029  0.2151  0.0703 -0.3184
 1615SOL     ow 6457   0.668   6.051   0.972  0.4425 -0.5574  0.4512
 1615SOL     hw 6458   0.685   5.958   0.956 -1.3019 -0.5964 -1.6628
 1615SOL     hw 6459   0.609   6.052   1.047  2.4792 -0.9263  2.1504
 1615SOL     vw 6460   0.663   6.039   0.980  0.4811 -0.6113  0.3964
 1616SOL     ow 6461   2.137   1.981   1.052  0.1473  0.1365 -0.2036
 1616SOL     hw 6462   2.081   2.054   1.079  1.0641  0.6393  0.4001
 1616SOL     hw 6463   2.207   1.980   1.118 -0.8600 -2.4949  0.9402
 1616SOL     vw 6464   2.139   1.991   1.064  0.1354 -0.1444  0.0269
 1617SOL     ow 6465   3.905   1.766   2.552  0.3980  0.5288 -0.1152
 1617SOL     hw 6466   3.923   1.679   2.588  0.4333  0.8534  0.6763
 1617SOL     hw 6467   3.812   1.781   2.571 -0.1665 -0.1799 -2.1091
 1617SOL     vw 6468   3.895   1.757   2.559  0.3281  0.4781 -0.2739
 1618SOL     ow 6469   0.079   0.410   5.946  0.4311 -0.0722  0.0577
 1618SOL     hw 6470   0.048   0.498   5.967  1.0101 -0.0056  0.7094
 1618SOL     hw 6471   0.003   0.353   5.960  0.6692  0.0155  2.1228
 1618SOL     vw 6472   0.065   0.414   5.951  0.5389 -0.0519  0.4160
 1619SOL     ow 6473   1.550   4.944   3.647 -0.6226  0.1619 -0.4478
 1619SOL     hw 6474   1.589   4.973   3.564  0.0849  0.2195 -0.1028
 1619SOL     hw 6475   1.608   4.875   3.677 -0.3410  0.7764  0.4616
 1619SOL     vw 6476   1.563   4.939   3.640 -0.4921  0.2503 -0.2823
 1620SOL     ow 6477   4.192   2.484   6.222  1.0900 -0.3597  0.2278
 1620SOL     hw 6478   4.195   2.564   6.275  1.3432  0.4947 -1.0320
 1620SOL     hw 6479   4.282   2.474   6.190  1.0424 -1.1189  0.3154
 1620SOL     vw 6480   4.204   2.493   6.225  1.1170 -0.3471  0.0734
 1621poe    c31 6481   5.203   4.376   1.540 -0.4015 -0.4106  0.1696
 1621poe     o2 6482   5.321   4.301   1.563 -0.0701 -0.1390 -0.6084
 1621poe    c23 6483   5.330   4.243   1.691 -0.1992 -0.0156 -0.5433
 1621poe    c23 6484   5.465   4.170   1.701 -0.0884  0.2788  0.2042
 1621poe     o2 6485   5.564   4.240   1.629 -0.0921  0.0664 -0.0107
 1621poe    c23 6486   5.666   4.151   1.589 -0.1151  0.2429 -0.4752
 1621poe    c23 6487   5.774   4.247   1.538 -0.0081  0.1034 -0.5108
 1621poe     o2 6488   5.709   4.336   1.450 -0.1743  0.0585 -0.4338
 1621poe    c23 6489   5.808   4.415   1.387  0.2545 -0.0849  0.0629
 1621poe    c23 6490   5.793   4.566   1.410 -0.1861 -0.1672  0.3221
 1621poe     o2 6491   5.787   4.602   1.546  0.6149 -0.2840  0.3923
 1621poe    c31 6492   5.807   4.738   1.577 -0.1895 -0.1017  0.1355
 1622poe    c31 6493   3.799   5.309   4.117  0.4586  0.6699 -0.6530
 1622poe     o2 6494   3.799   5.177   4.068 -0.2553  0.2793  0.3634
 1622poe    c23 6495   3.683   5.140   3.996 -0.0708 -0.0183  0.2155
 1622poe    c23 6496   3.692   5.035   3.884  0.1120  0.1609  0.0593
 1622poe     o2 6497   3.718   4.905   3.932 -0.4047 -0.0191 -0.1435
 1622poe    c23 6498   3.722   4.808   3.830  0.5475  0.3728 -0.4863
 1622poe    c23 6499   3.688   4.665   3.875 -0.5190  0.6033 -0.5306
 1622poe     o2 6500   3.563   4.654   3.939 -0.4085  0.4155 -0.3470
 1622poe    c23 6501   3.484   4.542   3.906 -0.1385  0.0976  0.0735
 1622poe    c23 6502   3.402   4.484   4.024  0.1902 -0.4726  0.0281
 1622poe     o2 6503   3.475   4.423   4.127 -0.1328 -0.0262  0.5292
 1622poe    c31 6504   3.387   4.330   4.186 -0.6382  0.0194 -0.1492
 1623poe    c31 6505   0.213   1.752   4.760  0.0861  0.1709 -0.2073
 1623poe     o2 6506   0.152   1.634   4.713 -0.6970  0.0589  1.0514
 1623poe    c23 6507   0.023   1.656   4.659 -0.1901  0.0798 -0.1856
 1623poe    c23 6508  -0.010   1.532   4.574 -0.5958  0.0508  0.0154
 1623poe     o2 6509  -0.020   1.418   4.657  0.0003  0.1702  0.2563
 1623poe    c23 6510  -0.064   1.311   4.577 -0.2435  0.0128  0.5993
 1623poe    c23 6511  -0.047   1.176   4.650  0.6702 -0.1320  0.1272
 1623poe     o2 6512  -0.108   1.154   4.775  0.0131  0.1430 -0.1375
 1623poe    c23 6513  -0.107   1.017   4.809 -0.7672  0.2742  0.4378
 1623poe    c23 6514  -0.074   0.968   4.951 -0.9660 -0.0446  0.3763
 1623poe     o2 6515   0.063   0.976   4.982 -0.8664 -0.3785  0.0245
 1623poe    c31 6516   0.072   0.971   5.123  0.3783  0.1735 -0.0193
 1624poe    c31 6517   0.443   4.071   6.051 -0.2789  0.7627 -1.3737
 1624poe     o2 6518   0.305   4.100   6.041 -0.3440  1.0709  0.2613
 1624poe    c23 6519   0.260   4.106   6.175  0.0207  0.7305  0.4015
 1624poe    c23 6520   0.110   4.141   6.178 -0.0584  0.3807  0.5512
 1624poe     o2 6521   0.027   4.035   6.137  0.3999  0.0870  0.3673
 1624poe    c23 6522  -0.109   4.071   6.148  0.5127  0.4712  0.5273
 1624poe    c23 6523  -0.188   3.942   6.119  0.2959  0.6900  0.1366
 1624poe     o2 6524  -0.115   3.878   6.016  0.0096  0.0992  0.2935
 1624poe    c23 6525  -0.195   3.778   5.958  0.0440  0.0798  0.2794
 1624poe    c23 6526  -0.119   3.676   5.871 -0.1689 -0.1673  0.3827
 1624poe     o2 6527  -0.188   3.560   5.831  0.4318 -0.2595 -0.4067
 1624poe    c31 6528  -0.145   3.505   5.709  0.8163  0.3456 -0.5435
 1625poe    c31 6529   1.315   4.169   1.691  0.5141 -0.2306 -0.1572
 1625poe     o2 6530   1.335   4.047   1.758 -0.0175 -0.0784  0.2864
 1625poe    c23 6531   1.410   3.968   1.669 -0.2739 -0.2572  0.2282
 1625poe    c23 6532   1.408   3.818   1.707 -0.1538 -0.3260 -0.0321
 1625poe     o2 6533   1.278   3.770   1.732  0.0904 -0.6873  0.5742
 1625poe    c23 6534   1.290   3.630   1.737  0.0314 -0.7533 -0.6863
 1625poe    c23 6535   1.151   3.567   1.760 -0.1459 -0.1396 -0.0538
 1625poe     o2 6536   1.097   3.621   1.879 -0.2598 -0.7195  0.1597
 1625poe    c23 6537   0.958   3.611   1.895 -0.3485  0.1916  0.0280
 1625poe    c23 6538   0.914   3.668   2.031 -0.2915  0.4336 -0.0560
 1625poe     o2 6539   0.987   3.785   2.060 -0.1617  0.3910 -0.2063
 1625poe    c31 6540   0.921   3.875   2.147 -0.9691  0.1889 -0.5997
 1626poe    c31 6541   4.667   4.099   1.311 -0.4835  0.2159 -0.0873
 1626poe     o2 6542   4.589   3.983   1.294 -0.3317  0.0107  0.5845
 1626poe    c23 6543   4.586   3.946   1.158 -1.1127  0.9715  0.3300
 1626poe    c23 6544   4.530   3.803   1.150  0.0337  0.5387 -0.0778
 1626poe     o2 6545   4.451   3.775   1.263 -0.2704  0.0988 -0.3958
 1626poe    c23 6546   4.399   3.644   1.272  0.0906 -0.0277 -0.1147
 1626poe    c23 6547   4.253   3.656   1.322  0.0284  0.1187 -0.3300
 1626poe     o2 6548   4.258   3.736   1.438 -0.4520  0.1910 -0.3575
 1626poe    c23 6549   4.149   3.727   1.527 -0.5221  0.1381 -0.4491
 1626poe    c23 6550   4.184   3.792   1.662 -0.6164 -0.6546 -0.0346
 1626poe     o2 6551   4.307   3.753   1.719 -0.5453 -0.4346 -0.0368
 1626poe    c31 6552   4.339   3.828   1.834 -0.4461 -0.1700 -0.2357
 1627poe    c31 6553   2.613   4.853   0.510  0.5298  0.3916 -0.1324
 1627poe     o2 6554   2.627   4.759   0.614  0.4381 -0.0204 -0.4916
 1627poe    c23 6555   2.562   4.636   0.587  0.4083  0.0581 -0.7811
 1627poe    c23 6556   2.538   4.540   0.705  0.0356  0.5254 -0.4687
 1627poe     o2 6557   2.659   4.516   0.774 -0.2416 -0.3201 -0.2597
 1627poe    c23 6558   2.642   4.433   0.887  0.0514  0.0953  0.0940
 1627poe    c23 6559   2.763   4.432   0.982 -0.1020 -0.1104  0.2873
 1627poe     o2 6560   2.787   4.562   1.029  0.2778 -0.1691  0.2624
 1627poe    c23 6561   2.814   4.554   1.167 -0.6075 -0.2074  0.4425
 1627poe    c23 6562   2.799   4.687   1.243  0.4684 -0.0414  0.3890
 1627poe     o2 6563   2.677   4.754   1.267  0.0397 -0.7289  0.1624
 1627poe    c31 6564   2.581   4.693   1.350 -0.2996  0.1953  0.4642
 1628poe    c31 6565   0.430   3.095   2.570 -0.6838 -0.4715  0.2322
 1628poe     o2 6566   0.347   3.004   2.502 -0.5372 -0.3723 -0.0814
 1628poe    c23 6567   0.209   3.034   2.495 -0.5265 -0.1477  0.5789
 1628poe    c23 6568   0.141   2.942   2.392  0.1909 -0.1120  0.0667
 1628poe     o2 6569   0.143   2.814   2.452 -0.0326 -0.0413  0.2246
 1628poe    c23 6570   0.034   2.741   2.401  0.2503 -0.1573 -0.2209
 1628poe    c23 6571   0.025   2.608   2.478  0.1899  0.1861  0.3751
 1628poe     o2 6572  -0.018   2.629   2.610  0.3145  0.0085  0.4456
 1628poe    c23 6573  -0.036   2.510   2.682 -0.3361 -0.4471 -0.4556
 1628poe    c23 6574  -0.168   2.431   2.670 -0.6684 -0.0113  0.2892
 1628poe     o2 6575  -0.288   2.492   2.713 -0.5983  0.0892  0.3426
 1628poe    c31 6576  -0.351   2.547   2.599 -0.2974 -0.0763  0.0944
 1629poe    c31 6577   3.452   6.864   3.838 -0.3575 -0.1674 -0.1713
 1629poe     o2 6578   3.414   6.891   3.705  0.1893  0.5180 -0.1959
 1629poe    c23 6579   3.488   6.812   3.614 -0.5706 -0.3526 -0.0783
 1629poe    c23 6580   3.451   6.834   3.466 -0.0992  0.0678 -0.1381
 1629poe     o2 6581   3.422   6.966   3.427 -0.1963  0.0623 -0.0828
 1629poe    c23 6582   3.324   6.971   3.325 -0.3248 -0.8078 -0.0088
 1629poe    c23 6583   3.260   7.110   3.307  0.2123 -0.5751 -0.1395
 1629poe     o2 6584   3.182   7.147   3.419  0.4103 -0.1942 -0.1260
 1629poe    c23 6585   3.139   7.281   3.402  0.2100 -0.1910  0.4006
 1629poe    c23 6586   3.084   7.348   3.529 -0.8873  0.2701 -0.3007
 1629poe     o2 6587   3.021   7.254   3.614 -0.2964 -0.1496 -0.3200
 1629poe    c31 6588   2.983   7.305   3.740  0.3981 -0.0262 -0.1565
 1630poe    c31 6589   5.011   3.366   0.517  0.0104 -0.5924  0.1918
 1630poe     o2 6590   4.973   3.322   0.388 -0.2918 -0.1370  0.1239
 1630poe    c23 6591   4.848   3.378   0.357 -0.4140 -0.6287 -0.2939
 1630poe    c23 6592   4.795   3.357   0.214 -0.2813  0.2596 -0.4834
 1630poe     o2 6593   4.766   3.222   0.186 -0.3190  0.1384  0.1230
 1630poe    c23 6594   4.749   3.212   0.047  0.2425 -0.5319  0.0946
 1630poe    c23 6595   4.681   3.075   0.024 -0.3615 -0.3472  0.7423
 1630poe     o2 6596   4.746   2.978   0.103  0.2412  0.1214  0.8258
 1630poe    c23 6597   4.730   2.852   0.042 -0.4474  0.3389  0.5546
 1630poe    c23 6598   4.792   2.747   0.135 -0.5546 -0.0909  0.1409
 1630poe     o2 6599   4.777   2.800   0.264  0.1121  0.7273 -0.1089
 1630poe    c31 6600   4.801   2.714   0.373  0.3328  0.4131 -0.4048
 1631poe    c31 6601   0.528   0.148   3.380  0.1788 -0.2269  0.4083
 1631poe     o2 6602   0.436   0.056   3.433 -0.0390 -0.2934 -0.0762
 1631poe    c23 6603   0.331   0.037   3.341 -0.1375 -0.0374 -0.0199
 1631poe    c23 6604   0.235  -0.065   3.403 -0.3140  0.3137  0.2827
 1631poe     o2 6605   0.318  -0.169   3.450 -0.3734  0.1064 -0.0699
 1631poe    c23 6606   0.236  -0.273   3.496  0.2030 -0.5465 -0.4932
 1631poe    c23 6607   0.307  -0.393   3.562  0.3114 -0.0867  0.2235
 1631poe     o2 6608   0.368  -0.334   3.675  0.4644  0.0253  0.0826
 1631poe    c23 6609   0.434  -0.423   3.762  0.6153  0.0561  0.0003
 1631poe    c23 6610   0.563  -0.375   3.831  0.4134  0.3127  0.1991
 1631poe     o2 6611   0.666  -0.349   3.739  0.1159 -0.3571 -0.3295
 1631poe    c31 6612   0.788  -0.419   3.747  0.5581  0.3455 -0.7250
 1632poe    c31 6613   4.808   1.599   6.308 -0.0096  0.2147  0.3302
 1632poe     o2 6614   4.912   1.624   6.401  0.3061  0.2062 -0.0166
 1632poe    c23 6615   4.945   1.761   6.390  0.0649  0.2316 -0.4541
 1632poe    c23 6616   5.046   1.796   6.500 -0.0817 -0.0487 -0.2282
 1632poe     o2 6617   5.137   1.688   6.514 -0.2016 -0.1337 -0.1091
 1632poe    c23 6618   5.247   1.731   6.591 -0.7098  0.0091  0.5534
 1632poe    c23 6619   5.361   1.629   6.570 -0.4074  0.3237  0.6711
 1632poe     o2 6620   5.311   1.498   6.577  0.6294 -0.1188 -0.0682
 1632poe    c23 6621   5.384   1.396   6.511  0.9776  0.0498  0.0524
 1632poe    c23 6622   5.333   1.251   6.522  0.1320  0.3156 -0.2176
 1632poe     o2 6623   5.252   1.222   6.411  0.6401 -0.0595 -0.4985
 1632poe    c31 6624   5.212   1.087   6.413  0.3198  0.0401  0.1153
 1633poe    c31 6625   1.413   5.113   0.406 -0.1904 -0.6213 -0.1135
 1633poe     o2 6626   1.349   4.992   0.440 -0.2744 -0.5697 -0.0869
 1633poe    c23 6627   1.319   5.009   0.576  0.2688  0.0496 -0.0372
 1633poe    c23 6628   1.245   4.886   0.632  0.8575  0.0483  0.7581
 1633poe     o2 6629   1.299   4.764   0.586  0.0952 -0.0254  0.0158
 1633poe    c23 6630   1.223   4.653   0.627 -0.0201 -0.0224 -0.1920
 1633poe    c23 6631   1.320   4.547   0.573 -0.5929 -0.2171 -0.8536
 1633poe     o2 6632   1.343   4.567   0.435 -0.3366 -0.0152 -0.7808
 1633poe    c23 6633   1.399   4.457   0.367  1.0090  0.0762  0.1413
 1633poe    c23 6634   1.432   4.483   0.219  0.1960  0.1451 -0.0295
 1633poe     o2 6635   1.510   4.592   0.175  0.0228  0.0858 -0.4934
 1633poe    c31 6636   1.507   4.621   0.037  0.1743 -0.2010 -0.5581
 1634poe    c31 6637   4.339   0.285   0.966 -0.0509  0.0661  0.2888
 1634poe     o2 6638   4.316   0.240   1.097  0.1062  0.1838  0.3572
 1634poe    c23 6639   4.215   0.324   1.149  0.3183  0.4984  0.2609
 1634poe    c23 6640   4.150   0.290   1.284  0.4875 -0.6209  0.0702
 1634poe     o2 6641   4.088   0.165   1.303 -0.3896 -0.2584 -0.3326
 1634poe    c23 6642   4.011   0.153   1.420  0.0149 -0.0625 -0.0453
 1634poe    c23 6643   4.018   0.007   1.468  0.5572 -0.1200 -0.2898
 1634poe     o2 6644   4.100  -0.031   1.576  0.2919 -0.6688 -0.2757
 1634poe    c23 6645   4.239  -0.037   1.554  0.4667  0.1939  0.5104
 1634poe    c23 6646   4.303  -0.158   1.483  0.0558  0.0787  0.3355
 1634poe     o2 6647   4.293  -0.275   1.561 -0.0283 -0.5074 -0.5475
 1634poe    c31 6648   4.415  -0.345   1.557  0.0115 -0.5044  0.5407
 1635poe    c31 6649   4.221   3.001   5.447  0.0995 -0.4598  0.6512
 1635poe     o2 6650   4.306   3.047   5.549  0.3242  0.0653  0.2302
 1635poe    c23 6651   4.285   3.187   5.555  0.5305  0.1335 -0.5401
 1635poe    c23 6652   4.408   3.237   5.634  0.1475  0.0286  0.1302
 1635poe     o2 6653   4.517   3.179   5.566 -0.2516 -0.2035 -0.3207
 1635poe    c23 6654   4.638   3.234   5.613 -0.5476 -0.1365  0.3859
 1635poe    c23 6655   4.744   3.158   5.530 -0.8197 -0.1771  0.0750
 1635poe     o2 6656   4.701   3.024   5.517 -0.2659 -0.3552  0.0467
 1635poe    c23 6657   4.816   2.945   5.499  0.3926  0.4907  0.5120
 1635poe    c23 6658   4.795   2.797   5.533 -0.0224  0.3669 -0.2479
 1635poe     o2 6659   4.752   2.798   5.667  0.3537  0.1834 -0.1210
 1635poe    c31 6660   4.802   2.685   5.735  0.0158  0.4085  0.5208
 1636poe    c31 6661   5.406   5.551   0.460  0.2489  0.4937  0.4000
 1636poe     o2 6662   5.375   5.615   0.338 -0.2312 -0.3699  0.0629
 1636poe    c23 6663   5.499   5.606   0.272 -0.5033 -0.7110 -0.4028
 1636poe    c23 6664   5.479   5.636   0.122 -0.0353  0.8422 -0.1655
 1636poe     o2 6665   5.363   5.581   0.065  0.6747 -0.4283 -0.4244
 1636poe    c23 6666   5.341   5.654  -0.054 -1.1101  1.0374  0.7394
 1636poe    c23 6667   5.202   5.602  -0.094  0.0231 -0.5463 -1.3588
 1636poe     o2 6668   5.105   5.636   0.002  0.5225 -0.5175 -0.8563
 1636poe    c23 6669   4.977   5.596  -0.044 -0.0044 -0.1181  0.2185
 1636poe    c23 6670   4.876   5.636   0.065 -0.4297 -0.1289 -0.1691
 1636poe     o2 6671   4.937   5.620   0.191 -0.5366 -0.7004 -0.1899
 1636poe    c31 6672   4.845   5.618   0.298  0.3967 -0.0526  0.6465
 1637poe    c31 6673   1.954   4.564   0.211  0.0431 -0.3885 -0.7127
 1637poe     o2 6674   2.015   4.454   0.146  0.9764 -0.1555 -0.2428
 1637poe    c23 6675   1.932   4.420   0.038  0.1599  0.1481  0.2779
 1637poe    c23 6676   2.008   4.330  -0.061 -0.3727 -0.0876  0.0796
 1637poe     o2 6677   1.998   4.198  -0.011 -0.1719 -0.1929 -0.1553
 1637poe    c23 6678   2.009   4.105  -0.116  0.0887 -0.1760 -0.1424
 1637poe    c23 6679   2.138   4.104  -0.201  0.0372  0.5868 -0.2390
 1637poe     o2 6680   2.255   4.110  -0.124  0.2143 -0.4924 -0.4015
 1637poe    c23 6681   2.373   4.157  -0.186  0.1721 -0.2814 -0.3226
 1637poe    c23 6682   2.498   4.133  -0.099 -0.3081 -0.3313  0.3658
 1637poe     o2 6683   2.514   4.238  -0.006  0.3201  0.2000 -0.3285
 1637poe    c31 6684   2.604   4.190   0.092  0.1080  0.0471 -0.2079
 1638poe    c31 6685   7.033   3.200   0.033  0.1284  0.9199 -0.1192
 1638poe     o2 6686   7.108   3.185  -0.085 -0.6635 -0.2236 -0.4896
 1638poe    c23 6687   7.240   3.164  -0.042 -0.6056  0.2780 -0.4245
 1638poe    c23 6688   7.333   3.143  -0.164  0.1364  0.1547  0.1514
 1638poe     o2 6689   7.358   3.249  -0.254 -0.0346 -0.0994 -0.1949
 1638poe    c23 6690   7.410   3.224  -0.383 -0.1600 -0.4259 -0.1860
 1638poe    c23 6691   7.474   3.351  -0.444  0.1998 -0.5338 -0.0344
 1638poe     o2 6692   7.406   3.440  -0.529 -0.0580 -0.3431  0.3690
 1638poe    c23 6693   7.491   3.543  -0.575 -0.3613  0.0620  0.7101
 1638poe    c23 6694   7.403   3.631  -0.665  0.1695  0.0550  0.1787
 1638poe     o2 6695   7.300   3.699  -0.596 -0.7850 -1.1307 -0.0532
 1638poe    c31 6696   7.204   3.756  -0.682 -0.0249  0.1488 -0.0799
 1639poe    c31 6697   5.450   0.119   4.766 -0.4192 -0.3796 -0.1976
 1639poe     o2 6698   5.463  -0.020   4.748 -0.7685 -0.3875 -0.3936
 1639poe    c23 6699   5.500  -0.057   4.617  0.6439 -0.2036 -0.0567
 1639poe    c23 6700   5.441  -0.198   4.597 -0.7086  0.2885  0.3672
 1639poe     o2 6701   5.435  -0.254   4.726  0.5850  0.1598  0.3806
 1639poe    c23 6702   5.380  -0.381   4.698  0.5610  0.2035  0.2232
 1639poe    c23 6703   5.396  -0.483   4.813  0.0754 -0.2651 -0.1224
 1639poe     o2 6704   5.331  -0.415   4.918  0.5286 -0.2768  0.1683
 1639poe    c23 6705   5.329  -0.500   5.030 -0.1126 -0.0882  0.3059
 1639poe    c23 6706   5.281  -0.439   5.163 -0.2321 -0.1673  0.2986
 1639poe     o2 6707   5.363  -0.333   5.207 -0.0230 -0.2598  0.1284
 1639poe    c31 6708   5.418  -0.363   5.334  0.6818  0.7691  0.0759
 1640poe    c31 6709   2.835   3.476   2.608  0.4318  0.1200 -0.4108
 1640poe     o2 6710   2.928   3.503   2.710 -0.4646  0.2343  0.3902
 1640poe    c23 6711   3.045   3.441   2.661 -0.4992  0.1869  0.3680
 1640poe    c23 6712   3.176   3.471   2.737 -0.5641 -0.0332  0.5659
 1640poe     o2 6713   3.184   3.611   2.734  0.2067 -0.0762  0.3963
 1640poe    c23 6714   3.299   3.659   2.800  0.2806  0.0722  0.1637
 1640poe    c23 6715   3.309   3.811   2.782 -0.0563  0.1183  0.3449
 1640poe     o2 6716   3.356   3.825   2.649 -0.2167  0.2843  0.3055
 1640poe    c23 6717   3.373   3.964   2.636 -0.3556  0.2129 -0.6890
 1640poe    c23 6718   3.366   4.023   2.493 -0.3382  0.1516 -0.7153
 1640poe     o2 6719   3.496   4.039   2.439 -0.1877  0.2812 -0.3232
 1640poe    c31 6720   3.491   4.098   2.311 -0.1477  0.3333 -0.3008
 1641poe    c31 6721   2.144   0.361   6.232 -0.5059  0.1952  0.0010
 1641poe     o2 6722   2.263   0.286   6.230 -0.3439  0.4302  0.5049
 1641poe    c23 6723   2.251   0.152   6.273  0.1292  0.1871 -0.1025
 1641poe    c23 6724   2.388   0.082   6.262  0.2831  0.3447  0.7357
 1641poe     o2 6725   2.485   0.166   6.320  0.4049  0.8844 -0.2272
 1641poe    c23 6726   2.608   0.100   6.304  0.0261  0.1906 -0.2983
 1641poe    c23 6727   2.696   0.146   6.422 -0.1637  0.0631 -0.1059
 1641poe     o2 6728   2.696   0.287   6.424  0.0807  0.0597  0.2477
 1641poe    c23 6729   2.768   0.347   6.529  0.9031 -0.2253 -0.1395
 1641poe    c23 6730   2.746   0.499   6.520 -0.7614 -0.4431 -0.0695
 1641poe     o2 6731   2.637   0.543   6.441 -0.2733  0.5128 -0.2283
 1641poe    c31 6732   2.635   0.683   6.435 -0.2061  0.5430  0.3803
 1642poe    c31 6733   0.762   2.921   2.685  0.3920 -0.1848 -0.6878
 1642poe     o2 6734   0.788   2.944   2.822  0.0512  0.4470 -0.7244
 1642poe    c23 6735   0.771   3.081   2.851 -0.3373  0.3590 -0.5303
 1642poe    c23 6736   0.782   3.112   3.001  0.1753  0.1557 -0.5246
 1642poe     o2 6737   0.888   3.036   3.055  0.0684  0.1098 -0.3770
 1642poe    c23 6738   0.909   3.078   3.187  0.4922  0.3536 -0.5197
 1642poe    c23 6739   1.055   3.040   3.219 -0.0696 -0.4604  1.1853
 1642poe     o2 6740   1.090   2.906   3.192 -0.0430 -0.1953 -0.1568
 1642poe    c23 6741   1.226   2.880   3.219  0.0401 -0.2754 -0.6409
 1642poe    c23 6742   1.263   2.737   3.175  0.5872 -0.1787 -0.5124
 1642poe     o2 6743   1.237   2.717   3.038 -0.1846 -0.4427 -0.3317
 1642poe    c31 6744   1.309   2.598   3.016  0.6255 -0.0677  0.2431
 1643poe    c31 6745   4.995   4.766   7.015 -0.5710  0.5477 -0.1827
 1643poe     o2 6746   5.124   4.823   7.022 -0.0864 -0.5247 -0.1609
 1643poe    c23 6747   5.201   4.728   7.093 -0.0733 -0.1337  0.3549
 1643poe    c23 6748   5.345   4.782   7.087  0.0206 -0.4332 -0.1428
 1643poe     o2 6749   5.409   4.808   6.964 -0.3307  0.2007 -0.1943
 1643poe    c23 6750   5.548   4.829   6.976 -0.2129 -0.5540 -0.2067
 1643poe    c23 6751   5.623   4.788   6.848  0.4018  0.1573 -0.0747
 1643poe     o2 6752   5.626   4.871   6.735 -0.6193  0.0813 -0.1602
 1643poe    c23 6753   5.744   4.844   6.663 -0.2821  0.5555  0.2026
 1643poe    c23 6754   5.861   4.942   6.678 -0.1350  0.3505  0.4147
 1643poe     o2 6755   5.805   5.070   6.654  0.0631  0.3182 -0.2615
 1643poe    c31 6756   5.899   5.173   6.674 -0.3093  0.5675  0.2438
 1644poe    c31 6757   0.671   2.440   5.274 -0.4000 -0.0095  0.0715
 1644poe     o2 6758   0.651   2.355   5.163  0.0978  0.1581 -0.1522
 1644poe    c23 6759   0.520   2.365   5.113 -0.0254 -0.1473  0.0995
 1644poe    c23 6760   0.527   2.326   4.964 -0.2882  0.5503 -0.1027
 1644poe     o2 6761   0.606   2.412   4.886  0.6633  0.3902  0.6652
 1644poe    c23 6762   0.680   2.334   4.795  0.1635 -0.0287  0.6164
 1644poe    c23 6763   0.827   2.376   4.774  0.0559 -0.0453 -0.2305
 1644poe     o2 6764   0.913   2.357   4.884  0.2047  0.0724 -0.3254
 1644poe    c23 6765   1.032   2.431   4.871  0.3747 -0.2171 -0.4231
 1644poe    c23 6766   1.116   2.436   4.999 -0.2155 -0.0767 -0.0400
 1644poe     o2 6767   1.135   2.309   5.057  0.1311 -0.0184 -0.0240
 1644poe    c31 6768   1.238   2.234   4.996 -0.4120 -0.3690 -0.5215
 1645poe    c31 6769   7.139   0.520   2.678 -0.9313 -0.0827 -0.2569
 1645poe     o2 6770   7.076   0.645   2.680 -0.2361  0.2684  0.0289
 1645poe    c23 6771   7.040   0.676   2.547 -0.1813 -0.7626 -0.2288
 1645poe    c23 6772   6.993   0.822   2.544 -0.2587 -0.7886 -0.2795
 1645poe     o2 6773   6.859   0.830   2.587  0.1008  0.4471  0.6712
 1645poe    c23 6774   6.767   0.881   2.493  0.0223 -0.6838  0.1163
 1645poe    c23 6775   6.740   0.777   2.383  0.2565  0.3177 -0.9061
 1645poe     o2 6776   6.706   0.647   2.426  0.4795  0.3863 -0.5174
 1645poe    c23 6777   6.605   0.595   2.342  0.3515  0.0089 -0.1316
 1645poe    c23 6778   6.566   0.450   2.378  0.9821 -0.0803  0.2105
 1645poe     o2 6779   6.471   0.389   2.294  0.6845  1.1447 -0.3658
 1645poe    c31 6780   6.519   0.329   2.176  0.0092 -0.3667  0.1113
 1646poe    c31 6781   5.655   4.777   2.629 -0.2595  0.5853 -0.8169
 1646poe     o2 6782   5.559   4.859   2.567 -0.6054  0.3724 -0.5673
 1646poe    c23 6783   5.529   4.955   2.666  0.0843  0.2167 -0.1958
 1646poe    c23 6784   5.418   5.053   2.623 -0.5376 -0.3802  0.0363
 1646poe     o2 6785   5.437   5.124   2.503 -0.0473 -0.7021 -0.0816
 1646poe    c23 6786   5.324   5.209   2.493  0.2079 -0.3800 -0.2257
 1646poe    c23 6787   5.345   5.323   2.391 -0.1349  0.2880  0.4400
 1646poe     o2 6788   5.383   5.246   2.279 -0.1149  0.4090  0.3636
 1646poe    c23 6789   5.367   5.316   2.158 -0.6082 -0.1612  0.0949
 1646poe    c23 6790   5.413   5.231   2.039 -0.3255 -0.0044  0.0918
 1646poe     o2 6791   5.546   5.186   2.054 -0.1863  0.3672 -0.0280
 1646poe    c31 6792   5.617   5.129   1.946  0.3807  0.3334  0.3582
 1647poe    c31 6793   5.344   5.618   5.319 -0.3788  0.0460 -0.2769
 1647poe     o2 6794   5.306   5.659   5.190 -0.5616  0.0120 -0.2341
 1647poe    c23 6795   5.214   5.568   5.134 -0.5802 -0.5732  0.7268
 1647poe    c23 6796   5.151   5.662   5.029  0.0625 -0.4884  0.4090
 1647poe     o2 6797   5.261   5.706   4.953 -0.1289  0.2946  0.5766
 1647poe    c23 6798   5.231   5.774   4.834 -0.3352 -0.2127  0.3374
 1647poe    c23 6799   5.366   5.823   4.778 -0.3039 -0.4188  0.2328
 1647poe     o2 6800   5.439   5.876   4.886  0.1482 -0.1603 -0.1937
 1647poe    c23 6801   5.464   6.010   4.850  0.5529 -0.3036 -0.4493
 1647poe    c23 6802   5.608   6.056   4.882  0.0273  0.9350  0.2022
 1647poe     o2 6803   5.651   6.065   5.016  0.2313  0.0302  0.2012
 1647poe    c31 6804   5.637   6.192   5.075 -0.2808  0.1825 -0.2432
 1648poe    c31 6805   4.573   0.830   6.938 -0.5310 -0.0147  0.2166
 1648poe     o2 6806   4.600   0.823   7.076 -0.4396  0.0637  0.2034
 1648poe    c23 6807   4.703   0.910   7.116 -0.3372 -0.0517  0.1913
 1648poe    c23 6808   4.696   0.935   7.268  0.3902  0.2127  0.1846
 1648poe     o2 6809   4.740   0.823   7.341  0.0928  0.0031  0.0450
 1648poe    c23 6810   4.879   0.807   7.363  0.1479  0.5851  0.1418
 1648poe    c23 6811   4.901   0.697   7.469 -0.6080 -0.0538 -0.3481
 1648poe     o2 6812   4.885   0.563   7.429 -0.3743 -0.1741 -0.0381
 1648poe    c23 6813   4.936   0.472   7.524  0.3231  0.4228  0.1685
 1648poe    c23 6814   4.974   0.350   7.438 -0.3963  0.5397 -0.3210
 1648poe     o2 6815   4.868   0.320   7.350  0.0425 -0.1609 -0.6171
 1648poe    c31 6816   4.911   0.213   7.269  0.4026 -0.8455  0.4576
 1649poe    c31 6817   2.803   2.973   0.752  0.1529 -0.2124  0.0246
 1649poe     o2 6818   2.672   2.921   0.756  0.1094 -0.1153 -0.1336
 1649poe    c23 6819   2.613   2.943   0.882 -0.1539 -0.2323 -0.2372
 1649poe    c23 6820   2.497   3.044   0.893  0.2065  0.1785 -0.2173
 1649poe     o2 6821   2.536   3.180   0.889 -0.0949  0.2849  0.3434
 1649poe    c23 6822   2.515   3.248   0.767  0.3694 -0.4299 -0.1424
 1649poe    c23 6823   2.592   3.381   0.772 -0.1773 -0.1065 -0.2662
 1649poe     o2 6824   2.514   3.467   0.853 -0.0036 -0.6552  0.4990
 1649poe    c23 6825   2.587   3.586   0.870 -0.4250 -0.3934  0.4747
 1649poe    c23 6826   2.578   3.662   1.004  0.1531  0.0220  0.2794
 1649poe     o2 6827   2.639   3.587   1.107  0.1766 -0.1983  0.1052
 1649poe    c31 6828   2.600   3.630   1.236  0.2051 -0.7558  0.3047
 1650poe    c31 6829   3.090   6.830   2.048 -0.2838 -0.1883 -0.2056
 1650poe     o2 6830   3.124   6.966   2.035 -0.0303 -0.2148  0.1587
 1650poe    c23 6831   3.156   6.983   1.898  0.0643  0.1058  0.2198
 1650poe    c23 6832   3.211   7.126   1.885 -0.2806  0.1869 -0.3396
 1650poe     o2 6833   3.121   7.200   1.964  0.2967  0.0822  0.4209
 1650poe    c23 6834   3.119   7.341   1.949  0.5339  0.0741  0.3143
 1650poe    c23 6835   3.078   7.403   2.084 -0.2722  0.2788 -0.0231
 1650poe     o2 6836   2.964   7.338   2.137 -0.6132  0.4608 -0.5261
 1650poe    c23 6837   2.926   7.389   2.263 -0.2229  0.2043 -0.3016
 1650poe    c23 6838   2.780   7.350   2.292  0.0450 -0.4455  0.2028
 1650poe     o2 6839   2.767   7.212   2.317  0.5761 -0.5880 -0.3085
 1650poe    c31 6840   2.641   7.154   2.339  0.3751 -0.3063 -0.6891
 1651poe    c31 6841   5.746   1.613   6.574  0.0632  0.4255 -0.1903
 1651poe     o2 6842   5.811   1.490   6.595  0.0137  0.4415  0.0486
 1651poe    c23 6843   5.949   1.517   6.587  0.0834  0.1520  0.2632
 1651poe    c23 6844   6.028   1.388   6.617  0.2613  0.0233 -0.7144
 1651poe     o2 6845   6.013   1.284   6.522 -0.0121  0.0717 -0.7269
 1651poe    c23 6846   6.100   1.174   6.530 -0.0955  0.0483 -0.0218
 1651poe    c23 6847   6.064   1.065   6.427 -0.3456  0.0528  0.0617
 1651poe     o2 6848   6.055   1.128   6.301 -0.7231 -0.1557 -0.0185
 1651poe    c23 6849   6.024   1.046   6.191 -0.4606 -0.0662 -0.1615
 1651poe    c23 6850   5.991   1.124   6.062  0.3425  0.0384 -0.3106
 1651poe     o2 6851   5.958   1.255   6.105  0.1637 -0.0314 -0.2339
 1651poe    c31 6852   5.906   1.338   6.004 -0.9075 -0.2991  0.0773
 1652poe    c31 6853   1.423   5.470   6.889  0.2635 -0.0607  0.3069
 1652poe     o2 6854   1.364   5.472   6.760 -0.5565 -0.2520  0.6712
 1652poe    c23 6855   1.268   5.574   6.749 -0.2225  0.0263  0.3137
 1652poe    c23 6856   1.136   5.528   6.814  0.2629 -0.7827  0.7429
 1652poe     o2 6857   1.066   5.434   6.735  0.3517  0.0482 -0.3554
 1652poe    c23 6858   0.962   5.375   6.810  0.2906  0.4283 -0.1343
 1652poe    c23 6859   0.849   5.365   6.705  0.1685 -0.3308  0.0651
 1652poe     o2 6860   0.732   5.443   6.715 -0.0201 -0.5910 -0.0992
 1652poe    c23 6861   0.641   5.450   6.608  0.4965  0.4295 -0.4844
 1652poe    c23 6862   0.542   5.568   6.606  0.1537  0.1402 -0.6271
 1652poe     o2 6863   0.468   5.561   6.726  0.2487 -0.5344 -0.6016
 1652poe    c31 6864   0.356   5.647   6.733  0.3250 -0.5140  0.5747
 1653poe    c31 6865   6.661   0.128   4.129  0.7755  0.2563  0.0226
 1653poe     o2 6866   6.711   0.132   4.261 -0.0224  0.0675  0.3332
 1653poe    c23 6867   6.814   0.039   4.288  0.0710  0.1897  0.4018
 1653poe    c23 6868   6.866   0.029   4.432  0.2660  0.4901  0.3529
 1653poe     o2 6869   6.918   0.148   4.486  1.2436  0.6284 -0.8708
 1653poe    c23 6870   6.947   0.135   4.623  0.3375  0.2928 -0.7087
 1653poe    c23 6871   7.075   0.062   4.667  0.1874  0.3387 -0.1862
 1653poe     o2 6872   7.190   0.125   4.614  0.5536 -0.2449 -0.0990
 1653poe    c23 6873   7.304   0.061   4.667  0.6897  0.1695  0.1179
 1653poe    c23 6874   7.438   0.129   4.637  0.9662 -0.3884  0.0775
 1653poe     o2 6875   7.453   0.245   4.716 -0.2205 -0.6158  0.6589
 1653poe    c31 6876   7.587   0.289   4.710 -0.1598 -0.9163 -0.4890
 1654poe    c31 6877   2.969   4.361   2.689  0.3702  0.2980  0.1742
 1654poe     o2 6878   2.869   4.460   2.705  0.0677  0.0361 -0.0746
 1654poe    c23 6879   2.813   4.456   2.835  0.2579  0.2496  0.0142
 1654poe    c23 6880   2.705   4.563   2.864  0.3514  0.3757 -0.0993
 1654poe     o2 6881   2.760   4.692   2.855 -0.0346  0.5903  0.5608
 1654poe    c23 6882   2.668   4.796   2.831 -0.7941 -0.2415 -0.2180
 1654poe    c23 6883   2.740   4.925   2.875  0.3032 -0.8741 -0.1263
 1654poe     o2 6884   2.872   4.940   2.826  0.2694 -0.3219 -0.0511
 1654poe    c23 6885   2.923   5.072   2.829 -0.5891  0.0083  0.5439
 1654poe    c23 6886   3.076   5.074   2.847 -0.5383 -0.3505  0.1631
 1654poe     o2 6887   3.124   4.970   2.764 -0.4323 -0.2181  0.0576
 1654poe    c31 6888   3.246   4.996   2.697 -0.5300 -0.5039 -0.2334
 1655poe    c31 6889   0.975   2.247   3.337 -1.1537 -0.1139 -0.5907
 1655poe     o2 6890   0.987   2.227   3.197  0.0684 -0.1697 -0.4936
 1655poe    c23 6891   1.122   2.200   3.166  0.2873 -0.1454  0.3873
 1655poe    c23 6892   1.157   2.171   3.019 -0.4684 -0.2644  0.2263
 1655poe     o2 6893   1.139   2.276   2.927  0.0470 -0.1487  0.2589
 1655poe    c23 6894   1.161   2.238   2.793 -0.3012  0.6124 -0.0219
 1655poe    c23 6895   1.134   2.362   2.706  0.1308  0.1764 -0.7948
 1655poe     o2 6896   1.004   2.417   2.721  0.1667  0.0903 -0.1221
 1655poe    c23 6897   0.985   2.544   2.664 -0.2779  0.2487  0.3797
 1655poe    c23 6898   0.973   2.543   2.510  0.0619  0.2434  0.3523
 1655poe     o2 6899   0.867   2.473   2.450  0.6877 -0.0519 -0.4116
 1655poe    c31 6900   0.891   2.472   2.311 -0.1014  0.5999 -0.5613
 1656poe    c31 6901   6.788   4.443   2.871  1.1341 -0.4361 -0.2725
 1656poe     o2 6902   6.775   4.308   2.832 -0.5583 -0.4125  0.1464
 1656poe    c23 6903   6.857   4.235   2.920 -0.3695 -0.0982  0.2325
 1656poe    c23 6904   6.842   4.089   2.871  0.8860 -0.3070  0.4246
 1656poe     o2 6905   6.706   4.071   2.839  1.0112 -0.0295 -0.2690
 1656poe    c23 6906   6.676   3.934   2.835 -0.1799  0.2221 -0.5300
 1656poe    c23 6907   6.538   3.911   2.772 -0.2676  0.0466 -0.2744
 1656poe     o2 6908   6.530   3.990   2.655  0.8464 -0.0434 -0.4195
 1656poe    c23 6909   6.412   3.947   2.592  0.6194  0.0128 -0.0429
 1656poe    c23 6910   6.373   4.036   2.472 -0.2522 -0.7172 -0.3127
 1656poe     o2 6911   6.347   4.169   2.511 -0.0870 -0.7559 -0.0712
 1656poe    c31 6912   6.284   4.245   2.411  0.2721 -0.2249  0.0969
 1657poe    c31 6913   3.413   3.662   0.991 -0.1040 -0.0681  0.4060
 1657poe     o2 6914   3.380   3.721   0.868  0.0020 -0.2366  0.2967
 1657poe    c23 6915   3.481   3.789   0.797 -0.1212 -0.8351 -0.4761
 1657poe    c23 6916   3.443   3.834   0.655 -0.1573 -0.4631 -0.3491
 1657poe     o2 6917   3.330   3.917   0.668  0.0518 -0.2620  0.2637
 1657poe    c23 6918   3.247   3.937   0.555  0.1662 -0.3497  0.1648
 1657poe    c23 6919   3.140   3.827   0.548 -0.3586  0.2179 -0.9185
 1657poe     o2 6920   3.097   3.796   0.679  0.2146 -0.0664 -0.7965
 1657poe    c23 6921   3.033   3.671   0.691 -0.0261  0.1758  0.4797
 1657poe    c23 6922   2.981   3.673   0.837 -0.2500  1.0120  0.3930
 1657poe     o2 6923   3.096   3.665   0.918  0.1133  0.0047 -0.1948
 1657poe    c31 6924   3.052   3.633   1.048 -0.3712 -0.3173 -0.4357
 1658poe    c31 6925   1.822   3.851   0.248  0.2076  0.2271 -0.3147
 1658poe     o2 6926   1.853   3.972   0.313  0.2583  0.0534 -0.0133
 1658poe    c23 6927   1.737   4.049   0.339 -0.0170 -0.1751 -0.5454
 1658poe    c23 6928   1.769   4.181   0.410 -0.5767 -0.4665  0.2563
 1658poe     o2 6929   1.848   4.155   0.523 -0.4327 -0.3970  0.1719
 1658poe    c23 6930   1.867   4.279   0.587  0.2656 -0.5577  0.2849
 1658poe    c23 6931   1.978   4.280   0.694  0.6642 -0.6080 -0.1224
 1658poe     o2 6932   2.101   4.237   0.640  0.6977 -0.3784 -0.2266
 1658poe    c23 6933   2.210   4.262   0.726  0.2228  0.0545  0.2577
 1658poe    c23 6934   2.341   4.250   0.647  0.0696  0.6932 -0.0983
 1658poe     o2 6935   2.354   4.318   0.524 -0.1135  0.2305 -0.3756
 1658poe    c31 6936   2.474   4.269   0.469 -0.2598 -0.2354 -0.2815
 1659poe    c31 6937   7.134   2.236   0.629 -0.2436  0.2328  0.1395
 1659poe     o2 6938   7.064   2.297   0.523 -0.4073 -0.2044 -0.0042
 1659poe    c23 6939   7.013   2.197   0.438  0.1509 -0.3561 -0.1698
 1659poe    c23 6940   6.929   2.273   0.334 -0.0304 -0.0046  0.2343
 1659poe     o2 6941   7.005   2.380   0.283 -0.2591  0.1211  0.1533
 1659poe    c23 6942   6.917   2.462   0.209 -0.0201  0.3511  0.1230
 1659poe    c23 6943   6.998   2.583   0.159  0.9561 -0.4940 -0.3736
 1659poe     o2 6944   7.036   2.659   0.272 -0.6706 -0.5387  0.2307
 1659poe    c23 6945   7.004   2.794   0.252  0.0341 -0.3827  0.1309
 1659poe    c23 6946   7.011   2.861   0.391  0.4808 -0.1306 -0.0121
 1659poe     o2 6947   7.140   2.860   0.449  0.5355 -0.0030 -0.1277
 1659poe    c31 6948   7.231   2.942   0.380  0.6356 -0.0640 -0.0687
 1660poe    c31 6949   5.866   3.116   1.037 -0.4355  0.3952  0.0972
 1660poe     o2 6950   6.006   3.121   1.025 -0.3531  0.0051  0.8115
 1660poe    c23 6951   6.079   3.222   1.092  0.0147  0.0872  0.2988
 1660poe    c23 6952   6.231   3.194   1.088 -0.0061 -0.0508  0.4252
 1660poe     o2 6953   6.285   3.109   1.186  0.1870  0.6840  0.9644
 1660poe    c23 6954   6.423   3.085   1.179 -0.0288 -0.3226 -0.0617
 1660poe    c23 6955   6.467   2.952   1.244  0.4639  0.0637  0.4096
 1660poe     o2 6956   6.434   2.847   1.155  0.5258  0.3458  0.0499
 1660poe    c23 6957   6.438   2.729   1.231 -0.6745  0.2644  0.0100
 1660poe    c23 6958   6.402   2.609   1.141 -0.4213 -0.0157  0.2784
 1660poe     o2 6959   6.516   2.573   1.067 -0.2317  0.7182  0.2104
 1660poe    c31 6960   6.478   2.475   0.973  0.4914  0.2469  0.4016
 1661poe    c31 6961   4.072   0.466   3.449 -0.6115 -0.5506 -0.2355
 1661poe     o2 6962   4.130   0.371   3.363  0.0281  0.0101 -0.4336
 1661poe    c23 6963   4.078   0.365   3.232 -0.7745 -1.0079 -0.0825
 1661poe    c23 6964   4.187   0.294   3.149 -0.3299 -0.1291 -0.2621
 1661poe     o2 6965   4.310   0.363   3.154 -0.4047 -0.0127 -0.0195
 1661poe    c23 6966   4.408   0.320   3.062 -0.0115  0.1611  0.3146
 1661poe    c23 6967   4.538   0.394   3.096  0.0627  0.1522  0.0482
 1661poe     o2 6968   4.576   0.356   3.226 -0.2218  0.1651  0.1355
 1661poe    c23 6969   4.683   0.435   3.273 -0.1943  0.3111 -0.1732
 1661poe    c23 6970   4.798   0.359   3.341 -0.4072  0.1943  0.0547
 1661poe     o2 6971   4.886   0.288   3.257 -0.1819  0.7428 -0.1765
 1661poe    c31 6972   4.985   0.214   3.323 -0.4224  0.4143 -0.1802
 1662poe    c31 6973   5.167   0.925   2.348  0.0352 -0.2636 -0.1540
 1662poe     o2 6974   5.051   0.994   2.308  0.6660  0.8450 -0.1008
 1662poe    c23 6975   5.044   1.016   2.169  0.3917 -0.0142 -0.2309
 1662poe    c23 6976   4.939   0.918   2.113  0.0150  0.0211  0.4137
 1662poe     o2 6977   4.812   0.947   2.168 -0.0620 -0.1561  0.3285
 1662poe    c23 6978   4.782   0.845   2.260 -0.1410 -0.3689  0.0680
 1662poe    c23 6979   4.647   0.886   2.320 -0.0014  0.5991 -0.2603
 1662poe     o2 6980   4.650   0.946   2.447  0.6513 -0.3709  0.1978
 1662poe    c23 6981   4.530   0.932   2.519  0.7292  0.3702  0.4877
 1662poe    c23 6982   4.477   1.070   2.562 -0.1062 -0.1022  1.0115
 1662poe     o2 6983   4.586   1.139   2.619  0.2441  0.1973 -0.0132
 1662poe    c31 6984   4.527   1.266   2.631  0.5632  0.3300  0.1522
 1663poe    c31 6985   6.854   2.045   6.543  0.2622  0.4582 -0.0497
 1663poe     o2 6986   6.735   2.039   6.618  0.5207  0.3357  0.3519
 1663poe    c23 6987   6.642   2.120   6.550  0.1182  0.8259  1.4617
 1663poe    c23 6988   6.504   2.073   6.597 -0.3206  0.5421 -0.0755
 1663poe     o2 6989   6.467   2.122   6.724  0.0217  0.2743  0.1295
 1663poe    c23 6990   6.335   2.078   6.746 -0.0456  0.1581 -0.4786
 1663poe    c23 6991   6.316   2.115   6.895  0.1607 -0.1429 -0.3767
 1663poe     o2 6992   6.376   2.237   6.931 -0.4580  0.2606 -0.6997
 1663poe    c23 6993   6.358   2.280   7.064 -0.0552  0.5143 -0.7253
 1663poe    c23 6994   6.473   2.381   7.078  0.2178  0.0565  0.3859
 1663poe     o2 6995   6.602   2.336   7.041  0.0404 -0.0929 -0.0474
 1663poe    c31 6996   6.694   2.442   7.040  0.0614 -0.1059  0.4475
 1664poe    c31 6997   6.796   2.764   1.212  0.5123 -0.1389 -0.0435
 1664poe     o2 6998   6.845   2.879   1.147 -0.3415  0.5922  0.5652
 1664poe    c23 6999   6.845   2.856   1.008 -0.2297  0.2971  0.6138
 1664poe    c23 7000   6.886   2.979   0.925  0.5365 -0.2709  0.1263
 1664poe     o2 7001   7.012   3.038   0.946  0.3117  0.2511  0.0396
 1664poe    c23 7002   7.032   3.135   0.846 -0.0941  0.5128  0.2110
 1664poe    c23 7003   7.185   3.155   0.844 -0.1136  0.6488 -0.1214
 1664poe     o2 7004   7.250   3.123   0.965 -0.6951 -0.2251 -0.0237
 1664poe    c23 7005   7.390   3.112   0.958 -0.6735  0.0992 -0.1510
 1664poe    c23 7006   7.438   2.975   0.905 -0.3104  0.6016 -1.1352
 1664poe     o2 7007   7.404   2.871   0.994  0.3072  0.0941 -1.4787
 1664poe    c31 7008   7.503   2.774   0.973 -0.4998 -0.9703 -0.4405
 1665poe    c31 7009   5.800   2.737   2.812  0.7412 -0.4223 -0.0479
 1665poe     o2 7010   5.717   2.678   2.909  0.0434  0.4667 -0.0851
 1665poe    c23 7011   5.788   2.672   3.030 -0.2619  0.1623  0.0832
 1665poe    c23 7012   5.704   2.658   3.159 -0.6595 -0.8846 -0.2812
 1665poe     o2 7013   5.572   2.684   3.117 -0.5218  0.4081  0.0447
 1665poe    c23 7014   5.480   2.642   3.215 -0.1285 -0.5044  0.0292
 1665poe    c23 7015   5.340   2.689   3.172 -0.0717 -0.2286  0.1410
 1665poe     o2 7016   5.327   2.664   3.033  0.1194 -0.5157  0.1723
 1665poe    c23 7017   5.194   2.668   2.985  0.2206  0.1329 -0.0670
 1665poe    c23 7018   5.142   2.795   2.916 -0.0881 -0.1452 -0.3467
 1665poe     o2 7019   5.218   2.832   2.803  0.0620 -0.0179 -0.2043
 1665poe    c31 7020   5.204   2.965   2.759  0.0094 -0.0784 -0.3679
 1666poe    c31 7021   4.320   1.447   5.280  0.4663 -0.2041 -0.4955
 1666poe     o2 7022   4.433   1.370   5.311  0.5063  0.1659  0.2982
 1666poe    c23 7023   4.387   1.280   5.409  0.1694  0.9030  0.8173
 1666poe    c23 7024   4.510   1.211   5.471 -0.0594 -0.4420 -0.2040
 1666poe     o2 7025   4.591   1.300   5.544 -0.4678 -0.0274 -0.2539
 1666poe    c23 7026   4.725   1.256   5.547 -0.3017  0.4632 -0.3631
 1666poe    c23 7027   4.789   1.364   5.637 -0.1107 -0.2657  0.3927
 1666poe     o2 7028   4.753   1.495   5.599  0.2482 -0.3290 -0.1873
 1666poe    c23 7029   4.837   1.593   5.656 -0.1644 -0.0239 -0.0962
 1666poe    c23 7030   4.808   1.735   5.603  0.4177  0.0479 -0.2329
 1666poe     o2 7031   4.687   1.780   5.660  0.5717 -0.3749  0.4410
 1666poe    c31 7032   4.699   1.917   5.692 -0.2816 -0.1636 -0.1121
 1667poe    c31 7033   5.145   0.529   2.719  0.2894 -0.9923  0.2688
 1667poe     o2 7034   5.042   0.574   2.805  0.6997  0.2168  0.1496
 1667poe    c23 7035   4.966   0.681   2.753  0.1340 -0.3186 -0.1444
 1667poe    c23 7036   4.829   0.670   2.822  0.1972 -0.0684  0.0187
 1667poe     o2 7037   4.863   0.703   2.955 -0.3716 -0.3637  0.2392
 1667poe    c23 7038   4.759   0.698   3.051 -0.2668 -0.2062  0.3614
 1667poe    c23 7039   4.826   0.761   3.174  0.6462  0.3422 -0.3996
 1667poe     o2 7040   4.940   0.684   3.204  0.5203  0.1634 -0.3754
 1667poe    c23 7041   4.989   0.722   3.331  0.1725  0.1088 -0.2257
 1667poe    c23 7042   5.093   0.622   3.383  0.0373 -0.0553 -0.2702
 1667poe     o2 7043   5.211   0.636   3.306  0.2321  0.8542  0.1833
 1667poe    c31 7044   5.320   0.570   3.367  0.0174  0.3150 -0.0098
 1668poe    c31 7045   4.144   6.928   1.981  0.2523  0.6492  0.1934
 1668poe     o2 7046   4.145   6.892   2.118 -0.0535  0.6485  0.1946
 1668poe    c23 7047   4.276   6.849   2.147 -0.1157  0.2020 -0.1708
 1668poe    c23 7048   4.292   6.772   2.279 -0.3560  0.0392 -0.2372
 1668poe     o2 7049   4.278   6.632   2.282  0.6680 -0.0520  0.7764
 1668poe    c23 7050   4.280   6.594   2.418  0.9870 -0.1513  0.7456
 1668poe    c23 7051   4.254   6.445   2.444 -0.1368 -0.1616 -0.3368
 1668poe     o2 7052   4.129   6.402   2.394 -0.2921 -0.0960 -0.0106
 1668poe    c23 7053   4.125   6.261   2.402  0.2979 -0.1203 -0.1204
 1668poe    c23 7054   3.991   6.214   2.343  0.4096  0.0586 -0.5223
 1668poe     o2 7055   4.000   6.074   2.347 -0.4889 -0.0062 -0.4418
 1668poe    c31 7056   3.911   6.000   2.266  0.1591 -0.2973 -0.9037
 1669poe    c31 7057   5.044   3.927   3.828 -0.4495 -0.0978  0.0518
 1669poe     o2 7058   4.965   4.031   3.773  0.1231  0.0863 -0.4301
 1669poe    c23 7059   4.847   3.990   3.708 -0.1266 -0.5163  0.3821
 1669poe    c23 7060   4.751   4.089   3.639  0.1477 -0.2394  0.3933
 1669poe     o2 7061   4.671   4.170   3.722  0.3862  0.1184  0.2740
 1669poe    c23 7062   4.584   4.250   3.645  0.5425  0.4847  0.4749
 1669poe    c23 7063   4.467   4.293   3.735 -0.2754 -0.7095  0.0050
 1669poe     o2 7064   4.520   4.349   3.853  0.5922  0.5913 -0.9720
 1669poe    c23 7065   4.439   4.447   3.914  0.6838 -0.0765  0.2641
 1669poe    c23 7066   4.475   4.469   4.062 -0.0407  0.2295  0.4005
 1669poe     o2 7067   4.505   4.343   4.120 -0.0151  0.0367 -0.0267
 1669poe    c31 7068   4.468   4.347   4.256 -0.2951 -0.1318 -0.0974
 1670poe    c31 7069   4.569   1.179   6.110 -0.1604  0.7247 -0.1026
 1670poe     o2 7070   4.511   1.051   6.105  0.8701  0.2626 -0.6020
 1670poe    c23 7071   4.371   1.068   6.105  0.7675 -0.5505 -0.4070
 1670poe    c23 7072   4.293   0.946   6.054  0.2052 -0.3038 -0.1475
 1670poe     o2 7073   4.276   0.829   6.132 -0.1683  0.0795  0.3565
 1670poe    c23 7074   4.228   0.716   6.062  0.2684  0.0356  0.1192
 1670poe    c23 7075   4.242   0.608   6.171 -0.0047  0.3575  0.4818
 1670poe     o2 7076   4.362   0.619   6.244 -0.0271  0.3237  0.5230
 1670poe    c23 7077   4.374   0.502   6.322  0.1951  0.2067  0.3143
 1670poe    c23 7078   4.497   0.514   6.413  0.5693 -0.5005 -0.0858
 1670poe     o2 7079   4.493   0.651   6.446 -0.2720 -0.6710  0.5646
 1670poe    c31 7080   4.549   0.693   6.569  0.6795 -0.6619  0.1422
 1671poe    c31 7081   7.027   4.730   3.635  0.0433  0.4241 -0.0595
 1671poe     o2 7082   7.061   4.607   3.696 -0.8881  0.1684 -0.0403
 1671poe    c23 7083   7.132   4.630   3.816  0.1691  0.3127 -0.6740
 1671poe    c23 7084   7.205   4.500   3.853 -0.2365  0.2968  0.0903
 1671poe     o2 7085   7.123   4.392   3.813 -0.5955  0.4512  0.4035
 1671poe    c23 7086   7.151   4.287   3.903 -0.9507 -0.0186 -0.0303
 1671poe    c23 7087   7.069   4.163   3.864 -0.1787 -0.4652 -0.2428
 1671poe     o2 7088   6.961   4.200   3.782  0.0881  0.7070 -0.0800
 1671poe    c23 7089   6.866   4.100   3.752  0.3327  0.4421  0.0219
 1671poe    c23 7090   6.731   4.095   3.827  0.0632  0.0107 -0.4866
 1671poe     o2 7091   6.666   4.219   3.840 -0.0023 -0.0676 -0.0621
 1671poe    c31 7092   6.546   4.209   3.915 -0.2974 -0.4648 -0.5791
 1672poe    c31 7093   2.160   4.846   1.224  0.0842  0.3087  0.0138
 1672poe     o2 7094   2.215   4.972   1.194 -0.2323  0.4862  0.1795
 1672poe    c23 7095   2.241   4.986   1.056  0.4168 -0.2002  0.2241
 1672poe    c23 7096   2.327   5.112   1.034  0.3252 -0.1410  0.2048
 1672poe     o2 7097   2.464   5.097   1.063  0.3622  0.2266  0.2190
 1672poe    c23 7098   2.520   5.227   1.056  0.0152  0.3166 -1.3591
 1672poe    c23 7099   2.657   5.253   1.122 -0.3363 -0.1591 -0.4113
 1672poe     o2 7100   2.756   5.179   1.054 -0.2336 -0.0382 -0.3943
 1672poe    c23 7101   2.864   5.151   1.140 -0.1256  0.2226 -0.4458
 1672poe    c23 7102   2.985   5.101   1.059 -0.0286 -0.7268  0.2714
 1672poe     o2 7103   2.955   4.989   0.980 -0.0497 -0.2579 -0.3925
 1672poe    c31 7104   3.077   4.922   0.958  0.5151  0.5042  0.3637
 1673poe    c31 7105   6.782   2.280   1.226 -0.1148 -0.4752  0.3360
 1673poe     o2 7106   6.690   2.214   1.310 -0.6511 -0.0051  0.1205
 1673poe    c23 7107   6.693   2.258   1.444  0.4294  0.4370 -0.0320
 1673poe    c23 7108   6.558   2.254   1.519  0.0662 -0.0337 -0.6977
 1673poe     o2 7109   6.493   2.129   1.521  0.1417 -0.0695 -0.1638
 1673poe    c23 7110   6.376   2.146   1.597 -0.1133  0.1498 -0.5989
 1673poe    c23 7111   6.300   2.012   1.588  0.1392 -0.0073 -0.3803
 1673poe     o2 7112   6.288   1.985   1.451 -1.2078 -0.0216 -0.2674
 1673poe    c23 7113   6.241   1.853   1.433  0.0188 -0.4954 -0.1050
 1673poe    c23 7114   6.239   1.833   1.281  0.0808 -0.7443 -0.0732
 1673poe     o2 7115   6.365   1.829   1.217  0.2171  0.5533  0.0806
 1673poe    c31 7116   6.371   1.813   1.077 -0.4948  0.7105  0.0275
 1674poe    c31 7117   3.591   0.399   3.990  0.3335 -0.1376 -0.2354
 1674poe     o2 7118   3.565   0.394   3.851  0.4095  0.4331 -0.2747
 1674poe    c23 7119   3.427   0.389   3.822  0.3939  0.9158 -0.2834
 1674poe    c23 7120   3.418   0.394   3.669 -0.0548 -0.6563 -0.3229
 1674poe     o2 7121   3.513   0.314   3.602  0.8798  0.5046 -0.4289
 1674poe    c23 7122   3.498   0.311   3.462  0.1753 -0.2727 -0.3454
 1674poe    c23 7123   3.628   0.243   3.414  0.3137 -0.2232 -0.0465
 1674poe     o2 7124   3.628   0.123   3.488 -0.3787 -0.2801 -0.1293
 1674poe    c23 7125   3.724   0.023   3.464 -0.0210  0.1321 -0.4225
 1674poe    c23 7126   3.794  -0.016   3.596 -0.3938 -0.2878 -0.3453
 1674poe     o2 7127   3.692  -0.033   3.691 -0.2405 -0.2468 -0.1738
 1674poe    c31 7128   3.756  -0.071   3.811 -0.0522  0.5736 -0.0114
 1675poe    c31 7129   3.857   3.742   5.219  0.5999  0.0864 -0.3607
 1675poe     o2 7130   3.726   3.752   5.271  0.7744 -0.2563  0.1505
 1675poe    c23 7131   3.638   3.833   5.196  0.7991 -0.1643  0.2203
 1675poe    c23 7132   3.508   3.855   5.276  0.9418 -0.5192  0.5523
 1675poe     o2 7133   3.443   3.733   5.304 -0.1321 -0.0654  0.0744
 1675poe    c23 7134   3.322   3.746   5.375 -0.2003  0.5958 -0.1566
 1675poe    c23 7135   3.289   3.607   5.433  0.0066  0.6228  0.0287
 1675poe     o2 7136   3.395   3.545   5.502  0.2763  0.9232 -0.1094
 1675poe    c23 7137   3.357   3.423   5.562  0.8528  0.5667 -0.4638
 1675poe    c23 7138   3.470   3.398   5.663 -0.1241  0.3560  0.5942
 1675poe     o2 7139   3.585   3.393   5.581 -0.5059 -0.5029  0.0949
 1675poe    c31 7140   3.693   3.335   5.648  0.0229  0.4800  0.1158
 1676poe    c31 7141   6.665   4.398   6.819 -0.6097 -0.0974  0.6515
 1676poe     o2 7142   6.601   4.500   6.747 -0.0640 -0.2761 -0.1076
 1676poe    c23 7143   6.670   4.565   6.643  0.3634 -0.3505  0.1285
 1676poe    c23 7144   6.584   4.669   6.570  0.2360 -0.0816  0.6611
 1676poe     o2 7145   6.454   4.614   6.568  0.2353 -0.0659  0.1186
 1676poe    c23 7146   6.357   4.703   6.518  0.2613  0.0690  0.3059
 1676poe    c23 7147   6.215   4.646   6.535 -0.0050  0.4038 -0.7260
 1676poe     o2 7148   6.188   4.623   6.671  0.6170  0.6317 -0.5607
 1676poe    c23 7149   6.057   4.575   6.686  0.8164  0.2589  0.0163
 1676poe    c23 7150   6.000   4.550   6.827 -0.0014 -0.3658 -0.4116
 1676poe     o2 7151   6.090   4.467   6.897 -0.4019 -0.1212  0.4039
 1676poe    c31 7152   6.058   4.448   7.034 -0.2047 -0.2006  0.4395
 1677poe    c31 7153   1.457   5.281   4.428  0.1642 -0.6234 -0.0246
 1677poe     o2 7154   1.573   5.355   4.459 -0.2488  0.0425 -0.0627
 1677poe    c23 7155   1.581   5.412   4.588  0.1544 -0.2122  0.0245
 1677poe    c23 7156   1.647   5.333   4.702  0.2125 -0.8009 -0.4107
 1677poe     o2 7157   1.787   5.336   4.686  0.1522 -0.7443 -0.9288
 1677poe    c23 7158   1.869   5.277   4.785 -0.4856  0.1076  0.1314
 1677poe    c23 7159   2.012   5.328   4.763 -0.7504  0.5684 -0.5887
 1677poe     o2 7160   2.066   5.292   4.638  0.0597 -0.2722 -0.0183
 1677poe    c23 7161   2.191   5.357   4.635 -0.0423 -0.0811 -0.2050
 1677poe    c23 7162   2.258   5.308   4.505  0.1366 -0.4825  0.0355
 1677poe     o2 7163   2.160   5.289   4.405 -0.1024 -0.0632  0.1854
 1677poe    c31 7164   2.211   5.259   4.277 -0.3629  0.3315 -0.0133
 1678poe    c31 7165   3.062   2.941   5.384 -0.0363  0.2326  0.5709
 1678poe     o2 7166   3.135   3.003   5.280 -0.6217 -0.3773 -0.2128
 1678poe    c23 7167   3.217   2.916   5.206  0.5784  0.4344  0.1407
 1678poe    c23 7168   3.345   2.994   5.171  0.6073  0.3244  0.0003
 1678poe     o2 7169   3.335   3.077   5.058 -0.1069 -0.0063 -0.1786
 1678poe    c23 7170   3.363   3.210   5.093  0.5391 -0.1597 -0.1033
 1678poe    c23 7171   3.437   3.295   4.988 -0.0798  0.0070 -0.4104
 1678poe     o2 7172   3.461   3.433   4.999 -0.3545 -0.0120  0.5067
 1678poe    c23 7173   3.552   3.479   4.902 -0.2267 -0.1098  0.5800
 1678poe    c23 7174   3.555   3.631   4.877  0.1016 -0.0914  0.7297
 1678poe     o2 7175   3.444   3.645   4.791  0.3586  0.2921  0.4590
 1678poe    c31 7176   3.427   3.772   4.732  0.5311  0.1573  0.1169
 1679poe    c31 7177   4.683   5.172   3.759  0.0402  0.1695 -0.0089
 1679poe     o2 7178   4.563   5.153   3.830 -0.3963 -0.3418 -0.8652
 1679poe    c23 7179   4.447   5.202   3.766 -0.2077 -0.5713 -1.3807
 1679poe    c23 7180   4.332   5.171   3.863  1.0773 -0.1320  0.3333
 1679poe     o2 7181   4.322   5.246   3.982  0.1778  0.4106 -0.0731
 1679poe    c23 7182   4.203   5.316   4.011 -0.2325 -0.3539  0.1144
 1679poe    c23 7183   4.197   5.333   4.164  0.2807  0.2826  0.0715
 1679poe     o2 7184   4.235   5.206   4.211 -0.1810 -0.0228 -0.3620
 1679poe    c23 7185   4.219   5.205   4.351  0.3169 -0.4338 -0.3041
 1679poe    c23 7186   4.255   5.067   4.409 -0.3497 -0.3232  0.3795
 1679poe     o2 7187   4.355   5.019   4.322 -0.4133 -0.5209  0.4136
 1679poe    c31 7188   4.435   4.933   4.400 -0.1720  0.0786  0.8457
 1680poe    c31 7189   3.755   1.775   5.836 -0.4272 -0.1392  0.0821
 1680poe     o2 7190   3.797   1.909   5.820  0.5436 -0.4502 -0.0451
 1680poe    c23 7191   3.879   1.952   5.926  0.1626 -0.2454  0.1729
 1680poe    c23 7192   4.021   1.893   5.918  0.2538 -0.0422  0.2750
 1680poe     o2 7193   4.064   1.909   5.784 -0.3757 -0.0718  0.0681
 1680poe    c23 7194   4.204   1.909   5.768 -0.4027 -0.1201 -0.1717
 1680poe    c23 7195   4.228   1.900   5.616  0.5325 -0.0722 -0.0345
 1680poe     o2 7196   4.162   2.003   5.546  0.4888  0.1538  0.3356
 1680poe    c23 7197   4.155   1.989   5.406  0.1395 -0.3514  0.3995
 1680poe    c23 7198   4.102   2.121   5.345  0.1232 -0.2789  0.5693
 1680poe     o2 7199   3.988   2.142   5.424 -0.2613 -0.5788  0.1037
 1680poe    c31 7200   3.906   2.245   5.374  0.0036 -0.3291  0.1836
 1681poe    c31 7201   1.194   1.315   2.432 -0.2173 -0.1372  0.1540
 1681poe     o2 7202   1.084   1.246   2.377 -0.0902 -0.4603  0.3025
 1681poe    c23 7203   1.044   1.154   2.476 -0.5105 -0.5252  0.0757
 1681poe    c23 7204   0.949   1.040   2.437 -0.5654 -0.3467 -0.3218
 1681poe     o2 7205   0.815   1.084   2.434 -0.2764  0.5299 -0.7601
 1681poe    c23 7206   0.735   0.970   2.410 -0.1186  0.3538 -0.4595
 1681poe    c23 7207   0.619   0.978   2.309 -0.4828 -0.5218 -0.1154
 1681poe     o2 7208   0.505   1.041   2.363 -0.1463 -0.1225  0.1343
 1681poe    c23 7209   0.516   1.181   2.370 -0.7262 -0.0618 -0.0907
 1681poe    c23 7210   0.383   1.237   2.424 -0.6744  0.0714 -0.1016
 1681poe     o2 7211   0.284   1.203   2.330 -0.9467 -0.2407  0.2975
 1681poe    c31 7212   0.196   1.313   2.317 -0.2899  0.2389 -0.1382
 1682poe    c31 7213   3.203   0.950   1.285 -0.2323  0.4023 -0.1338
 1682poe     o2 7214   3.277   1.020   1.187  0.5470 -0.0997  0.0884
 1682poe    c23 7215   3.248   1.157   1.196  0.6154 -0.0630 -0.2737
 1682poe    c23 7216   3.271   1.223   1.058  0.1547  0.6992  0.0038
 1682poe     o2 7217   3.177   1.173   0.965  0.3940  0.4259 -0.0943
 1682poe    c23 7218   3.214   1.209   0.834  0.2768  0.2140 -0.1859
 1682poe    c23 7219   3.151   1.116   0.728  0.2177  0.1828 -0.1229
 1682poe     o2 7220   3.205   0.986   0.724  0.0254  0.0777  0.4554
 1682poe    c23 7221   3.149   0.918   0.614 -0.3273  0.4280  0.4157
 1682poe    c23 7222   3.179   0.772   0.654 -0.1621  0.4086  0.2252
 1682poe     o2 7223   3.291   0.764   0.739  0.2650  0.0101 -0.3728
 1682poe    c31 7224   3.344   0.633   0.738  0.7584  0.2066 -0.0700
 1683poe    c31 7225   5.310   4.017   2.833 -0.4692  0.2386  0.4839
 1683poe     o2 7226   5.208   4.042   2.738  0.0700  0.5389 -0.0243
 1683poe    c23 7227   5.265   4.135   2.649  0.2719  0.3221 -0.1225
 1683poe    c23 7228   5.141   4.199   2.584 -0.4404 -0.6650  0.2371
 1683poe     o2 7229   5.067   4.264   2.685 -0.0552 -0.1501  0.1917
 1683poe    c23 7230   4.943   4.323   2.653  0.0142  0.1817  0.5176
 1683poe    c23 7231   4.826   4.225   2.635  0.2556  0.0589 -0.4420
 1683poe     o2 7232   4.783   4.173   2.758  0.4413  0.1893 -0.3233
 1683poe    c23 7233   4.668   4.095   2.735  0.0160  0.4999  0.6888
 1683poe    c23 7234   4.609   4.024   2.859 -0.1188 -0.2823  0.1807
 1683poe     o2 7235   4.719   3.978   2.935  0.3293 -0.2486 -0.4394
 1683poe    c31 7236   4.657   3.929   3.051 -0.1127 -0.4857 -0.7710
 1684poe    c31 7237   4.023   1.230   0.614 -0.0441 -0.0450 -0.1158
 1684poe     o2 7238   4.035   1.092   0.635  0.3649  0.0555  0.3194
 1684poe    c23 7239   4.170   1.057   0.612  0.2801  0.2020 -0.4290
 1684poe    c23 7240   4.173   0.908   0.649 -0.3580  0.1824 -0.4430
 1684poe     o2 7241   4.058   0.846   0.596 -0.3950 -0.4006  0.3007
 1684poe    c23 7242   4.054   0.712   0.638 -0.6333 -0.4389  0.1572
 1684poe    c23 7243   3.974   0.625   0.538 -0.4858 -0.2715 -0.1074
 1684poe     o2 7244   3.837   0.657   0.554 -0.3795 -0.0455  0.3730
 1684poe    c23 7245   3.758   0.615   0.446 -0.1457  0.2067  0.1026
 1684poe    c23 7246   3.648   0.719   0.416 -0.0564  0.2982  0.0902
 1684poe     o2 7247   3.699   0.838   0.361 -0.0722  0.0634 -0.4380
 1684poe    c31 7248   3.622   0.887   0.254 -0.1476  0.4954 -0.1879
 1685poe    c31 7249   5.128   6.430   2.953  0.8497 -0.1410 -0.3757
 1685poe     o2 7250   5.095   6.319   3.034 -0.0036  0.5835  0.2829
 1685poe    c23 7251   4.958   6.322   3.065 -0.0466 -0.3492  0.1991
 1685poe    c23 7252   4.870   6.221   2.988 -0.2083 -0.1063  0.0637
 1685poe     o2 7253   4.878   6.082   3.004 -0.0669 -0.1631 -0.4941
 1685poe    c23 7254   4.998   6.028   2.952  0.3071 -0.0973  0.2794
 1685poe    c23 7255   5.016   5.887   3.011 -0.2825 -0.2727  0.0497
 1685poe     o2 7256   4.897   5.818   2.981 -0.3432 -0.2795  0.3033
 1685poe    c23 7257   4.908   5.677   2.984 -0.1071 -0.2675  0.0263
 1685poe    c23 7258   4.797   5.611   2.900  0.2983 -0.3418 -0.4508
 1685poe     o2 7259   4.675   5.631   2.967  0.3090 -0.3937 -0.4164
 1685poe    c31 7260   4.563   5.593   2.890  0.2414 -0.0329 -0.4938
 1686poe    c31 7261   6.791   2.891   2.578 -0.2829 -0.5632  0.1848
 1686poe     o2 7262   6.745   2.849   2.704 -0.1025 -0.3933  0.3059
 1686poe    c23 7263   6.621   2.909   2.732 -0.2380 -0.5214 -0.0187
 1686poe    c23 7264   6.566   2.882   2.874 -0.0765 -0.7719 -0.0026
 1686poe     o2 7265   6.652   2.893   2.984 -0.0883 -0.2491 -0.0438
 1686poe    c23 7266   6.585   2.859   3.103  0.2102 -0.7211 -0.0038
 1686poe    c23 7267   6.664   2.909   3.225  0.3000 -0.5449 -0.1340
 1686poe     o2 7268   6.804   2.904   3.210  0.3189 -0.2172 -0.0828
 1686poe    c23 7269   6.885   2.895   3.325  0.7318 -0.6362 -0.3975
 1686poe    c23 7270   6.858   2.774   3.416 -0.6679  0.1235  0.2494
 1686poe     o2 7271   6.740   2.791   3.491 -0.6619  0.2146  0.2380
 1686poe    c31 7272   6.720   2.666   3.554 -0.1966  0.3331  0.6253
 1687poe    c31 7273   1.799   5.024   6.525  0.1374  0.4053  0.0152
 1687poe     o2 7274   1.687   4.948   6.485  0.1550  0.2254  0.3053
 1687poe    c23 7275   1.615   5.034   6.400  0.0769 -0.0131  0.1282
 1687poe    c23 7276   1.477   4.967   6.394  0.0077  0.1280  0.1416
 1687poe     o2 7277   1.509   4.831   6.375 -0.2155  0.0238  0.5022
 1687poe    c23 7278   1.404   4.765   6.307 -0.1111  0.2421  0.1281
 1687poe    c23 7279   1.448   4.618   6.317 -0.0926  0.2771  0.5518
 1687poe     o2 7280   1.577   4.610   6.260 -0.3319 -0.2880  0.0898
 1687poe    c23 7281   1.631   4.487   6.303 -0.1152 -0.2568 -0.0924
 1687poe    c23 7282   1.777   4.514   6.346 -0.2549 -0.1166  0.3002
 1687poe     o2 7283   1.789   4.645   6.397  0.5242  0.0021 -0.1753
 1687poe    c31 7284   1.925   4.683   6.404  0.4738  0.1384  0.0509
 1688poe    c31 7285   2.106   0.829   2.156 -0.3135 -0.1515 -0.0398
 1688poe     o2 7286   2.237   0.822   2.104 -0.2045  0.4440  0.1503
 1688poe    c23 7287   2.246   0.901   1.987 -0.0401  0.1173 -0.0595
 1688poe    c23 7288   2.395   0.906   1.947  0.0658  0.0574  0.3134
 1688poe     o2 7289   2.466   0.974   2.048  0.3003  0.3699 -0.0596
 1688poe    c23 7290   2.599   0.930   2.038 -0.0319 -0.7922  0.4512
 1688poe    c23 7291   2.695   1.035   2.096 -0.9795  0.6865 -0.5800
 1688poe     o2 7292   2.650   1.058   2.228  0.0780 -0.6938  0.0458
 1688poe    c23 7293   2.727   1.166   2.277 -0.4096 -0.1714 -0.3276
 1688poe    c23 7294   2.655   1.256   2.379 -0.3252 -0.1056 -0.3264
 1688poe     o2 7295   2.542   1.318   2.320  0.1046  0.1318 -0.9090
 1688poe    c31 7296   2.522   1.438   2.391 -0.3270 -0.0743 -0.6775
 1689poe    c31 7297   1.437   6.783   4.184  0.1669 -0.8845 -0.7981
 1689poe     o2 7298   1.386   6.728   4.303 -0.3667  0.4258 -0.4004
 1689poe    c23 7299   1.463   6.624   4.359 -0.3854  0.3614 -0.4943
 1689poe    c23 7300   1.376   6.574   4.475  0.2444 -0.1154 -0.2182
 1689poe     o2 7301   1.247   6.563   4.417  0.2398  0.0146 -0.2316
 1689poe    c23 7302   1.153   6.482   4.483  0.0359  0.5843  0.1930
 1689poe    c23 7303   1.008   6.531   4.469 -0.4741 -0.8766  0.1232
 1689poe     o2 7304   0.979   6.568   4.336 -0.0842  0.2189  0.3299
 1689poe    c23 7305   0.846   6.615   4.325 -0.1441  0.1374  0.6868
 1689poe    c23 7306   0.794   6.622   4.180  0.8660 -0.2526  0.2978
 1689poe     o2 7307   0.745   6.499   4.131 -0.6774  0.2348  0.5655
 1689poe    c31 7308   0.605   6.489   4.129 -0.6224 -0.5509  0.5738
 1690poe    c31 7309   5.410   4.042   5.720 -0.1710 -0.2927 -0.0789
 1690poe     o2 7310   5.448   4.101   5.842 -0.1834 -0.4833  0.0176
 1690poe    c23 7311   5.461   4.007   5.946  0.3731 -0.3919  0.0307
 1690poe    c23 7312   5.491   4.061   6.087  0.1687 -0.4434  0.0934
 1690poe     o2 7313   5.395   4.134   6.162  0.4432  0.0277 -0.0095
 1690poe    c23 7314   5.309   4.048   6.232 -0.0378  0.6218  0.1296
 1690poe    c23 7315   5.305   4.088   6.381  0.0817  0.2365  0.2376
 1690poe     o2 7316   5.283   4.225   6.404 -0.7344  0.0800  0.4101
 1690poe    c23 7317   5.327   4.281   6.526  0.6019 -0.0232 -0.0052
 1690poe    c23 7318   5.223   4.375   6.590  0.2632 -0.1130 -0.4165
 1690poe     o2 7319   5.099   4.309   6.602  0.1039  0.2665  0.0697
 1690poe    c31 7320   5.005   4.407   6.639 -0.2394  0.0328 -0.1766
 1691poe    c31 7321   3.268   6.105   2.616  0.3580 -0.1023 -0.1826
 1691poe     o2 7322   3.218   6.025   2.511  0.4434 -0.4262  0.0243
 1691poe    c23 7323   3.252   6.094   2.393  0.2440  0.0602  0.2512
 1691poe    c23 7324   3.260   5.998   2.273 -0.4829  0.1963  0.0882
 1691poe     o2 7325   3.370   5.910   2.275 -0.9170 -0.3484  0.2891
 1691poe    c23 7326   3.405   5.890   2.140  0.1556  0.2422  0.4711
 1691poe    c23 7327   3.499   5.769   2.127 -0.0393  0.1192  0.1933
 1691poe     o2 7328   3.581   5.762   2.241  0.0457 -0.4094  0.1036
 1691poe    c23 7329   3.663   5.648   2.224 -0.0680 -0.4554 -0.1349
 1691poe    c23 7330   3.688   5.602   2.369  1.1321  0.5019 -0.0208
 1691poe     o2 7331   3.691   5.707   2.462  0.6531  0.5140 -0.0169
 1691poe    c31 7332   3.762   5.672   2.579  0.4921  0.2630  0.0054
 1692poe    c31 7333   0.493   2.624   6.418  0.0352  0.4741  0.2736
 1692poe     o2 7334   0.424   2.634   6.295 -0.0328  0.3845  0.3049
 1692poe    c23 7335   0.335   2.743   6.293 -0.9587 -0.3581 -0.3842
 1692poe    c23 7336   0.253   2.716   6.166 -0.5535 -0.1915 -0.6834
 1692poe     o2 7337   0.339   2.716   6.054 -0.0785 -0.5754 -0.3214
 1692poe    c23 7338   0.252   2.717   5.944 -0.5809 -0.7450  0.0681
 1692poe    c23 7339   0.333   2.733   5.814 -0.4492  0.3593  0.2840
 1692poe     o2 7340   0.438   2.639   5.820 -0.5004  0.2785 -0.0731
 1692poe    c23 7341   0.499   2.641   5.693  0.1043  0.2613  0.2151
 1692poe    c23 7342   0.599   2.529   5.658 -0.5427 -0.2738  0.0684
 1692poe     o2 7343   0.723   2.575   5.708 -0.2702 -0.8754 -0.0475
 1692poe    c31 7344   0.822   2.479   5.680  0.4870 -0.1907  0.2609
 1693poe    c31 7345   3.179   0.568   5.950  0.4778  0.3157  0.1113
 1693poe     o2 7346   3.099   0.454   5.934  0.1231  0.4921  0.5958
 1693poe    c23 7347   3.188   0.348   5.905 -0.6078 -0.0073  0.1347
 1693poe    c23 7348   3.128   0.209   5.930  0.0497 -0.3267 -0.0458
 1693poe     o2 7349   3.025   0.182   5.839 -0.1231 -0.1320  0.0915
 1693poe    c23 7350   2.954   0.069   5.887 -0.4851  0.1527  0.2341
 1693poe    c23 7351   2.839   0.099   5.985 -0.6981  0.1768 -0.0221
 1693poe     o2 7352   2.744   0.174   5.913 -0.3714  0.2691 -0.3616
 1693poe    c23 7353   2.703   0.280   5.997  0.5092  0.2729  0.0816
 1693poe    c23 7354   2.582   0.335   5.920  0.3950  0.5460  0.4558
 1693poe     o2 7355   2.619   0.406   5.803 -0.2392 -0.0224 -0.0980
 1693poe    c31 7356   2.536   0.519   5.789  0.1351  0.3037  0.2840
 1694poe    c31 7357   5.672   4.657   0.272  0.1788 -0.3130 -0.2601
 1694poe     o2 7358   5.732   4.729   0.378 -0.0659 -0.2183 -0.1860
 1694poe    c23 7359   5.688   4.863   0.367 -0.2509 -0.2632  0.0024
 1694poe    c23 7360   5.802   4.952   0.422 -0.7867 -0.0198  0.7289
 1694poe     o2 7361   5.869   4.894   0.531 -0.0674 -0.0914  0.2511
 1694poe    c23 7362   5.955   4.988   0.591  0.6972 -0.5372 -0.1324
 1694poe    c23 7363   5.934   4.998   0.744  0.2172 -0.8733 -0.1752
 1694poe     o2 7364   5.958   4.875   0.807  0.2623 -0.6079  0.3257
 1694poe    c23 7365   6.058   4.882   0.906  0.3742 -0.4400  0.2005
 1694poe    c23 7366   6.119   4.743   0.930  0.3725 -0.4078  0.3972
 1694poe     o2 7367   6.021   4.643   0.948  0.2101 -0.3336 -0.0589
 1694poe    c31 7368   6.064   4.536   1.028  0.0975 -0.0181  0.4284
 1695poe    c31 7369   2.704   7.003   6.831 -0.3258  0.3423  0.0300
 1695poe     o2 7370   2.649   6.876   6.859  0.2946  0.2317  0.7974
 1695poe    c23 7371   2.642   6.843   6.995 -0.2823  0.2974  0.7862
 1695poe    c23 7372   2.595   6.698   7.020 -0.0070 -0.0753 -0.7758
 1695poe     o2 7373   2.476   6.709   6.945 -0.2124 -0.4002 -0.4994
 1695poe    c23 7374   2.385   6.601   6.938  0.1301 -0.7361  0.1354
 1695poe    c23 7375   2.288   6.628   6.821  0.4275  0.8880  0.2462
 1695poe     o2 7376   2.379   6.652   6.716  0.4018 -0.4985 -0.1006
 1695poe    c23 7377   2.323   6.734   6.617  0.1528 -0.0615  0.4015
 1695poe    c23 7378   2.441   6.775   6.527 -0.0748 -0.8427 -0.2633
 1695poe     o2 7379   2.540   6.840   6.604 -0.4150  0.0864 -0.6071
 1695poe    c31 7380   2.649   6.886   6.527  0.1544 -0.1986  0.0226
 1696poe    c31 7381   6.778   0.824   5.590  0.0143 -0.3070  0.5720
 1696poe     o2 7382   6.730   0.939   5.656  0.0508  0.0275  0.0332
 1696poe    c23 7383   6.606   0.978   5.602 -0.1168 -0.1871  0.2567
 1696poe    c23 7384   6.521   1.020   5.724 -0.3886  0.1806 -0.0565
 1696poe     o2 7385   6.550   1.144   5.785  0.0469 -0.0642  0.2438
 1696poe    c23 7386   6.445   1.178   5.873 -0.0486  0.0899  0.0707
 1696poe    c23 7387   6.447   1.325   5.918 -0.3513  0.0393  0.2518
 1696poe     o2 7388   6.389   1.427   5.839  0.2087  0.4692  0.3857
 1696poe    c23 7389   6.486   1.502   5.770  0.3543  0.4872  0.6108
 1696poe    c23 7390   6.442   1.639   5.718  0.3083  0.4585  0.5744
 1696poe     o2 7391   6.363   1.630   5.601  0.1926 -0.1692  0.7003
 1696poe    c31 7392   6.334   1.750   5.533 -0.0010 -0.4185  0.3382
 1697poe    c31 7393   5.971   3.695   0.423  0.4814 -1.1769  0.2606
 1697poe     o2 7394   5.858   3.627   0.373  0.0194  0.1073 -0.4957
 1697poe    c23 7395   5.770   3.727   0.327 -0.5800  0.1061  0.6093
 1697poe    c23 7396   5.640   3.672   0.265  0.2296 -0.7228 -0.3901
 1697poe     o2 7397   5.568   3.622   0.375 -0.1384 -0.6378 -0.5942
 1697poe    c23 7398   5.433   3.610   0.335 -0.3867 -0.8240  0.2674
 1697poe    c23 7399   5.346   3.539   0.440 -0.7078 -0.6860  0.0964
 1697poe     o2 7400   5.427   3.448   0.512  0.1661  0.3208  0.4151
 1697poe    c23 7401   5.395   3.313   0.485  0.0455  0.3791  0.2599
 1697poe    c23 7402   5.448   3.234   0.606  0.1185  0.0710  0.0246
 1697poe     o2 7403   5.586   3.259   0.623  0.1077  0.1225  0.0359
 1697poe    c31 7404   5.648   3.158   0.698  0.3880 -0.2953 -0.7519
 1698poe    c31 7405   5.281   2.235   1.954 -0.6413  0.1301  0.7691
 1698poe     o2 7406   5.188   2.158   1.881  0.5139 -0.2038 -0.3771
 1698poe    c23 7407   5.160   2.029   1.932 -0.5144  0.1647 -0.0024
 1698poe    c23 7408   5.041   1.959   1.864 -0.3584  0.5578 -0.6952
 1698poe     o2 7409   5.041   1.943   1.724  0.0776 -0.1290 -0.6251
 1698poe    c23 7410   4.937   1.861   1.676 -0.1913 -0.3232  0.2711
 1698poe    c23 7411   4.863   1.922   1.555 -0.8731 -0.0916  0.7935
 1698poe     o2 7412   4.808   2.050   1.575  0.1262  0.5496 -0.4066
 1698poe    c23 7413   4.687   2.064   1.504 -0.2152  0.7094  0.2027
 1698poe    c23 7414   4.623   2.194   1.556 -0.8623  0.6539 -0.4410
 1698poe     o2 7415   4.716   2.297   1.532 -0.2294  0.2299  0.1633
 1698poe    c31 7416   4.658   2.420   1.566  0.4190  0.2470  1.2733
 1699poe    c31 7417   3.107   5.584   2.390 -0.0262  0.3370 -0.2205
 1699poe     o2 7418   3.115   5.456   2.332  0.4644 -0.1863  0.9622
 1699poe    c23 7419   2.989   5.394   2.351  0.4573 -0.4241  0.1619
 1699poe    c23 7420   2.984   5.251   2.295  0.4275 -0.2798 -0.2092
 1699poe     o2 7421   2.881   5.170   2.347 -0.0453  0.5095  0.1069
 1699poe    c23 7422   2.907   5.109   2.471  0.0330  0.1570 -0.0804
 1699poe    c23 7423   2.811   4.989   2.485  0.4029 -0.1318 -0.0105
 1699poe     o2 7424   2.680   5.031   2.514  0.1625 -0.3828 -0.7004
 1699poe    c23 7425   2.574   4.939   2.508 -0.3147  0.1516 -0.5385
 1699poe    c23 7426   2.452   5.009   2.571 -0.2794 -0.2907  0.0237
 1699poe     o2 7427   2.462   5.001   2.712  0.3230  0.1105  0.0063
 1699poe    c31 7428   2.459   5.125   2.778  0.0965 -0.2148  0.6135
 1700poe    c31 7429   4.514   0.215   3.685 -0.5923  0.3838  0.0481
 1700poe     o2 7430   4.426   0.177   3.581 -0.4040  0.0466  0.0095
 1700poe    c23 7431   4.292   0.162   3.622 -0.6706  0.2937 -0.7595
 1700poe    c23 7432   4.219   0.086   3.510 -0.4715 -0.3078 -0.4884
 1700poe     o2 7433   4.304  -0.017   3.465 -0.1479 -0.1218 -0.3089
 1700poe    c23 7434   4.251  -0.098   3.362 -0.2576 -0.0489 -0.3103
 1700poe    c23 7435   4.366  -0.188   3.315  0.1353  0.4275 -0.2720
 1700poe     o2 7436   4.435  -0.129   3.207 -0.4938 -0.6247 -1.2760
 1700poe    c23 7437   4.546  -0.192   3.149  0.1433 -0.5439 -0.1611
 1700poe    c23 7438   4.609  -0.106   3.038  0.2998 -0.2969  0.1167
 1700poe     o2 7439   4.659   0.013   3.095 -0.1610  0.2321 -0.5749
 1700poe    c31 7440   4.747   0.077   3.006  0.3199  0.3886  0.0139
 1701poe    c31 7441   2.742   2.752   3.833  0.5531 -0.4092 -0.5855
 1701poe     o2 7442   2.869   2.814   3.841  0.1303  0.4058 -0.0660
 1701poe    c23 7443   2.866   2.949   3.801 -0.1414  0.4862  0.2177
 1701poe    c23 7444   2.986   2.987   3.712 -0.2483 -0.4906 -0.3618
 1701poe     o2 7445   3.105   2.953   3.780 -0.2011  0.2511 -0.0664
 1701poe    c23 7446   3.217   3.032   3.746 -0.0596  0.2819  0.4519
 1701poe    c23 7447   3.331   2.989   3.840 -0.2175 -0.4172  0.3288
 1701poe     o2 7448   3.345   2.850   3.817 -0.4111 -0.3055 -0.5123
 1701poe    c23 7449   3.406   2.787   3.927  0.1326  0.1346 -0.5554
 1701poe    c23 7450   3.458   2.650   3.879  0.0182 -0.1940  0.2409
 1701poe     o2 7451   3.338   2.592   3.835  0.0875 -0.2470  0.1213
 1701poe    c31 7452   3.362   2.453   3.841  0.4859 -0.2166 -0.6518
 1702poe    c31 7453   3.052   5.940   3.770 -0.0239  0.1478 -0.1816
 1702poe     o2 7454   3.047   5.879   3.643  0.5409  0.3686 -0.3104
 1702poe    c23 7455   2.943   5.939   3.569  0.2037 -0.6441 -0.6703
 1702poe    c23 7456   2.831   5.834   3.564 -0.2830 -0.1450 -0.3475
 1702poe     o2 7457   2.873   5.715   3.501 -0.5061 -0.1557 -0.4770
 1702poe    c23 7458   2.781   5.619   3.546 -0.2786 -0.1546 -0.0090
 1702poe    c23 7459   2.789   5.489   3.464 -0.1193 -0.0462 -0.1643
 1702poe     o2 7460   2.926   5.462   3.444 -0.1221  0.0609 -0.3390
 1702poe    c23 7461   2.936   5.328   3.400 -0.2637 -0.4846  1.1953
 1702poe    c23 7462   3.071   5.275   3.349 -0.4790 -0.0691  0.1608
 1702poe     o2 7463   3.112   5.351   3.237  0.3228 -0.6356  0.0592
 1702poe    c31 7464   3.230   5.296   3.182  0.2163 -0.6074 -0.1997
 1703poe    c31 7465   4.016   3.300   6.723 -0.0086  0.2792  0.6401
 1703poe     o2 7466   3.922   3.339   6.626  0.5384  0.5111  0.1957
 1703poe    c23 7467   3.832   3.436   6.675  0.2392  0.8793 -1.0498
 1703poe    c23 7468   3.697   3.458   6.603 -0.2789  0.1849 -0.2998
 1703poe     o2 7469   3.716   3.567   6.517 -0.0091  0.0327 -0.4371
 1703poe    c23 7470   3.596   3.597   6.449 -0.2698  0.3658  0.1637
 1703poe    c23 7471   3.573   3.748   6.431 -0.3375  0.4232  0.6955
 1703poe     o2 7472   3.698   3.789   6.380 -0.5784  0.2349 -0.0604
 1703poe    c23 7473   3.724   3.926   6.356  0.0487  0.2071  0.4331
 1703poe    c23 7474   3.861   3.931   6.285 -0.5541  0.5112 -0.7242
 1703poe     o2 7475   3.952   3.862   6.368 -0.7366  0.1736 -0.7990
 1703poe    c31 7476   4.076   3.889   6.307 -0.1871 -0.0069  0.2194
 1704poe    c31 7477   1.756   1.189   5.448 -0.5280  0.1777 -0.2207
 1704poe     o2 7478   1.695   1.316   5.461 -0.0126  0.3987  0.1240
 1704poe    c23 7479   1.612   1.330   5.347  0.4391  0.2215 -0.2325
 1704poe    c23 7480   1.576   1.474   5.309  0.3402  0.3258  0.2406
 1704poe     o2 7481   1.692   1.554   5.296  0.6337 -0.1885 -0.3495
 1704poe    c23 7482   1.652   1.684   5.257  0.3835  0.0534  0.7071
 1704poe    c23 7483   1.733   1.799   5.320  0.3623  0.3202  0.2509
 1704poe     o2 7484   1.869   1.781   5.290  0.4451  0.0108  0.7862
 1704poe    c23 7485   1.925   1.909   5.273 -0.4537  0.2274 -0.7265
 1704poe    c23 7486   2.061   1.893   5.202  0.2118  0.2085  0.5335
 1704poe     o2 7487   2.132   1.798   5.279 -0.1279 -0.2720  0.2587
 1704poe    c31 7488   2.269   1.830   5.268 -0.1307 -0.2906  0.1718
 1705poe    c31 7489   3.491   5.542   0.356 -0.1099 -0.7307 -0.0596
 1705poe     o2 7490   3.414   5.477   0.258 -0.6318  0.6156 -0.5594
 1705poe    c23 7491   3.275   5.487   0.283 -0.5628  0.4886 -0.1246
 1705poe    c23 7492   3.183   5.403   0.193 -0.0192 -0.1891 -0.0608
 1705poe     o2 7493   3.199   5.460   0.065 -0.2829  0.0611  0.0158
 1705poe    c23 7494   3.135   5.373  -0.025 -0.5946  0.3069 -0.0009
 1705poe    c23 7495   3.175   5.383  -0.174 -0.1983  0.2734  0.1025
 1705poe     o2 7496   3.312   5.375  -0.206 -0.3789 -0.2314 -0.5581
 1705poe    c23 7497   3.338   5.429  -0.333 -0.3200  0.0441 -0.4283
 1705poe    c23 7498   3.473   5.382  -0.391  0.2650  0.4609  0.5669
 1705poe     o2 7499   3.578   5.395  -0.298  0.5652 -0.0828  0.3087
 1705poe    c31 7500   3.695   5.413  -0.374  0.3886  0.5653  0.1897
 1706poe    c31 7501   6.414   2.078   3.347  0.1815 -0.0118 -0.7818
 1706poe     o2 7502   6.427   2.071   3.487 -0.5769  0.6603 -0.6686
 1706poe    c23 7503   6.299   2.038   3.535 -0.0074 -0.5284  0.0785
 1706poe    c23 7504   6.298   2.002   3.685 -0.1020 -0.0595  0.1923
 1706poe     o2 7505   6.388   1.895   3.699 -0.4337 -0.3880 -0.1489
 1706poe    c23 7506   6.360   1.818   3.814  0.5341 -0.2063  0.2259
 1706poe    c23 7507   6.388   1.669   3.785  0.4980 -0.1107 -0.3150
 1706poe     o2 7508   6.527   1.657   3.767  0.5423  0.0072 -0.0640
 1706poe    c23 7509   6.569   1.553   3.681 -0.2084 -0.3584  0.0112
 1706poe    c23 7510   6.720   1.581   3.685 -0.2663 -0.0797  0.3029
 1706poe     o2 7511   6.754   1.714   3.657 -0.5361 -0.1198 -0.2161
 1706poe    c31 7512   6.895   1.725   3.663 -0.5733 -0.0320  0.6180
 1707poe    c31 7513   4.889   0.009   3.811  0.4262  0.4704 -0.1654
 1707poe     o2 7514   4.914   0.031   3.948 -0.7960 -0.7351  0.2709
 1707poe    c23 7515   4.824   0.122   4.007 -0.0738  0.1784 -0.0255
 1707poe    c23 7516   4.791   0.096   4.155 -0.2215 -0.3384 -0.1488
 1707poe     o2 7517   4.887   0.134   4.251  0.3529 -0.1722 -0.7758
 1707poe    c23 7518   4.860   0.242   4.339  0.3615 -0.5878 -0.2552
 1707poe    c23 7519   4.962   0.260   4.453  0.0868 -0.0654 -0.0884
 1707poe     o2 7520   4.947   0.159   4.550 -0.0045  0.2536  0.2330
 1707poe    c23 7521   5.071   0.098   4.579 -0.0903 -0.2942 -0.4991
 1707poe    c23 7522   5.038  -0.031   4.656 -0.1800  0.0140 -0.0176
 1707poe     o2 7523   4.989  -0.016   4.787 -0.4282  0.2312 -0.1346
 1707poe    c31 7524   4.983  -0.145   4.843  0.7822  0.2494  0.0701
 1708poe    c31 7525   4.834   2.259   7.066  0.4523 -0.0084 -0.1221
 1708poe     o2 7526   4.935   2.298   6.975  0.3242  0.4090 -0.0887
 1708poe    c23 7527   4.931   2.434   6.938 -0.4662  0.5396  0.4299
 1708poe    c23 7528   5.039   2.447   6.828 -0.0558 -0.9830  0.6151
 1708poe     o2 7529   5.156   2.392   6.882  0.4915 -0.1283  0.3290
 1708poe    c23 7530   5.249   2.365   6.779  0.4246 -0.2016  0.2878
 1708poe    c23 7531   5.384   2.313   6.832  0.7066  0.2651  0.0287
 1708poe     o2 7532   5.367   2.200   6.914 -0.0540 -0.4839 -1.1376
 1708poe    c23 7533   5.467   2.106   6.880  0.3828 -0.2892 -0.4014
 1708poe    c23 7534   5.453   1.971   6.953 -0.2128  0.0474  0.1140
 1708poe     o2 7535   5.339   1.904   6.904 -0.3328  0.4628 -0.1783
 1708poe    c31 7536   5.302   1.788   6.974 -0.2465  0.6080  0.1086
 1709poe    c31 7537   1.749   4.644   3.656  0.4784 -0.2371  0.2508
 1709poe     o2 7538   1.656   4.707   3.741 -0.0518 -0.5434 -0.0976
 1709poe    c23 7539   1.554   4.628   3.795 -0.5432 -0.1293 -0.4033
 1709poe    c23 7540   1.444   4.574   3.702 -0.5993 -0.6786 -0.0261
 1709poe     o2 7541   1.390   4.682   3.630 -0.0841  0.0617  0.6897
 1709poe    c23 7542   1.269   4.643   3.569  0.2125  0.0187  0.1223
 1709poe    c23 7543   1.272   4.734   3.444 -0.1157 -0.6478 -0.3766
 1709poe     o2 7544   1.262   4.866   3.492 -0.0558 -0.7667 -0.0317
 1709poe    c23 7545   1.285   4.963   3.392 -0.3226  0.0686  0.6994
 1709poe    c23 7546   1.260   5.105   3.447  0.2785  0.5862 -0.3303
 1709poe     o2 7547   1.312   5.094   3.577 -0.3215 -0.6221 -0.1792
 1709poe    c31 7548   1.278   5.206   3.656 -0.2275 -0.5676 -0.2168
 1710poe    c31 7549   1.081   4.836   1.337 -0.1320  0.3807  0.4674
 1710poe     o2 7550   0.966   4.766   1.295  0.0353  0.2942  0.1471
 1710poe    c23 7551   0.866   4.841   1.361 -0.0223 -0.0949  0.5055
 1710poe    c23 7552   0.738   4.758   1.383  0.2344 -0.4934  0.5209
 1710poe     o2 7553   0.673   4.713   1.266  0.3819 -0.2590  0.3475
 1710poe    c23 7554   0.556   4.640   1.297  0.2675 -0.1137  0.2618
 1710poe    c23 7555   0.482   4.646   1.162  0.5603  0.9108  0.1397
 1710poe     o2 7556   0.573   4.636   1.055  0.0168 -0.4758 -0.2047
 1710poe    c23 7557   0.504   4.564   0.955  0.0240 -0.3969 -0.2665
 1710poe    c23 7558   0.601   4.542   0.837 -0.4299 -0.5845 -0.6078
 1710poe     o2 7559   0.703   4.450   0.869  0.0288  0.1500  0.1129
 1710poe    c31 7560   0.787   4.443   0.756  0.0946 -0.2317  0.1833
 1711poe    c31 7561   0.464   4.352   5.795 -0.0371  0.0893  0.0686
 1711poe     o2 7562   0.476   4.343   5.655  0.2394  0.2234  0.0822
 1711poe    c23 7563   0.596   4.278   5.621 -0.0139 -0.1902 -0.0382
 1711poe    c23 7564   0.582   4.221   5.479  0.8465  0.2371 -0.3065
 1711poe     o2 7565   0.495   4.110   5.470  0.5638  0.4610 -0.3302
 1711poe    c23 7566   0.560   4.027   5.376  0.1888  0.0790 -0.2573
 1711poe    c23 7567   0.515   3.881   5.398  0.6282  0.0502  0.4977
 1711poe     o2 7568   0.377   3.876   5.369  0.8416 -0.0677 -0.5512
 1711poe    c23 7569   0.337   3.741   5.362  0.0371  0.1493 -0.1671
 1711poe    c23 7570   0.186   3.732   5.332  0.0881 -0.2734 -0.2975
 1711poe     o2 7571   0.125   3.849   5.383  0.8915 -0.3697  0.9302
 1711poe    c31 7572  -0.012   3.820   5.364  0.8781  0.1551  0.2140
 1712poe    c31 7573   1.058   4.156   6.754 -0.4009  0.1336 -0.7345
 1712poe     o2 7574   1.057   4.269   6.839 -0.4994 -0.6001  0.2538
 1712poe    c23 7575   1.044   4.217   6.969  0.6271 -0.7263  0.3226
 1712poe    c23 7576   1.032   4.341   7.061 -0.0963 -0.3516 -0.2705
 1712poe     o2 7577   1.120   4.435   7.003 -0.1205 -0.2141 -0.0838
 1712poe    c23 7578   1.119   4.557   7.073 -0.2808 -0.1840 -0.1395
 1712poe    c23 7579   1.196   4.669   7.001 -0.2088 -0.1909 -0.0710
 1712poe     o2 7580   1.160   4.658   6.865  0.0566  0.6731 -0.2222
 1712poe    c23 7581   1.219   4.761   6.790  0.3277  0.6914  0.0152
 1712poe    c23 7582   1.162   4.770   6.647 -0.2927  0.1977  0.2287
 1712poe     o2 7583   1.200   4.670   6.555 -0.5738  0.3957 -0.1041
 1712poe    c31 7584   1.120   4.672   6.439  0.2153  0.1038 -0.6549
 1713poe    c31 7585   2.766   4.476   0.336 -0.4108  0.4003  0.0458
 1713poe     o2 7586   2.898   4.524   0.349 -0.2207 -0.2956  0.7401
 1713poe    c23 7587   2.969   4.561   0.233 -0.7255  0.1057  0.5558
 1713poe    c23 7588   3.090   4.645   0.277 -0.1806 -0.2534 -0.2466
 1713poe     o2 7589   3.174   4.584   0.372  0.4878  0.1565 -0.5652
 1713poe    c23 7590   3.254   4.684   0.431  0.0539  0.2885 -0.1909
 1713poe    c23 7591   3.352   4.623   0.533  0.0940  0.7342  0.0402
 1713poe     o2 7592   3.285   4.564   0.642  0.3976  0.1427 -0.0858
 1713poe    c23 7593   3.364   4.501   0.740 -0.0398  0.2735  0.3586
 1713poe    c23 7594   3.276   4.391   0.803  0.4488  0.0986  0.7440
 1713poe     o2 7595   3.144   4.440   0.809  0.2038 -0.3876 -0.2935
 1713poe    c31 7596   3.072   4.332   0.865  0.0305 -0.4457 -0.6260
 1714poe    c31 7597   6.009   6.699   0.906  0.0873  0.5398 -0.0325
 1714poe     o2 7598   6.104   6.804   0.906  0.5717  0.1066 -0.0652
 1714poe    c23 7599   6.053   6.912   0.831 -0.1959  0.0902  0.4286
 1714poe    c23 7600   6.126   7.041   0.874 -0.5993  0.1309  1.0151
 1714poe     o2 7601   6.267   7.038   0.876 -0.5703  0.2773 -0.0670
 1714poe    c23 7602   6.333   7.026   0.752 -0.3613 -0.3684  0.1045
 1714poe    c23 7603   6.483   7.057   0.756 -0.4460  0.0425  0.1216
 1714poe     o2 7604   6.558   6.973   0.841  0.4140  0.3852 -0.2820
 1714poe    c23 7605   6.624   6.870   0.770 -0.0188 -0.6450  0.7830
 1714poe    c23 7606   6.778   6.876   0.778 -0.0148 -0.0516  0.3367
 1714poe     o2 7607   6.848   6.971   0.701 -0.1290 -0.1864  0.0647
 1714poe    c31 7608   6.978   6.994   0.751 -0.2904  0.2160  0.3085
 1715poe    c31 7609   4.515   2.473   6.263 -0.1495 -0.3214  0.4634
 1715poe     o2 7610   4.449   2.419   6.151  0.0022  0.0746  0.1847
 1715poe    c23 7611   4.474   2.282   6.135  0.0683  0.0953  0.1041
 1715poe    c23 7612   4.370   2.199   6.059 -0.6223  0.7974  0.2800
 1715poe     o2 7613   4.239   2.184   6.109 -0.7593 -0.5822 -0.4337
 1715poe    c23 7614   4.220   2.142   6.242 -0.2198  0.8644  0.1194
 1715poe    c23 7615   4.071   2.125   6.278 -0.2315  0.3552 -0.1676
 1715poe     o2 7616   4.005   2.249   6.271 -0.1286  0.4263  0.1130
 1715poe    c23 7617   3.864   2.242   6.275 -0.1212 -0.3228 -0.6504
 1715poe    c23 7618   3.801   2.382   6.266 -0.3356 -0.3353  0.4772
 1715poe     o2 7619   3.896   2.448   6.185 -0.6846  0.1011  0.4203
 1715poe    c31 7620   3.832   2.567   6.144  0.3574  0.5992  0.1931
 1716poe    c31 7621   2.367   0.185   5.016 -0.2421  0.5862  0.4325
 1716poe     o2 7622   2.307   0.111   5.120  0.2256  0.1270  0.3757
 1716poe    c23 7623   2.171   0.142   5.138  0.2673  0.4454  0.1514
 1716poe    c23 7624   2.083   0.022   5.177  0.4647  0.4150  0.5006
 1716poe     o2 7625   2.121  -0.052   5.291  0.5594 -0.1545  0.1050
 1716poe    c23 7626   2.149  -0.187   5.263  0.8993  0.0848 -0.7443
 1716poe    c23 7627   2.187  -0.261   5.393 -0.7395  0.6128  0.0602
 1716poe     o2 7628   2.307  -0.203   5.440  0.0820 -0.8877 -0.1267
 1716poe    c23 7629   2.365  -0.273   5.547  0.3270 -0.0716  0.2752
 1716poe    c23 7630   2.495  -0.208   5.599  0.4047 -0.0372  0.0401
 1716poe     o2 7631   2.464  -0.073   5.627 -0.1345 -0.0596 -0.4353
 1716poe    c31 7632   2.563  -0.020   5.712 -0.2691  0.2477 -0.4666
 1717poe    c31 7633   6.049   0.795   1.164 -0.0144 -0.1321  0.0771
 1717poe     o2 7634   5.909   0.794   1.178 -0.0475  0.2446 -0.2110
 1717poe    c23 7635   5.851   0.883   1.086 -0.1684 -0.0017 -0.3731
 1717poe    c23 7636   5.829   1.029   1.131  0.2078  0.0278 -0.2811
 1717poe     o2 7637   5.938   1.111   1.095 -0.0370  0.3804 -0.2266
 1717poe    c23 7638   5.905   1.244   1.128 -0.7470  0.2769 -0.4951
 1717poe    c23 7639   6.013   1.338   1.073  0.3134 -0.7905 -0.2861
 1717poe     o2 7640   6.005   1.360   0.934  0.5263 -0.4288 -0.2422
 1717poe    c23 7641   6.080   1.469   0.884  0.3027 -0.2314 -0.1471
 1717poe    c23 7642   5.973   1.571   0.840  0.3143 -0.0895  0.1566
 1717poe     o2 7643   5.915   1.528   0.719 -0.2641  0.1062  0.3585
 1717poe    c31 7644   5.821   1.624   0.676 -0.2760 -0.2141 -0.3454
 1718poe    c31 7645   4.132   5.750   1.032  0.3531 -0.0128 -0.3176
 1718poe     o2 7646   4.050   5.661   1.104  0.6334 -0.0607 -0.0547
 1718poe    c23 7647   4.073   5.522   1.092  0.5504 -0.1577  0.8187
 1718poe    c23 7648   4.008   5.441   1.205 -0.2448 -0.2181  0.3229
 1718poe     o2 7649   3.998   5.527   1.316 -0.0941 -0.0796  0.2288
 1718poe    c23 7650   3.945   5.474   1.435 -0.6213  0.7089  0.3529
 1718poe    c23 7651   3.948   5.570   1.555  0.0242  0.4757  0.5292
 1718poe     o2 7652   3.922   5.699   1.503 -0.2625  0.2690  0.1541
 1718poe    c23 7653   3.814   5.763   1.565 -0.5050 -0.1711  0.1914
 1718poe    c23 7654   3.840   5.908   1.611 -0.1638 -0.0654 -0.3362
 1718poe     o2 7655   3.862   5.987   1.496  0.5643  0.0819 -0.1067
 1718poe    c31 7656   3.866   6.123   1.532 -0.0911  0.0479  0.1117
 1719poe    c31 7657   1.146   6.478   0.458  0.6194 -0.0340 -0.1458
 1719poe     o2 7658   1.233   6.398   0.535 -0.4573 -0.7556  0.3466
 1719poe    c23 7659   1.247   6.436   0.670 -0.3141  0.0753  0.1037
 1719poe    c23 7660   1.353   6.340   0.727  0.1918  0.3400 -0.3777
 1719poe     o2 7661   1.353   6.225   0.646 -0.5526 -0.2217  0.3972
 1719poe    c23 7662   1.431   6.129   0.712  0.6994  0.1000 -0.5849
 1719poe    c23 7663   1.413   5.993   0.641 -0.3480  0.0559 -0.2411
 1719poe     o2 7664   1.298   5.925   0.687 -0.3062 -0.1810 -0.4814
 1719poe    c23 7665   1.317   5.859   0.810 -0.1043  0.6306 -0.0676
 1719poe    c23 7666   1.193   5.801   0.882  0.2821  0.0261  0.1226
 1719poe     o2 7667   1.113   5.913   0.914 -0.2018 -0.0103 -0.8984
 1719poe    c31 7668   0.996   5.863   0.975 -0.0488  0.0673 -0.5324
 1720poe    c31 7669   0.922   1.059   5.100  0.5349 -0.5519  0.0289
 1720poe     o2 7670   0.903   1.076   4.961 -0.0443 -0.0792  0.1609
 1720poe    c23 7671   0.789   0.998   4.932 -0.0974 -0.1236  0.4808
 1720poe    c23 7672   0.811   0.937   4.792  0.3872  0.4605  0.2967
 1720poe     o2 7673   0.938   0.969   4.740  0.0708 -0.0981 -0.8350
 1720poe    c23 7674   0.982   0.862   4.659  0.4284 -0.5379 -0.0695
 1720poe    c23 7675   1.092   0.920   4.568 -0.3466  0.1721 -0.5584
 1720poe     o2 7676   1.197   0.979   4.640 -0.2312  0.0959 -0.6634
 1720poe    c23 7677   1.291   1.046   4.559 -0.0816  0.2229 -0.3853
 1720poe    c23 7678   1.410   1.091   4.646 -0.2706 -0.0328  0.0069
 1720poe     o2 7679   1.366   1.171   4.754 -0.1734 -0.0699  0.0747
 1720poe    c31 7680   1.454   1.175   4.864 -0.7621 -0.5550  0.5688
 1721poe    c31 7681   3.688   0.599   6.467 -0.1246  0.9364 -0.9328
 1721poe     o2 7682   3.589   0.672   6.535  0.1216  0.2804  0.1450
 1721poe    c23 7683   3.602   0.812   6.526 -0.4117  0.2985 -0.3872
 1721poe    c23 7684   3.498   0.884   6.614 -0.0737  0.1014  0.1750
 1721poe     o2 7685   3.387   0.796   6.612  0.1429 -0.1780  0.2566
 1721poe    c23 7686   3.283   0.841   6.695  0.1654 -0.2963  0.3488
 1721poe    c23 7687   3.160   0.760   6.649 -0.2330  0.2270  0.4675
 1721poe     o2 7688   3.175   0.619   6.654 -0.1804  0.2109 -0.1040
 1721poe    c23 7689   3.127   0.587   6.783  0.0661 -0.5854 -0.2066
 1721poe    c23 7690   3.134   0.436   6.814 -0.7281 -0.6456 -0.3218
 1721poe     o2 7691   3.262   0.378   6.816 -0.6158 -0.3977 -0.2354
 1721poe    c31 7692   3.279   0.304   6.934 -0.1272  0.6379  0.3560
 1722poe    c31 7693   4.326   2.519   2.416 -0.4587  0.3693  0.0464
 1722poe     o2 7694   4.360   2.384   2.441  0.0205  0.4451 -0.1862
 1722poe    c23 7695   4.259   2.307   2.503  0.0634  0.2243 -0.3935
 1722poe    c23 7696   4.297   2.160   2.531 -0.3757  0.2879  0.5466
 1722poe     o2 7697   4.428   2.152   2.583 -0.0904  0.5407 -0.1254
 1722poe    c23 7698   4.462   2.018   2.612  0.4514  0.7212  0.0898
 1722poe    c23 7699   4.610   2.006   2.652  0.2982  0.1225  0.4715
 1722poe     o2 7700   4.683   2.069   2.550 -0.0390  0.0194  0.1635
 1722poe    c23 7701   4.813   2.015   2.563 -0.0502  0.0104  0.2386
 1722poe    c23 7702   4.894   2.076   2.447 -0.4006  0.4332  0.2115
 1722poe     o2 7703   4.844   2.197   2.396 -0.3607  0.3196 -0.1017
 1722poe    c31 7704   4.889   2.199   2.262  0.4534  0.1294  0.1619
 1723poe    c31 7705   3.826   3.192   7.029  0.8979 -0.2898  0.2075
 1723poe     o2 7706   3.767   3.079   7.091 -0.0113 -0.1529 -0.3950
 1723poe    c23 7707   3.650   3.121   7.157  0.3254  0.4889 -0.1942
 1723poe    c23 7708   3.556   3.001   7.185 -0.1030  0.7552 -0.4956
 1723poe     o2 7709   3.573   2.913   7.076 -0.7809  0.4207 -0.3329
 1723poe    c23 7710   3.483   2.805   7.086 -0.2641  0.0567  0.4818
 1723poe    c23 7711   3.502   2.681   6.996  0.1399  0.1458  0.4444
 1723poe     o2 7712   3.624   2.617   7.026 -0.0655 -0.4103  0.0936
 1723poe    c23 7713   3.637   2.510   6.934 -0.3098 -0.0534 -0.3645
 1723poe    c23 7714   3.777   2.448   6.950 -0.1775  0.3979  0.3092
 1723poe     o2 7715   3.879   2.545   6.941  0.6532 -0.4354  0.5295
 1723poe    c31 7716   4.007   2.500   6.977  0.6436 -0.6096  0.3451
 1724poe    c31 7717   4.637   1.487   4.190 -0.0361  0.3986 -0.0404
 1724poe     o2 7718   4.669   1.376   4.110  0.0972  0.3207  0.1218
 1724poe    c23 7719   4.804   1.335   4.119  0.1676  0.4043 -0.4982
 1724poe    c23 7720   4.856   1.247   4.004 -0.5107 -0.3795 -0.2179
 1724poe     o2 7721   4.846   1.329   3.889 -0.1456  0.0234  0.0358
 1724poe    c23 7722   4.874   1.259   3.770 -0.3015  0.5579 -0.3176
 1724poe    c23 7723   4.777   1.260   3.651 -0.3990 -0.0639 -0.2469
 1724poe     o2 7724   4.745   1.384   3.590  0.4883  0.0205 -0.5603
 1724poe    c23 7725   4.705   1.381   3.455  0.5398  0.0531 -0.5762
 1724poe    c23 7726   4.588   1.293   3.408 -0.0085  0.9089 -0.8236
 1724poe     o2 7727   4.476   1.359   3.464  0.1721  0.3605  0.2227
 1724poe    c31 7728   4.359   1.317   3.398 -0.1086  0.9495  0.3379
 1725poe    c31 7729   6.190   5.970   2.518 -0.1201 -0.0741  0.7583
 1725poe     o2 7730   6.256   5.910   2.627  0.1115 -0.1760  0.5608
 1725poe    c23 7731   6.372   5.979   2.669 -0.0481  0.2147  0.3568
 1725poe    c23 7732   6.413   5.902   2.795  0.8717 -0.2508 -0.2177
 1725poe     o2 7733   6.315   5.890   2.896  0.5021  0.5098 -0.4858
 1725poe    c23 7734   6.297   6.013   2.963 -0.3034  0.1875 -0.1003
 1725poe    c23 7735   6.197   6.005   3.080 -0.3141  0.5026 -0.0868
 1725poe     o2 7736   6.072   5.964   3.029  0.0404 -0.4230 -0.2322
 1725poe    c23 7737   5.964   5.998   3.113  0.2876 -0.2046 -0.0002
 1725poe    c23 7738   5.830   5.939   3.065  0.6229 -0.6667 -0.3827
 1725poe     o2 7739   5.823   5.804   3.106 -0.4633 -0.3811  0.4138
 1725poe    c31 7740   5.741   5.729   3.019 -0.6588  0.4854 -0.1717
 1726poe    c31 7741   0.688   2.239   6.027 -0.9685  0.0929 -0.2813
 1726poe     o2 7742   0.640   2.125   5.958  0.9208 -0.4169 -0.8167
 1726poe    c23 7743   0.702   1.999   5.975  0.2939 -0.6087  0.1102
 1726poe    c23 7744   0.606   1.894   5.915  0.2582 -0.3051 -0.3679
 1726poe     o2 7745   0.603   1.905   5.775 -0.1871  0.1651 -0.3261
 1726poe    c23 7746   0.546   1.793   5.711 -0.1771  0.0224 -0.0863
 1726poe    c23 7747   0.560   1.795   5.558  0.0253  0.4898 -0.0626
 1726poe     o2 7748   0.452   1.869   5.504 -0.7285 -0.8936 -0.5147
 1726poe    c23 7749   0.436   1.852   5.365  0.1321 -0.2090 -0.7121
 1726poe    c23 7750   0.403   1.993   5.313 -0.6186 -0.1331 -0.0481
 1726poe     o2 7751   0.273   2.037   5.348 -0.7253 -0.0958 -0.4889
 1726poe    c31 7752   0.270   2.174   5.380 -0.6522 -0.0324 -0.7480
 1727poe    c31 7753   6.610   1.971   5.250 -0.2470  0.2113  0.1310
 1727poe     o2 7754   6.573   1.916   5.126 -0.1663  0.0242  0.1900
 1727poe    c23 7755   6.488   2.006   5.060  0.4687  0.3039 -0.2511
 1727poe    c23 7756   6.471   1.966   4.912 -1.0257 -0.0664 -0.0014
 1727poe     o2 7757   6.450   1.827   4.906 -0.2181 -0.2078  0.2413
 1727poe    c23 7758   6.472   1.769   4.779  0.2280  0.4876  0.0006
 1727poe    c23 7759   6.500   1.618   4.771 -0.0374  0.4064  0.5438
 1727poe     o2 7760   6.619   1.577   4.835  0.1491 -0.0909 -0.1177
 1727poe    c23 7761   6.711   1.509   4.752  0.2797  0.3467 -0.3301
 1727poe    c23 7762   6.830   1.452   4.831  0.0851  0.3783 -0.0138
 1727poe     o2 7763   6.852   1.560   4.919  0.0750  0.6704 -0.3668
 1727poe    c31 7764   6.935   1.533   5.030 -0.4047 -0.8924 -0.3638
 1728poe    c31 7765   2.423   3.456   2.016  0.7126 -0.3786 -0.2200
 1728poe     o2 7766   2.524   3.392   2.091 -0.1770 -0.1837  1.1696
 1728poe    c23 7767   2.528   3.260   2.044  0.1348  0.3922 -0.4866
 1728poe    c23 7768   2.461   3.165   2.145  0.5426  0.8572  0.2244
 1728poe     o2 7769   2.523   3.152   2.271 -0.0263  0.2292  0.4441
 1728poe    c23 7770   2.478   3.041   2.346 -0.0658  0.0985  0.2260
 1728poe    c23 7771   2.532   3.036   2.490  0.3208 -0.1236  0.0770
 1728poe     o2 7772   2.668   3.000   2.504  0.2834 -0.3603 -0.1578
 1728poe    c23 7773   2.752   3.098   2.562 -0.3664 -0.0081  0.2066
 1728poe    c23 7774   2.901   3.085   2.528 -0.3412  0.1934  0.2431
 1728poe     o2 7775   2.902   3.128   2.393  0.1228  0.3437  0.2906
 1728poe    c31 7776   3.022   3.091   2.329 -0.2435 -0.8521  0.2696
 1729poe    c31 7777   4.932   3.037   5.885 -0.4612  0.0845 -0.8456
 1729poe     o2 7778   4.933   3.173   5.922 -0.0533 -0.0992 -0.1527
 1729poe    c23 7779   4.917   3.190   6.061  0.8026  0.1104 -0.0724
 1729poe    c23 7780   4.880   3.334   6.101  0.4622  0.1695 -0.5930
 1729poe     o2 7781   4.962   3.429   6.037  0.7600  0.1390 -0.2580
 1729poe    c23 7782   4.957   3.554   6.102  0.3973 -0.0403  0.0587
 1729poe    c23 7783   5.103   3.601   6.104  0.1645  0.6919  0.0516
 1729poe     o2 7784   5.144   3.617   5.969  0.3570 -0.1879  0.0021
 1729poe    c23 7785   5.283   3.600   5.956  0.2936 -0.2161 -0.6367
 1729poe    c23 7786   5.313   3.657   5.816  0.4826  0.6843 -0.2397
 1729poe     o2 7787   5.219   3.588   5.736  0.6708  0.4446 -0.2558
 1729poe    c31 7788   5.224   3.618   5.598  0.1448  0.4024 -0.2844
 1730poe    c31 7789   1.724   1.798   3.017 -0.1321  0.5489  0.3004
 1730poe     o2 7790   1.805   1.779   3.130 -0.6357 -1.2305  0.3929
 1730poe    c23 7791   1.737   1.779   3.254 -0.3579 -0.5748  0.5477
 1730poe    c23 7792   1.814   1.749   3.384  0.1051 -0.5050  0.2938
 1730poe     o2 7793   1.879   1.624   3.384  0.2245 -0.4445  0.5837
 1730poe    c23 7794   1.930   1.582   3.508  0.9701  0.0218  0.4411
 1730poe    c23 7795   2.003   1.448   3.491 -0.2166 -0.5986  0.0655
 1730poe     o2 7796   2.077   1.429   3.372 -0.6108 -0.3490 -0.2205
 1730poe    c23 7797   2.156   1.312   3.368 -0.0022  0.0336  0.3796
 1730poe    c23 7798   2.272   1.349   3.275 -0.2416  1.1118  0.4953
 1730poe     o2 7799   2.231   1.427   3.165  0.0272  0.0855 -0.3457
 1730poe    c31 7800   2.320   1.426   3.055 -0.3593 -1.3996 -0.6656
 1731poe    c31 7801   3.914   4.453   3.193 -0.1120  0.1151  0.4053
 1731poe     o2 7802   3.792   4.463   3.264 -0.3308  0.1842  0.0266
 1731poe    c23 7803   3.772   4.336   3.321 -0.1373  0.0517 -0.1967
 1731poe    c23 7804   3.621   4.306   3.326  0.0073 -0.6381  0.0998
 1731poe     o2 7805   3.559   4.409   3.398  0.0386  0.0327 -0.8249
 1731poe    c23 7806   3.418   4.403   3.393 -0.0113 -0.1403  0.4637
 1731poe    c23 7807   3.379   4.509   3.497 -0.4324 -0.0263  0.1958
 1731poe     o2 7808   3.428   4.632   3.447 -0.2626 -0.3502 -0.4354
 1731poe    c23 7809   3.353   4.736   3.506  0.0373 -0.4573  0.1435
 1731poe    c23 7810   3.430   4.869   3.494 -0.3787 -0.2416 -0.1605
 1731poe     o2 7811   3.475   4.893   3.362 -0.4198 -0.6146 -0.2455
 1731poe    c31 7812   3.497   5.030   3.339  0.7467 -0.7728 -0.1351
 1732poe    c31 7813   4.610   5.611   1.112  0.4800 -0.2978 -0.8205
 1732poe     o2 7814   4.517   5.547   1.027  0.1815 -0.2469 -0.5337
 1732poe    c23 7815   4.506   5.409   1.050  0.4540 -0.2845 -0.6299
 1732poe    c23 7816   4.479   5.327   0.922 -0.5326 -0.8411 -0.0728
 1732poe     o2 7817   4.358   5.373   0.867 -0.3543 -0.6634 -0.3129
 1732poe    c23 7818   4.283   5.275   0.798 -0.1456 -0.6877 -0.5056
 1732poe    c23 7819   4.186   5.354   0.709  0.0110 -0.0354 -0.1057
 1732poe     o2 7820   4.245   5.450   0.624 -0.0827  0.5515  0.4770
 1732poe    c23 7821   4.152   5.494   0.527 -0.1400 -0.2242  0.1721
 1732poe    c23 7822   4.221   5.598   0.436  0.4691 -0.4125  0.4101
 1732poe     o2 7823   4.321   5.661   0.513  0.4689  0.1234 -0.0243
 1732poe    c31 7824   4.372   5.752   0.418 -0.2435  0.1019 -0.4353
 1733poe    c31 7825   6.469   3.662   0.797  0.3366 -0.2403 -0.6769
 1733poe     o2 7826   6.347   3.640   0.730 -0.2117 -0.2620  0.2973
 1733poe    c23 7827   6.338   3.499   0.722 -0.0948 -0.2455 -0.1643
 1733poe    c23 7828   6.191   3.460   0.699 -0.2174 -0.3880  0.8346
 1733poe     o2 7829   6.108   3.539   0.782 -0.0096  0.3234  0.3714
 1733poe    c23 7830   5.987   3.479   0.822 -0.5883  0.8347 -0.5879
 1733poe    c23 7831   5.926   3.569   0.931 -0.5400  0.0665  0.0785
 1733poe     o2 7832   5.892   3.690   0.867  0.4376  0.6942  0.7288
 1733poe    c23 7833   5.803   3.765   0.946 -0.0633  0.1741  0.6643
 1733poe    c23 7834   5.713   3.867   0.874  0.7121  0.6105  0.3039
 1733poe     o2 7835   5.637   3.791   0.783  0.6761  0.7068  0.2530
 1733poe    c31 7836   5.538   3.868   0.719  0.3324  0.4672  0.4957
 1734poe    c31 7837   4.955   0.458   5.023  0.3398  0.0149 -0.2824
 1734poe     o2 7838   5.055   0.382   5.088 -0.0478 -0.1011  0.1754
 1734poe    c23 7839   5.144   0.326   4.995  0.3170  0.5940  0.1046
 1734poe    c23 7840   5.238   0.258   5.096 -0.1915 -0.1651  0.0701
 1734poe     o2 7841   5.159   0.166   5.169 -0.4913  0.3618  0.4166
 1734poe    c23 7842   5.231   0.048   5.195 -0.0860  0.4766 -0.1664
 1734poe    c23 7843   5.146  -0.054   5.272  0.4932  0.1064 -0.0144
 1734poe     o2 7844   5.123  -0.000   5.401  0.0289 -0.1051 -0.0078
 1734poe    c23 7845   5.109  -0.104   5.495  0.0144 -0.3919 -0.3201
 1734poe    c23 7846   4.959  -0.135   5.516 -0.0339  0.2271  0.3196
 1734poe     o2 7847   4.897  -0.011   5.540  0.2593  0.4451 -0.0461
 1734poe    c31 7848   4.760  -0.017   5.574  0.0444  0.0417 -0.9396
 1735poe    c31 7849   1.286   3.450   3.910 -0.5850  0.9283  0.4698
 1735poe     o2 7850   1.360   3.432   4.028 -0.2561 -0.2422  0.1021
 1735poe    c23 7851   1.485   3.373   3.998 -0.1276  0.1643 -0.1739
 1735poe    c23 7852   1.592   3.443   3.912  0.3292 -0.0286  0.2310
 1735poe     o2 7853   1.656   3.559   3.962 -0.1245  0.4901 -0.3774
 1735poe    c23 7854   1.771   3.606   3.895  0.4361 -0.3674 -0.0346
 1735poe    c23 7855   1.743   3.678   3.762 -0.2755  0.0253  0.3181
 1735poe     o2 7856   1.693   3.808   3.781  0.0058  0.2489 -0.4298
 1735poe    c23 7857   1.653   3.860   3.656  0.4342 -0.1547 -0.7405
 1735poe    c23 7858   1.675   4.013   3.656  0.4668 -0.1330  0.9496
 1735poe     o2 7859   1.586   4.078   3.743  0.5977  0.5887  0.5521
 1735poe    c31 7860   1.624   4.213   3.732  0.4496  0.5619 -0.3788
 1736poe    c31 7861   1.244   5.889   1.245 -0.4401 -0.2335 -0.6575
 1736poe     o2 7862   1.205   6.024   1.250  0.0186 -0.1239  0.1794
 1736poe    c23 7863   1.283   6.100   1.161  0.0675 -0.0835  0.2573
 1736poe    c23 7864   1.311   6.248   1.194 -0.0275 -0.0769  0.3074
 1736poe     o2 7865   1.196   6.329   1.190  0.1393  0.1121 -0.8239
 1736poe    c23 7866   1.231   6.463   1.217 -0.5009 -0.0128  0.7101
 1736poe    c23 7867   1.106   6.547   1.185  0.1124  0.7004  0.1337
 1736poe     o2 7868   0.987   6.508   1.251  0.3858  0.2814  0.3841
 1736poe    c23 7869   0.876   6.591   1.226  0.5821  0.4405  0.0309
 1736poe    c23 7870   0.752   6.515   1.279  0.8564  0.2887  0.4664
 1736poe     o2 7871   0.762   6.383   1.230  0.2530  0.2784  0.3704
 1736poe    c31 7872   0.643   6.310   1.250  0.4025  0.1654  0.8784
 1737poe    c31 7873   2.810   1.220   6.397  0.3021  1.2533  0.0154
 1737poe     o2 7874   2.782   1.287   6.518 -0.4780  0.5131  0.2544
 1737poe    c23 7875   2.682   1.225   6.596 -0.8413  0.6330 -0.1158
 1737poe    c23 7876   2.669   1.274   6.741 -0.3323 -0.2808  0.2465
 1737poe     o2 7877   2.585   1.387   6.753 -0.2174 -0.1399 -0.2397
 1737poe    c23 7878   2.631   1.505   6.692 -0.1725 -0.2094 -0.3402
 1737poe    c23 7879   2.522   1.588   6.623 -0.8335 -0.2893  0.5853
 1737poe     o2 7880   2.439   1.663   6.708 -0.1955  0.3534  0.6563
 1737poe    c23 7881   2.338   1.588   6.773 -0.1937 -0.4005 -0.2010
 1737poe    c23 7882   2.236   1.682   6.839  0.0844 -0.2112 -0.0421
 1737poe     o2 7883   2.133   1.631   6.921 -0.0880  0.2994  0.0642
 1737poe    c31 7884   2.190   1.590   7.043  0.6688 -0.1927 -0.4418
 1738poe    c31 7885   7.062   0.579   3.370  0.2859  0.0073 -0.4375
 1738poe     o2 7886   7.033   0.496   3.480  0.3755  0.3932 -0.1169
 1738poe    c23 7887   7.134   0.404   3.516 -0.5104 -0.4834  0.1779
 1738poe    c23 7888   7.113   0.330   3.650  0.2169 -0.2348  0.4334
 1738poe     o2 7889   6.986   0.270   3.639  0.1785 -0.0990  0.0900
 1738poe    c23 7890   6.972   0.157   3.722  0.1837 -0.3483 -0.2477
 1738poe    c23 7891   6.849   0.083   3.667  0.3482 -0.4987 -0.4103
 1738poe     o2 7892   6.761   0.177   3.610  0.0058  0.0517  0.9991
 1738poe    c23 7893   6.624   0.142   3.613 -0.0496  0.2132  0.4938
 1738poe    c23 7894   6.554   0.237   3.515 -0.0116 -0.4369 -0.1701
 1738poe     o2 7895   6.590   0.218   3.380  0.4723  0.5742 -0.1988
 1738poe    c31 7896   6.508   0.293   3.293  0.4816  0.6926 -0.1051
 1739poe    c31 7897   7.138   0.442   4.993 -0.0615  0.2181  0.0420
 1739poe     o2 7898   7.070   0.390   4.880  0.0620  0.2160 -0.0316
 1739poe    c23 7899   6.931   0.414   4.872  0.0396  0.2578  0.4509
 1739poe    c23 7900   6.901   0.538   4.787 -0.8916 -0.3428 -0.1059
 1739poe     o2 7901   6.910   0.532   4.646 -1.4003 -0.3449 -0.1409
 1739poe    c23 7902   6.885   0.662   4.598 -0.2768 -0.0380  0.0869
 1739poe    c23 7903   7.010   0.720   4.528 -0.3768  0.2114  0.1147
 1739poe     o2 7904   7.058   0.639   4.423 -0.7125  0.5186 -0.2827
 1739poe    c23 7905   7.186   0.676   4.377 -0.2430 -0.4927  0.1613
 1739poe    c23 7906   7.224   0.583   4.261  0.5436  0.1692 -0.1226
 1739poe     o2 7907   7.173   0.454   4.286  0.3559  0.1765 -0.4639
 1739poe    c31 7908   7.234   0.362   4.198  0.5390  0.1993 -0.3609
 1740poe    c31 7909   1.965   1.120   4.987 -0.0584  0.2194 -0.0223
 1740poe     o2 7910   2.019   1.016   4.910 -0.1443  0.0507  0.1454
 1740poe    c23 7911   2.159   1.025   4.895 -0.0529 -0.4584  0.6431
 1740poe    c23 7912   2.205   0.931   4.782 -1.0739  0.4122 -0.5313
 1740poe     o2 7913   2.182   0.797   4.818  0.4517  0.4138  0.5826
 1740poe    c23 7914   2.293   0.718   4.782 -0.0043 -0.0838  0.2463
 1740poe    c23 7915   2.265   0.573   4.827 -0.6331 -0.1662 -0.3868
 1740poe     o2 7916   2.141   0.538   4.771 -0.6757 -0.1223 -0.3200
 1740poe    c23 7917   2.114   0.413   4.831  0.4948 -0.0048  0.4784
 1740poe    c23 7918   1.980   0.382   4.762  0.6809  0.7203 -0.2252
 1740poe     o2 7919   1.901   0.497   4.774 -0.0148  0.2428 -0.1647
 1740poe    c31 7920   1.763   0.474   4.790  0.0379  0.1018  0.0841
 1741poe    c31 7921   5.097   3.147   1.593 -0.5594  0.1462 -0.0557
 1741poe     o2 7922   5.039   3.271   1.560 -0.1434  0.2470 -0.4223
 1741poe    c23 7923   4.950   3.250   1.453 -0.0391 -0.0464 -0.4533
 1741poe    c23 7924   4.844   3.362   1.443  0.3122  0.3320  0.0407
 1741poe     o2 7925   4.897   3.492   1.427  0.1616  0.3864 -0.0119
 1741poe    c23 7926   4.811   3.602   1.450  0.8428  0.8456  0.3692
 1741poe    c23 7927   4.887   3.728   1.407  0.1025  1.1926  0.0631
 1741poe     o2 7928   5.013   3.745   1.469  0.4033  0.2915 -0.2874
 1741poe    c23 7929   5.061   3.877   1.465  0.0403  0.4484  0.4274
 1741poe    c23 7930   5.198   3.869   1.536  0.7159  1.5525 -0.7082
 1741poe     o2 7931   5.270   3.777   1.458 -0.2718  0.2038 -0.0728
 1741poe    c31 7932   5.406   3.815   1.467 -0.0560 -0.4044 -0.6934
 1742poe    c31 7933   6.767   3.790   1.886  0.1313 -0.2517  1.3151
 1742poe     o2 7934   6.755   3.688   1.789 -0.1339  0.7189  0.3089
 1742poe    c23 7935   6.686   3.571   1.828  0.1705  0.4343 -0.0103
 1742poe    c23 7936   6.698   3.469   1.713 -0.4523 -0.2955  0.5669
 1742poe     o2 7937   6.828   3.420   1.692 -0.4637  0.0539 -0.3741
 1742poe    c23 7938   6.835   3.324   1.590  0.1485 -0.4261  0.1083
 1742poe    c23 7939   6.978   3.302   1.536  0.2972  0.0707  0.2990
 1742poe     o2 7940   6.993   3.333   1.400 -0.8260 -0.2116  0.1052
 1742poe    c23 7941   7.022   3.470   1.382  0.0254 -0.4747 -0.5513
 1742poe    c23 7942   7.051   3.515   1.237 -0.0052 -0.0158 -0.4160
 1742poe     o2 7943   7.173   3.459   1.193  0.1844 -0.0777  0.1796
 1742poe    c31 7944   7.195   3.504   1.061 -0.4601 -0.0865  0.0659
 1743poe    c31 7945   1.274   1.440   5.057 -0.2085 -0.2432  0.1400
 1743poe     o2 7946   1.174   1.507   4.984 -0.2703 -0.6823 -0.1816
 1743poe    c23 7947   1.132   1.628   5.042 -0.5236 -0.7036 -0.3170
 1743poe    c23 7948   1.018   1.700   4.967 -0.0362  0.2096 -0.2075
 1743poe     o2 7949   1.058   1.703   4.832 -0.0769  0.7277 -0.2088
 1743poe    c23 7950   0.972   1.761   4.737 -0.5062  0.4833  0.0239
 1743poe    c23 7951   1.043   1.796   4.604  0.0678  0.4108  0.3073
 1743poe     o2 7952   1.153   1.884   4.609 -0.0787  0.6301 -0.2983
 1743poe    c23 7953   1.109   2.017   4.625  0.3891  0.6605  0.8152
 1743poe    c23 7954   1.196   2.130   4.566  0.1184  0.0352 -0.8366
 1743poe     o2 7955   1.313   2.166   4.637 -0.1512 -0.5239 -0.0905
 1743poe    c31 7956   1.369   2.271   4.560 -0.5563 -0.1850  0.0743
 1744poe    c31 7957   1.419   1.852   4.859  0.7705  0.1387  0.5210
 1744poe     o2 7958   1.444   1.715   4.840 -0.8191 -0.1268  0.2769
 1744poe    c23 7959   1.573   1.678   4.881 -0.5663  0.0176 -0.3748
 1744poe    c23 7960   1.609   1.539   4.825  0.0247  0.0536 -0.0924
 1744poe     o2 7961   1.559   1.538   4.693 -0.3111  0.4029  0.0303
 1744poe    c23 7962   1.608   1.428   4.619 -0.5638  0.3208 -0.0160
 1744poe    c23 7963   1.532   1.427   4.485 -0.0615 -0.0277 -0.3012
 1744poe     o2 7964   1.394   1.420   4.511  0.0036 -0.3796 -0.0535
 1744poe    c23 7965   1.312   1.444   4.398  0.1078  0.1143 -0.0239
 1744poe    c23 7966   1.169   1.388   4.413  0.0563  0.1906 -0.2358
 1744poe     o2 7967   1.083   1.436   4.514  0.1131  0.0192 -0.1058
 1744poe    c31 7968   0.958   1.382   4.477  0.0088  0.5473 -0.5426
 1745poe    c31 7969   1.999   6.336   4.148  0.0437 -0.1978  0.6648
 1745poe     o2 7970   1.896   6.357   4.055  0.6148  0.0984  0.0958
 1745poe    c23 7971   1.793   6.379   4.149 -0.0253 -0.2535 -0.5097
 1745poe    c23 7972   1.703   6.491   4.094  0.0109 -0.0952 -0.2494
 1745poe     o2 7973   1.692   6.478   3.954  0.0658 -0.1915 -0.2447
 1745poe    c23 7974   1.616   6.579   3.891  0.2211 -0.1717 -0.3999
 1745poe    c23 7975   1.619   6.552   3.740  0.2122 -0.8937 -0.2743
 1745poe     o2 7976   1.747   6.533   3.682  0.4382 -0.7635  0.1809
 1745poe    c23 7977   1.763   6.573   3.548  0.1379 -0.3039  0.2820
 1745poe    c23 7978   1.911   6.577   3.507 -0.1179  0.1729 -0.6307
 1745poe     o2 7979   1.968   6.448   3.500 -0.2832  0.1027 -0.6798
 1745poe    c31 7980   2.086   6.474   3.427  0.4577  0.2252  0.5286
 1746poe    c31 7981   3.825   4.896   4.308  0.9472  0.4839  1.0332
 1746poe     o2 7982   3.860   4.761   4.283  0.4885  0.4766  0.4118
 1746poe    c23 7983   3.996   4.754   4.248  0.4034 -0.7392  0.2966
 1746poe    c23 7984   4.023   4.630   4.161  0.2090 -0.3393 -0.3338
 1746poe     o2 7985   3.958   4.525   4.229  0.0826 -0.1603 -0.1758
 1746poe    c23 7986   3.984   4.399   4.170 -0.3303  0.0025 -0.7135
 1746poe    c23 7987   3.973   4.279   4.265  0.0652  0.5630  0.0560
 1746poe     o2 7988   3.839   4.282   4.310  0.0775  0.3941  0.1060
 1746poe    c23 7989   3.810   4.170   4.389  0.0912 -0.1767 -0.6789
 1746poe    c23 7990   3.668   4.183   4.449  0.1620  0.0270 -0.5547
 1746poe     o2 7991   3.677   4.283   4.548 -0.0113 -0.7260  0.2427
 1746poe    c31 7992   3.563   4.309   4.626  0.0525 -0.1695  0.1584
 1747poe    c31 7993   6.471   5.858   5.532 -0.2942 -0.0639 -0.3481
 1747poe     o2 7994   6.382   5.760   5.579 -0.3050  0.1268  0.0366
 1747poe    c23 7995   6.429   5.703   5.699 -0.1992 -0.1456 -0.1324
 1747poe    c23 7996   6.331   5.603   5.763  0.2524  0.0409  0.8729
 1747poe     o2 7997   6.198   5.649   5.767  0.1790 -0.1347  0.4883
 1747poe    c23 7998   6.090   5.558   5.772 -0.0994  0.1345 -0.3682
 1747poe    c23 7999   5.958   5.622   5.728 -0.4716 -0.3356  0.0512
 1747poe     o2 8000   5.925   5.658   5.596  0.2976  0.5190  0.0814
 1747poe    c23 8001   5.808   5.736   5.587 -0.3514 -0.4874 -0.4611
 1747poe    c23 8002   5.804   5.798   5.446 -0.2243 -0.7110 -0.5632
 1747poe     o2 8003   5.926   5.865   5.425 -0.8148  0.6752  0.2927
 1747poe    c31 8004   5.900   5.962   5.325 -0.0538 -0.1251 -0.6946
 1748poe    c31 8005   2.484   2.852   3.511  0.3301  0.2023 -0.5210
 1748poe     o2 8006   2.367   2.912   3.460 -0.0108 -0.1003 -0.1029
 1748poe    c23 8007   2.291   2.801   3.416 -0.8567  0.1109  0.7804
 1748poe    c23 8008   2.166   2.873   3.364 -0.6840  0.0861  0.3187
 1748poe     o2 8009   2.116   2.936   3.481  0.0652 -0.0413  0.7148
 1748poe    c23 8010   2.001   3.012   3.454  0.3071  0.0482 -0.1039
 1748poe    c23 8011   1.986   3.109   3.573 -0.5153 -0.1606 -0.0295
 1748poe     o2 8012   2.085   3.208   3.553 -0.0117 -0.6861 -0.1571
 1748poe    c23 8013   2.037   3.308   3.640  0.2411 -0.1199 -0.6645
 1748poe    c23 8014   2.127   3.430   3.615  0.0644  0.1278 -0.1198
 1748poe     o2 8015   2.261   3.384   3.617 -0.0095 -0.0752  0.2060
 1748poe    c31 8016   2.352   3.491   3.621 -0.1191  0.0247  0.0736
 1749poe    c31 8017   0.458   6.054   5.180 -0.5115  0.1371  0.5772
 1749poe     o2 8018   0.331   5.993   5.187 -0.4769 -0.0577 -0.3688
 1749poe    c23 8019   0.247   6.085   5.253 -0.6789 -0.1896 -0.4388
 1749poe    c23 8020   0.117   6.024   5.306 -0.4801  0.0058  0.2906
 1749poe     o2 8021   0.118   5.976   5.439 -0.2130 -0.4074  0.1417
 1749poe    c23 8022  -0.017   5.976   5.480 -0.2047  0.0913  0.1747
 1749poe    c23 8023  -0.012   5.893   5.610  0.3648 -0.5796 -0.2676
 1749poe     o2 8024   0.102   5.935   5.683 -0.1709  0.2135  0.1265
 1749poe    c23 8025   0.119   5.856   5.798 -0.2122  0.1548  0.0925
 1749poe    c23 8026   0.267   5.841   5.840 -0.2507 -0.3177  0.0695
 1749poe     o2 8027   0.339   5.789   5.731 -0.4719 -0.2163 -0.1256
 1749poe    c31 8028   0.426   5.693   5.787 -0.3466 -0.2494 -0.3755
 1750poe    c31 8029   7.080   6.274   0.669  0.1135  0.2528  0.1392
 1750poe     o2 8030   7.108   6.324   0.541 -0.1738  0.0407 -0.0071
 1750poe    c23 8031   7.203   6.428   0.542 -0.0399 -0.0833  0.2249
 1750poe    c23 8032   7.185   6.501   0.407 -0.1988 -0.0963  0.2392
 1750poe     o2 8033   7.056   6.535   0.363  0.1116  0.2157 -0.4425
 1750poe    c23 8034   7.003   6.646   0.432  0.1007 -0.1716  0.1724
 1750poe    c23 8035   6.859   6.663   0.380  0.0431 -0.6985  0.1558
 1750poe     o2 8036   6.879   6.715   0.250 -0.3576 -0.8188  0.0453
 1750poe    c23 8037   6.756   6.718   0.181 -0.2791 -0.3893 -0.0773
 1750poe    c23 8038   6.781   6.722   0.029  0.8431 -0.4361  0.0957
 1750poe     o2 8039   6.844   6.601  -0.006  0.8182 -0.6094  0.6413
 1750poe    c31 8040   6.833   6.562  -0.141  0.1949  0.3140  0.4174
 1751poe    c31 8041   4.506   1.716   6.493 -0.4479  0.3293 -0.1835
 1751poe     o2 8042   4.384   1.744   6.558 -0.6549  0.2933 -0.5536
 1751poe    c23 8043   4.340   1.633   6.633 -0.3291  0.1900 -0.5156
 1751poe    c23 8044   4.221   1.672   6.722 -0.0497  0.0040 -0.0535
 1751poe     o2 8045   4.251   1.740   6.842  0.7417  0.1650 -0.3378
 1751poe    c23 8046   4.246   1.877   6.809  0.2375  0.2201 -0.0431
 1751poe    c23 8047   4.259   1.965   6.935 -0.2160  0.4961 -0.1865
 1751poe     o2 8048   4.302   1.881   7.041 -0.3581  0.6089 -0.0395
 1751poe    c23 8049   4.225   1.908   7.156 -0.3257  0.0228  0.1225
 1751poe    c23 8050   4.269   1.817   7.272 -0.8498 -0.2795  0.0870
 1751poe     o2 8051   4.270   1.680   7.241  0.3586 -0.3167  0.2346
 1751poe    c31 8052   4.278   1.601   7.358  0.0189 -1.0852 -0.2583
 1752poe    c31 8053   1.357   5.616   1.732  0.7691  0.3001  0.5372
 1752poe     o2 8054   1.426   5.531   1.821  0.1064 -0.6665  0.1440
 1752poe    c23 8055   1.458   5.591   1.945 -0.0568  0.4938 -0.3615
 1752poe    c23 8056   1.572   5.509   2.008 -0.4880 -0.0409 -0.2745
 1752poe     o2 8057   1.555   5.370   1.988 -0.3813 -0.0440 -0.3450
 1752poe    c23 8058   1.664   5.293   2.033 -0.3414  0.2132  0.0067
 1752poe    c23 8059   1.623   5.147   2.007  0.1833  0.0652 -0.0000
 1752poe     o2 8060   1.605   5.115   1.871 -0.4398 -0.0975  0.1181
 1752poe    c23 8061   1.556   4.988   1.835 -0.5239 -0.1513  0.4145
 1752poe    c23 8062   1.546   4.974   1.681  0.0283 -0.5860  0.4128
 1752poe     o2 8063   1.489   5.083   1.613  0.0088 -0.5896  0.4234
 1752poe    c31 8064   1.473   5.052   1.476 -0.2690  0.2273  0.2611
 1753poe    c31 8065   0.960   6.800   1.598  0.1122  0.0887  0.0091
 1753poe     o2 8066   1.062   6.703   1.609  0.1620  0.0995 -0.3321
 1753poe    c23 8067   1.045   6.613   1.716 -0.1497 -0.1180 -0.5633
 1753poe    c23 8068   1.134   6.488   1.706 -0.1001 -0.2191  0.9214
 1753poe     o2 8069   1.266   6.515   1.664 -0.5217  0.1408 -0.1782
 1753poe    c23 8070   1.336   6.401   1.622 -0.2592  0.2600 -0.0650
 1753poe    c23 8071   1.484   6.442   1.608 -0.2042  0.3324  0.6958
 1753poe     o2 8072   1.501   6.542   1.511  0.1859 -0.5066 -0.1090
 1753poe    c23 8073   1.639   6.569   1.494 -0.0125  0.2049 -0.6724
 1753poe    c23 8074   1.638   6.700   1.414 -0.1425  0.2097 -0.6646
 1753poe     o2 8075   1.598   6.812   1.490  0.0945 -0.3782  0.3552
 1753poe    c31 8076   1.662   6.928   1.442 -0.7409  0.1406  0.4649
 1754poe    c31 8077   2.071   2.046   4.361 -0.4478  0.3049 -0.0224
 1754poe     o2 8078   2.096   1.918   4.414  0.1976  0.5317  0.2392
 1754poe    c23 8079   1.994   1.842   4.476  0.4419 -0.1226 -0.1479
 1754poe    c23 8080   2.032   1.696   4.504  0.3964 -0.1595 -0.2777
 1754poe     o2 8081   2.155   1.678   4.569  0.4140 -0.1571 -0.3108
 1754poe    c23 8082   2.203   1.548   4.542  0.4340 -0.1572 -0.2744
 1754poe    c23 8083   2.342   1.534   4.606  0.0218 -0.3013  0.6086
 1754poe     o2 8084   2.449   1.592   4.535 -0.0588 -0.1026  0.6502
 1754poe    c23 8085   2.521   1.495   4.462  0.1237  0.1126  0.5406
 1754poe    c23 8086   2.643   1.557   4.391 -0.5612  0.9524  0.0779
 1754poe     o2 8087   2.588   1.631   4.285 -0.6104  0.8038 -0.0015
 1754poe    c31 8088   2.673   1.732   4.234  0.2586  0.0749 -0.0175
 1755poe    c31 8089   5.343   0.187   3.650 -0.1226 -0.4609 -0.3658
 1755poe     o2 8090   5.409   0.064   3.635 -0.1296 -0.4619 -0.3878
 1755poe    c23 8091   5.332  -0.002   3.536  0.1640 -0.5383 -0.5663
 1755poe    c23 8092   5.394  -0.139   3.503 -0.0184 -0.7207 -0.1525
 1755poe     o2 8093   5.525  -0.125   3.454  0.0818  0.9284  0.5197
 1755poe    c23 8094   5.618  -0.231   3.454 -0.3315  0.5487 -0.6079
 1755poe    c23 8095   5.751  -0.175   3.400  0.1856  0.1307  0.2019
 1755poe     o2 8096   5.799  -0.074   3.485 -0.3379  0.7440 -0.2104
 1755poe    c23 8097   5.940  -0.084   3.498 -0.4244  0.1233  0.3296
 1755poe    c23 8098   5.967  -0.082   3.650 -0.3920 -0.3345  0.3294
 1755poe     o2 8099   5.906   0.040   3.684  0.4857  0.1242  0.2603
 1755poe    c31 8100   5.932   0.089   3.814 -0.4080 -0.1883  0.5585
 1756poe    c31 8101   6.099   3.987   6.887 -0.1180  0.3620 -0.4947
 1756poe     o2 8102   5.968   4.020   6.847 -0.2911  0.2304 -0.0443
 1756poe    c23 8103   5.884   4.072   6.947 -0.4490 -0.3228  0.1113
 1756poe    c23 8104   5.773   4.129   6.855 -0.5626 -0.4132  0.1919
 1756poe     o2 8105   5.752   4.023   6.764  0.4037 -0.2678 -0.2187
 1756poe    c23 8106   5.619   4.029   6.717  0.1284 -0.3886  0.5190
 1756poe    c23 8107   5.635   3.921   6.609  0.4333  0.0812  0.0882
 1756poe     o2 8108   5.744   3.928   6.520  0.1675 -0.0563 -0.2503
 1756poe    c23 8109   5.726   3.864   6.395 -0.3273  0.0009 -0.2108
 1756poe    c23 8110   5.822   3.903   6.282 -0.0386  0.5647  0.2233
 1756poe     o2 8111   5.944   3.854   6.333 -0.0901  0.3821  0.1711
 1756poe    c31 8112   6.044   3.873   6.236 -0.0603  0.3343  0.1926
 1757poe    c31 8113   2.087   4.534   5.041  0.2609 -0.3099  0.2993
 1757poe     o2 8114   2.021   4.457   5.138 -0.8983 -0.2362 -0.4145
 1757poe    c23 8115   1.997   4.545   5.246 -0.4434 -0.4416 -0.1400
 1757poe    c23 8116   1.932   4.460   5.357  0.3769  0.2286  0.8667
 1757poe     o2 8117   2.027   4.357   5.373  0.1866 -0.1013 -0.0710
 1757poe    c23 8118   1.998   4.263   5.474 -0.5336 -0.2312 -0.3923
 1757poe    c23 8119   2.091   4.141   5.455 -0.5639 -0.3026 -0.0778
 1757poe     o2 8120   2.062   4.110   5.321  0.1995 -0.1912 -0.2727
 1757poe    c23 8121   2.102   3.978   5.292  0.0372 -0.4006  0.4297
 1757poe    c23 8122   1.999   3.892   5.216  0.2221 -0.3253  0.0919
 1757poe     o2 8123   1.977   3.934   5.083  0.5066 -0.8435 -0.1221
 1757poe    c31 8124   1.876   3.857   5.021 -1.1859  0.8806  0.3786
 1758poe    c31 8125   3.140   5.428   1.160  0.3818  0.0909 -0.2614
 1758poe     o2 8126   3.094   5.556   1.125 -0.0016 -0.0305 -0.2082
 1758poe    c23 8127   2.980   5.539   1.044 -0.0725 -0.3350 -0.0462
 1758poe    c23 8128   2.900   5.664   1.003 -0.1411 -0.4310 -0.2055
 1758poe     o2 8129   2.983   5.742   0.919  0.0733  0.1260  0.5110
 1758poe    c23 8130   2.888   5.837   0.876  0.2528  0.3095  0.5191
 1758poe    c23 8131   2.943   5.952   0.790  0.3809  0.3637  0.6726
 1758poe     o2 8132   2.991   5.913   0.663  0.2636  0.2650  0.6590
 1758poe    c23 8133   2.948   5.994   0.555  0.2691 -0.6882 -0.0731
 1758poe    c23 8134   3.009   5.953   0.420  0.2557 -0.2694 -0.2063
 1758poe     o2 8135   2.991   5.819   0.378  0.5452 -0.4111  0.1221
 1758poe    c31 8136   3.043   5.801   0.249 -0.2503 -0.3747 -0.2088
 1759poe    c31 8137   3.929   4.857   2.083 -0.0148 -0.3375  0.6765
 1759poe     o2 8138   3.831   4.867   2.185 -0.5833 -0.1701  0.1192
 1759poe    c23 8139   3.809   4.743   2.249 -0.2078  0.0072  0.5928
 1759poe    c23 8140   3.678   4.764   2.327 -0.6116 -0.2109 -0.0226
 1759poe     o2 8141   3.685   4.893   2.384 -0.5647 -0.0946 -0.2867
 1759poe    c23 8142   3.633   4.894   2.515  0.3254  0.2325  0.0706
 1759poe    c23 8143   3.645   5.035   2.576  0.0339  0.2838  0.0073
 1759poe     o2 8144   3.576   5.122   2.488  0.1370  0.6546  0.2895
 1759poe    c23 8145   3.548   5.247   2.546 -0.1334  0.6154  0.2431
 1759poe    c23 8146   3.435   5.313   2.464 -0.1582 -0.0212 -0.2406
 1759poe     o2 8147   3.481   5.292   2.332  0.0835 -0.7926 -0.0432
 1759poe    c31 8148   3.366   5.291   2.251 -0.1283 -0.2333  0.2422
 1760poe    c31 8149   5.943   2.774   1.237  0.2628 -0.0391 -0.3861
 1760poe     o2 8150   5.918   2.637   1.217  0.7125 -0.1674 -0.0898
 1760poe    c23 8151   5.942   2.565   1.335 -0.6094 -0.6922 -0.1147
 1760poe    c23 8152   5.936   2.415   1.300  0.1948 -0.7441 -0.0655
 1760poe     o2 8153   5.923   2.355   1.427  0.4674 -0.1144  0.2630
 1760poe    c23 8154   5.963   2.220   1.420  0.2070 -0.2035  0.5015
 1760poe    c23 8155   5.897   2.133   1.528 -0.0775 -0.0456  0.4576
 1760poe     o2 8156   5.758   2.156   1.524  0.0292  0.5166 -0.1345
 1760poe    c23 8157   5.677   2.044   1.554  0.2763  0.1743 -0.7339
 1760poe    c23 8158   5.556   2.112   1.619  0.3063 -0.4559 -0.0058
 1760poe     o2 8159   5.531   2.233   1.550  0.1535 -0.1802  0.5211
 1760poe    c31 8160   5.399   2.267   1.584  0.0007 -0.7830  0.5530
 1761poe    c31 8161   0.666   5.844   3.986  0.2670  0.1087  0.1331
 1761poe     o2 8162   0.763   5.942   4.014  0.1591  0.3065 -0.1802
 1761poe    c23 8163   0.882   5.867   4.003  0.0062  0.0615 -0.1745
 1761poe    c23 8164   0.996   5.960   4.050  0.0947 -0.2883  0.3122
 1761poe     o2 8165   0.995   6.008   4.183 -0.4741 -0.4396  0.3651
 1761poe    c23 8166   1.078   5.937   4.271  0.5525  0.2282 -0.0463
 1761poe    c23 8167   1.078   6.019   4.402  0.1462 -0.2787  0.2764
 1761poe     o2 8168   0.950   6.077   4.410  0.2538 -0.0262  0.1764
 1761poe    c23 8169   0.909   6.093   4.544 -0.2135 -0.8514  0.1403
 1761poe    c23 8170   0.765   6.148   4.539  0.0262 -0.1880  0.3291
 1761poe     o2 8171   0.759   6.283   4.500  0.2549 -0.1031  0.5855
 1761poe    c31 8172   0.634   6.345   4.522  0.0649 -0.3011  0.0852
 1762poe    c31 8173   5.149   3.800   3.440 -0.5144  0.1677  0.3625
 1762poe     o2 8174   5.281   3.792   3.489 -0.3296  0.4356 -0.0863
 1762poe    c23 8175   5.311   3.868   3.605 -0.3305  0.4887 -0.1209
 1762poe    c23 8176   5.446   3.830   3.667 -0.6723  0.2830  0.5085
 1762poe     o2 8177   5.465   3.691   3.681  0.4032  0.3875  0.1790
 1762poe    c23 8178   5.601   3.658   3.699  0.4472  0.3164 -0.2687
 1762poe    c23 8179   5.640   3.592   3.832  0.4818 -0.3288 -0.5995
 1762poe     o2 8180   5.556   3.482   3.862 -0.6023  0.7479  0.4067
 1762poe    c23 8181   5.569   3.425   3.990 -0.0908  0.3394  0.1751
 1762poe    c23 8182   5.527   3.517   4.106 -0.4726  0.4170 -0.0263
 1762poe     o2 8183   5.387   3.501   4.103 -0.4625  0.3291 -0.0107
 1762poe    c31 8184   5.315   3.617   4.069 -0.2810  0.3715 -0.2520
 1763poe    c31 8185   3.642   5.713   5.601 -0.3406  0.5219 -0.1445
 1763poe     o2 8186   3.755   5.798   5.596 -0.3069  0.4849  0.0061
 1763poe    c23 8187   3.869   5.744   5.533 -0.4287  0.1110  0.1041
 1763poe    c23 8188   3.980   5.851   5.532 -0.4934  0.1759 -0.0648
 1763poe     o2 8189   3.982   5.914   5.658  0.2858 -0.5307  0.2842
 1763poe    c23 8190   4.106   5.977   5.682  0.2989 -0.3114 -0.3438
 1763poe    c23 8191   4.107   6.009   5.832 -0.0656  0.6540 -0.5415
 1763poe     o2 8192   3.982   6.061   5.871 -0.1005 -0.2628  0.6228
 1763poe    c23 8193   3.989   6.092   6.008 -0.0602  0.7526  0.3970
 1763poe    c23 8194   3.849   6.123   6.064 -0.6575 -0.1674 -0.5618
 1763poe     o2 8195   3.755   6.018   6.058 -0.5040 -0.3250 -0.2320
 1763poe    c31 8196   3.742   5.981   6.194  0.1652 -0.7177 -0.2710
 1764poe    c31 8197   4.519   0.157   7.148  0.6155  0.0803  0.0396
 1764poe     o2 8198   4.422   0.221   7.067  0.0459 -0.2137  0.4780
 1764poe    c23 8199   4.298   0.173   7.113  0.0625 -0.0941  0.6472
 1764poe    c23 8200   4.198   0.245   7.021  0.1938 -0.3620  0.2968
 1764poe     o2 8201   4.166   0.375   7.065 -0.5296 -0.4025 -0.0893
 1764poe    c23 8202   4.036   0.407   7.022 -0.2166  0.2106 -0.5890
 1764poe    c23 8203   3.959   0.487   7.129  0.3846  0.1435 -0.1027
 1764poe     o2 8204   4.040   0.590   7.180  0.3680  0.1623 -0.1147
 1764poe    c23 8205   3.969   0.676   7.267 -0.6940 -0.9033  0.0927
 1764poe    c23 8206   4.061   0.792   7.310 -0.7420 -0.7639 -0.1749
 1764poe     o2 8207   4.178   0.724   7.352 -0.2885 -0.1826 -0.4868
 1764poe    c31 8208   4.276   0.819   7.387 -0.0833 -0.5586 -0.0322
 1765poe    c31 8209   6.552   2.338   4.839 -0.4176  0.0645  0.8754
 1765poe     o2 8210   6.612   2.294   4.959  0.8361 -0.1234  0.1969
 1765poe    c23 8211   6.583   2.401   5.046  0.2919 -0.1214  0.0213
 1765poe    c23 8212   6.616   2.369   5.193 -0.1640  0.4223  0.2437
 1765poe     o2 8213   6.756   2.352   5.192 -0.1525  0.5063  0.3196
 1765poe    c23 8214   6.818   2.364   5.318  0.8734  0.3872 -0.1594
 1765poe    c23 8215   6.823   2.220   5.372 -0.5555  0.3287 -0.1246
 1765poe     o2 8216   6.903   2.140   5.288  0.0089  0.4647  0.2766
 1765poe    c23 8217   6.954   2.025   5.351 -0.5654 -0.1124 -0.2906
 1765poe    c23 8218   7.070   1.953   5.280 -0.6150 -1.0459  0.5539
 1765poe     o2 8219   7.040   1.906   5.151  0.0684 -0.2343  0.0928
 1765poe    c31 8220   7.164   1.862   5.099  0.4470 -0.1271  0.9018
 1766poe    c31 8221   6.440   3.187   1.763  0.0938 -0.1983  0.7760
 1766poe     o2 8222   6.336   3.270   1.808  0.1290  0.4401 -0.2592
 1766poe    c23 8223   6.291   3.244   1.940  0.3289 -0.4400 -0.3558
 1766poe    c23 8224   6.214   3.364   2.000  0.4236 -0.4693 -0.1766
 1766poe     o2 8225   6.099   3.379   1.920  0.6717  0.6551 -0.3397
 1766poe    c23 8226   6.039   3.501   1.957  0.2120  0.3025  0.0860
 1766poe    c23 8227   5.917   3.517   1.865  0.2354 -0.1614 -0.0320
 1766poe     o2 8228   5.944   3.491   1.729  0.0998  0.1482 -0.1201
 1766poe    c23 8229   5.818   3.472   1.669  0.2823 -0.1029 -0.4285
 1766poe    c23 8230   5.836   3.408   1.530 -0.8139  0.0493 -0.6482
 1766poe     o2 8231   5.876   3.275   1.549 -0.3030  0.1654 -0.8978
 1766poe    c31 8232   5.796   3.207   1.455  0.2976 -0.7780 -0.7492
 1767poe    c31 8233   4.306   5.905   2.150  0.3726 -0.0260 -0.1276
 1767poe     o2 8234   4.326   5.776   2.204  0.3690  0.0230 -0.0097
 1767poe    c23 8235   4.228   5.772   2.305 -0.4772 -0.0399 -0.8171
 1767poe    c23 8236   4.271   5.641   2.374 -0.2531  0.3495 -0.2072
 1767poe     o2 8237   4.299   5.536   2.284 -0.4663 -0.1078  0.2506
 1767poe    c23 8238   4.364   5.425   2.343 -0.6495 -0.1476  0.3770
 1767poe    c23 8239   4.405   5.322   2.236 -0.9528  0.4621 -0.3427
 1767poe     o2 8240   4.460   5.389   2.125 -0.0926  0.2012 -0.0886
 1767poe    c23 8241   4.489   5.305   2.016  0.2138  0.4418 -0.1921
 1767poe    c23 8242   4.570   5.364   1.898  0.9256  0.7843  0.4577
 1767poe     o2 8243   4.504   5.465   1.825 -0.1981 -0.1441  0.1574
 1767poe    c31 8244   4.587   5.560   1.764  0.6423 -0.4323  0.8331
 1768poe    c31 8245   3.003   6.820   2.467 -0.5145 -0.3557  0.3913
 1768poe     o2 8246   3.038   6.698   2.406 -0.2496 -0.4346  0.6956
 1768poe    c23 8247   3.053   6.587   2.492  1.1181  0.0592  1.1178
 1768poe    c23 8248   3.079   6.461   2.408  0.5065  0.9242 -0.4152
 1768poe     o2 8249   2.971   6.415   2.328  0.2878  0.8389 -0.0727
 1768poe    c23 8250   3.021   6.376   2.203 -0.0883 -0.0323  0.0454
 1768poe    c23 8251   2.940   6.296   2.099  0.0760 -0.2678  0.0961
 1768poe     o2 8252   2.920   6.163   2.140 -0.2020 -0.2125  0.1450
 1768poe    c23 8253   2.852   6.081   2.047  0.4139 -0.2748 -0.2534
 1768poe    c23 8254   2.834   5.943   2.113  0.4844 -0.0702  0.2008
 1768poe     o2 8255   2.780   5.961   2.242 -0.5808  0.2934 -0.2850
 1768poe    c31 8256   2.765   5.834   2.301 -0.1734  0.3616 -0.0382
 1769poe    c31 8257   2.230   3.645   1.364  0.4057 -0.2193 -0.5437
 1769poe     o2 8258   2.252   3.545   1.461 -0.6451  0.3188  0.2590
 1769poe    c23 8259   2.250   3.607   1.587  1.3060  1.1051 -0.0638
 1769poe    c23 8260   2.260   3.500   1.697 -0.1185  0.1758 -0.8101
 1769poe     o2 8261   2.149   3.413   1.695  0.0868 -0.1061 -0.1405
 1769poe    c23 8262   2.163   3.311   1.792 -0.1747  0.0466  0.0594
 1769poe    c23 8263   2.037   3.221   1.798  0.2367 -0.5323  0.1305
 1769poe     o2 8264   2.041   3.130   1.691  0.1799 -0.0852 -0.2556
 1769poe    c23 8265   1.933   3.039   1.681  0.1304 -0.1264  0.5992
 1769poe    c23 8266   1.959   2.921   1.586  0.2162  0.4774 -0.1318
 1769poe     o2 8267   1.952   2.960   1.450  0.3437 -0.0193 -0.2822
 1769poe    c31 8268   1.916   2.841   1.383  0.2186  0.1275 -0.4779
 1770poe    c31 8269   4.905   1.895   3.028  0.4943 -0.3642 -0.3594
 1770poe     o2 8270   4.995   1.990   3.080 -0.0490  0.0305 -0.1361
 1770poe    c23 8271   4.941   2.109   3.134  0.0546  0.0211 -0.0109
 1770poe    c23 8272   5.045   2.218   3.167  0.6761 -0.4876 -0.2624
 1770poe     o2 8273   5.108   2.233   3.042  0.5826  0.1622 -0.2336
 1770poe    c23 8274   5.239   2.273   3.075  0.4002 -0.4515  1.2926
 1770poe    c23 8275   5.329   2.211   2.965  0.3517  0.4024  0.7647
 1770poe     o2 8276   5.304   2.072   2.963  0.3280  0.4132  0.1678
 1770poe    c23 8277   5.410   1.999   2.905  0.0992 -0.0046  0.2735
 1770poe    c23 8278   5.349   1.858   2.901  0.0587  0.0301 -0.4131
 1770poe     o2 8279   5.249   1.852   3.001  0.3550  0.0875 -0.1110
 1770poe    c31 8280   5.231   1.727   3.063 -0.6078  0.2800  0.0004
 1771poe    c31 8281   4.498   3.880   3.539  0.7144 -0.1850 -0.7123
 1771poe     o2 8282   4.455   3.992   3.465 -0.1979 -0.2632 -0.3051
 1771poe    c23 8283   4.419   3.964   3.331  0.1050 -0.2661 -0.3868
 1771poe    c23 8284   4.381   4.095   3.259  0.2987 -0.3729 -0.6847
 1771poe     o2 8285   4.486   4.147   3.181  0.5676  0.1727  0.0332
 1771poe    c23 8286   4.487   4.288   3.196 -0.3468  0.1682  0.2346
 1771poe    c23 8287   4.610   4.335   3.117 -0.4782  0.2158  0.0572
 1771poe     o2 8288   4.729   4.288   3.176 -0.4059 -0.2910 -0.4783
 1771poe    c23 8289   4.777   4.360   3.288  0.5307 -0.2070 -0.9273
 1771poe    c23 8290   4.917   4.329   3.344  0.0804 -0.3937  0.1106
 1771poe     o2 8291   4.911   4.269   3.472 -0.4926  0.1289  0.3334
 1771poe    c31 8292   5.045   4.243   3.509 -0.2381  0.3021 -0.4491
 1772poe    c31 8293   1.810   5.874   5.024 -1.1403  0.2815  0.1004
 1772poe     o2 8294   1.796   5.832   5.158 -0.1084 -0.7026 -0.0780
 1772poe    c23 8295   1.663   5.862   5.195  0.0429  0.2762 -0.2969
 1772poe    c23 8296   1.594   5.761   5.289  0.3044  0.6084  0.2550
 1772poe     o2 8297   1.650   5.750   5.417  0.5663 -0.0033  0.0877
 1772poe    c23 8298   1.626   5.623   5.474  0.3247  0.0150  0.0284
 1772poe    c23 8299   1.672   5.625   5.621 -0.3884  0.1011  0.2542
 1772poe     o2 8300   1.789   5.699   5.648 -0.1650 -0.2224  0.1935
 1772poe    c23 8301   1.846   5.688   5.777  0.6845  0.1309 -0.1501
 1772poe    c23 8302   1.766   5.760   5.887  0.7594 -0.0597  0.0283
 1772poe     o2 8303   1.764   5.898   5.858  0.0189 -0.1667 -0.4678
 1772poe    c31 8304   1.690   5.975   5.950  0.3055 -0.2792 -0.1364
 1773poe    c31 8305   3.357   4.914   2.072 -0.2627 -0.4835  0.0368
 1773poe     o2 8306   3.343   4.838   1.954  0.4332  0.0632 -0.3983
 1773poe    c23 8307   3.396   4.708   1.964  0.0859 -0.0588 -0.1565
 1773poe    c23 8308   3.533   4.699   1.895  0.1050  0.1687 -0.1463
 1773poe     o2 8309   3.525   4.750   1.763 -0.2021  0.3507 -0.0571
 1773poe    c23 8310   3.650   4.775   1.703 -0.0475  0.2057  0.2035
 1773poe    c23 8311   3.646   4.814   1.554 -0.0649  0.3822  0.2506
 1773poe     o2 8312   3.547   4.910   1.526 -0.1728  0.1504 -0.1720
 1773poe    c23 8313   3.522   4.942   1.391  0.1850  0.1766 -0.2323
 1773poe    c23 8314   3.392   5.023   1.402  0.3852  0.4289  0.2898
 1773poe     o2 8315   3.271   4.954   1.427  0.1396  0.6206 -0.3420
 1773poe    c31 8316   3.237   4.875   1.316  0.2301  0.1874 -0.0644
 1774poe    c31 8317   2.301   6.301   5.021  0.0603 -0.5150 -0.5991
 1774poe     o2 8318   2.335   6.437   5.006 -0.1682 -0.3955 -0.0337
 1774poe    c23 8319   2.302   6.464   4.872 -0.6139 -0.3373  0.0838
 1774poe    c23 8320   2.252   6.608   4.851  0.3567 -0.0606 -0.4124
 1774poe     o2 8321   2.350   6.705   4.879 -0.0525  0.3794 -0.4906
 1774poe    c23 8322   2.297   6.835   4.860 -0.1657  0.3057 -0.6757
 1774poe    c23 8323   2.403   6.940   4.896  0.3293 -0.2898 -0.3714
 1774poe     o2 8324   2.452   6.880   5.013 -0.5082 -0.5606 -0.1545
 1774poe    c23 8325   2.489   6.974   5.111 -0.4234 -0.7570  0.0028
 1774poe    c23 8326   2.609   6.928   5.197  0.0835 -0.3400 -0.4755
 1774poe     o2 8327   2.722   6.931   5.113  0.5778 -0.5352  0.1785
 1774poe    c31 8328   2.839   6.870   5.163  0.5769 -0.2684  0.5084
 1775poe    c31 8329   6.434   6.264   4.722  0.6686 -0.2701  0.3100
 1775poe     o2 8330   6.364   6.322   4.829  0.1581 -0.1517 -0.0851
 1775poe    c23 8331   6.237   6.360   4.782 -0.0539 -0.0679  0.5381
 1775poe    c23 8332   6.181   6.479   4.862 -0.3492  0.4431 -0.4091
 1775poe     o2 8333   6.167   6.431   4.994  0.0085  0.5831 -0.3188
 1775poe    c23 8334   6.123   6.538   5.074 -0.0893  0.4483 -0.1934
 1775poe    c23 8335   6.084   6.480   5.211 -0.2128  0.0178 -0.4063
 1775poe     o2 8336   6.185   6.403   5.272  0.0074  0.2889 -0.4234
 1775poe    c23 8337   6.257   6.488   5.358  0.3242 -0.4247  0.0238
 1775poe    c23 8338   6.366   6.403   5.426 -0.0719 -0.3786  0.7340
 1775poe     o2 8339   6.407   6.325   5.316 -0.0074 -0.0257  0.5031
 1775poe    c31 8340   6.545   6.296   5.309 -0.0771 -0.2234 -0.1737
 1776poe    c31 8341   2.031   4.459   2.556  0.0222 -0.0415  0.1883
 1776poe     o2 8342   1.963   4.567   2.615  0.0688  0.1598 -0.1196
 1776poe    c23 8343   1.833   4.525   2.651 -0.1074  0.3009 -0.5869
 1776poe    c23 8344   1.743   4.639   2.703 -0.0638  0.2294 -0.3553
 1776poe     o2 8345   1.728   4.742   2.609 -0.2958  0.6061  0.0905
 1776poe    c23 8346   1.629   4.820   2.671 -0.6778  0.1214  0.0914
 1776poe    c23 8347   1.582   4.939   2.584 -0.7319  0.2299  0.2677
 1776poe     o2 8348   1.695   5.011   2.539 -0.5121 -0.5027 -0.3977
 1776poe    c23 8349   1.640   5.127   2.480 -0.0416  0.0542  0.2395
 1776poe    c23 8350   1.758   5.207   2.422  0.4096 -0.3567  0.5826
 1776poe     o2 8351   1.846   5.118   2.357  0.1825 -0.2669  0.1474
 1776poe    c31 8352   1.967   5.188   2.337 -0.0448  0.2087  0.4301
 1777poe    c31 8353   4.270   0.642   3.830  0.5145  0.2649  0.5341
 1777poe     o2 8354   4.137   0.681   3.806  0.3701 -0.6098 -0.1352
 1777poe    c23 8355   4.069   0.557   3.805  0.1799 -0.5056 -0.1519
 1777poe    c23 8356   3.917   0.569   3.783  0.2246  0.7673  0.1527
 1777poe     o2 8357   3.889   0.633   3.660  0.1577  0.1317 -0.1666
 1777poe    c23 8358   3.749   0.646   3.647  0.1721  0.3747 -0.0855
 1777poe    c23 8359   3.713   0.708   3.511  0.0569 -0.3040 -0.3683
 1777poe     o2 8360   3.793   0.819   3.478 -0.1009 -0.0484  0.1076
 1777poe    c23 8361   3.757   0.879   3.355 -0.0094 -0.1007  0.0554
 1777poe    c23 8362   3.883   0.921   3.278 -0.0148 -0.9872 -0.4445
 1777poe     o2 8363   3.963   0.988   3.372  0.0007 -0.9301 -0.4978
 1777poe    c31 8364   4.086   1.036   3.323 -0.2269  0.5485  0.3124
 1778poe    c31 8365   1.142   4.232   4.089  0.3533 -0.8516 -0.0963
 1778poe     o2 8366   1.281   4.207   4.096  0.4132 -0.5106 -0.0400
 1778poe    c23 8367   1.350   4.319   4.148 -0.9557  0.2483  0.1843
 1778poe    c23 8368   1.493   4.350   4.103 -0.8646 -0.0833  0.2438
 1778poe     o2 8369   1.596   4.274   4.164 -0.6999  0.5402  0.7465
 1778poe    c23 8370   1.720   4.341   4.159 -0.5463  0.2264  0.3286
 1778poe    c23 8371   1.823   4.270   4.248 -0.7225  0.1949  0.5095
 1778poe     o2 8372   1.807   4.133   4.221  0.0003  0.1295  0.3971
 1778poe    c23 8373   1.902   4.068   4.302 -0.0630  0.0729  0.4257
 1778poe    c23 8374   1.850   3.924   4.320  0.1296  0.0535  0.8527
 1778poe     o2 8375   1.734   3.902   4.397 -0.2022 -0.0996  0.3131
 1778poe    c31 8376   1.727   3.779   4.465  0.1350 -0.3725 -0.1433
 1779poe    c31 8377   0.278   6.027   0.670 -0.3352  0.2223 -0.0374
 1779poe     o2 8378   0.314   6.150   0.729  0.3463  0.0781 -0.1401
 1779poe    c23 8379   0.309   6.148   0.870  0.2934  0.4592 -0.1364
 1779poe    c23 8380   0.359   6.288   0.909 -0.1266  0.5008  0.2700
 1779poe     o2 8381   0.491   6.315   0.866  0.1045 -0.5698  0.2901
 1779poe    c23 8382   0.534   6.446   0.895  0.5068 -0.7098  0.3299
 1779poe    c23 8383   0.679   6.456   0.844  0.2980  0.1893 -0.1092
 1779poe     o2 8384   0.669   6.417   0.709 -0.1129 -1.0529  0.2644
 1779poe    c23 8385   0.774   6.472   0.632 -0.6698 -0.0640  0.1878
 1779poe    c23 8386   0.742   6.436   0.486  0.1403  0.5217 -0.1369
 1779poe     o2 8387   0.671   6.314   0.480 -0.1121  0.6780 -0.3244
 1779poe    c31 8388   0.712   6.220   0.384 -0.3396 -0.0603  0.2955
 1780poe    c31 8389   4.543   0.335   6.023 -0.9693  0.4548  0.4383
 1780poe     o2 8390   4.585   0.469   6.035 -0.3698  0.2387  0.8391
 1780poe    c23 8391   4.553   0.538   5.917  0.2654 -0.3082  0.3370
 1780poe    c23 8392   4.584   0.687   5.941  0.1217 -0.1133 -0.6654
 1780poe     o2 8393   4.710   0.680   6.003 -0.3170 -0.0532  0.2369
 1780poe    c23 8394   4.770   0.807   6.001  0.2528 -0.3238 -0.1367
 1780poe    c23 8395   4.920   0.775   5.999  0.2496 -0.3407 -0.1418
 1780poe     o2 8396   4.946   0.678   6.097  0.6378 -0.1759 -0.0792
 1780poe    c23 8397   5.069   0.705   6.160 -0.1081  0.1179  1.2770
 1780poe    c23 8398   5.119   0.620   6.279  0.1259 -0.9619  0.4158
 1780poe     o2 8399   5.006   0.604   6.362  0.0431 -0.1274  0.4774
 1780poe    c31 8400   5.065   0.546   6.476  0.5844 -0.2275  0.1485
 1781poe    c31 8401   4.127   2.995   6.431  0.3899  0.2185  0.1984
 1781poe     o2 8402   3.991   2.970   6.406  0.4082  0.2080  0.1078
 1781poe    c23 8403   3.923   3.093   6.418 -0.0057 -0.0259  0.1930
 1781poe    c23 8404   3.778   3.112   6.370 -0.0075  0.3994  0.3678
 1781poe     o2 8405   3.739   3.113   6.235 -0.0855 -0.1867  0.3832
 1781poe    c23 8406   3.647   3.218   6.212  0.0302 -0.1133  0.2508
 1781poe    c23 8407   3.610   3.231   6.063 -0.2444  0.1995  0.3454
 1781poe     o2 8408   3.583   3.104   6.009  0.0971  0.2255  0.1097
 1781poe    c23 8409   3.447   3.100   5.971  0.0489  0.2507  0.2807
 1781poe    c23 8410   3.411   2.990   5.870  0.4633 -0.0644  0.4760
 1781poe     o2 8411   3.482   3.014   5.751  0.4649 -0.8204  0.3200
 1781poe    c31 8412   3.442   2.923   5.651 -0.1979  0.2684 -0.4188
 1782poe    c31 8413   3.719   3.528   2.966  0.5402  0.6566 -0.0840
 1782poe     o2 8414   3.735   3.584   2.838  0.3224 -0.4654 -0.6125
 1782poe    c23 8415   3.707   3.723   2.838  0.8182 -0.3629  0.2121
 1782poe    c23 8416   3.775   3.813   2.734  0.3815 -0.0655  0.1830
 1782poe     o2 8417   3.733   3.768   2.607 -0.0800 -0.1235  0.3521
 1782poe    c23 8418   3.848   3.788   2.528 -0.3792 -0.0145 -0.0594
 1782poe    c23 8419   3.794   3.768   2.385  0.2845 -0.1781 -0.2914
 1782poe     o2 8420   3.765   3.631   2.367  0.4836 -0.2476 -0.0913
 1782poe    c23 8421   3.714   3.613   2.237  0.6194 -0.4659 -0.1135
 1782poe    c23 8422   3.637   3.479   2.243 -0.3785  0.1139  0.2018
 1782poe     o2 8423   3.552   3.472   2.355 -0.9833  0.1173 -0.2532
 1782poe    c31 8424   3.494   3.343   2.365  0.5304 -0.5481  0.2419
 1783poe    c31 8425   3.687   0.576   2.586  0.2894  0.1675 -0.2896
 1783poe     o2 8426   3.759   0.695   2.564  0.0624  0.3752  0.0673
 1783poe    c23 8427   3.693   0.811   2.609 -0.1064  0.2216  0.2163
 1783poe    c23 8428   3.796   0.922   2.580 -0.3106  0.3609  0.0172
 1783poe     o2 8429   3.848   0.914   2.450  0.1664 -0.0985  0.2315
 1783poe    c23 8430   3.930   1.025   2.420 -0.3374  0.2605  0.1696
 1783poe    c23 8431   4.023   0.994   2.302 -0.7037  0.6560 -0.2251
 1783poe     o2 8432   4.047   0.857   2.324  0.3290  0.8802  0.1013
 1783poe    c23 8433   4.149   0.807   2.241 -0.1928  0.4546 -0.2842
 1783poe    c23 8434   4.271   0.757   2.320 -0.6607  0.1742  0.2669
 1783poe     o2 8435   4.230   0.644   2.394  0.1777 -0.4805 -0.2619
 1783poe    c31 8436   4.327   0.606   2.489 -0.2922  0.2275  0.5136
 1784poe    c31 8437   3.192   1.190   5.783  0.1293  0.3921  0.2015
 1784poe     o2 8438   3.065   1.214   5.727 -0.0752  0.0067  0.4974
 1784poe    c23 8439   3.086   1.267   5.598 -0.0116 -0.1157  0.4581
 1784poe    c23 8440   2.983   1.370   5.548 -0.1236 -0.1276  0.6649
 1784poe     o2 8441   2.852   1.329   5.515 -0.1475  0.0106  0.5854
 1784poe    c23 8442   2.764   1.435   5.487  0.5613  0.5720  0.4569
 1784poe    c23 8443   2.716   1.510   5.613 -0.0242  0.3911  0.3420
 1784poe     o2 8444   2.671   1.411   5.703  0.5917 -0.3023 -0.0959
 1784poe    c23 8445   2.740   1.429   5.825  0.0951  0.4438  0.0833
 1784poe    c23 8446   2.696   1.331   5.936 -0.2272 -0.0254 -0.4521
 1784poe     o2 8447   2.741   1.198   5.927  0.0802  0.0874 -0.5953
 1784poe    c31 8448   2.686   1.134   6.040  0.2464  0.8122 -0.0935
 1785poe    c31 8449   5.642   5.365   5.208 -0.1264  0.0302 -0.2964
 1785poe     o2 8450   5.755   5.281   5.195  0.1720  0.1587  1.3087
 1785poe    c23 8451   5.867   5.367   5.197  0.2034  0.1326  0.6893
 1785poe    c23 8452   5.997   5.284   5.199  0.2639  0.2206  0.4011
 1785poe     o2 8453   5.990   5.159   5.134  0.4875  0.2590  0.3035
 1785poe    c23 8454   6.114   5.094   5.118  0.5341  0.4652 -0.1924
 1785poe    c23 8455   6.080   4.951   5.072 -0.2109  0.7340 -0.4868
 1785poe     o2 8456   5.973   4.905   5.152 -0.0810 -0.0629 -0.7621
 1785poe    c23 8457   6.012   4.798   5.234  0.2096  0.4980 -0.1565
 1785poe    c23 8458   5.884   4.716   5.256  0.3490  0.4111  0.3527
 1785poe     o2 8459   5.775   4.774   5.324 -0.1447 -0.3941  0.2621
 1785poe    c31 8460   5.657   4.697   5.334 -0.5892  0.1252 -0.8299
 1786poe    c31 8461   3.040   4.226   0.042  0.3648  0.3232  0.4499
 1786poe     o2 8462   2.965   4.245  -0.075  0.4072 -0.1540  0.3421
 1786poe    c23 8463   2.966   4.135  -0.164  0.5964  0.1248 -0.0048
 1786poe    c23 8464   2.849   4.132  -0.265  0.0496 -0.0857  0.6290
 1786poe     o2 8465   2.826   4.250  -0.338  0.1326 -0.3657  0.1468
 1786poe    c23 8466   2.707   4.235  -0.412  0.2496 -0.0550 -0.1084
 1786poe    c23 8467   2.711   4.343  -0.521  0.4410  0.2122  0.1626
 1786poe     o2 8468   2.730   4.458  -0.441 -0.5678  0.2786  0.3240
 1786poe    c23 8469   2.659   4.569  -0.493 -0.5589  0.0463 -0.1961
 1786poe    c23 8470   2.720   4.699  -0.438 -0.5469  0.0097 -0.1221
 1786poe     o2 8471   2.741   4.673  -0.301 -0.5681 -0.0765 -0.1357
 1786poe    c31 8472   2.803   4.778  -0.231 -0.8486 -0.0457  0.0684
 1787poe    c31 8473   0.868   1.788   1.955 -0.2081 -0.3539 -0.4804
 1787poe     o2 8474   1.000   1.752   1.991 -0.3458 -0.0398  0.3521
 1787poe    c23 8475   1.005   1.685   2.115  0.3090 -0.3859  0.1436
 1787poe    c23 8476   1.138   1.699   2.192 -0.0393  0.9690  0.5387
 1787poe     o2 8477   1.245   1.668   2.107 -0.6724 -0.8215  0.3352
 1787poe    c23 8478   1.347   1.618   2.190 -0.0153  0.3757  0.2722
 1787poe    c23 8479   1.479   1.564   2.132 -0.3523 -0.0019 -0.1457
 1787poe     o2 8480   1.477   1.442   2.060 -0.5542 -0.0065 -0.1337
 1787poe    c23 8481   1.602   1.414   2.001 -0.5859 -0.7102  0.1298
 1787poe    c23 8482   1.583   1.284   1.919  0.4960 -0.8820  0.1323
 1787poe     o2 8483   1.479   1.288   1.824  0.4235 -0.2289  0.2281
 1787poe    c31 8484   1.536   1.295   1.695 -0.1110 -0.0780 -0.0001
 1788poe    c31 8485   6.144   3.083   3.047 -0.3314 -1.1283  0.4637
 1788poe     o2 8486   6.272   3.088   3.106  0.0041  0.1522 -0.3353
 1788poe    c23 8487   6.348   3.204   3.080  0.2499  0.1232  0.2309
 1788poe    c23 8488   6.319   3.336   3.155 -0.4665 -0.1343  0.4134
 1788poe     o2 8489   6.372   3.341   3.286  0.5950 -0.1767 -0.0013
 1788poe    c23 8490   6.454   3.451   3.319 -0.5206  0.5087  0.5542
 1788poe    c23 8491   6.517   3.443   3.459  0.2518 -0.0477  0.1773
 1788poe     o2 8492   6.412   3.455   3.552  0.0797  0.4201 -0.0727
 1788poe    c23 8493   6.446   3.517   3.674  0.6106  0.0122 -0.0072
 1788poe    c23 8494   6.386   3.658   3.693 -0.2372 -0.2599 -0.5940
 1788poe     o2 8495   6.446   3.747   3.602 -0.0036  0.2641  0.0660
 1788poe    c31 8496   6.515   3.853   3.664  0.8219 -0.2750  0.0881
 1789poe    c31 8497   0.737   4.904   7.079  0.2537  0.1674  0.6419
 1789poe     o2 8498   0.646   4.986   7.009  0.2793  0.1040  0.5327
 1789poe    c23 8499   0.560   4.924   6.917  0.5299  0.1951  0.2364
 1789poe    c23 8500   0.480   5.034   6.845  0.2371 -0.0638  0.1615
 1789poe     o2 8501   0.397   5.134   6.900 -0.8470 -0.7353 -0.2067
 1789poe    c23 8502   0.375   5.245   6.816 -0.7042 -0.4419  0.1405
 1789poe    c23 8503   0.267   5.341   6.871 -0.6464 -0.3113  0.0246
 1789poe     o2 8504   0.281   5.350   7.011 -0.5123 -0.1282  0.0004
 1789poe    c23 8505   0.167   5.401   7.076 -0.0844  0.3735  0.3622
 1789poe    c23 8506   0.191   5.389   7.228  0.6972 -0.3525  0.1929
 1789poe     o2 8507   0.214   5.256   7.267 -0.4045 -0.5709  0.1290
 1789poe    c31 8508   0.220   5.247   7.408 -0.5689  0.9312  0.2460
 1790poe    c31 8509   4.326   0.279   5.607  0.2263 -0.2221 -0.3102
 1790poe     o2 8510   4.218   0.260   5.519 -0.0399  0.0563 -0.0445
 1790poe    c23 8511   4.190   0.124   5.494  0.1986  0.0180 -0.1057
 1790poe    c23 8512   4.084   0.098   5.385 -0.0703  0.6625 -0.0003
 1790poe     o2 8513   3.951   0.135   5.412 -0.3598 -0.4099  0.0495
 1790poe    c23 8514   3.861   0.068   5.326 -0.6461  0.5528 -0.4072
 1790poe    c23 8515   3.716   0.113   5.356 -0.7659  0.0828 -0.2704
 1790poe     o2 8516   3.723   0.254   5.354  0.1550  0.0696  0.8101
 1790poe    c23 8517   3.595   0.311   5.370 -0.0286 -0.1534  0.1952
 1790poe    c23 8518   3.612   0.454   5.315 -0.1967 -0.3933 -0.4893
 1790poe     o2 8519   3.736   0.505   5.361 -0.4594 -0.2220  0.0347
 1790poe    c31 8520   3.744   0.644   5.343 -0.4657 -0.2747 -0.3851
 1791poe    c31 8521   4.539   6.198   4.772  0.1317 -0.6592 -0.5388
 1791poe     o2 8522   4.500   6.070   4.817 -0.3094 -0.1448  0.5904
 1791poe    c23 8523   4.373   6.027   4.771  0.2448 -0.9544 -0.2137
 1791poe    c23 8524   4.375   5.874   4.751  0.3363 -0.9638 -0.1375
 1791poe     o2 8525   4.432   5.835   4.874 -0.0602 -0.1382  0.3203
 1791poe    c23 8526   4.425   5.696   4.892 -0.3785 -0.1721 -0.0590
 1791poe    c23 8527   4.464   5.662   5.037 -0.1180 -0.0147 -0.0908
 1791poe     o2 8528   4.588   5.722   5.062 -0.3497  0.2106  0.5223
 1791poe    c23 8529   4.674   5.682   5.167 -0.1333 -0.1060  0.2244
 1791poe    c23 8530   4.646   5.741   5.306 -0.0340  0.2695  0.0886
 1791poe     o2 8531   4.642   5.881   5.310 -0.0907  0.2584  0.4644
 1791poe    c31 8532   4.574   5.929   5.424  0.4713  0.6185  0.6554
 1792poe    c31 8533   2.017   4.171   2.151  0.3081  0.6163  0.4275
 1792poe     o2 8534   1.976   4.297   2.102 -0.3163 -0.1632 -1.1442
 1792poe    c23 8535   1.846   4.334   2.144  0.1366 -0.0056  0.1809
 1792poe    c23 8536   1.730   4.283   2.056  0.4413 -0.1250 -0.1561
 1792poe     o2 8537   1.739   4.348   1.931 -0.2194  0.2577 -0.0065
 1792poe    c23 8538   1.620   4.326   1.860 -0.1112 -0.1959 -0.0518
 1792poe    c23 8539   1.616   4.451   1.769  0.2715  0.2108  0.4863
 1792poe     o2 8540   1.688   4.429   1.651 -0.1387 -0.0290  0.2779
 1792poe    c23 8541   1.706   4.549   1.579 -0.2488 -0.3938 -0.3694
 1792poe    c23 8542   1.753   4.540   1.433  0.0476  0.0219 -0.3001
 1792poe     o2 8543   1.893   4.521   1.424  0.1068  0.5954 -0.6764
 1792poe    c31 8544   1.929   4.514   1.288 -0.2476  0.2673 -0.7553
 1793poe    c31 8545   6.498   3.921   3.169 -0.7586  0.2406  0.2146
 1793poe     o2 8546   6.376   3.850   3.181 -0.6353  0.0444  0.3067
 1793poe    c23 8547   6.372   3.732   3.104  0.5556  0.2904 -0.1555
 1793poe    c23 8548   6.232   3.678   3.140  0.5605 -0.1551 -0.7787
 1793poe     o2 8549   6.154   3.796   3.140  0.5035 -0.1892 -0.2360
 1793poe    c23 8550   6.022   3.760   3.106  0.4764 -0.0313 -0.2970
 1793poe    c23 8551   5.936   3.886   3.125  0.0643 -0.3896  0.2470
 1793poe     o2 8552   6.022   3.994   3.095 -0.0702 -0.3730 -0.0852
 1793poe    c23 8553   5.960   4.108   3.040 -0.1715 -0.2210  0.3427
 1793poe    c23 8554   6.056   4.222   3.077 -0.1939 -0.1334  0.1314
 1793poe     o2 8555   6.156   4.225   2.978 -0.2032 -0.0801  0.1238
 1793poe    c31 8556   6.235   4.342   2.984 -0.8356  0.3479  0.1396
 1794poe    c31 8557   2.777   0.734   4.478  0.5302  0.5106 -0.8131
 1794poe     o2 8558   2.867   0.775   4.579  0.0454  0.1471 -0.2268
 1794poe    c23 8559   2.917   0.899   4.533  0.1728  0.2185  0.1028
 1794poe    c23 8560   3.024   0.956   4.628  0.6145  0.0242 -0.2751
 1794poe     o2 8561   3.127   0.860   4.633 -0.2268 -0.8617  0.4825
 1794poe    c23 8562   3.231   0.895   4.721  0.2113 -0.1561 -0.3106
 1794poe    c23 8563   3.340   0.788   4.736  0.4371  0.1476  0.2400
 1794poe     o2 8564   3.293   0.681   4.815  0.2699 -0.1135 -0.2090
 1794poe    c23 8565   3.392   0.583   4.838  0.0542 -0.2331  0.2080
 1794poe    c23 8566   3.391   0.510   4.974  0.0709 -0.2200  0.2149
 1794poe     o2 8567   3.298   0.405   4.990  0.3457 -0.3691  0.8648
 1794poe    c31 8568   3.284   0.374   5.127  0.4377 -0.0509  0.9482
 1795poe    c31 8569   7.026   4.053   0.332 -0.5869  0.0427 -0.2569
 1795poe     o2 8570   7.138   4.071   0.248 -0.0449 -0.1915  0.4038
 1795poe    c23 8571   7.239   4.146   0.311 -0.1508  0.2257  0.0883
 1795poe    c23 8572   7.352   4.104   0.215 -0.2329 -0.0640  0.1166
 1795poe     o2 8573   7.300   4.135   0.088  0.7418  0.0946 -0.2564
 1795poe    c23 8574   7.392   4.081  -0.004  0.6629  0.2558 -0.4299
 1795poe    c23 8575   7.328   4.110  -0.141  0.2314 -0.2278 -0.3331
 1795poe     o2 8576   7.204   4.043  -0.152  0.1462 -0.1687  0.2354
 1795poe    c23 8577   7.163   4.048  -0.287 -0.5271  0.0866  0.4468
 1795poe    c23 8578   7.030   3.970  -0.300 -0.2990 -0.2458  0.0638
 1795poe     o2 8579   6.918   4.038  -0.247 -0.1216 -0.1135  0.2713
 1795poe    c31 8580   6.799   3.994  -0.308 -0.0317 -0.7408  0.5414
 1796poe    c31 8581   4.464   0.879   0.967 -0.0015  0.4695  0.4747
 1796poe     o2 8582   4.381   0.845   1.076 -0.1365 -0.3956  0.1043
 1796poe    c23 8583   4.383   0.705   1.093  0.6194 -0.3198  0.6847
 1796poe    c23 8584   4.273   0.658   1.190 -0.3237  0.2459 -0.0944
 1796poe     o2 8585   4.303   0.688   1.324 -0.2747  0.2695 -0.1108
 1796poe    c23 8586   4.193   0.704   1.412 -0.2790  0.5223 -0.1611
 1796poe    c23 8587   4.245   0.680   1.555 -0.2964  0.1547 -0.2150
 1796poe     o2 8588   4.301   0.551   1.564 -0.2910  0.1983  0.3737
 1796poe    c23 8589   4.327   0.523   1.700 -0.5433 -0.1759  0.3470
 1796poe    c23 8590   4.414   0.397   1.716 -0.2152  0.0091  0.0380
 1796poe     o2 8591   4.536   0.407   1.646 -0.3180 -0.3657 -0.1977
 1796poe    c31 8592   4.639   0.328   1.700 -0.8677 -0.4279  0.7890
 1797poe    c31 8593   1.016   5.285   5.093  0.1192  0.2480  0.8652
 1797poe     o2 8594   1.061   5.377   5.190  0.1916  0.6116  0.4902
 1797poe    c23 8595   1.168   5.328   5.268  0.5189 -0.0154 -0.3404
 1797poe    c23 8596   1.233   5.447   5.341 -0.1285  0.1313 -0.0047
 1797poe     o2 8597   1.140   5.498   5.434 -0.2743 -0.4904  0.1938
 1797poe    c23 8598   1.198   5.606   5.503  0.0555 -0.7884  0.3866
 1797poe    c23 8599   1.106   5.657   5.616  0.0444 -0.3273  0.1706
 1797poe     o2 8600   0.972   5.660   5.570  0.2028 -0.1308 -0.2861
 1797poe    c23 8601   0.888   5.666   5.683  0.3284 -0.2685 -0.1838
 1797poe    c23 8602   0.740   5.648   5.644  0.1421  0.1187  0.3450
 1797poe     o2 8603   0.677   5.774   5.628 -0.8375 -0.5030 -0.7995
 1797poe    c31 8604   0.680   5.821   5.495 -0.2545  0.3799 -0.4767
 1798poe    c31 8605   4.784   5.174   2.853 -0.1428  0.3693  0.0621
 1798poe     o2 8606   4.876   5.076   2.813 -0.3106  0.3396 -0.2516
 1798poe    c23 8607   4.945   5.126   2.701  0.4024  0.9755  0.4550
 1798poe    c23 8608   4.982   5.011   2.605 -0.5452  0.5083  0.6402
 1798poe     o2 8609   5.030   4.897   2.673  1.1164  0.7507 -0.0952
 1798poe    c23 8610   5.059   4.798   2.577 -0.4625 -0.1321  0.3193
 1798poe    c23 8611   5.114   4.667   2.638 -0.2576 -0.3163 -0.2501
 1798poe     o2 8612   5.223   4.682   2.726 -0.2263 -0.1158 -0.3215
 1798poe    c23 8613   5.216   4.572   2.815 -0.0098  0.4855  0.4498
 1798poe    c23 8614   5.294   4.586   2.947  0.0788 -0.6980  0.5279
 1798poe     o2 8615   5.250   4.686   3.036  0.0126 -0.3020  0.0515
 1798poe    c31 8616   5.349   4.785   3.049  0.0337 -0.2776 -0.2641
 1799poe    c31 8617   7.021   0.008   1.927  0.6275  0.8126  0.0928
 1799poe     o2 8618   6.894   0.034   1.872  0.6720  0.1262 -0.3463
 1799poe    c23 8619   6.898   0.166   1.823 -0.2371  0.1622 -0.3379
 1799poe    c23 8620   6.759   0.192   1.761 -0.5635 -0.7076  0.0118
 1799poe     o2 8621   6.758   0.312   1.687 -0.3532 -0.3735  0.5481
 1799poe    c23 8622   6.655   0.320   1.591 -0.0638 -0.0947  0.2623
 1799poe    c23 8623   6.675   0.442   1.499  0.5689 -0.2873  0.1390
 1799poe     o2 8624   6.658   0.571   1.554 -0.1635 -0.2834 -0.0900
 1799poe    c23 8625   6.672   0.666   1.451  0.0248 -0.2965 -0.0763
 1799poe    c23 8626   6.612   0.801   1.492  0.2697 -0.2934  0.2717
 1799poe     o2 8627   6.666   0.828   1.620 -0.0568  0.2066  0.3090
 1799poe    c31 8628   6.682   0.968   1.632  0.1863  0.2404 -0.3333
 1800poe    c31 8629   6.431   4.518   5.982  0.3566 -0.3341 -0.1799
 1800poe     o2 8630   6.564   4.515   5.935  0.4488  0.0064  0.0625
 1800poe    c23 8631   6.612   4.609   5.842  0.6438 -0.2562 -0.1036
 1800poe    c23 8632   6.654   4.742   5.908 -0.6322 -0.0932  0.4055
 1800poe     o2 8633   6.755   4.737   6.006 -0.0959 -0.1989 -0.1451
 1800poe    c23 8634   6.825   4.859   6.009 -0.1395 -0.1816  0.2756
 1800poe    c23 8635   6.870   4.885   6.154  0.7600  0.2502 -0.0669
 1800poe     o2 8636   6.923   4.763   6.201 -0.2517 -0.1035  0.1954
 1800poe    c23 8637   6.990   4.766   6.325  0.4545 -0.1140 -0.1797
 1800poe    c23 8638   7.064   4.631   6.322  0.5048 -0.0913  0.0153
 1800poe     o2 8639   6.967   4.533   6.296 -0.0193  0.3226  0.3963
 1800poe    c31 8640   7.030   4.408   6.313 -0.2678  0.1741  0.2351
 1801poe    c31 8641   6.024   0.017   4.705 -0.3037  0.0539  0.0393
 1801poe     o2 8642   6.061   0.124   4.621  0.3938 -0.3924 -0.2312
 1801poe    c23 8643   5.967   0.127   4.515  0.0564  0.0921  0.0741
 1801poe    c23 8644   6.002   0.238   4.415 -0.0058  0.2395  0.2163
 1801poe     o2 8645   6.032   0.354   4.490  0.4023  0.0516  0.3424
 1801poe    c23 8646   5.981   0.467   4.424 -0.1118 -0.3270  0.0832
 1801poe    c23 8647   6.037   0.600   4.477 -0.8597  0.1859 -0.3920
 1801poe     o2 8648   6.037   0.581   4.617  0.3325 -0.0885 -0.4161
 1801poe    c23 8649   6.010   0.702   4.685  0.2373 -0.1983 -0.2558
 1801poe    c23 8650   6.081   0.684   4.820  0.2504 -0.0901 -0.2490
 1801poe     o2 8651   6.053   0.551   4.857  0.1422  0.0192  0.0629
 1801poe    c31 8652   6.091   0.531   4.992  0.3079 -0.2503 -0.0250
 1802poe    c31 8653   4.177   4.036   3.695  0.8781 -0.4878 -0.0633
 1802poe     o2 8654   4.251   3.963   3.791  0.6564 -0.3531  0.2108
 1802poe    c23 8655   4.206   4.007   3.917  0.1338  0.1628 -0.1497
 1802poe    c23 8656   4.308   3.973   4.027 -0.0746 -0.1014 -0.0366
 1802poe     o2 8657   4.420   4.058   4.023  0.3006 -0.5914 -0.2053
 1802poe    c23 8658   4.514   3.998   4.109  0.0993 -0.3566  0.1836
 1802poe    c23 8659   4.660   4.017   4.063  0.0132  0.0747  0.0804
 1802poe     o2 8660   4.699   4.150   4.041 -0.4040  0.1818 -0.0202
 1802poe    c23 8661   4.817   4.193   4.105 -0.2338 -0.3433  0.0264
 1802poe    c23 8662   4.840   4.341   4.066  0.1128 -0.2514  0.5563
 1802poe     o2 8663   4.808   4.352   3.929  0.1746 -0.1389  0.5513
 1802poe    c31 8664   4.844   4.472   3.864  0.3208 -0.8424 -0.7002
 1803poe    c31 8665   2.618   1.598   6.173  0.8358 -0.5122  0.2423
 1803poe     o2 8666   2.684   1.715   6.217  0.2048  0.0132 -0.1782
 1803poe    c23 8667   2.613   1.797   6.307 -0.1356  0.0189 -0.4530
 1803poe    c23 8668   2.661   1.942   6.327  1.0651 -0.4158 -0.1106
 1803poe     o2 8669   2.747   1.967   6.436  0.6230  0.1802  0.1039
 1803poe    c23 8670   2.815   2.089   6.418 -0.7689  1.0129  0.3491
 1803poe    c23 8671   2.899   2.127   6.541 -0.2399  0.2303  0.2348
 1803poe     o2 8672   2.994   2.042   6.601  0.0971  0.8704  0.6137
 1803poe    c23 8673   3.081   2.098   6.698 -0.3222  0.4426  1.2414
 1803poe    c23 8674   3.225   2.050   6.675 -0.7020 -0.2463  0.1624
 1803poe     o2 8675   3.288   2.077   6.552 -0.5555  0.1487  0.3195
 1803poe    c31 8676   3.369   2.192   6.543  0.4127 -0.5496 -0.1473
 1804poe    c31 8677   2.399   5.784   5.682  0.2510 -0.2282  0.8376
 1804poe     o2 8678   2.423   5.884   5.778  0.2917  0.1598  0.4277
 1804poe    c23 8679   2.389   6.014   5.734 -0.4933 -0.1179  0.1973
 1804poe    c23 8680   2.434   6.130   5.824 -0.0941  0.2152 -0.4249
 1804poe     o2 8681   2.372   6.123   5.950  0.3057  0.3347 -0.2189
 1804poe    c23 8682   2.441   6.200   6.046  0.7809  0.0017 -0.2939
 1804poe    c23 8683   2.375   6.202   6.185  0.8008 -0.0382 -0.2834
 1804poe     o2 8684   2.398   6.071   6.233  0.4364 -0.0378 -0.1000
 1804poe    c23 8685   2.445   6.083   6.365  0.1768  0.1138 -0.0204
 1804poe    c23 8686   2.422   5.954   6.445  0.0408  0.2196  0.1125
 1804poe     o2 8687   2.302   5.879   6.447  0.3226 -0.2278  0.5456
 1804poe    c31 8688   2.177   5.932   6.482  0.0797 -0.2648 -0.2291
 1805poe    c31 8689   2.683   6.720   3.609 -0.4968 -0.2069 -0.5355
 1805poe     o2 8690   2.720   6.840   3.675 -0.3717 -0.5071 -0.0571
 1805poe    c23 8691   2.604   6.920   3.682 -0.1047 -0.1004 -0.3131
 1805poe    c23 8692   2.616   7.056   3.753 -0.1739  0.2436 -0.9542
 1805poe     o2 8693   2.653   7.040   3.888  0.4783 -0.5406 -1.2183
 1805poe    c23 8694   2.650   7.155   3.970 -1.2414 -0.8405 -0.8307
 1805poe    c23 8695   2.658   7.102   4.115 -0.3548  0.3235 -0.4382
 1805poe     o2 8696   2.530   7.078   4.170  0.0356  0.2162  0.4317
 1805poe    c23 8697   2.543   6.997   4.285 -0.3738  0.3526  0.5751
 1805poe    c23 8698   2.414   7.015   4.367 -1.0137 -0.5073 -0.2190
 1805poe     o2 8699   2.306   7.034   4.278 -0.6250  0.2799 -0.5377
 1805poe    c31 8700   2.180   6.993   4.329 -0.4434 -0.0588 -0.3545
 1806poe    c31 8701   2.859   6.340   4.945 -1.0865 -0.0303 -0.1627
 1806poe     o2 8702   2.861   6.201   4.919 -0.1924 -0.1531  0.5193
 1806poe    c23 8703   2.985   6.185   4.855 -0.3533 -0.1734  0.2118
 1806poe    c23 8704   3.000   6.122   4.715  0.2364 -0.4780  0.4085
 1806poe     o2 8705   2.985   5.984   4.734 -0.3489 -0.4381  0.2464
 1806poe    c23 8706   2.958   5.900   4.624  0.4888 -0.3415 -0.0362
 1806poe    c23 8707   2.912   5.757   4.657  0.4628 -0.2334  0.4065
 1806poe     o2 8708   2.797   5.735   4.736  0.1034 -0.1854 -0.0951
 1806poe    c23 8709   2.771   5.598   4.754  0.4055 -0.2583 -0.2068
 1806poe    c23 8710   2.666   5.577   4.865  0.5489 -0.4195 -0.1014
 1806poe     o2 8711   2.699   5.627   4.993  0.1062  0.5570 -0.3649
 1806poe    c31 8712   2.592   5.595   5.079  0.1399  0.0139 -0.5217
 1807poe    c31 8713   1.325   6.493   3.470  0.5970  0.0097 -0.8339
 1807poe     o2 8714   1.314   6.508   3.330 -0.3167  0.2430 -0.7385
 1807poe    c23 8715   1.388   6.624   3.302  0.5103 -0.1154 -0.0796
 1807poe    c23 8716   1.411   6.629   3.150  0.4522 -0.3303 -0.0955
 1807poe     o2 8717   1.285   6.656   3.093  0.3683  0.5339  0.4781
 1807poe    c23 8718   1.286   6.678   2.954 -0.1172 -0.0712  0.3705
 1807poe    c23 8719   1.144   6.652   2.902  0.0749 -0.3364 -0.0287
 1807poe     o2 8720   1.057   6.726   2.985 -0.3077 -0.2064 -0.5381
 1807poe    c23 8721   0.925   6.723   2.936 -0.4662  0.0767 -0.1321
 1807poe    c23 8722   0.840   6.772   3.055 -0.3850  0.0667 -0.0698
 1807poe     o2 8723   0.907   6.726   3.170 -0.4908 -0.2091 -0.1172
 1807poe    c31 8724   0.835   6.761   3.286  0.2809  0.0139  0.3046
 1808poe    c31 8725   6.046   1.957   6.350  0.6273 -0.1091 -0.0561
 1808poe     o2 8726   6.068   1.975   6.212 -0.2605 -0.6679 -0.2752
 1808poe    c23 8727   6.185   1.909   6.170  0.3005  0.3315 -0.3208
 1808poe    c23 8728   6.217   1.949   6.025  0.0018  0.7295 -0.2779
 1808poe     o2 8729   6.096   1.979   5.958 -0.3081  0.5968  0.2154
 1808poe    c23 8730   6.110   2.030   5.827 -0.3550 -0.0109 -0.0288
 1808poe    c23 8731   5.968   2.072   5.783 -0.3714 -0.3920 -0.3444
 1808poe     o2 8732   5.918   2.128   5.902  0.3143 -0.3654 -0.0650
 1808poe    c23 8733   5.779   2.141   5.884  0.4420  0.9306 -0.1752
 1808poe    c23 8734   5.736   2.222   6.009  0.0106  0.0613  0.2451
 1808poe     o2 8735   5.797   2.162   6.120 -0.0398 -0.0726  0.2019
 1808poe    c31 8736   5.741   2.195   6.245 -0.5620 -0.3406  0.0410
 1809poe    c31 8737   2.506   6.430   2.205  0.1194 -0.3832  0.2813
 1809poe     o2 8738   2.412   6.341   2.148 -0.0093 -0.4180  0.5440
 1809poe    c23 8739   2.308   6.426   2.105 -0.1014 -0.4375  0.7303
 1809poe    c23 8740   2.193   6.343   2.045  0.0522 -0.0972 -0.0369
 1809poe     o2 8741   2.211   6.294   1.914  0.1674  0.4293 -0.2237
 1809poe    c23 8742   2.088   6.234   1.881  0.3393  0.2589 -0.5594
 1809poe    c23 8743   2.068   6.199   1.732 -0.1649 -0.5659 -0.3085
 1809poe     o2 8744   2.153   6.094   1.693  0.2799 -0.2739 -0.1355
 1809poe    c23 8745   2.121   5.966   1.744 -0.3419  0.1842  0.6520
 1809poe    c23 8746   2.240   5.872   1.718 -0.5181  0.1903 -0.2136
 1809poe     o2 8747   2.252   5.855   1.579 -0.1672 -0.3766 -0.1180
 1809poe    c31 8748   2.377   5.795   1.551  0.0990  0.0189  0.2237
 1810poe    c31 8749   3.916   5.000   0.908 -0.3970  0.3306  0.0626
 1810poe     o2 8750   3.839   4.882   0.921 -0.2930  0.2437 -0.0996
 1810poe    c23 8751   3.724   4.911   0.998 -0.2367 -0.0330  0.0893
 1810poe    c23 8752   3.641   4.782   1.013  0.1703 -0.2830  0.2296
 1810poe     o2 8753   3.686   4.689   1.108 -0.1751 -0.2457  0.4318
 1810poe    c23 8754   3.605   4.573   1.100 -0.4592 -0.0028 -0.3128
 1810poe    c23 8755   3.654   4.483   1.215 -0.0213  0.5726 -0.0424
 1810poe     o2 8756   3.789   4.445   1.200 -0.2663 -0.0513 -0.7075
 1810poe    c23 8757   3.828   4.338   1.283  0.0046  0.4083 -0.2323
 1810poe    c23 8758   3.974   4.303   1.250 -0.1546 -0.0068 -0.5057
 1810poe     o2 8759   4.052   4.418   1.228  0.4607 -0.4417 -0.6379
 1810poe    c31 8760   4.191   4.391   1.222  0.4699 -0.6690  0.4352
 1811poe    c31 8761   4.039   6.128   6.477  0.0596  0.2814  0.4405
 1811poe     o2 8762   4.036   5.995   6.428 -0.1317  0.3579  0.2434
 1811poe    c23 8763   3.985   5.906   6.524  0.9420 -0.4619  0.0637
 1811poe    c23 8764   3.992   5.762   6.471 -0.1136 -0.4869 -0.0214
 1811poe     o2 8765   4.128   5.739   6.443 -0.0562 -0.1760  0.0064
 1811poe    c23 8766   4.139   5.621   6.367 -0.2199  0.2211 -0.6454
 1811poe    c23 8767   4.281   5.578   6.410 -0.2598 -0.0283 -0.7627
 1811poe     o2 8768   4.390   5.661   6.378 -0.0871 -0.0072 -0.1306
 1811poe    c23 8769   4.454   5.647   6.254  0.2047  0.5178 -0.0398
 1811poe    c23 8770   4.387   5.642   6.115 -0.3609 -0.0722  0.2526
 1811poe     o2 8771   4.311   5.524   6.105 -0.5558  0.0590  0.1825
 1811poe    c31 8772   4.253   5.523   5.977 -0.0942  0.1344 -0.0286
 1812poe    c31 8773   0.799   5.738   4.754 -0.6393  0.4910  0.5204
 1812poe     o2 8774   0.846   5.761   4.885  0.0082 -0.3911  0.4496
 1812poe    c23 8775   0.953   5.675   4.917  0.8593  0.2903 -0.5256
 1812poe    c23 8776   0.979   5.713   5.064 -0.0934  0.6000 -0.4326
 1812poe     o2 8777   0.966   5.852   5.078  0.2258  0.5823  0.0300
 1812poe    c23 8778   1.034   5.884   5.198  0.3502  0.4629 -0.0084
 1812poe    c23 8779   1.047   6.037   5.207 -0.1646  0.5631 -0.8641
 1812poe     o2 8780   0.919   6.094   5.218 -0.1294  0.4831  0.0192
 1812poe    c23 8781   0.928   6.234   5.211 -0.8569  0.5223 -0.2180
 1812poe    c23 8782   0.799   6.302   5.162 -0.7385  0.5948 -0.4320
 1812poe     o2 8783   0.783   6.300   5.022  0.4563  0.6261 -0.5725
 1812poe    c31 8784   0.651   6.338   4.992  0.0785  0.0436  0.3051
 1813poe    c31 8785   3.487   0.896   5.706  0.3187  0.1439  0.0591
 1813poe     o2 8786   3.507   1.031   5.743  0.1170  0.1119  0.2886
 1813poe    c23 8787   3.582   1.101   5.646 -0.7931  0.3334 -0.2591
 1813poe    c23 8788   3.586   1.247   5.696 -0.0487  0.2779 -0.1518
 1813poe     o2 8789   3.647   1.261   5.822  0.2459  0.1444 -0.2789
 1813poe    c23 8790   3.787   1.266   5.803  0.2992 -0.6316 -0.1040
 1813poe    c23 8791   3.866   1.277   5.935 -0.0239 -0.1368  0.0509
 1813poe     o2 8792   3.795   1.212   6.038 -0.2922 -0.5118 -0.3683
 1813poe    c23 8793   3.869   1.224   6.157 -0.3976 -0.0981 -0.3404
 1813poe    c23 8794   3.943   1.091   6.183 -0.1710  0.0414 -0.2663
 1813poe     o2 8795   3.834   1.008   6.219 -0.0330  0.0920  0.2782
 1813poe    c31 8796   3.886   0.880   6.246  0.3725  0.1772 -0.0754
 1814poe    c31 8797   4.991   2.681   0.890 -0.2199  0.1347 -0.4864
 1814poe     o2 8798   4.963   2.818   0.906  0.2681  0.2088 -0.2505
 1814poe    c23 8799   5.070   2.881   0.974 -0.2010  0.3778  0.3517
 1814poe    c23 8800   5.019   3.006   1.047  0.2730  0.4311  0.5958
 1814poe     o2 8801   4.919   3.068   0.969 -0.0017  0.3817  0.9078
 1814poe    c23 8802   4.966   3.193   0.925  0.5165 -0.1475 -0.0744
 1814poe    c23 8803   4.844   3.251   0.850 -0.0112 -0.2405  0.6935
 1814poe     o2 8804   4.781   3.162   0.761 -0.1503  0.5577 -0.0208
 1814poe    c23 8805   4.656   3.208   0.712 -0.2632  0.3725  0.0921
 1814poe    c23 8806   4.529   3.176   0.792 -0.1488  0.2413  0.2234
 1814poe     o2 8807   4.489   3.044   0.764  0.2696  0.1695 -0.0337
 1814poe    c31 8808   4.367   3.007   0.825  0.3815  0.1321  0.1681
 1815poe    c31 8809   0.261   5.020   3.366  0.6763  0.1790  0.1899
 1815poe     o2 8810   0.169   5.032   3.259  0.1618  0.3863  0.6494
 1815poe    c23 8811   0.233   5.030   3.133  0.1558  0.2850  0.6479
 1815poe    c23 8812   0.130   5.102   3.044 -0.0120 -0.7274  0.0111
 1815poe     o2 8813   0.008   5.034   3.063 -0.1363 -0.4128  0.3339
 1815poe    c23 8814  -0.041   5.034   2.931  0.1182 -0.8455  0.2400
 1815poe    c23 8815  -0.174   4.958   2.913 -0.3667  0.1870 -0.6801
 1815poe     o2 8816  -0.160   4.832   2.976  0.0409  0.6401  0.1544
 1815poe    c23 8817  -0.288   4.775   2.989 -0.0146  0.6675 -0.2421
 1815poe    c23 8818  -0.327   4.725   3.130  0.2230  0.2678 -0.3173
 1815poe     o2 8819  -0.336   4.833   3.220 -1.0014 -0.1648  0.0978
 1815poe    c31 8820  -0.430   4.801   3.321 -0.7450 -0.0065  0.3902
 1816poe    c31 8821   6.563   3.771   5.341  0.0053 -0.0214 -0.0578
 1816poe     o2 8822   6.548   3.900   5.397  0.0802  0.0835 -0.2766
 1816poe    c23 8823   6.573   3.893   5.535 -0.2712  0.2395 -0.2040
 1816poe    c23 8824   6.593   4.033   5.595  0.3058  0.2117 -0.3334
 1816poe     o2 8825   6.586   4.039   5.736 -0.3929 -0.1007 -0.3493
 1816poe    c23 8826   6.595   4.172   5.782 -0.2210 -0.2304 -0.0110
 1816poe    c23 8827   6.526   4.183   5.920 -0.2517  0.1454 -0.0552
 1816poe     o2 8828   6.391   4.162   5.887 -0.2677  0.2453 -0.0522
 1816poe    c23 8829   6.308   4.125   5.995  0.2218  0.2454  0.3266
 1816poe    c23 8830   6.159   4.112   5.956  0.1815 -0.0821  0.5924
 1816poe     o2 8831   6.135   3.980   5.913  0.3309  0.2163 -0.4297
 1816poe    c31 8832   6.014   3.970   5.841  0.2538 -0.0974 -0.2594
 1817poe    c31 8833   2.375   0.586   6.821 -0.2494  0.0867 -0.5708
 1817poe     o2 8834   2.276   0.682   6.791  0.0013  0.4434 -0.2598
 1817poe    c23 8835   2.304   0.820   6.794  0.5307  0.3358 -0.2911
 1817poe    c23 8836   2.207   0.922   6.733 -0.1788  0.0872  0.4040
 1817poe     o2 8837   2.117   0.957   6.835  0.4795  0.6231  0.8084
 1817poe    c23 8838   2.017   1.055   6.819  0.0887  0.1714  0.4399
 1817poe    c23 8839   1.884   1.037   6.894 -0.3129 -0.5087 -0.4163
 1817poe     o2 8840   1.901   1.099   7.020  0.0972 -0.8435 -0.3078
 1817poe    c23 8841   1.773   1.141   7.060  0.1213 -0.7109 -0.3672
 1817poe    c23 8842   1.760   1.157   7.213 -0.3564 -0.2415 -0.4559
 1817poe     o2 8843   1.773   1.037   7.285 -0.4912  0.0706  0.0931
 1817poe    c31 8844   1.642   1.016   7.335 -0.3729 -0.2218  0.2883
 1818poe    c31 8845   4.214   3.108   4.902  0.1753  0.2744 -0.5582
 1818poe     o2 8846   4.184   3.010   4.806  0.0480 -0.2674  0.0244
 1818poe    c23 8847   4.306   2.972   4.745 -0.0922 -0.2340 -0.2821
 1818poe    c23 8848   4.281   2.826   4.706 -0.2180 -0.2847 -0.0129
 1818poe     o2 8849   4.154   2.824   4.646 -0.2445 -0.3280  0.0445
 1818poe    c23 8850   4.109   2.699   4.598 -0.2494 -0.1518 -0.4223
 1818poe    c23 8851   3.972   2.699   4.528 -0.4993 -0.9984  0.0452
 1818poe     o2 8852   3.880   2.759   4.617 -0.0157  0.2894 -0.3034
 1818poe    c23 8853   3.750   2.746   4.562 -0.2289 -0.0711  0.2806
 1818poe    c23 8854   3.652   2.808   4.663 -0.1304 -0.0850  0.3840
 1818poe     o2 8855   3.667   2.948   4.675 -0.1552  0.0087 -0.6341
 1818poe    c31 8856   3.582   2.990   4.779 -0.3625  0.6036 -1.0400
 1819poe    c31 8857   2.277   2.233   2.046  0.4038  0.4130 -0.5497
 1819poe     o2 8858   2.364   2.199   2.152 -0.3157 -0.1778 -0.1445
 1819poe    c23 8859   2.343   2.066   2.193  0.1947 -0.2174 -0.0099
 1819poe    c23 8860   2.362   2.043   2.345  0.0475 -0.4326 -0.0239
 1819poe     o2 8861   2.266   2.087   2.438  0.0730 -0.2608 -0.0785
 1819poe    c23 8862   2.148   2.010   2.429 -0.4573  0.5167  0.1637
 1819poe    c23 8863   2.019   2.093   2.417 -0.5334  0.3092 -0.4700
 1819poe     o2 8864   2.016   2.180   2.528  0.0299 -0.4909  0.1850
 1819poe    c23 8865   1.879   2.212   2.540  0.3062  0.7381  0.2254
 1819poe    c23 8866   1.829   2.259   2.678  0.5758 -0.0798  0.6124
 1819poe     o2 8867   1.805   2.153   2.768 -0.2624 -0.0785  0.4050
 1819poe    c31 8868   1.756   2.204   2.890 -0.6848 -0.3880  0.3645
 1820poe    c31 8869   4.521   4.864   6.813 -0.1978  0.2471  0.0365
 1820poe     o2 8870   4.401   4.844   6.885 -0.4709  0.2797 -0.4022
 1820poe    c23 8871   4.431   4.816   7.020 -0.1866 -0.4111 -0.6065
 1820poe    c23 8872   4.302   4.818   7.102  0.3131  0.1879  0.1771
 1820poe     o2 8873   4.202   4.733   7.050  0.3819 -0.0248  0.3952
 1820poe    c23 8874   4.080   4.767   7.112  0.2458  0.5656 -0.1931
 1820poe    c23 8875   3.987   4.646   7.093  0.1394  0.6578 -0.2640
 1820poe     o2 8876   4.020   4.599   6.965 -0.1425 -0.2743 -0.0039
 1820poe    c23 8877   3.951   4.482   6.926  0.4050 -0.6582  0.1542
 1820poe    c23 8878   3.996   4.463   6.780  0.5335 -0.0974  0.1174
 1820poe     o2 8879   3.966   4.587   6.720  0.8454 -0.3158 -0.4980
 1820poe    c31 8880   4.012   4.592   6.587 -0.2933 -0.1416 -0.8938
 1821poe    c31 8881   6.736   5.133   6.471  0.0892  0.2059  0.0552
 1821poe     o2 8882   6.800   5.179   6.355 -0.7337 -0.1325 -0.5415
 1821poe    c23 8883   6.764   5.310   6.319 -0.2638  0.2724  0.4381
 1821poe    c23 8884   6.854   5.372   6.211 -0.2075 -1.2238 -0.4056
 1821poe     o2 8885   6.980   5.382   6.275 -0.4039  0.4913 -0.2385
 1821poe    c23 8886   7.070   5.464   6.204  0.4092 -0.3545 -0.1882
 1821poe    c23 8887   7.194   5.476   6.295  0.4242  0.5911 -0.3239
 1821poe     o2 8888   7.278   5.363   6.293 -0.1881  0.1176  0.2685
 1821poe    c23 8889   7.400   5.383   6.361 -0.1184  0.0934  0.1512
 1821poe    c23 8890   7.402   5.276   6.473  0.3068  0.0397  0.0948
 1821poe     o2 8891   7.353   5.154   6.423  0.1432  0.1930 -0.1256
 1821poe    c31 8892   7.452   5.054   6.436 -0.0131  0.0240 -0.2247
 1822poe    c31 8893   1.557   2.111   5.952 -0.0443 -0.1839  0.2928
 1822poe     o2 8894   1.665   2.023   5.927  0.5851  0.7725 -0.4411
 1822poe    c23 8895   1.623   1.927   5.833  0.4427  0.8702 -0.4773
 1822poe    c23 8896   1.738   1.848   5.767  0.3519  0.2757  0.0644
 1822poe     o2 8897   1.767   1.731   5.840 -0.2853  0.3736  0.4872
 1822poe    c23 8898   1.906   1.710   5.832 -0.3152  0.0084  0.9337
 1822poe    c23 8899   1.942   1.579   5.905 -0.0099 -0.1805  0.4431
 1822poe     o2 8900   1.903   1.465   5.832 -0.6744  0.2720  0.0862
 1822poe    c23 8901   1.930   1.345   5.901  0.4431  0.3897 -0.1258
 1822poe    c23 8902   1.822   1.300   6.001  0.3571 -0.2996 -0.5287
 1822poe     o2 8903   1.697   1.286   5.937  0.0441  0.0051  0.0149
 1822poe    c31 8904   1.623   1.209   6.029  0.5321 -1.0218 -0.4443
 1823poe    c31 8905   2.395   2.168   6.836  0.1780  0.1115  0.5044
 1823poe     o2 8906   2.414   2.029   6.852  0.3745  0.1500  0.6017
 1823poe    c23 8907   2.517   1.993   6.762  0.2963  0.2345  0.4776
 1823poe    c23 8908   2.659   1.990   6.821  0.6690  0.6256 -0.3868
 1823poe     o2 8909   2.705   1.889   6.908 -0.3630  0.0493 -0.5034
 1823poe    c23 8910   2.825   1.836   6.858 -0.4641 -0.2193 -0.4637
 1823poe    c23 8911   2.824   1.688   6.899 -0.4166 -0.0971 -0.0162
 1823poe     o2 8912   2.783   1.679   7.034 -0.0394 -0.1398  0.0975
 1823poe    c23 8913   2.742   1.544   7.048 -0.3909 -0.0451  0.0020
 1823poe    c23 8914   2.670   1.534   7.183  0.1212 -0.4611  0.2464
 1823poe     o2 8915   2.592   1.651   7.195 -0.2811 -0.6942 -0.0596
 1823poe    c31 8916   2.552   1.667   7.329 -0.2262 -0.5042 -0.0656
 1824poe    c31 8917   5.677   2.473   6.522 -0.7002  0.1082 -0.3383
 1824poe     o2 8918   5.644   2.610   6.521 -0.1252  0.2563  0.2304
 1824poe    c23 8919   5.519   2.645   6.576 -0.3198 -0.1599  0.0546
 1824poe    c23 8920   5.471   2.791   6.583  0.1764 -0.0237  0.5902
 1824poe     o2 8921   5.450   2.839   6.453 -0.0993  0.9888  0.9988
 1824poe    c23 8922   5.344   2.932   6.464 -0.4744  0.6562  0.2737
 1824poe    c23 8923   5.278   2.964   6.329 -0.4621 -0.0392  0.0995
 1824poe     o2 8924   5.179   2.867   6.301  0.0057 -0.5094  0.0667
 1824poe    c23 8925   5.212   2.809   6.176  0.1836 -0.7366  0.2195
 1824poe    c23 8926   5.125   2.684   6.152  0.1792 -0.6690 -0.1081
 1824poe     o2 8927   4.994   2.725   6.118  0.4803  0.5256  0.1204
 1824poe    c31 8928   4.906   2.632   6.177  0.3795  0.3323 -0.3342
 1825poe    c31 8929   3.870   6.028   3.182  0.1921 -0.0154  0.0890
 1825poe     o2 8930   3.740   6.050   3.233  0.2029  0.0327  0.0962
 1825poe    c23 8931   3.649   6.072   3.128 -0.2040 -0.2582  0.3838
 1825poe    c23 8932   3.510   6.072   3.194 -0.5315 -0.6286 -0.2952
 1825poe     o2 8933   3.505   6.158   3.305  0.2294 -0.8167 -0.1101
 1825poe    c23 8934   3.376   6.170   3.360  0.5042  0.3959  0.3069
 1825poe    c23 8935   3.383   6.277   3.470 -0.0172  0.5061  0.2391
 1825poe     o2 8936   3.482   6.229   3.558 -1.0377 -0.2738  0.9871
 1825poe    c23 8937   3.484   6.306   3.676 -0.7106 -0.0684  0.8487
 1825poe    c23 8938   3.624   6.297   3.741 -0.1653 -0.2749 -0.3359
 1825poe     o2 8939   3.715   6.363   3.655 -0.4081  0.1712 -0.2512
 1825poe    c31 8940   3.839   6.386   3.718 -0.2975 -0.0060 -0.4048
 1826poe    c31 8941   2.006   6.107   2.831  0.0217  0.6028 -0.2424
 1826poe     o2 8942   1.912   6.141   2.930 -0.3783 -0.3983 -0.2673
 1826poe    c23 8943   1.854   6.268   2.907  0.7482  0.2436  0.3127
 1826poe    c23 8944   1.796   6.318   3.041  0.0057 -0.3203  0.2140
 1826poe     o2 8945   1.673   6.260   3.075 -0.0786 -0.3053 -0.0575
 1826poe    c23 8946   1.612   6.292   3.198 -0.2798  0.0185 -0.2407
 1826poe    c23 8947   1.487   6.203   3.204 -0.1161 -0.2179 -0.3538
 1826poe     o2 8948   1.517   6.065   3.201  0.0899 -0.1665 -0.6410
 1826poe    c23 8949   1.401   6.001   3.249  0.5523  0.0007  0.7469
 1826poe    c23 8950   1.452   5.865   3.299  0.4568 -0.1906  0.3340
 1826poe     o2 8951   1.553   5.811   3.218 -0.2676 -0.1859 -0.5841
 1826poe    c31 8952   1.586   5.681   3.262 -0.1962  0.1967  0.5095
 1827poe    c31 8953   3.338   0.472   0.319 -0.5019 -0.2139  0.6922
 1827poe     o2 8954   3.226   0.395   0.354 -0.4878 -0.3901  0.3576
 1827poe    c23 8955   3.199   0.420   0.490  0.3201  0.0544  0.4431
 1827poe    c23 8956   3.077   0.351   0.554 -0.2520  0.4121 -0.2538
 1827poe     o2 8957   2.955   0.387   0.492 -0.5599 -0.5491 -0.2279
 1827poe    c23 8958   2.893   0.491   0.564 -0.1998 -0.4353 -0.0754
 1827poe    c23 8959   2.742   0.485   0.534 -0.2375 -0.7918  0.1859
 1827poe     o2 8960   2.743   0.428   0.404  0.2030 -1.0392  0.2972
 1827poe    c23 8961   2.617   0.405   0.346  0.2648  0.5351 -0.5141
 1827poe    c23 8962   2.631   0.326   0.215 -0.2624 -1.0110  0.3452
 1827poe     o2 8963   2.741   0.239   0.232  0.0940 -0.5328  0.4855
 1827poe    c31 8964   2.755   0.154   0.120 -0.1316  0.0201  0.0274
 1828poe    c31 8965   7.100   5.536   0.825  0.6664  0.1302 -0.1629
 1828poe     o2 8966   7.110   5.448   0.934  0.2895  0.4201  0.1085
 1828poe    c23 8967   7.199   5.344   0.900  0.0004  0.4821 -0.8576
 1828poe    c23 8968   7.212   5.232   1.005 -0.0292  0.7463 -0.5737
 1828poe     o2 8969   7.233   5.288   1.134  0.2745  0.5196 -0.5252
 1828poe    c23 8970   7.266   5.183   1.222 -0.0985  0.6164 -0.2689
 1828poe    c23 8971   7.354   5.236   1.337 -0.3547 -0.3096  0.3666
 1828poe     o2 8972   7.277   5.319   1.421 -0.3556 -0.2247  0.2822
 1828poe    c23 8973   7.352   5.419   1.487  0.1433 -0.1955 -0.3140
 1828poe    c23 8974   7.247   5.523   1.533 -0.3887 -0.8746  0.0211
 1828poe     o2 8975   7.151   5.551   1.433  0.6106  0.7150 -0.5152
 1828poe    c31 8976   7.056   5.640   1.488  0.2020  0.2096 -0.4010
 1829poe    c31 8977   5.884   3.492   5.435  0.0306 -0.1326  0.5063
 1829poe     o2 8978   5.888   3.398   5.330  0.2270  0.2300  0.1889
 1829poe    c23 8979   5.882   3.451   5.199 -0.0691  0.1505  0.1690
 1829poe    c23 8980   5.835   3.351   5.092  0.1133 -0.2453  0.4526
 1829poe     o2 8981   5.941   3.260   5.075  0.0513 -0.2420  0.0337
 1829poe    c23 8982   5.881   3.150   5.010 -0.1220  0.0244 -0.2635
 1829poe    c23 8983   5.942   3.015   5.053  0.3236  0.1441 -0.5141
 1829poe     o2 8984   5.946   2.990   5.192  0.3584 -0.1286 -0.5630
 1829poe    c23 8985   5.834   2.917   5.235 -0.1766  0.5519 -0.7663
 1829poe    c23 8986   5.800   2.937   5.384  0.4760 -0.0129 -0.5338
 1829poe     o2 8987   5.919   2.907   5.454 -0.0710 -0.3339  0.2709
 1829poe    c31 8988   5.892   2.956   5.583  0.0036  0.3622  0.0259
 1830poe    c31 8989   3.590   3.627   3.403  0.2674 -0.4169  0.2586
 1830poe     o2 8990   3.627   3.585   3.533  0.2541 -0.0858  0.3724
 1830poe    c23 8991   3.516   3.526   3.597 -0.1257  0.2569  0.0410
 1830poe    c23 8992   3.559   3.453   3.726  0.3514  0.5739  0.0655
 1830poe     o2 8993   3.664   3.523   3.788  0.5654  0.0812  0.2715
 1830poe    c23 8994   3.739   3.439   3.872  0.2306 -0.3018  0.1900
 1830poe    c23 8995   3.856   3.522   3.928  0.0459 -0.1721  0.3866
 1830poe     o2 8996   3.903   3.611   3.828  0.5022 -0.9807 -0.1352
 1830poe    c23 8997   4.032   3.667   3.835 -0.0399  0.2212  0.4347
 1830poe    c23 8998   4.146   3.569   3.802 -0.3768 -0.2546  0.6731
 1830poe     o2 8999   4.170   3.566   3.663 -0.2421 -0.3496  0.6982
 1830poe    c31 9000   4.259   3.461   3.632 -0.0988 -0.0172 -0.0096
 1831poe    c31 9001   4.122   2.959   1.943  0.1380 -0.1910 -0.1815
 1831poe     o2 9002   4.118   2.883   1.825  0.6507  0.7340 -0.8128
 1831poe    c23 9003   4.031   2.943   1.731 -0.5093  0.6083  0.1576
 1831poe    c23 9004   3.984   2.831   1.636  0.3108 -0.2765  0.7660
 1831poe     o2 9005   3.854   2.782   1.659 -0.0903  0.2593 -0.2608
 1831poe    c23 9006   3.810   2.719   1.541 -0.0919 -0.0878 -0.0780
 1831poe    c23 9007   3.665   2.667   1.543 -0.1203 -0.0289 -0.4270
 1831poe     o2 9008   3.628   2.569   1.637 -0.0560 -0.0922 -0.4678
 1831poe    c23 9009   3.502   2.586   1.699  0.4020 -0.1750  0.5034
 1831poe    c23 9010   3.470   2.491   1.815 -0.1988 -0.1639  0.3508
 1831poe     o2 9011   3.565   2.498   1.919  0.3354 -0.1038 -0.1402
 1831poe    c31 9012   3.527   2.453   2.047  0.9387 -0.1885  0.0121
 1832poe    c31 9013   4.851   0.987   6.376  0.1092 -0.3351  0.2071
 1832poe     o2 9014   4.742   1.044   6.443 -0.2126 -0.0183 -0.5767
 1832poe    c23 9015   4.746   1.184   6.423  0.1552  0.1061  0.3355
 1832poe    c23 9016   4.625   1.239   6.501  0.2049 -0.2691  0.6813
 1832poe     o2 9017   4.502   1.201   6.442  0.5675  1.2734 -1.1753
 1832poe    c23 9018   4.394   1.272   6.498  0.3432  0.1035 -0.0718
 1832poe    c23 9019   4.256   1.242   6.437  0.5281 -0.1322 -0.3727
 1832poe     o2 9020   4.210   1.109   6.447 -0.4009  0.1510 -0.8198
 1832poe    c23 9021   4.101   1.093   6.536 -0.1501 -0.3701 -0.6022
 1832poe    c23 9022   4.086   0.968   6.624 -0.9180  0.1975  0.0924
 1832poe     o2 9023   4.043   0.863   6.540  0.0140 -0.4244  0.3757
 1832poe    c31 9024   4.021   0.739   6.604 -0.4425 -0.0816  0.8950
 1833poe    c31 9025   4.725   2.727   1.809  0.2520  0.8126 -0.2035
 1833poe     o2 9026   4.644   2.796   1.716 -0.4671  0.1846 -0.0582
 1833poe    c23 9027   4.516   2.811   1.773 -0.2516  0.3277  0.3948
 1833poe    c23 9028   4.410   2.855   1.670  0.2860  0.1727 -0.2337
 1833poe     o2 9029   4.389   2.748   1.581  0.0853 -0.7159  0.8572
 1833poe    c23 9030   4.276   2.768   1.500  0.0799 -0.4761  0.9230
 1833poe    c23 9031   4.262   2.655   1.396 -0.0945  0.0102  0.4126
 1833poe     o2 9032   4.362   2.651   1.296 -0.7702 -0.0147 -0.2727
 1833poe    c23 9033   4.356   2.533   1.219  0.5833 -0.9473  0.9909
 1833poe    c23 9034   4.471   2.545   1.118 -0.1516 -0.1062  0.2334
 1833poe     o2 9035   4.585   2.597   1.183 -0.2975  0.2833  0.1774
 1833poe    c31 9036   4.702   2.604   1.105 -0.7951  0.2270 -0.5843
 1834poe    c31 9037   2.372   5.368   3.158  0.5600  0.1038  0.2061
 1834poe     o2 9038   2.300   5.248   3.135  0.1599  0.3669  0.0738
 1834poe    c23 9039   2.214   5.284   3.029  0.5082  0.2814 -0.2404
 1834poe    c23 9040   2.131   5.159   2.995 -0.2634  0.7618 -0.1361
 1834poe     o2 9041   2.203   5.050   2.942 -0.0207  1.1868 -0.6985
 1834poe    c23 9042   2.111   4.992   2.852  0.3100 -0.4395 -0.0363
 1834poe    c23 9043   2.144   4.846   2.820  0.2049 -0.2883 -0.8491
 1834poe     o2 9044   2.172   4.798   2.949  0.3460  0.0963 -0.7365
 1834poe    c23 9045   2.232   4.670   2.940  0.0883 -0.0740 -0.1059
 1834poe    c23 9046   2.255   4.617   3.083  0.1872 -0.0026 -0.0953
 1834poe     o2 9047   2.303   4.720   3.166  0.4686 -0.0738 -0.1682
 1834poe    c31 9048   2.392   4.669   3.263  0.0858 -0.4807 -0.0273
 1835poe    c31 9049   1.238   1.003   2.128 -0.2003 -0.1856  0.3029
 1835poe     o2 9050   1.193   1.068   2.012 -0.2895 -0.3924  0.2208
 1835poe    c23 9051   1.257   1.002   1.904 -0.2271  0.4325 -0.2601
 1835poe    c23 9052   1.161   1.007   1.784 -0.1865  0.1980 -0.3033
 1835poe     o2 9053   1.101   1.134   1.774  0.1122  0.3268 -0.4728
 1835poe    c23 9054   1.004   1.149   1.672  0.0727 -0.3632 -0.5398
 1835poe    c23 9055   0.953   1.293   1.692  0.3762 -0.3199 -0.0493
 1835poe     o2 9056   0.913   1.328   1.822 -0.1963  0.3000 -0.3854
 1835poe    c23 9057   0.781   1.377   1.832 -0.4270 -0.4075  0.1469
 1835poe    c23 9058   0.736   1.358   1.978  0.1464 -0.1787  0.3582
 1835poe     o2 9059   0.801   1.436   2.075  0.4675  0.3586 -0.2837
 1835poe    c31 9060   0.730   1.433   2.196 -0.5144 -0.0474 -0.8568
 1836poe    c31 9061   3.773   2.709   0.301  0.0094  0.0747  0.1169
 1836poe     o2 9062   3.842   2.831   0.319  0.5785 -0.2340  0.0354
 1836poe    c23 9063   3.963   2.849   0.249  0.8264  0.0473  0.5303
 1836poe    c23 9064   3.994   2.999   0.258  0.3304  0.1810  0.0979
 1836poe     o2 9065   3.960   3.045   0.387 -0.2457 -0.2420  0.0993
 1836poe    c23 9066   4.013   3.175   0.399  0.3377 -0.4629 -0.0765
 1836poe    c23 9067   4.022   3.231   0.542 -0.4585 -0.8152  0.1163
 1836poe     o2 9068   3.897   3.227   0.607 -0.3578 -0.3209  0.3465
 1836poe    c23 9069   3.905   3.244   0.746  0.3031 -0.2281  0.2986
 1836poe    c23 9070   3.755   3.246   0.779  0.0751  0.0471 -0.7197
 1836poe     o2 9071   3.686   3.123   0.780  0.7862 -0.3562 -0.3716
 1836poe    c31 9072   3.630   3.094   0.906 -0.3726  0.3388 -0.7187
 1837poe    c31 9073   3.045   6.349   6.730  0.0089 -0.1049  0.2274
 1837poe     o2 9074   3.148   6.325   6.823  0.3040 -0.5526 -0.2097
 1837poe    c23 9075   3.217   6.441   6.860  0.2044 -0.7691  0.6662
 1837poe    c23 9076   3.202   6.471   7.011  0.1622  0.8370  0.3618
 1837poe     o2 9077   3.282   6.393   7.096 -0.1478  0.5426  0.3863
 1837poe    c23 9078   3.219   6.351   7.215 -0.2056  0.0194  0.1738
 1837poe    c23 9079   3.291   6.245   7.301 -0.3432 -0.3799 -0.2001
 1837poe     o2 9080   3.298   6.115   7.249  0.7160 -0.3596 -0.1259
 1837poe    c23 9081   3.393   6.043   7.324  0.5029 -0.5144 -0.0044
 1837poe    c23 9082   3.384   5.895   7.280 -0.2554 -0.5036  0.0964
 1837poe     o2 9083   3.414   5.883   7.143 -0.2280  0.2865  0.0291
 1837poe    c31 9084   3.347   5.780   7.074 -0.0760  0.0745  0.1978
 1838poe    c31 9085   6.608   0.038   2.993  0.2844  0.0273  0.3140
 1838poe     o2 9086   6.678   0.019   2.872  0.0181  0.9958 -0.0010
 1838poe    c23 9087   6.602   0.062   2.761 -0.0244  0.4477 -0.1865
 1838poe    c23 9088   6.662   0.074   2.620 -0.0202 -0.0061 -0.2250
 1838poe     o2 9089   6.673  -0.049   2.551  0.3833 -0.1639  0.1099
 1838poe    c23 9090   6.749  -0.029   2.434  0.3043  0.3281  0.1414
 1838poe    c23 9091   6.903  -0.029   2.439  0.2924  0.1626  0.5228
 1838poe     o2 9092   6.944  -0.153   2.491 -0.1482 -0.1832  0.0574
 1838poe    c23 9093   7.077  -0.141   2.536 -0.2995 -0.1584  0.5024
 1838poe    c23 9094   7.121  -0.286   2.560 -0.4392 -0.2631  0.1280
 1838poe     o2 9095   7.008  -0.361   2.599 -0.4769 -0.3199 -0.0850
 1838poe    c31 9096   7.033  -0.499   2.587  0.3334 -0.1732 -0.1902
 1839poe    c31 9097   4.736   3.117   1.845  0.4727 -0.0271  0.1889
 1839poe     o2 9098   4.708   3.248   1.890  0.4857  0.1018 -0.1750
 1839poe    c23 9099   4.743   3.351   1.801 -0.1325  0.5338  0.0721
 1839poe    c23 9100   4.653   3.473   1.832 -0.5474  0.2858 -0.1523
 1839poe     o2 9101   4.631   3.461   1.971  0.0005 -0.4814 -0.1243
 1839poe    c23 9102   4.564   3.572   2.026  0.3985 -0.2141 -0.1784
 1839poe    c23 9103   4.572   3.568   2.180 -0.2045  0.2485 -0.1331
 1839poe     o2 9104   4.530   3.442   2.226  0.6766  0.0417  0.1221
 1839poe    c23 9105   4.476   3.449   2.356 -0.4792 -0.0906 -0.3358
 1839poe    c23 9106   4.561   3.376   2.461 -0.1087  0.5864 -0.1598
 1839poe     o2 9107   4.588   3.246   2.416  0.0434  0.4315  0.3686
 1839poe    c31 9108   4.689   3.184   2.493 -0.4582 -0.6800  0.1606
 1840poe    c31 9109   5.385   4.732   4.356 -0.3612 -0.3255 -0.0766
 1840poe     o2 9110   5.482   4.767   4.260 -0.0568  0.2859  0.4518
 1840poe    c23 9111   5.435   4.881   4.192 -0.1246 -0.4550 -0.7660
 1840poe    c23 9112   5.533   5.000   4.191 -0.2249 -0.3721 -0.6443
 1840poe     o2 9113   5.655   4.944   4.148 -0.0727  0.0307 -0.7400
 1840poe    c23 9114   5.760   5.038   4.165 -0.2270  0.1914 -0.6762
 1840poe    c23 9115   5.901   4.989   4.129  0.1329  0.1873  0.6790
 1840poe     o2 9116   5.920   4.863   4.190 -0.0311 -0.3031 -0.2635
 1840poe    c23 9117   6.053   4.829   4.160  0.0784 -0.5341  0.4845
 1840poe    c23 9118   6.094   4.683   4.187  0.7159 -0.3857  0.3462
 1840poe     o2 9119   6.011   4.597   4.111  0.9208  0.3551 -0.7423
 1840poe    c31 9120   6.008   4.601   3.970 -1.2932  0.3133 -0.7350
 1841poe    c31 9121   4.560   3.773   6.714  0.0371  0.6349 -0.4502
 1841poe     o2 9122   4.622   3.680   6.799 -0.6177  0.5486 -0.0622
 1841poe    c23 9123   4.655   3.570   6.716  0.3484  0.4146  0.4841
 1841poe    c23 9124   4.801   3.530   6.690  0.1617  0.0373  0.0188
 1841poe     o2 9125   4.876   3.493   6.803  0.2044 -0.0900 -0.0503
 1841poe    c23 9126   5.005   3.437   6.793  0.1364 -0.2717  0.0886
 1841poe    c23 9127   5.039   3.402   6.939  0.0463 -0.1280  0.1440
 1841poe     o2 9128   5.053   3.526   7.006 -0.2035 -0.0364  0.0286
 1841poe    c23 9129   5.072   3.498   7.143  0.0437  0.0981  0.0239
 1841poe    c23 9130   5.062   3.615   7.243  0.6128  0.3511 -0.2141
 1841poe     o2 9131   4.941   3.686   7.240  0.1495 -0.4187 -0.0895
 1841poe    c31 9132   4.941   3.769   7.354 -0.0567 -0.1042 -0.3166
 1842poe    c31 9133   0.370   2.468   4.504  0.4689  0.6457  0.7624
 1842poe     o2 9134   0.322   2.558   4.407 -0.1454 -0.2868  0.1880
 1842poe    c23 9135   0.279   2.679   4.465 -0.3689 -0.4976  0.4591
 1842poe    c23 9136   0.193   2.772   4.378  0.0295 -0.1512  0.4378
 1842poe     o2 9137   0.257   2.792   4.253 -1.1565  0.1724 -0.1311
 1842poe    c23 9138   0.181   2.894   4.192 -1.2757 -0.0063 -0.2808
 1842poe    c23 9139   0.231   2.913   4.047 -0.0625  0.0414  0.1292
 1842poe     o2 9140   0.272   2.797   3.978  0.0614  0.0159  0.2460
 1842poe    c23 9141   0.290   2.799   3.838  0.2794 -0.0120  0.2735
 1842poe    c23 9142   0.325   2.656   3.793  0.3230  0.1324 -0.1516
 1842poe     o2 9143   0.260   2.554   3.865  0.5721  0.3327  0.3578
 1842poe    c31 9144   0.280   2.430   3.801  0.0402  0.2479  0.3574
 1843poe    c31 9145   1.781   3.054   2.228 -0.1681  0.1561 -0.0786
 1843poe     o2 9146   1.666   3.055   2.147 -0.4454 -0.7082  0.2930
 1843poe    c23 9147   1.697   3.031   2.012  0.1791  0.2258  0.2608
 1843poe    c23 9148   1.553   3.029   1.957  0.1901  0.4718  0.2184
 1843poe     o2 9149   1.476   3.145   1.977 -0.1336  0.2004  0.5667
 1843poe    c23 9150   1.356   3.142   1.903  0.4134  0.2182 -0.3344
 1843poe    c23 9151   1.281   3.267   1.954 -0.2610 -0.3189  0.0022
 1843poe     o2 9152   1.290   3.282   2.094  0.5014 -0.3218 -0.0432
 1843poe    c23 9153   1.189   3.363   2.149  0.5057 -0.4130  0.0981
 1843poe    c23 9154   1.184   3.333   2.300 -0.7046  0.4916  0.2547
 1843poe     o2 9155   1.313   3.342   2.356 -0.6289 -0.0448  0.1777
 1843poe    c31 9156   1.317   3.404   2.483  0.6916 -0.0547  0.1541
 1844poe    c31 9157   1.010   5.321   5.704  0.3151 -0.0669  0.0338
 1844poe     o2 9158   0.982   5.185   5.677 -0.1857 -0.0058  0.2389
 1844poe    c23 9159   1.098   5.111   5.646 -0.1954  0.2234 -0.3623
 1844poe    c23 9160   1.040   4.985   5.580 -0.0767  0.5398 -1.0819
 1844poe     o2 9161   0.931   4.945   5.661  1.0324 -0.1734  0.0932
 1844poe    c23 9162   0.915   4.815   5.609 -0.6508 -0.0551  0.2515
 1844poe    c23 9163   0.789   4.745   5.664 -0.3531 -0.1571  0.8118
 1844poe     o2 9164   0.682   4.836   5.652 -0.0431  0.0864 -0.2032
 1844poe    c23 9165   0.566   4.758   5.667 -0.0172  0.1643  0.4371
 1844poe    c23 9166   0.438   4.840   5.688 -0.0542  0.1169  0.3964
 1844poe     o2 9167   0.415   4.928   5.581  0.0228 -0.5221 -0.1469
 1844poe    c31 9168   0.320   5.023   5.622  0.3859 -0.0793 -0.3298
 1845poe    c31 9169   1.412   4.274   1.345  0.5402  0.1399 -0.6013
 1845poe     o2 9170   1.483   4.157   1.379 -0.1332 -0.1392 -0.1288
 1845poe    c23 9171   1.542   4.074   1.281 -0.2073 -0.4718  0.1070
 1845poe    c23 9172   1.680   4.110   1.222 -0.3333 -0.5820 -0.2582
 1845poe     o2 9173   1.791   4.130   1.307 -0.2569 -0.1405 -0.4608
 1845poe    c23 9174   1.916   4.106   1.248 -0.1036 -0.6066  0.0456
 1845poe    c23 9175   2.029   4.109   1.352 -0.1679  0.1320  0.0943
 1845poe     o2 9176   2.002   4.017   1.455 -0.1642  0.1854  0.1424
 1845poe    c23 9177   2.098   4.008   1.558 -0.3644 -0.6904  0.2575
 1845poe    c23 9178   2.022   3.955   1.681  0.0181 -0.7742  0.4603
 1845poe     o2 9179   1.910   4.040   1.687  0.4832 -0.1550  0.3454
 1845poe    c31 9180   1.869   4.018   1.820 -0.0895 -0.0446  0.1911
 1846poe    c31 9181   2.013   6.751   1.321 -0.4835 -0.6569 -0.0889
 1846poe     o2 9182   2.048   6.851   1.227  0.0954 -0.6532  0.1288
 1846poe    c23 9183   1.976   6.845   1.106 -0.0390  0.6007  0.1364
 1846poe    c23 9184   2.027   6.960   1.017 -0.2283  0.7047  0.1623
 1846poe     o2 9185   2.162   6.948   0.980 -0.3812  0.3055 -0.2705
 1846poe    c23 9186   2.185   6.972   0.843 -0.3619 -0.8027 -0.4699
 1846poe    c23 9187   2.336   6.969   0.812 -0.2944 -0.3010 -0.1821
 1846poe     o2 9188   2.398   6.863   0.881 -0.6859 -0.4244 -0.0139
 1846poe    c23 9189   2.526   6.824   0.835 -0.5250 -0.0422  0.1079
 1846poe    c23 9190   2.611   6.759   0.946  0.0119 -0.0089 -0.2814
 1846poe     o2 9191   2.520   6.679   1.018  0.2894  0.2317  0.3434
 1846poe    c31 9192   2.590   6.593   1.106  0.1988  0.1831  0.3684
 1847poe    c31 9193   1.967   2.577   4.746 -0.4389  0.0927  0.3837
 1847poe     o2 9194   1.936   2.579   4.609  0.6924 -0.1739  0.1165
 1847poe    c23 9195   2.005   2.471   4.548  0.3027 -0.2487 -0.1962
 1847poe    c23 9196   1.960   2.449   4.402 -0.4518  0.1246 -0.0249
 1847poe     o2 9197   1.845   2.368   4.416 -0.3724 -0.0120 -0.1606
 1847poe    c23 9198   1.805   2.315   4.292  0.5401 -0.7105 -0.1631
 1847poe    c23 9199   1.652   2.305   4.303  0.4862  0.0297 -0.1821
 1847poe     o2 9200   1.574   2.421   4.319  0.0705 -0.3023  0.2357
 1847poe    c23 9201   1.466   2.437   4.231  0.1503  0.0032  0.1905
 1847poe    c23 9202   1.501   2.484   4.088 -0.0921 -0.2464  0.0483
 1847poe     o2 9203   1.585   2.394   4.019  0.3521 -0.0623  0.3442
 1847poe    c31 9204   1.651   2.459   3.912  0.8360  0.2827  0.8422
 1848poe    c31 9205   6.331   6.235   6.449 -0.0561 -0.7286 -0.1704
 1848poe     o2 9206   6.301   6.111   6.390 -0.5753 -0.4468 -0.4942
 1848poe    c23 9207   6.171   6.122   6.335 -0.6881 -0.0582 -0.1562
 1848poe    c23 9208   6.072   6.020   6.395 -0.6857 -0.0694 -0.1716
 1848poe     o2 9209   6.119   5.890   6.367 -0.1146  0.0551  0.1799
 1848poe    c23 9210   6.025   5.795   6.411  0.2638 -0.3404  0.1417
 1848poe    c23 9211   6.043   5.672   6.321 -0.1343  0.0043 -0.4150
 1848poe     o2 9212   6.184   5.663   6.312 -0.0891  0.4079 -0.1140
 1848poe    c23 9213   6.226   5.554   6.233 -0.2515  0.4212 -0.2207
 1848poe    c23 9214   6.376   5.549   6.267 -0.2268 -0.0233 -0.3978
 1848poe     o2 9215   6.424   5.680   6.250  0.3149 -0.1717 -0.0484
 1848poe    c31 9216   6.564   5.685   6.233  0.3684  0.3260  0.4786
 1849poe    c31 9217   2.719   0.702   3.344 -0.4358 -0.6441  0.5908
 1849poe     o2 9218   2.642   0.778   3.434 -0.0257 -0.0373  0.4343
 1849poe    c23 9219   2.588   0.684   3.524 -0.4138 -0.0136  0.2298
 1849poe    c23 9220   2.498   0.748   3.631 -0.4977  0.5992 -0.2010
 1849poe     o2 9221   2.556   0.873   3.661  0.2273  0.1047  0.4781
 1849poe    c23 9222   2.523   0.923   3.789  0.2332  0.2856  0.4082
 1849poe    c23 9223   2.599   1.057   3.799  0.1064  0.4386 -0.5581
 1849poe     o2 9224   2.520   1.150   3.729 -0.9682 -0.2297 -0.2627
 1849poe    c23 9225   2.580   1.278   3.736 -0.7737 -0.3340 -0.0155
 1849poe    c23 9226   2.515   1.368   3.630 -0.0560 -0.1809 -0.3317
 1849poe     o2 9227   2.537   1.348   3.492 -0.5671  0.1754 -0.4707
 1849poe    c31 9228   2.551   1.468   3.420  0.1159  0.3264 -0.0986
 1850poe    c31 9229   2.729   4.650   4.918  0.3359 -0.5391 -0.0636
 1850poe     o2 9230   2.697   4.524   4.863 -0.5128 -0.6177  0.5843
 1850poe    c23 9231   2.562   4.488   4.886 -0.5826 -0.3910  0.5410
 1850poe    c23 9232   2.519   4.365   4.802 -0.4325 -0.2852  0.3081
 1850poe     o2 9233   2.538   4.370   4.663 -0.3960 -0.6551  0.2996
 1850poe    c23 9234   2.427   4.423   4.593 -0.1347 -0.3509  0.1133
 1850poe    c23 9235   2.460   4.391   4.446 -0.4673 -0.1277 -0.0093
 1850poe     o2 9236   2.597   4.413   4.423 -0.4959  0.0026 -0.0534
 1850poe    c23 9237   2.624   4.377   4.290 -0.0950  0.0706  0.0087
 1850poe    c23 9238   2.772   4.393   4.248 -0.0276 -0.2246  0.1284
 1850poe     o2 9239   2.845   4.337   4.355 -0.3121  0.0075  0.4490
 1850poe    c31 9240   2.975   4.301   4.314 -0.4367  0.2660 -0.1828
 1851poe    c31 9241   0.050   7.090   1.099 -0.3002 -0.5595 -0.2955
 1851poe     o2 9242   0.149   7.109   1.000  0.1993 -0.2806  0.2518
 1851poe    c23 9243   0.172   6.990   0.927 -0.4976 -0.1993 -0.1134
 1851poe    c23 9244   0.253   6.992   0.796  0.2690  1.1191  0.3556
 1851poe     o2 9245   0.162   7.017   0.691  0.5246  0.8181  0.0580
 1851poe    c23 9246   0.206   6.999   0.559 -0.3928  0.0793 -0.1544
 1851poe    c23 9247   0.269   7.119   0.486 -0.3657 -0.0284 -0.3125
 1851poe     o2 9248   0.171   7.213   0.446 -0.3544 -0.0915 -0.4860
 1851poe    c23 9249   0.241   7.318   0.384  0.3582 -0.0375  0.3988
 1851poe    c23 9250   0.164   7.449   0.364  0.5171 -0.0171 -0.1036
 1851poe     o2 9251   0.067   7.431   0.263  0.2628 -0.5619  0.2322
 1851poe    c31 9252   0.094   7.534   0.170  0.2559 -0.4880  0.3116
 1852poe    c31 9253   1.215   0.584   1.244 -0.4710  0.3069 -0.2973
 1852poe     o2 9254   1.245   0.448   1.227 -0.1307  0.4314 -0.7030
 1852poe    c23 9255   1.376   0.407   1.191  0.0335  0.6385 -0.3430
 1852poe    c23 9256   1.374   0.277   1.108  0.2643  0.1575  0.3882
 1852poe     o2 9257   1.259   0.216   1.161  0.4360 -0.3316  0.2062
 1852poe    c23 9258   1.233   0.099   1.087 -0.0571  0.0047 -0.1676
 1852poe    c23 9259   1.156  -0.003   1.174  0.1288 -0.1836 -0.2246
 1852poe     o2 9260   1.035   0.066   1.191  0.2729  0.0623 -0.1920
 1852poe    c23 9261   0.953   0.002   1.286 -0.0105  0.1986 -0.3426
 1852poe    c23 9262   0.813   0.058   1.319  0.1717  0.3924  0.1216
 1852poe     o2 9263   0.835   0.172   1.398 -0.0053  0.2432  0.3884
 1852poe    c31 9264   0.712   0.232   1.433 -0.2804  0.2844 -0.6053
 1853poe    c31 9265   3.714   1.481   1.603  0.5087 -0.1877 -0.2374
 1853poe     o2 9266   3.808   1.514   1.504  0.2145 -0.0566 -0.4751
 1853poe    c23 9267   3.934   1.551   1.556 -0.1150 -0.1582  0.4134
 1853poe    c23 9268   4.015   1.437   1.621 -0.0880 -0.0514  0.5649
 1853poe     o2 9269   4.062   1.343   1.528 -0.2770  0.0916  0.3228
 1853poe    c23 9270   4.136   1.238   1.586  0.3514  0.2172 -0.2382
 1853poe    c23 9271   4.104   1.110   1.506 -0.1015  0.0848  0.1522
 1853poe     o2 9272   4.083   1.147   1.372 -0.8436 -0.1690  0.1930
 1853poe    c23 9273   4.073   1.027   1.298  0.2410 -0.2238  0.1180
 1853poe    c23 9274   4.106   1.060   1.151 -0.7817 -0.8051 -0.2515
 1853poe     o2 9275   4.026   1.168   1.110  0.3152  0.2102  0.2247
 1853poe    c31 9276   3.931   1.124   1.016 -0.3090  0.3429  0.7861
 1854poe    c31 9277   5.920   6.178   0.733  0.0467  0.1463 -0.2355
 1854poe     o2 9278   6.007   6.068   0.743 -0.1159  0.0231 -0.1839
 1854poe    c23 9279   6.085   6.055   0.626  0.4375 -0.0205  0.1873
 1854poe    c23 9280   6.184   5.939   0.648  0.1123 -0.5828 -1.1968
 1854poe     o2 9281   6.252   5.930   0.771 -0.2079 -0.5206 -1.0144
 1854poe    c23 9282   6.379   5.874   0.744  0.2315 -0.4900  0.8061
 1854poe    c23 9283   6.489   5.925   0.839  0.3733  0.1360  0.3144
 1854poe     o2 9284   6.485   5.849   0.958 -0.1997 -0.0278  0.1945
 1854poe    c23 9285   6.592   5.900   1.033 -0.2184  0.1590  0.0944
 1854poe    c23 9286   6.629   5.850   1.174  0.6959  0.3365 -0.0749
 1854poe     o2 9287   6.531   5.871   1.274  0.2689  0.2029 -0.4640
 1854poe    c31 9288   6.586   5.846   1.401  0.5787 -0.0423 -0.6423
 1855poe    c31 9289   1.418   0.543   4.631  0.3105 -0.6186 -0.1449
 1855poe     o2 9290   1.499   0.584   4.524  0.1446  0.2146  0.0430
 1855poe    c23 9291   1.436   0.695   4.464 -0.1176 -0.1110 -0.2957
 1855poe    c23 9292   1.517   0.757   4.349  0.4245  0.1687  0.2260
 1855poe     o2 9293   1.515   0.681   4.230  0.7611 -0.3731  0.5623
 1855poe    c23 9294   1.587   0.732   4.120 -0.0462  0.1166  0.2524
 1855poe    c23 9295   1.562   0.643   3.996  0.0449  0.4236  0.0121
 1855poe     o2 9296   1.545   0.512   4.046  0.1267  0.3102 -0.2596
 1855poe    c23 9297   1.483   0.426   3.953 -0.2178  0.4180 -0.1329
 1855poe    c23 9298   1.528   0.393   3.809  0.6795 -0.4816  0.3344
 1855poe     o2 9299   1.554   0.489   3.709 -0.1090 -0.6057  0.0046
 1855poe    c31 9300   1.456   0.583   3.670  0.4575  0.0758  0.2030
 1856poe    c31 9301   2.209   2.319   5.288  0.1260  0.7820 -0.2475
 1856poe     o2 9302   2.198   2.426   5.380 -0.0716  0.5420  0.0083
 1856poe    c23 9303   2.075   2.438   5.448 -0.0027  0.1395  0.2054
 1856poe    c23 9304   2.057   2.575   5.515  0.2922  0.3019 -0.0446
 1856poe     o2 9305   2.083   2.653   5.401 -0.2737  0.3641 -0.1324
 1856poe    c23 9306   2.018   2.778   5.404 -0.3652  0.3081  0.2895
 1856poe    c23 9307   2.120   2.889   5.440  0.0615  0.1192 -0.3183
 1856poe     o2 9308   2.220   2.880   5.342  0.0159 -0.3366 -0.3264
 1856poe    c23 9309   2.317   2.982   5.356 -0.0578 -0.2521 -0.4214
 1856poe    c23 9310   2.447   2.938   5.286  0.0256 -0.4849 -0.1264
 1856poe     o2 9311   2.519   2.842   5.359 -0.2496 -0.4246  0.2243
 1856poe    c31 9312   2.630   2.809   5.278 -0.4986 -0.1319 -0.2370
 1857poe    c31 9313   1.365   0.238   6.356 -0.2094  0.0413 -0.1011
 1857poe     o2 9314   1.265   0.233   6.455  0.0780  0.8446  0.2398
 1857poe    c23 9315   1.314   0.160   6.566 -0.2878 -0.0118 -0.1512
 1857poe    c23 9316   1.191   0.150   6.657 -0.4952 -0.1670 -0.4484
 1857poe     o2 9317   1.135   0.275   6.690  0.2650 -0.1160  0.7064
 1857poe    c23 9318   1.010   0.256   6.753  0.0488  0.8860  0.6001
 1857poe    c23 9319   0.904   0.313   6.657  0.3406  0.3871 -0.0273
 1857poe     o2 9320   0.941   0.257   6.533  0.1092 -0.0827  0.1125
 1857poe    c23 9321   0.837   0.173   6.487  0.2356 -0.3098  0.2409
 1857poe    c23 9322   0.864   0.109   6.350  0.2170 -0.2991  0.2323
 1857poe     o2 9323   0.901   0.215   6.264 -0.2136 -0.4814 -0.1814
 1857poe    c31 9324   0.958   0.153   6.151  0.1570  0.4787 -0.5247
 1858poe    c31 9325   4.666   5.938   0.335  0.3595 -0.1946  0.2834
 1858poe     o2 9326   4.609   6.031   0.424  0.3385  0.3022 -0.2435
 1858poe    c23 9327   4.534   6.121   0.346 -0.0896  0.6489  0.5457
 1858poe    c23 9328   4.446   6.220   0.424 -0.9023  0.2912  0.1035
 1858poe     o2 9329   4.512   6.285   0.531  0.0691  0.0364 -0.3259
 1858poe    c23 9330   4.407   6.320   0.618  0.3150  0.9577 -0.3918
 1858poe    c23 9331   4.457   6.346   0.762 -0.3689  0.2408 -0.0104
 1858poe     o2 9332   4.550   6.452   0.767 -0.4609  0.3227 -0.0502
 1858poe    c23 9333   4.612   6.493   0.887 -0.6003 -0.1956  0.1983
 1858poe    c23 9334   4.737   6.573   0.847 -0.0855 -0.9050  0.3546
 1858poe     o2 9335   4.798   6.497   0.746  0.3890  0.2225 -0.2319
 1858poe    c31 9336   4.938   6.515   0.747  0.3721  0.3452 -0.0048
 1859poe    c31 9337   4.546   6.596   4.853 -0.2555  0.4621 -0.4421
 1859poe     o2 9338   4.447   6.584   4.754 -0.3728  0.0401 -0.2756
 1859poe    c23 9339   4.331   6.541   4.820 -0.2807 -0.0252 -0.1553
 1859poe    c23 9340   4.190   6.562   4.762 -0.4278 -0.3819  0.0719
 1859poe     o2 9341   4.165   6.494   4.640 -0.0841 -0.4328  0.0287
 1859poe    c23 9342   4.031   6.499   4.597 -0.0040 -0.2327 -0.1997
 1859poe    c23 9343   4.001   6.379   4.505  0.4709  0.0471 -0.7223
 1859poe     o2 9344   4.078   6.409   4.391  0.6229  0.1245 -0.5993
 1859poe    c23 9345   4.052   6.313   4.291 -0.2490 -0.1571 -0.1086
 1859poe    c23 9346   4.085   6.361   4.149 -0.0011  0.3807  0.1279
 1859poe     o2 9347   4.225   6.364   4.126 -0.0118  0.6958  0.1061
 1859poe    c31 9348   4.256   6.408   3.996  0.2991 -0.3733 -0.1898
 1860poe    c31 9349   6.943   5.956   2.451 -0.4906  0.0093  0.5496
 1860poe     o2 9350   6.973   5.841   2.527 -0.1830 -0.5063 -0.3392
 1860poe    c23 9351   7.051   5.752   2.449  0.2580 -0.1505 -0.3053
 1860poe    c23 9352   7.040   5.610   2.506  0.1866  0.1820  0.5236
 1860poe     o2 9353   6.922   5.547   2.462  0.4915 -0.5929  0.7960
 1860poe    c23 9354   6.934   5.422   2.526  0.3508 -0.4826  1.0374
 1860poe    c23 9355   6.808   5.341   2.491  0.3158  0.1991 -0.4401
 1860poe     o2 9356   6.706   5.435   2.465  0.0867 -0.1127 -0.6877
 1860poe    c23 9357   6.612   5.373   2.381 -0.0338 -0.4485 -0.3071
 1860poe    c23 9358   6.510   5.487   2.362  0.3237 -0.0300  0.2534
 1860poe     o2 9359   6.570   5.609   2.325  0.1786 -0.0771 -0.1507
 1860poe    c31 9360   6.490   5.724   2.344  0.1805 -0.1051  0.0315
 1861poe    c31 9361   3.196   2.350   5.129 -0.8593 -0.1493 -0.0166
 1861poe     o2 9362   3.302   2.264   5.163 -0.3016  0.1011 -1.0927
 1861poe    c23 9363   3.421   2.281   5.088  0.3684  0.4466  0.0258
 1861poe    c23 9364   3.480   2.139   5.080  0.0243  0.3278 -0.4194
 1861poe     o2 9365   3.497   2.095   5.213  0.2301 -0.1618 -0.6071
 1861poe    c23 9366   3.559   1.968   5.216  0.1011 -0.2131 -0.1392
 1861poe    c23 9367   3.548   1.913   5.360  0.1669 -0.2962 -0.1658
 1861poe     o2 9368   3.419   1.934   5.414  0.2428 -0.3994  0.0545
 1861poe    c23 9369   3.392   1.865   5.534 -0.2725 -0.0892  0.1183
 1861poe    c23 9370   3.470   1.925   5.652  0.3235  0.0066 -0.3190
 1861poe     o2 9371   3.442   2.054   5.702  0.3910 -0.0301 -0.1852
 1861poe    c31 9372   3.471   2.067   5.839  0.2674 -0.4776 -0.1155
 1862poe    c31 9373   0.995   2.198   3.744  0.4718 -0.1058  0.5556
 1862poe     o2 9374   1.080   2.090   3.712 -0.0528 -0.3054 -0.1936
 1862poe    c23 9375   1.072   2.002   3.821  0.1492 -0.2657 -0.1462
 1862poe    c23 9376   1.172   1.887   3.802  0.1574 -0.3195  0.2155
 1862poe     o2 9377   1.306   1.926   3.824  0.0475  0.2000 -0.0326
 1862poe    c23 9378   1.390   1.819   3.788  0.2525  0.1991  0.4374
 1862poe    c23 9379   1.534   1.872   3.794  0.0061  0.8370  0.8053
 1862poe     o2 9380   1.551   1.990   3.719  0.4833  0.5604  0.4688
 1862poe    c23 9381   1.684   2.037   3.717  0.7403 -0.1772  0.0406
 1862poe    c23 9382   1.678   2.164   3.630  0.1845  0.3727  0.8649
 1862poe     o2 9383   1.567   2.239   3.671  0.0738  0.3857  0.5456
 1862poe    c31 9384   1.548   2.363   3.606 -0.7402 -0.2633 -0.4750
 1863poe    c31 9385   4.084   6.962   2.942  0.2879  0.1654  0.5257
 1863poe     o2 9386   4.069   6.823   2.962 -0.0251 -0.0089 -0.8320
 1863poe    c23 9387   4.198   6.766   2.960 -0.0124 -0.0107 -0.1073
 1863poe    c23 9388   4.169   6.619   2.925  0.2211 -0.0804 -0.0034
 1863poe     o2 9389   4.059   6.576   3.002  0.0017  0.2255 -0.1475
 1863poe    c23 9390   4.046   6.437   3.019 -0.3421  0.2735 -0.0006
 1863poe    c23 9391   3.982   6.420   3.158 -0.1498 -0.0012  0.0565
 1863poe     o2 9392   3.847   6.459   3.147  0.0226  0.4521 -0.5348
 1863poe    c23 9393   3.766   6.427   3.258  0.2981 -0.7528 -0.6657
 1863poe    c23 9394   3.615   6.450   3.237  0.3605  0.2543 -0.0599
 1863poe     o2 9395   3.592   6.579   3.185 -0.2193  0.0395 -0.3465
 1863poe    c31 9396   3.455   6.602   3.165 -0.3265 -0.7559 -0.5377
 1864poe    c31 9397   1.440   3.597   2.889 -0.0154 -0.0865  0.0874
 1864poe     o2 9398   1.518   3.492   2.836  0.1653  0.1627 -0.1474
 1864poe    c23 9399   1.656   3.516   2.829  0.1261  0.4033 -0.1044
 1864poe    c23 9400   1.724   3.401   2.751 -0.3460  0.2010 -0.2215
 1864poe     o2 9401   1.668   3.284   2.807  0.2115 -0.1005 -0.2861
 1864poe    c23 9402   1.654   3.186   2.707 -0.6885 -0.4384  0.1675
 1864poe    c23 9403   1.725   3.056   2.750  0.1146 -0.0862 -0.0921
 1864poe     o2 9404   1.659   3.014   2.867  0.4583  0.3065  0.2440
 1864poe    c23 9405   1.717   2.890   2.899  0.1133  0.0146 -0.2499
 1864poe    c23 9406   1.622   2.855   3.015  0.3307 -0.3265 -0.1729
 1864poe     o2 9407   1.634   2.973   3.090 -0.2544  0.1420 -0.7987
 1864poe    c31 9408   1.601   2.936   3.222  0.3612 -0.3017 -0.7607
 1865poe    c31 9409   1.718   0.640   3.369  0.2995  0.4709 -0.5588
 1865poe     o2 9410   1.767   0.513   3.332  0.0150  0.0925  0.3448
 1865poe    c23 9411   1.903   0.514   3.368  0.1500 -0.0290 -0.1622
 1865poe    c23 9412   1.960   0.390   3.296  0.3554 -0.1277  0.1680
 1865poe     o2 9413   1.863   0.293   3.329  0.0009  0.1690  0.0062
 1865poe    c23 9414   1.892   0.160   3.290 -0.3146  0.0232  0.2587
 1865poe    c23 9415   1.768   0.075   3.322 -0.0883 -0.4567 -0.1241
 1865poe     o2 9416   1.660   0.151   3.273  0.4116  0.0471 -0.4498
 1865poe    c23 9417   1.534   0.090   3.287  0.5703 -0.2266 -0.2025
 1865poe    c23 9418   1.429   0.188   3.230  0.8183  0.0133 -0.2491
 1865poe     o2 9419   1.453   0.319   3.274  0.4990  0.0621 -0.2153
 1865poe    c31 9420   1.327   0.381   3.287  0.6037  0.2655 -0.1475
 1866poe    c31 9421   2.143   5.935   0.327 -0.6671 -0.1115 -0.0958
 1866poe     o2 9422   2.033   5.916   0.241 -0.1331 -0.6643 -0.6688
 1866poe    c23 9423   1.924   6.002   0.266  0.1141 -0.5058 -0.1178
 1866poe    c23 9424   1.788   5.932   0.255 -0.4592  0.5397  0.2032
 1866poe     o2 9425   1.774   5.861   0.134  0.4094  0.0050  0.4094
 1866poe    c23 9426   1.643   5.809   0.135  0.5684 -0.3911  0.7772
 1866poe    c23 9427   1.622   5.714   0.016  0.1666 -0.0130  0.5439
 1866poe     o2 9428   1.675   5.585   0.039 -0.1481 -0.2434 -0.0027
 1866poe    c23 9429   1.587   5.480   0.071  0.0627 -0.3685  0.1663
 1866poe    c23 9430   1.643   5.355   0.142 -0.1701 -0.7138 -0.2527
 1866poe     o2 9431   1.677   5.379   0.277  0.0850 -0.1074 -0.4219
 1866poe    c31 9432   1.713   5.261   0.344  0.1557 -0.1723 -0.5723
 1867poe    c31 9433   4.981   6.357   2.321  0.4349 -0.2221 -0.2360
 1867poe     o2 9434   4.866   6.417   2.265  0.3992 -0.0606  0.0111
 1867poe    c23 9435   4.857   6.542   2.330 -0.2448 -0.1718  0.1437
 1867poe    c23 9436   4.746   6.615   2.251  0.5808  0.6295 -0.3003
 1867poe     o2 9437   4.767   6.583   2.116 -0.2863 -0.6455 -0.1483
 1867poe    c23 9438   4.653   6.615   2.039  0.1826 -0.0912 -0.6217
 1867poe    c23 9439   4.690   6.594   1.891  0.1154 -0.6790 -0.5561
 1867poe     o2 9440   4.764   6.474   1.889  0.4409 -0.5218  0.7588
 1867poe    c23 9441   4.740   6.416   1.763  0.1398  0.6830  0.2431
 1867poe    c23 9442   4.812   6.280   1.746 -0.1607  0.5465  0.0472
 1867poe     o2 9443   4.952   6.292   1.752 -0.1087  0.0211 -0.1598
 1867poe    c31 9444   5.004   6.170   1.703 -0.2874 -0.2821  0.4022
 1868poe    c31 9445   5.178   1.618   2.082  0.5273 -0.0927  0.0496
 1868poe     o2 9446   5.287   1.695   2.034  0.0725  0.5333  0.0118
 1868poe    c23 9447   5.356   1.775   2.128  0.2706  0.4626 -0.0740
 1868poe    c23 9448   5.423   1.702   2.246  0.1826  0.4032 -0.0608
 1868poe     o2 9449   5.509   1.607   2.187 -0.5356 -0.3277  0.0438
 1868poe    c23 9450   5.645   1.625   2.218 -0.3697  0.3646 -1.0193
 1868poe    c23 9451   5.742   1.543   2.132  0.0263 -0.3358  0.0802
 1868poe     o2 9452   5.667   1.453   2.054 -0.5319 -0.3688  0.6466
 1868poe    c23 9453   5.755   1.351   2.014 -0.2121 -0.0136  0.4356
 1868poe    c23 9454   5.690   1.212   2.031 -0.2948 -0.0623 -0.2456
 1868poe     o2 9455   5.586   1.196   1.937 -0.2645  0.3122 -0.3441
 1868poe    c31 9456   5.501   1.103   2.001  0.8694 -0.5250 -0.0307
 1869poe    c31 9457   0.479   0.620   2.962  0.2570 -0.7526  1.0878
 1869poe     o2 9458   0.482   0.717   3.065 -0.2186  0.3237  0.1228
 1869poe    c23 9459   0.577   0.819   3.047  0.1169 -0.0570 -0.3128
 1869poe    c23 9460   0.612   0.868   3.189  0.2921  0.5025 -0.5439
 1869poe     o2 9461   0.491   0.897   3.256  0.0968  0.5349 -0.9053
 1869poe    c23 9462   0.523   0.956   3.380 -0.1798 -0.7974 -0.1794
 1869poe    c23 9463   0.396   1.021   3.438  0.3427 -0.0677  0.1743
 1869poe     o2 9464   0.286   0.933   3.425  0.0954  0.3439 -0.5300
 1869poe    c23 9465   0.175   1.011   3.463  0.0730  0.0243  0.0638
 1869poe    c23 9466   0.046   0.936   3.424  0.3195 -0.2794 -0.1711
 1869poe     o2 9467   0.009   0.926   3.288 -0.4050 -0.4918  0.0393
 1869poe    c31 9468  -0.045   1.044   3.233  0.4235 -0.1366 -0.0281
 1870poe    c31 9469   0.403   6.809   6.667  0.0334  0.5617 -0.8389
 1870poe     o2 9470   0.263   6.814   6.686  0.1747 -0.1133  0.4735
 1870poe    c23 9471   0.202   6.689   6.710  0.1397 -0.2580 -0.3360
 1870poe    c23 9472   0.053   6.717   6.738  0.3716  0.3203  0.3731
 1870poe     o2 9473  -0.003   6.795   6.634  0.3621  0.5104  0.5215
 1870poe    c23 9474  -0.143   6.799   6.641  0.2890 -0.5568 -0.1456
 1870poe    c23 9475  -0.193   6.894   6.530 -0.0813  0.0778  0.5516
 1870poe     o2 9476  -0.104   7.001   6.509 -0.3532  0.2371  0.2005
 1870poe    c23 9477  -0.157   7.110   6.438 -0.0535 -0.1935 -0.7008
 1870poe    c23 9478  -0.044   7.214   6.428 -0.1268 -0.1187 -0.7571
 1870poe     o2 9479   0.068   7.189   6.345  0.2147 -0.7810 -0.1056
 1870poe    c31 9480   0.156   7.297   6.364 -0.7445  0.0017  0.0084
 1871poe    c31 9481   1.951   3.042   6.689  0.4808 -0.2705  0.3220
 1871poe     o2 9482   1.986   2.940   6.781 -0.1262 -0.4834  0.3235
 1871poe    c23 9483   1.901   2.953   6.892 -0.8136  0.1101 -0.2552
 1871poe    c23 9484   1.936   2.849   7.001  0.3583  0.6017 -0.1507
 1871poe     o2 9485   2.068   2.853   7.049  0.4916  0.0571 -0.4644
 1871poe    c23 9486   2.100   2.758   7.148 -0.0074  0.0772 -0.2844
 1871poe    c23 9487   2.249   2.772   7.180 -0.0795  0.6696 -0.2015
 1871poe     o2 9488   2.308   2.745   7.055 -0.1245 -0.1844 -0.0442
 1871poe    c23 9489   2.445   2.716   7.070 -0.2798 -0.7960  0.2322
 1871poe    c23 9490   2.504   2.670   6.935  0.3517  0.1945  0.1589
 1871poe     o2 9491   2.461   2.772   6.847 -0.0031  0.0976  0.2203
 1871poe    c31 9492   2.514   2.746   6.719  0.1136 -0.2522  0.3394
 1872poe    c31 9493   1.173   3.837   6.162 -0.4753  0.4710  0.0639
 1872poe     o2 9494   1.204   3.731   6.074 -0.1805  0.6023  0.0108
 1872poe    c23 9495   1.090   3.665   6.024  0.0083 -0.1225  0.5267
 1872poe    c23 9496   1.126   3.518   5.995  0.0117  0.1303 -0.8042
 1872poe     o2 9497   1.238   3.514   5.909  0.6117 -0.0042 -0.0232
 1872poe    c23 9498   1.269   3.391   5.846  0.1099  0.2182 -0.7208
 1872poe    c23 9499   1.403   3.390   5.770  0.4081  0.1934 -0.2029
 1872poe     o2 9500   1.491   3.473   5.842  0.0601  0.2758  0.1298
 1872poe    c23 9501   1.614   3.471   5.773 -0.0739  0.7070 -0.1212
 1872poe    c23 9502   1.729   3.507   5.868 -0.0959 -0.5137  0.3871
 1872poe     o2 9503   1.709   3.631   5.934  0.5035 -0.1342 -0.1344
 1872poe    c31 9504   1.822   3.659   6.014  0.2987 -0.7918  0.3936
 1873poe    c31 9505   0.991   5.234   0.213  0.6737 -0.0880 -0.2557
 1873poe     o2 9506   0.910   5.319   0.291  0.6632 -0.2857 -0.0493
 1873poe    c23 9507   0.941   5.299   0.427 -0.1262 -0.0021  0.1773
 1873poe    c23 9508   0.813   5.297   0.512  0.1678  0.2950  0.6336
 1873poe     o2 9509   0.736   5.396   0.447  0.3435 -0.0382 -0.0923
 1873poe    c23 9510   0.610   5.409   0.509  0.3542 -0.7356  0.0857
 1873poe    c23 9511   0.528   5.497   0.413  0.5162 -0.5933  0.0768
 1873poe     o2 9512   0.543   5.455   0.279 -0.0897  0.2953 -0.2731
 1873poe    c23 9513   0.551   5.574   0.202 -0.1521  0.1623 -0.4865
 1873poe    c23 9514   0.613   5.534   0.067  0.0925 -0.9002 -0.0718
 1873poe     o2 9515   0.731   5.464   0.096  0.7238  0.3122  0.3476
 1873poe    c31 9516   0.850   5.523   0.047  0.5171  0.3694 -0.0865
 1874poe    c31 9517   5.616   5.625   4.202  0.2310 -0.5048 -0.3760
 1874poe     o2 9518   5.695   5.742   4.193 -0.5978  0.0872 -0.1275
 1874poe    c23 9519   5.630   5.832   4.281  0.2108 -0.0893  0.6664
 1874poe    c23 9520   5.709   5.962   4.307  0.2810  0.0417 -0.1519
 1874poe     o2 9521   5.836   5.936   4.361  0.2717  0.4687  0.0758
 1874poe    c23 9522   5.873   6.031   4.459 -0.1756  0.5291  0.1859
 1874poe    c23 9523   6.008   5.988   4.519  0.1349  0.7665 -0.3395
 1874poe     o2 9524   6.120   6.023   4.440  0.5752 -0.1435 -0.1292
 1874poe    c23 9525   6.224   5.939   4.485  0.2682 -0.2840  0.3223
 1874poe    c23 9526   6.335   5.916   4.382  0.6511 -0.0294  0.6765
 1874poe     o2 9527   6.353   5.778   4.355  0.0624  0.0170  0.0187
 1874poe    c31 9528   6.440   5.764   4.245 -0.2098 -0.4005 -0.1479
 1875poe    c31 9529   1.203   1.293   2.782  0.6232 -0.3716  0.7188
 1875poe     o2 9530   1.323   1.363   2.808  0.2427  0.6891 -0.3000
 1875poe    c23 9531   1.415   1.363   2.702  0.0065 -0.1437 -0.5164
 1875poe    c23 9532   1.543   1.425   2.761 -0.1179 -0.1459 -0.2423
 1875poe     o2 9533   1.605   1.350   2.863  0.1287  0.4091  0.0238
 1875poe    c23 9534   1.692   1.430   2.939  0.0784  0.0653  0.4477
 1875poe    c23 9535   1.787   1.340   3.021  0.0379  0.4775  0.9510
 1875poe     o2 9536   1.715   1.284   3.129 -0.1501 -0.0959  0.5331
 1875poe    c23 9537   1.785   1.196   3.213 -0.0624 -0.1845  0.3681
 1875poe    c23 9538   1.688   1.172   3.331  0.2152 -0.8211  0.4739
 1875poe     o2 9539   1.567   1.124   3.277  0.2605  0.0139 -0.4089
 1875poe    c31 9540   1.482   1.060   3.370  0.2588  0.1500 -0.3157
 1876poe    c31 9541   1.076   6.486   0.046 -0.0840  0.7348  0.2147
 1876poe     o2 9542   1.131   6.616   0.039  0.2929  0.5594 -0.1170
 1876poe    c23 9543   1.270   6.592   0.052  0.1756  0.2149  0.5791
 1876poe    c23 9544   1.373   6.706   0.050 -0.1490  0.5045 -0.3310
 1876poe     o2 9545   1.358   6.793   0.160  0.3187  0.0567  0.0912
 1876poe    c23 9546   1.379   6.928   0.125  0.1614  0.3162  0.9707
 1876poe    c23 9547   1.290   7.020   0.211 -0.4026  0.1020  0.6239
 1876poe     o2 9548   1.161   7.013   0.156 -0.1547  0.0903  0.0338
 1876poe    c23 9549   1.073   7.080   0.244 -0.2110 -0.1241  0.1408
 1876poe    c23 9550   0.923   7.051   0.222 -0.2355 -0.0836  0.2514
 1876poe     o2 9551   0.856   7.138   0.134 -0.3018 -0.0747  0.3107
 1876poe    c31 9552   0.716   7.140   0.154 -0.3991 -0.7679 -0.2562
 1877poe    c31 9553   4.088   4.988   3.348 -0.4129  0.3068  0.1301
 1877poe     o2 9554   3.962   5.012   3.289 -0.3724 -0.0103 -0.0854
 1877poe    c23 9555   3.859   5.007   3.384  0.0014 -0.6382  0.2915
 1877poe    c23 9556   3.846   5.095   3.510 -0.5860 -0.0735 -0.1573
 1877poe     o2 9557   3.809   5.225   3.472 -0.1811  0.2747  0.6189
 1877poe    c23 9558   3.906   5.321   3.508  0.0368  0.1164  0.4567
 1877poe    c23 9559   3.860   5.459   3.457 -0.2446 -0.1414  0.0075
 1877poe     o2 9560   3.867   5.475   3.317 -0.5352 -0.1295 -0.0067
 1877poe    c23 9561   3.860   5.609   3.273 -0.4318 -0.1595 -0.1160
 1877poe    c23 9562   3.827   5.623   3.123  0.1055 -0.5988 -0.2780
 1877poe     o2 9563   3.711   5.562   3.071  0.0061 -0.3195 -0.3835
 1877poe    c31 9564   3.689   5.637   2.954  0.0138  0.0398 -0.1594
 1878poe    c31 9565   6.887   3.472   6.137 -0.3514  0.6745 -0.2455
 1878poe     o2 9566   6.750   3.503   6.156 -0.4248  0.3023 -0.1604
 1878poe    c23 9567   6.671   3.391   6.123 -0.2490  0.0543  0.2535
 1878poe    c23 9568   6.627   3.311   6.247 -0.0872 -0.3775  0.0342
 1878poe     o2 9569   6.503   3.357   6.296 -0.0682 -0.5919  0.2849
 1878poe    c23 9570   6.460   3.269   6.398 -0.7406 -0.8150 -0.1874
 1878poe    c23 9571   6.367   3.336   6.501 -0.0843 -0.3897  0.1288
 1878poe     o2 9572   6.237   3.360   6.454 -0.0168 -0.0133  0.1342
 1878poe    c23 9573   6.166   3.420   6.560  0.2622 -0.1456  0.3954
 1878poe    c23 9574   6.037   3.478   6.500  0.0477 -0.9591  0.0610
 1878poe     o2 9575   6.057   3.477   6.360  0.2267  0.2697  0.0740
 1878poe    c31 9576   5.943   3.519   6.289 -0.1444 -1.1736 -0.2029
 1879poe    c31 9577   3.104   0.543   4.463  0.3844  0.3353 -0.3475
 1879poe     o2 9578   3.090   0.412   4.514  0.2955  0.3762 -0.2662
 1879poe    c23 9579   3.121   0.316   4.415  0.7731  0.3217 -0.0638
 1879poe    c23 9580   3.108   0.174   4.472 -0.5450  0.4869  0.0761
 1879poe     o2 9581   2.988   0.175   4.545 -0.1950 -0.2936  0.6703
 1879poe    c23 9582   2.920   0.051   4.560  0.0509 -0.5654 -0.4116
 1879poe    c23 9583   2.810   0.061   4.666  0.3000  0.1749 -0.2141
 1879poe     o2 9584   2.865   0.104   4.789 -0.0305 -0.7058  0.2501
 1879poe    c23 9585   2.801   0.057   4.906 -0.4633 -0.4501  0.1167
 1879poe    c23 9586   2.830   0.160   5.017  0.2112  0.1872 -0.6276
 1879poe     o2 9587   2.774   0.281   4.970  0.1759  0.3042 -0.2857
 1879poe    c31 9588   2.795   0.389   5.058  0.1695 -0.0956  0.2131
 1880poe    c31 9589   1.209   2.408   6.587 -0.3734  0.1221 -0.1439
 1880poe     o2 9590   1.292   2.513   6.543 -0.0621 -0.1391 -0.1816
 1880poe    c23 9591   1.240   2.639   6.581  0.1798 -0.1559  0.2152
 1880poe    c23 9592   1.366   2.722   6.612  0.0581  0.1470 -0.1012
 1880poe     o2 9593   1.433   2.748   6.491 -0.2402 -0.3610 -0.3802
 1880poe    c23 9594   1.545   2.834   6.503 -0.0749 -0.6209 -0.0633
 1880poe    c23 9595   1.640   2.813   6.383 -0.2884  0.4616 -0.4329
 1880poe     o2 9596   1.565   2.826   6.264 -0.4512  0.3384 -0.3448
 1880poe    c23 9597   1.649   2.824   6.151  0.3438 -0.2763  0.2350
 1880poe    c23 9598   1.584   2.748   6.034 -0.0681  0.5403 -0.0773
 1880poe     o2 9599   1.446   2.733   6.057 -0.0346  0.3804  0.0174
 1880poe    c31 9600   1.391   2.679   5.939 -0.1063  0.2578  0.1058
 1881poe    c31 9601   2.347   0.892   5.693  0.0762 -0.0722 -0.2808
 1881poe     o2 9602   2.375   1.028   5.671 -0.4692  0.0197 -0.4127
 1881poe    c23 9603   2.270   1.107   5.724 -0.3963 -0.3981  0.3646
 1881poe    c23 9604   2.284   1.259   5.741  0.5613 -0.4287 -0.0614
 1881poe     o2 9605   2.244   1.324   5.623  0.1289 -0.4942  0.0481
 1881poe    c23 9606   2.312   1.446   5.603 -0.2899 -0.3546 -0.6066
 1881poe    c23 9607   2.342   1.477   5.456  0.4378 -0.0334 -0.3993
 1881poe     o2 9608   2.218   1.482   5.389  0.1243 -0.3581  0.1513
 1881poe    c23 9609   2.243   1.453   5.253  0.1795 -0.1139  0.1081
 1881poe    c23 9610   2.116   1.455   5.166 -0.1335  0.2141  0.5676
 1881poe     o2 9611   2.045   1.577   5.157  0.4145  0.4670 -0.4234
 1881poe    c31 9612   1.939   1.576   5.064  0.1769 -0.1696 -0.1559
 1882poe    c31 9613   6.508   6.602   6.234  0.8373  0.2978  0.1753
 1882poe     o2 9614   6.534   6.677   6.118  0.3304 -0.7480 -0.6297
 1882poe    c23 9615   6.585   6.805   6.148  0.4621 -0.8406 -0.4616
 1882poe    c23 9616   6.637   6.877   6.023 -0.2184 -0.6047 -0.6137
 1882poe     o2 9617   6.533   6.941   5.953  0.3254  0.9830 -0.0102
 1882poe    c23 9618   6.579   7.006   5.836 -0.0402  0.1432 -0.6316
 1882poe    c23 9619   6.467   7.033   5.734 -0.4696  0.6997 -0.0242
 1882poe     o2 9620   6.390   6.927   5.683  0.5175 -0.1018  0.1278
 1882poe    c23 9621   6.318   6.954   5.565  0.1187  0.0891  0.4140
 1882poe    c23 9622   6.198   6.862   5.592  0.1809 -0.2177 -0.3145
 1882poe     o2 9623   6.245   6.754   5.670  0.1007 -0.3529 -0.4527
 1882poe    c31 9624   6.161   6.644   5.644  0.1203 -0.4999  0.0921
 1883poe    c31 9625   3.471   4.150   1.749 -0.0971 -0.0245  0.4194
 1883poe     o2 9626   3.333   4.175   1.769 -0.1884 -0.0749 -0.1379
 1883poe    c23 9627   3.306   4.312   1.782  0.0551 -0.0873  0.5264
 1883poe    c23 9628   3.177   4.353   1.857  0.0985  0.9779  0.0358
 1883poe     o2 9629   3.062   4.311   1.786  0.3857  0.3391 -0.0616
 1883poe    c23 9630   2.990   4.411   1.718 -0.5464  0.0378  0.4742
 1883poe    c23 9631   2.858   4.354   1.662  0.1405 -0.4378 -0.6882
 1883poe     o2 9632   2.904   4.233   1.606 -0.0465 -0.5846 -0.5266
 1883poe    c23 9633   2.801   4.180   1.526 -0.7742  0.0017  0.0117
 1883poe    c23 9634   2.854   4.051   1.461 -0.5103 -0.0610  0.3469
 1883poe     o2 9635   2.937   3.973   1.543 -0.6553 -0.1542  0.4065
 1883poe    c31 9636   2.966   3.848   1.484  0.3042  0.2359  0.0244
 1884poe    c31 9637   4.554   1.647   2.909 -0.0218 -0.3642  0.6837
 1884poe     o2 9638   4.419   1.640   2.949 -0.2341 -0.0721  0.0365
 1884poe    c23 9639   4.368   1.528   2.880  0.6930 -0.1644 -0.5139
 1884poe    c23 9640   4.235   1.491   2.947  1.0259  0.2960  0.4211
 1884poe     o2 9641   4.143   1.598   2.952  0.3666 -0.2594  0.3293
 1884poe    c23 9642   4.016   1.575   3.009  0.1440  0.4156  0.1159
 1884poe    c23 9643   3.933   1.705   3.002 -0.1271  0.2163 -0.3998
 1884poe     o2 9644   4.006   1.801   3.076  0.1169 -0.0388 -0.3077
 1884poe    c23 9645   3.923   1.910   3.110  0.5851  0.3477 -0.3921
 1884poe    c23 9646   4.028   2.014   3.151  0.3495  0.2341  0.5123
 1884poe     o2 9647   4.119   2.030   3.045 -0.1087 -0.2225  0.0461
 1884poe    c31 9648   4.174   2.158   3.024 -0.3062  0.0160  0.9376
 1885poe    c31 9649   5.354   4.396   5.298 -0.2379  0.1612  0.0312
 1885poe     o2 9650   5.425   4.484   5.215 -0.1816 -0.3805 -0.4950
 1885poe    c23 9651   5.339   4.551   5.126 -0.4579 -0.2964 -0.1642
 1885poe    c23 9652   5.363   4.702   5.107 -0.1332 -0.3413 -0.1222
 1885poe     o2 9653   5.287   4.801   5.174  0.1778  0.1515 -0.4889
 1885poe    c23 9654   5.245   4.918   5.108 -0.6408  0.0345 -0.1897
 1885poe    c23 9655   5.161   5.024   5.181  0.0965  0.6438 -0.2088
 1885poe     o2 9656   5.034   4.968   5.208  0.1405  0.5958 -0.1028
 1885poe    c23 9657   4.935   5.067   5.217 -0.2398  0.1832  0.3242
 1885poe    c23 9658   4.811   5.033   5.302 -0.1090  0.4350  0.6215
 1885poe     o2 9659   4.863   5.017   5.432 -0.1310  0.1754  0.5981
 1885poe    c31 9660   4.756   5.062   5.512 -0.8382  0.2117 -0.3467
 1886poe    c31 9661   0.600   3.591   2.540  0.7913 -1.0983 -0.1792
 1886poe     o2 9662   0.626   3.571   2.677 -0.3097  0.1007  0.2245
 1886poe    c23 9663   0.532   3.472   2.713 -0.0312 -0.1514  0.2579
 1886poe    c23 9664   0.482   3.477   2.859  0.1321 -0.1908  0.3154
 1886poe     o2 9665   0.416   3.596   2.896 -0.3142 -0.3985  0.1984
 1886poe    c23 9666   0.333   3.572   3.008 -0.1922  0.1608  0.4111
 1886poe    c23 9667   0.340   3.694   3.102  0.8830  0.6219 -0.2405
 1886poe     o2 9668   0.471   3.707   3.153  0.8547  0.6495 -0.1747
 1886poe    c23 9669   0.484   3.805   3.254 -0.1543  0.2607  0.3414
 1886poe    c23 9670   0.629   3.821   3.303  0.0185  0.0207 -0.0834
 1886poe     o2 9671   0.712   3.826   3.189 -0.4278  0.6987 -0.3876
 1886poe    c31 9672   0.830   3.888   3.234 -0.3369  0.2595 -0.0145
 1887poe    c31 9673   4.766   2.332   2.822  0.1329  0.0002  0.2469
 1887poe     o2 9674   4.672   2.419   2.881 -0.1248  0.0077 -0.1717
 1887poe    c23 9675   4.561   2.444   2.798  0.0639 -0.0936 -0.4576
 1887poe    c23 9676   4.453   2.510   2.886  0.3010  0.1349 -0.3370
 1887poe     o2 9677   4.488   2.635   2.940 -0.1174  0.1934 -0.2014
 1887poe    c23 9678   4.415   2.652   3.060 -0.0973  0.2988 -0.2044
 1887poe    c23 9679   4.441   2.793   3.117 -0.3362  0.4795 -0.5351
 1887poe     o2 9680   4.575   2.827   3.088 -0.1371  0.1572 -0.0215
 1887poe    c23 9681   4.614   2.951   3.143  0.3249 -0.1564  0.3568
 1887poe    c23 9682   4.742   2.994   3.068  0.0834  0.0085  0.0419
 1887poe     o2 9683   4.716   2.963   2.933  0.0196  0.7317 -0.1198
 1887poe    c31 9684   4.842   2.959   2.869  0.1962  0.0551  0.2635
 1888poe    c31 9685   6.002   2.915   4.163  0.2482  0.4494 -0.7151
 1888poe     o2 9686   6.040   2.786   4.120  0.2073  0.2403 -0.1398
 1888poe    c23 9687   5.948   2.746   4.020 -0.1367  0.0143  0.2614
 1888poe    c23 9688   5.955   2.595   3.992  0.1146  0.1043 -0.1736
 1888poe     o2 9689   5.921   2.512   4.101 -0.4566 -0.0518 -0.4681
 1888poe    c23 9690   5.929   2.377   4.061 -0.2148 -0.1079 -0.2315
 1888poe    c23 9691   6.062   2.314   4.017 -0.0897  0.2229 -0.3219
 1888poe     o2 9692   6.165   2.334   4.111 -0.0881  0.3176 -0.3433
 1888poe    c23 9693   6.278   2.275   4.051  0.1794  0.3339  0.1384
 1888poe    c23 9694   6.357   2.235   4.177  0.0957 -0.4431 -0.0471
 1888poe     o2 9695   6.353   2.330   4.282  0.0232 -0.4657 -0.0302
 1888poe    c31 9696   6.432   2.316   4.398 -0.4331  0.2341  0.3734
 1889poe    c31 9697   5.823   1.991   2.595  0.2850  0.3544 -0.0867
 1889poe     o2 9698   5.833   2.103   2.510 -0.1231  0.2123 -0.3201
 1889poe    c23 9699   5.783   2.214   2.581  0.0561  0.0933 -0.0075
 1889poe    c23 9700   5.816   2.351   2.519  0.0047  0.2436  0.2980
 1889poe     o2 9701   5.955   2.375   2.515  0.1088 -0.3313  0.4584
 1889poe    c23 9702   5.990   2.506   2.478 -0.7431 -0.3600 -0.4896
 1889poe    c23 9703   6.090   2.506   2.361  0.2432 -0.0226  0.3381
 1889poe     o2 9704   6.208   2.445   2.408  0.2889 -0.0901  0.1374
 1889poe    c23 9705   6.311   2.436   2.312  0.2235 -0.2529  0.0811
 1889poe    c23 9706   6.411   2.339   2.378  0.4550 -0.0757 -0.0071
 1889poe     o2 9707   6.331   2.230   2.419 -0.4278  0.6439  0.2083
 1889poe    c31 9708   6.415   2.135   2.479 -0.1020  0.5631 -0.3675
 1890poe    c31 9709   5.094   0.027   0.435 -0.3459  0.4659  0.2599
 1890poe     o2 9710   5.183   0.089   0.346  0.2694  0.4783  0.8775
 1890poe    c23 9711   5.317   0.059   0.380  0.2231 -0.3229  0.3680
 1890poe    c23 9712   5.418   0.047   0.265  0.2457  0.0943  0.3422
 1890poe     o2 9713   5.468   0.176   0.239  0.9138 -0.2438 -0.0967
 1890poe    c23 9714   5.509   0.177   0.104  0.2213 -0.2272 -0.3140
 1890poe    c23 9715   5.520   0.325   0.064 -0.1254 -0.0480  0.2430
 1890poe     o2 9716   5.626   0.374   0.145 -0.2046  0.2862  0.1444
 1890poe    c23 9717   5.654   0.509   0.115 -0.2840  0.2527 -0.0847
 1890poe    c23 9718   5.784   0.558   0.181 -0.4846  0.4593  0.1610
 1890poe     o2 9719   5.755   0.541   0.318 -0.2190 -0.5560  0.1045
 1890poe    c31 9720   5.858   0.604   0.391  0.1328 -0.4724 -0.4571
 1891poe    c31 9721   2.253   2.071   6.138  0.3537  0.3797 -0.2634
 1891poe     o2 9722   2.125   2.015   6.157  0.3183  0.5126 -0.1082
 1891poe    c23 9723   2.143   1.875   6.162  0.0338  0.4897  0.3590
 1891poe    c23 9724   2.025   1.827   6.247  0.0470  0.0139  0.1108
 1891poe     o2 9725   1.908   1.902   6.225  0.1504  0.0170 -0.4259
 1891poe    c23 9726   1.796   1.844   6.288  0.0333  0.5408 -0.1507
 1891poe    c23 9727   1.672   1.935   6.278 -0.3906 -0.0270 -0.1174
 1891poe     o2 9728   1.693   2.047   6.362 -0.2124 -0.4461  0.4024
 1891poe    c23 9729   1.589   2.142   6.369 -0.4416 -0.7223  0.7899
 1891poe    c23 9730   1.609   2.252   6.475 -0.3046 -0.0090  0.0322
 1891poe     o2 9731   1.728   2.323   6.452 -0.6513  0.4172 -0.4990
 1891poe    c31 9732   1.740   2.433   6.539  0.0416  0.7797 -1.0474
 1892poe    c31 9733   2.689   0.408   4.219  0.3106  0.4099 -0.1341
 1892poe     o2 9734   2.660   0.422   4.082 -0.0560  0.1368 -0.0860
 1892poe    c23 9735   2.758   0.372   3.994 -0.2862 -0.1231 -0.1963
 1892poe    c23 9736   2.724   0.403   3.847 -0.0636  0.7452 -0.0687
 1892poe     o2 9737   2.606   0.329   3.828  0.2854  0.2518 -0.3273
 1892poe    c23 9738   2.561   0.300   3.697 -0.4612  0.4951 -0.1305
 1892poe    c23 9739   2.410   0.310   3.672 -0.4376 -0.7960 -0.8266
 1892poe     o2 9740   2.355   0.432   3.717  0.2574 -0.3957 -1.0512
 1892poe    c23 9741   2.233   0.445   3.648 -0.3294 -0.4983 -0.0622
 1892poe    c23 9742   2.114   0.424   3.742 -0.1006 -0.9968  0.1205
 1892poe     o2 9743   2.102   0.514   3.850 -0.2375  0.0132 -0.7214
 1892poe    c31 9744   1.971   0.497   3.900 -0.0596  0.0636 -0.2282
 1893poe    c31 9745   1.739   4.435   3.222  0.6485 -0.3709  0.2786
 1893poe     o2 9746   1.716   4.305   3.173 -0.2955 -0.1883  0.2108
 1893poe    c23 9747   1.786   4.220   3.260  0.6908  0.0463 -0.3285
 1893poe    c23 9748   1.792   4.075   3.207  0.2899 -0.0975  0.0138
 1893poe     o2 9749   1.793   4.068   3.066 -0.2525 -0.5335  0.0287
 1893poe    c23 9750   1.752   3.939   3.025 -0.7665 -0.4005  0.1121
 1893poe    c23 9751   1.762   3.892   2.879  0.8662 -0.1974  0.1407
 1893poe     o2 9752   1.734   3.999   2.791 -0.3292 -0.4938  0.1550
 1893poe    c23 9753   1.708   3.950   2.661 -0.3230 -0.3651  0.1054
 1893poe    c23 9754   1.820   3.878   2.582 -0.1216  0.0376  0.0230
 1893poe     o2 9755   1.904   3.976   2.527 -0.1337 -0.1496 -0.3291
 1893poe    c31 9756   1.983   3.914   2.429  0.2890  0.1230 -0.1670
 1894poe    c31 9757   4.272   6.696   0.335 -0.2095 -0.5956 -0.1247
 1894poe     o2 9758   4.259   6.556   0.327  0.2531 -0.6828  0.5765
 1894poe    c23 9759   4.151   6.539   0.238  0.3545  0.4061  0.2358
 1894poe    c23 9760   4.032   6.471   0.308  0.3269  0.6619  0.4418
 1894poe     o2 9761   3.925   6.479   0.217  0.4621  0.3870  0.2548
 1894poe    c23 9762   3.826   6.385   0.252  0.4833  0.1032 -0.4383
 1894poe    c23 9763   3.701   6.399   0.162  0.5895 -0.1917 -0.6341
 1894poe     o2 9764   3.692   6.319   0.046  0.1861 -0.7526 -0.2249
 1894poe    c23 9765   3.596   6.368  -0.045  0.4457 -0.0156 -0.1169
 1894poe    c23 9766   3.604   6.495  -0.131 -0.0872  0.2472  0.2148
 1894poe     o2 9767   3.591   6.617  -0.062  0.1525  0.4848 -0.1520
 1894poe    c31 9768   3.554   6.703  -0.167  0.2162  0.4337 -0.2168
 1895poe    c31 9769   2.072   1.239   0.173 -0.2387 -0.0022 -0.0538
 1895poe     o2 9770   2.137   1.114   0.175  0.3991  0.3264  0.1663
 1895poe    c23 9771   2.239   1.095   0.079 -0.3611  0.3450 -0.6597
 1895poe    c23 9772   2.316   0.962   0.091 -0.6297  0.2288 -0.2204
 1895poe     o2 9773   2.254   0.840   0.060 -0.3384  0.0344 -0.0400
 1895poe    c23 9774   2.340   0.729   0.077 -0.2797  0.0510 -0.2278
 1895poe    c23 9775   2.283   0.632   0.182 -0.2604  0.7017  0.3919
 1895poe     o2 9776   2.150   0.608   0.142  0.0551 -0.4564 -0.0129
 1895poe    c23 9777   2.062   0.552   0.238  0.0486 -0.1390  0.1674
 1895poe    c23 9778   1.949   0.511   0.142  0.5686  0.1643 -0.5924
 1895poe     o2 9779   1.908   0.617   0.060 -0.6061  0.4636  0.3523
 1895poe    c31 9780   1.785   0.583  -0.001 -0.4371 -0.0037  0.2703
 1896poe    c31 9781   4.401   3.867   5.249  0.5457  0.1214 -0.4539
 1896poe     o2 9782   4.349   3.806   5.134  0.2570 -0.1576 -0.1750
 1896poe    c23 9783   4.365   3.666   5.144 -0.2610 -0.1809  0.3960
 1896poe    c23 9784   4.347   3.625   4.997 -0.3661  0.7426  0.1472
 1896poe     o2 9785   4.448   3.676   4.913  0.0015 -0.3285 -0.0791
 1896poe    c23 9786   4.442   3.609   4.789 -0.6587 -0.0975 -0.1772
 1896poe    c23 9787   4.461   3.708   4.672 -0.6122 -0.0757 -0.1510
 1896poe     o2 9788   4.565   3.798   4.706 -0.3804 -0.3302 -0.1794
 1896poe    c23 9789   4.604   3.887   4.605  0.2943 -0.4958 -0.0691
 1896poe    c23 9790   4.713   3.978   4.665  0.2329 -0.0687 -0.5957
 1896poe     o2 9791   4.668   4.006   4.796  0.9167  0.4309 -0.4636
 1896poe    c31 9792   4.743   4.103   4.866  0.2665  0.6516 -0.0685
 1897poe    c31 9793   2.256   4.632   5.672 -0.1727 -0.8273 -0.6288
 1897poe     o2 9794   2.170   4.741   5.698  0.7278 -0.3352  0.3609
 1897poe    c23 9795   2.171   4.770   5.836  0.6229 -0.1062  0.3127
 1897poe    c23 9796   2.094   4.901   5.865  0.1924 -0.1002 -0.8145
 1897poe     o2 9797   1.961   4.893   5.819  0.3347  0.0488 -1.2626
 1897poe    c23 9798   1.896   5.004   5.876  0.7676  0.1281 -0.9157
 1897poe    c23 9799   1.756   5.019   5.814  0.1028 -0.0716  0.4954
 1897poe     o2 9800   1.689   4.896   5.831  0.0719 -0.1376 -0.1028
 1897poe    c23 9801   1.549   4.917   5.834  0.0512 -0.3640  0.8738
 1897poe    c23 9802   1.502   4.772   5.859 -0.4192 -0.3960 -0.1148
 1897poe     o2 9803   1.568   4.687   5.768  0.2460 -0.0533  0.0405
 1897poe    c31 9804   1.489   4.574   5.741  0.7617 -0.4410  0.1351
 1898poe    c31 9805   6.670   6.756   2.232 -0.4879 -0.2828 -0.3823
 1898poe     o2 9806   6.645   6.885   2.181 -0.5065 -0.2150 -0.1979
 1898poe    c23 9807   6.672   6.910   2.045  0.0087  0.4623  0.0242
 1898poe    c23 9808   6.619   7.051   2.014  0.2879  0.5829  0.0949
 1898poe     o2 9809   6.479   7.057   2.004  0.2599 -0.1105  0.0012
 1898poe    c23 9810   6.438   7.177   1.941  0.2123 -0.1227  0.0089
 1898poe    c23 9811   6.285   7.191   1.955  0.1350 -0.0670 -0.8475
 1898poe     o2 9812   6.234   7.076   1.891 -0.4551 -0.1095 -0.3036
 1898poe    c23 9813   6.096   7.060   1.912 -0.3869  0.0817  0.3144
 1898poe    c23 9814   6.045   6.921   1.867  0.2022  0.0742 -0.3354
 1898poe     o2 9815   6.153   6.834   1.893 -0.0752  0.0269  0.6920
 1898poe    c31 9816   6.111   6.703   1.862  0.2083  0.0393  0.2375
 1899poe    c31 9817   2.877   6.678   3.983  0.6507 -0.1816  1.1131
 1899poe     o2 9818   2.974   6.582   4.016  0.3317 -0.8105  0.2532
 1899poe    c23 9819   3.102   6.640   4.028 -0.0505  0.0525  0.2518
 1899poe    c23 9820   3.195   6.525   4.073 -0.0779  0.0227  0.2316
 1899poe     o2 9821   3.110   6.431   4.136  0.0827 -0.7054 -0.6129
 1899poe    c23 9822   3.185   6.324   4.187  0.5594 -0.0710  0.0380
 1899poe    c23 9823   3.095   6.228   4.267  0.1656  0.2292 -0.0460
 1899poe     o2 9824   2.982   6.205   4.186  0.3930  0.1094 -0.3299
 1899poe    c23 9825   2.912   6.089   4.225 -0.0126  0.4707  0.0345
 1899poe    c23 9826   2.783   6.056   4.147  0.2086 -0.5336  0.0846
 1899poe     o2 9827   2.822   6.038   4.013  0.1931 -0.1815  0.0340
 1899poe    c31 9828   2.702   6.006   3.946  0.0294  0.4110  0.0400
 1900poe    c31 9829   1.551   0.825   0.986  0.1658  0.2703  0.4867
 1900poe     o2 9830   1.559   0.942   0.907  0.4819 -0.1347 -0.0846
 1900poe    c23 9831   1.668   0.946   0.818  0.3852  0.5057 -0.1756
 1900poe    c23 9832   1.664   1.065   0.720 -0.2340  0.7782  0.1809
 1900poe     o2 9833   1.542   1.070   0.649  0.2444 -0.5326 -0.7468
 1900poe    c23 9834   1.527   1.199   0.595  0.2551 -0.3612 -0.3432
 1900poe    c23 9835   1.393   1.219   0.523  0.0249 -0.1357  0.1432
 1900poe     o2 9836   1.291   1.148   0.590 -0.1815 -0.4338 -0.4685
 1900poe    c23 9837   1.166   1.159   0.526 -0.3853 -0.1191 -0.0259
 1900poe    c23 9838   1.142   1.021   0.461 -0.2219 -0.2952  0.2844
 1900poe     o2 9839   1.150   0.922   0.561  0.6720 -0.2547  0.2595
 1900poe    c31 9840   1.026   0.856   0.570  0.2442  0.3978 -0.6546
 1901poe    c31 9841   6.274   7.088   6.068  0.9128  0.5728  0.2954
 1901poe     o2 9842   6.203   7.197   6.015  0.4638 -0.1658 -0.6405
 1901poe    c23 9843   6.097   7.162   5.929  0.1922  0.0001 -0.3751
 1901poe    c23 9844   6.011   7.274   5.866 -0.1651 -0.0257  0.0570
 1901poe     o2 9845   6.078   7.357   5.774 -0.4929  0.1924  0.0157
 1901poe    c23 9846   6.098   7.315   5.641  0.4887  0.7217 -0.0154
 1901poe    c23 9847   6.085   7.428   5.537 -0.2330  0.5777 -0.0846
 1901poe     o2 9848   6.169   7.519   5.603  0.0384  0.1241  0.2028
 1901poe    c23 9849   6.150   7.653   5.563 -0.1102 -0.1031 -0.5038
 1901poe    c23 9850   6.284   7.729   5.569 -0.3046  0.1943  0.2074
 1901poe     o2 9851   6.346   7.691   5.690  0.0188 -0.4375 -0.1554
 1901poe    c31 9852   6.484   7.718   5.682 -0.0745  0.0460 -0.1460
 1902poe    c31 9853   6.670   3.447   0.553  0.4240  0.1347  0.6538
 1902poe     o2 9854   6.631   3.359   0.450  0.3722  0.1309  0.6770
 1902poe    c23 9855   6.738   3.284   0.398  0.1119  0.3433 -0.1843
 1902poe    c23 9856   6.710   3.244   0.252 -0.5601  0.2752 -0.0383
 1902poe     o2 9857   6.618   3.138   0.266  0.1915 -0.3589  0.1716
 1902poe    c23 9858   6.602   3.093   0.133 -0.0130 -0.1119  0.1131
 1902poe    c23 9859   6.475   3.006   0.130  0.0032 -0.1214 -0.6278
 1902poe     o2 9860   6.356   3.070   0.169  0.1426 -0.4687  0.4006
 1902poe    c23 9861   6.251   2.981   0.138 -0.1733 -0.0109  0.1455
 1902poe    c23 9862   6.129   3.063   0.186 -0.3412 -0.3040  0.2203
 1902poe     o2 9863   6.154   3.136   0.303 -0.7223  0.4196 -0.1438
 1902poe    c31 9864   6.031   3.167   0.365 -0.4309  0.4322  0.4334
 1903poe    c31 9865   2.696   3.415   6.274 -0.3255 -0.0906  0.0824
 1903poe     o2 9866   2.564   3.387   6.315 -0.2596  0.0942  0.4178
 1903poe    c23 9867   2.524   3.507   6.378 -0.0761  0.0147  0.6914
 1903poe    c23 9868   2.375   3.534   6.407 -0.2124 -0.0788  0.0898
 1903poe     o2 9869   2.290   3.540   6.294 -0.0634 -0.0744 -0.0223
 1903poe    c23 9870   2.159   3.587   6.314 -0.1011  0.1196 -0.6951
 1903poe    c23 9871   2.124   3.737   6.305  0.1448  0.2150 -0.1163
 1903poe     o2 9872   2.112   3.766   6.168 -0.0933  0.0045 -0.1403
 1903poe    c23 9873   2.160   3.897   6.146 -0.4895  0.2629  0.5271
 1903poe    c23 9874   2.063   3.965   6.049 -0.3603 -0.3019 -0.0077
 1903poe     o2 9875   2.090   3.941   5.913 -0.2201 -0.4165  0.0408
 1903poe    c31 9876   1.973   3.981   5.844  0.0549 -0.0238 -0.2089
 1904poe    c31 9877   5.331   1.242   1.236 -0.3249  0.5748 -0.5392
 1904poe     o2 9878   5.435   1.156   1.193  0.6021  1.3260  0.1377
 1904poe    c23 9879   5.434   1.134   1.054  0.3471  0.1622  0.3088
 1904poe    c23 9880   5.442   0.984   1.020  0.2749  0.0722  0.6879
 1904poe     o2 9881   5.525   0.914   1.110  0.4246 -0.1296  0.3945
 1904poe    c23 9882   5.462   0.787   1.112  0.4109 -0.1588 -0.9119
 1904poe    c23 9883   5.503   0.709   1.238 -0.6654  0.0172 -0.4340
 1904poe     o2 9884   5.468   0.754   1.367  0.3757 -0.1856 -0.0656
 1904poe    c23 9885   5.451   0.652   1.463  0.2379 -0.0856  0.0175
 1904poe    c23 9886   5.568   0.570   1.521  0.5900  0.1084 -0.4074
 1904poe     o2 9887   5.643   0.631   1.624  0.2144 -0.0511 -0.0377
 1904poe    c31 9888   5.737   0.542   1.680  0.6102  0.2446 -0.2376
 1905poe    c31 9889   5.858   0.772   3.392  0.0801 -0.5450 -0.4680
 1905poe     o2 9890   5.736   0.756   3.324 -0.0963 -1.3791  0.0226
 1905poe    c23 9891   5.749   0.745   3.184 -0.3611  0.1907 -0.1459
 1905poe    c23 9892   5.607   0.762   3.127 -0.1858  0.8088 -0.4055
 1905poe     o2 9893   5.548   0.872   3.193  0.3453  0.2834  0.9590
 1905poe    c23 9894   5.412   0.878   3.156  0.6435 -0.0796 -0.2430
 1905poe    c23 9895   5.367   1.006   3.228  0.4610 -0.2296 -0.0892
 1905poe     o2 9896   5.403   1.015   3.364  0.1507  0.4369 -0.0471
 1905poe    c23 9897   5.305   1.089   3.435  0.2125  0.0977  0.3950
 1905poe    c23 9898   5.236   0.999   3.540 -0.3027  0.2114  0.1549
 1905poe     o2 9899   5.328   0.922   3.614  0.1337  0.8979  0.3403
 1905poe    c31 9900   5.272   0.877   3.735 -0.4720  0.0309 -0.2408
 1906poe    c31 9901   3.393   6.250   4.812  0.6646  0.4207  0.2674
 1906poe     o2 9902   3.342   6.346   4.901  0.4687  0.3799  0.1995
 1906poe    c23 9903   3.327   6.464   4.826  0.2425  0.0374 -0.2957
 1906poe    c23 9904   3.218   6.547   4.897  0.0166  0.0871 -0.6919
 1906poe     o2 9905   3.240   6.552   5.037 -0.4247 -0.1181 -0.6143
 1906poe    c23 9906   3.132   6.599   5.114  0.1262  0.5409 -0.2313
 1906poe    c23 9907   3.146   6.572   5.265  0.0711  0.3916 -0.2519
 1906poe     o2 9908   3.281   6.608   5.285  0.0901  0.4012 -0.3960
 1906poe    c23 9909   3.340   6.589   5.412  0.0282 -0.2988 -0.4689
 1906poe    c23 9910   3.455   6.692   5.416 -0.0628 -0.2061 -0.2755
 1906poe     o2 9911   3.550   6.674   5.314 -0.0085 -0.0148 -0.2587
 1906poe    c31 9912   3.650   6.774   5.308 -0.3439  0.3199 -0.3249
 1907poe    c31 9913   1.541   0.386   5.544 -0.0498  0.2050  0.3160
 1907poe     o2 9914   1.590   0.517   5.527 -0.0896  0.1141 -0.5602
 1907poe    c23 9915   1.715   0.529   5.591 -0.4964  0.0365  0.2576
 1907poe    c23 9916   1.780   0.663   5.551  0.0180 -0.2655  0.0702
 1907poe     o2 9917   1.686   0.765   5.576 -0.2632 -0.5131  0.0297
 1907poe    c23 9918   1.653   0.796   5.709  0.2436 -0.3020  0.1080
 1907poe    c23 9919   1.550   0.909   5.725  0.1814 -0.3849  0.2995
 1907poe     o2 9920   1.420   0.895   5.672  0.0457  0.2171  0.4696
 1907poe    c23 9921   1.345   1.014   5.688 -0.2927  0.0523  0.1364
 1907poe    c23 9922   1.235   1.008   5.581 -0.0030 -0.0357 -0.1587
 1907poe     o2 9923   1.176   0.880   5.581 -0.4083  0.1496 -0.1853
 1907poe    c31 9924   1.061   0.876   5.499 -0.3184  0.5458 -0.3315
 1908poe    c31 9925   0.821   6.278   6.422  0.6028  0.1056 -0.1653
 1908poe     o2 9926   0.800   6.352   6.304  0.2270  0.7686  0.3029
 1908poe    c23 9927   0.792   6.257   6.200 -0.3520  0.3787  0.6986
 1908poe    c23 9928   0.768   6.319   6.061  0.3716  0.1815  0.4803
 1908poe     o2 9929   0.877   6.395   6.013  0.1368  0.2394  0.0340
 1908poe    c23 9930   0.963   6.325   5.927 -0.4812  0.3705 -0.7023
 1908poe    c23 9931   1.035   6.432   5.843  0.6469 -0.0218 -0.2615
 1908poe     o2 9932   1.056   6.545   5.924 -0.2884 -0.2546  0.3249
 1908poe    c23 9933   1.103   6.645   5.837  0.2145 -0.7902 -0.0228
 1908poe    c23 9934   1.100   6.770   5.926 -0.4979  0.1141 -1.2771
 1908poe     o2 9935   0.978   6.770   5.996  0.1226 -0.2359 -0.1746
 1908poe    c31 9936   0.959   6.881   6.082  0.1782 -0.0303 -0.4264
 1909poe    c31 9937   2.558   7.130   1.276 -0.0694  0.5799  0.0622
 1909poe     o2 9938   2.505   7.258   1.300 -0.1338  0.6195 -0.2995
 1909poe    c23 9939   2.615   7.343   1.324  0.1904  0.1049  0.0586
 1909poe    c23 9940   2.547   7.481   1.323 -0.2462 -0.1075  0.2170
 1909poe     o2 9941   2.416   7.467   1.375 -0.4995  0.2532 -0.3063
 1909poe    c23 9942   2.356   7.591   1.407  0.1372  0.5713 -0.3177
 1909poe    c23 9943   2.241   7.567   1.506  0.3316 -0.0900 -0.2438
 1909poe     o2 9944   2.142   7.479   1.459  0.4611 -0.3077 -0.1080
 1909poe    c23 9945   2.048   7.427   1.551  0.6314 -0.0613  0.2081
 1909poe    c23 9946   1.955   7.327   1.480  0.1187  0.2078  0.4973
 1909poe     o2 9947   2.036   7.229   1.419 -0.6181 -0.4641  0.5742
 1909poe    c31 9948   1.946   7.137   1.362 -0.1974 -0.6484  0.2005
 1910poe    c31 9949   3.059   6.678   0.460  0.0313  0.0232 -0.7027
 1910poe     o2 9950   3.189   6.729   0.479 -0.1861  0.4071 -0.2219
 1910poe    c23 9951   3.234   6.781   0.356 -0.3047 -0.3680 -0.5979
 1910poe    c23 9952   3.224   6.933   0.339  0.2248 -0.2967 -0.2882
 1910poe     o2 9953   3.281   6.996   0.452 -0.4762  0.3182 -0.2699
 1910poe    c23 9954   3.251   7.127   0.494  0.5196  0.4914 -0.0718
 1910poe    c23 9955   3.364   7.185   0.581  0.4039  0.3307  0.1853
 1910poe     o2 9956   3.397   7.077   0.665 -0.4094  0.0824  0.1948
 1910poe    c23 9957   3.478   7.124   0.770  0.1005  0.6562 -0.4499
 1910poe    c23 9958   3.496   7.009   0.870  0.2406  0.6646 -0.4653
 1910poe     o2 9959   3.556   6.888   0.829 -0.6794 -0.0052  0.1179
 1910poe    c31 9960   3.552   6.779   0.919  0.7187 -0.4011 -0.2792
 1911poe    c31 9961   4.198   6.405   6.349 -0.0360  0.0362 -0.4114
 1911poe     o2 9962   4.195   6.546   6.347 -0.0983  0.0486  0.1550
 1911poe    c23 9963   4.287   6.606   6.436 -0.3656  0.4409  0.1709
 1911poe    c23 9964   4.313   6.758   6.439  0.1176  0.3759 -0.4096
 1911poe     o2 9965   4.410   6.797   6.533  0.0156 -0.1995 -0.0593
 1911poe    c23 9966   4.422   6.932   6.493 -0.0385 -0.0464  0.4281
 1911poe    c23 9967   4.437   7.020   6.618  0.1434 -0.1390  0.4718
 1911poe     o2 9968   4.558   7.004   6.688  0.3033 -0.0172  0.2217
 1911poe    c23 9969   4.561   7.106   6.784 -0.2318  0.0895  0.1280
 1911poe    c23 9970   4.686   7.086   6.872  0.0477 -0.0849 -0.3085
 1911poe     o2 9971   4.685   6.963   6.940 -0.3693 -0.0303 -0.2135
 1911poe    c31 9972   4.743   6.972   7.068  0.4590 -0.7722 -0.5233
 1912poe    c31 9973   1.841   0.139   1.872 -0.4361  0.1583 -0.8629
 1912poe     o2 9974   1.975   0.127   1.830 -0.2032  0.4092 -0.2040
 1912poe    c23 9975   2.021   0.001   1.876  0.0603  0.6126  0.0926
 1912poe    c23 9976   2.168  -0.016   1.835 -0.2084  0.2544 -0.7491
 1912poe     o2 9977   2.269   0.069   1.884 -0.0101 -0.2944 -0.2010
 1912poe    c23 9978   2.299   0.032   2.017 -0.3721 -0.0077 -0.0375
 1912poe    c23 9979   2.416   0.119   2.066 -0.1449  0.1733 -0.8852
 1912poe     o2 9980   2.392   0.258   2.054 -0.1011  0.2649  0.0050
 1912poe    c23 9981   2.511   0.332   2.071 -0.1717  0.3180  0.2641
 1912poe    c23 9982   2.457   0.471   2.031 -0.9288  0.0983  0.5069
 1912poe     o2 9983   2.408   0.440   1.903  0.4148 -0.8599  0.1976
 1912poe    c31 9984   2.373   0.553   1.826 -0.1874 -0.5781  0.8719
 1913poe    c31 9985   3.853   6.600   0.701 -0.0474  0.5130 -0.1825
 1913poe     o2 9986   3.957   6.695   0.706  0.4137  0.0052 -0.0891
 1913poe    c23 9987   4.076   6.625   0.674  0.2894 -0.0438 -0.4477
 1913poe    c23 9988   4.198   6.710   0.715  0.2322 -0.3017  0.2710
 1913poe     o2 9989   4.184   6.838   0.658  0.2106 -0.3905  0.0752
 1913poe    c23 9990   4.280   6.938   0.686 -0.3007  0.0232  0.3658
 1913poe    c23 9991   4.213   7.071   0.648 -0.5044 -0.1593  0.0769
 1913poe     o2 9992   4.083   7.078   0.704 -0.3981  0.1362  0.2891
 1913poe    c23 9993   4.032   7.210   0.702  0.1382  0.3466  0.0676
 1913poe    c23 9994   3.997   7.240   0.849 -0.0597  0.0811  0.0756
 1913poe     o2 9995   3.917   7.159   0.933 -0.5695 -0.0021 -0.4809
 1913poe    c31 9996   3.897   7.228   1.054  0.2551  0.1181 -0.4033
 1914poe    c31 9997   1.119   3.579   6.480  0.0256 -0.1723 -0.1077
 1914poe     o2 9998   1.217   3.593   6.580 -0.1773 -0.1424  0.0900
 1914poe    c23 9999   1.159   3.656   6.692  0.3637  0.0797  0.2485
 1914poe    c2310000   1.262   3.681   6.803  0.1230 -0.1009  0.5136
 1914poe     o210001   1.387   3.729   6.757 -0.1330  0.0413 -0.0314
 1914poe    c2310002   1.467   3.771   6.864 -0.0977 -0.5527  0.1800
 1914poe    c2310003   1.601   3.829   6.816 -0.3067  0.3455  0.6445
 1914poe     o210004   1.637   3.740   6.712  0.1927  0.4724  0.7070
 1914poe    c2310005   1.766   3.776   6.668 -0.1353  0.5530 -0.2009
 1914poe    c2310006   1.797   3.680   6.551 -0.6432 -0.1659  0.2464
 1914poe     o210007   1.714   3.704   6.441 -0.1424 -0.1080 -0.1233
 1914poe    c3110008   1.719   3.611   6.334 -0.1686  0.2867 -0.4697
 1915poe    c3110009   0.581   4.208   3.156  0.4165  0.0283  0.5772
 1915poe     o210010   0.591   4.331   3.223  0.1799  0.2216  0.2552
 1915poe    c2310011   0.708   4.349   3.299 -0.3162  0.4154  0.9810
 1915poe    c2310012   0.699   4.496   3.344 -0.3114  0.7785 -0.1791
 1915poe     o210013   0.579   4.527   3.412 -0.0980  0.3205  0.4095
 1915poe    c2310014   0.563   4.664   3.443  0.3489  0.3881  0.3570
 1915poe    c2310015   0.419   4.690   3.491  0.1065 -0.1648 -0.0593
 1915poe     o210016   0.323   4.662   3.391 -0.1879 -0.1684  0.2213
 1915poe    c2310017   0.194   4.660   3.447 -0.1338  0.5317  0.3816
 1915poe    c2310018   0.100   4.626   3.330  0.5211 -0.1918  0.0565
 1915poe     o210019   0.118   4.504   3.262  0.0851 -0.1757 -0.0928
 1915poe    c3110020   0.030   4.491   3.153  0.0897 -0.6592 -0.0410
 1916poe    c3110021   5.359   3.714   5.160  0.2478 -0.1260 -0.5073
 1916poe     o210022   5.392   3.793   5.047  0.3604 -0.0001 -0.3860
 1916poe    c2310023   5.489   3.713   4.982  1.3384  0.7729  0.0845
 1916poe    c2310024   5.477   3.755   4.834  0.6912 -0.0418 -0.1014
 1916poe     o210025   5.344   3.726   4.799  0.6848  0.1714 -0.2577
 1916poe    c2310026   5.346   3.734   4.658  0.1825  0.2055 -0.2664
 1916poe    c2310027   5.225   3.655   4.606 -0.0681  0.2174  0.2909
 1916poe     o210028   5.113   3.698   4.679 -0.3542 -0.2042  0.1080
 1916poe    c2310029   4.989   3.697   4.611 -0.4178  0.3658  0.2090
 1916poe    c2310030   4.872   3.662   4.705 -0.0835  0.1799  0.5578
 1916poe     o210031   4.926   3.555   4.780  0.1220  0.4422  0.7850
 1916poe    c3110032   4.827   3.470   4.833  0.5497 -0.6322 -0.1081
 1917poe    c3110033   4.918   5.814   6.154 -0.0071 -0.0870  0.4826
 1917poe     o210034   4.852   5.704   6.097  0.3915  0.2880 -0.7257
 1917poe    c2310035   4.874   5.677   5.960  0.1329  0.0415 -0.7201
 1917poe    c2310036   4.774   5.566   5.921 -0.4098  0.3196 -0.1466
 1917poe     o210037   4.827   5.437   5.940  0.2246  0.6539  0.3838
 1917poe    c2310038   4.735   5.344   5.888  0.3299  0.6045  0.2875
 1917poe    c2310039   4.737   5.217   5.974  0.0499  0.3349 -0.1021
 1917poe     o210040   4.691   5.226   6.107 -0.1695  0.6933 -0.2016
 1917poe    c2310041   4.557   5.186   6.115  0.0518  0.1085  0.6613
 1917poe    c2310042   4.534   5.121   6.253 -0.4401 -0.1013  0.4861
 1917poe     o210043   4.593   5.218   6.338 -0.6027  0.6428 -0.2366
 1917poe    c3110044   4.573   5.186   6.474  0.2543  0.8285 -0.0647
 1918poe    c3110045   6.853   3.789   2.419 -0.1909 -0.4814 -0.1534
 1918poe     o210046   6.966   3.707   2.437 -0.1137 -0.3613 -0.0887
 1918poe    c2310047   6.961   3.605   2.534  0.3588 -0.1014  0.2115
 1918poe    c2310048   7.108   3.563   2.550  0.2092 -0.5847  0.3648
 1918poe     o210049   7.171   3.579   2.425 -0.0565  0.8857  0.3927
 1918poe    c2310050   7.277   3.487   2.409 -1.1825 -0.2821 -0.5878
 1918poe    c2310051   7.324   3.494   2.262  0.5650  0.0375 -0.0388
 1918poe     o210052   7.304   3.623   2.211  0.1026  0.1059  0.3015
 1918poe    c2310053   7.364   3.668   2.091 -0.2971  0.2291  0.1470
 1918poe    c2310054   7.332   3.576   1.971 -0.1284  0.5205 -0.1218
 1918poe     o210055   7.198   3.598   1.933 -0.1487  0.3075 -0.1764
 1918poe    c3110056   7.158   3.529   1.818  0.2592  0.1310 -0.2141
 1919poe    c3110057   6.356   1.373   3.191 -0.4141  0.4707 -0.3566
 1919poe     o210058   6.311   1.403   3.321  0.5946  0.8829 -0.0887
 1919poe    c2310059   6.398   1.352   3.419  0.5770  0.5957 -0.2204
 1919poe    c2310060   6.324   1.295   3.541  0.3936  0.1429 -0.5380
 1919poe     o210061   6.255   1.395   3.613  0.0382 -0.4142 -0.0959
 1919poe    c2310062   6.182   1.337   3.718  0.5121 -0.4262  0.2302
 1919poe    c2310063   6.088   1.423   3.804 -0.1128 -0.2937 -0.5787
 1919poe     o210064   5.983   1.472   3.724 -0.2448  0.2283 -0.0975
 1919poe    c2310065   5.944   1.593   3.784  0.6962  0.5186 -0.0635
 1919poe    c2310066   5.869   1.677   3.680  0.1531  0.1125 -0.0029
 1919poe     o210067   5.961   1.742   3.596 -0.2832  0.2336 -0.3933
 1919poe    c3110068   5.893   1.860   3.559 -0.3063  0.2059 -0.4386
 1920poe    c3110069   6.115   5.635   3.184 -0.0600  0.6128  0.4324
 1920poe     o210070   6.078   5.618   3.319 -1.0320 -0.1717  0.0826
 1920poe    c2310071   6.161   5.692   3.406 -0.1878 -0.5754 -0.3666
 1920poe    c2310072   6.133   5.648   3.551 -0.0363  0.3983 -0.0395
 1920poe     o210073   5.992   5.650   3.559 -0.0486 -0.4215  0.0421
 1920poe    c2310074   5.955   5.560   3.661  0.2554 -0.3051  0.2556
 1920poe    c2310075   5.809   5.595   3.693  0.4333  0.8112 -0.1148
 1920poe     o210076   5.740   5.600   3.570 -0.1460 -0.1700  0.1592
 1920poe    c2310077   5.613   5.649   3.606 -0.0123 -0.0664  0.4978
 1920poe    c2310078   5.532   5.692   3.482  0.2683 -0.4495  0.1803
 1920poe     o210079   5.567   5.820   3.434 -0.1445 -0.2096  0.5166
 1920poe    c3110080   5.498   5.830   3.311  0.4167  0.4149  0.2419
 1921poe    c3110081   1.306   2.897   6.958  0.1287  0.3013  0.0782
 1921poe     o210082   1.240   2.996   7.033  0.0163  0.4248 -0.1833
 1921poe    c2310083   1.326   3.012   7.143  0.4356  0.0428 -0.4478
 1921poe    c2310084   1.276   3.104   7.257  0.8936  0.0059 -0.2161
 1921poe     o210085   1.287   3.236   7.209  0.1676  0.2192  0.1922
 1921poe    c2310086   1.216   3.323   7.294 -0.4965 -0.0695 -0.0518
 1921poe    c2310087   1.186   3.460   7.230  0.3373  0.0625 -0.1841
 1921poe     o210088   1.110   3.448   7.112  0.1522 -0.4073 -0.0199
 1921poe    c2310089   1.025   3.559   7.096  0.4328 -0.3306 -1.1027
 1921poe    c2310090   0.890   3.502   7.046 -0.1925  0.3289 -0.2061
 1921poe     o210091   0.911   3.436   6.924 -0.3553  0.0296 -0.0713
 1921poe    c3110092   0.796   3.400   6.849 -0.7036  1.0421 -0.0327
 1922poe    c3110093   4.825   5.454   1.482  0.5258  0.0242  0.2986
 1922poe     o210094   4.918   5.472   1.587  0.2087  0.8993  0.4380
 1922poe    c2310095   4.905   5.388   1.699  0.1575 -0.0416 -0.2564
 1922poe    c2310096   5.003   5.426   1.811  0.0791  0.0781 -0.2281
 1922poe     o210097   4.986   5.551   1.874 -0.6244 -0.1884  0.1122
 1922poe    c2310098   5.088   5.553   1.972 -0.3770 -0.5491 -0.1354
 1922poe    c2310099   5.078   5.688   2.045 -0.5815 -0.0733 -1.0222
 1922poe     o210100   5.089   5.804   1.966 -0.0301  0.4087 -0.2552
 1922poe    c2310101   5.039   5.924   2.022  0.0473  0.5761 -0.5395
 1922poe    c2310102   4.886   5.936   2.033  0.1021  0.8858 -0.0684
 1922poe     o210103   4.822   5.953   1.908  0.0610  0.6841 -0.0746
 1922poe    c3110104   4.689   5.915   1.934  0.1885  0.0906 -0.2622
 1923poe    c3110105   4.436   0.741   5.223  0.0057 -0.1534 -0.5585
 1923poe     o210106   4.298   0.763   5.234  0.1987  0.6402  0.4328
 1923poe    c2310107   4.262   0.779   5.369 -0.1662  0.7305  0.3259
 1923poe    c2310108   4.118   0.826   5.396 -0.2024  0.5060  0.5399
 1923poe     o210109   4.094   0.952   5.336  0.0814  0.1409 -0.3633
 1923poe    c2310110   3.976   1.014   5.383 -0.0918 -0.4842  0.0507
 1923poe    c2310111   3.981   1.154   5.319 -0.5795 -0.6221 -0.2891
 1923poe     o210112   3.979   1.159   5.178  0.1989  0.4277 -0.2754
 1923poe    c2310113   3.997   1.294   5.139 -0.2476  0.5118 -0.1978
 1923poe    c2310114   4.040   1.289   4.991 -0.2284 -0.1537 -0.1731
 1923poe     o210115   4.083   1.159   4.957 -0.0009 -0.2211  0.3611
 1923poe    c3110116   4.127   1.149   4.823 -0.6740 -0.1435  0.1308
 1924poe    c3110117   0.558   4.205   0.289  0.1877 -0.2783  0.0423
 1924poe     o210118   0.543   4.077   0.231 -0.1110 -0.2891  0.1384
 1924poe    c2310119   0.584   4.088   0.097 -0.0557  0.0169  0.1795
 1924poe    c2310120   0.632   3.952   0.043  0.1566  0.0611  0.2559
 1924poe     o210121   0.524   3.868   0.008  0.1008  0.2454 -0.0252
 1924poe    c2310122   0.577   3.786  -0.094 -0.1910  0.4924 -0.3761
 1924poe    c2310123   0.461   3.753  -0.189 -0.1849  0.0987 -0.2481
 1924poe     o210124   0.346   3.700  -0.128  0.1555 -0.4760 -0.0927
 1924poe    c2310125   0.232   3.699  -0.212  0.0177 -0.2575  0.0886
 1924poe    c2310126   0.125   3.609  -0.147 -0.2153 -0.1778 -0.1842
 1924poe     o210127   0.072   3.650  -0.023  0.6719 -0.0388  0.1584
 1924poe    c3110128  -0.005   3.549   0.038  0.1434  0.6239  0.6014
 1925poe    c3110129   4.620   2.545   3.882  0.0674 -0.2973  0.3547
 1925poe     o210130   4.546   2.660   3.846 -0.3796 -0.7149 -0.0667
 1925poe    c2310131   4.495   2.726   3.959  0.3471  0.5651 -0.4694
 1925poe    c2310132   4.419   2.855   3.922 -0.7254 -0.1488 -0.8221
 1925poe     o210133   4.501   2.966   3.891  0.1065 -0.2763  0.7773
 1925poe    c2310134   4.439   3.091   3.871  0.4506 -0.2350 -0.0835
 1925poe    c2310135   4.546   3.197   3.840 -0.3809  0.6785  0.1301
 1925poe     o210136   4.600   3.138   3.724 -0.4582  0.0352  0.4221
 1925poe    c2310137   4.635   3.244   3.638 -0.0677 -0.5378 -0.1359
 1925poe    c2310138   4.744   3.207   3.535  0.4200 -0.2168  0.2609
 1925poe     o210139   4.866   3.155   3.581  0.6002 -0.3842 -0.4009
 1925poe    c3110140   4.962   3.142   3.478  0.8616 -0.0474 -0.1989
 1926poe    c3110141   3.942   6.245   6.966 -0.5059  0.2580  0.1029
 1926poe     o210142   3.912   6.107   6.963 -0.2626  0.2070 -0.0301
 1926poe    c2310143   3.796   6.079   7.037 -0.2881  0.1285 -0.0993
 1926poe    c2310144   3.755   5.940   6.985  0.1260 -0.0388  0.0140
 1926poe     o210145   3.867   5.854   6.981  0.3628  0.2834 -0.3614
 1926poe    c2310146   3.840   5.727   6.928  0.1498  0.0225  0.3642
 1926poe    c2310147   3.957   5.635   6.969  0.1821 -0.2605 -0.3508
 1926poe     o210148   4.085   5.665   6.918  0.1181 -0.3296 -0.5523
 1926poe    c2310149   4.181   5.583   6.980  0.2274  0.0812 -0.1756
 1926poe    c2310150   4.324   5.612   6.931  0.3499 -0.5408 -0.1937
 1926poe     o210151   4.366   5.576   6.801 -0.1194 -0.0172 -0.4961
 1926poe    c3110152   4.395   5.438   6.802  0.2148  0.0554 -0.2808
 1927poe    c3110153   6.974   3.029   4.881 -0.3513 -0.0591 -0.4774
 1927poe     o210154   6.846   3.002   4.932  0.1194 -0.7209  0.3622
 1927poe    c2310155   6.769   2.918   4.849  0.2984 -0.1209 -0.4176
 1927poe    c2310156   6.632   2.886   4.911  0.6141 -0.5410  0.0798
 1927poe     o210157   6.632   2.888   5.052  0.2096 -0.3697  0.0811
 1927poe    c2310158   6.516   2.847   5.121 -0.0313 -0.1223 -0.1761
 1927poe    c2310159   6.539   2.915   5.257 -0.0481 -0.2046 -0.1322
 1927poe     o210160   6.672   2.899   5.301 -0.0450  0.0498 -0.0489
 1927poe    c2310161   6.683   2.943   5.435 -0.2187 -0.9712  0.3128
 1927poe    c2310162   6.792   2.866   5.512  0.5234 -0.2764 -0.0247
 1927poe     o210163   6.923   2.896   5.470  0.2780  0.6316 -0.1855
 1927poe    c3110164   7.015   2.869   5.574  0.3305 -0.2539 -0.4469
 1928poe    c3110165   3.148   2.806   1.529 -0.1086  0.1935  0.2564
 1928poe     o210166   3.261   2.762   1.459 -0.3494 -0.0166 -0.0027
 1928poe    c2310167   3.244   2.624   1.436  0.3484 -0.1341  0.1512
 1928poe    c2310168   3.335   2.562   1.329 -0.2129 -0.5234 -0.1097
 1928poe     o210169   3.320   2.622   1.202  0.1827 -0.0786  0.0466
 1928poe    c2310170   3.404   2.575   1.099  0.0327  0.0128 -0.1184
 1928poe    c2310171   3.441   2.702   1.020 -0.2441 -0.0341 -0.3239
 1928poe     o210172   3.322   2.774   0.997 -0.1807  0.1624 -0.0463
 1928poe    c2310173   3.321   2.845   0.875 -0.2255 -0.2519 -0.2895
 1928poe    c2310174   3.191   2.927   0.880  0.0991  0.2449  0.0054
 1928poe     o210175   3.181   3.016   0.989 -0.1402  0.5115 -0.2302
 1928poe    c3110176   3.065   3.096   0.997 -0.7773 -0.4305  0.1839
 1929poe    c3110177   5.513   4.967   5.783 -0.1081  0.1260  0.3261
 1929poe     o210178   5.586   4.853   5.744 -0.0988  0.1753  0.1990
 1929poe    c2310179   5.705   4.899   5.683 -0.1312  0.0469  0.0402
 1929poe    c2310180   5.812   4.795   5.644 -0.6617 -0.5415  0.1355
 1929poe     o210181   5.861   4.715   5.749 -0.0106 -0.0302  0.2306
 1929poe    c2310182   5.920   4.601   5.692 -0.4709 -0.2253  0.1382
 1929poe    c2310183   5.915   4.495   5.804  0.1806 -0.4121 -0.0061
 1929poe     o210184   5.968   4.556   5.920  0.4311 -0.3581 -0.1478
 1929poe    c2310185   5.979   4.477   6.036 -0.7511  0.1731  0.3400
 1929poe    c2310186   6.049   4.568   6.138 -0.1750  0.3517 -0.2064
 1929poe     o210187   6.009   4.701   6.115  0.6645  0.6069 -0.2127
 1929poe    c3110188   6.000   4.768   6.238  0.4167 -0.2218  0.2275
 1930poe    c3110189   3.965   5.264   0.259 -0.1650  0.9814  0.1634
 1930poe     o210190   3.853   5.191   0.305 -0.0248  0.2987 -0.5551
 1930poe    c2310191   3.755   5.275   0.362 -0.0514  0.1677 -0.4058
 1930poe    c2310192   3.638   5.187   0.408 -0.2094  0.2472 -0.6539
 1930poe     o210193   3.697   5.068   0.452 -0.4645  0.2817 -0.2132
 1930poe    c2310194   3.598   4.988   0.513 -0.1813  0.0391 -0.0672
 1930poe    c2310195   3.660   4.859   0.570  0.3581  0.2390 -0.1990
 1930poe     o210196   3.703   4.775   0.466 -0.4449  0.1359 -0.4524
 1930poe    c2310197   3.779   4.666   0.513  0.2628  0.7649 -0.1101
 1930poe    c2310198   3.871   4.599   0.409 -0.0090  0.1984  0.0081
 1930poe     o210199   3.994   4.664   0.387 -0.0851  0.0276 -0.9390
 1930poe    c3110200   4.077   4.587   0.302 -0.3565 -1.0878 -0.2062
 1931poe    c3110201   5.286   6.226   2.199  0.1657 -0.8832  0.1765
 1931poe     o210202   5.351   6.331   2.132  0.4650 -0.6295  0.8504
 1931poe    c2310203   5.465   6.371   2.204  0.8640 -1.1479  0.5047
 1931poe    c2310204   5.579   6.446   2.132  0.0888  0.2161  0.6794
 1931poe     o210205   5.542   6.564   2.064  0.0867  0.0194  0.3379
 1931poe    c2310206   5.658   6.619   2.005 -0.2465  0.3048 -0.0552
 1931poe    c2310207   5.625   6.765   1.971  0.6629  0.3355 -0.8467
 1931poe     o210208   5.487   6.772   1.943  0.5648  0.7255 -0.2796
 1931poe    c2310209   5.436   6.898   1.907  0.6642  0.6462 -0.7043
 1931poe    c2310210   5.295   6.872   1.850  0.3459 -0.2664  0.4550
 1931poe     o210211   5.230   6.800   1.952  0.5650 -0.8038  0.2156
 1931poe    c3110212   5.100   6.778   1.902  0.3456 -0.0017  0.4220
 1932poe    c3110213   1.139   4.936   2.899 -0.8143  0.0699  0.4040
 1932poe     o210214   1.129   5.043   2.808  0.0838  0.2902  0.5536
 1932poe    c2310215   1.163   4.998   2.678  0.1043  0.7073  0.4124
 1932poe    c2310216   1.141   5.115   2.582  0.3036  0.1524 -0.3159
 1932poe     o210217   1.233   5.222   2.591  0.2480  0.1423  0.4372
 1932poe    c2310218   1.212   5.324   2.495  0.1423 -0.5731 -0.3140
 1932poe    c2310219   1.326   5.423   2.526 -0.2075 -0.1351 -0.4072
 1932poe     o210220   1.314   5.476   2.656 -0.2571  0.2777 -0.5802
 1932poe    c2310221   1.416   5.568   2.690 -0.0009 -0.3666  0.4116
 1932poe    c2310222   1.412   5.577   2.844 -0.8357  0.8348  0.3278
 1932poe     o210223   1.401   5.452   2.908  0.2734  0.4128 -0.2836
 1932poe    c3110224   1.381   5.476   3.046 -0.7145  0.4818 -0.4366
 1933poe    c3110225   0.367   4.515   0.516  0.2569  0.4941 -0.6035
 1933poe     o210226   0.250   4.522   0.438 -0.1993  0.3533  0.0636
 1933poe    c2310227   0.274   4.533   0.300 -0.1966 -0.0538  0.0313
 1933poe    c2310228   0.145   4.591   0.238  0.1161  0.1565 -0.4321
 1933poe     o210229   0.043   4.527   0.312 -0.0164  0.0125 -0.7417
 1933poe    c2310230  -0.090   4.549   0.271 -0.3554 -0.0188  0.3197
 1933poe    c2310231  -0.205   4.457   0.316 -0.7551  0.4657  0.2954
 1933poe     o210232  -0.241   4.470   0.452 -0.1233  0.4302  0.4697
 1933poe    c2310233  -0.358   4.393   0.470 -0.1908  0.4346  0.0659
 1933poe    c2310234  -0.372   4.376   0.622  0.5442 -0.1873  0.0722
 1933poe     o210235  -0.246   4.342   0.674  0.6714 -0.0756 -0.1640
 1933poe    c3110236  -0.271   4.343   0.813  0.7872 -0.6873 -0.1390
 1934poe    c3110237   3.160   2.151   2.155  0.7950  0.0797  0.6769
 1934poe     o210238   3.048   2.225   2.201  0.2923 -0.5065  0.4105
 1934poe    c2310239   2.964   2.119   2.242  0.2938 -0.6421  0.0687
 1934poe    c2310240   2.814   2.153   2.245  0.4365  0.0361 -0.1599
 1934poe     o210241   2.805   2.266   2.161  0.2826  0.0571 -0.1162
 1934poe    c2310242   2.671   2.294   2.129  0.0634 -0.0041  0.7250
 1934poe    c2310243   2.683   2.414   2.033 -0.0824  0.2322  0.9977
 1934poe     o210244   2.788   2.494   2.082  0.1131  0.2290  0.5862
 1934poe    c2310245   2.776   2.623   2.026 -0.0130  0.2800  0.7307
 1934poe    c2310246   2.885   2.726   2.059  0.4196 -0.0126  0.2330
 1934poe     o210247   3.006   2.674   2.009  0.0360 -0.0580 -0.6613
 1934poe    c3110248   3.107   2.771   2.027  0.0045 -0.2111  0.3622
 1935poe    c3110249   6.297   6.682   0.544 -0.3632  0.4136 -0.5193
 1935poe     o210250   6.353   6.653   0.418 -0.3230 -0.2813 -0.3437
 1935poe    c2310251   6.393   6.518   0.409  0.3057 -0.1598  0.4882
 1935poe    c2310252   6.488   6.499   0.289 -0.6647 -0.1424 -0.3027
 1935poe     o210253   6.434   6.528   0.163 -0.7253 -0.0824 -0.2632
 1935poe    c2310254   6.506   6.450   0.070 -0.0922 -0.5159  0.5787
 1935poe    c2310255   6.475   6.456  -0.081  0.5448  0.0986  0.4649
 1935poe     o210256   6.510   6.581  -0.134 -0.3812  0.0063 -0.4064
 1935poe    c2310257   6.418   6.624  -0.232  0.0320  0.2634 -0.6875
 1935poe    c2310258   6.395   6.776  -0.226  0.3506  0.2947 -0.1272
 1935poe     o210259   6.363   6.822  -0.097  0.5456  0.5790 -0.1780
 1935poe    c3110260   6.407   6.955  -0.081  0.2897  0.6363  0.0751
 1936poe    c3110261   6.409   0.055   4.541  0.0220  0.2464  0.3331
 1936poe     o210262   6.480   0.175   4.561 -0.3554  0.4461  0.4839
 1936poe    c2310263   6.546   0.166   4.685  0.4546 -0.2075  0.0164
 1936poe    c2310264   6.613   0.297   4.732  0.1365 -0.0387  0.0044
 1936poe     o210265   6.511   0.386   4.695 -0.0923 -0.2134  0.2114
 1936poe    c2310266   6.530   0.515   4.748  0.4750 -0.1527 -0.1351
 1936poe    c2310267   6.438   0.616   4.677  0.7952  0.3720  0.1883
 1936poe     o210268   6.459   0.615   4.537 -0.4435 -0.5687 -0.0072
 1936poe    c2310269   6.405   0.732   4.480  0.2627 -0.3243 -0.1843
 1936poe    c2310270   6.407   0.748   4.327 -0.4671  0.1317 -0.1503
 1936poe     o210271   6.306   0.665   4.275  0.0772  0.1509 -1.2622
 1936poe    c3110272   6.276   0.706   4.143 -0.2752  0.4971 -1.0768
 1937poe    c3110273   5.315   4.054   1.202 -0.4768  0.0414 -0.7000
 1937poe     o210274   5.435   4.127   1.186 -0.2298 -0.1933  0.0316
 1937poe    c2310275   5.498   4.106   1.062  0.2191 -0.0814  0.2407
 1937poe    c2310276   5.611   4.204   1.023 -0.4517  0.2500 -0.8980
 1937poe     o210277   5.576   4.337   1.055  0.4607  0.1342  0.6401
 1937poe    c2310278   5.654   4.450   1.021  0.2920  0.0026 -0.1937
 1937poe    c2310279   5.578   4.580   1.054  0.6347  0.2875 -0.5244
 1937poe     o210280   5.545   4.572   1.191 -0.0642  0.2556 -0.6891
 1937poe    c2310281   5.475   4.692   1.217 -0.6990 -0.0598 -0.9260
 1937poe    c2310282   5.379   4.698   1.336  0.1892 -0.1679 -0.1943
 1937poe     o210283   5.433   4.715   1.466  0.0450 -0.9704 -0.0285
 1937poe    c3110284   5.336   4.777   1.547  0.5180 -0.2451 -0.0164
 1938poe    c3110285   4.922   0.815   4.176  0.6799  0.0870 -0.3820
 1938poe     o210286   4.800   0.814   4.247  0.4712 -0.1961 -0.7420
 1938poe    c2310287   4.783   0.698   4.326 -0.1997  0.2838 -0.1757
 1938poe    c2310288   4.676   0.731   4.432 -0.3757 -0.5450 -0.0927
 1938poe     o210289   4.571   0.792   4.360  0.2466  0.4009 -0.2150
 1938poe    c2310290   4.450   0.782   4.431  0.1730  0.1295 -0.3784
 1938poe    c2310291   4.356   0.847   4.329 -0.2401 -0.4158 -0.3502
 1938poe     o210292   4.406   0.971   4.284 -0.2884 -0.2594  0.0229
 1938poe    c2310293   4.302   1.065   4.288 -0.0958 -0.0249 -0.4231
 1938poe    c2310294   4.360   1.205   4.259 -0.3685  0.2351  0.2479
 1938poe     o210295   4.461   1.220   4.355 -0.0107  0.6600 -0.1909
 1938poe    c3110296   4.455   1.331   4.442  0.3894  0.2306  0.3949
 1939poe    c3110297   5.501   5.254   6.654 -0.4250  0.4994 -0.1515
 1939poe     o210298   5.420   5.230   6.767  0.0979  0.1130  0.1471
 1939poe    c2310299   5.495   5.211   6.884  0.0729  0.6635  0.2547
 1939poe    c2310300   5.422   5.256   7.012 -0.0225  0.1032  0.3997
 1939poe     o210301   5.309   5.177   7.045  0.0051 -0.0201  0.2005
 1939poe    c2310302   5.219   5.238   7.135 -0.1448  0.3339 -0.1858
 1939poe    c2310303   5.086   5.162   7.145  0.2292 -0.3089 -0.0216
 1939poe     o210304   5.035   5.135   7.016  0.1975  0.0939 -0.0938
 1939poe    c2310305   4.902   5.090   7.023  0.3515 -0.4077 -0.3453
 1939poe    c2310306   4.861   5.110   6.876  0.0822  0.2313 -0.1886
 1939poe     o210307   4.962   5.054   6.795  0.0083 -0.0030 -0.1197
 1939poe    c3110308   4.912   5.039   6.664  0.2500  0.5451 -0.2737
 1940poe    c3110309   5.366   2.789   2.448  0.0941 -0.3520  0.0783
 1940poe     o210310   5.430   2.698   2.361  0.3076 -0.0576 -0.0750
 1940poe    c2310311   5.566   2.685   2.394  0.2666  0.0360  0.1334
 1940poe    c2310312   5.623   2.574   2.303 -0.3562  0.0239 -0.2515
 1940poe     o210313   5.591   2.644   2.185  0.0916  0.3612 -0.1764
 1940poe    c2310314   5.648   2.588   2.069  0.9645  0.2814  0.2848
 1940poe    c2310315   5.627   2.675   1.944 -0.2419  0.0865  0.3371
 1940poe     o210316   5.493   2.692   1.904 -0.1992 -0.0712  0.1291
 1940poe    c2310317   5.483   2.765   1.784 -0.2791 -0.1974  0.0588
 1940poe    c2310318   5.365   2.864   1.783  0.3138  0.5103 -0.4872
 1940poe     o210319   5.354   2.951   1.893  0.2528  0.4696 -0.4613
 1940poe    c3110320   5.248   3.045   1.894 -0.8895 -0.7797  0.6628
 1941poe    c3110321   5.859   1.758   3.015 -0.0333  0.2234 -0.4011
 1941poe     o210322   5.969   1.816   3.081 -0.1073 -0.0207 -0.0596
 1941poe    c2310323   6.084   1.849   3.006  0.1509  0.3836  0.5087
 1941poe    c2310324   6.140   1.738   2.915 -0.6276  0.0520  0.4246
 1941poe     o210325   6.160   1.609   2.969  0.1121  0.0180  0.0731
 1941poe    c2310326   6.143   1.522   2.860 -0.1367  0.0469  0.0880
 1941poe    c2310327   6.061   1.400   2.906 -0.0218 -0.3069 -0.6320
 1941poe     o210328   6.109   1.314   3.007 -0.0832 -0.0111 -0.3501
 1941poe    c2310329   6.003   1.228   3.042  0.0292  0.0424  0.1185
 1941poe    c2310330   6.052   1.107   3.124  0.6676  0.5305  0.4684
 1941poe     o210331   6.092   1.140   3.255  0.2429  0.6746  0.5643
 1941poe    c3110332   6.159   1.028   3.308 -1.1641 -0.3672  0.1984
 1942poe    c3110333   1.703   1.709   0.301  0.2755 -0.2432  0.0595
 1942poe     o210334   1.791   1.784   0.221  0.4025 -0.1376  0.2956
 1942poe    c2310335   1.926   1.743   0.212  0.4083 -0.1456  0.4204
 1942poe    c2310336   2.023   1.859   0.186 -0.4899  0.6553  0.5832
 1942poe     o210337   1.990   1.932   0.070  0.2211 -0.2323 -0.1895
 1942poe    c2310338   2.068   2.047   0.049 -0.5963  0.4063  0.2385
 1942poe    c2310339   1.980   2.158  -0.012 -0.7467  0.0324 -0.2226
 1942poe     o210340   1.890   2.080  -0.087  0.0452 -0.9185 -0.2070
 1942poe    c2310341   1.807   2.142  -0.183  0.5997  0.0539 -0.0705
 1942poe    c2310342   1.858   2.139  -0.328  0.3543  0.5125 -0.1694
 1942poe     o210343   1.867   2.003  -0.365 -0.2060  0.6098 -0.6825
 1942poe    c3110344   1.941   2.002  -0.485  0.5542 -0.3007 -0.2229
 1943poe    c3110345   3.032   5.993   1.219  0.3078 -0.5809 -0.8568
 1943poe     o210346   3.164   5.972   1.263 -0.1190 -0.1456  0.6963
 1943poe    c2310347   3.158   5.832   1.277 -0.6120 -0.1241  0.6990
 1943poe    c2310348   3.294   5.769   1.311 -0.1565  0.3898 -0.1742
 1943poe     o210349   3.401   5.793   1.222  0.1004 -0.0268  0.0177
 1943poe    c2310350   3.536   5.774   1.261  0.0180 -0.1937  0.2229
 1943poe    c2310351   3.625   5.808   1.140 -0.5315 -0.2852 -0.2142
 1943poe     o210352   3.603   5.941   1.101  0.3474 -0.0707 -0.0057
 1943poe    c2310353   3.705   5.978   1.010 -0.1604  0.3357 -0.4153
 1943poe    c2310354   3.686   6.120   0.954  0.2672  0.5604  0.0051
 1943poe     o210355   3.607   6.191   1.047 -0.1256 -0.1917  0.2496
 1943poe    c3110356   3.613   6.322   0.996  0.1151 -0.0674  0.5953
 1944poe    c3110357   4.626   2.908   6.052  0.6718  0.2408  0.4016
 1944poe     o210358   4.493   2.955   6.056  0.4710 -0.2884  0.0931
 1944poe    c2310359   4.384   2.870   6.030  0.2143  0.1198 -0.1711
 1944poe    c2310360   4.244   2.927   6.060 -0.0608 -0.4811 -0.2854
 1944poe     o210361   4.134   2.846   6.026 -0.0859 -0.6705  0.2464
 1944poe    c2310362   4.099   2.838   5.890 -0.2160  0.1191  0.2333
 1944poe    c2310363   4.110   2.699   5.826 -0.0353  0.4197 -0.3965
 1944poe     o210364   4.012   2.600   5.848 -0.4454  0.9461  0.1711
 1944poe    c2310365   3.921   2.593   5.740 -0.0117 -0.2700 -0.1357
 1944poe    c2310366   3.805   2.493   5.750  0.1083 -0.3166  0.9294
 1944poe     o210367   3.855   2.363   5.726  0.3333 -0.0489 -0.0975
 1944poe    c3110368   3.741   2.281   5.743 -0.1546  0.5892 -0.2363
 1945poe    c3110369   0.114   0.277   6.729  0.0167 -0.3068 -0.8480
 1945poe     o210370   0.043   0.399   6.720  0.2153 -0.1301 -0.0897
 1945poe    c2310371   0.089   0.476   6.829  0.9823 -0.4222 -0.1992
 1945poe    c2310372   0.124   0.615   6.774 -0.3391 -0.0445 -0.1140
 1945poe     o210373   0.004   0.642   6.705 -0.2102  0.4967 -0.1360
 1945poe    c2310374   0.017   0.748   6.614  0.0469  0.3374 -0.2860
 1945poe    c2310375  -0.127   0.798   6.592 -0.2462 -0.2670  0.2448
 1945poe     o210376  -0.199   0.708   6.512  0.1581  0.1069 -0.5438
 1945poe    c2310377  -0.337   0.711   6.540  0.2152 -0.1280 -0.2271
 1945poe    c2310378  -0.418   0.595   6.480 -0.0402  0.0203 -0.1724
 1945poe     o210379  -0.396   0.472   6.545  0.1434 -0.0583 -0.3809
 1945poe    c3110380  -0.461   0.356   6.498  0.2820 -0.3178  0.0557
 1946poe    c3110381   3.111   3.855   4.397 -0.6901  0.3777  0.0722
 1946poe     o210382   2.978   3.822   4.430 -0.3506 -0.6384  0.4855
 1946poe    c2310383   2.919   3.912   4.521 -0.0741  0.3581 -0.2912
 1946poe    c2310384   2.921   3.885   4.673  0.2069 -0.2078 -0.3933
 1946poe     o210385   2.850   3.774   4.724 -0.1527  0.1664 -0.0755
 1946poe    c2310386   2.712   3.777   4.749 -0.1372 -0.8110  0.1705
 1946poe    c2310387   2.683   3.867   4.872  0.5500 -0.1790 -0.1229
 1946poe     o210388   2.674   4.006   4.850 -0.0910 -0.2504 -0.3274
 1946poe    c2310389   2.686   4.083   4.967  0.4680 -0.2919 -0.3548
 1946poe    c2310390   2.818   4.154   5.002  0.3482 -0.3393  0.2018
 1946poe     o210391   2.874   4.257   4.924 -0.4372 -0.0532  0.0136
 1946poe    c3110392   2.963   4.344   4.989 -0.1948 -0.3679  0.1071
 1947poe    c3110393   5.208   6.494   1.488  0.7742 -0.1276  0.1650
 1947poe     o210394   5.193   6.589   1.385  0.3141  0.0190  0.3636
 1947poe    c2310395   5.317   6.636   1.336  0.0679  0.0563 -0.2328
 1947poe    c2310396   5.295   6.661   1.186  0.0902  0.4047 -0.1786
 1947poe     o210397   5.167   6.720   1.178 -0.0539  0.1496  0.2126
 1947poe    c2310398   5.136   6.762   1.047 -0.5251 -0.0913  0.2460
 1947poe    c2310399   5.002   6.837   1.029 -0.1903  0.4360 -0.0827
 1947poe     o210400   4.891   6.777   1.092 -0.1052  0.1640 -0.1915
 1947poe    c2310401   4.796   6.871   1.135  0.2997  0.4525  0.0760
 1947poe    c2310402   4.669   6.788   1.163  0.3941  0.1161 -0.4941
 1947poe     o210403   4.555   6.862   1.198  0.1127 -0.6774  0.2943
 1947poe    c3110404   4.446   6.773   1.208 -0.9898  0.5062 -0.7334
 1948poe    c3110405   1.155   4.843   4.480  0.3718 -0.6048 -0.4548
 1948poe     o210406   1.059   4.938   4.440  0.4317 -0.2499  0.2333
 1948poe    c2310407   0.958   4.873   4.367 -0.0567  0.1285  0.5601
 1948poe    c2310408   0.832   4.960   4.372 -0.4176 -0.3445 -0.1188
 1948poe     o210409   0.831   5.044   4.258  0.1009 -0.0588  0.0810
 1948poe    c2310410   0.710   5.105   4.219  0.1977  0.4326  0.5335
 1948poe    c2310411   0.733   5.173   4.083  0.3513 -0.1828  0.2498
 1948poe     o210412   0.851   5.250   4.091 -0.0236  0.3948  0.2771
 1948poe    c2310413   0.863   5.341   3.984 -0.2796 -0.4035 -0.4383
 1948poe    c2310414   0.960   5.445   4.043  0.0685 -0.5852 -0.6815
 1948poe     o210415   1.078   5.373   4.070  0.2088 -0.4147 -0.8462
 1948poe    c3110416   1.163   5.486   4.079 -0.5117  0.1181 -0.6784
 1949poe    c3110417   5.224   2.225   4.321 -0.1349  0.2732 -0.0911
 1949poe     o210418   5.297   2.134   4.242 -0.1584  0.3412 -0.1908
 1949poe    c2310419   5.285   2.003   4.293  0.4023  0.0645 -0.7641
 1949poe    c2310420   5.375   1.914   4.204 -0.0789 -1.1912 -0.0156
 1949poe     o210421   5.391   1.972   4.076  0.2847 -0.8606  0.1782
 1949poe    c2310422   5.413   1.887   3.966 -0.5370 -0.5355 -0.2479
 1949poe    c2310423   5.505   1.961   3.867 -0.4081  0.1956  0.4072
 1949poe     o210424   5.438   2.062   3.796  0.2422  0.1546 -0.2660
 1949poe    c2310425   5.501   2.081   3.670  0.2466 -0.7230 -0.3963
 1949poe    c2310426   5.429   2.184   3.582 -0.2333 -0.2029  0.5850
 1949poe     o210427   5.308   2.139   3.524  0.0072  0.1100 -0.1645
 1949poe    c3110428   5.338   2.101   3.391  0.6479  0.2802 -0.0746
 1950poe    c3110429   0.866   3.332   2.535  0.1134 -0.2787  0.1965
 1950poe     o210430   0.941   3.343   2.653  0.6788  0.2455 -0.2073
 1950poe    c2310431   0.977   3.479   2.671  0.2063  0.2861  0.4773
 1950poe    c2310432   1.070   3.503   2.791  0.5552  0.3118  0.2025
 1950poe     o210433   1.002   3.495   2.914 -0.2468  0.3499 -0.2311
 1950poe    c2310434   1.084   3.431   3.010 -0.1426  0.0141 -0.5440
 1950poe    c2310435   1.057   3.485   3.151 -0.1000 -0.2256 -0.4447
 1950poe     o210436   0.939   3.422   3.195  0.4421 -0.7302  0.3261
 1950poe    c2310437   0.894   3.454   3.325 -0.0392 -0.1281  0.0169
 1950poe    c2310438   0.754   3.398   3.355 -0.0344  0.0950  0.4786
 1950poe     o210439   0.652   3.460   3.279 -0.0424 -0.0914  0.3354
 1950poe    c3110440   0.543   3.371   3.293  0.0228 -0.1803  0.2784
 1951poe    c3110441   1.621   2.999   0.943 -0.4797  0.2708 -0.4062
 1951poe     o210442   1.702   3.083   1.023 -0.0631 -0.3830 -0.1403
 1951poe    c2310443   1.833   3.031   1.014  0.1947  0.2167  0.1067
 1951poe    c2310444   1.944   3.131   1.049  0.9211 -0.4175 -0.3747
 1951poe     o210445   1.923   3.182   1.179 -0.3394 -0.0442 -0.7207
 1951poe    c2310446   2.025   3.274   1.208 -0.6507  0.1582 -0.2629
 1951poe    c2310447   2.014   3.314   1.356  0.7440 -0.3811  0.0006
 1951poe     o210448   1.885   3.371   1.362  0.6450 -0.6087  0.0296
 1951poe    c2310449   1.869   3.448   1.479 -0.3204  0.1528 -0.5865
 1951poe    c2310450   1.721   3.489   1.464 -0.4090  0.1451  0.2087
 1951poe     o210451   1.649   3.375   1.421 -0.0763  0.2078 -0.5314
 1951poe    c3110452   1.509   3.383   1.430 -0.1138 -0.8704 -0.0076
 1952poe    c3110453   1.005   0.356   4.945  0.1240 -0.1737 -0.2911
 1952poe     o210454   0.887   0.286   4.916 -0.0069 -0.0935  0.0503
 1952poe    c2310455   0.788   0.334   5.004 -0.2846 -0.2727 -0.1583
 1952poe    c2310456   0.652   0.268   4.978 -0.2397 -0.3618 -0.1666
 1952poe     o210457   0.635   0.139   5.032 -0.3545  0.1103  0.9684
 1952poe    c2310458   0.531   0.060   4.978  0.1458  0.2327 -0.2000
 1952poe    c2310459   0.479  -0.051   5.071 -0.4448  0.4578 -0.2583
 1952poe     o210460   0.591  -0.110   5.134 -0.6253  0.3471 -0.0403
 1952poe    c2310461   0.561  -0.214   5.225  0.2397  0.2948  0.1920
 1952poe    c2310462   0.692  -0.286   5.259 -0.3705 -0.4001  1.1115
 1952poe     o210463   0.785  -0.185   5.290 -0.0894 -0.3330  0.0670
 1952poe    c3110464   0.910  -0.236   5.332 -0.0145 -0.9007 -0.8118
 1953poe    c3110465   5.804   5.307   6.213  0.1090  0.2922 -0.0302
 1953poe     o210466   5.676   5.250   6.230  0.1982 -0.0426 -0.4599
 1953poe    c2310467   5.696   5.110   6.237  0.2394 -0.0078  0.2116
 1953poe    c2310468   5.573   5.078   6.324  0.0317  0.2990  0.0315
 1953poe     o210469   5.474   5.169   6.281  0.1862  0.3472 -0.2269
 1953poe    c2310470   5.348   5.148   6.342  0.2482  0.1105 -0.1807
 1953poe    c2310471   5.258   5.132   6.219  0.2269 -0.5625 -0.0818
 1953poe     o210472   5.278   5.244   6.135 -0.4826 -0.4882 -0.1625
 1953poe    c2310473   5.160   5.253   6.058 -0.7012 -0.0544  0.2196
 1953poe    c2310474   5.173   5.368   5.956 -0.1195 -0.1569  0.1716
 1953poe     o210475   5.242   5.334   5.838 -0.0478  0.2913  0.0860
 1953poe    c3110476   5.230   5.446   5.752 -0.4688 -0.4600 -0.8523
 1954poe    c3110477   6.109   3.950   5.388  0.0661 -0.2308  0.7722
 1954poe     o210478   6.175   4.073   5.408 -0.1599 -0.0859  0.6309
 1954poe    c2310479   6.200   4.096   5.545 -0.5868 -0.1663  0.7231
 1954poe    c2310480   6.232   4.247   5.551  0.0754 -0.2614 -0.0927
 1954poe     o210481   6.276   4.286   5.424 -0.4965  0.5438 -0.0524
 1954poe    c2310482   6.268   4.423   5.391 -0.0174  0.5511 -0.1432
 1954poe    c2310483   6.359   4.460   5.272 -0.3709  0.4560 -0.4447
 1954poe     o210484   6.314   4.374   5.169  0.3226 -0.1840 -0.2206
 1954poe    c2310485   6.387   4.401   5.051  0.4066 -0.0556 -0.1393
 1954poe    c2310486   6.327   4.364   4.914  0.3793 -0.0171 -0.1377
 1954poe     o210487   6.271   4.235   4.918  0.1702  0.0909  0.8213
 1954poe    c3110488   6.263   4.194   4.783  0.2988 -0.1943  0.9016
 1955poe    c3110489   3.391   1.817   3.238 -0.2663 -0.0824  0.1872
 1955poe     o210490   3.260   1.848   3.195 -0.2104 -0.2250 -0.0887
 1955poe    c2310491   3.175   1.922   3.279 -0.1163 -0.3385  0.1069
 1955poe    c2310492   3.041   1.938   3.204 -0.3206  0.1764  0.5671
 1955poe     o210493   2.971   1.816   3.203  0.3205 -0.1978  0.4830
 1955poe    c2310494   2.834   1.841   3.180  0.4975  0.1028 -0.2574
 1955poe    c2310495   2.773   1.716   3.115  0.1482  0.0453  0.1787
 1955poe     o210496   2.847   1.655   3.011 -0.3330 -0.0410 -0.1196
 1955poe    c2310497   2.806   1.525   2.978 -0.6154 -0.0154  0.1187
 1955poe    c2310498   2.885   1.501   2.847 -0.1772 -1.0655  0.5657
 1955poe     o210499   3.016   1.552   2.846 -0.7708  0.5017 -0.7049
 1955poe    c3110500   3.076   1.544   2.719 -0.4563  0.1811 -0.5392
 1956poe    c3110501   0.893   1.913   6.453  0.0369  0.1216 -0.5243
 1956poe     o210502   0.979   1.929   6.563 -0.0238 -0.4155 -0.3927
 1956poe    c2310503   0.984   2.067   6.592  0.6528 -0.3310 -0.8845
 1956poe    c2310504   1.088   2.102   6.700 -0.5866  0.7979 -0.0248
 1956poe     o210505   1.223   2.068   6.680 -0.3008  1.6306  0.3957
 1956poe    c2310506   1.295   2.088   6.800 -0.1706  0.5504  0.5158
 1956poe    c2310507   1.440   2.047   6.768 -0.4545  0.1115 -0.2362
 1956poe     o210508   1.426   1.919   6.711  0.3574 -0.1408  0.1269
 1956poe    c2310509   1.555   1.865   6.687  0.3003 -0.3972  0.3880
 1956poe    c2310510   1.544   1.726   6.622 -0.6483 -0.2165  0.1428
 1956poe     o210511   1.459   1.744   6.512 -0.5268  0.2992  0.1322
 1956poe    c3110512   1.466   1.636   6.422 -0.0035 -0.0745  0.6219
 1957poe    c3110513   4.796   4.931   4.455 -0.3421  0.1846 -0.4342
 1957poe     o210514   4.893   5.021   4.406  0.3741 -0.0533  0.5073
 1957poe    c2310515   5.016   5.007   4.473  0.4618  0.6531  0.5087
 1957poe    c2310516   5.117   5.109   4.418  0.3967  0.3017 -0.2807
 1957poe     o210517   5.054   5.234   4.412 -0.5140 -0.1412 -0.0821
 1957poe    c2310518   5.135   5.336   4.358  0.1469 -0.3964  0.4276
 1957poe    c2310519   5.093   5.481   4.384  0.2425 -0.2182 -0.3697
 1957poe     o210520   4.955   5.500   4.367  0.1950 -0.2396 -0.0278
 1957poe    c2310521   4.927   5.585   4.257 -0.4282 -0.1391  0.2041
 1957poe    c2310522   4.779   5.593   4.214 -0.2350 -0.0332 -0.4423
 1957poe     o210523   4.733   5.467   4.170 -0.1151  0.0622 -0.8478
 1957poe    c3110524   4.596   5.466   4.135 -0.2984  0.4952 -0.1549
 1958poe    c3110525   5.337   3.563   3.185 -0.9162  0.0653 -0.3420
 1958poe     o210526   5.333   3.428   3.225 -0.0150  0.0622 -0.2494
 1958poe    c2310527   5.279   3.349   3.122  0.7532 -0.3953 -0.3017
 1958poe    c2310528   5.264   3.205   3.173  0.5525 -0.5045 -0.6644
 1958poe     o210529   5.375   3.186   3.258  0.1980  0.1272 -0.0490
 1958poe    c2310530   5.366   3.070   3.337  0.2629  0.0495 -0.1561
 1958poe    c2310531   5.505   3.029   3.392 -0.1920 -0.1956  0.8328
 1958poe     o210532   5.556   3.150   3.443 -0.3986  0.0249  0.5278
 1958poe    c2310533   5.677   3.131   3.513 -0.2049 -0.3393  0.0987
 1958poe    c2310534   5.740   3.252   3.584  0.2646 -0.5604  0.0709
 1958poe     o210535   5.793   3.340   3.487 -0.0394 -0.5803 -0.1152
 1958poe    c3110536   5.928   3.375   3.504 -0.0057 -0.6873 -0.1617
 1959poe    c3110537   4.803   1.174   1.431 -0.9004 -0.1672  0.1290
 1959poe     o210538   4.759   1.086   1.330  0.3131 -0.0119 -0.5582
 1959poe    c2310539   4.648   1.007   1.366  0.6275 -0.0919  0.2679
 1959poe    c2310540   4.679   0.861   1.326  0.7210 -0.0965  0.3584
 1959poe     o210541   4.723   0.862   1.192  0.1522 -0.0243  0.1698
 1959poe    c2310542   4.795   0.748   1.151  0.0883 -0.1580  0.4235
 1959poe    c2310543   4.829   0.777   1.004  0.6796 -0.8253  0.4279
 1959poe     o210544   4.907   0.894   0.999 -0.2600 -0.2025  0.1885
 1959poe    c2310545   4.938   0.938   0.869  0.0778 -0.0030  0.3339
 1959poe    c2310546   5.062   1.028   0.878 -0.0280  0.1890 -0.0994
 1959poe     o210547   5.035   1.140   0.959 -0.0124  0.1082  0.0177
 1959poe    c3110548   5.065   1.267   0.906  0.0985  0.1364  0.1476
 1960poe    c3110549   4.213   2.788   7.124  0.4121  0.6413  0.7988
 1960poe     o210550   4.102   2.864   7.079  0.4338  0.0186 -0.3403
 1960poe    c2310551   4.125   2.965   6.983 -0.0057  0.5134  0.0701
 1960poe    c2310552   4.120   2.893   6.847  0.2257 -0.8088  0.7445
 1960poe     o210553   3.991   2.839   6.829  0.4376 -0.8731 -0.6364
 1960poe    c2310554   3.975   2.797   6.695  0.0511 -0.4921 -0.7137
 1960poe    c2310555   3.861   2.697   6.672 -0.2725 -0.2997  0.0219
 1960poe     o210556   3.734   2.758   6.680 -0.1870 -0.1529  0.2422
 1960poe    c2310557   3.647   2.695   6.589  0.2988  0.0343 -0.3599
 1960poe    c2310558   3.523   2.766   6.531  0.0728 -0.4751 -0.5039
 1960poe     o210559   3.538   2.876   6.444  0.2215 -0.2867 -0.2423
 1960poe    c3110560   3.403   2.916   6.430  0.0188 -0.8615  0.0070
 1961poe    c3110561   3.143   2.112   0.294 -0.1165  0.0057  0.2360
 1961poe     o210562   3.081   2.238   0.310  0.1452  0.0606  0.8504
 1961poe    c2310563   3.173   2.330   0.255  0.0143  0.0606  0.6280
 1961poe    c2310564   3.075   2.443   0.219  0.1417  0.0242  0.1694
 1961poe     o210565   2.998   2.483   0.329 -0.2562 -0.0496 -0.0808
 1961poe    c2310566   2.892   2.568   0.293  0.2382  0.3359 -0.6294
 1961poe    c2310567   2.819   2.620   0.418  0.1113  0.6229 -0.8204
 1961poe     o210568   2.757   2.511   0.483  0.5476  0.2279 -1.0580
 1961poe    c2310569   2.731   2.554   0.615  0.9135 -1.0533 -0.5577
 1961poe    c2310570   2.651   2.440   0.682  0.6242 -0.3715  0.2690
 1961poe     o210571   2.696   2.390   0.806 -0.2567 -0.8199  0.4157
 1961poe    c3110572   2.624   2.273   0.837 -0.4419 -0.9296 -0.3974
 1962poe    c3110573   0.411   5.387   3.224  0.1911  0.4226 -0.1413
 1962poe     o210574   0.336   5.386   3.105 -0.1415 -0.0042  0.0673
 1962poe    c2310575   0.285   5.516   3.088  0.3535  0.2142  0.2287
 1962poe    c2310576   0.219   5.533   2.950  0.5712  0.3066  0.1355
 1962poe     o210577   0.291   5.490   2.836  0.0471 -0.2712  0.0137
 1962poe    c2310578   0.213   5.432   2.734 -0.0201 -0.1244 -0.0188
 1962poe    c2310579   0.291   5.427   2.601 -0.6433 -0.6801 -0.3688
 1962poe     o210580   0.420   5.377   2.628 -0.3306  0.0852 -0.4139
 1962poe    c2310581   0.492   5.379   2.507 -0.3661  0.2478 -0.4332
 1962poe    c2310582   0.622   5.306   2.547 -0.3679  0.2321 -0.4556
 1962poe     o210583   0.659   5.344   2.678 -0.0906  0.2863 -0.5499
 1962poe    c3110584   0.786   5.292   2.713 -0.3949  0.1413  0.3477
 1963poe    c3110585   3.525   3.066   3.502  0.2306 -0.7522 -0.1354
 1963poe     o210586   3.460   2.942   3.521  0.0571 -0.7311 -0.5867
 1963poe    c2310587   3.559   2.841   3.527  0.4959 -0.2507  0.5224
 1963poe    c2310588   3.509   2.696   3.543 -0.1362 -0.0774  0.1791
 1963poe     o210589   3.415   2.644   3.452 -0.4320 -0.2461  0.5805
 1963poe    c2310590   3.401   2.504   3.447  0.4841 -0.3376  0.3530
 1963poe    c2310591   3.331   2.460   3.317  0.5927  0.3310  0.0638
 1963poe     o210592   3.417   2.491   3.210  0.8359 -0.0115  0.1574
 1963poe    c2310593   3.378   2.424   3.092 -0.6510  0.7728  0.1759
 1963poe    c2310594   3.473   2.466   2.977 -0.5423 -0.1059 -0.0636
 1963poe     o210595   3.444   2.593   2.923  0.1338  0.0769 -0.0067
 1963poe    c3110596   3.355   2.569   2.816 -0.3252  0.1609  0.3505
 1964poe    c3110597   5.498   6.467   3.062 -0.0788 -0.2566  0.1250
 1964poe     o210598   5.432   6.493   3.184  0.5902  0.4444  0.3399
 1964poe    c2310599   5.374   6.620   3.164 -0.2032  0.0399  0.0252
 1964poe    c2310600   5.311   6.676   3.294  0.6854  0.2709  0.3653
 1964poe     o210601   5.280   6.557   3.362  0.2595  0.2775  0.1842
 1964poe    c2310602   5.215   6.587   3.483 -0.2886 -0.2698  0.0361
 1964poe    c2310603   5.146   6.463   3.542 -0.6033 -0.2348 -0.2555
 1964poe     o210604   5.243   6.362   3.559 -0.4528 -0.1358 -0.5180
 1964poe    c2310605   5.270   6.322   3.691  0.7894  0.3722 -0.6007
 1964poe    c2310606   5.358   6.197   3.708 -0.0320 -0.0785  0.4794
 1964poe     o210607   5.469   6.177   3.623 -0.2939 -0.2395  0.1762
 1964poe    c3110608   5.504   6.040   3.629  0.1595 -0.0908  1.1004
 1965poe    c3110609   6.698   3.951   1.602 -0.0348 -0.3907 -0.0674
 1965poe     o210610   6.757   3.966   1.475 -0.0142  0.0148 -0.0119
 1965poe    c2310611   6.851   3.861   1.464  0.2387  0.1917  0.4375
 1965poe    c2310612   6.932   3.860   1.333 -0.2955  0.6944  0.1004
 1965poe     o210613   7.015   3.974   1.344  0.0222  0.4854 -0.1035
 1965poe    c2310614   7.128   3.986   1.261  0.0899 -0.1032 -0.0981
 1965poe    c2310615   7.124   4.096   1.154 -0.1011 -0.1504 -0.1407
 1965poe     o210616   7.099   4.214   1.227  0.0197 -0.1349 -0.1227
 1965poe    c2310617   7.079   4.314   1.129  0.1820  0.0499  0.0321
 1965poe    c2310618   7.048   4.458   1.173  0.3071  0.0270  0.1969
 1965poe     o210619   6.920   4.488   1.224 -0.2037  0.5574 -1.3238
 1965poe    c3110620   6.904   4.627   1.239 -0.0231  0.3864  0.8073
 1966poe    c3110621   5.831   1.262   5.527 -0.5422 -0.9773  0.2328
 1966poe     o210622   5.693   1.246   5.502 -0.4526 -0.8553 -0.3464
 1966poe    c2310623   5.628   1.364   5.542  0.5772 -0.2856 -0.3198
 1966poe    c2310624   5.479   1.340   5.511  0.3825  0.2555  0.1735
 1966poe     o210625   5.454   1.205   5.544  0.5604  0.2883  0.4507
 1966poe    c2310626   5.349   1.208   5.638 -0.4812  0.2424 -0.6860
 1966poe    c2310627   5.248   1.093   5.617 -0.5574  0.1342  0.2466
 1966poe     o210628   5.189   1.097   5.489  0.6511  0.2683 -0.3166
 1966poe    c2310629   5.185   0.967   5.437 -0.4077 -0.2606  1.0381
 1966poe    c2310630   5.153   0.955   5.287  1.0546 -0.0599  0.6936
 1966poe     o210631   5.256   1.011   5.208  0.2100  0.5826  0.0214
 1966poe    c3110632   5.248   0.975   5.071 -0.3664  0.4518  0.0857
 1967poe    c3110633   1.238   2.088   7.137  0.0327  0.8571  0.1316
 1967poe     o210634   1.195   2.069   7.270 -0.5576  0.1347 -0.1598
 1967poe    c2310635   1.137   2.191   7.308 -0.7630  0.0017 -0.0397
 1967poe    c2310636   1.107   2.190   7.459 -0.1361 -1.0564  0.0831
 1967poe     o210637   1.220   2.183   7.543 -0.0638  0.3576  0.1130
 1967poe    c2310638   1.177   2.187   7.677  0.2582  0.0048  0.2292
 1967poe    c2310639   1.295   2.234   7.763  0.1720  0.4690  0.0984
 1967poe     o210640   1.414   2.201   7.694 -0.3635 -0.6758 -0.2929
 1967poe    c2310641   1.524   2.215   7.781 -0.6221  0.4273 -0.1349
 1967poe    c2310642   1.653   2.150   7.728 -0.9349 -1.1117  0.9322
 1967poe     o210643   1.660   2.206   7.599  0.2401 -1.2313  0.9322
 1967poe    c3110644   1.783   2.193   7.531 -0.1767 -0.5263  0.0189
 1968poe    c3110645   1.228   0.684   0.349  0.5378 -0.1742  0.2184
 1968poe     o210646   1.124   0.605   0.295  0.4073  0.1309  0.0158
 1968poe    c2310647   1.115   0.484   0.367 -1.1204  0.5283  0.5378
 1968poe    c2310648   1.021   0.379   0.304 -0.0161 -0.1413 -0.0253
 1968poe     o210649   0.888   0.426   0.307 -0.1523 -0.5246  0.0466
 1968poe    c2310650   0.804   0.335   0.241 -0.0973 -0.5398 -0.0022
 1968poe    c2310651   0.663   0.371   0.293 -0.2697 -0.1057 -0.7484
 1968poe     o210652   0.641   0.510   0.284 -0.2002 -0.0283  0.2380
 1968poe    c2310653   0.504   0.545   0.280 -0.2593 -0.2960 -0.1024
 1968poe    c2310654   0.468   0.637   0.162  0.0926 -0.5467 -0.4116
 1968poe     o210655   0.534   0.760   0.184 -0.1818 -0.3323 -0.7812
 1968poe    c3110656   0.474   0.837   0.081 -0.0714 -0.1878 -0.7377
 1969poe    c3110657   2.378   4.213   5.723  0.4476  0.1373 -0.1761
 1969poe     o210658   2.446   4.134   5.818  0.5265 -0.0716 -0.4055
 1969poe    c2310659   2.392   4.147   5.948 -0.1051 -0.3714 -0.6314
 1969poe    c2310660   2.477   4.058   6.040 -0.0191  0.0729 -0.2747
 1969poe     o210661   2.477   3.922   6.002  0.5134  0.0210 -0.0938
 1969poe    c2310662   2.562   3.855   6.093 -0.0783 -0.7770 -0.1181
 1969poe    c2310663   2.574   3.712   6.038  0.3417 -0.6288 -0.4152
 1969poe     o210664   2.616   3.688   5.906 -0.0159  0.5740 -0.7575
 1969poe    c2310665   2.561   3.562   5.875  0.7082  0.0695 -0.0291
 1969poe    c2310666   2.543   3.521   5.728  0.4603  0.1631 -0.0252
 1969poe     o210667   2.417   3.570   5.687  0.4058  0.0912  0.0594
 1969poe    c3110668   2.411   3.574   5.547  0.7333 -0.8765  0.0055
 1970poe    c3110669   1.505   6.781   5.523 -0.0716  0.4510 -0.4654
 1970poe     o210670   1.474   6.818   5.391 -0.7647  0.5851 -0.2749
 1970poe    c2310671   1.431   6.712   5.309 -0.1989  0.3161 -0.2302
 1970poe    c2310672   1.473   6.735   5.162 -0.1738 -0.3946 -0.3401
 1970poe     o210673   1.394   6.827   5.092  0.1490 -0.0341 -0.2357
 1970poe    c2310674   1.467   6.856   4.975  0.7218  0.1568  0.1658
 1970poe    c2310675   1.406   6.966   4.886 -0.0103  0.3566  0.8999
 1970poe     o210676   1.388   7.082   4.964  0.1357  0.6994  0.4300
 1970poe    c2310677   1.355   7.197   4.889 -0.8360  0.2578  0.1642
 1970poe    c2310678   1.366   7.316   4.987  0.8311  0.2427  0.0308
 1970poe     o210679   1.359   7.264   5.118  0.6166  0.1663 -0.0104
 1970poe    c3110680   1.337   7.364   5.216 -0.6906 -0.1757  0.0744
 1971poe    c3110681   2.259   1.206   2.679  0.6613 -0.3289 -0.7829
 1971poe     o210682   2.204   1.124   2.578 -0.0153 -0.8512  0.0030
 1971poe    c2310683   2.178   1.003   2.646  0.0824 -0.3852  0.8828
 1971poe    c2310684   2.109   0.913   2.542  0.1411 -0.2797  0.7527
 1971poe     o210685   1.992   0.972   2.491  0.1984 -0.7829  0.0130
 1971poe    c2310686   1.875   0.904   2.531 -0.2313 -0.2948 -0.3935
 1971poe    c2310687   1.746   0.988   2.529  0.2370  0.4487  0.2473
 1971poe     o210688   1.624   0.940   2.581  0.1702  0.2252 -0.1225
 1971poe    c2310689   1.508   1.012   2.547 -0.0325  0.4264  0.9869
 1971poe    c2310690   1.387   0.950   2.621  0.1314 -0.4981  0.4959
 1971poe     o210691   1.394   0.963   2.761  0.0693 -0.6151  0.5093
 1971poe    c3110692   1.262   0.958   2.810 -0.1669 -0.4316 -0.0969
 1972poe    c3110693   0.075   3.040   6.516 -0.7014  0.2000  0.1384
 1972poe     o210694  -0.004   2.932   6.560 -0.3658 -0.1340 -0.0746
 1972poe    c2310695   0.073   2.830   6.622 -0.4391 -0.2090 -0.1065
 1972poe    c2310696  -0.028   2.721   6.662 -0.0878 -0.6541 -0.4226
 1972poe     o210697  -0.095   2.674   6.547 -0.9049  0.2660 -0.3332
 1972poe    c2310698  -0.183   2.567   6.572 -0.6698  0.3147  0.7715
 1972poe    c2310699  -0.246   2.532   6.435  0.6111 -0.0206  0.2513
 1972poe     o210700  -0.279   2.661   6.387  0.2079 -0.2236 -0.0174
 1972poe    c2310701  -0.357   2.673   6.270  0.2761  0.0101 -0.0392
 1972poe    c2310702  -0.292   2.610   6.146 -0.0672 -0.1552 -0.1347
 1972poe     o210703  -0.191   2.695   6.097 -0.5581  0.0598 -0.7928
 1972poe    c3110704  -0.112   2.639   5.994  0.3148 -0.5649  0.1909
 1973poe    c3110705   5.713   6.125   6.240  0.2579  0.1820 -0.4589
 1973poe     o210706   5.573   6.130   6.256  0.3041 -0.1834  0.0803
 1973poe    c2310707   5.540   6.114   6.392 -0.1505 -0.1842 -0.0254
 1973poe    c2310708   5.392   6.116   6.433 -0.1960  0.4277 -0.2039
 1973poe     o210709   5.371   6.121   6.572 -0.1907  0.4724 -0.2049
 1973poe    c2310710   5.233   6.136   6.595 -0.1722 -0.0259  0.2550
 1973poe    c2310711   5.186   6.091   6.735 -0.3738 -0.8508 -0.0698
 1973poe     o210712   5.235   6.168   6.842 -0.5952 -0.7104 -0.0698
 1973poe    c2310713   5.226   6.092   6.960 -0.3815 -0.7583 -0.0847
 1973poe    c2310714   5.316   6.141   7.075 -0.3680  0.0714 -0.4422
 1973poe     o210715   5.455   6.156   7.053 -0.3837  0.3359 -0.3647
 1973poe    c3110716   5.512   6.154   7.182  0.4211 -0.2237 -0.7267
 1974poe    c3110717   0.585   7.075   3.999  0.0479  0.0045  0.1677
 1974poe     o210718   0.672   7.179   3.961 -0.0930  0.1973  0.3695
 1974poe    c2310719   0.759   7.128   3.862  0.1255  0.0644  0.6265
 1974poe    c2310720   0.787   7.249   3.770  0.3860 -0.1528  0.4195
 1974poe     o210721   0.821   7.341   3.870  0.1398  0.1043  0.2700
 1974poe    c2310722   0.897   7.441   3.806  0.5510 -0.3713  0.0059
 1974poe    c2310723   0.928   7.567   3.889  0.5398 -0.2208 -0.2154
 1974poe     o210724   0.809   7.594   3.960  0.5940  0.0548 -0.2304
 1974poe    c2310725   0.828   7.699   4.052 -0.7042  0.0557  0.0526
 1974poe    c2310726   0.735   7.700   4.175 -0.3585  1.0281  0.3150
 1974poe     o210727   0.759   7.609   4.280 -0.7036  0.2500 -0.2707
 1974poe    c3110728   0.687   7.633   4.399  0.3021 -0.2568  0.4673
 1975poe    c3110729   2.930   3.952   2.545  0.0898  0.0546  0.2175
 1975poe     o210730   2.874   4.015   2.431 -0.2329  0.2503  0.4816
 1975poe    c2310731   2.966   4.098   2.364  0.0919 -0.4357  0.0577
 1975poe    c2310732   2.927   4.119   2.217  0.4564  0.0958  0.0346
 1975poe     o210733   2.808   4.194   2.205  0.3105 -0.0431  0.5851
 1975poe    c2310734   2.771   4.195   2.069 -0.3486 -0.0318  0.7638
 1975poe    c2310735   2.648   4.285   2.045 -0.3655 -0.1248  0.5060
 1975poe     o210736   2.670   4.387   2.140  0.3444 -0.2931  0.5295
 1975poe    c2310737   2.546   4.453   2.133  0.5854  0.0975 -0.1272
 1975poe    c2310738   2.547   4.567   2.237 -0.3862 -0.2561  0.2831
 1975poe     o210739   2.627   4.519   2.343 -0.2370 -0.1842  0.2039
 1975poe    c3110740   2.585   4.607   2.445 -0.3120 -0.5284  0.4742
 1976poe    c3110741   1.488   1.236   6.405  0.8102 -0.6905 -0.3159
 1976poe     o210742   1.463   1.133   6.498 -0.2721  0.3314  0.5584
 1976poe    c2310743   1.358   1.154   6.589 -0.3563  0.3780  0.4498
 1976poe    c2310744   1.283   1.026   6.627  0.2995 -0.1615 -0.0530
 1976poe     o210745   1.384   0.944   6.682 -0.0369 -0.1555  0.5853
 1976poe    c2310746   1.365   0.814   6.732 -0.7816 -0.1717  0.2691
 1976poe    c2310747   1.494   0.766   6.801 -0.6280 -0.0478  0.0684
 1976poe     o210748   1.580   0.720   6.699 -0.1776  0.4365  0.2205
 1976poe    c2310749   1.698   0.657   6.744 -0.3126  0.1231  0.1385
 1976poe    c2310750   1.792   0.611   6.631 -0.2596  0.1574  0.1688
 1976poe     o210751   1.864   0.710   6.561  0.0527  0.1624  0.4943
 1976poe    c3110752   1.972   0.645   6.498 -0.3164  0.5092 -0.5224
 1977poe    c3110753   6.631   3.345   4.522 -0.3073 -0.4361  0.7486
 1977poe     o210754   6.752   3.381   4.585  0.1084 -0.6752  0.1026
 1977poe    c2310755   6.868   3.314   4.540  0.5053 -0.3207  0.5918
 1977poe    c2310756   6.970   3.428   4.529  0.4275 -0.2874  0.1978
 1977poe     o210757   6.958   3.511   4.643  0.9861 -0.0840  0.1127
 1977poe    c2310758   7.037   3.628   4.639  0.3048  0.3718 -0.2250
 1977poe    c2310759   7.006   3.707   4.767  0.3040  0.0149 -0.0050
 1977poe     o210760   6.866   3.707   4.781  0.1803  0.2805 -1.1745
 1977poe    c2310761   6.836   3.828   4.847  0.0635  0.0832 -0.8651
 1977poe    c2310762   6.685   3.854   4.856 -0.0198 -0.6248 -0.0979
 1977poe     o210763   6.603   3.857   4.741 -0.3547  0.1110  0.1511
 1977poe    c3110764   6.467   3.856   4.776 -0.2514  0.6641  0.5883
 1978poe    c3110765   2.041   6.193   5.501 -0.3301 -0.1577 -0.6316
 1978poe     o210766   1.909   6.196   5.551 -0.1561  0.3736 -0.1874
 1978poe    c2310767   1.844   6.321   5.549  0.4871  0.7116 -0.8891
 1978poe    c2310768   1.771   6.343   5.683  1.0793 -0.8759 -0.2745
 1978poe     o210769   1.857   6.356   5.793  0.3353 -0.5380  0.2780
 1978poe    c2310770   1.787   6.379   5.914 -0.3213  0.5303 -0.2896
 1978poe    c2310771   1.874   6.371   6.040 -0.4129  0.5089 -0.2279
 1978poe     o210772   1.971   6.473   6.030 -0.2233  0.3121 -0.3858
 1978poe    c2310773   1.997   6.528   6.157 -0.1580 -0.5535 -0.0158
 1978poe    c2310774   2.145   6.569   6.142 -0.3169 -0.2034 -0.6395
 1978poe     o210775   2.177   6.642   6.026  0.2505  0.5361 -0.0296
 1978poe    c3110776   2.318   6.652   6.030  0.3091 -0.2315  0.0310
 1979poe    c3110777   0.824   7.137   5.682  0.2070  0.0913  0.2502
 1979poe     o210778   0.742   7.111   5.571  0.1926  0.8962  0.0687
 1979poe    c2310779   0.622   7.041   5.594  0.4828  0.3988  0.0840
 1979poe    c2310780   0.507   7.116   5.663 -0.0753 -0.2304 -0.1552
 1979poe     o210781   0.440   7.222   5.598 -0.1488  0.0831  0.4255
 1979poe    c2310782   0.353   7.173   5.498 -0.1340  0.7810  0.0698
 1979poe    c2310783   0.264   7.287   5.446 -0.4070  0.2724 -0.5857
 1979poe     o210784   0.162   7.312   5.541 -0.2607  0.1533 -0.3983
 1979poe    c2310785   0.038   7.351   5.486 -0.4684  0.3720  0.2249
 1979poe    c2310786   0.035   7.472   5.391 -0.0502  0.3041  0.1213
 1979poe     o210787   0.010   7.579   5.479  0.6347  0.9168 -0.4165
 1979poe    c3110788  -0.066   7.680   5.416 -0.0234  0.5086 -0.2829
 1980poe    c3110789   0.847   3.374   4.145 -0.4768  0.2358 -0.1064
 1980poe     o210790   0.921   3.494   4.158 -0.1394  0.0096  0.0608
 1980poe    c2310791   1.053   3.478   4.205  0.0384 -0.5859 -0.6249
 1980poe    c2310792   1.114   3.618   4.223 -0.5264 -0.4445  0.2613
 1980poe     o210793   1.146   3.685   4.103 -0.4636 -0.3714  0.3192
 1980poe    c2310794   1.219   3.802   4.134 -0.3920 -0.2364 -0.3320
 1980poe    c2310795   1.284   3.874   4.015 -0.4555 -0.1000 -0.2847
 1980poe     o210796   1.189   3.906   3.916 -0.3287  0.1987 -0.3087
 1980poe    c2310797   1.259   3.977   3.816  0.2855  0.2634  0.1571
 1980poe    c2310798   1.154   4.072   3.753 -0.2932 -0.2618  0.3209
 1980poe     o210799   1.048   4.018   3.678  0.0975 -0.3385 -0.1807
 1980poe    c3110800   0.977   4.132   3.637 -0.0085 -0.4976 -0.4422
 1981poe    c3110801   3.595   0.467   4.511 -0.2400  0.5660 -0.3122
 1981poe     o210802   3.601   0.332   4.551 -0.0801  0.5902 -0.2559
 1981poe    c2310803   3.718   0.261   4.519 -0.3624  0.0140 -0.0164
 1981poe    c2310804   3.727   0.122   4.585 -0.0072 -0.1884 -0.4871
 1981poe     o210805   3.794   0.112   4.709 -0.6571 -0.0557 -0.1208
 1981poe    c2310806   3.722   0.174   4.813 -0.2849  1.0885 -0.5377
 1981poe    c2310807   3.618   0.087   4.886 -0.1380  0.9539 -0.4890
 1981poe     o210808   3.506   0.061   4.805 -0.4135 -0.2646  0.2613
 1981poe    c2310809   3.453  -0.066   4.834 -0.1934 -0.2566  0.7105
 1981poe    c2310810   3.301  -0.074   4.808 -0.0715 -0.2081 -0.0262
 1981poe     o210811   3.244  -0.187   4.869  0.0924 -0.1388  0.2550
 1981poe    c3110812   3.104  -0.197   4.857  0.0495  0.0479  0.6017
 1982poe    c3110813   0.478   0.265   6.100 -0.1052 -0.3245 -0.1280
 1982poe     o210814   0.608   0.310   6.070 -0.2626  0.2053 -0.0294
 1982poe    c2310815   0.640   0.273   5.938 -0.1449  0.4522 -0.0688
 1982poe    c2310816   0.778   0.331   5.897 -0.3126  0.4402 -0.6578
 1982poe     o210817   0.797   0.469   5.883 -0.1456  0.5667  0.6893
 1982poe    c2310818   0.694   0.539   5.818  0.1406  0.3481 -0.0120
 1982poe    c2310819   0.756   0.680   5.807  0.6990  0.0449 -0.9082
 1982poe     o210820   0.778   0.729   5.938  0.3747 -0.3789 -0.6926
 1982poe    c2310821   0.843   0.852   5.962 -0.7421 -0.0161  0.5744
 1982poe    c2310822   0.870   0.856   6.114  0.1912 -0.2173  0.4200
 1982poe     o210823   0.927   0.732   6.150 -0.6662 -0.7500  0.0033
 1982poe    c3110824   0.912   0.738   6.290 -0.0774 -0.1714  0.0498
 1983poe    c3110825   5.462   0.204   6.002 -0.1863  0.8625 -0.5225
 1983poe     o210826   5.402   0.237   5.878  0.1958  0.5474 -0.7946
 1983poe    c2310827   5.282   0.309   5.895  0.1919  0.3205  0.2198
 1983poe    c2310828   5.209   0.321   5.760  0.1597 -0.9188  0.1197
 1983poe     o210829   5.309   0.341   5.663 -0.0377  0.0078  0.1001
 1983poe    c2310830   5.259   0.361   5.533 -1.0707  0.3759  0.5391
 1983poe    c2310831   5.293   0.498   5.472  0.1697 -0.3100 -0.3590
 1983poe     o210832   5.432   0.519   5.453  0.1040 -0.2153 -0.7391
 1983poe    c2310833   5.464   0.633   5.377  0.1293 -0.0394 -0.4646
 1983poe    c2310834   5.612   0.641   5.334  0.2027 -0.0393 -0.2118
 1983poe     o210835   5.691   0.681   5.444  0.2899 -0.2643 -0.1921
 1983poe    c3110836   5.821   0.640   5.407  0.4421 -0.3579  0.4283
 1984poe    c3110837   6.715   4.528   0.045 -0.6076  0.7036 -0.3823
 1984poe     o210838   6.630   4.433   0.106  0.1780  0.0926 -0.2094
 1984poe    c2310839   6.531   4.496   0.185  0.5002 -0.2699  0.4819
 1984poe    c2310840   6.415   4.405   0.227  0.1199 -0.0833 -0.1563
 1984poe     o210841   6.460   4.319   0.330 -0.0055  0.0839  0.0402
 1984poe    c2310842   6.385   4.200   0.338  0.1030 -0.0265 -0.5236
 1984poe    c2310843   6.472   4.093   0.407  0.1112  0.4717  0.2467
 1984poe     o210844   6.583   4.055   0.329 -0.1721 -0.4818  0.2912
 1984poe    c2310845   6.640   3.932   0.368 -0.1981 -0.2736  1.0004
 1984poe    c2310846   6.559   3.804   0.344  0.3710 -0.4097 -0.2531
 1984poe     o210847   6.448   3.781   0.428  0.6211 -0.6726  0.0044
 1984poe    c3110848   6.347   3.693   0.382 -0.1902  0.4084 -0.3084
 1985poe    c3110849   2.285   1.185   1.108  0.2803 -0.3434 -0.0168
 1985poe     o210850   2.171   1.236   1.172  0.4433  0.2515 -0.1963
 1985poe    c2310851   2.185   1.201   1.308  0.1124  0.3432 -0.1377
 1985poe    c2310852   2.073   1.275   1.383 -0.0696  0.0927 -0.1627
 1985poe     o210853   1.956   1.257   1.306  0.0070 -0.0582 -0.2439
 1985poe    c2310854   1.846   1.285   1.390  0.3940 -0.7766  0.5243
 1985poe    c2310855   1.717   1.247   1.314  0.4699  0.1995 -0.1116
 1985poe     o210856   1.739   1.292   1.182  0.2019 -0.0080 -0.2268
 1985poe    c2310857   1.645   1.233   1.096  0.6419 -0.4347 -0.4152
 1985poe    c2310858   1.614   1.325   0.977  0.0608  0.5279  0.4661
 1985poe     o210859   1.733   1.359   0.909 -0.3283  0.3136 -0.3327
 1985poe    c3110860   1.727   1.482   0.839  0.2027  0.4723 -0.1057
 1986poe    c3110861   4.933   4.713   3.513  0.3079  0.8513 -0.5746
 1986poe     o210862   5.063   4.767   3.515  0.7054 -0.0987  0.2840
 1986poe    c2310863   5.128   4.716   3.401 -0.0000  0.4706 -0.3908
 1986poe    c2310864   5.271   4.769   3.414  0.3113 -0.4187 -0.0398
 1986poe     o210865   5.269   4.910   3.416 -0.4643 -0.4327  0.2324
 1986poe    c2310866   5.402   4.945   3.444 -0.2602  0.0415 -1.2272
 1986poe    c2310867   5.427   5.097   3.441  0.1263  0.0254  0.3515
 1986poe     o210868   5.319   5.158   3.507  0.3089  0.6266  0.0988
 1986poe    c2310869   5.330   5.298   3.491  0.5879  0.5892 -0.0395
 1986poe    c2310870   5.185   5.334   3.529  0.4257 -0.2342  0.1386
 1986poe     o210871   5.095   5.255   3.453  0.4939 -0.0754 -0.1107
 1986poe    c3110872   4.976   5.325   3.424  0.0831 -0.5493  0.3986
 1987poe    c3110873   4.557   4.460   2.460  0.1115  0.3040 -0.3009
 1987poe     o210874   4.658   4.541   2.404  0.1141  0.3338 -0.2534
 1987poe    c2310875   4.609   4.669   2.373 -0.3725  0.3221  0.4595
 1987poe    c2310876   4.640   4.782   2.474 -0.0255  0.5826  0.0605
 1987poe     o210877   4.577   4.779   2.600  0.1075  0.2673  0.1195
 1987poe    c2310878   4.442   4.817   2.592  0.0500 -0.0345 -0.4412
 1987poe    c2310879   4.353   4.767   2.707  0.6656 -0.3197 -0.0813
 1987poe     o210880   4.319   4.633   2.681  0.1737 -0.1182 -0.4902
 1987poe    c2310881   4.251   4.574   2.789  0.0715  0.3111 -0.3195
 1987poe    c2310882   4.120   4.630   2.848  0.2335 -0.1182  0.4516
 1987poe     o210883   4.003   4.583   2.786  0.2996  0.3453 -0.0205
 1987poe    c3110884   3.902   4.659   2.849  0.0095 -0.3816  0.4067
 1988poe    c3110885   6.613   1.008   6.897 -0.9283 -0.4170 -0.1675
 1988poe     o210886   6.575   0.874   6.918  0.3972 -0.6510  0.8896
 1988poe    c2310887   6.675   0.797   6.980  1.2716  0.2307  0.5930
 1988poe    c2310888   6.664   0.648   6.944 -0.3454  0.4526  0.0831
 1988poe     o210889   6.541   0.597   6.991 -0.0311 -0.3817  0.0188
 1988poe    c2310890   6.534   0.459   6.964 -0.0681 -0.3163 -0.3023
 1988poe    c2310891   6.395   0.409   7.006 -0.0039 -0.3844 -0.1712
 1988poe     o210892   6.359   0.485   7.120  0.4915  0.0433 -0.3008
 1988poe    c2310893   6.233   0.447   7.170  0.4845 -0.2849 -0.5685
 1988poe    c2310894   6.199   0.562   7.265  0.7061 -0.6322 -0.0617
 1988poe     o210895   6.220   0.685   7.198 -0.5234  0.0213  0.7020
 1988poe    c3110896   6.135   0.776   7.264 -0.4243  0.5843  0.0567
 1989poe    c3110897   4.420   3.716   5.782  0.3791 -0.5437  0.3718
 1989poe     o210898   4.437   3.771   5.911  1.1195  0.3411 -0.0960
 1989poe    c2310899   4.513   3.674   5.979 -0.4457 -0.8443  0.0187
 1989poe    c2310900   4.471   3.684   6.127 -0.2337 -0.2838  0.0439
 1989poe     o210901   4.469   3.822   6.158 -0.0707 -0.2740  0.0121
 1989poe    c2310902   4.444   3.854   6.294 -0.4647 -0.0133 -0.1201
 1989poe    c2310903   4.431   4.006   6.310 -0.6948 -0.1403  0.9381
 1989poe     o210904   4.339   4.054   6.215 -0.2981 -0.0356  0.6019
 1989poe    c2310905   4.300   4.188   6.231 -0.0226  0.1248 -0.0373
 1989poe    c2310906   4.196   4.230   6.124  0.2301  0.3991 -0.1780
 1989poe     o210907   4.089   4.141   6.100  0.1115  0.4389  0.1954
 1989poe    c3110908   3.975   4.211   6.055  0.1160  0.3501  0.0472
 1990poe    c3110909   3.727   2.360   4.150 -0.8253 -0.3469  0.3258
 1990poe     o210910   3.738   2.341   4.289 -0.2968 -0.9021  0.2140
 1990poe    c2310911   3.878   2.341   4.299 -0.2727 -0.2307 -0.0450
 1990poe    c2310912   3.933   2.309   4.439  0.1872  0.1218 -0.1421
 1990poe     o210913   3.886   2.185   4.487  0.6368 -0.2556 -0.6680
 1990poe    c2310914   3.958   2.139   4.599 -0.3920  0.1242  0.1726
 1990poe    c2310915   3.928   1.991   4.629 -0.3625  0.0001 -0.4002
 1990poe     o210916   3.816   1.958   4.708  0.1043  0.0187  0.2793
 1990poe    c2310917   3.801   1.822   4.739 -0.0589 -0.0067  0.0964
 1990poe    c2310918   3.775   1.728   4.620  0.6443  0.2401 -0.2583
 1990poe     o210919   3.689   1.791   4.528  0.1007  0.2425  0.2460
 1990poe    c3110920   3.731   1.760   4.397 -0.4960 -0.2520  0.1663
 1991poe    c3110921   3.934   3.115   2.731  0.1931 -0.6365 -0.4730
 1991poe     o210922   4.063   3.155   2.771 -0.1321  0.0677 -0.1008
 1991poe    c2310923   4.151   3.152   2.660  0.6465 -0.0265  0.5049
 1991poe    c2310924   4.295   3.161   2.713  0.8410  0.1604 -0.0448
 1991poe     o210925   4.307   3.268   2.804 -0.2975  0.5590 -0.3459
 1991poe    c2310926   4.435   3.269   2.863 -0.4508  0.0136  0.0023
 1991poe    c2310927   4.449   3.397   2.948  0.0863 -0.0631  0.0335
 1991poe     o210928   4.334   3.390   3.029 -0.1051  0.2569 -0.2085
 1991poe    c2310929   4.333   3.481   3.137 -0.4182 -0.5182  0.4495
 1991poe    c2310930   4.198   3.484   3.211 -0.5418  0.3966  0.2058
 1991poe     o210931   4.089   3.527   3.133 -0.1656  0.3978 -0.3228
 1991poe    c3110932   3.996   3.563   3.233  0.1039  0.1624  0.0140
 1992poe    c3110933   2.862   5.896   5.450 -0.8142 -0.7294 -0.8455
 1992poe     o210934   2.969   5.898   5.359  0.1207  0.3039  0.2357
 1992poe    c2310935   2.948   5.999   5.262  0.2258  0.3784  0.2899
 1992poe    c2310936   3.056   5.980   5.153 -0.2669  0.4497 -0.2154
 1992poe     o210937   3.042   5.846   5.114  0.4367  0.2469  0.2120
 1992poe    c2310938   3.128   5.827   5.003 -0.5522  0.1009 -0.5490
 1992poe    c2310939   3.159   5.677   4.985  0.6119  0.2820 -0.1659
 1992poe     o210940   3.237   5.645   5.098 -0.1981  0.2706  0.4023
 1992poe    c2310941   3.266   5.507   5.102  0.9139  0.4421 -0.9288
 1992poe    c2310942   3.347   5.484   5.231 -0.2740 -0.0212 -0.2485
 1992poe     o210943   3.275   5.481   5.352  0.0113 -0.1260 -0.0822
 1992poe    c3110944   3.358   5.438   5.458  0.3832  0.0345 -0.3077
 1993poe    c3110945   0.721   3.019   0.913 -0.3556 -0.1375 -0.6680
 1993poe     o210946   0.838   2.996   0.838  0.0021 -0.0337 -0.1466
 1993poe    c2310947   0.822   2.936   0.711 -0.2654 -0.0412 -0.1088
 1993poe    c2310948   0.960   2.946   0.644 -0.4401  0.4213 -0.4015
 1993poe     o210949   1.000   3.081   0.638  0.3435  0.2101 -0.0767
 1993poe    c2310950   1.138   3.081   0.609  0.1757  0.4203 -0.9298
 1993poe    c2310951   1.203   3.220   0.624  0.6977  0.1294 -0.4325
 1993poe     o210952   1.127   3.331   0.580  0.3441 -0.0863 -0.3771
 1993poe    c2310953   1.184   3.452   0.625 -0.3534 -0.0325  0.3831
 1993poe    c2310954   1.100   3.567   0.566  0.2112  0.3994  0.4029
 1993poe     o210955   0.966   3.527   0.588  0.2102  0.2174  0.0779
 1993poe    c3110956   0.888   3.626   0.524 -0.3664  0.0172  0.4626
 1994poe    c3110957   0.524   1.608   6.170  0.0892 -0.3413 -0.2171
 1994poe     o210958   0.624   1.523   6.221 -0.0375 -0.0190  0.5937
 1994poe    c2310959   0.586   1.388   6.213 -0.1169  0.0048  0.5732
 1994poe    c2310960   0.709   1.301   6.243  0.0139  0.0396  0.1390
 1994poe     o210961   0.763   1.283   6.372  0.1255 -0.7321 -0.0064
 1994poe    c2310962   0.693   1.181   6.438  0.4093 -0.8115  0.1749
 1994poe    c2310963   0.774   1.149   6.565 -0.0331 -0.9422  0.4272
 1994poe     o210964   0.827   1.260   6.634  0.0590 -0.3831 -0.5232
 1994poe    c2310965   0.918   1.202   6.725 -0.2033  0.4897  0.3045
 1994poe    c2310966   0.884   1.252   6.867  0.0697 -0.3905  0.6863
 1994poe     o210967   0.927   1.380   6.907 -0.0530 -0.2686  0.4346
 1994poe    c3110968   0.891   1.395   7.043 -0.1473  0.4167  0.3337
 1995poe    c3110969   0.702   1.521   4.106  0.3202 -0.4722  0.6788
 1995poe     o210970   0.836   1.481   4.124  0.6141  0.2663  0.1986
 1995poe    c2310971   0.924   1.591   4.120 -0.3170  1.0195 -0.0040
 1995poe    c2310972   1.067   1.533   4.108 -0.8213 -0.3222  0.2680
 1995poe     o210973   1.087   1.455   3.993  0.2658 -0.1995  0.3690
 1995poe    c2310974   1.197   1.367   4.006 -0.0899 -0.7161 -0.0617
 1995poe    c2310975   1.250   1.333   3.866  0.1052 -0.4032 -0.0653
 1995poe     o210976   1.136   1.279   3.802  0.2403 -0.5178 -0.2104
 1995poe    c2310977   1.167   1.258   3.666  0.8017 -0.4359 -0.0982
 1995poe    c2310978   1.045   1.191   3.600 -0.3982  0.3613  1.2662
 1995poe     o210979   0.936   1.280   3.594 -0.6246  0.0002 -0.3183
 1995poe    c3110980   0.816   1.232   3.537 -0.6451  0.2383 -0.4772
 1996poe    c3110981   5.784   3.136   6.544 -0.5010 -0.3582  0.7301
 1996poe     o210982   5.806   3.078   6.418  0.6768  0.8258  0.3717
 1996poe    c2310983   5.823   3.171   6.313  0.3104  0.1109 -0.3241
 1996poe    c2310984   5.931   3.116   6.217  0.0426  0.3242 -0.7528
 1996poe     o210985   5.903   2.993   6.154 -0.0876 -0.0639  0.0509
 1996poe    c2310986   5.996   2.966   6.051  0.0993 -0.7394  0.3922
 1996poe    c2310987   6.017   2.813   6.060 -0.5101 -0.8526 -0.0930
 1996poe     o210988   5.894   2.744   6.054 -0.6286 -0.6121 -0.4945
 1996poe    c2310989   5.925   2.615   6.101  0.5348 -0.2589 -0.2635
 1996poe    c2310990   5.794   2.535   6.109  0.7927 -0.6829 -0.2468
 1996poe     o210991   5.709   2.633   6.164  0.9565 -0.4531 -0.4022
 1996poe    c3110992   5.585   2.569   6.182  0.4460  0.5584 -0.2205
 1997poe    c3110993   6.004   5.485   2.860  0.5476 -0.3849 -0.1794
 1997poe     o210994   5.908   5.541   2.773  0.1049 -1.2561 -0.2535
 1997poe    c2310995   5.814   5.438   2.748 -0.8027 -0.6182  0.4664
 1997poe    c2310996   5.700   5.495   2.662 -0.3886 -0.1396  0.2259
 1997poe     o210997   5.647   5.617   2.708 -0.2401 -0.0893  0.2643
 1997poe    c2310998   5.528   5.644   2.637 -0.3342 -0.6650  0.2003
 1997poe    c2310999   5.458   5.762   2.707  0.1495 -0.3546  0.1664
 1997poe     o211000   5.521   5.888   2.712 -0.5371 -0.0098  0.2728
 1997poe    c2311001   5.429   5.994   2.712 -0.7596 -0.1997 -0.1140
 1997poe    c2311002   5.408   6.057   2.851 -0.3476  0.5207 -0.3727
 1997poe     o211003   5.335   5.973   2.938  0.3982 -0.3995 -0.6154
 1997poe    c3111004   5.359   6.025   3.067 -1.1683 -0.3290 -0.3355
 1998poe    c3111005   0.927   2.901   6.264 -0.1723 -0.1419  0.7065
 1998poe     o211006   0.887   3.023   6.320  0.6726  0.5792 -0.2303
 1998poe    c2311007   0.962   3.055   6.435 -0.2483 -0.4490  0.6744
 1998poe    c2311008   0.902   3.187   6.486 -0.3245 -0.1320 -0.2202
 1998poe     o211009   0.860   3.262   6.374  0.0369 -0.0736 -0.3197
 1998poe    c2311010   0.804   3.387   6.407  0.0815 -0.1182 -0.0674
 1998poe    c2311011   0.745   3.435   6.273 -0.0732 -0.4701 -0.1256
 1998poe     o211012   0.676   3.320   6.230 -0.3580 -0.4653  0.3055
 1998poe    c2311013   0.636   3.327   6.095 -0.0499  0.1018  0.2446
 1998poe    c2311014   0.583   3.186   6.064  0.1497  0.0456  0.1574
 1998poe     o211015   0.677   3.091   6.111  0.1237 -0.1333 -0.1495
 1998poe    c3111016   0.614   2.966   6.099  0.4086 -0.2338 -0.6115
 1999poe    c3111017   2.689   1.854   1.996 -0.1081  0.6924 -1.1659
 1999poe     o211018   2.620   1.747   2.057  0.0767  0.7483 -0.8603
 1999poe    c2311019   2.672   1.622   2.021  0.0234  0.3294  0.4416
 1999poe    c2311020   2.584   1.501   2.058 -0.0643  0.3144  0.1861
 1999poe     o211021   2.464   1.481   1.987  0.1195 -0.4430  0.0809
 1999poe    c2311022   2.407   1.356   2.021 -0.1572 -0.3482 -0.0275
 1999poe    c2311023   2.278   1.355   1.938 -0.1581 -0.1541 -0.0281
 1999poe     o211024   2.225   1.486   1.945 -0.0390 -0.1100  0.0452
 1999poe    c2311025   2.115   1.500   1.858 -0.5661 -0.7356  0.6018
 1999poe    c2311026   2.054   1.639   1.883 -0.0004 -0.4786  0.5735
 1999poe     o211027   2.151   1.737   1.851 -0.4188  0.0289  0.8339
 1999poe    c3111028   2.114   1.865   1.896  0.2237  0.3243  0.5322
 2000poe    c3111029   3.521   0.014   5.810  0.2673 -0.3849 -0.2076
 2000poe     o211030   3.494   0.075   5.934  0.5107 -0.2422 -0.2257
 2000poe    c2311031   3.582   0.185   5.944 -0.2164  0.2880  0.4820
 2000poe    c2311032   3.544   0.291   6.049 -0.4760  0.1941  0.4828
 2000poe     o211033   3.545   0.217   6.169  0.2668  0.2907  0.5435
 2000poe    c2311034   3.503   0.297   6.277 -0.4429  0.7295 -0.0437
 2000poe    c2311035   3.513   0.211   6.405  0.1591 -0.3122 -0.7757
 2000poe     o211036   3.482   0.077   6.373 -0.0939 -0.4384 -0.0262
 2000poe    c2311037   3.472  -0.015   6.478 -0.3310 -0.1111  0.2407
 2000poe    c2311038   3.444  -0.147   6.404 -0.0091  0.3514 -0.7126
 2000poe     o211039   3.529  -0.157   6.292  0.1889 -0.0760 -0.5243
 2000poe    c3111040   3.509  -0.272   6.213  0.3240 -0.3399 -0.1797
 2001poe    c3111041   6.460   0.866   6.108 -0.1268  0.2119  0.3024
 2001poe     o211042   6.599   0.883   6.087 -0.0455 -0.2765  0.4319
 2001poe    c2311043   6.663   0.758   6.096  0.1072 -0.2782 -0.6373
 2001poe    c2311044   6.789   0.761   6.007  0.3310 -0.4142 -0.3266
 2001poe     o211045   6.871   0.860   6.065  0.5222 -0.8603  0.1803
 2001poe    c2311046   7.004   0.847   6.019  0.4525 -0.2534 -0.2137
 2001poe    c2311047   7.096   0.966   6.052  0.8215 -0.6235  0.1237
 2001poe     o211048   7.047   1.091   6.008  0.6073 -0.6957  0.1561
 2001poe    c2311049   7.142   1.186   6.050 -0.8657  0.6797  0.4968
 2001poe    c2311050   7.125   1.300   5.947 -0.2553 -0.3134 -0.7412
 2001poe     o211051   6.989   1.336   5.936 -0.1912  0.1355 -0.1374
 2001poe    c3111052   6.955   1.450   5.859 -0.0044 -0.2441 -0.7880
 2002poe    c3111053   4.097   6.647   6.903 -0.0644  0.3325  0.5331
 2002poe     o211054   4.208   6.734   6.908  0.6826 -0.5494 -0.2802
 2002poe    c2311055   4.201   6.819   7.020  0.1129 -0.8323 -0.0963
 2002poe    c2311056   4.305   6.791   7.130 -0.1051  0.4501  0.4505
 2002poe     o211057   4.428   6.745   7.079 -0.1657  0.8218 -0.0413
 2002poe    c2311058   4.504   6.672   7.173 -0.2754  0.2328 -0.4088
 2002poe    c2311059   4.608   6.581   7.104 -0.5819  0.2213 -0.8568
 2002poe     o211060   4.680   6.656   7.009  0.5023  0.5185  0.1895
 2002poe    c2311061   4.786   6.575   6.961 -0.8048 -0.5611 -0.9381
 2002poe    c2311062   4.865   6.673   6.872 -0.4329 -0.0957 -0.1085
 2002poe     o211063   4.776   6.740   6.785 -0.2074  0.4277  0.0653
 2002poe    c3111064   4.848   6.764   6.666  0.2181 -0.3172  0.1618
 2003poe    c3111065   2.697   0.073   2.742 -0.1821 -0.0803  0.2473
 2003poe     o211066   2.695   0.181   2.833 -0.0232 -0.0951  0.2669
 2003poe    c2311067   2.580   0.254   2.798 -0.2834 -0.1789  0.9247
 2003poe    c2311068   2.564   0.360   2.908 -0.1391  0.3120  0.4776
 2003poe     o211069   2.681   0.437   2.920 -0.1103  0.4061 -0.3328
 2003poe    c2311070   2.658   0.553   2.997 -0.2657 -0.0353  0.2934
 2003poe    c2311071   2.792   0.628   2.992 -0.1451 -0.3027 -0.4773
 2003poe     o211072   2.878   0.532   3.051  0.0135  0.4500  0.5329
 2003poe    c2311073   3.011   0.579   3.045  0.2604 -0.3190 -0.1349
 2003poe    c2311074   3.126   0.483   3.079  0.7001  0.4047  0.4456
 2003poe     o211075   3.139   0.365   3.003 -0.4452  0.2088  0.5338
 2003poe    c3111076   3.269   0.309   2.997 -0.4132  0.3661 -0.4583
 2004poe    c3111077   5.760   0.063   3.157 -0.2821 -0.1810 -0.1236
 2004poe     o211078   5.807  -0.057   3.099  0.9296  0.3047 -0.1873
 2004poe    c2311079   5.746  -0.066   2.972 -0.0839 -0.3509  0.3356
 2004poe    c2311080   5.783  -0.208   2.926 -0.1481 -0.0944 -0.5199
 2004poe     o211081   5.914  -0.227   2.877  0.0818  0.6187 -0.1974
 2004poe    c2311082   5.911  -0.365   2.849 -0.5435  0.7058 -0.5952
 2004poe    c2311083   6.054  -0.392   2.797 -0.5494 -0.5508 -0.0137
 2004poe     o211084   6.121  -0.375   2.920 -0.2381 -0.1156 -0.2402
 2004poe    c2311085   6.253  -0.425   2.923  0.1335  0.8369 -0.2483
 2004poe    c2311086   6.316  -0.400   3.061 -0.0346  0.1296 -0.0395
 2004poe     o211087   6.274  -0.270   3.094 -0.1883  0.0549  0.0645
 2004poe    c3111088   6.331  -0.214   3.210 -0.3035  0.0720  0.1131
 2005poe    c3111089   6.404   6.222   1.213 -0.9397  0.0346 -0.7858
 2005poe     o211090   6.311   6.135   1.274 -0.3750 -0.2050 -0.2424
 2005poe    c2311091   6.284   6.170   1.408 -0.1071  0.7598 -0.4293
 2005poe    c2311092   6.166   6.106   1.483  0.5489  0.1780  0.1208
 2005poe     o211093   6.178   5.966   1.479 -0.6657  0.0659  0.0054
 2005poe    c2311094   6.101   5.907   1.581 -0.2019 -0.1948  0.2074
 2005poe    c2311095   6.097   5.754   1.570 -0.1124 -0.1563 -0.3576
 2005poe     o211096   6.059   5.717   1.439  0.0177  0.0060 -0.4404
 2005poe    c2311097   6.044   5.578   1.423  0.0002 -0.0413 -0.0222
 2005poe    c2311098   6.009   5.543   1.277  0.0533 -1.0286  0.1929
 2005poe     o211099   6.123   5.554   1.194 -0.1170 -0.3804  0.0351
 2005poe    c3111100   6.094   5.534   1.057 -0.4175 -0.2070  0.0726
 2006poe    c3111101   5.654   1.044   2.872 -0.2470  0.3185  0.0696
 2006poe     o211102   5.649   1.121   2.990  0.1104  0.8110 -0.2301
 2006poe    c2311103   5.618   1.257   2.969  0.0227  0.8876  0.3696
 2006poe    c2311104   5.520   1.315   3.072 -0.7826 -0.1449  0.2027
 2006poe     o211105   5.570   1.356   3.197 -0.1337  0.2534 -0.1860
 2006poe    c2311106   5.468   1.436   3.251  0.2679  0.4611  0.2753
 2006poe    c2311107   5.525   1.531   3.358  0.6961  0.5716 -0.0511
 2006poe     o211108   5.629   1.475   3.435 -0.0684 -0.2152  0.4299
 2006poe    c2311109   5.587   1.408   3.551 -1.2027 -0.3587 -0.0459
 2006poe    c2311110   5.700   1.326   3.616 -1.1533 -0.3906 -0.1712
 2006poe     o211111   5.733   1.213   3.538  0.0281 -0.1015 -0.1065
 2006poe    c3111112   5.815   1.123   3.608  0.0279 -0.2001 -0.2332
 2007poe    c3111113   2.258   3.160   6.589  0.3338  0.2673 -0.7115
 2007poe     o211114   2.388   3.108   6.609  0.2503  0.2348 -0.2509
 2007poe    c2311115   2.491   3.205   6.614  0.3974  0.0839 -0.3465
 2007poe    c2311116   2.633   3.152   6.642  0.3349 -0.1516 -0.4739
 2007poe     o211117   2.668   3.049   6.552 -0.2610 -0.8593  0.0806
 2007poe    c2311118   2.804   3.032   6.586 -0.1517 -0.2963 -0.0603
 2007poe    c2311119   2.877   2.910   6.529 -0.1261 -0.4894  0.3816
 2007poe     o211120   2.873   2.902   6.388  0.0532 -0.4865  0.3753
 2007poe    c2311121   2.951   2.797   6.336  0.4110 -0.1977  0.3263
 2007poe    c2311122   2.892   2.656   6.356 -0.2961  0.0999  0.3684
 2007poe     o211123   2.783   2.608   6.280 -0.0724  0.0472  0.0755
 2007poe    c3111124   2.708   2.520   6.361  0.0771  0.0342  0.2002
 2008poe    c3111125   4.228   2.210   4.166  0.1869 -0.5610 -0.6895
 2008poe     o211126   4.175   2.289   4.062  0.0436  0.1500 -0.0874
 2008poe    c2311127   4.174   2.420   4.113  0.8383 -0.1628  0.7587
 2008poe    c2311128   4.089   2.509   4.020  0.4623 -0.6687  0.6148
 2008poe     o211129   4.126   2.532   3.886 -0.8232 -1.0660  0.1750
 2008poe    c2311130   4.040   2.624   3.823 -0.0499 -0.2498  0.3026
 2008poe    c2311131   4.120   2.676   3.701  0.1541 -0.6039  0.2817
 2008poe     o211132   4.163   2.555   3.644 -0.1123 -0.5282 -0.0875
 2008poe    c2311133   4.217   2.579   3.516 -0.4037  0.2917 -0.0621
 2008poe    c2311134   4.283   2.453   3.457 -0.0297  0.4407  0.0364
 2008poe     o211135   4.185   2.359   3.496 -0.2600  0.4645 -0.4721
 2008poe    c3111136   4.205   2.229   3.445  0.0701  0.5173 -0.4798
 2009poe    c3111137   6.807   0.817   3.153 -0.1274  0.1967  0.3533
 2009poe     o211138   6.786   0.731   3.043  0.4213  0.1842  0.2595
 2009poe    c2311139   6.708   0.618   3.076  0.3111  0.4078  0.7736
 2009poe    c2311140   6.557   0.649   3.079  0.1885 -0.1948  0.9718
 2009poe     o211141   6.515   0.729   2.971  0.0565 -1.1432  0.3157
 2009poe    c2311142   6.374   0.740   2.974  0.1426 -0.0557  0.6867
 2009poe    c2311143   6.331   0.855   2.881  0.9392 -0.5263 -0.2912
 2009poe     o211144   6.394   0.977   2.913  0.4947 -0.2948 -0.2914
 2009poe    c2311145   6.345   1.067   2.816  0.2447 -0.3472 -0.2149
 2009poe    c2311146   6.455   1.175   2.808 -0.2669  0.1779 -0.2281
 2009poe     o211147   6.579   1.128   2.761 -0.1379  0.0326  0.2553
 2009poe    c3111148   6.681   1.219   2.727  0.2526 -0.3404  0.4008
 2010poe    c3111149   4.772   0.866   4.783 -0.4742  0.1665 -0.0224
 2010poe     o211150   4.882   0.900   4.700  0.0722  0.2322  0.7136
 2010poe    c2311151   5.000   0.830   4.731 -0.2121 -0.8592 -0.5624
 2010poe    c2311152   5.108   0.847   4.622  0.0931  0.0200 -0.1319
 2010poe     o211153   5.154   0.978   4.599 -0.6423  0.1589 -0.8968
 2010poe    c2311154   5.249   0.978   4.495 -0.0634 -0.3201 -0.3780
 2010poe    c2311155   5.313   1.117   4.475 -0.1315 -0.2166  0.1215
 2010poe     o211156   5.196   1.195   4.466  0.2004  0.2621 -0.0542
 2010poe    c2311157   5.220   1.333   4.448  0.1924  0.2133 -0.4627
 2010poe    c2311158   5.081   1.393   4.421 -0.0042 -0.1011 -0.1571
 2010poe     o211159   4.991   1.350   4.521  0.4265  0.1803  0.3617
 2010poe    c3111160   4.953   1.461   4.599 -0.5800 -0.0938  0.2782
 2011poe    c3111161   4.440   6.742   6.055 -0.0190  0.0678 -0.5190
 2011poe     o211162   4.577   6.742   6.022  0.1118 -0.0278  0.0206
 2011poe    c2311163   4.629   6.864   6.070  0.5221 -0.0182 -0.4444
 2011poe    c2311164   4.781   6.882   6.051  0.5908 -0.1352 -0.0087
 2011poe     o211165   4.804   6.916   5.916  0.0935  0.3442  0.0260
 2011poe    c2311166   4.942   6.923   5.888  0.1013  0.4795  0.0967
 2011poe    c2311167   5.004   6.787   5.850 -0.2522  0.2310  0.4038
 2011poe     o211168   4.934   6.724   5.745  0.5266  0.3355 -0.1842
 2011poe    c2311169   5.027   6.640   5.680 -0.1516 -0.7817  0.2576
 2011poe    c2311170   4.953   6.577   5.561  0.0456  0.2156 -0.4050
 2011poe     o211171   4.843   6.498   5.600 -0.3568  0.6185 -0.7137
 2011poe    c3111172   4.813   6.403   5.501  0.0775 -0.0567 -0.2084
 2012poe    c3111173   6.515   5.922   3.868 -0.6335 -0.3004 -0.4112
 2012poe     o211174   6.507   6.014   3.762  0.1217  0.0252 -0.1879
 2012poe    c2311175   6.442   5.944   3.658  0.2028 -0.2704 -0.0383
 2012poe    c2311176   6.410   6.041   3.544 -0.0946 -0.1927  0.1100
 2012poe     o211177   6.516   6.111   3.481 -0.0124 -0.4170 -0.0057
 2012poe    c2311178   6.444   6.189   3.388  0.5441 -0.1734 -0.2304
 2012poe    c2311179   6.552   6.266   3.308  0.0156  0.5903 -0.2183
 2012poe     o211180   6.634   6.189   3.224 -0.1135  0.1258  0.0783
 2012poe    c2311181   6.679   6.268   3.117 -0.3026 -0.0339 -0.1218
 2012poe    c2311182   6.714   6.184   2.993  0.5347 -0.4766  0.4062
 2012poe     o211183   6.842   6.125   2.995  0.9160  0.3246 -0.0846
 2012poe    c3111184   6.860   6.041   2.883  0.3611 -0.0396  0.0988
 2013poe    c3111185   0.252   1.330   0.029 -0.2205 -0.2808  0.8682
 2013poe     o211186   0.228   1.363   0.164 -0.2484  0.5726  0.6637
 2013poe    c2311187   0.233   1.247   0.245 -0.3388 -0.0866 -0.2584
 2013poe    c2311188   0.185   1.282   0.387 -0.3997  0.0064 -0.3020
 2013poe     o211189   0.245   1.402   0.429  0.0140 -0.1685 -0.3919
 2013poe    c2311190   0.184   1.436   0.552  0.6865 -0.2967 -0.0152
 2013poe    c2311191   0.199   1.588   0.577 -0.6531 -0.1563  0.0393
 2013poe     o211192   0.144   1.646   0.461 -0.3036  0.1655  0.0337
 2013poe    c2311193   0.107   1.781   0.478  0.5375  0.3932  0.1029
 2013poe    c2311194   0.008   1.814   0.365  0.1668  0.2718  0.3892
 2013poe     o211195   0.037   1.804   0.228  0.2493  0.3181  0.4032
 2013poe    c3111196  -0.058   1.872   0.149 -0.0761 -0.2173  0.3286
 2014poe    c3111197   5.652   1.905   0.299 -1.2259  0.1364 -0.0361
 2014poe     o211198   5.738   1.794   0.312 -0.6296  0.4970 -0.8177
 2014poe    c2311199   5.660   1.684   0.352  0.7986 -0.2326  0.0359
 2014poe    c2311200   5.676   1.591   0.230  0.2130  0.6262 -0.7074
 2014poe     o211201   5.816   1.586   0.218  0.2210 -0.2061 -0.3727
 2014poe    c2311202   5.866   1.455   0.216 -0.2480 -0.4034  0.6208
 2014poe    c2311203   6.020   1.441   0.211 -0.2402 -0.1448  0.0683
 2014poe     o211204   6.090   1.464   0.332 -0.1697  0.3236 -0.0613
 2014poe    c2311205   6.224   1.503   0.316 -0.1047 -0.0399 -0.3995
 2014poe    c2311206   6.304   1.546   0.440 -0.4929 -0.5857  0.0433
 2014poe     o211207   6.261   1.664   0.504  0.7167  0.3624 -0.8599
 2014poe    c3111208   6.338   1.686   0.620  0.1205  0.3483 -0.4560
 2015poe    c3111209   4.444   5.169   1.553 -0.2194  0.1438  0.2202
 2015poe     o211210   4.435   5.032   1.525 -0.0828  0.2855 -0.5219
 2015poe    c2311211   4.303   4.992   1.556 -0.4469  0.7474 -1.4204
 2015poe    c2311212   4.284   4.844   1.516 -0.2987  0.3044  0.0868
 2015poe     o211213   4.362   4.764   1.602  0.0178  0.1446 -0.3463
 2015poe    c2311214   4.381   4.635   1.548  0.4865  0.1579 -0.2170
 2015poe    c2311215   4.463   4.555   1.651 -0.1302 -0.4600 -0.1975
 2015poe     o211216   4.600   4.588   1.653 -0.1343 -0.4523 -0.0682
 2015poe    c2311217   4.640   4.549   1.782  0.2550 -0.2954 -0.1394
 2015poe    c2311218   4.790   4.583   1.796 -0.0072  0.5745  0.7314
 2015poe     o211219   4.808   4.711   1.741  0.5760  0.1487 -0.0941
 2015poe    c3111220   4.935   4.762   1.772  0.5371  0.7559 -0.9002
 2016poe    c3111221   0.086   4.763   5.440 -0.0487 -0.1011 -0.4588
 2016poe     o211222   0.168   4.706   5.340  0.2941  0.2008 -0.3508
 2016poe    c2311223   0.200   4.801   5.242  0.6056  0.3088 -0.1496
 2016poe    c2311224   0.170   4.761   5.096  0.4185 -0.0860 -0.0039
 2016poe     o211225   0.264   4.672   5.040 -0.0871 -0.5420 -0.1425
 2016poe    c2311226   0.210   4.633   4.916 -0.1611  0.4232 -0.4216
 2016poe    c2311227   0.317   4.557   4.837 -0.5673 -0.4326 -0.1542
 2016poe     o211228   0.339   4.421   4.870  0.8573 -0.1479  0.1345
 2016poe    c2311229   0.387   4.342   4.764 -0.4218 -0.3387 -0.3196
 2016poe    c2311230   0.281   4.297   4.662 -0.3385 -0.1882 -0.4732
 2016poe     o211231   0.201   4.390   4.592 -0.2070  0.2177 -0.0868
 2016poe    c3111232   0.266   4.437   4.477 -0.2647 -0.2118 -0.2950
 2017poe    c3111233   7.147   4.121   4.426 -0.2878 -0.2483 -0.2717
 2017poe     o211234   7.046   4.210   4.465  0.2288  0.1658  0.1461
 2017poe    c2311235   6.986   4.165   4.584  0.0657 -0.4854 -0.1752
 2017poe    c2311236   6.841   4.163   4.533 -0.0631  0.5550  0.1212
 2017poe     o211237   6.792   4.294   4.509  0.5606  0.7336 -0.2004
 2017poe    c2311238   6.757   4.368   4.623 -0.0806  0.0512  0.0526
 2017poe    c2311239   6.666   4.490   4.596  0.5595  0.5288  0.0488
 2017poe     o211240   6.565   4.450   4.506  0.1462  0.7875  0.3959
 2017poe    c2311241   6.459   4.542   4.491 -0.3491  0.1023 -0.3171
 2017poe    c2311242   6.328   4.485   4.434 -0.5220  0.0347  0.1475
 2017poe     o211243   6.342   4.461   4.296  0.2006 -0.2491  0.2673
 2017poe    c3111244   6.249   4.359   4.268  0.4212 -0.4766  0.3604
 2018poe    c3111245   3.059   1.157   3.884 -0.2848  0.7838 -0.0206
 2018poe     o211246   3.088   1.246   3.779  0.3610  0.2235 -0.3268
 2018poe    c2311247   3.148   1.175   3.673  0.3892  0.4927 -0.4923
 2018poe    c2311248   3.102   1.245   3.543 -0.5836  0.1720 -0.3303
 2018poe     o211249   3.078   1.383   3.561 -0.4855  0.1496 -0.0133
 2018poe    c2311250   3.079   1.461   3.443  0.0389  0.0917 -0.0485
 2018poe    c2311251   3.065   1.612   3.471  0.7518  0.0145  0.7909
 2018poe     o211252   2.954   1.641   3.553 -0.1126 -0.0879 -0.3209
 2018poe    c2311253   2.963   1.765   3.620  0.0637 -0.1503 -0.2299
 2018poe    c2311254   2.840   1.776   3.711  0.1985 -0.2742 -0.0326
 2018poe     o211255   2.859   1.720   3.839 -0.5325  0.7191  0.5297
 2018poe    c3111256   2.960   1.786   3.912 -0.4793  0.7141  0.4615
 2019poe    c3111257   4.209   0.169   2.099 -0.0166 -0.1997 -0.2192
 2019poe     o211258   4.155   0.145   2.227  0.3006 -0.3852 -0.1190
 2019poe    c2311259   4.248   0.166   2.331  0.3218 -0.1560 -0.1839
 2019poe    c2311260   4.170   0.124   2.457  0.0264 -0.2380 -0.3918
 2019poe     o211261   4.042   0.179   2.476  0.1893  0.0842 -0.2163
 2019poe    c2311262   3.956   0.123   2.573 -0.6243  0.5870 -0.6324
 2019poe    c2311263   3.809   0.166   2.557 -0.5796  0.7746 -0.5430
 2019poe     o211264   3.746   0.078   2.467 -0.1083 -0.4609  0.3056
 2019poe    c2311265   3.680  -0.032   2.525 -0.0889 -0.3148  0.6052
 2019poe    c2311266   3.580  -0.113   2.440  0.0416 -0.4190  0.5523
 2019poe     o211267   3.624  -0.170   2.319 -0.3298 -0.0765  0.2537
 2019poe    c3111268   3.519  -0.233   2.250  0.1967  0.1054 -0.7353
 2020poe    c3111269   2.980   3.997   3.045  0.2901 -0.4482  0.0304
 2020poe     o211270   2.992   4.075   3.162 -0.4497  0.5058 -0.5080
 2020poe    c2311271   3.064   4.194   3.145 -0.1787  0.3807 -0.2425
 2020poe    c2311272   3.042   4.281   3.270  0.4611 -0.2290  0.2997
 2020poe     o211273   2.909   4.322   3.291  0.3705 -0.2510 -0.2306
 2020poe    c2311274   2.907   4.385   3.417 -0.1187 -0.1254 -0.2975
 2020poe    c2311275   2.766   4.396   3.478  0.1398  0.1622  0.2517
 2020poe     o211276   2.700   4.273   3.498  0.3388 -0.0037 -0.1086
 2020poe    c2311277   2.593   4.278   3.408  0.0247 -0.0459  0.2593
 2020poe    c2311278   2.499   4.166   3.456 -0.1106  0.1047  0.3483
 2020poe     o211279   2.573   4.047   3.440 -0.3595 -0.0942  0.6606
 2020poe    c3111280   2.522   3.925   3.489 -0.0038 -0.4807  0.0869
 2021poe    c3111281   3.367   1.077   5.111  0.0497 -0.6556  0.2909
 2021poe     o211282   3.316   1.209   5.117 -0.3984 -0.8264  0.2511
 2021poe    c2311283   3.180   1.199   5.082 -0.3720 -0.1454 -0.0572
 2021poe    c2311284   3.104   1.320   5.141  0.2461  0.0259  0.3961
 2021poe     o211285   3.115   1.433   5.058  0.0658 -0.0391  0.2833
 2021poe    c2311286   3.045   1.541   5.118 -0.3139 -0.0417 -0.1475
 2021poe    c2311287   3.032   1.647   5.008  0.4161  0.0463 -0.1527
 2021poe     o211288   3.152   1.640   4.933  0.2849 -0.2095 -0.3400
 2021poe    c2311289   3.174   1.747   4.845 -0.0490 -0.1975 -0.4106
 2021poe    c2311290   3.323   1.727   4.810 -0.0418  0.6881 -0.9315
 2021poe     o211291   3.333   1.590   4.778  0.0020  0.4276  0.1488
 2021poe    c3111292   3.441   1.574   4.688 -0.1386  0.4819 -0.0310
 2022poe    c3111293   2.374   6.064   4.236 -0.3639  0.2568  0.2303
 2022poe     o211294   2.260   6.004   4.179  0.1122  0.2724 -0.7638
 2022poe    c2311295   2.304   5.895   4.101  0.0870  0.3481 -0.8827
 2022poe    c2311296   2.170   5.819   4.102  0.0641  0.3908 -0.0590
 2022poe     o211297   2.061   5.880   4.037 -0.3779 -0.3499 -0.0253
 2022poe    c2311298   1.935   5.861   4.099 -0.3124  0.1265  0.2635
 2022poe    c2311299   1.828   5.935   4.017 -0.0945 -0.3362 -0.4490
 2022poe     o211300   1.837   5.928   3.876  0.2156 -0.3082 -0.4316
 2022poe    c2311301   1.716   5.904   3.807 -0.1820 -0.1416  0.1981
 2022poe    c2311302   1.719   5.950   3.660 -0.0633 -0.0925  0.2151
 2022poe     o211303   1.723   6.090   3.669 -0.3459 -0.0729  0.0653
 2022poe    c3111304   1.711   6.168   3.552  0.6753 -0.5363 -0.3643
 2023poe    c3111305   4.581   0.760   1.858 -0.1276 -0.0909  0.4112
 2023poe     o211306   4.560   0.889   1.805 -0.3116 -0.4130 -0.3072
 2023poe    c2311307   4.427   0.924   1.778 -0.3378 -0.0449  0.3048
 2023poe    c2311308   4.413   1.067   1.723  0.3289 -0.1765 -0.2063
 2023poe     o211309   4.438   1.185   1.796 -0.3922 -0.1590  0.0189
 2023poe    c2311310   4.348   1.208   1.902  0.4886  0.0451  0.7352
 2023poe    c2311311   4.373   1.337   1.982  0.1463  0.2168  0.5671
 2023poe     o211312   4.501   1.336   2.043  0.0772 -0.5145  0.7064
 2023poe    c2311313   4.532   1.463   2.094 -1.2681  0.0599  0.1571
 2023poe    c2311314   4.666   1.465   2.171 -0.8729 -0.0257 -0.5232
 2023poe     o211315   4.751   1.367   2.115  0.5397  0.8981 -0.0340
 2023poe    c3111316   4.870   1.353   2.190  0.3326 -0.3787  0.0788
 2024poe    c3111317   6.967   7.015   0.318  0.4241  0.1746  0.9331
 2024poe     o211318   6.866   7.114   0.314  0.1319 -0.1409  0.3570
 2024poe    c2311319   6.731   7.087   0.343  0.0488  0.0182  0.1215
 2024poe    c2311320   6.696   7.156   0.475  0.1416 -0.1836  0.2532
 2024poe     o211321   6.720   7.295   0.470 -0.3408 -0.1237 -0.4647
 2024poe    c2311322   6.674   7.354   0.590  0.2557 -0.1251 -0.2324
 2024poe    c2311323   6.751   7.483   0.619  0.4417 -0.1847 -0.4613
 2024poe     o211324   6.758   7.557   0.499 -0.1101 -0.0550 -0.4140
 2024poe    c2311325   6.854   7.661   0.497 -0.1099 -0.0474 -0.0455
 2024poe    c2311326   6.846   7.717   0.354  0.0497  0.3243  0.0914
 2024poe     o211327   6.881   7.616   0.262 -0.0131  0.2034  0.2016
 2024poe    c3111328   6.886   7.669   0.132 -0.1611  0.2092  0.1982
 2025poe    c3111329   2.425   3.334   4.810  0.2249  0.2479  0.8638
 2025poe     o211330   2.411   3.240   4.706  0.7700  0.2141  0.8202
 2025poe    c2311331   2.529   3.185   4.651  0.0859 -0.1092 -0.3628
 2025poe    c2311332   2.488   3.121   4.517  0.1509 -0.3076 -0.2893
 2025poe     o211333   2.355   3.078   4.534  0.1358 -0.2036 -0.1389
 2025poe    c2311334   2.291   3.059   4.410  0.1698 -0.7447 -0.0748
 2025poe    c2311335   2.165   2.983   4.457 -0.2565  0.0768  0.1180
 2025poe     o211336   2.096   3.058   4.554  0.1513 -0.0278  0.4901
 2025poe    c2311337   1.961   3.086   4.523  0.3607 -0.1545 -0.5723
 2025poe    c2311338   1.920   3.152   4.390  0.4466 -0.3502 -0.6967
 2025poe     o211339   1.968   3.282   4.419 -0.0865 -0.3095  0.0360
 2025poe    c3111340   1.934   3.370   4.314  0.1713 -0.5939 -0.2892
 2026poe    c3111341   5.639   6.063   2.293 -0.4732 -0.3169 -0.3359
 2026poe     o211342   5.758   6.090   2.222 -0.5010  0.2254 -0.1823
 2026poe    c2311343   5.787   5.989   2.129  0.3709  0.2214  0.0869
 2026poe    c2311344   5.846   6.043   1.997 -0.4010  0.2581 -0.2512
 2026poe     o211345   5.964   6.117   2.019 -0.2583 -0.1833  0.4882
 2026poe    c2311346   6.085   6.043   2.019  0.0015  0.2352 -0.0720
 2026poe    c2311347   6.197   6.115   2.096  0.0736 -0.1620  0.1954
 2026poe     o211348   6.224   6.246   2.054 -0.3391 -0.0268  0.3458
 2026poe    c2311349   6.276   6.262   1.923  0.2938 -0.1247  0.5809
 2026poe    c2311350   6.302   6.410   1.890 -0.5204  0.0607  0.7383
 2026poe     o211351   6.390   6.486   1.971  0.0841  0.3879 -0.1976
 2026poe    c3111352   6.501   6.512   1.889  0.2605  1.2253  0.2960
 2027poe    c3111353   0.349   0.831   0.492  0.6836 -0.4079  0.6498
 2027poe     o211354   0.246   0.885   0.572  0.5816  0.1711  0.1387
 2027poe    c2311355   0.133   0.913   0.493  0.2789 -0.7573  0.2236
 2027poe    c2311356   0.018   0.970   0.578 -0.2463 -0.7745 -0.4667
 2027poe     o211357  -0.045   0.895   0.679 -0.0691  0.2128  0.4023
 2027poe    c2311358   0.017   0.898   0.805 -0.3275  0.6147  0.5229
 2027poe    c2311359  -0.063   0.821   0.912 -0.4253  0.4911  0.3606
 2027poe     o211360  -0.183   0.895   0.920 -0.2056  0.8080  0.7417
 2027poe    c2311361  -0.261   0.833   1.019  0.2664 -0.2120  0.4895
 2027poe    c2311362  -0.339   0.954   1.074 -0.3037 -0.2521 -0.2173
 2027poe     o211363  -0.378   1.018   0.954  0.1482  0.7893  0.1799
 2027poe    c3111364  -0.447   1.140   0.975 -0.5674  0.4456 -0.1253
 2028poe    c3111365   6.998   6.368   2.790 -0.6765 -0.0888  0.4129
 2028poe     o211366   7.106   6.433   2.854 -0.3090  0.3250 -0.6141
 2028poe    c2311367   7.227   6.365   2.830  0.2832  0.8908  0.7122
 2028poe    c2311368   7.301   6.398   2.699 -0.4114  0.0535  0.1010
 2028poe     o211369   7.332   6.535   2.684 -0.3051 -0.0066 -0.2410
 2028poe    c2311370   7.402   6.549   2.563 -0.3489  0.0778 -0.2564
 2028poe    c2311371   7.436   6.699   2.569 -0.7143  0.1677 -0.4146
 2028poe     o211372   7.491   6.735   2.694 -0.2671 -0.3022 -0.4748
 2028poe    c2311373   7.547   6.864   2.680 -0.0968 -0.3416 -0.1594
 2028poe    c2311374   7.627   6.878   2.811  0.1787 -0.4385 -0.3166
 2028poe     o211375   7.536   6.825   2.904 -0.1077  0.2971 -0.1686
 2028poe    c3111376   7.599   6.828   3.031 -0.8014 -0.4491  0.1995
 2029poe    c3111377   1.969   6.092   2.332 -0.3694  0.0198  0.1591
 2029poe     o211378   2.085   6.014   2.346 -0.2896  0.1820  0.3934
 2029poe    c2311379   2.063   5.955   2.472 -0.8185 -0.0654  0.1894
 2029poe    c2311380   2.185   5.929   2.563 -0.4930  0.2359 -0.1565
 2029poe     o211381   2.237   6.049   2.616  0.3314  0.1944 -0.8554
 2029poe    c2311382   2.335   6.119   2.542  0.0399  0.8833 -0.6017
 2029poe    c2311383   2.389   6.245   2.611  0.2063  0.5806 -0.1759
 2029poe     o211384   2.465   6.200   2.721  0.1926 -0.0829 -0.4331
 2029poe    c2311385   2.492   6.313   2.801  1.3387 -0.3794 -0.3799
 2029poe    c2311386   2.562   6.285   2.935  0.7349 -0.1569 -0.0118
 2029poe     o211387   2.472   6.195   2.997  0.2341  0.0033 -0.4979
 2029poe    c3111388   2.467   6.194   3.138  0.2499 -0.4946 -0.4983
 2030poe    c3111389   2.642   2.758   4.389  0.0703 -1.1695 -0.5246
 2030poe     o211390   2.742   2.812   4.305 -0.2964  0.0602 -0.1938
 2030poe    c2311391   2.721   2.951   4.297 -0.1407  0.1263  0.4459
 2030poe    c2311392   2.819   3.011   4.193 -0.2942 -0.2579  0.0776
 2030poe     o211393   2.946   2.976   4.243 -0.1923  0.4498  0.3202
 2030poe    c2311394   3.045   3.024   4.154  0.0297 -0.1118  0.2638
 2030poe    c2311395   3.174   3.046   4.234  0.4901 -0.2911 -0.4176
 2030poe     o211396   3.230   2.931   4.294  0.3551 -0.5370 -0.7613
 2030poe    c2311397   3.328   2.961   4.391 -0.6180 -0.0874  0.0972
 2030poe    c2311398   3.351   2.853   4.499  0.6994 -0.0004 -0.0870
 2030poe     o211399   3.259   2.870   4.604  0.7388 -0.2868 -0.0039
 2030poe    c3111400   3.263   2.759   4.690  0.6142 -0.7670 -0.6071
 2031poe    c3111401   7.041   1.649   6.867 -0.4127 -0.6647 -0.1198
 2031poe     o211402   6.946   1.662   6.970  0.0970 -0.1975  0.2935
 2031poe    c2311403   6.998   1.596   7.084 -0.0840  0.0427  0.5163
 2031poe    c2311404   6.889   1.574   7.190 -0.1219 -0.5307  0.3618
 2031poe     o211405   6.842   1.693   7.249  0.5862  0.0221 -0.1763
 2031poe    c2311406   6.755   1.687   7.360  0.3906 -0.0370 -0.3340
 2031poe    c2311407   6.747   1.824   7.430  0.1130 -0.1332 -0.1777
 2031poe     o211408   6.644   1.905   7.375 -0.1083 -0.3061 -0.0209
 2031poe    c2311409   6.518   1.882   7.434  0.0376 -0.6057  0.1793
 2031poe    c2311410   6.424   1.989   7.375  0.7336  0.0229  0.1970
 2031poe     o211411   6.473   2.119   7.399  0.3764  0.2469 -0.2689
 2031poe    c3111412   6.416   2.183   7.512 -0.1326  0.1007 -0.4394
 2032poe    c3111413   0.043   2.421   1.200  0.1313  0.1760  0.3343
 2032poe     o211414   0.174   2.375   1.223  0.0324 -0.6323 -0.6243
 2032poe    c2311415   0.250   2.430   1.118 -0.1935 -0.4653 -0.7021
 2032poe    c2311416   0.395   2.415   1.170 -0.3804  0.0636 -0.0138
 2032poe     o211417   0.461   2.293   1.190  0.2584  0.4209  0.0894
 2032poe    c2311418   0.598   2.321   1.171  0.3835 -0.3435 -0.1790
 2032poe    c2311419   0.675   2.189   1.190  0.1614 -0.4073  0.2805
 2032poe     o211420   0.660   2.084   1.098  0.2030  0.1721 -0.3930
 2032poe    c2311421   0.694   1.966   1.166 -0.5729  0.3170  0.2665
 2032poe    c2311422   0.662   1.832   1.096  0.5509  0.0322  0.2662
 2032poe     o211423   0.757   1.800   0.998  0.0632 -0.3704 -0.0778
 2032poe    c3111424   0.771   1.661   1.021 -0.5175 -0.4757 -0.3410
 2033poe    c3111425   4.591   5.961   0.915  0.3484 -0.5478  0.4575
 2033poe     o211426   4.672   5.912   0.811  0.1381 -0.3838  0.2160
 2033poe    c2311427   4.801   5.963   0.837  0.1811 -0.4416  0.1144
 2033poe    c2311428   4.900   5.948   0.720 -0.3472 -0.0877 -0.3842
 2033poe     o211429   4.929   5.810   0.719  0.0253 -0.0174  0.1836
 2033poe    c2311430   5.041   5.784   0.638 -0.1742 -0.5277  0.0653
 2033poe    c2311431   5.107   5.646   0.660 -0.3840 -0.6047  0.2170
 2033poe     o211432   5.019   5.544   0.619 -0.4108 -0.4997  0.0085
 2033poe    c2311433   5.073   5.418   0.653  0.0964 -0.4241 -0.5101
 2033poe    c2311434   4.973   5.315   0.598 -0.2863 -0.3252 -0.0084
 2033poe     o211435   4.988   5.301   0.458  0.1186  0.1691 -0.0199
 2033poe    c3111436   4.886   5.215   0.412  0.0619  0.4342 -0.3867
 2034poe    c3111437   6.256   5.593   0.230 -0.2463 -0.6726 -0.9027
 2034poe     o211438   6.235   5.477   0.308 -0.2376 -0.0188  0.0786
 2034poe    c2311439   6.128   5.493   0.399 -0.0013  0.1405  0.3297
 2034poe    c2311440   6.114   5.364   0.482  0.0320  0.1398  0.3343
 2034poe     o211441   6.245   5.317   0.497 -0.1928 -0.7686 -0.4234
 2034poe    c2311442   6.257   5.255   0.624  0.2598 -0.2875 -0.2229
 2034poe    c2311443   6.393   5.283   0.690  0.1130 -0.4358  0.1449
 2034poe     o211444   6.504   5.266   0.605  0.3251 -0.2411  0.3831
 2034poe    c2311445   6.624   5.271   0.678  0.3807  0.3014  0.2611
 2034poe    c2311446   6.748   5.264   0.587  0.1561 -0.0662 -0.0192
 2034poe     o211447   6.764   5.384   0.515 -0.8009 -0.0467 -0.2106
 2034poe    c3111448   6.872   5.377   0.424 -0.0378 -0.2913  0.7071
 2035poe    c3111449   3.964   5.997   4.731 -0.0132  0.0031 -0.1302
 2035poe     o211450   3.979   5.860   4.702 -0.0500 -0.2031  0.7806
 2035poe    c2311451   3.862   5.812   4.639  0.1565 -0.4988  0.6188
 2035poe    c2311452   3.863   5.663   4.601  0.6969 -0.3636  0.1007
 2035poe     o211453   3.851   5.604   4.728 -0.8055  0.2712  0.2682
 2035poe    c2311454   3.953   5.508   4.740 -0.2038  1.0079  1.1892
 2035poe    c2311455   3.927   5.399   4.845  0.3048 -0.0258  0.2652
 2035poe     o211456   3.839   5.457   4.939 -0.1737  0.1442 -0.2841
 2035poe    c2311457   3.800   5.369   5.042 -0.0342 -0.0219 -0.3735
 2035poe    c2311458   3.692   5.262   5.015  0.1590 -0.2084 -0.4177
 2035poe     o211459   3.749   5.147   4.959  0.8570 -0.2829  0.4261
 2035poe    c3111460   3.652   5.050   4.926  0.4590  0.0350  0.6552
 2036poe    c3111461   6.786   4.006   1.024  0.1846  0.0020 -0.3068
 2036poe     o211462   6.723   4.120   0.969  0.3066 -0.0860 -0.6316
 2036poe    c2311463   6.614   4.071   0.894  0.0985 -0.3664 -0.1515
 2036poe    c2311464   6.496   4.170   0.889  0.0851 -0.3831 -0.1643
 2036poe     o211465   6.518   4.291   0.821 -0.2625 -0.5062 -0.4971
 2036poe    c2311466   6.403   4.372   0.818 -0.0024 -0.1094  0.2144
 2036poe    c2311467   6.430   4.509   0.753  0.6705 -0.3164  0.0542
 2036poe     o211468   6.457   4.605   0.853  0.0434 -0.0691 -0.0103
 2036poe    c2311469   6.475   4.733   0.797  0.1727 -0.0219  0.1374
 2036poe    c2311470   6.591   4.757   0.698 -0.1644 -0.3014 -0.3297
 2036poe     o211471   6.559   4.722   0.565 -0.4134 -0.0196 -0.3435
 2036poe    c3111472   6.655   4.753   0.467  0.3989  0.1763  0.5006
 2037poe    c3111473   4.701   4.757   4.998 -0.4801  0.2819 -0.1120
 2037poe     o211474   4.676   4.623   5.034  0.0460  0.0699 -0.5198
 2037poe    c2311475   4.550   4.579   4.988 -0.2724  0.1588  0.2587
 2037poe    c2311476   4.527   4.433   5.034 -0.2065 -0.1921 -0.8021
 2037poe     o211477   4.546   4.410   5.172 -0.1145 -0.0414 -0.7888
 2037poe    c2311478   4.433   4.457   5.242  0.3848 -0.0202  0.0054
 2037poe    c2311479   4.438   4.438   5.395 -1.0901 -0.0545  0.0633
 2037poe     o211480   4.558   4.481   5.456 -0.9860  0.0324 -0.1990
 2037poe    c2311481   4.563   4.455   5.595  0.7811  0.3545 -0.1838
 2037poe    c2311482   4.554   4.568   5.699  0.1986 -0.3506  0.5460
 2037poe     o211483   4.673   4.644   5.693 -0.1038  0.0612 -0.4072
 2037poe    c3111484   4.649   4.781   5.716 -1.0067 -0.3210  1.0173
 2038poe    c3111485   0.492   4.896   2.468 -0.3137  0.2835  0.0601
 2038poe     o211486   0.412   4.782   2.487 -0.2845  0.3078  0.3356
 2038poe    c2311487   0.427   4.720   2.613 -0.2156 -0.1462  0.1080
 2038poe    c2311488   0.343   4.592   2.630  0.4248 -0.4891  0.7464
 2038poe     o211489   0.208   4.631   2.618  0.4711 -0.6872 -0.5570
 2038poe    c2311490   0.138   4.511   2.639 -0.0641 -0.2669  0.1262
 2038poe    c2311491  -0.011   4.543   2.660  0.1986  0.8205  0.3513
 2038poe     o211492  -0.083   4.598   2.552  0.3766  0.3331 -0.0173
 2038poe    c2311493  -0.223   4.582   2.549  0.4519 -0.3304 -0.1720
 2038poe    c2311494  -0.285   4.597   2.409 -0.1811  0.4552  0.1868
 2038poe     o211495  -0.215   4.703   2.348  0.4321 -0.2452 -0.3430
 2038poe    c3111496  -0.256   4.755   2.224 -0.1074  0.1089 -0.0201
 2039poe    c3111497   0.480   3.319   0.643  0.4277 -0.5329  0.3757
 2039poe     o211498   0.496   3.396   0.761 -0.6358 -0.5999  0.5734
 2039poe    c2311499   0.385   3.479   0.785 -0.0475  0.1998  0.5806
 2039poe    c2311500   0.405   3.601   0.876  0.6330  0.6214 -0.1224
 2039poe     o211501   0.414   3.575   1.014  0.1152 -0.5039 -0.2892
 2039poe    c2311502   0.368   3.690   1.082  0.3946 -0.5983  0.0597
 2039poe    c2311503   0.347   3.661   1.232 -0.4297  1.0351  0.2719
 2039poe     o211504   0.465   3.693   1.301  0.0106 -0.1455  0.0815
 2039poe    c2311505   0.439   3.677   1.439  0.0559  1.0630  0.2455
 2039poe    c2311506   0.500   3.782   1.534  0.5317  0.3899  0.6970
 2039poe     o211507   0.629   3.800   1.482  0.3800 -0.2755  0.0696
 2039poe    c3111508   0.720   3.868   1.565  0.2268 -0.3790  0.3220
 2040poe    c3111509   5.325   0.127   4.223  0.1188  0.1490  0.6463
 2040poe     o211510   5.438   0.058   4.176  0.2500  0.4294  0.5494
 2040poe    c2311511   5.556   0.132   4.154  0.3457  0.3008  0.6254
 2040poe    c2311512   5.669   0.031   4.126  0.2210  0.2422  0.3325
 2040poe     o211513   5.668  -0.049   4.010 -0.0679  0.1111  0.4254
 2040poe    c2311514   5.749  -0.164   4.024  0.3413  0.3418 -0.0004
 2040poe    c2311515   5.745  -0.268   3.911 -0.0619  0.4126 -0.0539
 2040poe     o211516   5.622  -0.337   3.916  0.4593 -0.4707  0.9086
 2040poe    c2311517   5.606  -0.437   3.818 -0.5212  0.7928 -0.2689
 2040poe    c2311518   5.490  -0.518   3.879  0.6359 -0.2618  0.6002
 2040poe     o211519   5.398  -0.418   3.916  0.3443 -0.2037 -0.2691
 2040poe    c3111520   5.266  -0.468   3.927  0.3853 -0.4542 -0.8765
 2041poe    c3111521   2.493   2.802   2.861  1.1205  0.1588 -0.3854
 2041poe     o211522   2.528   2.775   2.727  0.1230 -0.1146 -0.5985
 2041poe    c2311523   2.649   2.704   2.719  0.1079 -0.2516  0.2506
 2041poe    c2311524   2.662   2.656   2.573 -0.1794  0.2432  0.0588
 2041poe     o211525   2.544   2.581   2.553  0.2984 -0.3719 -0.5463
 2041poe    c2311526   2.553   2.521   2.426  0.6056 -0.3826 -0.5195
 2041poe    c2311527   2.415   2.463   2.390  0.1396  0.3699  0.0170
 2041poe     o211528   2.316   2.564   2.389 -0.0606  0.1714 -0.2014
 2041poe    c2311529   2.193   2.502   2.361 -0.1516  0.0457  0.4622
 2041poe    c2311530   2.068   2.591   2.377 -0.4684 -0.4071  0.5240
 2041poe     o211531   2.045   2.610   2.515 -0.5812  0.3691  0.4037
 2041poe    c3111532   1.908   2.631   2.542 -0.9306 -0.4420 -0.6594
 2042poe    c3111533   0.729   3.564   4.760  0.7112 -0.1290 -0.5602
 2042poe     o211534   0.805   3.446   4.775  0.0640 -0.4186  0.6296
 2042poe    c2311535   0.855   3.391   4.655 -0.3671  0.2748  0.1235
 2042poe    c2311536   0.760   3.292   4.585 -0.2441  0.2805 -0.0514
 2042poe     o211537   0.732   3.184   4.671 -0.0245  0.0734 -0.2378
 2042poe    c2311538   0.670   3.075   4.606 -0.1542 -0.0266  0.0522
 2042poe    c2311539   0.688   2.935   4.667  0.2150  0.0847  0.2002
 2042poe     o211540   0.623   2.935   4.792 -1.0917  0.3418 -0.4572
 2042poe    c2311541   0.596   2.800   4.822 -0.1275  0.1157 -0.5611
 2042poe    c2311542   0.445   2.784   4.849 -0.0180  0.2933  0.1633
 2042poe     o211543   0.397   2.835   4.972  0.4182  0.7714  0.1417
 2042poe    c3111544   0.256   2.828   4.962  0.4714  0.0871 -0.2182
 2043poe    c3111545   5.526   6.667   0.002 -0.5110 -0.2932 -0.0040
 2043poe     o211546   5.546   6.739   0.121 -0.2574 -0.6390  0.1647
 2043poe    c2311547   5.665   6.815   0.118 -0.0948 -0.8889  0.2676
 2043poe    c2311548   5.651   6.926   0.224  0.4234 -0.2646 -0.3104
 2043poe     o211549   5.612   6.856   0.339  0.5681  0.5862  0.2600
 2043poe    c2311550   5.620   6.934   0.457 -0.4892  0.7956  0.2047
 2043poe    c2311551   5.603   6.857   0.589  0.6058 -0.0244 -0.1220
 2043poe     o211552   5.477   6.794   0.575  0.3911  0.2308  0.6414
 2043poe    c2311553   5.398   6.786   0.691 -0.0932 -0.3819  0.2703
 2043poe    c2311554   5.254   6.752   0.647 -0.1983  0.3068  0.0673
 2043poe     o211555   5.197   6.834   0.548 -0.0383 -0.0918 -0.3596
 2043poe    c3111556   5.079   6.771   0.503  0.1292 -0.3132 -0.4914
 2044poe    c3111557   2.636   5.086   6.698 -0.3512 -0.5684 -0.4429
 2044poe     o211558   2.663   5.132   6.568 -0.6228  0.5014 -0.1267
 2044poe    c2311559   2.762   5.233   6.571 -0.2290  0.1093  0.3162
 2044poe    c2311560   2.787   5.288   6.429  0.3798  0.3959  0.5351
 2044poe     o211561   2.661   5.293   6.368  0.6440 -0.6107 -0.0995
 2044poe    c2311562   2.672   5.346   6.238  0.2758 -0.2646  0.0099
 2044poe    c2311563   2.569   5.269   6.152 -0.1347  0.0674  0.1972
 2044poe     o211564   2.442   5.265   6.213 -0.2354 -0.6596 -0.0472
 2044poe    c2311565   2.328   5.261   6.131 -0.1861  0.3361 -0.1746
 2044poe    c2311566   2.209   5.231   6.224 -0.4956  0.7287 -0.4390
 2044poe     o211567   2.205   5.328   6.326  0.1386  0.3220 -0.0250
 2044poe    c3111568   2.098   5.318   6.417  0.1924  0.3006  0.0371
 2045poe    c3111569   2.274   5.414   3.572  0.1881  0.2551 -0.4072
 2045poe     o211570   2.351   5.376   3.683 -0.5820  0.3023  0.1499
 2045poe    c2311571   2.465   5.304   3.643 -0.4705  0.4477  0.2066
 2045poe    c2311572   2.550   5.270   3.767 -0.1266 -0.1869 -0.1985
 2045poe     o211573   2.513   5.156   3.841  0.2518  0.2574  0.6893
 2045poe    c2311574   2.624   5.105   3.911 -0.2830 -0.5118  0.9925
 2045poe    c2311575   2.630   4.954   3.882  0.4823 -0.3485  0.2576
 2045poe     o211576   2.526   4.874   3.934  0.2345  0.0065  0.3125
 2045poe    c2311577   2.541   4.749   3.869 -0.7369 -0.2001  0.4714
 2045poe    c2311578   2.403   4.688   3.841 -0.3274 -0.6910 -0.5006
 2045poe     o211579   2.344   4.731   3.721 -0.6131  0.4621  0.0473
 2045poe    c3111580   2.225   4.665   3.684 -0.3972 -0.1764  0.4816
 2046poe    c3111581   0.782   2.297   6.912  0.4162  0.2174  0.1411
 2046poe     o211582   0.794   2.410   6.995  0.1549  0.5621 -0.2810
 2046poe    c2311583   0.874   2.389   7.110 -0.0602  0.2357 -0.1911
 2046poe    c2311584   0.869   2.513   7.200  0.3776  0.3123 -0.2746
 2046poe     o211585   0.737   2.555   7.224  0.2673 -0.3979  0.3709
 2046poe    c2311586   0.756   2.677   7.293 -0.5570  0.0139 -0.1125
 2046poe    c2311587   0.626   2.695   7.373 -0.0778  0.7623  0.5069
 2046poe     o211588   0.511   2.648   7.306  0.5903 -0.0200 -0.1073
 2046poe    c2311589   0.392   2.681   7.375  0.7370 -0.2604  0.2655
 2046poe    c2311590   0.278   2.735   7.288  0.9997 -0.0131  0.0714
 2046poe     o211591   0.277   2.873   7.261  0.2427  0.0223  0.2487
 2046poe    c3111592   0.390   2.922   7.192 -0.0412 -0.3819 -0.5116
 2047poe    c3111593   3.317   1.034   4.412  0.3595 -0.1931 -0.0608
 2047poe     o211594   3.369   0.945   4.316 -0.3500  0.0631 -0.6975
 2047poe    c2311595   3.258   0.893   4.247 -0.2514 -0.6368 -0.3341
 2047poe    c2311596   3.319   0.782   4.159  0.4887 -0.3310 -0.2186
 2047poe     o211597   3.405   0.847   4.068 -0.0169  0.3981 -0.1811
 2047poe    c2311598   3.439   0.787   3.946 -0.1806  0.1147 -0.0879
 2047poe    c2311599   3.552   0.881   3.899 -0.0339 -0.0254 -0.0163
 2047poe     o211600   3.621   0.912   4.017 -0.3886  0.4435  0.0684
 2047poe    c2311601   3.746   0.970   3.987  0.0684 -0.6736 -0.2326
 2047poe    c2311602   3.858   0.961   4.093  0.0446 -0.1429 -0.1603
 2047poe     o211603   3.868   0.824   4.122  0.0511 -0.0819  0.1307
 2047poe    c3111604   3.984   0.796   4.196  0.0505 -0.5388 -0.0352
 2048poe    c3111605   0.087   1.663   3.829 -0.1932 -0.3250 -0.1693
 2048poe     o211606   0.172   1.691   3.938  0.0941 -0.0350 -0.4667
 2048poe    c2311607   0.175   1.825   3.982 -0.3536 -0.1203 -0.1706
 2048poe    c2311608   0.293   1.827   4.081 -0.8023 -0.6618  0.3818
 2048poe     o211609   0.280   1.716   4.167 -0.4184 -0.5038  0.6496
 2048poe    c2311610   0.361   1.745   4.278  0.7605 -0.1508 -0.2790
 2048poe    c2311611   0.363   1.617   4.364 -0.0198 -0.0043 -0.0383
 2048poe     o211612   0.405   1.515   4.277  0.6424  0.1562  0.0900
 2048poe    c2311613   0.378   1.397   4.348  0.1287  0.1356 -0.1382
 2048poe    c2311614   0.448   1.275   4.285  0.2409  0.0149  0.2224
 2048poe     o211615   0.395   1.259   4.156  0.9948  1.1307 -0.2352
 2048poe    c3111616   0.442   1.147   4.085 -0.6573  0.0682  0.3021
 2049poe    c3111617   6.356   1.812   2.270  0.4716  0.5918 -0.2157
 2049poe     o211618   6.400   1.725   2.167  0.0739  0.6531 -0.4420
 2049poe    c2311619   6.528   1.670   2.188 -0.1417  0.4194  0.2976
 2049poe    c2311620   6.579   1.608   2.057  0.0760  0.9316  0.1351
 2049poe     o211621   6.476   1.628   1.963 -0.0803  0.6940  0.2548
 2049poe    c2311622   6.496   1.576   1.834 -0.2650  0.5930  0.2668
 2049poe    c2311623   6.367   1.511   1.780  0.2123 -0.2914  0.1793
 2049poe     o211624   6.267   1.608   1.762 -0.0361 -0.4680  0.6186
 2049poe    c2311625   6.153   1.557   1.696 -0.0264 -0.2652  0.4450
 2049poe    c2311626   6.044   1.666   1.701 -0.0637 -0.2704 -0.1716
 2049poe     o211627   6.046   1.725   1.829 -0.2574 -0.1954 -0.2042
 2049poe    c3111628   5.953   1.831   1.841 -0.5362 -0.3139 -1.2065
 2050poe    c3111629   4.481   4.358   0.702  0.7304  0.5247 -0.5782
 2050poe     o211630   4.446   4.236   0.642  0.2381  0.3589  0.0443
 2050poe    c2311631   4.356   4.169   0.727 -0.2651  0.5268 -0.3516
 2050poe    c2311632   4.328   4.028   0.673 -0.4290  0.1714  0.6426
 2050poe     o211633   4.260   4.020   0.550  0.1440  0.2492  0.3191
 2050poe    c2311634   4.275   3.892   0.495  0.1662  0.1802  0.4867
 2050poe    c2311635   4.173   3.875   0.381  0.3705  0.1938  0.3014
 2050poe     o211636   4.147   4.003   0.327  0.3153 -0.0028 -0.1397
 2050poe    c2311637   4.089   3.983   0.200 -0.5915 -0.6736  0.3659
 2050poe    c2311638   3.975   4.086   0.190  0.0006  0.0031  0.5288
 2050poe     o211639   4.026   4.218   0.184 -0.4862  0.1748  0.0079
 2050poe    c3111640   3.954   4.298   0.093 -0.4363  0.4298  0.1907
 2051poe    c3111641   4.353   7.023   4.927  0.5665 -0.2614  0.2179
 2051poe     o211642   4.409   7.090   4.816 -0.2499  0.0040 -0.0356
 2051poe    c2311643   4.525   7.021   4.775 -0.1163  0.1280  0.1326
 2051poe    c2311644   4.555   7.096   4.644  0.0139 -0.1539  0.0025
 2051poe     o211645   4.531   7.231   4.675 -0.0868 -0.0612 -0.4689
 2051poe    c2311646   4.625   7.313   4.609  0.2171 -0.3768 -0.4307
 2051poe    c2311647   4.603   7.465   4.621  0.4025 -0.4051  0.2955
 2051poe     o211648   4.640   7.484   4.756  0.1684  0.5892  0.2225
 2051poe    c2311649   4.593   7.611   4.795 -0.0951  0.5227  0.1260
 2051poe    c2311650   4.615   7.623   4.947 -0.1980  0.0361  0.1797
 2051poe     o211651   4.528   7.532   5.011 -0.8366  0.4746 -0.0533
 2051poe    c3111652   4.561   7.504   5.145  0.3384 -0.3946 -0.5076
 2052poe    c3111653   0.329   7.124   2.250  0.5080 -0.1990  0.1292
 2052poe     o211654   0.402   7.206   2.161  0.0368  0.4599  0.3448
 2052poe    c2311655   0.499   7.125   2.100 -0.3670  0.2096  0.0325
 2052poe    c2311656   0.600   7.222   2.035  0.0185 -0.1511  0.0856
 2052poe     o211657   0.524   7.309   1.954 -0.1069 -0.3443 -0.0074
 2052poe    c2311658   0.614   7.408   1.908 -0.0945 -0.1696  0.3857
 2052poe    c2311659   0.539   7.476   1.792  0.0364 -0.3265  0.2073
 2052poe     o211660   0.407   7.525   1.799 -0.0499 -0.5158 -0.0996
 2052poe    c2311661   0.344   7.550   1.675  0.4527  0.4700 -0.1631
 2052poe    c2311662   0.195   7.589   1.679  0.3941  0.2100  0.2617
 2052poe     o211663   0.119   7.472   1.700 -0.1442  0.5646  0.3081
 2052poe    c3111664   0.032   7.444   1.593  0.1696  0.0676  0.1771
 2053poe    c3111665   6.201   4.621   3.258  0.0633  0.1700 -0.1293
 2053poe     o211666   6.123   4.730   3.217  0.2488  0.1954 -0.4230
 2053poe    c2311667   6.089   4.701   3.083 -0.2952 -0.3831 -0.1616
 2053poe    c2311668   5.972   4.786   3.030 -0.2404  0.0699  0.4254
 2053poe     o211669   5.961   4.919   3.075  0.0687  0.2127  0.0920
 2053poe    c2311670   6.014   5.011   2.982  0.1159  0.2292  0.1350
 2053poe    c2311671   6.165   5.020   2.953  0.1302  0.8522  0.4047
 2053poe     o211672   6.236   5.063   3.067  0.4488  0.1780  0.4617
 2053poe    c2311673   6.371   5.087   3.032  0.2324 -0.2476 -0.7223
 2053poe    c2311674   6.440   5.136   3.160 -0.5981 -0.5243 -0.1579
 2053poe     o211675   6.378   5.250   3.215  0.4769  0.0955 -0.2101
 2053poe    c3111676   6.439   5.307   3.329 -0.2810  0.4878  0.0013
 2054poe    c3111677   5.360   4.688   5.550 -0.0172  0.3410 -0.3447
 2054poe     o211678   5.232   4.677   5.607 -0.1267 -0.4493 -0.7304
 2054poe    c2311679   5.151   4.784   5.565  0.1848  0.1208  0.0961
 2054poe    c2311680   5.000   4.756   5.559  0.1351  0.5399 -0.6641
 2054poe     o211681   4.968   4.642   5.482 -0.3476  0.1913  0.0411
 2054poe    c2311682   4.966   4.533   5.571  0.2472 -0.1761 -0.3902
 2054poe    c2311683   4.974   4.401   5.492 -0.3786 -0.3169 -0.2168
 2054poe     o211684   4.906   4.419   5.370 -0.1907 -0.5344 -0.3538
 2054poe    c2311685   4.896   4.297   5.299 -0.0723 -0.6693 -0.1385
 2054poe    c2311686   4.855   4.320   5.153  0.2345 -0.3521 -0.1774
 2054poe     o211687   4.955   4.404   5.100 -0.6182  0.5946 -0.3139
 2054poe    c3111688   4.942   4.434   4.962  0.2984  0.1091 -0.5156
 2055poe    c3111689   0.525   3.840   2.221  0.4062  0.3653 -0.1503
 2055poe     o211690   0.612   3.951   2.227  0.4905  0.2750  0.3620
 2055poe    c2311691   0.573   4.042   2.127 -0.7411 -0.0318  0.5502
 2055poe    c2311692   0.660   4.166   2.099 -0.4348 -0.3388  0.1354
 2055poe     o211693   0.642   4.262   2.201 -0.4087  0.5452 -0.6769
 2055poe    c2311694   0.752   4.350   2.204 -0.0003  0.0282 -0.1663
 2055poe    c2311695   0.758   4.444   2.325 -0.0830 -0.7501  0.4467
 2055poe     o211696   0.818   4.389   2.441  0.5306  0.2609  0.6237
 2055poe    c2311697   0.768   4.459   2.553 -0.0459  0.2977  0.3494
 2055poe    c2311698   0.814   4.388   2.682 -0.6700 -0.1174  0.3468
 2055poe     o211699   0.764   4.257   2.673  0.1543 -0.4049 -0.1341
 2055poe    c3111700   0.791   4.190   2.795 -0.1803  0.3753  0.3797
 2056poe    c3111701   0.292   2.121   3.561  0.0912  0.7077  0.3152
 2056poe     o211702   0.172   2.094   3.492  0.1339 -0.0171  0.5181
 2056poe    c2311703   0.163   1.955   3.470 -0.2552  0.1499 -0.4123
 2056poe    c2311704   0.160   1.924   3.319  0.5513 -0.0108 -0.4030
 2056poe     o211705   0.038   1.963   3.259  0.7396  0.0537 -0.7463
 2056poe    c2311706   0.039   1.922   3.124 -0.2668 -0.3691 -0.6296
 2056poe    c2311707  -0.034   2.033   3.046 -0.4298  0.1451  0.2414
 2056poe     o211708  -0.151   2.074   3.115 -0.4371 -0.0017  0.3169
 2056poe    c2311709  -0.223   2.177   3.052 -0.1282  0.0191 -0.0086
 2056poe    c2311710  -0.344   2.204   3.144 -0.1476  0.5154 -0.1775
 2056poe     o211711  -0.305   2.187   3.278  0.2482  0.4125 -0.3031
 2056poe    c3111712  -0.405   2.242   3.361  0.4171  0.0280  0.1588
 2057poe    c3111713   2.141   3.640   2.913  0.1508 -0.3966  0.1355
 2057poe     o211714   2.219   3.594   2.805  0.3665 -0.1893  0.2018
 2057poe    c2311715   2.181   3.653   2.683 -0.2624 -0.2085  0.3865
 2057poe    c2311716   2.251   3.600   2.556  0.2171 -0.1308  0.6152
 2057poe     o211717   2.387   3.620   2.527  0.0634  0.1201  0.0297
 2057poe    c2311718   2.429   3.753   2.509 -0.3312  0.3311  0.6567
 2057poe    c2311719   2.569   3.747   2.447 -0.7421  0.4944 -0.3089
 2057poe     o211720   2.581   3.707   2.313 -0.3030 -0.1155 -0.0957
 2057poe    c2311721   2.707   3.752   2.269 -0.0398 -0.6895  0.0698
 2057poe    c2311722   2.716   3.704   2.123 -0.1178 -0.0039 -0.1653
 2057poe     o211723   2.727   3.564   2.114 -0.0887 -0.0319  0.2527
 2057poe    c3111724   2.779   3.547   1.983  0.1264  0.1656  0.3119
 2058poe    c3111725   7.073   6.949   1.593  0.0665 -0.2380  0.0537
 2058poe     o211726   7.067   6.809   1.574  0.2623 -0.2544  0.1164
 2058poe    c2311727   6.953   6.756   1.638  0.0238 -0.3531 -0.3903
 2058poe    c2311728   6.920   6.634   1.550 -0.5125 -0.0202 -0.6581
 2058poe     o211729   7.040   6.561   1.547 -0.3898  0.1495  0.0254
 2058poe    c2311730   7.013   6.437   1.485 -0.2240  0.1963 -0.1406
 2058poe    c2311731   7.143   6.376   1.428  0.0209 -0.0098  0.6303
 2058poe     o211732   7.219   6.477   1.366 -0.0745 -0.1361  0.3110
 2058poe    c2311733   7.343   6.417   1.335 -0.2540 -0.4669  0.2245
 2058poe    c2311734   7.429   6.500   1.238 -0.9568  1.1058  0.9078
 2058poe     o211735   7.379   6.509   1.106  0.0027  0.0953  0.4595
 2058poe    c3111736   7.384   6.644   1.066  0.2892 -0.1346 -0.2849
 2059poe    c3111737   2.838   1.209   1.258  0.1746  0.7024 -0.4212
 2059poe     o211738   2.825   1.104   1.165 -0.6643  0.0989  0.3686
 2059poe    c2311739   2.900   1.117   1.047 -0.4947 -0.1918  0.4435
 2059poe    c2311740   2.932   0.974   1.000 -0.0052  0.0152  0.1387
 2059poe     o211741   2.810   0.904   1.017 -0.0339 -0.0979 -0.5087
 2059poe    c2311742   2.846   0.768   1.026  0.0110 -0.0515  0.0516
 2059poe    c2311743   2.715   0.688   1.032  0.1617 -0.2730  0.3783
 2059poe     o211744   2.617   0.767   1.094 -0.1917  0.0235 -0.5411
 2059poe    c2311745   2.494   0.719   1.045 -0.2334 -0.2143 -0.2117
 2059poe    c2311746   2.392   0.713   1.160 -0.3155 -0.4879 -0.2969
 2059poe     o211747   2.349   0.840   1.204 -0.1649 -0.5361 -0.0069
 2059poe    c3111748   2.209   0.840   1.219 -0.1179 -0.2486  0.4473
 2060poe    c3111749   6.863   5.317   3.460  0.0500  0.3876  0.8401
 2060poe     o211750   6.876   5.177   3.451  0.0019  0.3863  0.7907
 2060poe    c2311751   6.790   5.106   3.538 -1.0903  0.9261  0.1607
 2060poe    c2311752   6.813   5.106   3.690  0.3164  0.6741 -0.0381
 2060poe     o211753   6.928   5.036   3.732 -0.2324 -0.4602 -0.3731
 2060poe    c2311754   6.944   5.057   3.871  0.4448 -0.0948 -0.5035
 2060poe    c2311755   7.077   5.001   3.923  0.0833 -0.6129 -0.1379
 2060poe     o211756   7.192   5.056   3.862 -0.1446  0.0924  0.0581
 2060poe    c2311757   7.299   4.991   3.928 -0.2215  0.3181  0.4055
 2060poe    c2311758   7.427   5.023   3.850 -0.1502  0.1795  0.4661
 2060poe     o211759   7.448   4.967   3.722  0.2641  0.0297  0.5954
 2060poe    c3111760   7.570   5.016   3.672  0.2250 -0.2954  0.1806
 2061poe    c3111761   5.583   4.197   2.107 -0.5349  0.5121  0.2892
 2061poe     o211762   5.680   4.237   2.013 -0.4148  0.1225  0.2457
 2061poe    c2311763   5.629   4.348   1.942  0.4172  0.4354  0.1249
 2061poe    c2311764   5.739   4.436   1.879  0.3786  0.0257 -0.5169
 2061poe     o211765   5.848   4.354   1.844  0.1914 -0.4197 -0.0633
 2061poe    c2311766   5.956   4.432   1.798 -0.0051 -0.1380 -0.0506
 2061poe    c2311767   6.072   4.359   1.728  0.1888  0.1418 -0.0233
 2061poe     o211768   6.090   4.235   1.793  0.2072  0.1230 -0.0651
 2061poe    c2311769   6.138   4.142   1.698  0.1335 -0.2162  0.2259
 2061poe    c2311770   6.199   4.022   1.772  0.2342 -0.4848 -0.2879
 2061poe     o211771   6.107   3.922   1.811 -0.2528  0.0859  0.0545
 2061poe    c3111772   6.174   3.823   1.887  0.2127  0.2259 -0.1661
 2062poe    c3111773   0.847   5.816   6.478  0.0293 -0.2820 -0.5167
 2062poe     o211774   0.939   5.917   6.512  0.0133 -0.3206 -0.3558
 2062poe    c2311775   0.995   5.879   6.635  0.6737  0.3829 -0.4300
 2062poe    c2311776   1.084   5.976   6.715  0.4205  0.3845 -0.1461
 2062poe     o211777   1.215   5.994   6.665  0.4576 -0.7244 -0.4750
 2062poe    c2311778   1.312   5.979   6.767  0.5591  0.3291 -0.4078
 2062poe    c2311779   1.453   5.982   6.707  0.5113  0.3255 -0.5202
 2062poe     o211780   1.480   6.094   6.626  0.4756  0.5619 -0.2046
 2062poe    c2311781   1.575   6.070   6.524 -0.2706  0.1767 -0.8142
 2062poe    c2311782   1.560   6.180   6.417  0.0694  0.8939 -0.1393
 2062poe     o211783   1.428   6.176   6.368  0.0315 -0.4088  0.0255
 2062poe    c3111784   1.424   6.257   6.253 -0.2647  0.1665  0.4368
 2063poe    c3111785   4.312   2.128   1.715  0.1235 -0.7551 -0.6566
 2063poe     o211786   4.265   2.229   1.628  0.1667 -0.4268 -0.3031
 2063poe    c2311787   4.138   2.273   1.672  0.3224  0.1942 -0.4694
 2063poe    c2311788   4.048   2.354   1.577 -0.2571  0.7093  0.5064
 2063poe     o211789   4.025   2.294   1.452 -0.0129 -0.1947  0.8849
 2063poe    c2311790   3.888   2.300   1.421  0.1756 -0.8581 -0.1217
 2063poe    c2311791   3.882   2.283   1.268  0.4236 -0.2980 -0.1943
 2063poe     o211792   3.956   2.170   1.228  0.4863 -0.4476  0.3441
 2063poe    c2311793   3.965   2.154   1.088  0.6631  0.2638  0.2679
 2063poe    c2311794   4.073   2.048   1.063  0.0746 -0.0602 -0.9563
 2063poe     o211795   4.063   1.947   1.162  0.4819  0.7552 -0.0696
 2063poe    c3111796   4.142   1.837   1.124 -0.1340  0.4314 -0.4351
 2064poe    c3111797   0.200   1.659   1.518  0.3501 -0.5500 -0.1117
 2064poe     o211798   0.114   1.767   1.487  0.4054 -0.4753 -0.0049
 2064poe    c2311799   0.072   1.762   1.353  0.0315 -0.3052  0.1037
 2064poe    c2311800  -0.078   1.798   1.357  0.1280  0.2324 -0.7006
 2064poe     o211801  -0.081   1.916   1.434 -0.1479  0.1949 -0.6544
 2064poe    c2311802  -0.187   2.009   1.429 -0.1121  0.3007  0.3309
 2064poe    c2311803  -0.119   2.135   1.484 -0.3184  0.7467 -0.4276
 2064poe     o211804  -0.041   2.105   1.598 -0.5731  0.5965 -0.2915
 2064poe    c2311805  -0.018   2.222   1.673  0.6816  0.2258 -0.0742
 2064poe    c2311806   0.054   2.204   1.808  0.0826  0.1544  0.2391
 2064poe     o211807   0.002   2.100   1.887  0.2595 -0.1136  0.0066
 2064poe    c3111808   0.068   2.137   2.006 -0.2339 -0.1346  0.2901
 2065poe    c3111809   5.031   2.249   5.478  0.6036 -0.2368 -0.2706
 2065poe     o211810   4.976   2.167   5.378 -0.6268 -0.1295  0.3069
 2065poe    c2311811   4.842   2.129   5.402 -0.9147  0.5508 -0.1519
 2065poe    c2311812   4.780   2.020   5.312 -0.3922  0.5162 -0.4722
 2065poe     o211813   4.850   1.902   5.345 -0.1778  0.7016 -0.2468
 2065poe    c2311814   4.841   1.801   5.247 -0.5476  0.1139  0.3836
 2065poe    c2311815   4.932   1.829   5.126 -0.1034  0.1819  0.7313
 2065poe     o211816   5.071   1.815   5.142 -0.0857 -0.4839  0.0503
 2065poe    c2311817   5.127   1.694   5.096 -0.1546 -0.3789 -0.3104
 2065poe    c2311818   5.128   1.582   5.202  0.1256 -0.2747 -0.2013
 2065poe     o211819   5.181   1.609   5.330 -0.2957  0.2169 -0.1280
 2065poe    c3111820   5.167   1.483   5.392 -0.0139  0.2969  0.0948
 2066poe    c3111821   0.653   5.932   3.341  0.2216 -0.0593 -0.0591
 2066poe     o211822   0.656   5.996   3.467  0.7696  0.0046 -0.1030
 2066poe    c2311823   0.786   5.985   3.520  0.7986 -0.2357 -0.2197
 2066poe    c2311824   0.784   6.084   3.639  0.2115 -0.4456 -0.0556
 2066poe     o211825   0.660   6.092   3.706  0.4038  0.0153  0.2378
 2066poe    c2311826   0.664   6.181   3.816 -0.0152  0.2160  0.0924
 2066poe    c2311827   0.523   6.199   3.876  0.3686  0.5474  0.9086
 2066poe     o211828   0.442   6.283   3.797  0.1350 -0.4071  0.1122
 2066poe    c2311829   0.323   6.329   3.856 -0.0362  0.1801 -0.6791
 2066poe    c2311830   0.215   6.220   3.875  0.5416 -0.3222 -0.2696
 2066poe     o211831   0.171   6.140   3.768 -0.5372 -0.3708  0.2037
 2066poe    c3111832   0.078   6.036   3.790 -0.4212 -0.3766  0.6743
 2067poe    c3111833   0.859   2.015   5.402  0.1495 -0.1588 -0.7172
 2067poe     o211834   0.930   2.135   5.421 -0.5515  0.2539 -0.6511
 2067poe    c2311835   0.930   2.160   5.560  0.2961 -0.3297 -0.5391
 2067poe    c2311836   1.063   2.213   5.616  0.0468 -0.1363 -0.1355
 2067poe     o211837   1.092   2.339   5.560 -0.2701  0.0755  0.1725
 2067poe    c2311838   1.197   2.408   5.625  0.1389 -0.0911 -0.3038
 2067poe    c2311839   1.319   2.444   5.538  0.1206 -0.1274 -0.3444
 2067poe     o211840   1.367   2.317   5.503  0.5095 -0.1576  0.2768
 2067poe    c2311841   1.486   2.313   5.426  0.3154 -0.2231 -0.0212
 2067poe    c2311842   1.543   2.171   5.410  0.0080 -0.2700 -0.7306
 2067poe     o211843   1.682   2.156   5.423  0.0085  0.6798  0.5715
 2067poe    c3111844   1.746   2.184   5.545 -0.0566 -0.7692  0.9525
 2068poe    c3111845   2.851   3.539   6.712 -0.4444 -0.1886 -0.1733
 2068poe     o211846   2.844   3.496   6.846  0.1353  0.1756 -0.0227
 2068poe    c2311847   2.944   3.571   6.911 -0.0094  0.3753 -0.0316
 2068poe    c2311848   2.908   3.568   7.061 -0.4013 -0.1016 -0.1314
 2068poe     o211849   2.935   3.447   7.128 -0.0230 -0.1123 -0.2987
 2068poe    c2311850   3.069   3.440   7.172 -0.3531 -0.0992  0.7294
 2068poe    c2311851   3.085   3.303   7.240 -0.1157 -0.3291  0.2116
 2068poe     o211852   3.032   3.193   7.169 -0.6310  0.1515 -0.1516
 2068poe    c2311853   3.019   3.072   7.240  0.2307  0.3793  0.4174
 2068poe    c2311854   2.964   2.974   7.135 -0.0895 -0.0658  0.9941
 2068poe     o211855   2.859   3.041   7.068 -0.1052 -0.2984  0.7823
 2068poe    c3111856   2.774   2.944   7.010 -0.3431  0.3106  0.0987
 2069poe    c3111857   6.014   7.078   6.685  0.4330 -0.2710 -0.0492
 2069poe     o211858   5.941   6.980   6.616  0.2489 -0.8482  0.9557
 2069poe    c2311859   6.022   6.932   6.511 -0.4448  0.6007 -0.2723
 2069poe    c2311860   5.969   6.981   6.375 -0.2852  0.3504 -0.4248
 2069poe     o211861   5.839   6.932   6.351 -0.3472  0.1203  0.3496
 2069poe    c2311862   5.793   7.008   6.241  0.0857 -0.0145  0.0781
 2069poe    c2311863   5.659   6.942   6.202  0.4715 -0.8003  0.0487
 2069poe     o211864   5.572   6.901   6.305 -0.0431  0.1079 -0.0121
 2069poe    c2311865   5.444   6.848   6.281  0.1966 -0.3707 -0.2445
 2069poe    c2311866   5.388   6.787   6.411 -0.0876 -0.0445 -0.2137
 2069poe     o211867   5.491   6.720   6.479  0.1453  0.0036 -0.5158
 2069poe    c3111868   5.437   6.613   6.554 -0.5450  0.7115  0.0136
 2070poe    c3111869   2.168   0.478   5.767  0.6947 -0.0710 -0.2743
 2070poe     o211870   2.130   0.348   5.730 -0.4631  0.1401  0.1339
 2070poe    c2311871   2.083   0.268   5.836 -0.3315  0.0150  0.0993
 2070poe    c2311872   1.942   0.220   5.795 -0.4016  0.1577  0.1695
 2070poe     o211873   1.934   0.171   5.663  0.7924 -0.1626  0.2012
 2070poe    c2311874   1.812   0.106   5.637  0.8498 -0.2375  0.1171
 2070poe    c2311875   1.789   0.067   5.490  0.0241  0.0658  0.1574
 2070poe     o211876   1.798   0.187   5.416  0.3070 -0.1186 -0.1135
 2070poe    c2311877   1.753   0.166   5.284  0.2971  0.1711 -0.1561
 2070poe    c2311878   1.754   0.304   5.214 -0.1969  0.0496 -0.4044
 2070poe     o211879   1.879   0.365   5.191 -0.1513  0.0314 -0.2125
 2070poe    c3111880   1.856   0.503   5.177  0.4530  0.1168 -0.3903
 2071poe    c3111881   0.351   3.272   4.853 -0.4607  0.1339 -0.5465
 2071poe     o211882   0.463   3.290   4.937 -0.5020  0.7361 -0.6145
 2071poe    c2311883   0.431   3.393   5.029 -0.6275 -0.0985  0.2953
 2071poe    c2311884   0.560   3.431   5.104 -0.4540 -0.3065  0.1053
 2071poe     o211885   0.604   3.317   5.175 -0.3006 -0.2820  0.0507
 2071poe    c2311886   0.715   3.341   5.258  0.0177 -0.1445 -0.4137
 2071poe    c2311887   0.736   3.208   5.333 -0.8112 -0.0696 -0.0347
 2071poe     o211888   0.766   3.110   5.236  0.3398  0.2179  0.0153
 2071poe    c2311889   0.827   2.991   5.282 -0.8884 -0.2806  0.3951
 2071poe    c2311890   0.805   2.884   5.174 -0.3736 -0.1204  0.1264
 2071poe     o211891   0.853   2.930   5.049  0.1972 -0.2852  0.2851
 2071poe    c3111892   0.894   2.830   4.959  0.4108  0.2012 -0.1608
 2072poe    c3111893   4.969   6.445   4.000 -0.2814  0.0637 -0.4652
 2072poe     o211894   4.886   6.330   3.999 -0.1447 -0.0384 -0.0141
 2072poe    c2311895   4.877   6.252   4.116  0.4821 -0.1929 -0.0648
 2072poe    c2311896   4.866   6.106   4.071  0.1241 -0.1679 -0.0620
 2072poe     o211897   4.773   6.107   3.965 -0.0564  0.0897  0.0992
 2072poe    c2311898   4.750   5.977   3.914 -0.4253  0.3736 -0.4714
 2072poe    c2311899   4.636   6.005   3.815 -0.8236 -0.0942 -0.1455
 2072poe     o211900   4.677   6.099   3.718 -0.5395 -0.2284 -0.1542
 2072poe    c2311901   4.619   6.080   3.591  0.4435 -0.0281 -0.6420
 2072poe    c2311902   4.653   6.199   3.500 -0.1127  0.2095 -0.5457
 2072poe     o211903   4.785   6.247   3.516 -0.1470  0.0974  0.0792
 2072poe    c3111904   4.841   6.312   3.404  0.1124 -0.0097  0.1469
 2073poe    c3111905   1.935   5.349   6.974 -0.0275  0.3276  0.9667
 2073poe     o211906   2.062   5.314   7.024  0.0784 -0.5947  0.0975
 2073poe    c2311907   2.157   5.369   6.935 -0.0147  0.2577  0.5069
 2073poe    c2311908   2.293   5.298   6.945 -0.0530  0.1023 -0.0371
 2073poe     o211909   2.338   5.301   7.079  0.5678  0.0653 -0.2431
 2073poe    c2311910   2.439   5.204   7.100  0.4203  0.0002  0.1795
 2073poe    c2311911   2.469   5.192   7.250  0.2687 -0.2081  0.1934
 2073poe     o211912   2.351   5.160   7.320  0.2221 -0.2484  0.0950
 2073poe    c2311913   2.353   5.148   7.460 -0.4184  0.6554  0.1924
 2073poe    c2311914   2.221   5.079   7.500 -0.0585  0.2084  0.6199
 2073poe     o211915   2.116   5.152   7.440  0.2196 -0.1568 -0.3180
 2073poe    c3111916   2.013   5.149   7.536 -0.1409 -1.0673 -0.7186
 2074poe    c3111917   1.142   1.661   1.684 -0.0469  0.4374 -0.0666
 2074poe     o211918   1.255   1.618   1.611 -0.0958 -0.3806  0.3284
 2074poe    c2311919   1.222   1.506   1.532 -0.1698  0.2845 -0.6057
 2074poe    c2311920   1.343   1.477   1.442  0.3547  0.3648  0.0646
 2074poe     o211921   1.410   1.599   1.417  0.3814  0.2664 -0.3585
 2074poe    c2311922   1.507   1.586   1.316 -0.1831 -0.1676 -0.8523
 2074poe    c2311923   1.593   1.713   1.305 -0.0068 -0.1724  0.3294
 2074poe     o211924   1.652   1.744   1.429  0.3353  0.4622  0.0181
 2074poe    c2311925   1.741   1.852   1.415  0.7928  0.0809 -0.0516
 2074poe    c2311926   1.869   1.829   1.496  0.5897  0.3672  0.3569
 2074poe     o211927   1.939   1.724   1.433 -0.3554 -0.2439  0.2995
 2074poe    c3111928   2.065   1.689   1.485  0.0609 -0.2013 -0.6420
 2075poe    c3111929   3.703   6.719   4.382 -0.3779  0.3133  0.3141
 2075poe     o211930   3.729   6.783   4.259 -0.0805 -0.1263  0.1457
 2075poe    c2311931   3.676   6.709   4.151  0.2506  0.1070 -0.1767
 2075poe    c2311932   3.758   6.700   4.021 -0.4118 -0.7490 -0.5448
 2075poe     o211933   3.885   6.656   4.062 -0.2250  0.0255 -0.2744
 2075poe    c2311934   3.986   6.659   3.964  0.1754  0.3850  0.1429
 2075poe    c2311935   4.050   6.797   3.939  0.1260  0.3914  0.0486
 2075poe     o211936   4.108   6.858   4.052  0.3663  0.3986 -0.0784
 2075poe    c2311937   4.164   6.980   4.009 -0.6088  0.8857  0.0167
 2075poe    c2311938   4.283   7.003   4.103  0.0684 -1.1986 -0.2830
 2075poe     o211939   4.248   6.960   4.232  0.1446 -0.4012  0.0101
 2075poe    c3111940   4.307   7.047   4.326  0.3357  0.4960 -0.9248
 2076poe    c3111941   3.247   0.693   2.422  0.1623 -0.6471 -0.0692
 2076poe     o211942   3.275   0.817   2.361  0.0133 -0.3623  0.4407
 2076poe    c2311943   3.407   0.818   2.310 -0.0496  0.3578  0.2704
 2076poe    c2311944   3.463   0.960   2.294  0.0023  0.2563 -0.4724
 2076poe     o211945   3.493   1.030   2.413 -0.3835  0.1679 -0.3203
 2076poe    c2311946   3.391   1.116   2.457  0.2566  0.3567  0.8370
 2076poe    c2311947   3.356   1.120   2.607  0.7614 -0.1565  0.9725
 2076poe     o211948   3.284   1.006   2.646  0.0981  0.3456  1.2464
 2076poe    c2311949   3.337   0.954   2.767  0.3658 -0.1055  0.9389
 2076poe    c2311950   3.275   0.814   2.782 -0.5604  0.1663 -0.1421
 2076poe     o211951   3.153   0.805   2.713 -0.4768 -0.5073 -0.2104
 2076poe    c3111952   3.089   0.679   2.720 -0.2317 -0.6340 -0.2251
 2077poe    c3111953   0.887   5.011   3.593  0.1445 -0.2855 -0.5758
 2077poe     o211954   0.955   4.943   3.696  0.0209  0.5633  0.0857
 2077poe    c2311955   0.869   4.913   3.804  0.4887 -0.1888  0.2638
 2077poe    c2311956   0.906   4.780   3.872  0.2868  0.0367  0.8242
 2077poe     o211957   1.031   4.786   3.937  0.6188  0.6966  0.1405
 2077poe    c2311958   1.074   4.676   4.013  0.3609  0.3656 -0.1891
 2077poe    c2311959   1.186   4.714   4.112  0.1150  0.1633  0.1661
 2077poe     o211960   1.302   4.773   4.059  0.1652  0.1021  0.2089
 2077poe    c2311961   1.364   4.869   4.142 -0.2109  0.2687  0.3011
 2077poe    c2311962   1.464   4.965   4.075  0.1459  0.4585  1.0902
 2077poe     o211963   1.393   5.074   4.023 -0.6306 -0.3256  0.4760
 2077poe    c3111964   1.482   5.178   3.987 -0.0218 -0.7551  0.7287
 2078poe    c3111965   0.179   0.498   0.769 -0.2111 -0.6436 -0.1981
 2078poe     o211966   0.300   0.543   0.825 -0.4943 -0.0097 -0.0790
 2078poe    c2311967   0.344   0.466   0.936  0.4919  0.1891 -0.3236
 2078poe    c2311968   0.481   0.521   0.980  0.2431  0.5988 -0.0486
 2078poe     o211969   0.484   0.649   1.039 -0.5864  0.4910  0.2376
 2078poe    c2311970   0.608   0.683   1.096 -0.0286  0.8182 -1.1321
 2078poe    c2311971   0.586   0.824   1.155  0.2137  0.2201  0.4269
 2078poe     o211972   0.546   0.909   1.050  0.0794 -0.2602  0.0861
 2078poe    c2311973   0.578   1.045   1.067 -0.0305 -0.2725  0.4041
 2078poe    c2311974   0.509   1.123   0.954 -0.1815  0.2801  0.8758
 2078poe     o211975   0.393   1.059   0.906  0.3243 -0.2298  0.3303
 2078poe    c3111976   0.330   1.133   0.803  0.2585 -0.1267  0.4451
 2079poe    c3111977   7.112   4.164   2.550 -0.0760 -1.1580  0.1714
 2079poe     o211978   7.029   4.192   2.439  0.8054 -0.1794 -0.2491
 2079poe    c2311979   7.084   4.190   2.309  0.4064 -0.2591 -0.4165
 2079poe    c2311980   7.053   4.314   2.223 -0.3474 -0.2671 -0.1641
 2079poe     o211981   7.124   4.431   2.257  0.4789 -0.5412 -0.8980
 2079poe    c2311982   7.167   4.503   2.144  0.2188 -0.5992 -1.0335
 2079poe    c2311983   7.269   4.613   2.177 -0.2952 -0.4783  0.2076
 2079poe     o211984   7.220   4.713   2.264 -0.1667 -0.2233 -0.0100
 2079poe    c2311985   7.317   4.813   2.282 -0.1427 -0.2266 -0.1193
 2079poe    c2311986   7.251   4.929   2.359 -0.1424 -0.3507  0.0699
 2079poe     o211987   7.160   4.867   2.447 -1.1028  0.2207 -0.4957
 2079poe    c3111988   7.093   4.954   2.535 -0.3517  0.0790  0.2381
 2080poe    c3111989   1.291   5.598   6.319 -0.0936  0.4667  0.7537
 2080poe     o211990   1.196   5.512   6.377 -0.0952  0.0258  0.1018
 2080poe    c2311991   1.087   5.514   6.287 -0.0934 -0.2092  0.0939
 2080poe    c2311992   0.982   5.411   6.332  0.1277 -0.5337 -0.1345
 2080poe     o211993   1.031   5.280   6.353  0.6618 -0.3711 -0.3381
 2080poe    c2311994   0.944   5.189   6.289  0.3466  0.0334 -0.4915
 2080poe    c2311995   1.017   5.054   6.272  0.2242 -0.1219  0.1767
 2080poe     o211996   1.131   5.037   6.191 -0.0348  0.0309 -0.2222
 2080poe    c2311997   1.101   5.045   6.054  0.2140 -0.1903 -0.2913
 2080poe    c2311998   1.035   4.919   5.995 -0.2139  0.0510 -0.3343
 2080poe     o211999   1.143   4.832   5.972 -0.1196  0.0878 -0.0369
 2080poe    c3112000   1.097   4.709   5.921  0.2212 -0.2046  0.3565
 2081poe    c3112001   5.708   2.469   4.532 -0.9713  0.1408 -0.0492
 2081poe     o212002   5.672   2.598   4.486 -0.3104  0.3911  0.1300
 2081poe    c2312003   5.702   2.612   4.349 -0.7490  0.0507 -0.0018
 2081poe    c2312004   5.665   2.757   4.312  0.2359  0.0914 -0.8472
 2081poe     o212005   5.529   2.774   4.344  0.4566  0.5157 -0.1136
 2081poe    c2312006   5.479   2.901   4.310 -0.1867  0.3106  0.0597
 2081poe    c2312007   5.328   2.884   4.338 -0.1973 -0.3926 -0.3891
 2081poe     o212008   5.302   2.840   4.469  0.3462  0.5565  0.0536
 2081poe    c2312009   5.164   2.834   4.501  0.3562 -0.8401 -0.0938
 2081poe    c2312010   5.135   2.754   4.628 -0.1525 -0.1677  0.2163
 2081poe     o212011   5.162   2.617   4.608 -0.3963 -0.1442 -0.2937
 2081poe    c3112012   5.122   2.555   4.729  0.0461  0.1422  0.0030
 2082poe    c3112013   4.494   3.119   4.333 -0.0814  0.0119  0.0067
 2082poe     o212014   4.621   3.137   4.392  0.0964 -0.2077 -0.3038
 2082poe    c2312015   4.646   3.069   4.513  0.3539 -0.3540 -0.4388
 2082poe    c2312016   4.772   3.122   4.584  0.0669  0.6104 -0.6318
 2082poe     o212017   4.894   3.098   4.516  0.1312 -0.1681 -0.2566
 2082poe    c2312018   5.006   3.161   4.575  0.0515 -0.0060 -0.2772
 2082poe    c2312019   5.022   3.300   4.511 -0.4600  0.0407 -0.3052
 2082poe     o212020   5.024   3.269   4.373 -0.1482  0.0694 -0.3063
 2082poe    c2312021   5.072   3.380   4.300  0.3003 -0.0605 -0.2147
 2082poe    c2312022   5.127   3.333   4.164  0.3859 -0.2240 -0.1242
 2082poe     o212023   5.051   3.220   4.128 -0.3430  0.3448 -0.4003
 2082poe    c3112024   5.065   3.173   3.995 -0.3841  0.1454 -0.3350
 2083poe    c3112025   3.764   1.711   1.170  0.2600  0.8580  0.6432
 2083poe     o212026   3.693   1.796   1.084 -0.3786 -0.2747  0.0231
 2083poe    c2312027   3.635   1.900   1.160  0.0849  0.0160 -0.0214
 2083poe    c2312028   3.489   1.947   1.146  0.0716 -0.0603 -0.1409
 2083poe     o212029   3.470   2.014   1.023 -0.6386  0.0186  0.0095
 2083poe    c2312030   3.336   2.049   0.997 -0.5892  0.4065  0.2603
 2083poe    c2312031   3.353   2.143   0.876 -0.0129  0.0754  0.0789
 2083poe     o212032   3.384   2.072   0.758  0.1414 -0.2499  0.3137
 2083poe    c2312033   3.408   2.157   0.649 -0.0048 -0.5052  0.0812
 2083poe    c2312034   3.407   2.068   0.523  0.3121  0.1830 -0.4136
 2083poe     o212035   3.470   1.946   0.553 -0.2532  0.0274  0.1636
 2083poe    c3112036   3.570   1.915   0.458 -0.4579 -0.0286 -0.0342
 2084poe    c3112037   2.059   2.128   0.680  0.3532 -0.2752 -0.6048
 2084poe     o212038   2.131   2.013   0.718  0.5852 -0.0624 -0.3981
 2084poe    c2312039   2.264   2.058   0.702  0.6058  0.0922  0.2042
 2084poe    c2312040   2.366   1.943   0.716  1.0124  0.4801  0.4606
 2084poe     o212041   2.333   1.876   0.835 -0.3457 -0.2194 -0.2807
 2084poe    c2312042   2.407   1.756   0.842 -0.0811 -0.0434 -0.0523
 2084poe    c2312043   2.363   1.688   0.973  0.0923  0.2909  0.1832
 2084poe     o212044   2.235   1.715   1.023 -0.0291  0.4118 -0.1877
 2084poe    c2312045   2.179   1.588   1.045  0.4265  0.1519 -0.5173
 2084poe    c2312046   2.036   1.606   1.101  0.5937  0.2430 -0.1148
 2084poe     o212047   1.946   1.670   1.013  0.2112 -0.1952 -0.0447
 2084poe    c3112048   1.863   1.752   1.092  0.2636 -0.3990  0.2244
 2085poe    c3112049   0.143   2.133   2.323 -0.5512 -0.6960 -0.2050
 2085poe     o212050   0.181   2.013   2.385  0.1961 -0.4520 -0.1821
 2085poe    c2312051   0.316   1.996   2.424  0.1985  0.3855  0.1929
 2085poe    c2312052   0.321   1.852   2.479 -0.8931  0.1767 -0.2210
 2085poe     o212053   0.228   1.852   2.584 -0.3348 -0.3691  0.2766
 2085poe    c2312054   0.231   1.739   2.669 -0.4737 -0.4564  0.1640
 2085poe    c2312055   0.119   1.729   2.774 -0.2692 -0.0499  0.4230
 2085poe     o212056  -0.002   1.705   2.704  0.2038 -0.0587 -0.4067
 2085poe    c2312057  -0.106   1.683   2.797  0.1771  0.6017 -0.2772
 2085poe    c2312058  -0.243   1.692   2.728 -0.4955 -0.1586  0.9366
 2085poe     o212059  -0.258   1.816   2.663 -0.6921 -0.4934  0.3282
 2085poe    c3112060  -0.388   1.870   2.675 -0.5900 -0.1621 -0.0497
 2086poe    c3112061   6.162   4.854   2.321  0.0683  0.0699 -0.2946
 2086poe     o212062   6.278   4.907   2.262  0.2810 -0.3287 -0.2394
 2086poe    c2312063   6.362   4.794   2.250  0.3548 -0.2968 -0.0382
 2086poe    c2312064   6.502   4.836   2.204  0.4452 -0.1450  0.3758
 2086poe     o212065   6.503   4.934   2.103 -0.2342 -0.0305  0.4748
 2086poe    c2312066   6.628   4.990   2.069 -0.2653 -0.2268  0.0279
 2086poe    c2312067   6.605   5.102   1.966 -0.0002  0.2801  0.5163
 2086poe     o212068   6.510   5.189   2.024 -0.1398  0.5562 -0.1216
 2086poe    c2312069   6.509   5.300   1.937  0.3694  0.3472 -0.3991
 2086poe    c2312070   6.408   5.412   1.965  0.1325 -0.0217  0.2345
 2086poe     o212071   6.279   5.355   1.976  0.0152  0.0751 -0.5694
 2086poe    c3112072   6.180   5.455   1.965 -0.2203 -0.0580  0.2435
 2087poe    c3112073   2.130   7.127   2.865  0.0821 -0.3031 -0.0163
 2087poe     o212074   2.074   7.248   2.818  0.1585 -0.1338  0.3277
 2087poe    c2312075   2.165   7.355   2.828  0.1832 -0.1576  0.3607
 2087poe    c2312076   2.111   7.469   2.917 -0.1691  0.1063 -0.1836
 2087poe     o212077   2.004   7.543   2.864 -0.4306 -0.0058  0.1833
 2087poe    c2312078   1.976   7.667   2.926  0.7860  0.5393 -0.3255
 2087poe    c2312079   1.878   7.759   2.851  0.1660  0.1753  0.0240
 2087poe     o212080   1.760   7.688   2.824  0.2573  0.0564 -0.0625
 2087poe    c2312081   1.644   7.760   2.789 -0.0828 -0.3711  0.1706
 2087poe    c2312082   1.580   7.852   2.895  0.2899  0.2407 -0.1286
 2087poe     o212083   1.547   7.778   3.011  0.2074 -0.0039 -0.3059
 2087poe    c3112084   1.465   7.860   3.092  0.0295 -0.6626  0.1837
 2088poe    c3112085   5.052   1.464   1.223 -0.4711  0.2968  0.7130
 2088poe     o212086   5.079   1.582   1.152 -0.2680  0.0738  0.4199
 2088poe    c2312087   4.955   1.648   1.145 -0.0332  0.5101  0.2860
 2088poe    c2312088   4.930   1.702   1.003  0.5080 -0.4951 -0.2027
 2088poe     o212089   5.019   1.811   0.986 -0.9307  0.7076 -0.2233
 2088poe    c2312090   4.993   1.854   0.854 -0.0208  0.5271 -0.4700
 2088poe    c2312091   5.069   1.985   0.826  0.4995  0.2865 -0.1958
 2088poe     o212092   5.194   1.968   0.888  0.6178 -0.0765 -0.5326
 2088poe    c2312093   5.264   2.089   0.908  0.4040  0.0253 -0.3916
 2088poe    c2312094   5.397   2.079   0.985  0.2252  0.0428 -0.0814
 2088poe     o212095   5.379   2.029   1.116  0.2519 -0.6458 -0.3385
 2088poe    c3112096   5.504   2.025   1.181  0.0635 -0.3679  0.0417
 2089poe    c3112097   2.698   6.529   2.506 -0.0242  0.5139 -0.3377
 2089poe     o212098   2.690   6.527   2.646  0.3178 -0.2089 -0.3247
 2089poe    c2312099   2.727   6.653   2.697  0.5471 -0.1494 -0.6382
 2089poe    c2312100   2.799   6.626   2.831  0.0624 -0.2309 -0.3934
 2089poe     o212101   2.925   6.567   2.808  0.0626 -0.4093  0.0698
 2089poe    c2312102   3.003   6.550   2.925  0.1936  0.3034  0.0943
 2089poe    c2312103   3.100   6.432   2.906  0.2260  0.2603  0.5331
 2089poe     o212104   3.048   6.301   2.913  0.0174  0.3396  0.4714
 2089poe    c2312105   3.070   6.247   3.042 -0.1998  0.2806  0.4834
 2089poe    c2312106   2.989   6.118   3.065 -0.3358  0.3991  0.6741
 2089poe     o212107   2.852   6.119   3.097 -0.3659 -0.4444  0.5995
 2089poe    c3112108   2.807   5.986   3.093 -0.5067 -0.3858  0.2433
 2090poe    c3112109   4.035   4.081   5.105  0.0174  0.5609 -0.2872
 2090poe     o212110   4.004   4.216   5.076  0.2559  0.6808  0.0147
 2090poe    c2312111   3.912   4.238   4.971  0.6479  0.3303 -0.4102
 2090poe    c2312112   3.920   4.373   4.897  0.3188  0.4579 -0.2162
 2090poe     o212113   3.879   4.483   4.976 -0.2927  0.3509 -0.3814
 2090poe    c2312114   3.874   4.601   4.898  0.7129  0.6155 -0.0540
 2090poe    c2312115   3.840   4.724   4.985  0.6637  0.6993 -0.1927
 2090poe     o212116   3.936   4.716   5.088 -0.1234 -0.0397  0.5034
 2090poe    c2312117   3.965   4.848   5.130  0.2034 -0.1041  0.4824
 2090poe    c2312118   4.073   4.843   5.239  0.6358 -0.4510  0.0444
 2090poe     o212119   4.025   4.756   5.340 -0.1464 -0.7439 -0.5706
 2090poe    c3112120   3.962   4.826   5.444 -0.1427 -0.4879 -0.7422
 2091poe    c3112121   6.449   4.031   4.448 -0.4017  1.1586 -0.1991
 2091poe     o212122   6.398   3.921   4.376 -0.1079  0.6477  0.3647
 2091poe    c2312123   6.301   3.964   4.283 -0.0040  0.1283  0.0128
 2091poe    c2312124   6.225   3.862   4.196  0.2878  0.1795 -0.3028
 2091poe     o212125   6.150   3.777   4.280  0.4655 -0.3749 -0.6996
 2091poe    c2312126   6.064   3.700   4.199 -0.2596  0.0866 -0.3721
 2091poe    c2312127   5.984   3.601   4.287  0.0609 -0.1957 -0.3984
 2091poe     o212128   6.067   3.546   4.387  0.1004 -0.6254 -0.6664
 2091poe    c2312129   5.996   3.469   4.482  0.4209 -0.0625  0.0416
 2091poe    c2312130   6.084   3.408   4.592  0.4739 -0.2594 -0.1094
 2091poe     o212131   6.185   3.503   4.616  0.1736  0.0951 -0.2489
 2091poe    c3112132   6.262   3.464   4.727 -0.4208 -0.2907  0.0309
 2092poe    c3112133   4.411   1.761   0.545  0.1959  0.5712 -0.3825
 2092poe     o212134   4.544   1.782   0.506  0.0904  1.0854 -0.4646
 2092poe    c2312135   4.542   1.849   0.381 -0.0735 -0.0014 -1.0504
 2092poe    c2312136   4.688   1.876   0.339  0.0398 -0.1115 -0.7346
 2092poe     o212137   4.760   1.934   0.445 -0.4167  0.7079 -0.8598
 2092poe    c2312138   4.832   2.051   0.415  0.4596  0.3022 -0.3719
 2092poe    c2312139   4.736   2.168   0.391 -0.0797 -0.0530  0.0179
 2092poe     o212140   4.658   2.163   0.273  0.5599 -0.0263 -0.4145
 2092poe    c2312141   4.538   2.237   0.272  0.7206  0.2490  0.0191
 2092poe    c2312142   4.454   2.205   0.146  0.2854  0.0103  0.3678
 2092poe     o212143   4.494   2.259   0.023 -0.0844 -0.5873 -0.0200
 2092poe    c3112144   4.406   2.367  -0.004  0.6418  0.0337  0.0500
 2093poe    c3112145   2.578   3.719   0.013 -0.0786 -0.6077 -1.4022
 2093poe     o212146   2.439   3.732   0.033  0.1230 -0.4318 -0.0239
 2093poe    c2312147   2.417   3.834   0.128 -0.4160 -0.0034 -0.6001
 2093poe    c2312148   2.280   3.828   0.198 -0.2203 -0.0447 -0.2164
 2093poe     o212149   2.262   3.717   0.284 -0.0143 -0.0628 -0.1956
 2093poe    c2312150   2.195   3.617   0.211 -0.4766  0.1138 -0.0152
 2093poe    c2312151   2.120   3.532   0.316 -0.3776  0.8277  0.6415
 2093poe     o212152   2.203   3.507   0.427 -0.2097  0.5852  0.4632
 2093poe    c2312153   2.182   3.377   0.478 -0.2651  0.3369 -0.1786
 2093poe    c2312154   2.097   3.377   0.607 -0.3123  0.4877 -0.2095
 2093poe     o212155   2.163   3.282   0.687 -0.3271  0.4742 -0.2136
 2093poe    c3112156   2.122   3.304   0.820  0.0762  0.1840 -0.0380
 2094poe    c3112157   4.627   4.853   2.029  0.0715 -0.0277  0.1128
 2094poe     o212158   4.529   4.772   2.089  0.2164 -0.2785  0.0147
 2094poe    c2312159   4.408   4.819   2.034  0.2562  0.1898  0.3167
 2094poe    c2312160   4.270   4.780   2.091  0.2782 -0.0252  0.2236
 2094poe     o212161   4.260   4.640   2.108 -0.2085 -0.0875 -0.5518
 2094poe    c2312162   4.278   4.603   2.242  0.0049  0.3712 -0.4519
 2094poe    c2312163   4.214   4.468   2.280  0.4725  0.3240  0.1982
 2094poe     o212164   4.073   4.470   2.268  0.4986 -0.5273 -0.3033
 2094poe    c2312165   4.024   4.386   2.166  0.3255 -0.1003 -0.5710
 2094poe    c2312166   3.871   4.367   2.165  0.3548 -0.3324 -0.5041
 2094poe     o212167   3.803   4.476   2.108  0.1188 -0.3757 -0.3062
 2094poe    c3112168   3.666   4.444   2.110 -0.0599  0.3732 -0.2105
 2095poe    c3112169   2.171   5.099   3.445 -0.3697  0.2491  0.1103
 2095poe     o212170   2.124   5.033   3.560 -0.1742 -0.0289  0.0320
 2095poe    c2312171   1.998   5.077   3.604 -0.2251 -0.2094  0.0692
 2095poe    c2312172   1.934   5.001   3.722  0.2677 -0.8570 -0.0773
 2095poe     o212173   1.996   5.018   3.847 -0.3723 -0.0607  0.1455
 2095poe    c2312174   1.916   4.964   3.950 -0.1019 -0.5326  0.1126
 2095poe    c2312175   1.965   4.833   4.015 -0.2677 -0.4864  0.3335
 2095poe     o212176   2.093   4.828   4.075 -0.0437 -0.4266 -0.1305
 2095poe    c2312177   2.097   4.733   4.180 -0.4204 -0.1316  0.1570
 2095poe    c2312178   2.214   4.772   4.272 -0.2003  0.2469 -0.2771
 2095poe     o212179   2.333   4.732   4.209 -0.2592 -0.0818 -0.1829
 2095poe    c3112180   2.440   4.802   4.270 -0.1838 -0.7974  0.5075
 2096poe    c3112181   0.986   6.058   1.761 -0.0992 -0.0188 -0.3882
 2096poe     o212182   1.069   6.017   1.867 -0.1403 -0.3692 -0.4884
 2096poe    c2312183   1.204   6.009   1.826  0.1056  0.5818  0.0920
 2096poe    c2312184   1.299   5.981   1.944  0.1545  0.6334  0.0648
 2096poe     o212185   1.306   6.085   2.039 -0.3606  0.3762  0.3923
 2096poe    c2312186   1.394   6.045   2.141 -0.3109  0.4102  0.3633
 2096poe    c2312187   1.492   6.161   2.165 -0.1695  0.3605  0.0238
 2096poe     o212188   1.426   6.280   2.200 -0.2134  0.3508 -0.0257
 2096poe    c2312189   1.522   6.382   2.220  0.3224 -0.1132 -0.1937
 2096poe    c2312190   1.461   6.509   2.282  0.2397  0.0349 -0.5750
 2096poe     o212191   1.346   6.546   2.208 -0.2349  0.1479  0.2016
 2096poe    c3112192   1.380   6.666   2.141  0.2224 -0.3099 -0.4057
 2097poe    c3112193   5.399   3.270   2.603  0.1062 -0.5413 -0.5237
 2097poe     o212194   5.340   3.313   2.483 -0.3605  0.5957  0.0965
 2097poe    c2312195   5.253   3.230   2.409 -0.0102  0.1326  0.2060
 2097poe    c2312196   5.254   3.291   2.267  0.5363 -0.6784 -0.1508
 2097poe     o212197   5.212   3.425   2.285 -0.4968 -0.9606 -0.4085
 2097poe    c2312198   5.156   3.483   2.169 -0.5061  0.6293  0.3729
 2097poe    c2312199   5.133   3.632   2.200  0.8235  1.0521 -0.5729
 2097poe     o212200   5.237   3.674   2.286  0.7462 -0.7898  0.4660
 2097poe    c2312201   5.230   3.812   2.313  0.5866 -0.7075  0.0314
 2097poe    c2312202   5.365   3.855   2.375  0.0974 -0.1514  0.7228
 2097poe     o212203   5.380   3.817   2.510  0.3069 -0.5880  0.5792
 2097poe    c3112204   5.505   3.851   2.567 -0.1051  0.3579  0.9384
 2098poe    c3112205   2.857   4.938   5.867 -0.3394 -0.4212 -1.0604
 2098poe     o212206   2.788   4.815   5.878 -0.1244 -0.4386  0.2938
 2098poe    c2312207   2.659   4.834   5.930 -0.4585 -0.4603 -0.5191
 2098poe    c2312208   2.612   4.710   6.008  0.5586 -0.5494 -0.0447
 2098poe     o212209   2.662   4.606   5.928  0.3654 -0.1295 -0.7244
 2098poe    c2312210   2.645   4.481   5.992  0.6140  0.0934 -0.2164
 2098poe    c2312211   2.681   4.375   5.887 -0.1357 -0.1221 -0.2587
 2098poe     o212212   2.810   4.397   5.834 -0.1528 -0.1333 -0.3046
 2098poe    c2312213   2.829   4.297   5.737 -0.4041 -0.3742 -0.1063
 2098poe    c2312214   2.960   4.319   5.658 -0.1140  0.4931  0.6107
 2098poe     o212215   2.979   4.451   5.612 -0.1598  0.3292  0.1157
 2098poe    c3112216   3.057   4.436   5.496  0.9636 -0.1806  0.9233
 2099poe    c3112217   6.747   0.028   4.990 -0.5088  0.2016 -0.2514
 2099poe     o212218   6.746  -0.031   4.862  0.0343 -0.0479 -0.1431
 2099poe    c2312219   6.754  -0.171   4.875 -0.1273  0.0169  0.6814
 2099poe    c2312220   6.683  -0.263   4.774 -0.2300  0.3449  0.4542
 2099poe     o212221   6.743  -0.256   4.647 -0.1564 -0.3444  0.4474
 2099poe    c2312222   6.753  -0.369   4.563 -0.1268  0.2365 -0.3363
 2099poe    c2312223   6.847  -0.474   4.625  0.1473  0.6505 -0.0420
 2099poe     o212224   6.985  -0.476   4.594  0.2824  0.0995  0.5612
 2099poe    c2312225   7.046  -0.598   4.627  0.5414 -0.0899 -0.5599
 2099poe    c2312226   7.188  -0.609   4.569  0.6763 -0.0803 -0.2333
 2099poe     o212227   7.203  -0.564   4.437  0.1430 -0.3272 -0.3782
 2099poe    c3112228   7.332  -0.583   4.383  0.0319 -0.4965 -0.5849
 2100poe    c3112229   0.138   5.456   4.569 -0.9166 -0.4044 -0.0251
 2100poe     o212230   0.149   5.478   4.430  0.0547  0.2584  0.1464
 2100poe    c2312231   0.280   5.460   4.383  0.2144  0.4783  0.5089
 2100poe    c2312232   0.290   5.469   4.230  0.3897  0.2426  0.5050
 2100poe     o212233   0.178   5.542   4.185  0.3184 -0.1022  0.1122
 2100poe    c2312234   0.224   5.649   4.105  0.3824 -0.0963  0.1564
 2100poe    c2312235   0.099   5.737   4.086  0.3107 -0.0174  0.9742
 2100poe     o212236   0.032   5.723   4.210  0.1929  0.4916  0.9693
 2100poe    c2312237  -0.076   5.813   4.215 -0.3007 -0.0647  0.4458
 2100poe    c2312238  -0.138   5.817   4.356  0.0261 -0.3597  0.5999
 2100poe     o212239  -0.131   5.681   4.394  0.6980 -0.4442  0.1876
 2100poe    c3112240  -0.167   5.666   4.529  0.3615  0.2873  0.1844
 2101poe    c3112241   3.341   5.164   4.267  0.3457 -0.3213  1.0446
 2101poe     o212242   3.287   5.246   4.166 -0.0112 -0.5864  1.0197
 2101poe    c2312243   3.219   5.345   4.240  0.8454  0.5814  0.2757
 2101poe    c2312244   3.150   5.444   4.144  0.2333  0.1871  0.3076
 2101poe     o212245   3.129   5.361   4.032 -0.4107  0.0437  0.5292
 2101poe    c2312246   3.060   5.430   3.931 -0.4684 -0.5102  0.1897
 2101poe    c2312247   3.053   5.348   3.800  0.1340  0.8136 -0.6960
 2101poe     o212248   3.042   5.210   3.828  0.4351  0.8723 -0.2589
 2101poe    c2312249   3.080   5.139   3.712 -0.2986 -0.0744  0.0652
 2101poe    c2312250   3.065   4.985   3.711 -0.4823 -0.0639  0.8336
 2101poe     o212251   3.159   4.914   3.789 -0.2966 -0.2868  0.4064
 2101poe    c3112252   3.102   4.787   3.809  0.0630 -0.4400  0.4625
 2102poe    c3112253   6.501   1.337   0.743  0.5183  0.3786 -0.2277
 2102poe     o212254   6.439   1.267   0.637  0.1841 -0.3347  0.4252
 2102poe    c2312255   6.325   1.194   0.678  0.0212 -0.0886  0.4163
 2102poe    c2312256   6.282   1.117   0.552 -0.0893 -0.3149  0.5926
 2102poe     o212257   6.146   1.077   0.546 -0.0977 -0.2541  0.3614
 2102poe    c2312258   6.104   1.052   0.414  0.3109 -0.7563  0.3235
 2102poe    c2312259   5.959   1.002   0.407  0.0253  0.1165 -0.1569
 2102poe     o212260   5.878   1.109   0.452 -0.0374 -0.2239  0.5629
 2102poe    c2312261   5.742   1.078   0.436  0.0391 -0.3141  0.0675
 2102poe    c2312262   5.684   1.177   0.539 -0.2168 -0.1315 -0.2490
 2102poe     o212263   5.766   1.175   0.653 -0.1293 -0.1093 -0.3118
 2102poe    c3112264   5.728   1.284   0.734  0.9326 -0.0427  0.1193
 2103poe    c3112265   1.915   6.246   4.894  0.0592 -0.0045  0.0333
 2103poe     o212266   1.790   6.249   4.828  0.1815 -0.0862 -0.2019
 2103poe    c2312267   1.778   6.370   4.757  0.2281  0.2188  0.3077
 2103poe    c2312268   1.652   6.368   4.669  0.5481 -0.5873 -0.1391
 2103poe     o212269   1.669   6.275   4.564  0.3215 -0.6112 -0.1547
 2103poe    c2312270   1.546   6.210   4.540 -0.0537 -0.0071  0.1100
 2103poe    c2312271   1.564   6.093   4.441  0.4463 -0.0608  0.2616
 2103poe     o212272   1.634   5.992   4.509 -0.2591 -0.5569  0.2608
 2103poe    c2312273   1.616   5.869   4.442 -0.3120 -0.3115 -0.1815
 2103poe    c2312274   1.679   5.766   4.538  0.2391 -0.2836 -0.5076
 2103poe     o212275   1.806   5.815   4.574  0.0073  0.3307 -0.5115
 2103poe    c3112276   1.859   5.738   4.680  0.4645  0.4077 -0.6808
 2104poe    c3112277   7.063   3.017   3.816  0.0975 -0.5511  0.1353
 2104poe     o212278   6.933   3.071   3.826  0.3753  0.1584  0.0317
 2104poe    c2312279   6.945   3.173   3.923  0.5802  0.1575  0.0089
 2104poe    c2312280   6.844   3.286   3.900  0.0692 -0.3662 -0.3501
 2104poe     o212281   6.875   3.351   3.778 -0.3052 -0.3273 -0.4262
 2104poe    c2312282   6.802   3.471   3.765  0.3818  0.0662 -0.6645
 2104poe    c2312283   6.843   3.552   3.641  0.3520  0.5457 -0.3641
 2104poe     o212284   6.974   3.603   3.641  0.4920  0.1977  0.3015
 2104poe    c2312285   6.976   3.682   3.524  0.3210  0.3497  0.4006
 2104poe    c2312286   7.123   3.719   3.497  0.3291 -0.2558 -0.4560
 2104poe     o212287   7.184   3.592   3.505 -0.1814 -0.4553  0.3856
 2104poe    c3112288   7.321   3.614   3.481 -0.2647 -0.4656 -0.1040
 2105poe    c3112289   5.477   6.019   0.960 -0.6369  0.0383 -0.1172
 2105poe     o212290   5.408   5.901   0.996 -0.1274 -0.3744 -0.4837
 2105poe    c2312291   5.272   5.922   1.028 -0.0318  0.2814 -0.4911
 2105poe    c2312292   5.199   5.787   1.017  0.3966  0.0190 -0.1730
 2105poe     o212293   5.255   5.698   1.110 -0.1026 -0.2307 -0.1087
 2105poe    c2312294   5.175   5.582   1.113 -0.5566  0.0811 -0.0373
 2105poe    c2312295   5.264   5.467   1.163  0.4325  0.9617  0.2531
 2105poe     o212296   5.371   5.442   1.075 -0.1708 -0.2861 -0.1525
 2105poe    c2312297   5.439   5.327   1.118 -0.2115 -0.0952  0.4323
 2105poe    c2312298   5.544   5.351   1.228  0.0135  0.3564  0.1221
 2105poe     o212299   5.506   5.396   1.357 -0.4777 -0.4482  0.2631
 2105poe    c3112300   5.617   5.382   1.442  0.0882 -0.2169 -0.4255
 2106poe    c3112301   5.772   2.956   0.068 -0.0568  0.2616 -0.4130
 2106poe     o212302   5.767   2.890  -0.056  0.3346 -0.1312 -0.2237
 2106poe    c2312303   5.642   2.828  -0.077  0.1066  0.1731  0.2286
 2106poe    c2312304   5.660   2.784  -0.223  0.5245  0.2993  0.2397
 2106poe     o212305   5.786   2.722  -0.237  0.3517  0.0013 -0.0034
 2106poe    c2312306   5.801   2.688  -0.373 -0.1585  0.1081 -0.0908
 2106poe    c2312307   5.934   2.614  -0.396 -0.0701  0.0856  0.4707
 2106poe     o212308   6.043   2.671  -0.328 -0.0071 -0.2400  0.6475
 2106poe    c2312309   6.163   2.601  -0.352 -0.0698 -0.2731  0.4256
 2106poe    c2312310   6.274   2.666  -0.267 -0.0082  0.3739 -0.1481
 2106poe     o212311   6.240   2.652  -0.131  0.2552  0.3353 -0.0856
 2106poe    c3112312   6.331   2.703  -0.037 -0.0924 -0.0426  0.4562
 2107poe    c3112313   6.639   5.441   6.882  0.6274 -0.3909 -0.4549
 2107poe     o212314   6.507   5.477   6.847  0.4226 -0.4918  0.2079
 2107poe    c2312315   6.472   5.453   6.713 -0.1135 -0.2825  0.3094
 2107poe    c2312316   6.326   5.494   6.686  0.4892  1.1785 -0.8735
 2107poe     o212317   6.301   5.618   6.749 -0.0135  0.5593  0.1726
 2107poe    c2312318   6.191   5.692   6.701  0.3243  0.6583 -0.4639
 2107poe    c2312319   6.205   5.834   6.759  0.4347  0.4033  0.1419
 2107poe     o212320   6.326   5.898   6.724 -0.0197  0.8729 -0.5812
 2107poe    c2312321   6.363   6.016   6.791  0.2399  0.1623  0.5620
 2107poe    c2312322   6.516   6.031   6.798  0.2585  0.0695  0.3612
 2107poe     o212323   6.575   5.916   6.854  0.2700  0.1317  0.4767
 2107poe    c3112324   6.710   5.893   6.820  0.0731 -0.0393 -0.2044
 2108poe    c3112325   5.059   2.280   3.675 -0.0719 -0.4560  0.0131
 2108poe     o212326   4.997   2.166   3.731 -0.4480 -0.3467 -0.1778
 2108poe    c2312327   5.016   2.156   3.870 -0.1763 -0.3275 -0.2139
 2108poe    c2312328   4.934   2.032   3.912 -0.5114 -0.3412 -0.9038
 2108poe     o212329   5.025   1.924   3.918 -0.5461 -0.3068  0.7214
 2108poe    c2312330   4.991   1.829   4.016 -1.0607 -0.9567 -0.0726
 2108poe    c2312331   5.086   1.708   4.016 -0.0364 -0.1727  0.5128
 2108poe     o212332   5.094   1.673   3.879  0.0497 -0.2889  0.5479
 2108poe    c2312333   5.161   1.551   3.853 -0.0729 -0.2301 -0.0459
 2108poe    c2312334   5.147   1.528   3.701 -0.6349  0.2557 -0.0751
 2108poe     o212335   5.201   1.645   3.643  0.1477  0.0167  0.1595
 2108poe    c3112336   5.193   1.634   3.503 -0.7152  0.5135  0.1671
 2109poe    c3112337   3.062   1.584   0.090  0.1681 -0.3077  0.2711
 2109poe     o212338   3.146   1.471   0.097  0.1029 -0.3655  0.1452
 2109poe    c2312339   3.124   1.396  -0.020 -0.4630 -0.0461  0.0458
 2109poe    c2312340   3.191   1.258  -0.017 -0.1584  0.1004  0.0787
 2109poe     o212341   3.331   1.271  -0.018 -0.1471  0.0922  0.7134
 2109poe    c2312342   3.405   1.151  -0.007  0.3955  0.3406 -0.1083
 2109poe    c2312343   3.555   1.179  -0.027  0.5780 -0.3778  0.2267
 2109poe     o212344   3.592   1.286   0.057  0.5353 -0.3339  0.1891
 2109poe    c2312345   3.728   1.323   0.056  0.4146  0.1219 -0.6474
 2109poe    c2312346   3.752   1.425   0.169 -0.3857 -0.5134  0.1125
 2109poe     o212347   3.648   1.518   0.150 -0.2170 -0.3190  0.1465
 2109poe    c3112348   3.678   1.646   0.202  0.3069 -0.3742 -0.0213
 2110poe    c3112349   6.105   0.039   1.451  0.4422  0.4421  0.8513
 2110poe     o212350   6.141   0.139   1.357  0.0638 -0.3797 -0.1845
 2110poe    c2312351   6.242   0.083   1.277  0.2220 -0.4916  0.0908
 2110poe    c2312352   6.289   0.178   1.165  0.2113  0.1419  0.6179
 2110poe     o212353   6.203   0.189   1.053  0.2761 -0.0192  0.5521
 2110poe    c2312354   6.232   0.285   0.954 -0.2282 -0.4718 -0.0408
 2110poe    c2312355   6.174   0.256   0.814  0.1724 -1.1000 -0.0837
 2110poe     o212356   6.034   0.267   0.830  0.2553  0.1246 -0.0625
 2110poe    c2312357   5.987   0.360   0.735 -0.0764 -0.1734 -0.1925
 2110poe    c2312358   5.862   0.444   0.764 -0.3423 -0.5302 -0.2905
 2110poe     o212359   5.872   0.514   0.886 -0.4170 -0.0874 -0.5357
 2110poe    c3112360   5.765   0.598   0.922  0.1423  0.4552 -0.0982
 2111poe    c3112361   1.928   4.288   4.718  0.6011 -0.1428  0.5754
 2111poe     o212362   1.853   4.268   4.836 -0.3715  0.1453  0.0131
 2111poe    c2312363   1.748   4.177   4.814  0.3823 -0.6410 -0.3616
 2111poe    c2312364   1.631   4.184   4.914  0.3757  0.0648 -0.4156
 2111poe     o212365   1.547   4.297   4.912  0.3695  0.0689 -0.0005
 2111poe    c2312366   1.597   4.388   5.008 -0.0537  0.1013  0.1908
 2111poe    c2312367   1.537   4.528   4.990 -0.2394  0.0015  0.0337
 2111poe     o212368   1.396   4.530   4.987 -0.2525 -0.0342  0.6397
 2111poe    c2312369   1.355   4.664   4.970  0.3080 -0.0162 -0.6352
 2111poe    c2312370   1.207   4.653   4.929  0.1064 -0.4590  0.1857
 2111poe     o212371   1.197   4.545   4.839 -0.7210 -0.1268 -0.1315
 2111poe    c3112372   1.077   4.579   4.774 -0.4264  0.0847 -0.5699
 2112poe    c3112373   5.497   4.299   0.506 -0.0886  1.0087  0.3207
 2112poe     o212374   5.376   4.336   0.567 -0.4544  0.3731 -0.0099
 2112poe    c2312375   5.395   4.355   0.706 -0.0709 -0.2921  0.0333
 2112poe    c2312376   5.260   4.379   0.776  0.1916 -0.4556  0.6047
 2112poe     o212377   5.158   4.313   0.703 -0.1708 -0.0426  0.7296
 2112poe    c2312378   5.036   4.313   0.773 -0.3843 -0.1447  0.3549
 2112poe    c2312379   4.931   4.330   0.661  0.1181  0.4705 -0.0275
 2112poe     o212380   4.940   4.238   0.554  0.0113 -0.3142  0.6290
 2112poe    c2312381   4.848   4.262   0.450 -0.2881 -0.8433  0.7668
 2112poe    c2312382   4.849   4.151   0.343  0.4182 -0.4104  0.3198
 2112poe     o212383   4.981   4.121   0.302  0.4438 -0.1261  0.1960
 2112poe    c3112384   5.014   4.137   0.166  0.2578 -0.1558  0.1470
 2113poe    c3112385   3.414   0.733   1.495  0.4157 -0.1362 -0.1668
 2113poe     o212386   3.314   0.718   1.594  0.6545  0.0088  0.0968
 2113poe    c2312387   3.314   0.587   1.645 -0.4029 -0.0857 -0.1195
 2113poe    c2312388   3.206   0.573   1.754 -0.0787  0.2080  0.2421
 2113poe     o212389   3.225   0.668   1.857 -0.2335 -0.0860  0.5422
 2113poe    c2312390   3.109   0.712   1.925 -0.1621 -0.0650  0.6505
 2113poe    c2312391   3.026   0.805   1.835  0.0333 -0.5398 -0.0318
 2113poe     o212392   3.122   0.892   1.779  0.1778 -0.6223  0.0865
 2113poe    c2312393   3.058   0.975   1.684 -0.0620 -0.0450  0.7461
 2113poe    c2312394   3.177   1.063   1.642 -0.2688 -0.1421 -0.0487
 2113poe     o212395   3.299   0.994   1.629 -0.0101  0.3307 -0.1710
 2113poe    c3112396   3.403   1.088   1.624  0.0304  0.2835 -0.2165
 2114poe    c3112397   3.481   3.714   1.509  0.4324 -0.4110 -0.3359
 2114poe     o212398   3.539   3.590   1.543  0.0410 -0.3893  0.4408
 2114poe    c2312399   3.678   3.610   1.559  0.0947 -0.3242 -0.0718
 2114poe    c2312400   3.752   3.494   1.490  0.4197 -0.0124 -0.2513
 2114poe     o212401   3.715   3.373   1.553  0.5581  0.3671  0.5684
 2114poe    c2312402   3.793   3.264   1.513  0.1850  0.2724  0.0904
 2114poe    c2312403   3.735   3.123   1.536  0.3984  0.2601  0.5714
 2114poe     o212404   3.700   3.120   1.672 -0.2767  0.3884  0.4035
 2114poe    c2312405   3.630   2.999   1.688 -0.0815  0.1812 -0.3120
 2114poe    c2312406   3.539   3.028   1.808 -0.3463 -0.5282 -0.3378
 2114poe     o212407   3.478   3.151   1.777 -0.0310 -0.2046  0.2938
 2114poe    c3112408   3.349   3.177   1.828  0.1028  0.7834  0.1408
 2115poe    c3112409   5.527   0.839   4.160 -0.0899 -0.1276  0.1635
 2115poe     o212410   5.646   0.913   4.166 -0.1085 -0.0500 -0.3745
 2115poe    c2312411   5.628   1.000   4.276  0.2558 -0.6615  0.1796
 2115poe    c2312412   5.738   1.107   4.260 -0.3503  0.1095  1.0165
 2115poe     o212413   5.867   1.059   4.228 -0.6531  0.1719 -0.3908
 2115poe    c2312414   5.961   1.157   4.263  0.0056 -0.4518 -0.3873
 2115poe    c2312415   6.101   1.116   4.215  0.3704  0.5813 -0.2321
 2115poe     o212416   6.087   1.082   4.079 -0.0178 -0.4764  0.0655
 2115poe    c2312417   6.213   1.039   4.033  0.4521  1.0971 -0.1936
 2115poe    c2312418   6.192   0.989   3.889  0.0639  0.0960  0.1966
 2115poe     o212419   6.062   0.937   3.874  0.2292 -0.3073  0.1668
 2115poe    c3112420   6.046   0.868   3.752  0.0963  0.3272 -0.1749
 2116poe    c3112421   2.857   6.219   5.761  0.3983  0.3547 -0.2928
 2116poe     o212422   2.912   6.266   5.882  0.3952  0.0213 -0.1607
 2116poe    c2312423   2.970   6.392   5.858  0.5578  0.0638  0.4359
 2116poe    c2312424   2.925   6.474   5.981  0.2800 -0.0175  0.3903
 2116poe     o212425   2.938   6.388   6.092 -0.5336 -0.3096  0.2640
 2116poe    c2312426   2.899   6.449   6.213  0.3560  0.7211  0.0469
 2116poe    c2312427   2.948   6.362   6.330 -0.0330  0.4311 -0.0054
 2116poe     o212428   2.894   6.234   6.306  0.1389  0.3065  0.2641
 2116poe    c2312429   2.868   6.152   6.418  0.5504  0.4966  0.4992
 2116poe    c2312430   2.855   6.002   6.383 -0.0877  0.5466  0.5148
 2116poe     o212431   2.753   5.974   6.290 -0.0347  0.6271  0.4320
 2116poe    c3112432   2.735   5.834   6.297  0.2146  0.5863  0.2867
 2117poe    c3112433   3.355   1.838   3.761 -0.1422 -0.5349 -0.7506
 2117poe     o212434   3.483   1.796   3.805 -0.1615  0.1416 -0.0074
 2117poe    c2312435   3.501   1.830   3.940 -0.1263 -0.5412  0.1627
 2117poe    c2312436   3.632   1.786   4.008  0.0681 -0.2412 -0.0211
 2117poe     o212437   3.749   1.850   3.961  0.1998 -0.2094  0.3498
 2117poe    c2312438   3.868   1.786   3.999  0.3542  0.1983  0.5632
 2117poe    c2312439   3.990   1.829   3.916 -0.2055 -0.1757 -0.4691
 2117poe     o212440   3.968   1.819   3.777 -0.5501 -0.1507 -0.4155
 2117poe    c2312441   4.068   1.891   3.709 -0.3127 -0.1633 -0.0847
 2117poe    c2312442   4.102   1.820   3.576  0.0784 -0.7897  0.3478
 2117poe     o212443   3.989   1.769   3.510 -0.3595  0.4969  0.0873
 2117poe    c3112444   4.025   1.685   3.403 -0.3327  0.2311  0.3017
 2118poe    c3112445   6.563   5.559   4.782 -0.2466 -0.1993  0.0143
 2118poe     o212446   6.540   5.543   4.644  0.2423 -0.3395 -0.0531
 2118poe    c2312447   6.618   5.629   4.565  0.2099  0.0479  0.3319
 2118poe    c2312448   6.655   5.543   4.443  0.1349 -0.5218  0.7047
 2118poe     o212449   6.539   5.479   4.395  0.0746 -0.0591  0.2213
 2118poe    c2312450   6.554   5.381   4.295 -0.4735 -0.5123  0.5833
 2118poe    c2312451   6.538   5.249   4.374  0.0674 -0.7620  0.2757
 2118poe     o212452   6.427   5.269   4.457  0.3169  0.2207  0.3875
 2118poe    c2312453   6.416   5.163   4.549 -1.1287 -0.1792 -0.2129
 2118poe    c2312454   6.316   5.185   4.664 -0.9149  0.0146 -0.0632
 2118poe     o212455   6.345   5.309   4.724 -0.0183  0.1117 -0.6597
 2118poe    c3112456   6.235   5.362   4.796  0.5811  1.0516 -0.4223
 2119poe    c3112457   0.225   5.940   3.285  0.2883  0.5858  1.3291
 2119poe     o212458   0.123   6.035   3.303 -0.2534  0.2112  0.2974
 2119poe    c2312459   0.167   6.153   3.239 -0.3965 -0.1128 -0.4093
 2119poe    c2312460   0.105   6.274   3.311 -0.0509 -0.4704  0.5060
 2119poe     o212461  -0.031   6.236   3.304  0.0257 -0.7813  0.6778
 2119poe    c2312462  -0.092   6.315   3.403  0.2406  0.3660 -0.0830
 2119poe    c2312463  -0.210   6.240   3.469  1.0321 -0.5207  0.3403
 2119poe     o212464  -0.152   6.112   3.480  0.4033 -0.8533 -0.1872
 2119poe    c2312465  -0.234   6.024   3.553  0.3949 -0.2334  0.5643
 2119poe    c2312466  -0.163   5.888   3.544 -0.2225 -0.5364  0.1995
 2119poe     o212467  -0.092   5.876   3.423  0.3597  0.2568  0.4525
 2119poe    c3112468  -0.088   5.736   3.404  1.0034  0.3303  0.0303
 2120poe    c3112469   2.305   1.859   4.785 -0.0726 -0.4817 -0.4067
 2120poe     o212470   2.363   1.986   4.764 -0.5106 -0.2391 -0.1862
 2120poe    c2312471   2.289   2.092   4.818 -0.4475 -0.2123 -0.1517
 2120poe    c2312472   2.308   2.220   4.734  0.1469 -0.0982  0.1531
 2120poe     o212473   2.445   2.234   4.705  0.0768 -0.4917 -0.3678
 2120poe    c2312474   2.483   2.357   4.648 -0.0501 -0.1232  0.3348
 2120poe    c2312475   2.636   2.370   4.667 -0.1182  0.2826  0.6160
 2120poe     o212476   2.694   2.273   4.583  0.2207  0.8210  0.2146
 2120poe    c2312477   2.832   2.281   4.556  0.3906 -0.4021  0.6381
 2120poe    c2312478   2.884   2.176   4.457 -0.3244 -0.3607  0.2142
 2120poe     o212479   2.869   2.043   4.503 -0.1374 -0.4881 -0.0885
 2120poe    c3112480   2.939   1.954   4.418 -0.2313 -0.1112 -0.5633
 2121poe    c3112481   0.923   5.751   1.599  0.6513  0.6025  0.0215
 2121poe     o212482   0.835   5.858   1.627 -0.0270  0.1967 -0.5312
 2121poe    c2312483   0.704   5.807   1.620  0.0084 -0.0138  0.2768
 2121poe    c2312484   0.605   5.876   1.716 -0.5617 -0.6607  0.1618
 2121poe     o212485   0.557   6.001   1.674 -0.2197 -0.4139  0.4901
 2121poe    c2312486   0.455   6.040   1.763 -0.3222  0.3592  0.0450
 2121poe    c2312487   0.378   6.170   1.734 -0.6107  0.1230 -0.2552
 2121poe     o212488   0.459   6.286   1.729 -0.0234 -0.2752 -0.1006
 2121poe    c2312489   0.399   6.413   1.743  0.4756 -0.0055 -0.4189
 2121poe    c2312490   0.492   6.536   1.749 -0.1762  0.4761 -0.1415
 2121poe     o212491   0.551   6.567   1.874  1.0887 -0.3780 -0.5051
 2121poe    c3112492   0.649   6.668   1.876  0.4251  0.2810 -0.6037
 2122poe    c3112493   5.952   1.976   4.874 -0.0728 -0.5903  0.6684
 2122poe     o212494   6.002   1.904   4.763 -0.3088  0.0858  0.1168
 2122poe    c2312495   5.907   1.878   4.663 -0.3060  0.1191  0.1060
 2122poe    c2312496   5.826   1.748   4.683  0.1631 -0.2675 -0.4366
 2122poe     o212497   5.897   1.627   4.690  0.1758 -0.2063  0.8514
 2122poe    c2312498   5.811   1.522   4.727 -0.5132  0.1169  0.2121
 2122poe    c2312499   5.889   1.389   4.730 -0.4877  0.1396  0.6152
 2122poe     o212500   6.018   1.416   4.781  0.1465 -0.5238 -0.5910
 2122poe    c2312501   6.065   1.311   4.863  0.0263 -0.1281 -0.0102
 2122poe    c2312502   6.216   1.288   4.841  0.0219  0.0441 -0.2278
 2122poe     o212503   6.290   1.382   4.916 -0.4899  0.4734 -0.2505
 2122poe    c3112504   6.411   1.317   4.949 -0.7555 -0.1983 -0.5890
 2123poe    c3112505   2.535   5.926   1.102  0.0971 -0.8036  1.1716
 2123poe     o212506   2.423   6.010   1.114  0.4113 -0.0429 -0.7533
 2123poe    c2312507   2.307   5.931   1.098  0.1622  0.1161  0.1731
 2123poe    c2312508   2.183   6.020   1.123 -0.4735 -0.6852 -0.0847
 2123poe     o212509   2.173   6.093   1.243  0.4535 -0.4708 -0.1271
 2123poe    c2312510   2.073   6.190   1.221  0.1997 -0.6276  0.3198
 2123poe    c2312511   2.062   6.290   1.337 -0.2923 -0.1432 -0.1391
 2123poe     o212512   2.196   6.327   1.360 -0.5461  0.6637  0.0669
 2123poe    c2312513   2.206   6.442   1.442  0.5234  0.4810  0.2063
 2123poe    c2312514   2.353   6.457   1.484  0.4438  0.5613  0.4577
 2123poe     o212515   2.410   6.352   1.557  0.1989  0.1399  0.0468
 2123poe    c3112516   2.518   6.407   1.630 -0.0911  0.3788  0.2971
 2124poe    c3112517   0.613   2.035   2.141 -0.4747 -0.0338 -0.1482
 2124poe     o212518   0.710   2.098   2.061  0.3061 -0.8380  0.1456
 2124poe    c2312519   0.710   2.239   2.074  0.2940 -0.8650  0.4429
 2124poe    c2312520   0.823   2.295   1.986  0.0704 -0.3701  0.4662
 2124poe     o212521   0.949   2.270   2.043  0.3994  0.0441 -0.0768
 2124poe    c2312522   1.038   2.329   1.950 -0.2515  1.0644 -0.0613
 2124poe    c2312523   1.164   2.380   2.023 -0.6558  0.1683  1.3191
 2124poe     o212524   1.212   2.285   2.115  0.3476 -0.3648  0.2742
 2124poe    c2312525   1.317   2.332   2.196  0.3107  0.4221 -0.1231
 2124poe    c2312526   1.350   2.220   2.296 -0.7754  0.0550 -0.1651
 2124poe     o212527   1.315   2.094   2.242 -0.1517 -0.0119 -0.4181
 2124poe    c3112528   1.380   1.988   2.309  0.2847  0.2388 -0.4408
 2125poe    c3112529   2.897   5.266   4.915  0.1248 -0.2920 -0.0896
 2125poe     o212530   2.947   5.138   4.946  0.3967 -0.2750 -0.4469
 2125poe    c2312531   2.965   5.063   4.828  0.0170 -0.1155 -0.6056
 2125poe    c2312532   2.976   4.915   4.870 -1.0989 -0.1521 -0.4154
 2125poe     o212533   3.045   4.915   4.993 -0.0515 -0.0857 -0.9933
 2125poe    c2312534   3.059   4.791   5.058  0.5126  0.3240 -0.3277
 2125poe    c2312535   3.098   4.814   5.206 -0.1301  0.1655 -0.1302
 2125poe     o212536   3.014   4.900   5.279 -0.2201 -0.1145  0.0960
 2125poe    c2312537   3.000   4.869   5.416 -0.2377 -0.3316  0.0456
 2125poe    c2312538   2.937   4.982   5.498  0.2527  0.0075 -0.0416
 2125poe     o212539   2.809   5.012   5.446  0.3519  0.0719 -0.2490
 2125poe    c3112540   2.747   5.120   5.513  0.6853 -0.1732  0.4688
 2126poe    c3112541   2.152   6.904   7.115 -0.8172 -0.1216  0.6008
 2126poe     o212542   2.046   6.841   7.184 -0.4363 -0.8844  0.5050
 2126poe    c2312543   1.946   6.937   7.211  0.1900 -0.0123 -0.1999
 2126poe    c2312544   1.822   6.866   7.268  0.5436 -0.2678  0.2611
 2126poe     o212545   1.842   6.799   7.390  0.4705  0.2082  0.5377
 2126poe    c2312546   1.716   6.782   7.450  0.1187 -0.1268 -0.2821
 2126poe    c2312547   1.727   6.817   7.600  0.5574 -0.3166 -0.2700
 2126poe     o212548   1.767   6.952   7.607 -0.1458 -0.1167 -0.0544
 2126poe    c2312549   1.846   6.959   7.724 -0.5599 -0.2571  0.2360
 2126poe    c2312550   1.940   7.080   7.714 -0.2848 -0.4870 -0.0039
 2126poe     o212551   1.896   7.214   7.703 -0.1499 -0.4883 -0.5978
 2126poe    c3112552   1.996   7.292   7.764 -1.3479  0.3492  0.3540
 2127poe    c3112553   5.970   0.768   2.705 -0.0198 -0.5303  0.0335
 2127poe     o212554   6.056   0.749   2.595  0.0315  0.0209 -0.0236
 2127poe    c2312555   6.116   0.621   2.593  0.3351  0.1617  0.0093
 2127poe    c2312556   6.155   0.581   2.449  0.5033 -0.2841  0.1783
 2127poe     o212557   6.208   0.704   2.404  0.1544 -0.0363  0.4414
 2127poe    c2312558   6.251   0.694   2.271 -0.6240  0.4405  0.1455
 2127poe    c2312559   6.304   0.834   2.234 -0.5029  0.4146  0.2206
 2127poe     o212560   6.193   0.919   2.222 -0.4897  0.4485  0.3412
 2127poe    c2312561   6.225   1.056   2.206  0.5638  0.2373  0.6287
 2127poe    c2312562   6.244   1.113   2.065 -0.4579  0.1267  0.4413
 2127poe     o212563   6.133   1.100   1.979 -0.0474  1.0244 -0.2535
 2127poe    c3112564   6.172   1.130   1.847 -0.0524 -0.0356 -0.5047
 2128poe    c3112565   0.787   6.323   1.929  0.5986  0.1087 -0.7612
 2128poe     o212566   0.763   6.220   2.022  0.0469  0.9393  0.0433
 2128poe    c2312567   0.647   6.241   2.099 -0.3332 -0.4342 -0.1212
 2128poe    c2312568   0.637   6.148   2.221 -0.0225  0.4387  0.5810
 2128poe     o212569   0.744   6.137   2.313  0.5542 -0.2756 -0.1612
 2128poe    c2312570   0.772   6.258   2.381 -1.0312  0.1450 -0.2138
 2128poe    c2312571   0.749   6.226   2.529  0.2729 -0.2419 -0.0776
 2128poe     o212572   0.794   6.094   2.551 -0.3358 -0.4422  0.0118
 2128poe    c2312573   0.821   6.085   2.689  0.5056 -0.1886 -0.1285
 2128poe    c2312574   0.836   5.934   2.714 -0.5987 -0.2982 -0.0910
 2128poe     o212575   0.902   5.869   2.607 -0.1552 -0.0515  0.0329
 2128poe    c3112576   0.925   5.732   2.628  0.1433 -0.0085 -0.0072
 2129poe    c3112577   3.065   1.689   1.736 -0.6605  0.1941 -0.0415
 2129poe     o212578   3.020   1.684   1.602 -0.2553  0.0278 -0.1745
 2129poe    c2312579   2.880   1.704   1.597 -0.2245  0.2286 -0.2427
 2129poe    c2312580   2.841   1.756   1.458 -0.9430  0.4268  0.0258
 2129poe     o212581   2.930   1.690   1.370 -0.6352  0.6481  0.1688
 2129poe    c2312582   2.897   1.733   1.240 -0.4869 -0.4573 -0.2468
 2129poe    c2312583   2.991   1.657   1.145  0.2224 -0.6577  0.6029
 2129poe     o212584   3.126   1.691   1.168  0.1442  0.0454  0.0620
 2129poe    c2312585   3.208   1.617   1.080  0.5486  0.4836  0.0695
 2129poe    c2312586   3.346   1.591   1.144  0.4450  0.4263  0.2708
 2129poe     o212587   3.344   1.496   1.248 -0.1726  0.0011 -0.1226
 2129poe    c3112588   3.466   1.483   1.316 -0.3744 -0.4378  0.1634
 2130poe    c3112589   6.458   2.974   6.135  0.0553 -0.6167  0.2017
 2130poe     o212590   6.366   3.054   6.064 -0.1074 -0.8244  0.1783
 2130poe    c2312591   6.401   3.088   5.932 -0.2762  0.4458  0.4528
 2130poe    c2312592   6.288   3.174   5.871 -0.0017  0.4092 -0.1134
 2130poe     o212593   6.255   3.289   5.945  0.2371  0.4153 -0.0164
 2130poe    c2312594   6.174   3.367   5.860 -0.5730 -0.3209  0.0696
 2130poe    c2312595   6.156   3.509   5.916  0.2236  0.1649 -0.8851
 2130poe     o212596   6.280   3.573   5.936  0.2757  0.1157 -1.0496
 2130poe    c2312597   6.265   3.712   5.957 -0.1786 -0.0826  0.0101
 2130poe    c2312598   6.394   3.778   6.007  0.3330 -0.7435 -0.4151
 2130poe     o212599   6.423   3.750   6.142  0.7745 -0.2602 -0.4015
 2130poe    c3112600   6.532   3.836   6.167  0.3558  0.0496  0.4117
 2131poe    c3112601   2.515   2.801   5.698 -0.1759  1.0425  0.7594
 2131poe     o212602   2.508   2.725   5.816  0.7769 -0.4308 -0.1042
 2131poe    c2312603   2.373   2.689   5.836  0.3953  1.2334  0.4899
 2131poe    c2312604   2.368   2.599   5.961 -0.3905 -0.0471 -0.4393
 2131poe     o212605   2.467   2.499   5.946  0.1045  0.3221  0.3211
 2131poe    c2312606   2.459   2.414   6.058 -0.3205  0.2469  0.2383
 2131poe    c2312607   2.564   2.302   6.042 -0.1454  0.3477  0.6462
 2131poe     o212608   2.692   2.358   6.022  0.1704 -0.2185  1.0650
 2131poe    c2312609   2.794   2.269   5.983 -0.4399 -0.3152 -0.4098
 2131poe    c2312610   2.926   2.346   5.966 -0.7891  0.3945  0.0502
 2131poe     o212611   2.910   2.428   5.852 -0.2574  0.4489  0.0127
 2131poe    c3112612   3.022   2.498   5.802 -0.0974  0.0123 -0.2465
 2132poe    c3112613   5.509   0.091   2.119  0.3472  0.0435 -0.1554
 2132poe     o212614   5.472   0.219   2.164  0.0225 -0.1149  0.0328
 2132poe    c2312615   5.481   0.214   2.305 -0.5683 -0.7849  0.0557
 2132poe    c2312616   5.405   0.343   2.341  0.1487 -0.2835 -0.1920
 2132poe     o212617   5.281   0.346   2.274  0.4439  0.0988 -0.7334
 2132poe    c2312618   5.203   0.460   2.302 -0.1719 -0.6867  0.9120
 2132poe    c2312619   5.079   0.439   2.214  0.1334 -0.2282  0.3651
 2132poe     o212620   5.126   0.391   2.090 -0.4145 -0.3526  0.2029
 2132poe    c2312621   5.036   0.294   2.040 -0.1523 -0.3898 -0.1976
 2132poe    c2312622   5.106   0.226   1.921 -0.1237 -0.5265 -0.1021
 2132poe     o212623   5.233   0.191   1.970  0.0267 -0.1181 -0.1956
 2132poe    c3112624   5.278   0.075   1.903 -0.1675 -0.0677 -0.4110
 2133poe    c3112625   0.139   3.004   1.464  0.3950 -0.4955  0.0674
 2133poe     o212626   0.204   2.883   1.433  0.0080 -0.5357 -0.6044
 2133poe    c2312627   0.178   2.774   1.518 -0.1556 -0.1023 -0.0901
 2133poe    c2312628   0.261   2.653   1.471 -0.5143 -0.4023  0.0388
 2133poe     o212629   0.391   2.672   1.521 -0.4742 -0.1679 -0.1524
 2133poe    c2312630   0.477   2.564   1.491 -0.1516  0.1177 -0.2657
 2133poe    c2312631   0.483   2.454   1.598 -0.5287  0.1901 -0.1656
 2133poe     o212632   0.521   2.337   1.530 -0.8869 -0.1482  0.2128
 2133poe    c2312633   0.597   2.273   1.629 -0.1684 -0.3774 -0.4729
 2133poe    c2312634   0.631   2.126   1.597  0.0360 -0.4703  0.1490
 2133poe     o212635   0.516   2.047   1.615 -0.0527 -0.4014 -0.1103
 2133poe    c3112636   0.537   1.929   1.542  0.4239 -0.5400  0.2459
 2134poe    c3112637   3.683   2.457   2.619 -0.7997 -0.1521 -0.0985
 2134poe     o212638   3.713   2.404   2.491 -0.1131 -0.1628  0.0600
 2134poe    c2312639   3.687   2.267   2.473  0.1994 -0.2418  0.2099
 2134poe    c2312640   3.694   2.230   2.323 -0.3820 -0.1185  0.1516
 2134poe     o212641   3.826   2.225   2.274 -0.3618  0.0695  0.1890
 2134poe    c2312642   3.829   2.214   2.134  1.1566 -0.0911  0.2157
 2134poe    c2312643   3.956   2.279   2.077  0.1689  0.9451 -0.8717
 2134poe     o212644   3.965   2.412   2.123 -0.5358  0.7045 -0.0276
 2134poe    c2312645   4.086   2.465   2.075 -0.2698  0.3626  0.2564
 2134poe    c2312646   4.103   2.606   2.136  0.2561  0.4589 -0.1065
 2134poe     o212647   3.979   2.670   2.152  0.0791  0.0246  0.2952
 2134poe    c3112648   3.982   2.766   2.256  1.0412  0.2126  0.1053
 2135poe    c3112649   5.572   0.823   6.838 -0.0778 -0.0060 -0.2657
 2135poe     o212650   5.618   0.773   6.715  0.3146 -0.1116 -0.0787
 2135poe    c2312651   5.724   0.848   6.661  0.2646  0.2184  0.2837
 2135poe    c2312652   5.823   0.748   6.599 -0.6302 -0.8843  0.6092
 2135poe     o212653   5.751   0.650   6.527 -0.4624 -0.4220 -0.1993
 2135poe    c2312654   5.816   0.526   6.512 -0.0761 -0.2377 -0.0448
 2135poe    c2312655   5.728   0.440   6.420  0.0989 -0.4240 -0.0383
 2135poe     o212656   5.605   0.441   6.489  0.4451 -0.0508  0.5897
 2135poe    c2312657   5.518   0.364   6.408  0.2618  0.5926  0.1631
 2135poe    c2312658   5.413   0.283   6.486  0.6758 -0.2686 -0.1612
 2135poe     o212659   5.353   0.373   6.576  0.5078 -0.3332 -0.2080
 2135poe    c3112660   5.253   0.319   6.659  0.8467  0.1258  0.5053
 2136poe    c3112661   6.941   5.259   5.229 -0.1749  0.0975 -0.0682
 2136poe     o212662   6.804   5.292   5.220 -0.2215  0.0261  0.3497
 2136poe    c2312663   6.795   5.396   5.125  0.2658 -0.2063  0.0430
 2136poe    c2312664   6.643   5.400   5.098  0.2569 -0.3034  0.0761
 2136poe     o212665   6.569   5.377   5.215 -0.0154 -0.2608 -0.0875
 2136poe    c2312666   6.528   5.495   5.280 -0.0728 -0.3310  0.0043
 2136poe    c2312667   6.491   5.444   5.420  0.0252  1.2231  0.6174
 2136poe     o212668   6.594   5.352   5.448 -0.5147  0.4563  0.1450
 2136poe    c2312669   6.585   5.284   5.571  0.0903 -0.7501 -0.4586
 2136poe    c2312670   6.704   5.188   5.579  0.5982 -0.0905  0.0330
 2136poe     o212671   6.724   5.138   5.448 -0.2348  0.2419 -0.2261
 2136poe    c3112672   6.822   5.036   5.448 -0.6120 -0.1259 -0.0981
 2137poe    c3112673   1.376   3.227   5.322 -0.2123 -0.0016 -0.0278
 2137poe     o212674   1.375   3.151   5.204 -0.0046  0.3844 -0.2802
 2137poe    c2312675   1.246   3.123   5.155  0.0292 -0.4317  0.0723
 2137poe    c2312676   1.244   3.040   5.025 -0.1109  0.1916 -0.3283
 2137poe     o212677   1.313   3.109   4.923  0.1621 -0.2448 -0.4392
 2137poe    c2312678   1.308   3.041   4.799 -0.6537 -0.1738 -0.4460
 2137poe    c2312679   1.345   3.147   4.694 -0.1966  0.3220  0.2084
 2137poe     o212680   1.476   3.181   4.734  0.2344 -0.5998 -0.3994
 2137poe    c2312681   1.542   3.242   4.625  0.3141 -0.1074 -0.0770
 2137poe    c2312682   1.672   3.291   4.692  0.0817  0.7760 -0.2668
 2137poe     o212683   1.626   3.359   4.806 -0.1368 -0.2492  0.2666
 2137poe    c3112684   1.706   3.472   4.832 -0.1011 -0.1513 -0.2685
 2138poe    c3112685   6.114   4.482   2.085  0.2274 -0.3558 -0.6387
 2138poe     o212686   5.988   4.454   2.142  0.5632  0.5456  0.5966
 2138poe    c2312687   5.940   4.541   2.242 -0.1141  0.9000 -0.0333
 2138poe    c2312688   5.855   4.664   2.205 -0.2555  0.8262  0.0465
 2138poe     o212689   5.920   4.754   2.118 -0.7049  0.4836 -0.6516
 2138poe    c2312690   5.863   4.882   2.136 -0.2566  0.5754  0.1250
 2138poe    c2312691   5.923   4.977   2.031  0.0415  0.0800 -0.1561
 2138poe     o212692   5.908   4.949   1.894 -0.3571  0.2691 -0.1530
 2138poe    c2312693   5.969   5.047   1.815 -0.3442 -0.1649 -0.6873
 2138poe    c2312694   6.098   4.998   1.746  0.3845  0.5200  0.1564
 2138poe     o212695   6.205   4.971   1.834 -0.0274 -0.6059  0.3403
 2138poe    c3112696   6.284   4.889   1.751  0.1421 -0.0392 -0.0686
 2139poe    c3112697   0.031   5.684   1.887 -0.2681  0.0268  0.0268
 2139poe     o212698   0.089   5.783   1.969 -0.3199  0.1190 -0.0469
 2139poe    c2312699   0.229   5.796   1.958 -0.2642 -0.2024  0.2404
 2139poe    c2312700   0.300   5.854   2.081 -0.5057  0.2432  0.1698
 2139poe     o212701   0.267   5.992   2.079 -0.2580  0.3012 -0.0227
 2139poe    c2312702   0.240   6.038   2.210 -0.3300 -0.6404  0.3047
 2139poe    c2312703   0.163   6.171   2.196 -0.2417 -0.6696 -0.5412
 2139poe     o212704   0.023   6.160   2.200 -0.2932  0.1057  0.0005
 2139poe    c2312705  -0.026   6.289   2.227 -1.0045 -0.1391 -0.0908
 2139poe    c2312706  -0.180   6.282   2.230 -1.0030 -0.0826  0.1136
 2139poe     o212707  -0.211   6.224   2.106  0.5852 -0.1612 -0.2646
 2139poe    c3112708  -0.349   6.238   2.085  0.5715 -0.2597 -0.2426
 2140poe    c3112709   0.394   5.516   4.857  0.5081 -0.2922 -0.0914
 2140poe     o212710   0.324   5.637   4.873  0.1552 -0.4677 -0.2932
 2140poe    c2312711   0.184   5.642   4.855  0.0766 -0.0178  0.4093
 2140poe    c2312712   0.124   5.732   4.965  0.9773  0.6767  0.3399
 2140poe     o212713   0.097   5.638   5.066  0.3279  0.1119 -0.3524
 2140poe    c2312714   0.003   5.683   5.161  0.4940 -0.0785 -0.0962
 2140poe    c2312715   0.003   5.595   5.287 -0.5661  0.0475  0.0047
 2140poe     o212716   0.130   5.588   5.350 -0.3859  0.0194 -0.3602
 2140poe    c2312717   0.113   5.496   5.455  0.0698  0.3577  0.0116
 2140poe    c2312718   0.248   5.477   5.527 -0.0420 -0.3484  0.0429
 2140poe     o212719   0.348   5.483   5.428  0.0227  0.4765  0.1519
 2140poe    c3112720   0.470   5.426   5.469 -0.0113  0.3551  0.0853
 2141poe    c3112721   5.835   2.598   5.638  0.5078  1.0032 -0.2904
 2141poe     o212722   5.810   2.558   5.505 -0.3153 -0.0887  0.1760
 2141poe    c2312723   5.927   2.527   5.432 -0.4540  0.0314 -0.0992
 2141poe    c2312724   5.912   2.426   5.317 -0.4663  0.0470 -0.1114
 2141poe     o212725   5.807   2.480   5.241 -0.1154  0.6026 -0.2089
 2141poe    c2312726   5.767   2.403   5.130  0.5048  0.4847 -0.3529
 2141poe    c2312727   5.717   2.492   5.015  0.0176  0.2193 -0.3519
 2141poe     o212728   5.594   2.552   5.048  0.2306  0.3791  0.1682
 2141poe    c2312729   5.603   2.687   5.008 -0.0824  0.2828 -0.2415
 2141poe    c2312730   5.474   2.758   5.054  0.0818  0.1887  0.3713
 2141poe     o212731   5.505   2.835   5.168  0.3498  0.8434 -0.1391
 2141poe    c3112732   5.406   2.935   5.178 -0.5199 -0.0364  0.2584
 2142poe    c3112733   3.604   4.418   6.003 -0.6565  0.3799 -0.2645
 2142poe     o212734   3.648   4.529   6.077 -0.1567  0.1859 -0.2626
 2142poe    c2312735   3.730   4.615   6.001  0.3806 -0.3669 -0.3172
 2142poe    c2312736   3.666   4.755   5.994  0.3557 -0.3100  0.7631
 2142poe     o212737   3.639   4.817   6.117  0.0031  0.5038  0.2881
 2142poe    c2312738   3.530   4.906   6.122 -0.2422  0.2074  0.2331
 2142poe    c2312739   3.460   4.877   6.256 -0.2461  0.2228  0.2347
 2142poe     o212740   3.548   4.877   6.367 -0.0838 -0.0458  0.1070
 2142poe    c2312741   3.468   4.864   6.482  0.0207 -0.0119  0.1837
 2142poe    c2312742   3.564   4.905   6.595 -0.0435 -0.3740  0.3724
 2142poe     o212743   3.679   4.825   6.578  0.0007 -0.2344  0.0127
 2142poe    c3112744   3.774   4.841   6.680 -0.3555 -0.3906  0.3725
 2143poe    c3112745   3.422   3.681   6.913  0.2284  0.7302  0.3525
 2143poe     o212746   3.466   3.811   6.944  0.1118  0.8953 -0.1544
 2143poe    c2312747   3.433   3.857   7.073  0.6362 -0.2610  0.4071
 2143poe    c2312748   3.505   3.987   7.115  0.1423  0.0504  0.2969
 2143poe     o212749   3.475   4.100   7.035  0.6375  0.1194  0.2012
 2143poe    c2312750   3.538   4.220   7.073 -0.1422  0.4938  0.3485
 2143poe    c2312751   3.512   4.329   6.968  0.1384  0.3275  0.1048
 2143poe     o212752   3.549   4.290   6.838 -0.0305 -0.1433  0.1970
 2143poe    c2312753   3.523   4.404   6.759 -0.0388 -0.4141 -0.1951
 2143poe    c2312754   3.584   4.390   6.618  0.2072 -0.0546 -0.1255
 2143poe     o212755   3.548   4.261   6.573 -0.0197  0.0173 -0.1501
 2143poe    c3112756   3.524   4.258   6.434  0.1933 -0.2851 -0.1803
 2144poe    c3112757   4.585   0.004   1.119 -0.1431 -0.1667  0.4690
 2144poe     o212758   4.649   0.123   1.079 -0.6079 -0.0520  0.0623
 2144poe    c2312759   4.692   0.102   0.946  0.2884 -0.0490  0.3447
 2144poe    c2312760   4.742   0.242   0.906 -0.5589  0.2443  0.2785
 2144poe     o212761   4.852   0.263   0.992 -0.2050  0.6870 -0.2724
 2144poe    c2312762   4.935   0.368   0.948  0.4761  0.2673  0.0013
 2144poe    c2312763   5.074   0.352   1.014  0.6262  0.5681 -0.2393
 2144poe     o212764   5.072   0.355   1.155  0.3965  0.2807 -0.2347
 2144poe    c2312765   5.078   0.486   1.206 -0.6806  0.1249  0.3199
 2144poe    c2312766   5.046   0.506   1.355 -0.6400 -1.0813  0.4977
 2144poe     o212767   4.907   0.497   1.373 -0.6526  0.0012  1.0478
 2144poe    c3112768   4.877   0.548   1.501  0.3938  0.6665  1.0377
 2145poe    c3112769   2.735   3.788   2.865  0.0039  0.4275 -0.0640
 2145poe     o212770   2.725   3.665   2.933  0.4572  0.4364  0.0156
 2145poe    c2312771   2.842   3.604   2.985  0.3151 -0.3051 -0.5105
 2145poe    c2312772   2.803   3.462   3.029 -0.4216 -0.2925 -1.1132
 2145poe     o212773   2.674   3.479   3.085 -0.1389  0.2233 -0.6125
 2145poe    c2312774   2.613   3.352   3.088 -0.3929  0.3628  0.1510
 2145poe    c2312775   2.493   3.358   3.185 -0.2655 -0.2517  0.3437
 2145poe     o212776   2.406   3.463   3.152  0.2019  0.0871  0.1741
 2145poe    c2312777   2.301   3.465   3.246  0.0503  0.3052  0.0030
 2145poe    c2312778   2.201   3.581   3.255 -0.2273  0.0746 -0.0888
 2145poe     o212779   2.279   3.698   3.270 -0.2664  0.1477 -0.4594
 2145poe    c3112780   2.191   3.807   3.256  0.0922  0.4049 -0.7167
 2146poe    c3112781   4.183   6.203   5.304 -0.1410  0.8029  0.0864
 2146poe     o212782   4.324   6.200   5.299 -0.1707  0.0635 -0.3602
 2146poe    c2312783   4.380   6.319   5.249  0.1208 -0.0533 -0.3129
 2146poe    c2312784   4.531   6.341   5.268  0.0457 -0.2973  0.5914
 2146poe     o212785   4.617   6.269   5.182  0.2496  0.2659  0.3234
 2146poe    c2312786   4.750   6.315   5.170  0.2874  0.0983  0.1029
 2146poe    c2312787   4.828   6.186   5.139  0.2362  0.1510 -0.2568
 2146poe     o212788   4.796   6.129   5.014  0.0952 -0.2631 -0.0327
 2146poe    c2312789   4.894   6.029   4.998  0.1408 -0.2045 -0.1207
 2146poe    c2312790   4.856   5.945   4.875 -0.4736  0.7161 -0.5697
 2146poe     o212791   4.732   5.877   4.882 -0.0728  0.0699  0.5796
 2146poe    c3112792   4.721   5.804   4.761  0.3606 -0.5706  0.9191
 2147poe    c3112793   1.396   0.200   2.274 -0.2624  0.1844 -0.2531
 2147poe     o212794   1.501   0.288   2.240 -0.0736  0.1516  0.2355
 2147poe    c2312795   1.484   0.401   2.322 -0.6419  0.4083 -0.2268
 2147poe    c2312796   1.610   0.489   2.337  0.0290 -0.5850  0.1313
 2147poe     o212797   1.608   0.569   2.221 -0.6057  0.2847  0.7174
 2147poe    c2312798   1.684   0.687   2.230  0.8379 -0.5896  0.4480
 2147poe    c2312799   1.716   0.711   2.081 -0.1392 -0.0128  0.3225
 2147poe     o212800   1.604   0.715   1.996  0.3402 -0.2057 -0.3231
 2147poe    c2312801   1.652   0.759   1.871  0.5244 -0.2096 -0.2529
 2147poe    c2312802   1.551   0.753   1.755 -0.2821  0.6253  0.3853
 2147poe     o212803   1.494   0.624   1.765  0.0588  0.4808  0.5062
 2147poe    c3112804   1.428   0.597   1.644 -0.1698 -0.1553  0.7696
 2148poe    c3112805   2.199   3.153   0.134  0.0930  0.1973 -0.5913
 2148poe     o212806   2.063   3.168   0.168  0.0103 -0.0937 -0.7908
 2148poe    c2312807   1.979   3.220   0.067 -0.3522  0.4973 -0.1916
 2148poe    c2312808   1.828   3.200   0.091 -0.0657 -0.3218  1.0195
 2148poe     o212809   1.802   3.061   0.086 -0.5682 -0.1941 -0.4883
 2148poe    c2312810   1.681   3.023   0.147 -0.5193  0.0494 -0.2369
 2148poe    c2312811   1.674   2.870   0.161 -0.4952  0.0012 -0.7402
 2148poe     o212812   1.749   2.815   0.267 -1.0410 -0.2283 -0.4667
 2148poe    c2312813   1.757   2.675   0.252 -0.0511 -0.2095 -0.2059
 2148poe    c2312814   1.846   2.611   0.360  0.0490  0.2806  0.0079
 2148poe     o212815   1.942   2.708   0.395  0.4521 -0.1136  0.0069
 2148poe    c3112816   2.048   2.649   0.466 -0.2231 -0.4420  0.7699
 2149poe    c3112817   4.181   1.913   5.010  0.3614 -0.2681 -0.7450
 2149poe     o212818   4.317   1.886   4.986  0.4891  0.1982 -0.5536
 2149poe    c2312819   4.323   1.777   4.897 -0.1373  0.0291 -0.3870
 2149poe    c2312820   4.466   1.724   4.879  0.0486  0.1718  0.5961
 2149poe     o212821   4.547   1.823   4.819 -0.1149 -0.0047  0.0746
 2149poe    c2312822   4.672   1.760   4.800  0.2990  0.7071  0.4283
 2149poe    c2312823   4.752   1.828   4.687 -0.3189 -0.1063 -0.5082
 2149poe     o212824   4.745   1.959   4.738 -0.4581 -0.3397  0.0779
 2149poe    c2312825   4.773   2.038   4.625 -0.4596  0.0555  0.3472
 2149poe    c2312826   4.761   2.182   4.678 -0.3341  0.1949  0.0008
 2149poe     o212827   4.647   2.201   4.759 -0.9715 -0.4513 -0.7239
 2149poe    c3112828   4.610   2.333   4.792 -0.1757 -0.3157 -0.3718
 2150poe    c3112829   2.956   2.320   1.006  0.7531  0.2863  0.2445
 2150poe     o212830   3.030   2.382   1.108 -0.0447  1.1316  0.3308
 2150poe    c2312831   2.962   2.337   1.223 -0.3421  0.4449 -0.1055
 2150poe    c2312832   2.963   2.430   1.346 -0.1768  0.0787  0.1709
 2150poe     o212833   2.907   2.551   1.301  0.2959  0.0088 -0.6129
 2150poe    c2312834   2.784   2.580   1.362  0.3740  0.0033 -0.4506
 2150poe    c2312835   2.700   2.664   1.263  0.1137 -0.4168 -0.5911
 2150poe     o212836   2.610   2.600   1.176 -0.6181  0.5666 -0.5713
 2150poe    c2312837   2.491   2.555   1.238 -0.2397 -0.1801 -0.3771
 2150poe    c2312838   2.403   2.493   1.128 -0.6151  0.0707 -0.2186
 2150poe     o212839   2.358   2.582   1.029 -0.3656  0.2866 -0.1406
 2150poe    c3112840   2.291   2.521   0.920  0.1981 -0.3586 -0.1312
 2151poe    c3112841   0.939   0.056   2.421 -0.0680  0.6874 -0.3151
 2151poe     o212842   0.812   0.098   2.464 -0.0068  0.0843  0.4982
 2151poe    c2312843   0.727  -0.011   2.435  0.3406 -0.0290 -0.1159
 2151poe    c2312844   0.587   0.027   2.485  0.3339  0.0846 -0.2208
 2151poe     o212845   0.583   0.168   2.487 -0.0049  0.0743  0.0326
 2151poe    c2312846   0.477   0.233   2.554 -0.1790 -0.3315  0.1540
 2151poe    c2312847   0.503   0.384   2.556  0.2368 -0.3937 -0.1890
 2151poe     o212848   0.634   0.425   2.586  0.0698  0.1449 -0.1716
 2151poe    c2312849   0.636   0.563   2.614 -0.2371  0.1264 -0.0457
 2151poe    c2312850   0.757   0.602   2.701  0.4560 -0.1626 -0.8632
 2151poe     o212851   0.756   0.538   2.826  0.7058 -0.0337 -0.7943
 2151poe    c3112852   0.847   0.570   2.930 -0.1044  0.1336 -0.1233
 2152poe    c3112853   1.993   5.175   1.637 -0.0048  0.0663 -0.5317
 2152poe     o212854   2.044   5.253   1.531  0.2026  0.1479 -0.3738
 2152poe    c2312855   2.005   5.382   1.575  0.0285 -0.1564  0.3680
 2152poe    c2312856   2.045   5.496   1.479  0.1044 -0.2429  0.2953
 2152poe     o212857   1.989   5.477   1.351 -0.2181  0.1641  0.3721
 2152poe    c2312858   2.018   5.579   1.259  0.4145 -0.1429  0.2225
 2152poe    c2312859   1.942   5.555   1.127  0.7945  0.2838 -0.0787
 2152poe     o212860   1.960   5.421   1.087  0.0574  0.3143 -0.5273
 2152poe    c2312861   1.893   5.408   0.964  0.3982  0.1111 -0.6943
 2152poe    c2312862   1.916   5.262   0.921  0.6758 -0.1800  0.4187
 2152poe     o212863   1.862   5.178   1.021 -0.4787 -0.1185 -0.1357
 2152poe    c3112864   1.895   5.045   0.991 -0.5188 -0.1910  0.1346
 2153poe    c3112865   0.714   2.816   4.178 -0.0864  0.1042 -0.0703
 2153poe     o212866   0.808   2.830   4.074  0.2810 -0.1188  0.2313
 2153poe    c2312867   0.804   2.965   4.031  0.3026  0.1372  1.0201
 2153poe    c2312868   0.906   2.977   3.917 -0.8162  0.0544 -0.0005
 2153poe     o212869   0.995   2.872   3.946  0.0810  0.8252  0.0491
 2153poe    c2312870   1.113   2.876   3.869 -0.3117  0.2748 -0.5934
 2153poe    c2312871   1.198   2.752   3.904  0.1032  0.7464  0.0936
 2153poe     o212872   1.122   2.637   3.933  0.2939  0.3190 -1.0802
 2153poe    c2312873   1.202   2.526   3.898 -0.1069 -0.2544 -0.2001
 2153poe    c2312874   1.131   2.404   3.960 -0.3296 -0.0820 -0.1148
 2153poe     o212875   1.117   2.411   4.100 -0.0484 -0.3375 -0.0718
 2153poe    c3112876   1.159   2.290   4.158  0.0669 -0.0151  0.5257
 2154poe    c3112877   3.176   0.060   1.460 -0.3822 -0.3461  0.3059
 2154poe     o212878   3.225  -0.071   1.442  0.0234 -0.1718  0.1280
 2154poe    c2312879   3.260  -0.099   1.309  0.2631  0.5474  0.0353
 2154poe    c2312880   3.141  -0.160   1.232  0.5611  0.1535 -0.1176
 2154poe     o212881   3.083  -0.273   1.295  0.1116  0.4013 -0.0855
 2154poe    c2312882   2.951  -0.312   1.265  0.0016  0.3101  0.4985
 2154poe    c2312883   2.923  -0.428   1.362 -0.5814 -0.1096 -0.1632
 2154poe     o212884   3.029  -0.521   1.353 -0.4565  0.0671 -0.5377
 2154poe    c2312885   3.015  -0.628   1.443  0.1466  0.5231  0.1124
 2154poe    c2312886   3.149  -0.702   1.429 -0.1536 -0.1033  0.5027
 2154poe     o212887   3.256  -0.619   1.468  0.1299 -0.2473  0.0364
 2154poe    c3112888   3.379  -0.688   1.477  0.3412  0.1171 -0.0207
 2155poe    c3112889   1.095   5.051   1.684  0.5471  0.1589  0.3059
 2155poe     o212890   0.958   5.046   1.653  0.7068 -0.4963 -0.3403
 2155poe    c2312891   0.922   5.154   1.569  0.0204 -0.2354  0.2793
 2155poe    c2312892   0.770   5.156   1.543  0.1147 -0.0547 -0.2644
 2155poe     o212893   0.720   5.102   1.663 -0.0037 -0.2751 -0.4125
 2155poe    c2312894   0.594   5.162   1.681 -0.0472 -0.3304 -0.5312
 2155poe    c2312895   0.539   5.121   1.819  0.5237  0.4942 -0.0547
 2155poe     o212896   0.540   4.980   1.821  0.2851  0.4949  0.7551
 2155poe    c2312897   0.538   4.932   1.953  0.2980 -0.2104  0.5005
 2155poe    c2312898   0.523   4.781   1.982  0.0029 -0.2866 -0.0247
 2155poe     o212899   0.635   4.708   1.937  0.4255  0.2311  0.1761
 2155poe    c3112900   0.594   4.575   1.918 -0.3619  0.4532  0.2757
 2156poe    c3112901   4.834   1.179   6.805 -0.0862  0.1874 -0.1099
 2156poe     o212902   4.840   1.318   6.830  0.4939  0.0029  0.8021
 2156poe    c2312903   4.708   1.365   6.846  0.2898 -0.1696 -0.2877
 2156poe    c2312904   4.626   1.330   6.972 -0.7582  1.4664 -0.4891
 2156poe     o212905   4.693   1.371   7.089 -0.6591 -0.3801  0.1313
 2156poe    c2312906   4.624   1.354   7.211 -0.8284  0.2046  0.1177
 2156poe    c2312907   4.713   1.348   7.336  0.1010  0.0252 -0.5366
 2156poe     o212908   4.804   1.242   7.342  0.0219 -0.0050  0.4108
 2156poe    c2312909   4.919   1.272   7.417  0.1806  0.3375  0.0338
 2156poe    c2312910   5.037   1.173   7.406  0.4592  0.6578  0.1008
 2156poe     o212911   5.087   1.165   7.275  0.1669 -0.5996  0.0507
 2156poe    c3112912   5.148   1.042   7.244  0.9608 -0.0960 -0.4547
 2157poe    c3112913   7.046   6.417   6.159  0.2824  0.0896  0.2458
 2157poe     o212914   7.071   6.547   6.109  0.1600 -0.0274 -0.1239
 2157poe    c2312915   7.129   6.628   6.209 -0.1789  0.0278  0.0298
 2157poe    c2312916   7.184   6.765   6.164 -0.7748  0.2707  0.0397
 2157poe     o212917   7.088   6.850   6.106 -0.4806  0.7470  0.2502
 2157poe    c2312918   7.150   6.976   6.092 -0.2689  0.6695  0.4798
 2157poe    c2312919   7.093   7.045   5.966 -0.0662 -0.0826 -0.0325
 2157poe     o212920   7.146   6.998   5.845 -0.1369 -0.5270  0.1071
 2157poe    c2312921   7.124   7.094   5.744 -0.0302  0.0155  0.5994
 2157poe    c2312922   7.161   7.036   5.607 -0.5590  0.1986  0.3766
 2157poe     o212923   7.087   6.916   5.615 -0.6473  0.2576  0.4371
 2157poe    c3112924   7.069   6.859   5.487  0.3125  0.7362  0.0814
 2158poe    c3112925   1.168   3.641   5.588  0.1465  0.5893 -0.2213
 2158poe     o212926   1.114   3.640   5.458 -0.8109  0.1630  0.1704
 2158poe    c2312927   1.097   3.504   5.426 -0.7702  0.1062  0.3868
 2158poe    c2312928   1.080   3.469   5.277 -0.7455 -0.4517  0.5117
 2158poe     o212929   0.978   3.552   5.228 -0.2569 -0.0895  0.0907
 2158poe    c2312930   1.005   3.576   5.092 -0.4875 -0.6967 -0.0639
 2158poe    c2312931   0.910   3.688   5.046 -0.4013 -0.4503  0.3570
 2158poe     o212932   0.938   3.809   5.113  0.0424 -0.3958  0.0797
 2158poe    c2312933   0.872   3.912   5.043  0.2327 -0.3140  0.0213
 2158poe    c2312934   0.940   4.039   5.097 -0.4731 -0.0065  0.1944
 2158poe     o212935   0.960   4.039   5.236  0.1945  0.2082  0.0995
 2158poe    c3112936   1.011   4.166   5.271  0.3322  0.0583  0.4483
 2159poe    c3112937   2.482   4.327   3.798  0.2109  0.8843  0.1049
 2159poe     o212938   2.595   4.248   3.828  0.2687  0.9948  0.1817
 2159poe    c2312939   2.552   4.156   3.926 -0.0110  0.3164 -0.5658
 2159poe    c2312940   2.659   4.048   3.954  0.2903  0.5800 -0.6896
 2159poe     o212941   2.680   3.949   3.856  0.6224  0.3070 -0.3407
 2159poe    c2312942   2.777   3.849   3.882  0.1753 -0.0047  0.1383
 2159poe    c2312943   2.793   3.732   3.783 -0.5710  0.0402 -0.0410
 2159poe     o212944   2.835   3.767   3.653 -0.4122 -0.2518 -0.0680
 2159poe    c2312945   2.820   3.666   3.556 -0.8442  0.2877 -0.5668
 2159poe    c2312946   2.959   3.649   3.493 -0.5859  0.3241 -0.0151
 2159poe     o212947   3.004   3.773   3.442 -0.0226  0.2101  0.2013
 2159poe    c3112948   3.120   3.739   3.368 -0.1744  0.5423 -0.1896
 2160poe    c3112949   0.985   0.004   6.997  0.4131 -0.0559 -0.5631
 2160poe     o212950   1.074  -0.085   6.933  0.2834 -0.4214 -0.2402
 2160poe    c2312951   1.207  -0.060   6.973  0.0877 -0.0892  0.2090
 2160poe    c2312952   1.288  -0.154   6.883 -0.4283 -0.2638 -0.0741
 2160poe     o212953   1.258  -0.288   6.915  0.2605 -0.4077 -0.0229
 2160poe    c2312954   1.293  -0.385   6.819  0.3497 -0.6230  0.2244
 2160poe    c2312955   1.198  -0.506   6.828 -0.2836 -0.1406  0.1215
 2160poe     o212956   1.060  -0.478   6.839 -0.1131  0.8562 -0.2245
 2160poe    c2312957   0.985  -0.597   6.830  0.0071  0.7291  0.3764
 2160poe    c2312958   0.856  -0.555   6.757  0.0908 -0.1651 -0.2997
 2160poe     o212959   0.874  -0.541   6.618 -0.0721  0.1566 -0.2901
 2160poe    c3112960   0.752  -0.492   6.566 -0.2652  0.3929  0.3790
 2161lim     li12961   4.857   2.799   6.513 -0.1293 -0.0387 -0.4697
 2162lim     li12962   4.061   2.369   6.160  1.1714  0.0541 -0.2381
 2163lim     li12963   2.513   0.378   6.372 -0.6998  1.6176 -0.5893
 2164lim     li12964   3.256   2.967   3.229  0.2361  1.0030  0.1281
 2165lim     li12965   4.857   5.192   4.371  0.4794 -0.6493 -0.1840
 2166lim     li12966   0.077   5.196   6.292  0.0369 -0.3889 -0.1881
 2167lim     li12967   5.674   4.778   4.188  0.1547  0.5827 -0.5403
 2168lim     li12968   1.115   0.335   6.499 -0.0680 -0.2383 -0.1661
 2169lim     li12969   5.392   6.352   5.928  0.0557 -0.0658  0.6870
 2170lim     li12970   5.121   2.246   6.992 -0.2351 -0.1773 -0.2637
 2171lim     li12971   2.385   2.639   2.622  0.0106  1.2417 -0.2509
 2172lim     li12972   4.885   4.069   2.896 -0.2536  0.5751 -0.1577
 2173lim     li12973   4.982   6.996   2.727 -0.4202  0.1938 -0.7269
 2174lim     li12974   1.659   4.759   6.428 -0.2422 -0.3304  0.0887
 2175lim     li12975   6.979   1.394   1.701  1.3487  1.4895 -0.4731
 2176lim     li12976   1.418   2.731   6.225 -0.0489 -1.0756 -0.0660
 2177lim     li12977   2.833   3.879   5.822  0.0659 -0.8996  0.2528
 2178lim     li12978   6.114   6.354   4.210  0.1950  0.2332 -0.2762
 2179lim     li12979   3.420   0.633   6.553  0.0784  1.0153 -0.5095
 2180lim     li12980   4.701   4.719   1.588 -0.4686  0.8034  0.1510
 2181lim     li12981   4.010   6.886   0.710 -0.6081 -1.0784  0.0090
 2182lim     li12982   0.283   1.939   6.575  0.7556  0.8673  0.8951
 2183lim     li12983   6.236   3.049   3.508 -0.1585 -0.0500  0.7054
 2184lim     li12984   1.113   4.428   6.830 -0.1310 -0.6216 -0.8676
 2185lim     li12985   2.101   1.402   4.076  0.5595 -0.2110 -0.8009
 2186lim     li12986   2.786   4.481   6.865  0.5572 -0.6264  0.1341
 2187lim     li12987   3.209   2.714   3.792  0.2832  0.2903  0.5672
 2188lim     li12988   1.559   1.179   3.099  0.2823 -1.7563 -0.3611
 2189lim     li12989   5.878   4.712   0.504  0.8646  1.2210  0.6464
 2190lim     li12990   4.057   1.030   5.070 -0.1657  0.2661 -0.0192
 2191lim     li12991   0.668   4.043   4.163 -1.0191 -0.2782  0.0958
 2192lim     li12992   5.017   0.592   2.982 -0.3283  0.6564 -0.0335
 2193lim     li12993   5.481   6.849   4.007  0.0838 -0.2919  0.5421
 2194lim     li12994   6.636   4.172   2.723 -0.3328  0.0506  1.5009
 2195lim     li12995   1.273   5.348   6.445  0.9193  0.1404 -0.8549
 2196lim     li12996   6.262   3.450   2.631 -1.1030  0.5902  0.2334
 2197lim     li12997   7.101   2.441   0.416 -0.4606 -0.7105  0.1896
 2198lim     li12998   1.110   1.214   1.939  0.0498 -0.4520  0.4908
 2199lim     li12999   3.289   0.843   1.731  0.5484  0.5445 -0.1325
 2200lim     li13000   5.094   5.746   1.561  1.3622 -0.5806 -0.6055
 2201lim     li13001   2.966   5.048   5.129 -0.0654 -0.1576 -0.2020
 2202lim     li13002   3.628   1.194   5.987  1.1990 -0.5230  0.6065
 2203lim     li13003   5.326   4.295   6.115 -0.2584 -0.6942  0.6621
 2204lim     li13004   2.721   4.344   2.301  0.2052  0.3097  0.4346
 2205lim     li13005   3.210   4.908   1.608 -0.7043 -0.2916 -0.2988
 2206lim     li13006   4.016   2.074   5.594  0.0144  0.8382 -0.1656
 2207lim     li13007   1.687   0.339   3.287  0.2303 -1.1506 -0.6769
 2208lim     li13008   3.563   5.889   2.386  1.0526 -0.4681 -0.7742
 2209lim     li13009   1.006   6.326   1.227 -0.1004 -0.4309 -0.6038
 2210lim     li13010   3.994   0.207   2.296 -0.9703  0.4930  0.1205
 2211lim     li13011   6.412   6.763   5.745 -0.0654  1.0686  0.5234
 2212lim     li13012   0.626   3.727   3.043  0.4629 -0.4310  0.6424
 2213lim     li13013   2.704   4.393   4.558  0.0334 -0.1202  0.4536
 2214lim     li13014   3.414   6.911   0.606 -1.3586 -1.2749  0.5816
 2215lim     li13015   0.281   1.905   0.937 -0.4507  0.3700 -0.2976
 2216lim     li13016   6.179   2.273   2.493  1.1163 -0.2125  0.5051
 2217lim     li13017   5.193   4.300   0.507 -0.8055 -0.9789  0.1146
 2218lim     li13018   1.958   5.037   5.168 -0.7851 -1.4364  0.5632
 2219lim     li13019   6.106   0.847   2.442 -1.4878 -0.0632  0.8423
 2220lim     li13020   2.676   0.952   1.133 -0.4147 -0.5048 -0.0294
 2221lim     li13021   5.513   5.776   1.058  0.4459 -0.8612 -0.6075
 2222lim     li13022   4.663   2.216   2.444  0.8155  0.4702  1.4854
 2223lim     li13023   3.783   5.007   2.291  0.5023 -0.2641 -0.1758
 2224lim     li13024   1.342   7.091   5.160 -0.2402  0.6306  0.9169
 2225lim     li13025   5.038   1.173   4.558 -1.1800 -0.2934  0.1654
 2226lim     li13026   3.751   2.933   3.040  0.8740 -0.2152  0.0041
 2227lim     li13027   1.511   0.496   4.215 -0.5997 -0.2412 -1.0727
 2228lim     li13028   6.478   0.346   4.508 -0.5119 -0.6178  0.5630
 2229lim     li13029   2.476   0.979   2.235 -0.0043 -0.0047  0.0363
 2230lim     li13030   0.206   1.577   4.063 -0.9957 -0.9728 -0.1038
 2231lim     li13031   1.604   1.414   5.843 -0.5982  0.2167 -0.3709
 2232lim     li13032   4.518   2.708   1.302  0.6385 -0.1334 -0.7415
 2233lim     li13033   3.564   3.282   1.675 -1.6100 -0.2364 -0.2062
 2234lim     li13034   2.179   5.202   0.133  0.3276 -0.2869  0.4534
 2235lim     li13035   1.275   6.232   0.487 -0.4272 -0.6770 -0.2093
 2236lim     li13036   4.196   2.320   0.728  0.4235 -0.3157 -0.2084
 2237lim     li13037   2.828   4.629   5.854  0.9214 -0.3881  0.0864
 2238lim     li13038   2.485   2.992   6.244 -0.4935 -0.0740 -0.5973
 2239lim     li13039   3.820   4.575   4.320  0.2037 -0.6462 -0.1607
 2240lim     li13040   0.491   1.732   3.091  0.2915 -0.2402 -0.3545
 2241lim     li13041   6.336   3.122   0.341 -1.2487  0.0201  0.7788
 2242lim     li13042   0.903   6.578   6.023 -1.3670 -0.9394 -0.7813
 2243lim     li13043   0.372   6.116   6.215 -0.2678  0.4696 -0.0663
 2244lim     li13044   4.496   3.005   5.518  0.6392 -0.3152 -0.9233
 2245lim     li13045   0.586   4.866   4.715  0.9596 -0.7053  0.4854
 2246lim     li13046   6.010   1.296   6.269  1.1271  0.0979  0.4270
 2247lim     li13047   0.799   3.159   6.237 -1.1457 -0.2020  0.1117
 2248lim     li13048   2.581   6.755   6.765 -0.1615 -0.6560  0.4707
 2249lim     li13049   1.042   5.207   4.122 -0.0894  0.0026  0.8440
 2250lim     li13050   3.113   4.515   0.643 -0.1231 -0.1124 -1.0425
 2251lim     li13051   5.909   1.738   0.235 -0.2663 -0.2100  0.5875
 2252lim     li13052   2.092   0.217   5.596 -0.6751  1.0076  0.4531
 2253lim     li13053   1.165   0.307   1.270 -0.3377  0.7238 -1.1586
 2254lim     li13054   5.300   2.136   5.163 -0.7195 -0.1539 -0.0607
 2255lim     li13055   2.151   4.411   1.710 -0.3083 -0.0369 -0.4079
 2256lim     li13056   6.060   1.572   4.709  0.8437  1.0443  0.0839
 2257lim     li13057   4.158   4.668   6.879 -0.1121  0.5530  0.1427
 2258lim     li13058   4.877   2.203   1.563 -1.0253  0.4492 -1.0132
 2259lim     li13059   4.766   0.539   6.074 -1.1546 -0.1004 -0.0442
 2260lim     li13060   0.508   2.674   2.429 -0.4231 -0.7561 -0.4443
 2261lim     li13061   5.381   6.656   2.026 -0.8387  0.8804 -0.9399
 2262lim     li13062   4.471   0.043   3.459 -0.5745 -0.2749  1.1931
 2263lim     li13063   2.947   6.217   6.053  0.8968  0.6306 -1.0317
 2264lim     li13064   0.125   1.923   5.726  1.0717  0.6904  0.5432
 2265lim     li13065   3.727   4.809   6.403  0.5258  0.2483 -0.8373
 2266lim     li13066   4.821   4.869   0.782 -0.6253 -0.0734 -0.1994
 2267lim     li13067   6.940   2.205   5.126  0.5691 -0.8569 -0.8853
 2268lim     li13068   6.376   5.063   2.140  0.1701 -0.2619 -0.4970
 2269lim     li13069   3.330   1.928   6.466 -0.5536 -0.0258  0.0468
 2270lim     li13070   4.899   4.590   5.328  2.2767  1.4611 -0.8829
 2271lim     li13071   5.679   2.392   0.680  0.7857  0.4344  0.5372
 2272lim     li13072   6.317   6.903   1.935 -0.7426  0.4335  0.5941
 2273lim     li13073   0.843   2.290   3.098  1.0671  0.5797 -0.0389
 2274lim     li13074   4.604   1.469   5.510 -0.2739 -0.2389  0.6664
 2275lim     li13075   5.642   4.372   3.590  0.3794  0.3892  1.3490
 2276lim     li13076   5.480   5.109   2.322  0.0858  0.5513 -0.0630
 2277lim     li13077   1.312   0.764   5.603 -0.7273 -0.0061 -0.6998
 2278lim     li13078   3.024   1.705   2.986 -0.0644  0.0305  1.5936
 2279lim     li13079   5.141   3.634   1.426  1.7665  0.0720 -1.1808
 2280lim     li13080   1.856   6.891   2.374  0.7764  0.5039  0.5622
 2281lim     li13081   5.686   6.875   1.369 -1.1068  0.4129 -0.6835
 2282lim     li13082   3.718   3.334   4.550 -0.5105 -0.0868 -0.3573
 2283lim     li13083   0.508   1.110   5.263  0.2738 -0.4455 -0.1277
 2284lim     li13084   2.810   0.301   2.923 -0.0012  0.3162 -0.3646
 2285lim     li13085   7.074   6.718   4.420  0.6319  0.1180 -0.2710
 2286lim     li13086   4.649   3.685   6.980  0.6020 -0.9494 -1.4431
 2287lim     li13087   0.215   6.043   5.572 -0.4982  0.3550  0.6229
 2288lim     li13088   4.131   6.833   4.225 -0.9530 -0.1014 -0.0101
 2289lim     li13089   2.055   0.727   0.041  0.1438  0.4727  0.3722
 2290lim     li13090   5.199   1.848   1.027 -0.0042 -0.0368 -0.7128
 2291lim     li13091   0.815   5.078   5.692 -0.5427 -0.0635  1.1540
 2292lim     li13092   6.429   4.530   6.737 -0.1504 -0.1364  0.0731
 2293lim     li13093   3.645   4.565   3.373  0.3989  0.1231 -0.1425
 2294lim     li13094   5.716   0.022   3.607 -0.2632  0.1788  0.2559
 2295lim     li13095   5.572   1.108   5.451 -0.9820  0.8174  0.1611
 2296lim     li13096   3.319   5.734   0.790 -0.1900 -1.0657  0.6703
 2297lim     li13097   5.652   1.021   1.619 -0.6977 -1.0434 -1.3937
 2298lim     li13098   6.473   6.772   1.134  0.1301 -0.7951 -0.9481
 2299lim     li13099   3.511   6.075   1.155  0.5635 -0.7802  0.7537
 2300lim     li13100   6.385   0.659   7.101 -0.0923  0.8316  0.0228
 2301lim     li13101   2.264   5.852   2.959 -0.0767  1.8837 -0.5088
 2302lim     li13102   3.499   1.463   0.078  0.1756  1.4845 -0.6269
 2303lim     li13103   5.419   5.748   5.033  0.0467  0.4165  0.1722
 2304lim     li13104   5.938   5.718   2.707 -1.0656 -0.2692  0.6495
 2305lim     li13105   3.804   2.959   0.439  0.1221  0.0187  0.4516
 2306lim     li13106   0.380   0.191   2.058  0.1030  0.0859  0.8692
 2307lim     li13107   1.494   2.213   0.389 -0.1640 -1.1680 -0.7481
 2308lim     li13108   2.241   4.887   3.097 -0.1581 -0.5929 -1.1865
 2309lim     li13109   2.428   3.161   1.446  1.4035 -0.6765 -1.1384
 2310lim     li13110   5.952   1.153   0.620  0.5488  0.4623 -1.0245
 2311lim     li13111   4.932   4.905   2.828  0.0091 -1.0371  0.2694
 2312lim     li13112   0.570   2.525   0.038  0.8628  0.7127 -0.0655
 2313lim     li13113   6.475   2.853   3.908  0.7831  1.1881 -0.3666
 2314lim     li13114   1.452   3.660   6.607 -0.2384  1.1906  1.1766
 2315lim     li13115   3.953   0.895   3.529 -0.6313  0.4337 -1.3650
 2316lim     li13116   0.715   4.720   1.098 -0.6915  0.0770 -0.7976
 2317lim     li13117   0.734   5.364   0.261 -0.1384  0.5971 -0.4093
 2318lim     li13118   4.199   4.126   0.430  0.1409  0.2814  0.7787
 2319lim     li13119   6.162   1.430   5.413 -1.0870  0.5480  0.2746
 2320lim     li13120   1.319   1.895   6.578 -0.8802  0.1968 -0.4146
 2321lim     li13121   6.417   5.433   4.547 -0.7355  0.5809 -0.2001
 2322lim     li13122   3.530   0.022   6.215 -0.4520 -0.1313  0.0000
 2323lim     li13123   5.976   2.076   6.076  0.1468  1.2966 -0.1628
 2324lim     li13124   7.102   4.696   2.420 -0.5586 -0.0229  0.2775
 2325lim     li13125   5.518   4.359   1.505  0.2455  0.2776  0.4368
 2326lim     li13126   1.019   4.169   1.206 -0.0098  0.1933 -0.3331
 2327lim     li13127   2.004   0.689   4.765  0.2322 -0.0317 -1.2588
 2328lim     li13128   0.328   5.176   7.057 -0.6799  0.9484  1.2614
 2329lim     li13129   3.209   3.794   0.821 -0.3436 -0.7681 -0.6525
 2330lim     li13130   3.735   2.921   7.000  1.3306 -0.4902  1.0544
 2331lim     li13131   6.280   5.824   6.304 -1.4601 -0.3715 -1.3138
 2332lim     li13132   5.466   3.320   3.332 -0.7356  0.4346  0.2342
 2333lim     li13133   4.613   2.765   2.922  0.3491 -0.0902 -1.1013
 2334lim     li13134   3.845   6.638   2.214  1.0001  0.0184 -0.3221
 2335lim     li13135   0.079   1.930   2.509  1.7611  1.2764 -0.7999
 2336lim     li13136   7.134   3.686   2.281  0.2424 -0.8052 -0.0635
 2337lim     li13137   7.014   3.378   6.490 -0.4769 -0.4078 -0.2703
 2338lim     li13138   5.578   0.629   6.606 -0.4232 -0.0125 -1.0639
 2339lim     li13139   5.849   4.211   1.948 -0.1029 -0.3402  0.1636
 2340lim     li13140   4.741   2.962   0.295  0.6834 -0.2256 -1.1147
 2341lim     li13141   6.558   2.250   6.854 -0.8537  0.9629  1.6114
 2342lim     li13142   5.072   3.899   6.723  0.0146 -0.5449  1.0905
 2343lim     li13143   4.832   1.008   1.164  0.1415 -0.1654 -0.8744
 2344lim     li13144   0.024   5.429   1.286  0.6356  0.1665  0.1444
 2345lim     li13145   3.669   5.397   3.145  0.0435  0.1133 -0.6309
 2346lim     li13146   6.336   1.727   1.992 -0.2402 -0.2870 -0.0539
 2347lim     li13147   2.875   0.264   5.505 -0.1357  1.6852  1.1177
 2348lim     li13148   0.700   0.205   3.997  0.4819 -0.6473  0.3175
 2349lim     li13149   0.939   2.709   4.020 -0.3573 -0.4633 -0.3653
 2350lim     li13150   3.022   4.816   2.776  0.3917 -0.8709 -0.2287
 2351lim     li13151   5.539   4.311   4.417  0.7158  0.1947 -0.8077
 2352lim     li13152   6.128   6.063   0.881 -0.5945 -0.6597 -0.0170
 2353lim     li13153   5.636   4.291   4.933  0.5065 -0.0920  0.2511
 2354lim     li13154   4.687   1.828   0.594 -0.1677 -0.6886  0.1560
 2355lim     li13155   5.905   5.633   3.412  0.4835 -0.0527 -0.7101
 2356lim     li13156   5.063   6.674   1.315  0.6590  0.2170  0.2680
 2357lim     li13157   1.152   3.773   1.970 -1.0134  1.5835 -0.8314
 2358lim     li13158   6.192   3.695   0.789 -0.0863  0.0139  0.4877
 2359lim     li13159   3.611   6.088   3.448 -0.4239 -0.4122  1.2477
 2360lim     li13160   0.621   3.812   1.313 -1.1099  1.5622 -0.3311
 2361lim     li13161   1.172   4.430   1.989  0.1443 -0.3492 -0.0563
 2362lim     li13162   3.862   5.042   0.402  0.3718  0.5115  0.0786
 2363lim     li13163   0.395   0.871   0.967 -0.5813 -0.8687 -0.4228
 2364lim     li13164   4.944   3.174   4.256  0.1745  0.1085 -0.4127
 2365lim     li13165   2.271   5.746   6.115 -0.0253  0.1187  0.1878
 2366lim     li13166   2.337   5.121   3.889  0.7543 -0.8407 -0.5625
 2367lim     li13167   0.876   0.580   6.035 -0.0051  0.2493 -0.3485
 2368lim     li13168   2.227   2.605   5.321 -0.0734  1.5990 -0.0806
 2369lim     li13169   0.733   7.137   5.168  0.1119  0.1099 -0.4951
 2370lim     li13170   3.013   0.324   4.664  0.9619 -0.5025  0.8604
 2371lim     li13171   6.602   1.814   3.700  0.1792 -0.5256 -0.6073
 2372lim     li13172   4.397   5.553   0.623  0.3764 -0.5763 -0.4447
 2373lim     li13173   4.107   1.846   2.237 -0.1284  0.1110 -0.2631
 2374lim     li13174   4.376   0.108   4.774 -0.5554 -0.6186  1.0969
 2375lim     li13175   0.483   2.937   1.765 -0.9885 -0.1556  0.9871
 2376lim     li13176   2.127   6.488   0.157 -0.5715  1.0691  1.0631
 2377lim     li13177   2.151   1.861   0.906 -0.9538  0.0102 -0.1120
 2378lim     li13178   4.481   6.365   4.442  0.4929 -0.0400  0.4744
 2379lim     li13179   5.472   0.271   5.717 -1.8054  0.3883 -0.3007
 2380lim     li13180   2.548   5.167   6.429  0.5316  2.0312  0.0906
 2381lim     li13181   3.905   0.968   0.577 -1.0340  0.3741 -0.3636
 2382lim     li13182   2.022   5.836   0.065  0.2643  0.7376 -1.3868
 2383lim     li13183   2.282   3.664   0.455 -0.5983 -0.0223 -0.0751
 2384lim     li13184   2.038   6.588   5.897 -0.7334 -0.6258 -0.0942
 2385lim     li13185   2.656   5.117   2.153 -0.2581 -0.0649 -0.2511
 2386lim     li13186   5.805   0.392   1.240 -0.1750 -0.3181  0.7063
 2387lim     li13187   0.218   2.627   4.042  0.0478 -0.1179 -0.6107
 2388lim     li13188   0.446   7.055   3.540  0.4490 -1.6133  0.0107
 2389lim     li13189   3.806   5.714   4.109 -0.1364  0.3399  0.0740
 2390lim     li13190   5.956   4.739   5.929  0.1280  0.5359 -0.3521
 2391lim     li13191   4.457   3.903   1.378 -0.3501  0.5117 -1.8782
 2392lim     li13192   4.622   6.776   6.886 -0.3733  0.0287  0.1923
 2393lim     li13193   6.038   0.438   4.717  0.3423  1.2865 -0.2042
 2394lim     li13194   5.335   3.495   2.391  0.6909 -1.5501 -0.6937
 2395lim     li13195   2.961   2.318   0.419 -1.0374  0.5649  0.1173
 2396lim     li13196   4.047   5.699   1.296  1.5085  0.1008  0.8252
 2397lim     li13197   0.495   5.423   2.789 -0.1111 -0.9745 -0.4740
 2398lim     li13198   2.713   6.115   4.942 -0.5349  0.0977 -0.2326
 2399lim     li13199   6.697   0.679   1.697 -1.0630  1.2553  0.1753
 2400lim     li13200   1.723   7.002   6.589  0.0394 -0.3622  0.2289
 2401lim     li13201   1.799   5.816   5.481  0.6778  1.5946  0.3031
 2402lim     li13202   1.273   6.132   6.515 -0.6885 -0.0865 -1.4833
 2403lim     li13203   5.629   3.423   0.549 -0.2075  0.1691  0.9762
 2404lim     li13204   4.763   4.338   2.140  0.5640 -0.5120 -1.2609
 2405lim     li13205   3.928   4.555   1.154  0.3045 -0.5818  1.0305
 2406lim     li13206   0.475   2.609   6.013  0.5061 -0.2536  1.2457
 2407lim     li13207   0.276   4.545   5.366  0.8492 -1.9532 -0.0636
 2408lim     li13208   7.023   2.090   3.294  0.6873  0.1513  0.0957
 2409lim     li13209   4.039   2.946   4.738 -0.4368  0.6234 -0.8871
 2410lim     li13210   5.693   2.326   1.543 -1.0856  0.6743 -0.0064
 2411lim     li13211   4.360   5.082   4.164 -1.3783 -1.0251 -0.7663
 2412lim     li13212   5.090   1.296   0.016 -1.4726 -0.2373  0.8123
 2413lim     li13213   6.900   1.181   5.947 -0.4099  0.6588 -0.2345
 2414lim     li13214   5.941   2.820   6.967  0.1931  0.1810 -0.2806
 2415lim     li13215   6.663   1.614   6.796  0.9336  0.3571  1.2292
 2416lim     li13216   4.728   5.315   6.267 -0.9170  0.8489  0.5662
 2417lim     li13217   0.237   3.986   5.351  0.5259  0.1349  1.0159
 2418lim     li13218   1.963   2.077   6.174  0.3810 -0.2115  0.4512
 2419lim     li13219   1.210   2.092   2.084  1.0015  0.7644 -0.4080
 2420lim     li13220   4.631   2.962   3.747 -0.6761  0.6978 -0.4723
 2421lim     li13221   6.809   4.318   4.321  1.2831 -0.0495 -0.5592
 2422lim     li13222   4.593   5.945   4.965  0.5361 -0.7866  0.4525
 2423lim     li13223   0.211   1.059   2.266  0.9690  0.8170  0.7404
 2424lim     li13224   3.963   6.705   3.065 -0.9957  0.7110  0.0441
 2425lim     li13225   0.850   1.400   6.496 -0.2698 -0.4751  0.1677
 2426lim     li13226   1.031   6.892   6.950  0.9649  0.3507  0.8381
 2427lim     li13227   3.159   5.163   4.016 -0.1943 -0.8927 -1.1322
 2428lim     li13228   4.762   0.228   1.156 -0.7618 -0.2974 -0.6119
 2429lim     li13229   0.829   1.869   0.838  0.7442 -0.7194  0.5049
 2430lim     li13230   4.020   5.955   7.000  0.0961 -0.1577  0.5729
 2431lim     li13231   2.316   0.281   1.884  0.7063  1.0952 -0.5237
 2432lim     li13232   2.802   0.739   5.802 -0.5735  1.3507 -0.5564
 2433lim     li13233   7.072   0.499   6.623 -0.3207  1.0670  0.4362
 2434lim     li13234   4.766   6.231   3.819 -0.1989 -0.8620 -0.2624
 2435lim     li13235   3.913   0.763   2.389  1.2540 -1.1691  0.4210
 2436lim     li13236   7.125   3.514   3.648 -0.2808 -0.2959  0.3022
 2437lim     li13237   5.142   2.010   2.982  0.3719 -0.0534  0.4876
 2438lim     li13238   2.642   1.828   7.060  0.4088 -0.2243  0.5108
 2439lim     li13239   4.726   5.880   2.985  1.0229  0.2415 -0.2747
 2440lim     li13240   4.146   6.767   1.589 -0.6428 -0.4596  0.8827
 2441lim     li13241   4.719   6.601   5.705  0.2682 -0.1654 -2.0639
 2442lim     li13242   6.837   0.311   3.527 -0.3118 -0.3700 -0.9717
 2443lim     li13243   3.581   3.540   5.487  1.4174 -0.8508 -0.3372
 2444lim     li13244   2.346   6.745   1.006  0.6935 -1.7659 -0.7418
 2445lim     li13245   7.127   6.834   5.768  0.3320 -1.3803  0.3590
 2446lim     li13246   0.545   6.290   0.679 -1.5043 -0.2907 -0.0837
 2447lim     li13247   0.814   4.212   2.500  0.0227 -0.7643 -0.5075
 2448lim     li13248   4.594   3.306   2.033  0.8364 -0.1967  0.4850
 2449lim     li13249   1.396   1.627   4.696  0.3493  0.2168  1.0350
 2450lim     li13250   0.744   0.250   2.518  0.3918  1.0025 -0.1837
 2451lim     li13251   5.421   2.711   2.170 -0.1585 -0.4084  0.4216
 2452lim     li13252   0.049   1.931   1.580 -0.1217  0.6970 -0.4088
 2453lim     li13253   3.810   5.949   5.670  0.4962  0.5846  0.2230
 2454lim     li13254   0.383   0.764   3.201  0.5635 -0.1529  0.2379
 2455lim     li13255   1.358   4.919   3.622 -0.4242  0.0841 -0.0808
 2456lim     li13256   2.371   1.623   1.929 -0.3440 -0.1858  0.4257
 2457lim     li13257   3.838   3.737   0.607  0.1304 -0.6616 -1.0200
 2458lim     li13258   1.625   4.100   4.152 -0.3963 -0.3373  1.1022
 2459lim     li13259   0.438   3.705   0.284 -0.1517 -0.7245  0.0804
 2460lim     li13260   1.710   4.228   3.004 -0.3608 -0.5443 -1.0001
 2461lim     li13261   3.007   5.623   3.420  0.7228  1.1347 -0.5723
 2462lim     li13262   4.602   0.922   4.264  0.2811  0.9973 -0.0688
 2463lim     li13263   2.134   1.999   2.841  0.7263 -0.2843  0.0699
 2464lim     li13264   7.076   6.160   2.012 -1.0526  0.2256  0.4881
 2465lim     li13265   5.172   1.985   5.859  0.0715 -1.1818  0.5407
 2466lim     li13266   4.840   6.426   2.068  0.6183  0.5785  0.0523
 2467lim     li13267   3.039   7.112   2.111  0.3057  0.0789  1.3719
 2468lim     li13268   1.428   2.107   3.714 -0.4900  1.1225  0.0066
 2469lim     li13269   1.107   2.997   1.127  0.4566  0.4911  0.9577
 2470lim     li13270   6.941   6.247   0.200  0.4557  0.0540  0.2550
 2471lim     li13271   2.926   2.767   4.311  0.2222  0.7151  0.4638
 2472lim     li13272   3.883   6.735   6.244  0.4798 -0.1539  0.7434
 2473lim     li13273   4.306   5.442   3.172 -0.3594 -0.0399 -1.6247
 2474lim     li13274   6.278   4.171   5.301  0.5154  0.4547  0.4779
 2475lim     li13275   0.529   6.017   3.598 -0.1856 -0.8765 -0.0140
 2476lim     li13276   3.589   0.142   3.657 -0.3187  0.1360  0.3803
 2477lim     li13277   7.063   0.461   4.438 -0.3288 -0.1022 -1.0578
 2478lim     li13278   3.771   3.607   3.681 -0.1027 -1.1898 -0.8262
 2479lim     li13279   6.370   5.380   0.390  0.2347 -0.1596 -0.4587
 2480lim     li13280   0.018   6.010   6.983  0.9392  0.6906  0.3312
 2481lim     li13281   1.067   2.274   5.221  0.3780 -0.8724 -0.3254
 2482lim     li13282   0.813   0.583   0.339 -0.5887  1.0772  0.1102
 2483lim     li13283   1.368   1.022   0.691 -0.2438  0.9134 -0.1672
 2484lim     li13284   3.629   2.265   4.412 -0.8273  1.1790  0.4427
 2485lim     li13285   5.663   6.808   6.430 -0.6536  0.5404 -0.9790
 2486lim     li13286   1.087   6.696   3.163 -0.0872  0.4884  0.5204
 2487lim     li13287   4.019   1.292   1.300 -0.1344 -1.1632 -0.7774
 2488lim     li13288   6.784   3.556   4.686  0.1020 -0.3444  1.7658
 2489lim     li13289   2.921   2.408   2.151 -0.7482 -0.4935  0.3573
 2490lim     li13290   6.022   3.178   1.607  0.7442  0.2445  0.3798
 2491lim     li13291   1.344   4.413   4.868  0.3162 -0.1009 -0.7148
 2492lim     li13292   1.185   6.443   2.225  0.1133  0.0754 -0.3787
 2493lim     li13293   5.301   0.300   2.087 -0.1078  0.1466  0.6281
 2494lim     li13294   3.100   1.685   1.455  0.3780  0.1774  0.5869
 2495lim     li13295   6.232   0.365   5.772  0.7520  0.3064  1.0944
 2496lim     li13296   3.868   4.291   2.626  1.2310  0.7044  0.4794
 2497lim     li13297   0.034   5.572   4.308  0.6858 -0.3056 -0.2151
 2498lim     li13298   1.620   3.124   2.990 -0.4933 -1.0102  1.5147
 2499lim     li13299   0.597   3.157   5.106  0.6550  0.3210 -0.2282
 2500lim     li13300   5.127   5.617   0.174 -0.1905 -1.1720  0.4147
 2501lim     li13301   3.522   0.953   4.177  0.0891  0.3902 -0.5495
 2502lim     li13302   4.759   1.080   2.563 -0.5282  0.1041 -0.1743
 2503lim     li13303   1.782   0.334   2.770 -0.2382 -0.5390 -0.2674
 2504lim     li13304   0.948   3.341   0.582  0.5655 -0.7432 -1.4588
 2505lim     li13305   2.111   1.574   3.257 -1.6688  0.7298  0.4563
 2506lim     li13306   3.409   5.777   5.967 -0.6072 -1.4981 -0.8736
 2507lim     li13307   1.316   5.348   2.806 -0.4247  0.8853  0.6077
 2508lim     li13308   2.026   1.676   5.371 -0.4421  1.0023 -0.0001
 2509lim     li13309   3.851   1.770   3.642  0.4321 -0.8135 -1.3640
 2510lim     li13310   3.644   0.003   7.018 -0.0725 -1.1572 -0.7041
 2511lim     li13311   6.867   2.855   2.840  0.4267 -1.0294  0.3860
 2512lim     li13312   3.032   5.747   5.254 -1.5263  1.5606 -0.5586
 2513lim     li13313   6.119   6.936   3.021 -1.0855 -0.2627 -0.2367
 2514lim     li13314   3.330   2.127   5.316  0.4773  0.3120 -1.2651
 2515lim     li13315   4.862   2.951   0.834 -0.7806  0.3216  0.3080
 2516lim     li13316   6.984   2.816   6.445 -0.7509  0.4204  0.0650
 2517lim     li13317   5.465   2.712   4.500  0.2860  0.9162  0.5427
 2518lim     li13318   5.027   1.541   6.508 -0.0356  0.2359  1.1057
 2519lim     li13319   2.065   4.259   5.211 -0.7310  0.8869  0.3798
 2520lim     li13320   1.335   3.657   5.957  0.3362 -0.5388 -0.3053
 2521lim     li13321   3.042   7.071   3.631  1.0232 -0.5953  0.6380
 2522lim     li13322   1.469   0.597   1.946  0.3700  0.3564  0.1956
 2523lim     li13323   3.798   5.202   5.781 -0.7433 -0.1965 -0.4848
 2524lim     li13324   1.856   2.886   0.382  0.7469 -0.2127 -0.3716
 2525lim     li13325   5.156   5.078   3.443  0.8026 -0.2345 -0.5849
 2526lim     li13326   5.508   5.317   6.165  0.9600 -0.5329  0.0744
 2527lim     li13327   2.362   7.072   4.118 -0.4147 -0.8394  0.9465
 2528lim     li13328   1.819   4.916   2.444 -1.5199  0.7857  0.1116
 2529lim     li13329   2.254   3.162   4.653  0.5935 -0.2375  0.3713
 2530lim     li13330   2.745   1.143   5.549  0.8446 -0.8584 -0.5818
 2531lim     li13331   6.193   3.410   6.285 -0.6314  0.1956  0.8159
 2532lim     li13332   2.632   0.953   3.515 -0.6961 -0.1390 -0.6817
 2533lim     li13333   0.220   1.520   0.269 -0.5178 -0.4557 -0.2868
 2534lim     li13334   6.205   3.616   4.473 -1.0594 -0.2835  0.8800
 2535lim     li13335   5.495   1.467   2.067 -1.1740 -0.0478  0.4161
 2536lim     li13336   5.752   2.813   6.141 -0.3477 -0.6935  1.2979
 2537lim     li13337   7.134   4.058   0.049  0.0879 -1.3889 -0.3725
 2538lim     li13338   1.837   6.457   3.830  1.2824  0.2669 -1.2420
 2539lim     li13339   6.282   5.615   1.229 -0.6194  1.2063 -0.4128
 2540lim     li13340   3.513   4.154   6.722 -0.8750  0.4424 -0.3748
 2541lim     li13341   0.887   6.113   4.259 -0.0625 -0.0481  1.0046
 2542lim     li13342   0.999   1.725   0.277 -0.6334 -0.2791  1.0367
 2543lim     li13343   4.375   5.825   6.435  1.3557  0.2606 -0.8192
 2544lim     li13344   3.593   4.328   5.574 -0.6783 -0.8125 -0.3205
 2545lim     li13345   4.384   5.585   2.131  0.7156  0.9761  0.2883
 2546lim     li13346   0.871   3.752   3.794  0.2428 -0.5557 -0.3447
 2547lim     li13347   2.874   0.312   0.355 -0.4626 -0.0813 -0.2701
 2548lim     li13348   5.986   6.434   2.258  0.7911 -1.1367  0.8059
 2549lim     li13349   3.839   3.720   6.448 -1.3226  0.9624 -0.1049
 2550lim     li13350   3.043   1.419   3.726 -0.9807 -0.4430  0.1368
 2551lim     li13351   4.397   3.915   6.017  0.5394 -0.6238  0.3996
 2552lim     li13352   0.850   5.981   2.430 -0.5933  0.9933  0.2659
 2553lim     li13353   5.585   6.187   6.922 -0.9663  0.1205  0.8998
 2554lim     li13354   1.056   3.327   6.978 -0.7431 -0.1724  0.0332
 2555lim     li13355   6.881   4.605   6.133  0.2165  0.0658  1.5272
 2556lim     li13356   1.405   1.716   1.550 -0.6528  0.7047 -1.0848
 2557lim     li13357   5.910   0.251   2.625 -1.1247 -0.0500 -0.8112
 2558lim     li13358   6.878   0.985   0.803  0.2099  1.0615  1.4379
 2559lim     li13359   1.420   3.263   2.206 -0.9217 -1.6154  0.2590
 2560lim     li13360   2.285   2.838   6.906 -0.4472 -1.5386 -0.9747
 2561lim     li13361   1.451   5.350   1.823 -0.1215 -1.3714  0.2011
 2562lim     li13362   2.260   0.603   3.958 -0.4210 -0.4494  0.3228
 2563lim     li13363   2.791   4.932   0.898  1.2541  0.7702 -0.0829
 2564lim     li13364   3.594   1.413   2.293  0.0024  0.1273  0.6679
 2565lim     li13365   6.764   3.008   5.153 -0.1995 -0.5464  0.1044
 2566lim     li13366   1.000   1.385   3.819 -0.6836 -0.3301  0.4747
 2567lim     li13367   4.655   4.245   3.899 -0.0840 -0.0347  0.0782
 2568lim     li13368   2.606   2.587   5.897  0.3713  0.2272  0.3886
 2569lim     li13369   2.295   6.184   1.334  1.6668  0.3376  1.2636
 2570lim     li13370   5.011   0.258   5.228 -0.2173 -1.1809  0.7922
 2571lim     li13371   1.961   5.328   1.250  0.6462 -0.0784  0.3608
 2572lim     li13372   5.507   7.010   4.858 -0.4624 -0.4338 -1.2213
 2573lim     li13373   1.089   4.178   6.221 -1.6227 -0.1241 -1.4793
 2574lim     li13374   6.049   5.777   5.543 -0.4980 -0.1422  0.1330
 2575lim     li13375   2.026   2.390   1.611  1.3228 -0.1419 -1.0204
 2576lim     li13376   0.305   6.657   2.851 -0.0711  0.0591  1.5131
 2577lim     li13377   6.945   4.288   1.638  0.0410  0.0257 -1.3060
 2578lim     li13378   2.496   2.081   4.687 -0.2268  1.1691 -0.6465
 2579lim     li13379   3.106   0.951   2.609  0.2904 -0.0884  0.1211
 2580lim     li13380   6.973   6.520   5.104 -0.5817 -0.4668  1.0480
 2581lim     li13381   0.443   4.342   6.542  0.1718 -1.3002  1.0873
 2582lim     li13382   5.577   0.307   0.301  0.1769 -1.1421  0.2606
 2583lim     li13383   1.757   0.867   6.494  0.9081  0.8619 -0.2290
 2584lim     li13384   2.887   3.217   7.035  0.3101  0.3199  0.0365
 2585lim     li13385   6.855   6.880   2.610  0.0167  0.1455 -1.0547
 2586lim     li13386   6.148   1.474   3.359 -0.2160  0.1061  1.0462
 2587lim     li13387   1.437   6.697   1.532  0.0526  0.1731 -1.2931
 2588lim     li13388   2.585   5.788   0.402 -0.2686  0.5557 -0.5018
 2589lim     li13389   3.026   3.584   5.019 -0.2812 -0.9596  0.1511
 2590lim     li13390   0.247   1.316   4.917 -0.1084  1.0675 -0.0665
 2591lim     li13391   1.630   5.948   3.129  0.7867 -0.4265 -0.8627
 2592lim     li13392   7.080   4.708   4.632 -0.5491 -0.1864  0.3998
 2593lim     li13393   2.948   6.397   4.065  0.6781  1.0696  1.6462
 2594lim     li13394   2.917   3.669   4.374 -0.2294  0.7079 -0.5784
 2595lim     li13395   0.037   6.689   1.505 -0.4853  0.8651  0.0423
 2596lim     li13396   6.988   4.410   3.705  0.1600 -0.6630  1.0858
 2597lim     li13397   6.216   3.968   3.133  0.0792 -0.4461  0.1431
 2598lim     li13398   1.513   3.948   0.643 -1.4771  0.1222 -0.9524
 2599lim     li13399   3.718   2.993   6.094  0.2454 -0.0144 -0.6038
 2600lim     li13400   5.943   1.009   4.001  0.4801 -1.1411 -0.0828
 2601lim     li13401   1.990   1.217   1.147 -0.4974 -0.9271 -0.2009
 2602lim     li13402   5.579   0.916   3.349 -0.2470  0.9986 -0.7593
 2603lim     li13403   3.976   4.593   5.304  0.5729  0.4237  0.0311
 2604lim     li13404   0.162   0.128   0.917 -0.2382 -0.0340 -0.2510
 2605lim     li13405   0.828   5.912   5.000  0.6628 -0.0201 -0.7254
 2606lim     li13406   6.213   6.772   7.146 -0.0413  0.3458 -0.1800
 2607lim     li13407   1.785   5.993   4.608 -0.3079  0.3011  0.3228
 2608lim     li13408   7.139   3.029   1.090  0.3108 -1.0572  0.0975
 2609lim     li13409   3.478   1.911   0.729 -1.1720  0.3354  0.6246
 2610lim     li13410   0.060   3.923   5.983 -0.3640 -0.9980 -0.3471
 2611lim     li13411   3.219   2.772   1.136  0.4360  1.3099 -0.5819
 2612lim     li13412   2.933   3.918   3.503 -0.3964 -0.3835  0.4928
 2613lim     li13413   4.685   6.414   0.613 -0.2788 -0.1992  0.8211
 2614lim     li13414   0.917   2.893   2.949 -0.2195  1.5652  1.2125
 2615lim     li13415   3.242   1.479   4.898 -1.6679  0.1757 -0.1949
 2616lim     li13416   0.989   3.879   5.293  0.2668  0.3530  1.0865
 2617lim     li13417   1.032   1.096   4.837 -0.2815  0.2289 -1.0756
 2618lim     li13418   4.428   0.777   6.317 -0.2633  1.5253 -0.1225
 2619lim     li13419   6.382   5.578   6.910 -0.7388  0.0357 -1.2702
 2620lim     li13420   5.140   5.082   6.863  0.5135 -0.6695 -0.1740
 2621lim     li13421   4.158   2.392   3.677 -0.9438 -0.0446 -1.6415
 2622lim     li13422   4.667   1.268   1.968  0.3472  0.4792  0.0036
 2623lim     li13423   4.064   2.040   1.307  0.3559 -1.6581  0.4513
 2624lim     li13424   1.331   4.772   0.418  0.6563  0.3966  0.3865
 2625lim     li13425   7.083   6.055   3.341  0.8705 -0.8293 -0.4729
 2626lim     li13426   6.512   1.850   1.335 -0.5028 -1.2647 -1.5169
 2627lim     li13427   1.207   6.693   4.301  0.3620 -0.4420  0.0554
 2628lim     li13428   2.273   3.043   3.539  0.6985  0.1204 -0.7749
 2629lim     li13429   2.331   0.147   1.314  0.1234 -0.5311  0.9018
 2630lim     li13430   3.480   5.358   6.997  0.5229  1.0196 -0.5211
 2631lim     li13431   3.190   6.711   1.378  0.2729  0.1174 -0.4459
 2632lim     li13432   7.055   5.146   3.406 -0.2256 -0.4554  0.5284
 2633lim     li13433   3.033   4.144   1.706 -1.8288  0.0055  0.5520
 2634lim     li13434   5.192   3.763   4.870  0.9256  0.5924  0.1749
 2635lim     li13435   0.437   0.845   3.855 -1.2979 -0.8339 -0.4611
 2636lim     li13436   5.513   2.665   2.953  0.0301 -0.2979  0.2404
 2637lim     li13437   0.088   4.547   0.506 -0.5340  0.0391 -0.3741
 2638lim     li13438   0.342   1.118   6.824  0.3310  0.3340 -0.1222
 2639lim     li13439   3.860   0.358   5.411 -0.4277  0.3440  0.5637
 2640lim     li13440   6.580   4.237   1.299 -0.2558 -1.2803  0.9228
 2641lim     li13441   6.715   1.652   4.970 -0.3206  0.6842  1.2464
 2642lim     li13442   0.235   0.446   5.821  0.8542  0.0327  0.0150
 2643lim     li13443   0.824   5.017   1.772 -0.7428  0.6190  0.4093
 2644lim     li13444   6.642   5.243   5.325  0.7942  0.8452  0.2729
 2645lim     li13445   2.577   3.611   3.016  0.1180  0.2043 -1.2173
 2646lim     li13446   4.160   1.853   2.992  0.1940 -0.7562 -0.0266
 2647lim     li13447   2.487   2.286   3.590 -0.2281  0.5713  0.6703
 2648lim     li13448   4.272   1.687   7.010  0.0438 -0.6002 -0.5848
 2649lim     li13449   4.563   3.875   4.878 -0.4513 -1.7470  0.2562
 2650lim     li13450   4.584   2.036   4.821  0.8713  2.0393 -0.3023
 2651lim     li13451   0.281   5.536   5.261 -0.7787 -0.0503 -0.8138
 2652lim     li13452   3.399   6.625   5.143 -0.0554 -0.5448 -0.2377
 2653lim     li13453   4.187   3.379   2.947  0.2604  0.8858 -0.0731
 2654lim     li13454   6.756   5.597   2.405  0.5044 -0.3508 -0.4388
 2655lim     li13455   0.474   4.470   3.286 -0.5629  0.8468  0.4349
 2656lim     li13456   2.490   6.701   4.976  0.0143 -0.7307 -0.7768
 2657lim     li13457   4.476   1.557   3.837 -0.0340 -0.3634 -0.9106
 2658lim     li13458   5.904   3.952   6.686  0.3708 -0.4114  0.1467
 2659lim     li13459   2.677   3.438   2.235  0.6947 -0.8803  1.4490
 2660lim     li13460   3.772   5.619   4.879 -0.1553  0.7062  0.9565
 2661lim     li13461   6.625   6.628   3.738 -0.6436 -0.1006  0.4830
 2662lim     li13462   1.835   4.037   1.529  0.4102  0.4856  1.1549
 2663lim     li13463   7.016   2.314   4.178  0.9138 -0.8205 -0.0883
 2664lim     li13464   6.072   5.652   4.128  0.3275 -1.0062 -0.1284
 2665lim     li13465   0.112   6.923   6.606 -0.1223 -0.9139 -0.3472
 2666lim     li13466   6.207   2.425   4.262 -0.0649 -0.3019 -0.2377
 2667lim     li13467   5.868   5.041   5.181  1.4739  0.0713  0.0694
 2668lim     li13468   2.002   5.236   4.484  0.8814 -0.5815  0.1424
 2669lim     li13469   3.641   3.574   2.486  1.3578 -0.2015 -0.1052
 2670lim     li13470   1.436   2.431   1.246  0.3479 -0.0413 -0.3317
 2671lim     li13471   2.022   5.887   3.863 -0.0442  0.0382  0.4245
 2672lim     li13472   5.488   6.730   0.290  0.9259 -0.4295 -1.0990
 2673lim     li13473   1.856   1.922   7.117  0.4792  0.7659 -0.8816
 2674lim     li13474   5.691   2.536   5.381 -0.9348  0.1029 -0.6893
 2675lim     li13475   5.053   3.525   5.845 -0.9617  0.3163  0.2661
 2676lim     li13476   1.482   3.271   4.894 -0.0383  0.9363 -0.6911
 2677lim     li13477   6.091   3.055   5.271 -0.5233 -0.3575 -0.2333
 2678lim     li13478   6.780   0.300   0.359  0.6680  0.1380 -0.6756
 2679lim     li13479   6.286   6.279   5.190 -0.6535  0.1067  0.0212
 2680lim     li13480   4.209   0.558   0.075  0.9531  0.2780 -0.8751
 2681lim     li13481   5.080   1.797   3.743  0.3997  0.2535 -0.7329
 2682lim     li13482   6.157   2.813   0.780  0.2695  0.6061 -0.4309
 2683lim     li13483   5.390   2.159   4.087 -1.6900  1.0549 -0.2390
 2684lim     li13484   2.846   6.123   2.632  0.2591 -1.2740 -0.1518
 2685lim     li13485   2.426   5.992   2.130 -0.3937  1.2049 -0.0925
 2686lim     li13486   2.146   0.821   0.554 -0.3856  1.1621  1.3384
 2687lim     li13487   2.169   4.387   0.198 -0.3868  0.9772 -1.3635
 2688lim     li13488   1.762   3.271   1.279 -0.1648 -0.7412 -1.3269
 2689lim     li13489   1.546   2.624   4.642  0.4699  1.0378  0.7713
 2690lim     li13490   1.530   0.080   0.456  0.4125  0.4617 -0.7715
 2691lim     li13491   3.190   6.166   6.878 -0.4721 -0.9024 -0.0549
 2692lim     li13492   1.747   4.720   5.797 -0.1534 -0.1561  0.2671
 2693lim     li13493   6.846   0.979   4.064  0.6005  1.1195  0.5044
 2694lim     li13494   2.291   3.631   5.790  1.1266  0.1458  0.4080
 2695lim     li13495   3.353   0.922   0.795 -0.1606  0.1910 -0.0449
 2696lim     li13496   5.357   6.407   3.321  1.5721  0.5363  0.3978
 2697lim     li13497   6.112   4.933   3.470 -1.1495  0.0338 -0.0896
 2698lim     li13498   4.805   0.470   0.142 -0.7550  0.3010  0.0566
 2699lim     li13499   6.841   0.768   2.875  0.3920 -0.4921  0.7403
 2700lim     li13500   3.856   2.547   2.137  0.4970  0.2631 -0.5453
 2701ntf    cn113501   4.979   7.046   2.140  0.0028  0.2417  0.0299
 2701ntf    sn213502   5.090   7.050   2.284 -0.0813  0.0241  0.1009
 2701ntf    nn313503   5.218   6.973   2.237  0.0843  0.0665  0.4727
 2701ntf    sn213504   5.281   6.843   2.299  0.1797 -0.1978 -0.1686
 2701ntf    cn113505   5.425   6.913   2.384 -0.1263  0.0428  0.1506
 2701ntf    fn413506   5.033   7.084   2.026  0.2092 -0.4630 -0.1081
 2701ntf    fn413507   4.929   6.926   2.116 -0.2690  0.2663  0.4494
 2701ntf    fn413508   4.876   7.128   2.153  0.2083  0.6220 -0.7243
 2701ntf    on513509   5.122   7.188   2.310 -0.0817  0.0522 -0.0459
 2701ntf    on513510   5.009   6.988   2.386  0.2990 -0.7959 -0.0864
 2701ntf    on513511   5.337   6.751   2.203  0.2625  0.3278 -0.6303
 2701ntf    on513512   5.210   6.783   2.409  0.2745  0.2466  0.1393
 2701ntf    fn413513   5.522   6.932   2.296  0.1279 -0.3783  0.3347
 2701ntf    fn413514   5.400   7.033   2.433  0.5927  0.3172 -0.1346
 2701ntf    fn413515   5.462   6.829   2.480  0.0042  0.0345  0.0937
 2702ntf    cn113516   4.796   4.598   6.080  0.2075 -0.2885  0.5286
 2702ntf    sn213517   4.943   4.701   6.051  0.4070 -0.6712  0.1727
 2702ntf    nn313518   4.985   4.717   6.201 -0.2814 -0.0859  0.3058
 2702ntf    sn213519   4.937   4.824   6.306 -0.1568 -0.1647  0.4425
 2702ntf    cn113520   5.082   4.812   6.415 -0.1101 -0.6502  0.3267
 2702ntf    fn413521   4.733   4.577   5.965 -0.1992  0.6139  0.5760
 2702ntf    fn413522   4.820   4.479   6.132  0.2908 -0.7073 -0.4377
 2702ntf    fn413523   4.698   4.652   6.151  0.0877 -0.0618  0.1971
 2702ntf    on513524   5.032   4.613   5.980  0.5729 -0.4655  0.1262
 2702ntf    on513525   4.902   4.824   5.986  0.5308 -0.7438 -0.0440
 2702ntf    on513526   4.831   4.783   6.394 -0.8232 -0.7365 -0.6118
 2702ntf    on513527   4.935   4.964   6.271  0.0170 -0.1598  0.4494
 2702ntf    fn413528   5.193   4.826   6.345 -0.2013  0.3928  0.3887
 2702ntf    fn413529   5.087   4.898   6.516  0.1862 -0.0062 -0.2342
 2702ntf    fn413530   5.105   4.690   6.463  0.3423 -0.6185  0.1984
 2703ntf    cn113531   5.820   3.876   4.563  0.1128 -0.1449 -0.1592
 2703ntf    sn213532   5.882   4.020   4.655  0.0916 -0.2494  0.0198
 2703ntf    nn313533   5.874   3.972   4.804 -0.1035 -0.0753  0.0662
 2703ntf    sn213534   5.990   3.902   4.883  0.2493 -0.0666 -0.4408
 2703ntf    cn113535   5.898   3.751   4.926  0.3375 -0.1947 -0.6976
 2703ntf    fn413536   5.893   3.771   4.594  0.1140 -0.1460 -0.1651
 2703ntf    fn413537   5.693   3.847   4.581  0.0522  0.1085 -0.1688
 2703ntf    fn413538   5.838   3.891   4.432 -0.2162  0.0915 -0.1770
 2703ntf    on513539   6.013   4.038   4.598  0.0073  0.1045 -0.0708
 2703ntf    on513540   5.780   4.119   4.629 -0.2554 -0.5538  0.2151
 2703ntf    on513541   6.016   3.960   5.012  0.5354 -0.0681 -0.4960
 2703ntf    on513542   6.103   3.843   4.815  0.5316  0.0809 -0.1014
 2703ntf    fn413543   5.839   3.703   4.817 -0.8229  0.4692 -0.3786
 2703ntf    fn413544   5.977   3.655   4.971 -0.2153 -0.2664  0.1324
 2703ntf    fn413545   5.807   3.772   5.019  0.6543 -0.2916 -0.3659
 2704ntf    cn113546   6.852   5.191   4.770 -0.3414  0.4344  0.3179
 2704ntf    sn213547   6.766   5.033   4.742  0.2524  0.1641  0.0061
 2704ntf    nn313548   6.633   5.052   4.823 -0.0764 -0.7680 -0.2957
 2704ntf    sn213549   6.588   4.977   4.953 -0.5574 -0.0962 -0.0690
 2704ntf    cn113550   6.550   4.818   4.874  0.3585 -0.3582  0.0059
 2704ntf    fn413551   6.802   5.302   4.719 -0.3329  0.1613 -0.2873
 2704ntf    fn413552   6.878   5.212   4.898  0.1508 -0.5230  0.3834
 2704ntf    fn413553   6.969   5.185   4.708 -0.5063 -0.4708  0.0845
 2704ntf    on513554   6.743   5.043   4.600  0.1169 -0.1315  0.0066
 2704ntf    on513555   6.861   4.932   4.784  0.2234 -0.0228 -0.3690
 2704ntf    on513556   6.466   5.025   5.015 -0.1338  0.3750  0.4132
 2704ntf    on513557   6.695   4.951   5.045 -0.0384 -0.1487 -0.6847
 2704ntf    fn413558   6.478   4.825   4.763 -0.3168 -0.3946  0.4300
 2704ntf    fn413559   6.665   4.757   4.855  0.4007 -0.2666 -0.0289
 2704ntf    fn413560   6.484   4.736   4.956  0.0456 -0.0948  0.0183
 2705ntf    cn113561   5.540   3.348   1.814 -0.3968  0.1016 -0.2725
 2705ntf    sn213562   5.442   3.497   1.852 -0.1446  0.1407  0.2368
 2705ntf    nn313563   5.537   3.611   1.802  0.0387 -0.0328  0.1885
 2705ntf    sn213564   5.572   3.740   1.883  0.1193  0.3131 -0.3952
 2705ntf    cn113565   5.413   3.815   1.927 -0.1356 -0.5090  0.0925
 2705ntf    fn413566   5.564   3.327   1.686  0.2985  0.1634 -0.1582
 2705ntf    fn413567   5.658   3.364   1.873 -0.1241 -0.0228 -0.7770
 2705ntf    fn413568   5.495   3.233   1.860 -0.0203  0.2567  0.5118
 2705ntf    on513569   5.328   3.478   1.766  0.1816  0.0144 -0.1694
 2705ntf    on513570   5.417   3.486   1.994  0.3590  0.0780  0.3246
 2705ntf    on513571   5.640   3.837   1.800 -0.2098  0.6256 -0.3017
 2705ntf    on513572   5.640   3.711   2.006 -0.8279 -0.3973 -0.0299
 2705ntf    fn413573   5.352   3.745   2.021 -0.1812 -0.3079  0.2127
 2705ntf    fn413574   5.422   3.937   1.978  0.2047 -0.6145  0.2918
 2705ntf    fn413575   5.338   3.820   1.818 -0.1059 -0.5355  0.0712
 2706ntf    cn113576   0.371   3.250   4.111  0.1804 -0.2817  0.1694
 2706ntf    sn213577   0.334   3.379   3.989  0.0928 -0.1039  0.3820
 2706ntf    nn313578   0.464   3.373   3.900 -0.1173 -0.3105  0.0860
 2706ntf    sn213579   0.486   3.307   3.760  0.1383 -0.3243  0.1326
 2706ntf    cn113580   0.578   3.156   3.802 -0.0064 -0.4753 -0.0907
 2706ntf    fn413581   0.266   3.222   4.187  0.1171  0.3270  0.3116
 2706ntf    fn413582   0.405   3.134   4.059 -0.8154 -0.7093  0.4458
 2706ntf    fn413583   0.470   3.286   4.190  0.1985 -0.0824  0.0557
 2706ntf    on513584   0.211   3.328   3.935  0.2161  0.1360 -0.1347
 2706ntf    on513585   0.347   3.499   4.068 -0.7137  0.4641 -0.3222
 2706ntf    on513586   0.581   3.391   3.691  0.0861 -0.4674 -0.1176
 2706ntf    on513587   0.368   3.265   3.690  0.4036  0.1858 -0.6407
 2706ntf    fn413588   0.491   3.084   3.872  0.1325 -0.6772 -0.1233
 2706ntf    fn413589   0.606   3.081   3.697  0.0999  0.0904 -0.4665
 2706ntf    fn413590   0.689   3.180   3.870 -0.4154 -0.0415  0.4258
 2707ntf    cn113591   6.206   2.614   4.914 -0.4583 -0.2589  0.3371
 2707ntf    sn213592   6.215   2.770   4.822 -0.3652 -0.2355  0.3855
 2707ntf    nn313593   6.062   2.795   4.796 -0.0140  0.8049 -0.8284
 2707ntf    sn213594   5.966   2.740   4.685 -0.5209  0.2585 -0.1278
 2707ntf    cn113595   5.995   2.865   4.556  0.1559  0.0469 -0.1845
 2707ntf    fn413596   6.306   2.533   4.885  0.0043  0.2387  0.5431
 2707ntf    fn413597   6.187   2.636   5.043 -0.2034  0.1114  0.3137
 2707ntf    fn413598   6.097   2.546   4.881 -0.4642 -0.2107  0.2543
 2707ntf    on513599   6.268   2.870   4.911 -0.0335  0.2428 -0.3333
 2707ntf    on513600   6.291   2.741   4.703  0.0887 -0.0385  0.6267
 2707ntf    on513601   5.826   2.758   4.718 -0.5323  0.3673 -0.2354
 2707ntf    on513602   5.999   2.614   4.624  0.1440  0.3914 -0.0448
 2707ntf    fn413603   6.000   2.985   4.612  0.0953 -0.2387  0.4471
 2707ntf    fn413604   6.109   2.852   4.490  0.5074 -0.1621  0.4549
 2707ntf    fn413605   5.902   2.863   4.462 -0.3801 -0.1017  0.3371
 2708ntf    cn113606   6.386   2.504   3.265 -0.1266 -0.3881 -0.1587
 2708ntf    sn213607   6.299   2.634   3.356  0.2380 -0.2623  0.0120
 2708ntf    nn313608   6.193   2.545   3.431 -0.0658  0.2402  0.1909
 2708ntf    sn213609   6.166   2.539   3.585 -0.1283  0.4042  0.1857
 2708ntf    cn113610   6.095   2.372   3.596 -0.3968  0.5307  0.3788
 2708ntf    fn413611   6.319   2.431   3.177 -0.3873 -0.1984 -0.1174
 2708ntf    fn413612   6.487   2.547   3.190 -0.1568 -0.4707 -0.2482
 2708ntf    fn413613   6.447   2.421   3.348  0.3756 -0.2586 -0.3974
 2708ntf    on513614   6.409   2.692   3.428  0.1149  0.3336 -0.2704
 2708ntf    on513615   6.244   2.719   3.253  0.5577  0.0639  0.1097
 2708ntf    on513616   6.057   2.629   3.616 -0.3720  0.1906 -0.0563
 2708ntf    on513617   6.287   2.526   3.663  0.2125  0.4037 -0.3437
 2708ntf    fn413618   6.145   2.311   3.702  0.3875  0.1775 -0.1914
 2708ntf    fn413619   5.969   2.365   3.636 -0.3866 -0.1283  0.3004
 2708ntf    fn413620   6.110   2.283   3.500 -0.0765  0.1183  0.8084
 2709ntf    cn113621   1.803   7.138   4.848 -0.0742 -0.0222 -0.0481
 2709ntf    sn213622   1.909   6.991   4.829  0.0838  0.0523  0.2527
 2709ntf    nn313623   1.848   6.919   4.703  0.0352 -0.1316  0.3812
 2709ntf    sn213624   1.832   6.766   4.675  0.2193 -0.0561 -0.1644
 2709ntf    cn113625   1.885   6.746   4.502 -0.0033 -0.1276 -0.2242
 2709ntf    fn413626   1.854   7.216   4.942 -0.1914  0.1197 -0.1026
 2709ntf    fn413627   1.815   7.205   4.734  0.3164  0.0614  0.0407
 2709ntf    fn413628   1.678   7.112   4.881  0.0992 -0.5567  0.1972
 2709ntf    on513629   2.036   7.055   4.804  0.1711 -0.1199  0.2558
 2709ntf    on513630   1.891   6.922   4.954  0.3357 -0.0263  0.2469
 2709ntf    on513631   1.700   6.709   4.681  0.2371 -0.0532  0.2807
 2709ntf    on513632   1.936   6.689   4.740  0.1776 -0.1900 -0.2579
 2709ntf    fn413633   2.003   6.692   4.478  0.0754 -0.0005 -0.1242
 2709ntf    fn413634   1.810   6.656   4.441 -0.1387  0.5059 -1.0051
 2709ntf    fn413635   1.887   6.862   4.439  0.0727  0.1977  0.3630
 2710ntf    cn113636   0.751   4.824   2.846  0.2177  0.0028 -0.2135
 2710ntf    sn213637   0.675   4.881   3.001 -0.1301 -0.1633 -0.3223
 2710ntf    nn313638   0.808   4.907   3.080 -0.3360  0.0708 -0.0527
 2710ntf    sn213639   0.831   4.936   3.233 -0.0746  0.2216 -0.1191
 2710ntf    cn113640   0.924   4.789   3.285 -0.3424  0.2303  0.3868
 2710ntf    fn413641   0.664   4.801   2.749 -0.4634  0.7033  0.2218
 2710ntf    fn413642   0.834   4.911   2.789  0.1024  0.2553  0.0034
 2710ntf    fn413643   0.825   4.715   2.861  0.5695  0.3115  0.3197
 2710ntf    on513644   0.607   5.003   2.967  0.0529 -0.0017 -0.1110
 2710ntf    on513645   0.590   4.774   3.045 -0.2707  0.3067  0.5604
 2710ntf    on513646   0.711   4.938   3.312 -0.0821 -0.4685 -0.1055
 2710ntf    on513647   0.921   5.046   3.256 -0.1912  0.4517 -0.7382
 2710ntf    fn413648   0.903   4.754   3.411  0.3053 -0.1362  0.3965
 2710ntf    fn413649   0.889   4.682   3.214 -0.6150  0.1808  0.5923
 2710ntf    fn413650   1.055   4.801   3.273 -0.3560 -0.0122 -0.0305
 2711ntf    cn113651   2.979   6.381   1.058  0.2632 -0.3323 -0.2706
 2711ntf    sn213652   3.146   6.416   0.993  0.2068  0.6008  0.0878
 2711ntf    nn313653   3.131   6.364   0.846  0.4294  0.3728  0.1460
 2711ntf    sn213654   3.237   6.295   0.752 -0.0908 -0.1821 -0.0388
 2711ntf    cn113655   3.199   6.334   0.579 -0.1779 -0.2465 -0.0343
 2711ntf    fn413656   2.935   6.261   1.024  0.3611 -0.3875 -0.2059
 2711ntf    fn413657   2.955   6.396   1.187 -0.1022  0.5576 -0.4351
 2711ntf    fn413658   2.874   6.447   1.013  0.2350 -0.2638 -0.1029
 2711ntf    on513659   3.149   6.560   1.004  1.0325  0.6047 -0.1464
 2711ntf    on513660   3.235   6.345   1.081  0.2243 -0.6902 -0.9421
 2711ntf    on513661   3.229   6.152   0.758  0.2139 -0.2168 -0.4493
 2711ntf    on513662   3.368   6.351   0.775 -0.3855  0.6417 -0.3009
 2711ntf    fn413663   3.072   6.311   0.549 -0.2151 -0.1992  0.0864
 2711ntf    fn413664   3.224   6.460   0.546 -0.1699 -0.2696 -0.1174
 2711ntf    fn413665   3.264   6.254   0.496 -0.5854 -0.8357  0.2055
 2712ntf    cn113666   4.107   4.036   6.731 -0.2390 -0.1141  0.3125
 2712ntf    sn213667   4.009   3.997   6.879 -0.1112  0.0134  0.4309
 2712ntf    nn313668   4.105   3.892   6.947  0.3217 -0.0614 -0.2777
 2712ntf    sn213669   4.108   3.736   6.960  0.0371 -0.0545 -0.1205
 2712ntf    cn113670   3.994   3.704   7.098  0.1245 -0.4161 -0.1308
 2712ntf    fn413671   4.108   3.931   6.651 -0.2566  0.5195 -0.5456
 2712ntf    fn413672   4.056   4.142   6.668 -0.2040 -0.3189 -0.0648
 2712ntf    fn413673   4.231   4.069   6.764 -0.0911  0.4831 -0.7713
 2712ntf    on513674   3.987   4.124   6.943 -0.3364  0.2158 -0.0416
 2712ntf    on513675   3.893   3.940   6.815  0.2480 -0.2091 -0.0329
 2712ntf    on513676   4.238   3.687   6.998 -0.0645  0.1447  0.5003
 2712ntf    on513677   4.044   3.668   6.849 -0.6641 -0.0198  0.2594
 2712ntf    fn413678   3.957   3.579   7.124 -0.1654 -0.2012  0.5117
 2712ntf    fn413679   4.041   3.745   7.214 -0.2112 -0.2991 -0.0334
 2712ntf    fn413680   3.876   3.759   7.072  0.7388  0.8882 -0.2274
 2713ntf    cn113681   5.676   4.488   3.000  0.1726 -0.4409  0.0868
 2713ntf    sn213682   5.653   4.528   3.176 -0.1398 -0.0510 -0.0430
 2713ntf    nn313683   5.524   4.445   3.208 -0.0804 -0.2897 -0.4104
 2713ntf    sn213684   5.483   4.332   3.309  0.0181 -0.0331 -0.0787
 2713ntf    cn113685   5.489   4.194   3.190  0.0927 -0.0962 -0.0022
 2713ntf    fn413686   5.562   4.510   2.937 -0.1547 -0.3097  0.7156
 2713ntf    fn413687   5.777   4.556   2.948  0.3017 -0.5257  0.2266
 2713ntf    fn413688   5.717   4.363   2.979  0.0613 -0.3951 -0.4095
 2713ntf    on513689   5.771   4.476   3.241  0.1978  0.4138 -0.2705
 2713ntf    on513690   5.625   4.669   3.171 -0.1102 -0.0481 -0.1451
 2713ntf    on513691   5.343   4.329   3.341  0.1469  0.1355  0.5130
 2713ntf    on513692   5.573   4.309   3.419  0.5612 -0.1715 -0.5464
 2713ntf    fn413693   5.401   4.205   3.092 -0.3047  0.2198  0.3851
 2713ntf    fn413694   5.606   4.180   3.129  0.2773 -0.0940  0.3451
 2713ntf    fn413695   5.463   4.076   3.245  0.2235 -0.0232  0.2190
 2714ntf    cn113696   3.391   3.049   2.627 -0.5774 -0.3060  0.0619
 2714ntf    sn213697   3.540   2.965   2.565 -0.4068  0.1149 -0.0990
 2714ntf    nn313698   3.513   2.978   2.411 -0.5860  0.3522 -0.0486
 2714ntf    sn213699   3.494   2.867   2.302 -0.1302  0.3748 -0.1509
 2714ntf    cn113700   3.516   2.970   2.154 -0.2662  0.3443 -0.1920
 2714ntf    fn413701   3.369   3.159   2.557  0.1270 -0.2429 -0.0683
 2714ntf    fn413702   3.275   2.987   2.608 -0.5343 -0.4050  0.1219
 2714ntf    fn413703   3.411   3.081   2.754 -0.1901 -0.6479  0.0888
 2714ntf    on513704   3.645   3.055   2.606 -0.3256 -0.1493  0.2761
 2714ntf    on513705   3.541   2.834   2.623  0.2560 -0.0052 -0.3800
 2714ntf    on513706   3.357   2.825   2.290  0.0140 -0.1787  0.1204
 2714ntf    on513707   3.594   2.763   2.293 -0.7401 -0.2725  0.5128
 2714ntf    fn413708   3.626   3.043   2.161 -0.0402 -0.0128  0.0248
 2714ntf    fn413709   3.533   2.897   2.044 -0.2628  0.1968 -0.0935
 2714ntf    fn413710   3.418   3.053   2.123 -0.3279  0.3909  0.1253
 2715ntf    cn113711   4.760   6.842   4.407 -0.2659 -0.4589  0.0262
 2715ntf    sn213712   4.822   6.707   4.302  0.1238 -0.0991 -0.2056
 2715ntf    nn313713   4.760   6.740   4.161  0.0150 -0.3632 -0.2197
 2715ntf    sn213714   4.616   6.700   4.114 -0.1400  0.0315 -0.0876
 2715ntf    cn113715   4.590   6.830   3.988  0.1215 -0.3210 -0.5068
 2715ntf    fn413716   4.649   6.810   4.472 -0.6093  0.7946  0.0901
 2715ntf    fn413717   4.844   6.881   4.500 -0.3461  0.2394 -0.1891
 2715ntf    fn413718   4.736   6.947   4.330  0.8956 -0.1257  0.0999
 2715ntf    on513719   4.965   6.723   4.297  0.1049  0.0404 -0.3101
 2715ntf    on513720   4.770   6.585   4.358 -0.7717  0.4601  0.2147
 2715ntf    on513721   4.505   6.721   4.204  0.0473 -0.0565  0.1639
 2715ntf    on513722   4.609   6.573   4.047  0.8884  0.2166 -0.5675
 2715ntf    fn413723   4.690   6.831   3.901  0.4092 -0.5619 -0.1847
 2715ntf    fn413724   4.475   6.815   3.924 -0.1468 -0.0239 -0.0968
 2715ntf    fn413725   4.584   6.948   4.047  0.2712 -0.6828  0.2609
 2716ntf    cn113726   6.143   2.505   0.357 -0.2171 -0.3645  0.6282
 2716ntf    sn213727   6.061   2.667   0.366 -0.0273 -0.2365  0.0387
 2716ntf    nn313728   5.931   2.645   0.451 -0.1634  0.2314 -0.0408
 2716ntf    sn213729   5.797   2.726   0.439 -0.0388  0.4415 -0.0208
 2716ntf    cn113730   5.702   2.633   0.315 -0.0388  0.0423  0.2756
 2716ntf    fn413731   6.186   2.468   0.477 -0.3125  0.0202  0.7857
 2716ntf    fn413732   6.066   2.409   0.310  0.0433 -0.2972  0.0546
 2716ntf    fn413733   6.250   2.508   0.281 -0.3090  0.4404  0.5240
 2716ntf    on513734   6.155   2.750   0.436 -0.5330  0.0120  0.4298
 2716ntf    on513735   6.031   2.700   0.228  0.4324  0.4909  0.1047
 2716ntf    on513736   5.809   2.860   0.388  0.5189  0.2833 -0.3126
 2716ntf    on513737   5.720   2.723   0.560 -0.6871 -0.1191 -0.4384
 2716ntf    fn413738   5.745   2.641   0.190  0.3371 -0.8688  0.3420
 2716ntf    fn413739   5.707   2.504   0.340 -0.3603 -0.0319 -0.0244
 2716ntf    fn413740   5.576   2.674   0.314  0.0527  0.3195  0.0448
 2717ntf    cn113741   5.913   6.511   0.310  0.0081 -0.0007  0.2098
 2717ntf    sn213742   5.872   6.359   0.218  0.4638 -0.1159  0.1973
 2717ntf    nn313743   6.010   6.328   0.149  0.5748  1.1947 -0.1868
 2717ntf    sn213744   6.043   6.268   0.007 -0.1223  0.1560  0.0807
 2717ntf    cn113745   6.156   6.132   0.048 -0.1333  0.0829 -0.1293
 2717ntf    fn413746   5.812   6.556   0.382  0.2249  0.3517  0.2933
 2717ntf    fn413747   6.016   6.489   0.390 -0.0064  0.0077  0.2306
 2717ntf    fn413748   5.946   6.613   0.232 -0.1941 -0.1170 -0.0310
 2717ntf    on513749   5.824   6.270   0.321 -0.4594 -0.1293 -0.2444
 2717ntf    on513750   5.774   6.401   0.121  0.8116 -0.2793 -0.2299
 2717ntf    on513751   6.121   6.355  -0.077 -0.1268  0.0603 -0.0207
 2717ntf    on513752   5.929   6.202  -0.051 -0.2731  0.3598  0.1393
 2717ntf    fn413753   6.173   6.043  -0.048 -0.1855 -0.4404  0.3373
 2717ntf    fn413754   6.273   6.168   0.098 -0.3798  0.3284  0.2821
 2717ntf    fn413755   6.094   6.058   0.139  0.3724  0.0270  0.1760
 2718ntf    cn113756   4.581   4.139   1.734 -0.0727  0.1949  0.2703
 2718ntf    sn213757   4.705   4.032   1.815 -0.1460 -0.0859  0.0142
 2718ntf    nn313758   4.841   4.108   1.795 -0.0417 -0.2681  0.0317
 2718ntf    sn213759   4.943   4.178   1.891 -0.1153 -0.1272  0.0084
 2718ntf    cn113760   5.025   4.025   1.943  0.3939  0.1052 -0.1012
 2718ntf    fn413761   4.458   4.096   1.756 -0.0995  0.3374  0.4018
 2718ntf    fn413762   4.588   4.265   1.774 -0.5605  0.4575 -0.4411
 2718ntf    fn413763   4.596   4.144   1.602  0.4244 -0.5889  0.2869
 2718ntf    on513764   4.663   4.037   1.953 -0.3540 -0.0195 -0.0508
 2718ntf    on513765   4.698   3.911   1.738 -0.3797  0.3669 -0.6939
 2718ntf    on513766   4.882   4.238   2.007  0.5336  0.2690  0.1476
 2718ntf    on513767   5.047   4.253   1.825  0.0758  0.2596  0.7304
 2718ntf    fn413768   4.933   3.930   1.949 -0.1926  0.7000  0.3763
 2718ntf    fn413769   5.129   3.988   1.871  0.7367 -0.0965  0.4896
 2718ntf    fn413770   5.069   4.044   2.066  0.0689  0.2413 -0.0055
 2719ntf    cn113771   5.250   5.499   3.117  0.2193 -0.1096  0.2902
 2719ntf    sn213772   5.292   5.353   3.017 -0.0199  0.2629 -0.3554
 2719ntf    nn313773   5.402   5.302   3.116  0.4182 -0.1569 -1.0531
 2719ntf    sn213774   5.557   5.322   3.128  0.2885  0.2356  0.0389
 2719ntf    cn113775   5.634   5.185   3.036 -0.1590 -0.2307  0.3508
 2719ntf    fn413776   5.155   5.569   3.058  0.1565 -0.4091  0.0384
 2719ntf    fn413777   5.189   5.465   3.230 -0.2442  0.2897  0.1634
 2719ntf    fn413778   5.356   5.578   3.130  0.0890  0.1656 -0.2959
 2719ntf    on513779   5.178   5.266   3.036  0.6243 -0.4683  0.2063
 2719ntf    on513780   5.322   5.403   2.885 -0.7586  0.1767 -0.5642
 2719ntf    on513781   5.614   5.294   3.258  0.2984  1.6803  0.3538
 2719ntf    on513782   5.605   5.440   3.062  0.5681  0.3713  0.4807
 2719ntf    fn413783   5.600   5.063   3.076  0.0142 -0.1671  0.6930
 2719ntf    fn413784   5.621   5.192   2.904 -0.1471  0.3154  0.3751
 2719ntf    fn413785   5.765   5.182   3.054 -0.0628 -0.3980 -0.3406
 2720ntf    cn113786   3.757   6.599   4.861 -0.2132  0.3386  0.0840
 2720ntf    sn213787   3.729   6.769   4.804 -0.2925  0.4215  0.3673
 2720ntf    nn313788   3.789   6.850   4.925 -0.4202  0.2899  0.5193
 2720ntf    sn213789   3.924   6.929   4.935 -0.2290  0.0570 -0.1416
 2720ntf    cn113790   4.010   6.835   5.064 -0.3118  0.1715 -0.0022
 2720ntf    fn413791   3.882   6.557   4.857 -0.2354  0.2382  0.3730
 2720ntf    fn413792   3.727   6.578   4.989  0.1742 -0.3836  0.0650
 2720ntf    fn413793   3.690   6.515   4.783  0.0720  0.3801 -0.2069
 2720ntf    on513794   3.802   6.774   4.680 -0.5440 -0.1018  0.1933
 2720ntf    on513795   3.585   6.765   4.798 -0.2799  0.4552  0.0452
 2720ntf    on513796   3.917   7.062   4.990 -0.0122  0.0523 -0.1031
 2720ntf    on513797   4.015   6.914   4.825  0.1485  0.1871  0.1516
 2720ntf    fn413798   4.128   6.888   5.090  0.3823 -0.9539 -0.7447
 2720ntf    fn413799   3.940   6.835   5.176 -0.2963 -0.3244  0.0115
 2720ntf    fn413800   4.031   6.712   5.020 -0.2342  0.1604  0.0649
 2721ntf    cn113801   0.821   3.079   2.269 -0.2722  0.2653  0.0960
 2721ntf    sn213802   0.702   3.102   2.134 -0.5209  0.1994  0.3038
 2721ntf    nn313803   0.643   3.241   2.175  0.3720  0.4897  0.6155
 2721ntf    sn213804   0.511   3.304   2.117  0.0667 -0.4468  0.2865
 2721ntf    cn113805   0.583   3.376   1.966 -0.0062 -0.4353  0.2571
 2721ntf    fn413806   0.761   3.101   2.385  0.2350  0.1674  0.3815
 2721ntf    fn413807   0.881   2.961   2.283  0.0349  0.3444 -0.5337
 2721ntf    fn413808   0.915   3.172   2.263  0.1999 -0.2206 -0.2159
 2721ntf    on513809   0.790   3.099   2.020 -0.6449 -0.3203  0.2184
 2721ntf    on513810   0.602   2.999   2.147 -0.4767  0.1308  0.0982
 2721ntf    on513811   0.470   3.414   2.200  0.3816  0.2940 -0.5179
 2721ntf    on513812   0.410   3.212   2.072 -0.5485  0.2434  0.2429
 2721ntf    fn413813   0.631   3.283   1.886  0.7308 -0.5151  0.7734
 2721ntf    fn413814   0.499   3.448   1.894  0.0454  0.0288  0.6558
 2721ntf    fn413815   0.684   3.458   1.993 -0.0386 -0.1877 -0.3717
 2722ntf    cn113816   2.776   2.937   3.133 -0.1459  0.2998  0.5492
 2722ntf    sn213817   2.918   2.862   3.218  0.0549 -0.1188 -0.1506
 2722ntf    nn313818   2.918   2.724   3.144 -0.6081  0.0760 -0.5172
 2722ntf    sn213819   2.996   2.679   3.015  0.4023  0.0432  0.1023
 2722ntf    cn113820   2.930   2.511   2.995 -0.1671  0.3251 -0.4196
 2722ntf    fn413821   2.762   3.066   3.162 -0.2140  0.3468  0.3044
 2722ntf    fn413822   2.784   2.934   3.001  0.7628 -0.0183  0.6051
 2722ntf    fn413823   2.661   2.881   3.168  0.1651  0.1309  1.3326
 2722ntf    on513824   3.036   2.936   3.183 -0.1235  0.1814 -0.1172
 2722ntf    on513825   2.879   2.862   3.357 -0.6494  0.3618 -0.3450
 2722ntf    on513826   3.139   2.662   3.029  0.4294  0.3855  0.2350
 2722ntf    on513827   2.945   2.743   2.897  0.3149 -0.0932  0.0656
 2722ntf    fn413828   2.932   2.442   3.108 -0.6896 -0.0327 -0.6270
 2722ntf    fn413829   2.806   2.503   2.952 -0.3757 -0.2775  0.2724
 2722ntf    fn413830   2.997   2.441   2.904  0.1326 -0.1305  0.1380
 2723ntf    cn113831   6.775   1.388   2.386  0.1178 -0.4515  0.4034
 2723ntf    sn213832   6.877   1.305   2.260  0.2774  0.4627 -0.0757
 2723ntf    nn313833   6.790   1.178   2.229  0.5994  0.2792 -0.2207
 2723ntf    sn213834   6.666   1.163   2.134  0.4502  0.3504 -0.0354
 2723ntf    cn113835   6.729   1.080   1.986  0.0889 -0.1488  0.0885
 2723ntf    fn413836   6.852   1.473   2.451  0.2624 -0.5871  0.4087
 2723ntf    fn413837   6.685   1.467   2.329  0.5090 -0.2259  0.0924
 2723ntf    fn413838   6.708   1.313   2.473 -0.1589 -0.2507  0.3642
 2723ntf    on513839   6.878   1.403   2.154 -0.4589  0.2575 -0.2819
 2723ntf    on513840   7.004   1.270   2.316  0.2990 -0.2492 -0.5570
 2723ntf    on513841   6.607   1.284   2.082 -0.2392 -0.3190 -0.8485
 2723ntf    on513842   6.576   1.062   2.185  0.2073  0.1596 -0.8307
 2723ntf    fn413843   6.781   1.169   1.903 -0.0511  0.2400  0.4144
 2723ntf    fn413844   6.823   0.990   2.011  0.3182 -0.0046 -0.2484
 2723ntf    fn413845   6.636   1.015   1.917  0.0650 -0.1330  0.1061
 2724ntf    cn113846   3.522   2.096   2.826 -0.1977 -0.0530 -0.3304
 2724ntf    sn213847   3.541   1.954   2.714  0.7391  0.0591 -0.3290
 2724ntf    nn313848   3.450   2.008   2.598  0.0700 -0.0070  0.1581
 2724ntf    sn213849   3.293   2.019   2.596  0.0696 -0.0193  0.1283
 2724ntf    cn113850   3.244   1.873   2.500 -0.1675  0.2708 -0.2001
 2724ntf    fn413851   3.585   2.078   2.941 -0.2942  0.2286 -0.2332
 2724ntf    fn413852   3.567   2.209   2.773  0.1468 -0.0692 -0.0761
 2724ntf    fn413853   3.398   2.122   2.863  0.0816  0.1495  0.4784
 2724ntf    on513854   3.677   1.951   2.668  0.6792 -0.5427 -0.4753
 2724ntf    on513855   3.503   1.835   2.786  0.5177  0.2494 -0.1272
 2724ntf    on513856   3.249   2.132   2.517 -0.4758 -0.6538 -0.4824
 2724ntf    on513857   3.220   1.995   2.718 -0.0524 -0.3805 -0.0151
 2724ntf    fn413858   3.115   1.855   2.476 -0.1331  0.0932 -0.2540
 2724ntf    fn413859   3.308   1.869   2.385 -0.4704 -0.0982 -0.3584
 2724ntf    fn413860   3.290   1.765   2.562  0.1649  0.6261  0.1807
 2725ntf    cn113861   1.883   0.075   4.299  0.2840 -0.2292 -0.3531
 2725ntf    sn213862   1.956   0.234   4.349  0.1578 -0.2287 -0.1711
 2725ntf    nn313863   2.083   0.196   4.434  0.5026 -0.5491 -0.8223
 2725ntf    sn213864   2.222   0.260   4.398  0.2343  0.4745 -0.0976
 2725ntf    cn113865   2.320   0.196   4.537 -0.0311  0.5087  0.1071
 2725ntf    fn413866   1.882  -0.013   4.398 -0.1257  0.1847  0.0141
 2725ntf    fn413867   1.760   0.091   4.255  0.0514 -0.8628  0.0434
 2725ntf    fn413868   1.950   0.017   4.200  0.6217 -0.0497 -0.2323
 2725ntf    on513869   1.978   0.311   4.230 -0.6947 -0.0837 -0.2436
 2725ntf    on513870   1.846   0.288   4.426 -0.1593 -0.7207 -0.2750
 2725ntf    on513871   2.232   0.401   4.425  0.2581  0.3542  0.5480
 2725ntf    on513872   2.286   0.203   4.282  0.6644 -0.5426  0.6163
 2725ntf    fn413873   2.299   0.252   4.655 -0.0182  0.1502  0.2834
 2725ntf    fn413874   2.304   0.066   4.560  0.4489  0.3389 -0.4849
 2725ntf    fn413875   2.451   0.210   4.524 -0.0444  0.7658  0.2442
 2726ntf    cn113876   3.504   1.390   3.351 -0.3324  0.0217  0.0508
 2726ntf    sn213877   3.520   1.482   3.507  0.1276  0.0396 -0.0044
 2726ntf    nn313878   3.627   1.400   3.587 -0.1254 -0.0494  0.2452
 2726ntf    sn213879   3.604   1.278   3.684 -0.3550 -0.1173  0.1063
 2726ntf    cn113880   3.580   1.364   3.843 -0.0202  0.1408  0.0184
 2726ntf    fn413881   3.435   1.446   3.253 -0.1121 -0.4816 -0.4033
 2726ntf    fn413882   3.628   1.369   3.309 -0.6272 -0.6205 -0.5220
 2726ntf    fn413883   3.446   1.273   3.372  0.1577 -0.2772 -0.2066
 2726ntf    on513884   3.566   1.612   3.465  0.1755  0.2580  0.7152
 2726ntf    on513885   3.387   1.473   3.563 -0.1149 -0.5293 -0.6476
 2726ntf    on513886   3.729   1.211   3.706 -0.1214  0.2863  0.0301
 2726ntf    on513887   3.489   1.195   3.659 -0.2579 -0.3083  0.2900
 2726ntf    fn413888   3.686   1.377   3.922 -0.1264 -0.3470  0.2431
 2726ntf    fn413889   3.530   1.485   3.827 -0.4757 -0.0373  0.0936
 2726ntf    fn413890   3.479   1.299   3.898  0.2452 -0.1314  0.1849
 2727ntf    cn113891   0.925   4.726   5.262 -0.0034 -0.2194  0.1741
 2727ntf    sn213892   0.782   4.694   5.155 -0.0462  0.0157  0.1592
 2727ntf    nn313893   0.783   4.537   5.150 -0.2337  0.0281 -0.2555
 2727ntf    sn213894   0.786   4.435   5.030  0.0642 -0.3234  0.0517
 2727ntf    cn113895   0.684   4.297   5.091 -0.2304 -0.0526  0.1695
 2727ntf    fn413896   1.031   4.656   5.223  0.3134 -0.0528  0.7195
 2727ntf    fn413897   0.948   4.857   5.263  0.2880 -0.2682 -0.0167
 2727ntf    fn413898   0.895   4.685   5.384  0.2805  0.2090  0.3902
 2727ntf    on513899   0.675   4.744   5.238 -0.3114 -0.6073  0.2038
 2727ntf    on513900   0.817   4.762   5.033 -0.0859 -0.2603 -0.0091
 2727ntf    on513901   0.916   4.376   5.012  0.1100 -0.4087  0.6142
 2727ntf    on513902   0.715   4.484   4.915 -0.2664  0.2869  0.5106
 2727ntf    fn413903   0.686   4.198   5.004  0.3726  0.5160 -0.4770
 2727ntf    fn413904   0.719   4.243   5.207  0.1163  0.1546  0.1641
 2727ntf    fn413905   0.554   4.320   5.099 -0.2524 -0.1840  0.1964
 2728ntf    cn113906   1.321   1.465   3.312 -0.8226  0.2521  0.1391
 2728ntf    sn213907   1.298   1.571   3.458 -0.1626  0.1552  0.3180
 2728ntf    nn313908   1.337   1.709   3.395  0.2277 -0.0894  0.0251
 2728ntf    sn213909   1.261   1.815   3.307  0.0290 -0.4051 -0.1860
 2728ntf    cn113910   1.362   1.812   3.156 -0.1036  0.1918 -0.2875
 2728ntf    fn413911   1.235   1.507   3.220  0.2102  0.5231 -0.7224
 2728ntf    fn413912   1.446   1.476   3.271 -0.7853 -0.7353 -0.0492
 2728ntf    fn413913   1.297   1.338   3.338  0.3367  0.0087  0.0692
 2728ntf    on513914   1.157   1.548   3.482 -0.3271  0.5096 -0.2725
 2728ntf    on513915   1.399   1.529   3.551 -0.2070 -0.1340  0.2385
 2728ntf    on513916   1.279   1.950   3.354 -0.3333 -0.2870 -0.3836
 2728ntf    on513917   1.132   1.774   3.257 -0.1269  0.0756 -0.1770
 2728ntf    fn413918   1.293   1.864   3.055 -0.1020  0.5129 -0.1231
 2728ntf    fn413919   1.477   1.874   3.175 -0.3000  0.4171  0.1640
 2728ntf    fn413920   1.396   1.691   3.115  0.0216  0.1410 -0.0358
 2729ntf    cn113921   2.481   2.666   1.676  0.1291 -0.3874 -0.0102
 2729ntf    sn213922   2.328   2.756   1.714  0.0684 -0.3711 -0.2901
 2729ntf    nn313923   2.296   2.670   1.841 -0.4192  0.1609 -0.0505
 2729ntf    sn213924   2.294   2.716   1.992  0.1385 -0.4075  0.1340
 2729ntf    cn113925   2.118   2.761   2.003  0.2256  0.0124 -0.1549
 2729ntf    fn413926   2.551   2.738   1.590  0.3792 -0.2194  0.3310
 2729ntf    fn413927   2.557   2.652   1.784 -0.4043  0.1677  0.4398
 2729ntf    fn413928   2.466   2.541   1.634  0.2940 -0.4692  0.1730
 2729ntf    on513929   2.371   2.891   1.740 -0.4884 -0.2148 -0.1756
 2729ntf    on513930   2.246   2.731   1.598  0.2245  0.2462 -0.5402
 2729ntf    on513931   2.368   2.837   2.015  0.3613 -0.4025 -0.5658
 2729ntf    on513932   2.312   2.607   2.085 -0.2949  0.0772  0.7935
 2729ntf    fn413933   2.052   2.649   1.979 -0.5337  0.3917  0.1412
 2729ntf    fn413934   2.078   2.793   2.125  0.1674  0.9938 -0.4262
 2729ntf    fn413935   2.079   2.864   1.930 -0.1076  0.0311  0.0471
 2730ntf    cn113936   1.041   1.384   5.529 -0.4781 -0.4882 -0.3737
 2730ntf    sn213937   1.203   1.465   5.514 -0.4996 -0.3497  0.1273
 2730ntf    nn313938   1.161   1.605   5.456  0.4325 -0.1619 -0.1065
 2730ntf    sn213939   1.235   1.743   5.451  0.0606  0.0400 -0.0295
 2730ntf    cn113940   1.164   1.830   5.594  0.2194  0.0746  0.0286
 2730ntf    fn413941   0.978   1.347   5.418 -0.0298 -0.5254 -0.6172
 2730ntf    fn413942   1.052   1.275   5.603 -0.2230  0.1745  0.5850
 2730ntf    fn413943   0.961   1.469   5.591 -0.0338 -0.1638 -0.2381
 2730ntf    on513944   1.261   1.467   5.646 -0.4381  0.6011  0.0892
 2730ntf    on513945   1.269   1.375   5.423  0.1203 -0.2793  0.4947
 2730ntf    on513946   1.182   1.812   5.336  0.4136 -0.1884 -0.3319
 2730ntf    on513947   1.379   1.748   5.457  0.0211  0.9960  0.3391
 2730ntf    fn413948   1.033   1.818   5.610  0.1668  0.1608 -0.3284
 2730ntf    fn413949   1.228   1.801   5.706  0.3729  0.2008 -0.0266
 2730ntf    fn413950   1.189   1.957   5.565  0.4151  0.0820  0.2272
 2731ntf    cn113951   3.074   3.371   5.934  0.2217 -0.2154 -0.2514
 2731ntf    sn213952   2.972   3.324   5.792  0.4406  0.1273 -0.5253
 2731ntf    nn313953   2.981   3.167   5.786 -0.2108  0.0856 -0.4842
 2731ntf    sn213954   2.871   3.071   5.843 -0.1228  0.3120  0.0752
 2731ntf    cn113955   2.918   2.922   5.749  0.2292  0.2782  0.3050
 2731ntf    fn413956   3.079   3.503   5.948 -0.2357 -0.1679 -0.5317
 2731ntf    fn413957   3.028   3.326   6.050  0.3924  0.7227  0.1940
 2731ntf    fn413958   3.195   3.319   5.924  0.4553  0.0809  0.8102
 2731ntf    on513959   2.843   3.378   5.828  0.5657 -0.1482  0.3565
 2731ntf    on513960   3.042   3.369   5.674  0.6664  0.3576 -0.3029
 2731ntf    on513961   2.737   3.094   5.796  0.3631  0.6777 -1.1793
 2731ntf    on513962   2.885   3.020   5.977 -0.3005  0.0187 -0.0156
 2731ntf    fn413963   2.843   2.816   5.771  0.1478  0.3397  0.3245
 2731ntf    fn413964   2.906   2.947   5.620 -0.6182 -0.3058  0.2663
 2731ntf    fn413965   3.044   2.895   5.782  0.3658  0.4009 -0.1030
 2732ntf    cn113966   0.538   3.736   6.252  0.3798  0.4923 -0.3205
 2732ntf    sn213967   0.643   3.864   6.328  0.0054  0.8088 -0.3311
 2732ntf    nn313968   0.709   3.788   6.448 -0.2391  0.4561 -0.4159
 2732ntf    sn213969   0.669   3.798   6.600  0.7271  0.0042 -0.1182
 2732ntf    cn113970   0.760   3.948   6.646  0.1172  0.4396 -0.3068
 2732ntf    fn413971   0.487   3.660   6.348  0.2159  0.0467 -0.7567
 2732ntf    fn413972   0.446   3.799   6.181  0.0186  0.3898  0.0468
 2732ntf    fn413973   0.598   3.651   6.171 -0.0674  0.1106 -0.2551
 2732ntf    on513974   0.735   3.890   6.220 -0.1652  0.2527 -0.6106
 2732ntf    on513975   0.552   3.971   6.361 -0.6042  0.1435  0.1618
 2732ntf    on513976   0.732   3.690   6.671  0.8106  0.2950  0.2502
 2732ntf    on513977   0.525   3.813   6.608  0.7611  0.1746  0.1966
 2732ntf    fn413978   0.809   3.937   6.769  0.2233 -0.4382 -0.4240
 2732ntf    fn413979   0.871   3.968   6.575  0.4895  0.2018  0.2009
 2732ntf    fn413980   0.691   4.061   6.645  0.2591  0.5252 -0.4197
 2733ntf    cn113981   2.397   0.355   2.521  0.0714  0.1074  0.0871
 2733ntf    sn213982   2.256   0.439   2.444  0.0811 -0.1612 -0.2261
 2733ntf    nn313983   2.197   0.324   2.356  0.0758 -0.3535  0.0272
 2733ntf    sn213984   2.054   0.310   2.291  0.0588 -0.2763  0.0475
 2733ntf    cn113985   2.007   0.152   2.369  0.0267 -0.1902  0.2021
 2733ntf    fn413986   2.453   0.441   2.605 -0.2647  0.4517 -0.0400
 2733ntf    fn413987   2.356   0.253   2.594  0.4910  0.0320  0.2199
 2733ntf    fn413988   2.494   0.313   2.441 -0.3335 -0.2270 -0.2257
 2733ntf    on513989   2.182   0.476   2.562  0.4368 -0.5925  0.1345
 2733ntf    on513990   2.321   0.550   2.377 -0.1557 -0.1700 -0.4736
 2733ntf    on513991   2.060   0.267   2.153  0.8744 -0.1404  0.0344
 2733ntf    on513992   1.953   0.402   2.334  0.4687  0.1034  0.2080
 2733ntf    fn413993   1.927   0.176   2.471 -0.5085  0.0241 -0.2612
 2733ntf    fn413994   1.931   0.085   2.283  0.1941  0.2372 -0.2852
 2733ntf    fn413995   2.112   0.075   2.393  0.5268  0.3871 -0.1019
 2734ntf    cn113996   6.439   2.701   5.762 -0.2928 -0.2984  0.5165
 2734ntf    sn213997   6.304   2.664   5.646 -0.1718 -0.0753  0.3041
 2734ntf    nn313998   6.372   2.533   5.591  0.5300  0.1943  0.5180
 2734ntf    sn213999   6.363   2.389   5.651 -0.1133 -0.0884 -0.2400
 2734ntf    cn114000   6.354   2.289   5.499 -0.1449 -0.4484 -0.0047
 2734ntf    fn414001   6.439   2.831   5.787 -0.2320 -0.1275 -0.3667
 2734ntf    fn414002   6.435   2.634   5.876 -0.4295 -0.3312  0.4931
 2734ntf    fn414003   6.559   2.679   5.712 -0.3157 -0.2114  0.4243
 2734ntf    on514004   6.181   2.645   5.717 -0.3782  0.8762  0.2132
 2734ntf    on514005   6.311   2.775   5.555  0.3392 -0.5469 -0.2428
 2734ntf    on514006   6.250   2.355   5.734  0.0900  0.3033  0.1945
 2734ntf    on514007   6.495   2.354   5.697 -0.1777 -0.2654 -0.1859
 2734ntf    fn414008   6.272   2.336   5.406  0.4308  0.5948 -0.0067
 2734ntf    fn414009   6.477   2.292   5.448  0.1736  0.2815  0.7709
 2734ntf    fn414010   6.316   2.164   5.515  0.5829 -0.7128 -0.2676
 2735ntf    cn114011   2.012   0.937   5.958  0.0405  0.1148  0.0225
 2735ntf    sn214012   2.078   0.799   6.057 -0.2168  0.1266  0.2115
 2735ntf    nn314013   2.233   0.824   6.047 -0.1789 -0.2240 -0.0828
 2735ntf    sn214014   2.341   0.771   6.148  0.1569  0.2930 -0.1691
 2735ntf    cn114015   2.380   0.921   6.242  0.2924  0.0488  0.1654
 2735ntf    fn414016   1.899   0.989   6.004  0.3375 -0.1163  1.0553
 2735ntf    fn414017   2.098   1.037   5.943  0.1916 -0.0287 -0.0705
 2735ntf    fn414018   1.990   0.901   5.833  0.2679 -0.8192  0.2441
 2735ntf    on514019   2.011   0.828   6.182 -0.0190  0.4132  0.2524
 2735ntf    on514020   2.043   0.681   5.982  0.4110 -0.0997  0.2731
 2735ntf    on514021   2.463   0.739   6.079  0.0296 -0.6298  0.0249
 2735ntf    on514022   2.307   0.672   6.247  0.3467  0.5757  0.1811
 2735ntf    fn414023   2.453   1.008   6.174  0.2764 -0.1327 -0.0830
 2735ntf    fn414024   2.273   0.982   6.291  0.0759  0.0468 -0.3005
 2735ntf    fn414025   2.451   0.897   6.351  0.0788 -0.3254  0.2250
 2736ntf    cn114026   5.788   5.484   7.017  0.1387 -0.2348 -0.0844
 2736ntf    sn214027   5.848   5.636   6.938  0.3718 -0.1546  0.2462
 2736ntf    nn314028   5.803   5.624   6.788  0.4213 -0.2623  0.2400
 2736ntf    sn214029   5.663   5.649   6.722  0.4380  0.2792  0.4081
 2736ntf    cn114030   5.690   5.819   6.663 -0.5845  0.3628  0.1648
 2736ntf    fn414031   5.825   5.384   6.939  0.2778  0.0317 -0.3597
 2736ntf    fn414032   5.824   5.453   7.141  0.0007 -0.5593 -0.1252
 2736ntf    fn414033   5.656   5.485   7.010  0.1251  0.0479  0.1560
 2736ntf    on514034   5.783   5.745   7.005 -0.4157 -0.3076 -0.2543
 2736ntf    on514035   5.991   5.630   6.957  0.4091  0.1715  0.0781
 2736ntf    on514036   5.558   5.662   6.820  0.1415 -0.3878  0.1839
 2736ntf    on514037   5.636   5.568   6.606  0.2809  0.8110  0.0709
 2736ntf    fn414038   5.745   5.906   6.745 -0.0931 -0.2018  0.4362
 2736ntf    fn414039   5.777   5.821   6.563 -0.4864 -0.2879  0.2298
 2736ntf    fn414040   5.577   5.876   6.623 -0.7483  0.1846  0.3664
 2737ntf    cn114041   4.403   3.203   6.778 -0.1779 -0.0360  0.2169
 2737ntf    sn214042   4.585   3.199   6.773 -0.1802  0.1561 -0.0577
 2737ntf    nn314043   4.612   3.277   6.639 -0.2895  0.2962  0.0011
 2737ntf    sn214044   4.664   3.225   6.500 -0.0157  0.5524  0.0077
 2737ntf    cn114045   4.551   3.320   6.394 -0.9942 -0.2688  0.3039
 2737ntf    fn414046   4.353   3.323   6.802 -0.3301 -0.1019  0.2265
 2737ntf    fn414047   4.347   3.173   6.662  0.2708 -0.3847  0.0844
 2737ntf    fn414048   4.353   3.116   6.863  0.1088 -0.1598  0.2588
 2737ntf    on514049   4.620   3.277   6.889 -0.1517  0.7370 -0.4485
 2737ntf    on514050   4.621   3.060   6.778  0.3795  0.2987 -0.0611
 2737ntf    on514051   4.633   3.087   6.472 -0.5217  0.5152  0.7190
 2737ntf    on514052   4.791   3.270   6.450  0.0926  0.2739  0.0299
 2737ntf    fn414053   4.608   3.385   6.294 -0.0448 -0.0512  0.9717
 2737ntf    fn414054   4.457   3.244   6.339 -0.3647 -0.5410 -0.4033
 2737ntf    fn414055   4.490   3.410   6.470  0.9845  1.5379 -0.1621
 2738ntf    cn114056   1.116   4.353   3.264  0.0153  0.0763  0.2627
 2738ntf    sn214057   1.279   4.272   3.275  0.0445  0.1656  0.4999
 2738ntf    nn314058   1.243   4.125   3.317  0.2361  0.0372  0.2140
 2738ntf    sn214059   1.326   3.992   3.312  0.0176 -0.0931  0.0113
 2738ntf    cn114060   1.247   3.898   3.178  0.2070 -0.4493  0.1484
 2738ntf    fn414061   1.060   4.362   3.384 -0.5411  0.1731 -0.0007
 2738ntf    fn414062   1.118   4.475   3.213 -0.4194 -0.0739 -0.1190
 2738ntf    fn414063   1.029   4.286   3.191  0.4076  0.4330 -0.5479
 2738ntf    on514064   1.332   4.272   3.141  0.0705 -1.0442  0.5014
 2738ntf    on514065   1.353   4.349   3.372 -0.0232  0.0090  0.6751
 2738ntf    on514066   1.289   3.907   3.423 -0.2396  0.0447  0.0323
 2738ntf    on514067   1.466   3.995   3.276 -0.0708  0.7159 -0.2915
 2738ntf    fn414068   1.121   3.863   3.198 -0.1513  0.7416  0.0561
 2738ntf    fn414069   1.249   3.958   3.060  0.4126 -0.2074  0.2733
 2738ntf    fn414070   1.308   3.783   3.154  0.2143 -0.4100 -0.0233
 2739ntf    cn114071   1.624   5.045   7.048  0.2577 -0.1088  0.0463
 2739ntf    sn214072   1.487   5.012   6.933  0.2548  0.1440 -0.0255
 2739ntf    nn314073   1.375   4.971   7.036 -0.0725  0.6270 -0.1830
 2739ntf    sn214074   1.296   5.055   7.142 -0.2913 -0.2453  0.3571
 2739ntf    cn114075   1.127   5.067   7.075 -0.1669 -0.2465  0.0381
 2739ntf    fn414076   1.652   4.932   7.110 -0.1727  0.1391  0.7032
 2739ntf    fn414077   1.736   5.087   6.991  0.0356  0.3041 -0.0948
 2739ntf    fn414078   1.581   5.132   7.138 -0.2653  0.0183 -0.3150
 2739ntf    on514079   1.461   5.141   6.874  0.5177 -0.1148 -0.7189
 2739ntf    on514080   1.543   4.913   6.845  0.1933  0.4162 -0.3695
 2739ntf    on514081   1.325   5.193   7.172  0.4416 -0.3589  0.1714
 2739ntf    on514082   1.256   4.973   7.254  0.2682 -0.8024  0.1516
 2739ntf    fn414083   1.118   5.071   6.943  0.2094 -0.3340  0.0100
 2739ntf    fn414084   1.044   4.969   7.107 -0.6311  0.2042  0.2430
 2739ntf    fn414085   1.066   5.176   7.119  0.5430  0.0642  0.2628
 2740ntf    cn114086   3.938   0.904   5.849  0.1093 -0.1756  0.3248
 2740ntf    sn214087   3.933   0.733   5.787  0.0105 -0.0799  0.0658
 2740ntf    nn314088   3.948   0.654   5.922 -0.4230 -0.0388  0.1368
 2740ntf    sn214089   3.907   0.506   5.956 -0.4274 -0.1476 -0.3432
 2740ntf    cn114090   3.829   0.530   6.118 -0.4099 -0.1814 -0.3299
 2740ntf    fn414091   4.055   0.948   5.892 -0.0859  0.3394  0.3333
 2740ntf    fn414092   3.903   0.994   5.758  0.4570 -1.1521 -0.7949
 2740ntf    fn414093   3.859   0.918   5.954  0.3296  0.2631  0.4361
 2740ntf    on514094   3.808   0.714   5.718  0.2458 -0.0388 -0.3761
 2740ntf    on514095   4.060   0.733   5.717 -0.2531  0.7066 -0.4255
 2740ntf    on514096   4.019   0.427   6.001  0.0367  0.2864 -0.7209
 2740ntf    on514097   3.796   0.451   5.883 -0.8595  0.1768  0.0636
 2740ntf    fn414098   3.917   0.545   6.217 -0.3950 -0.5015 -0.2933
 2740ntf    fn414099   3.762   0.644   6.115 -0.6030 -0.2832  0.0625
 2740ntf    fn414100   3.753   0.432   6.163  0.4234 -0.7223 -0.0623
 2741ntf    cn114101   1.945   1.068   3.612 -0.2163 -0.1954 -0.4864
 2741ntf    sn214102   2.031   0.931   3.531  0.2167  0.0020 -0.3652
 2741ntf    nn314103   2.090   1.013   3.411 -0.0635  0.2710 -0.3197
 2741ntf    sn214104   2.125   0.967   3.265  0.4716  0.2447 -0.1849
 2741ntf    cn114105   2.217   0.813   3.294 -0.2446 -0.2170 -0.3656
 2741ntf    fn414106   1.842   1.021   3.681  0.3498 -0.1914  0.3683
 2741ntf    fn414107   2.017   1.139   3.697 -0.3561 -0.3735 -0.2201
 2741ntf    fn414108   1.896   1.156   3.525 -0.6219  0.3008  0.2280
 2741ntf    on514109   2.118   0.894   3.639 -0.4609 -0.2667  0.0964
 2741ntf    on514110   1.925   0.835   3.509 -0.3583  0.6051 -0.2282
 2741ntf    on514111   2.224   1.040   3.189  0.2889  0.7226  0.0312
 2741ntf    on514112   2.008   0.918   3.197  0.4886  0.2334 -0.2059
 2741ntf    fn414113   2.280   0.776   3.183 -0.1024  0.1160 -0.3974
 2741ntf    fn414114   2.298   0.819   3.398 -0.6633 -0.7821  0.0005
 2741ntf    fn414115   2.136   0.712   3.322 -0.4125 -0.0139 -0.1121
 2742ntf    cn114116   0.416   6.121   2.866 -0.4827 -0.1954 -0.5142
 2742ntf    sn214117   0.366   5.957   2.805 -0.1185 -0.3619 -0.3672
 2742ntf    nn314118   0.370   5.995   2.652  0.5689 -0.1214 -0.2909
 2742ntf    sn214119   0.440   5.908   2.542  0.0696 -0.7795 -0.0914
 2742ntf    cn114120   0.299   5.805   2.492 -0.5760  0.0771 -0.0645
 2742ntf    fn414121   0.346   6.221   2.815 -0.6507 -0.1487 -0.1961
 2742ntf    fn414122   0.423   6.132   2.997  0.8815 -0.2714 -0.5655
 2742ntf    fn414123   0.542   6.138   2.830 -0.4355  0.0478 -0.2434
 2742ntf    on514124   0.452   5.865   2.874  0.2523 -0.1384 -0.5305
 2742ntf    on514125   0.225   5.941   2.832 -0.3879  0.2107 -1.3403
 2742ntf    on514126   0.527   5.805   2.595  0.6649 -0.2354  0.0093
 2742ntf    on514127   0.476   5.985   2.426  0.2253 -0.4518  0.1706
 2742ntf    fn414128   0.232   5.750   2.592 -0.2982 -0.0401  0.0589
 2742ntf    fn414129   0.206   5.862   2.417 -0.3978 -0.0786 -0.4046
 2742ntf    fn414130   0.338   5.698   2.424  0.3427  0.5274 -0.2626
 2743ntf    cn114131   2.749   1.747   0.505  0.3402 -0.2717  0.1100
 2743ntf    sn214132   2.890   1.833   0.430  0.1353 -0.0621 -0.0358
 2743ntf    nn314133   2.901   1.932   0.551 -0.1785 -0.2189  0.1228
 2743ntf    sn214134   3.023   1.944   0.650 -0.3039 -0.0098  0.2529
 2743ntf    cn114135   2.967   1.837   0.786 -0.2398 -0.1378  0.1784
 2743ntf    fn414136   2.765   1.709   0.631  0.3955 -0.6407 -0.0074
 2743ntf    fn414137   2.645   1.828   0.508  0.7481  0.2647 -0.2092
 2743ntf    fn414138   2.712   1.638   0.439  0.1786 -0.1958  0.0763
 2743ntf    on514139   2.990   1.730   0.414 -0.0481 -0.2721  0.1667
 2743ntf    on514140   2.837   1.891   0.310 -0.8647 -0.3661  0.2532
 2743ntf    on514141   3.033   2.073   0.713 -0.9554  0.1373  0.0640
 2743ntf    on514142   3.142   1.877   0.605 -0.6384 -0.3396 -0.1560
 2743ntf    fn414143   2.858   1.872   0.853 -0.0354 -0.0000  0.4427
 2743ntf    fn414144   2.950   1.713   0.741 -0.0509 -0.1697  0.1957
 2743ntf    fn414145   3.051   1.848   0.888 -0.2769 -0.0371  0.1980
 2744ntf    cn114146   0.461   6.172   0.079  0.0766 -0.1092 -0.4461
 2744ntf    sn214147   0.304   6.163   0.171  0.2668 -0.2059 -0.1280
 2744ntf    nn314148   0.292   6.006   0.179 -0.1101 -0.1438  0.5743
 2744ntf    sn214149   0.232   5.910   0.071 -0.0060  0.5321 -0.0961
 2744ntf    cn114150   0.123   5.822   0.187 -0.1238  0.3352 -0.3538
 2744ntf    fn414151   0.467   6.099  -0.031  0.2648 -0.2871 -0.3197
 2744ntf    fn414152   0.486   6.297   0.044  0.4670 -0.0454  0.0475
 2744ntf    fn414153   0.570   6.144   0.149 -0.2011 -0.2583 -0.0669
 2744ntf    on514154   0.338   6.221   0.298 -0.6172  0.0466 -0.0049
 2744ntf    on514155   0.211   6.238   0.091  0.3038 -0.3170 -0.2761
 2744ntf    on514156   0.319   5.801   0.032  0.1202  0.5977  0.0001
 2744ntf    on514157   0.146   5.970  -0.027 -1.0858 -0.2670  0.3424
 2744ntf    fn414158   0.185   5.766   0.290 -0.1193  1.0904  0.0619
 2744ntf    fn414159   0.026   5.900   0.232  0.1144  0.3290  0.1765
 2744ntf    fn414160   0.065   5.718   0.130  0.3572  0.0196 -0.2753
 2745ntf    cn114161   4.821   7.110   6.436  0.0069 -0.0281  0.4570
 2745ntf    sn214162   4.796   7.227   6.299 -0.0894 -0.2188  0.3111
 2745ntf    nn314163   4.901   7.177   6.194 -0.0287  0.1094  0.2159
 2745ntf    sn214164   5.032   7.255   6.153 -0.2152  0.2771 -0.0693
 2745ntf    cn114165   5.130   7.231   6.305 -0.5366  0.1616  0.1224
 2745ntf    fn414166   4.736   7.133   6.535 -0.3001 -0.4049  0.2809
 2745ntf    fn414167   4.808   6.984   6.398 -0.2991 -0.0461  0.6136
 2745ntf    fn414168   4.944   7.115   6.483  0.2429 -0.5645 -0.0881
 2745ntf    on514169   4.660   7.202   6.257  0.0538 -0.1666 -0.1927
 2745ntf    on514170   4.823   7.357   6.356  0.2857 -0.1877  0.0668
 2745ntf    on514171   5.020   7.397   6.131  0.3306  0.3425  0.0458
 2745ntf    on514172   5.104   7.174   6.059 -0.3250  0.1213 -0.0211
 2745ntf    fn414173   5.252   7.281   6.299 -0.2765 -0.5224 -0.5378
 2745ntf    fn414174   5.083   7.298   6.409  0.6248  0.1593  0.6574
 2745ntf    fn414175   5.144   7.105   6.342 -0.0616  0.1450 -0.1107
 2746ntf    cn114176   1.741   2.048   4.658 -0.1161  0.1443 -0.0338
 2746ntf    sn214177   1.849   2.070   4.802  0.0206 -0.0567 -0.1058
 2746ntf    nn314178   1.792   2.206   4.856 -0.2228 -0.0995 -0.2539
 2746ntf    sn214179   1.686   2.236   4.968  0.2282 -0.1988  0.2042
 2746ntf    cn114180   1.805   2.292   5.094  0.1445 -0.1976  0.2828
 2746ntf    fn414181   1.763   1.938   4.588 -0.3033  0.3825 -0.4704
 2746ntf    fn414182   1.618   2.026   4.701 -0.1359  0.1853 -0.0697
 2746ntf    fn414183   1.747   2.147   4.570 -0.0094 -0.4693 -0.7233
 2746ntf    on514184   1.836   1.958   4.892  0.2520 -0.3283 -0.4095
 2746ntf    on514185   1.974   2.083   4.732  0.1413 -0.3761  0.0479
 2746ntf    on514186   1.622   2.124   5.032 -0.5182 -0.0012 -0.1883
 2746ntf    on514187   1.605   2.353   4.942  0.2809 -0.2008  0.0344
 2746ntf    fn414188   1.762   2.351   5.205 -0.5121  0.4730 -0.3218
 2746ntf    fn414189   1.893   2.200   5.131 -0.4453 -0.6291  0.6269
 2746ntf    fn414190   1.880   2.385   5.037 -0.2363 -0.1770 -0.1830
 2747ntf    cn114191   6.879   1.962   2.109  0.3992  0.3390  0.1208
 2747ntf    sn214192   6.717   2.043   2.121  0.0121 -0.4192  0.0601
 2747ntf    nn314193   6.761   2.186   2.074 -0.0374 -0.3846  0.1177
 2747ntf    sn214194   6.748   2.253   1.933  0.4579  0.0602  0.2819
 2747ntf    cn114195   6.582   2.321   1.959  0.3173 -0.1298 -0.1061
 2747ntf    fn414196   6.971   2.043   2.159  0.5603  0.4072 -0.2785
 2747ntf    fn414197   6.893   1.846   2.173 -0.2725 -0.1049 -0.5227
 2747ntf    fn414198   6.916   1.939   1.984 -0.0510 -0.5816  0.1490
 2747ntf    on514199   6.625   1.965   2.042 -0.2827 -0.0711  0.0583
 2747ntf    on514200   6.690   2.036   2.263  0.2409  0.0355  0.1274
 2747ntf    on514201   6.725   2.163   1.823  0.6407  0.2508  0.0851
 2747ntf    on514202   6.831   2.370   1.914  0.5485 -0.0911 -0.2814
 2747ntf    fn414203   6.594   2.419   2.047  0.0754 -0.0229 -0.1899
 2747ntf    fn414204   6.520   2.369   1.853 -0.6658 -0.1783  0.4324
 2747ntf    fn414205   6.489   2.239   2.005 -0.1678  0.3546 -0.2074
 2748ntf    cn114206   7.028   2.442   5.614 -0.4408 -0.3210  0.1642
 2748ntf    sn214207   7.203   2.478   5.585 -0.5257 -0.0257  0.0126
 2748ntf    nn314208   7.207   2.465   5.429  0.7210 -0.4665  0.0648
 2748ntf    sn214209   7.309   2.514   5.320  0.3912 -0.2371 -0.1462
 2748ntf    cn114210   7.251   2.683   5.286  0.3238 -0.1855  0.2216
 2748ntf    fn414211   6.987   2.470   5.737 -0.4789 -0.0048  0.0814
 2748ntf    fn414212   6.948   2.512   5.534  0.1750  0.1732 -0.0253
 2748ntf    fn414213   6.998   2.317   5.587 -0.3965 -0.4306  0.6114
 2748ntf    on514214   7.229   2.612   5.632  0.1168 -0.1067 -0.0941
 2748ntf    on514215   7.266   2.364   5.647 -0.3784  0.4441  0.7436
 2748ntf    on514216   7.294   2.459   5.188 -0.6115 -0.7039  0.1519
 2748ntf    on514217   7.445   2.530   5.366  0.1393  0.4001  0.3890
 2748ntf    fn414218   7.200   2.755   5.385 -0.4343  0.5760 -0.7082
 2748ntf    fn414219   7.352   2.751   5.236  0.0263 -0.1762 -0.3733
 2748ntf    fn414220   7.152   2.674   5.199  0.2939 -0.2908  0.2650
 2749ntf    cn114221   6.493   6.124   4.214  0.1923 -0.6191  0.2122
 2749ntf    sn214222   6.588   6.264   4.148 -0.3270 -0.0844  0.5907
 2749ntf    nn314223   6.734   6.206   4.140 -0.2819  0.0758  0.2374
 2749ntf    sn214224   6.844   6.253   4.039 -0.2222 -0.4487  0.0564
 2749ntf    cn114225   6.981   6.213   4.152 -0.0014  0.4117  0.0955
 2749ntf    fn414226   6.365   6.157   4.226  0.3865  0.0388  0.4537
 2749ntf    fn414227   6.509   6.012   4.145 -0.4205 -0.4157 -0.2723
 2749ntf    fn414228   6.530   6.096   4.337  0.1617 -0.2896  0.2962
 2749ntf    on514229   6.522   6.289   4.023  0.1261 -0.2322  0.3184
 2749ntf    on514230   6.580   6.364   4.252 -0.1792  0.1528  0.3731
 2749ntf    on514231   6.855   6.396   4.025 -0.2843 -0.3323  1.1095
 2749ntf    on514232   6.857   6.166   3.925 -0.3137 -0.1416 -0.1884
 2749ntf    fn414233   7.075   6.139   4.095 -0.5295 -0.1243 -0.0787
 2749ntf    fn414234   7.035   6.326   4.195  0.5952  0.2585 -0.2412
 2749ntf    fn414235   6.938   6.141   4.254  0.1868  0.1250 -0.0276
 2750ntf    cn114236   0.625   5.590   2.069 -0.0004  0.3682  0.1694
 2750ntf    sn214237   0.731   5.442   2.067 -0.8091 -0.2168  0.1897
 2750ntf    nn314238   0.862   5.507   2.125 -0.6195  0.1893 -0.6748
 2750ntf    sn214239   0.995   5.548   2.053 -0.1226 -0.0128  0.1076
 2750ntf    cn114240   1.089   5.614   2.194  0.1306  0.1436 -0.1322
 2750ntf    fn414241   0.592   5.627   2.192  0.1963  0.3579  0.2264
 2750ntf    fn414242   0.670   5.700   2.011  0.0929  0.2262 -0.0279
 2750ntf    fn414243   0.511   5.570   2.006  0.0196 -0.3403  0.3544
 2750ntf    on514244   0.669   5.345   2.153 -0.2583 -0.1130  0.7127
 2750ntf    on514245   0.727   5.410   1.927  0.1750 -0.4798  0.2129
 2750ntf    on514246   0.981   5.659   1.961 -0.3870  0.7426  1.0431
 2750ntf    on514247   1.082   5.438   2.019 -0.0464 -0.0328  0.3674
 2750ntf    fn414248   1.125   5.518   2.277  0.0645  0.2079 -0.0291
 2750ntf    fn414249   1.202   5.665   2.148 -0.0819  0.6733 -0.0814
 2750ntf    fn414250   1.031   5.710   2.264  0.0357 -0.0364  0.0372
 2751ntf    cn114251   5.636   1.856   5.252  0.2151  0.0666 -0.0033
 2751ntf    sn214252   5.754   1.994   5.242 -0.0990  0.3328 -0.0396
 2751ntf    nn314253   5.885   1.911   5.266 -0.1314  0.2411 -0.1781
 2751ntf    sn214254   6.008   1.951   5.355 -0.1097 -0.0730 -0.0659
 2751ntf    cn114255   6.144   1.951   5.234  0.1719  0.5397  0.2510
 2751ntf    fn414256   5.670   1.758   5.170  0.3782  0.0407  0.0950
 2751ntf    fn414257   5.612   1.802   5.370  0.7318 -0.2492 -0.0356
 2751ntf    fn414258   5.516   1.895   5.212  0.0907 -0.1862  0.1254
 2751ntf    on514259   5.733   2.048   5.110  0.0932  0.6415  0.0538
 2751ntf    on514260   5.709   2.081   5.348 -0.3647 -0.2270  0.3112
 2751ntf    on514261   6.032   1.832   5.432 -0.3964  0.3503  0.6857
 2751ntf    on514262   6.027   2.081   5.415 -0.2791 -0.0191 -0.1294
 2751ntf    fn414263   6.147   2.056   5.153 -0.3155  0.3705  0.0112
 2751ntf    fn414264   6.262   1.961   5.294  0.5620  0.4936 -0.4901
 2751ntf    fn414265   6.148   1.849   5.151 -0.0222  0.2103  0.6433
 2752ntf    cn114266   5.047   2.959   6.957 -0.1547 -0.1129 -0.2736
 2752ntf    sn214267   5.217   2.941   7.021 -0.2468 -0.2067 -0.0539
 2752ntf    nn314268   5.232   3.079   7.092  0.3273 -0.2362 -0.1115
 2752ntf    sn214269   5.220   3.113   7.245  0.1517 -0.1093 -0.1523
 2752ntf    cn114270   5.374   3.053   7.320  0.1131  0.2099  0.1870
 2752ntf    fn414271   5.004   2.847   6.902  0.0196 -0.2012 -0.2322
 2752ntf    fn414272   4.959   3.000   7.047 -0.1424 -0.0987 -0.2681
 2752ntf    fn414273   5.027   3.049   6.862 -0.0795 -0.1911 -0.3638
 2752ntf    on514274   5.209   2.828   7.110  0.0741 -0.0941  0.1159
 2752ntf    on514275   5.299   2.920   6.904  0.0353 -0.3568  0.1695
 2752ntf    on514276   5.122   3.036   7.316  0.1603  0.1904  0.1870
 2752ntf    on514277   5.242   3.254   7.266  0.1048 -0.1847  0.4144
 2752ntf    fn414278   5.392   2.923   7.299 -0.0912  0.1581  0.3378
 2752ntf    fn414279   5.476   3.117   7.265  0.0952 -0.1421 -0.2586
 2752ntf    fn414280   5.382   3.082   7.449 -0.0578  1.0434  0.0146
 2753ntf    cn114281   2.370   5.226   5.646  0.1860 -0.1600  0.1697
 2753ntf    sn214282   2.203   5.216   5.575  0.3903 -0.2252 -0.3073
 2753ntf    nn314283   2.218   5.335   5.474 -0.1299  0.0173 -0.1035
 2753ntf    sn214284   2.150   5.477   5.469  0.1488  0.1714  0.4479
 2753ntf    cn114285   2.298   5.576   5.435  0.2401 -0.1686 -0.1588
 2753ntf    fn414286   2.471   5.216   5.560  0.0874  0.4390 -0.0232
 2753ntf    fn414287   2.384   5.344   5.705  0.0332 -0.3375  0.5553
 2753ntf    fn414288   2.396   5.138   5.741 -0.1059 -0.4310 -0.0031
 2753ntf    on514289   2.192   5.092   5.503  0.3382 -0.0206 -0.6559
 2753ntf    on514290   2.119   5.237   5.690  0.9746  0.2278  0.0443
 2753ntf    on514291   2.098   5.525   5.595 -0.1324  0.6916  0.1365
 2753ntf    on514292   2.063   5.493   5.355 -0.1796 -0.6367  0.5762
 2753ntf    fn414293   2.390   5.547   5.525 -0.6520 -0.9226  0.5265
 2753ntf    fn414294   2.340   5.555   5.311  0.3079 -0.1483 -0.1397
 2753ntf    fn414295   2.283   5.708   5.435 -0.0757 -0.2041 -0.4040
 2754ntf    cn114296   2.662   5.715   6.650  0.1054  0.4167  0.1582
 2754ntf    sn214297   2.589   5.705   6.816 -0.2364 -0.2847 -0.0279
 2754ntf    nn314298   2.644   5.566   6.863  0.0693 -0.2476 -0.2745
 2754ntf    sn214299   2.737   5.524   6.982  0.3500  0.1830 -0.3413
 2754ntf    cn114300   2.765   5.350   6.938 -0.0149  0.1054 -0.2684
 2754ntf    fn414301   2.582   5.671   6.554  0.0225  0.2636  0.2978
 2754ntf    fn414302   2.679   5.841   6.614 -0.0886  0.2650 -0.4836
 2754ntf    fn414303   2.776   5.648   6.644 -0.0395  0.1852 -0.0348
 2754ntf    on514304   2.641   5.819   6.886  0.4627 -0.0145 -0.9613
 2754ntf    on514305   2.445   5.703   6.802 -0.3305  0.1996  0.8021
 2754ntf    on514306   2.657   5.542   7.101  0.4192 -0.8809 -0.1303
 2754ntf    on514307   2.871   5.579   6.982  0.3293  0.2351  0.0281
 2754ntf    fn414308   2.831   5.339   6.824  0.0890  0.0941 -0.2073
 2754ntf    fn414309   2.836   5.283   7.027  0.6529  0.4522 -0.5262
 2754ntf    fn414310   2.651   5.285   6.919 -0.0134  0.1289 -0.3588
 2755ntf    cn114311   2.666   4.334   5.428 -0.2996  0.4105  0.1618
 2755ntf    sn214312   2.535   4.407   5.325  0.1553  0.2467 -0.5420
 2755ntf    nn314313   2.602   4.539   5.274  0.6284  0.2151 -0.0181
 2755ntf    sn214314   2.626   4.680   5.338  0.0266  0.2012  0.2418
 2755ntf    cn114315   2.478   4.774   5.289  0.0212  0.2729  0.3920
 2755ntf    fn414316   2.627   4.302   5.550  0.3875 -0.0359  0.2695
 2755ntf    fn414317   2.710   4.224   5.370 -0.4614  0.5053 -0.1402
 2755ntf    fn414318   2.774   4.409   5.444 -0.1572  0.1497  0.4297
 2755ntf    on514319   2.525   4.303   5.226 -0.2168 -0.7059  0.4740
 2755ntf    on514320   2.420   4.425   5.411  0.6328  0.7454 -0.0020
 2755ntf    on514321   2.736   4.740   5.268  0.0188 -0.1877 -0.1053
 2755ntf    on514322   2.631   4.682   5.483 -0.2681 -0.2858  0.2588
 2755ntf    fn414323   2.498   4.858   5.189  0.1777  0.5644  0.6675
 2755ntf    fn414324   2.386   4.684   5.257  0.4676 -0.2603  0.5954
 2755ntf    fn414325   2.431   4.844   5.390 -0.0644 -0.2162  0.6937
 2756ntf    cn114326   2.415   0.407   0.840  0.0835 -0.1507  0.2847
 2756ntf    sn214327   2.245   0.469   0.855  0.0272 -0.1736 -0.2263
 2756ntf    nn314328   2.220   0.395   0.991 -0.2090  0.0048 -0.1718
 2756ntf    sn214329   2.162   0.252   1.021 -0.1811  0.0373  0.0440
 2756ntf    cn114330   1.995   0.290   1.081 -0.2096 -0.2575  0.1533
 2756ntf    fn414331   2.478   0.431   0.954 -0.1147 -0.0394  0.3714
 2756ntf    fn414332   2.435   0.279   0.816 -0.1985 -0.2728  0.6949
 2756ntf    fn414333   2.486   0.471   0.748 -0.1812 -0.3869 -0.0839
 2756ntf    on514334   2.262   0.612   0.867 -0.4200 -0.1279 -0.1072
 2756ntf    on514335   2.174   0.426   0.738 -0.4828 -0.7397  0.2852
 2756ntf    on514336   2.227   0.193   1.135  0.5807  0.4201 -0.1830
 2756ntf    on514337   2.141   0.161   0.911 -0.8973  0.2516 -0.0051
 2756ntf    fn414338   1.939   0.368   0.990 -0.3063 -0.4309  0.0642
 2756ntf    fn414339   1.920   0.181   1.077  0.4439 -0.7045 -0.0054
 2756ntf    fn414340   1.990   0.349   1.200 -0.3071  0.5729 -0.2514
 2757ntf    cn114341   1.250   2.724   0.318  0.3474  0.2659 -0.2344
 2757ntf    sn214342   1.378   2.715   0.448  0.0227 -0.1229  0.0582
 2757ntf    nn314343   1.297   2.771   0.570  0.1278 -0.3905  0.2514
 2757ntf    sn214344   1.276   2.705   0.711  0.2727 -0.3387  0.2987
 2757ntf    cn114345   1.410   2.798   0.790  0.1706  0.0203  0.0497
 2757ntf    fn414346   1.316   2.706   0.205 -0.2350 -0.5056 -0.4547
 2757ntf    fn414347   1.165   2.623   0.325  0.5267  0.1385  0.1492
 2757ntf    fn414348   1.175   2.833   0.325  0.3420  0.2484 -0.0065
 2757ntf    on514349   1.404   2.573   0.444 -0.3710 -0.1914 -0.2413
 2757ntf    on514350   1.473   2.815   0.407 -0.3278  0.1067 -0.1989
 2757ntf    on514351   1.312   2.568   0.738 -0.1869 -0.4572  0.3200
 2757ntf    on514352   1.162   2.757   0.783 -0.0356  0.3007 -0.6243
 2757ntf    fn414353   1.424   2.769   0.918  0.3740 -0.0237  0.0173
 2757ntf    fn414354   1.527   2.780   0.732  0.1654 -0.0483  0.0606
 2757ntf    fn414355   1.383   2.928   0.790 -0.3663 -0.0865 -0.3843
 2758ntf    cn114356   3.950   3.884   1.140  0.4510 -0.0322 -0.4292
 2758ntf    sn214357   4.098   3.837   1.045  0.4468 -0.3043 -0.3018
 2758ntf    nn314358   4.097   3.680   1.040  0.3044 -0.3278  0.3054
 2758ntf    sn214359   4.071   3.596   0.910  0.2915  0.2346 -0.0626
 2758ntf    cn114360   4.182   3.455   0.939  0.1187  0.1407  0.1470
 2758ntf    fn414361   3.972   3.984   1.224 -1.0664 -0.2693  0.2923
 2758ntf    fn414362   3.841   3.904   1.067 -0.2261 -0.2827  0.4941
 2758ntf    fn414363   3.923   3.788   1.227 -0.3672  0.6676  0.1117
 2758ntf    on514364   4.071   3.915   0.926  0.4553  0.3178  0.0968
 2758ntf    on514365   4.205   3.883   1.130 -0.2029  0.1019  0.3095
 2758ntf    on514366   4.115   3.646   0.782 -0.4891 -0.2950 -0.5516
 2758ntf    on514367   3.944   3.528   0.919  0.3282  0.1914  0.1243
 2758ntf    fn414368   4.185   3.371   0.836 -0.1768 -0.2962  0.4938
 2758ntf    fn414369   4.308   3.491   0.955  0.1522 -0.0130  0.2379
 2758ntf    fn414370   4.151   3.372   1.037 -0.0938  0.1160  0.0604
 2759ntf    cn114371   4.215   4.184   4.605  0.1408  0.0124 -0.6218
 2759ntf    sn214372   4.294   4.306   4.715  0.1468 -0.0258 -0.5839
 2759ntf    nn314373   4.191   4.425   4.704 -0.1085 -0.2538 -0.6915
 2759ntf    sn214374   4.188   4.554   4.616  0.2139  0.2890  0.0793
 2759ntf    cn114375   4.270   4.667   4.733 -0.3944  0.6074  0.2034
 2759ntf    fn414376   4.089   4.161   4.637  0.2575  0.1467 -0.0496
 2759ntf    fn414377   4.208   4.224   4.479 -0.0375  0.2357 -0.5392
 2759ntf    fn414378   4.285   4.071   4.609  0.4275  0.2129  0.4149
 2759ntf    on514379   4.289   4.239   4.843 -0.4877  0.0191 -0.5807
 2759ntf    on514380   4.428   4.322   4.665  0.3252  0.2602 -0.0245
 2759ntf    on514381   4.053   4.606   4.613  0.1639  0.1598  0.0823
 2759ntf    on514382   4.256   4.548   4.489 -0.1250 -0.6597 -0.0629
 2759ntf    fn414383   4.396   4.640   4.759 -0.2428  0.6999 -0.4174
 2759ntf    fn414384   4.267   4.792   4.688 -0.3539  0.3452 -0.5493
 2759ntf    fn414385   4.196   4.672   4.843 -0.2408  0.0700  0.3338
 2760ntf    cn114386   1.169   4.350   5.652  0.1281  0.3200 -0.1727
 2760ntf    sn214387   1.006   4.294   5.710  0.1279  0.2389 -0.2498
 2760ntf    nn314388   0.988   4.164   5.625 -0.0254 -0.3728  0.6965
 2760ntf    sn214389   1.037   4.016   5.640  0.3307 -0.3214  0.0920
 2760ntf    cn114390   0.883   3.969   5.726  0.4216 -0.3929  0.2160
 2760ntf    fn414391   1.184   4.473   5.698  0.3984  0.1839  0.1033
 2760ntf    fn414392   1.277   4.291   5.700  0.1573  0.1657 -0.4221
 2760ntf    fn414393   1.188   4.362   5.521  0.2416  0.2036 -0.1664
 2760ntf    on514394   1.024   4.279   5.853  0.3374  0.0938 -0.2909
 2760ntf    on514395   0.914   4.399   5.673  0.2784  0.4743  0.0329
 2760ntf    on514396   1.139   3.985   5.737  0.4446  0.7141  0.3079
 2760ntf    on514397   1.028   3.951   5.511 -0.9619 -0.2086  0.1071
 2760ntf    fn414398   0.874   3.844   5.767 -0.2207 -0.2835  0.4095
 2760ntf    fn414399   0.868   4.037   5.838  0.2050 -0.1003  0.0106
 2760ntf    fn414400   0.775   3.990   5.653  0.3443 -0.1014  0.4130
 2761ntf    cn114401   5.796   2.286   7.015 -0.0243 -0.3001 -0.1333
 2761ntf    sn214402   5.966   2.224   6.998  0.1708  0.1150  0.2852
 2761ntf    nn314403   5.960   2.152   6.859 -0.2488  0.2502  0.2318
 2761ntf    sn214404   5.878   2.020   6.841  0.1443  0.0273  0.0555
 2761ntf    cn114405   5.996   1.919   6.746  0.0583 -0.5928  0.5943
 2761ntf    fn414406   5.778   2.363   7.122 -0.1971 -0.3839 -0.1030
 2761ntf    fn414407   5.749   2.355   6.913 -0.5698 -0.1984  0.1801
 2761ntf    fn414408   5.712   2.185   7.026  0.1253 -0.4140 -0.0284
 2761ntf    on514409   6.037   2.350   7.002  0.8597 -0.2410 -0.5479
 2761ntf    on514410   5.977   2.144   7.117  0.2439 -0.2698  0.0201
 2761ntf    on514411   5.772   2.040   6.744  0.3627  0.2400 -0.1401
 2761ntf    on514412   5.849   1.939   6.957  0.3971 -0.9267 -0.5271
 2761ntf    fn414413   6.103   1.892   6.817  0.4687  0.6275  0.4725
 2761ntf    fn414414   5.957   1.798   6.708 -0.4417 -0.3829  0.4246
 2761ntf    fn414415   6.043   1.990   6.644 -0.2650 -0.7330  0.3443
 2762ntf    cn114416   3.274   3.468   2.094 -0.4287 -0.6297  0.1759
 2762ntf    sn214417   3.168   3.595   2.169  0.0725  0.0306 -0.2193
 2762ntf    nn314418   3.153   3.683   2.040 -0.7315  0.8882  0.4448
 2762ntf    sn214419   3.241   3.804   1.993  0.4577 -0.1030  0.0701
 2762ntf    cn114420   3.269   3.772   1.816 -0.2825 -0.4201  0.0074
 2762ntf    fn414421   3.262   3.351   2.154 -0.0060 -0.8255 -0.1144
 2762ntf    fn414422   3.219   3.440   1.978  0.1147  0.0789 -0.2678
 2762ntf    fn414423   3.404   3.487   2.075 -0.5739  0.4995  0.2374
 2762ntf    on514424   3.046   3.527   2.202  0.0681  0.3184  0.3740
 2762ntf    on514425   3.248   3.646   2.278  0.5729 -0.3105 -0.4234
 2762ntf    on514426   3.376   3.800   2.042  0.2063  0.7249  0.8567
 2762ntf    on514427   3.168   3.928   1.995  0.1158 -0.3010 -0.0077
 2762ntf    fn414428   3.158   3.766   1.744 -0.3369 -0.3845  0.0874
 2762ntf    fn414429   3.345   3.870   1.770 -0.5564 -0.4074 -0.4260
 2762ntf    fn414430   3.327   3.655   1.794  0.1081 -0.2810  0.2965
 2763ntf    cn114431   1.061   6.547   4.934 -0.0111  0.0149 -0.4580
 2763ntf    sn214432   0.972   6.693   4.995  0.4583 -0.0487  0.3903
 2763ntf    nn314433   0.892   6.728   4.865  0.0844 -0.0827  0.6106
 2763ntf    sn214434   0.910   6.850   4.767 -0.2676 -0.4099  0.1342
 2763ntf    cn114435   0.735   6.855   4.716 -0.1621 -0.1519 -0.2026
 2763ntf    fn414436   1.139   6.567   4.829 -0.0309 -0.5007 -0.5763
 2763ntf    fn414437   1.142   6.492   5.023  0.3401 -0.1401 -0.8650
 2763ntf    fn414438   0.978   6.448   4.903 -0.1190 -0.1354  0.2954
 2763ntf    on514439   0.892   6.635   5.100 -0.4270 -0.5358 -0.5458
 2763ntf    on514440   1.072   6.788   5.039  0.1775  0.0346  0.8543
 2763ntf    on514441   0.974   6.813   4.643  0.2109 -0.4564  0.3925
 2763ntf    on514442   0.932   6.980   4.827 -0.3092 -0.0296 -0.6681
 2763ntf    fn414443   0.655   6.862   4.821  0.2731 -0.3231  0.1454
 2763ntf    fn414444   0.700   6.957   4.639 -0.4336  0.0032  0.1264
 2763ntf    fn414445   0.699   6.746   4.650  0.1666 -0.1269 -0.4302
 2764ntf    cn114446   3.176   5.606   1.833  0.3232  0.0515 -0.2861
 2764ntf    sn214447   3.184   5.424   1.826  0.1638  0.0462 -0.3299
 2764ntf    nn314448   3.291   5.399   1.713  0.4743  0.2821 -0.0920
 2764ntf    sn214449   3.447   5.385   1.703  0.4584  0.1090 -0.0958
 2764ntf    cn114450   3.488   5.465   1.545  0.0982  0.0260 -0.2323
 2764ntf    fn414451   3.277   5.657   1.903  0.0317 -0.0970  0.2463
 2764ntf    fn414452   3.183   5.657   1.712  0.0402 -0.1463 -0.3863
 2764ntf    fn414453   3.066   5.657   1.887  0.2728 -0.1750 -0.1722
 2764ntf    on514454   3.238   5.386   1.954  1.1397 -0.3918 -0.8599
 2764ntf    on514455   3.049   5.384   1.796  0.0875 -0.3982  0.5911
 2764ntf    on514456   3.495   5.250   1.683 -0.4238 -0.1763 -0.3663
 2764ntf    on514457   3.505   5.459   1.812 -0.3585  0.0893  0.3668
 2764ntf    fn414458   3.423   5.580   1.534 -0.3666 -0.2543 -0.4908
 2764ntf    fn414459   3.615   5.493   1.523  0.0646  0.0802 -0.3594
 2764ntf    fn414460   3.450   5.406   1.433 -0.3341  0.1366 -0.1456
 2765ntf    cn114461   4.441   0.246   0.505 -0.4322  0.1610  0.1485
 2765ntf    sn214462   4.435   0.426   0.483 -0.2035  0.1828  0.2618
 2765ntf    nn314463   4.459   0.483   0.628  0.0200 -0.1345  0.3499
 2765ntf    sn214464   4.593   0.532   0.692  0.1222 -0.1117  0.1193
 2765ntf    cn114465   4.594   0.694   0.611 -0.0185  0.1642  0.6617
 2765ntf    fn414466   4.345   0.210   0.589 -0.3093  0.1626  0.2915
 2765ntf    fn414467   4.441   0.183   0.389 -0.4850  0.0215  0.2241
 2765ntf    fn414468   4.556   0.216   0.563 -0.3089  0.2873 -0.0303
 2765ntf    on514469   4.542   0.452   0.390  0.2717  0.5087  0.8864
 2765ntf    on514470   4.302   0.446   0.431 -0.2471 -0.4044  0.1455
 2765ntf    on514471   4.716   0.467   0.654  0.0334 -0.1188 -0.1573
 2765ntf    on514472   4.568   0.559   0.831 -1.0898  0.5691 -0.2249
 2765ntf    fn414473   4.609   0.691   0.479  0.1433  0.0211  0.6827
 2765ntf    fn414474   4.482   0.760   0.636 -0.8591 -0.8614 -0.2983
 2765ntf    fn414475   4.696   0.768   0.651  0.1273  0.7101 -0.6549
 2766ntf    cn114476   2.292   3.580   6.861  0.3935 -0.4444 -0.1578
 2766ntf    sn214477   2.158   3.463   6.897  0.3245 -0.2769  0.1312
 2766ntf    nn314478   2.081   3.524   7.020  0.0610  0.1729 -0.2514
 2766ntf    sn214479   1.968   3.633   7.026 -0.0634  0.0354 -0.1139
 2766ntf    cn114480   1.824   3.523   7.011 -0.1164  0.1363 -0.3487
 2766ntf    fn414481   2.251   3.704   6.843  0.2227 -0.4764  0.0159
 2766ntf    fn414482   2.389   3.587   6.951  0.0367 -0.0870  0.2014
 2766ntf    fn414483   2.343   3.543   6.745 -0.2024  0.3461 -0.6826
 2766ntf    on514484   2.093   3.450   6.769 -0.1103  0.2276  0.2951
 2766ntf    on514485   2.225   3.343   6.939 -0.2958 -0.7922 -0.3204
 2766ntf    on514486   1.970   3.723   6.914 -0.2694  0.1637 -0.0158
 2766ntf    on514487   1.945   3.685   7.159 -0.5281  0.0709 -0.2070
 2766ntf    fn414488   1.722   3.596   6.969 -0.8672 -0.6169  0.1215
 2766ntf    fn414489   1.837   3.427   6.920  0.0736 -0.1510 -0.0245
 2766ntf    fn414490   1.788   3.472   7.128 -0.1419  0.2785 -0.2945
 2767ntf    cn114491   5.541   0.035   6.704 -0.0551 -0.3006 -0.1527
 2767ntf    sn214492   5.487  -0.081   6.834 -0.1220  0.2636  0.3296
 2767ntf    nn314493   5.336  -0.040   6.843 -0.1108  0.3028  0.3293
 2767ntf    sn214494   5.251   0.002   6.968 -0.2476  0.5252  0.1627
 2767ntf    cn114495   5.083   0.027   6.902 -0.2700 -0.2618 -0.0899
 2767ntf    fn414496   5.523   0.160   6.742  0.0233 -0.3620  0.0861
 2767ntf    fn414497   5.670   0.023   6.681 -0.0697  0.0749 -0.4393
 2767ntf    fn414498   5.473   0.026   6.591 -0.2212 -0.1599 -0.0656
 2767ntf    on514499   5.486  -0.211   6.769  0.6659  0.3307  0.1673
 2767ntf    on514500   5.573  -0.065   6.948 -0.1411 -0.6003  0.4712
 2767ntf    on514501   5.288   0.133   7.016  0.0965  0.2627  0.6161
 2767ntf    on514502   5.235  -0.100   7.068 -0.0318  0.0978 -0.2346
 2767ntf    fn414503   5.011   0.092   6.991 -0.2698 -0.0722 -0.2268
 2767ntf    fn414504   5.073   0.097   6.790 -0.3668 -0.4363 -0.1908
 2767ntf    fn414505   5.016  -0.085   6.881 -0.1038 -0.4100  0.1592
 2768ntf    cn114506   6.626   1.034   3.416  0.0899 -0.3173  0.1948
 2768ntf    sn214507   6.622   0.882   3.515 -0.1254 -0.2253  0.3283
 2768ntf    nn314508   6.473   0.839   3.489 -0.2502  0.4121 -0.0284
 2768ntf    sn214509   6.414   0.700   3.448  0.1772  0.2897 -0.2285
 2768ntf    cn114510   6.277   0.704   3.567  0.3755  0.2248  0.0021
 2768ntf    fn414511   6.725   1.047   3.329  0.0295 -0.0366  0.1660
 2768ntf    fn414512   6.508   1.045   3.357  0.2590  0.1590 -0.0638
 2768ntf    fn414513   6.630   1.142   3.492 -0.3298  0.4382 -0.8180
 2768ntf    on514514   6.730   0.795   3.476 -0.4100 -0.5868  0.3319
 2768ntf    on514515   6.644   0.931   3.649  0.2968  1.3703 -0.3030
 2768ntf    on514516   6.489   0.580   3.477 -0.5697  0.1587  1.2304
 2768ntf    on514517   6.347   0.704   3.320  0.0024  0.4027 -0.1335
 2768ntf    fn414518   6.202   0.595   3.561  0.4018  0.2054  0.0207
 2768ntf    fn414519   6.305   0.720   3.696  0.5981  0.2442 -0.0477
 2768ntf    fn414520   6.189   0.797   3.534  0.3166  0.3263  0.4323
 2769ntf    cn114521   5.568   4.946   3.776 -0.2032  0.7035 -0.0028
 2769ntf    sn214522   5.733   4.877   3.746 -0.3565  0.2266  0.2355
 2769ntf    nn314523   5.816   5.005   3.784 -0.4539  0.4156 -0.1754
 2769ntf    sn214524   5.892   5.102   3.686 -0.1428 -0.0938 -0.4422
 2769ntf    cn114525   5.757   5.186   3.599 -0.3365 -0.4370 -0.4739
 2769ntf    fn414526   5.476   4.852   3.764 -0.0598  0.5156  0.3628
 2769ntf    fn414527   5.564   4.989   3.901  0.7317  0.5876  0.0754
 2769ntf    fn414528   5.531   5.041   3.692 -0.3796  0.1032 -0.6134
 2769ntf    on514529   5.754   4.775   3.846  0.1308  0.2879  0.1999
 2769ntf    on514530   5.741   4.838   3.607 -0.2308  0.0627  0.2887
 2769ntf    on514531   5.972   5.027   3.593  0.2981 -0.1314 -0.0363
 2769ntf    on514532   5.961   5.202   3.763 -0.0494 -0.3156 -0.2332
 2769ntf    fn414533   5.666   5.255   3.665 -0.1815 -0.1714 -0.5365
 2769ntf    fn414534   5.809   5.280   3.523 -0.2625 -0.0702  0.0295
 2769ntf    fn414535   5.695   5.105   3.514 -0.7790 -0.2199 -0.3633
 2770ntf    cn114536   4.897   1.199   5.124 -0.2913 -0.2326  0.2934
 2770ntf    sn214537   4.791   1.287   5.005  0.1255  0.0023  0.0973
 2770ntf    nn314538   4.659   1.203   5.010 -0.0157  0.2128 -0.0883
 2770ntf    sn214539   4.523   1.248   4.945 -0.2673 -0.0892  0.2254
 2770ntf    cn114540   4.525   1.167   4.783  0.2571  0.1932  0.0903
 2770ntf    fn414541   4.870   1.222   5.252 -0.1044 -0.3656  0.3560
 2770ntf    fn414542   4.913   1.070   5.102 -0.3001 -0.1976  0.0853
 2770ntf    fn414543   5.015   1.252   5.098 -0.8231  0.2969 -1.1111
 2770ntf    on514544   4.774   1.412   5.075 -0.1882 -0.0957  0.1977
 2770ntf    on514545   4.851   1.279   4.874  0.0802  0.2988  0.0585
 2770ntf    on514546   4.505   1.386   4.908 -0.7602 -0.0179  0.7129
 2770ntf    on514547   4.412   1.185   5.013 -0.4834  0.3162  0.2541
 2770ntf    fn414548   4.609   1.225   4.699  0.2372 -0.1946 -0.2029
 2770ntf    fn414549   4.564   1.041   4.774  0.2355  0.2278 -0.5446
 2770ntf    fn414550   4.409   1.175   4.720  0.7133 -0.8754 -0.9367
 2771ntf    cn114551   4.014   3.964   5.528  0.4117 -0.1556 -0.3699
 2771ntf    sn214552   4.000   4.126   5.609  0.1805 -0.2584 -0.2040
 2771ntf    nn314553   4.133   4.131   5.693 -0.0970  0.0569  0.2233
 2771ntf    sn214554   4.252   4.233   5.696  0.1052 -0.1666 -0.1741
 2771ntf    cn114555   4.363   4.143   5.583  0.2411  0.0215 -0.1902
 2771ntf    fn414556   3.905   3.942   5.457  0.1893  0.3627 -0.1987
 2771ntf    fn414557   4.108   3.961   5.434  0.5057  0.3292 -0.2952
 2771ntf    fn414558   4.031   3.863   5.611 -0.9489 -0.5084 -0.5099
 2771ntf    on514559   3.989   4.219   5.499 -0.3472  0.0257  0.0853
 2771ntf    on514560   3.884   4.117   5.694  0.4521 -0.0293  0.1967
 2771ntf    on514561   4.317   4.234   5.825 -0.1273 -0.8403 -0.0490
 2771ntf    on514562   4.234   4.363   5.636  0.5551  0.1224  0.3157
 2771ntf    fn414563   4.479   4.205   5.568  0.4182 -0.1163  0.5342
 2771ntf    fn414564   4.380   4.019   5.625  0.6222  0.1809  0.1287
 2771ntf    fn414565   4.308   4.132   5.464  0.2787  0.1386 -0.2188
 2772ntf    cn114566   4.320   3.479   4.385  0.3913 -0.2803  0.5067
 2772ntf    sn214567   4.183   3.443   4.500  0.0020 -0.0959  0.1045
 2772ntf    nn314568   4.116   3.582   4.526 -0.7606 -0.4041 -0.1845
 2772ntf    sn214569   4.033   3.678   4.434 -0.0189  0.3213 -0.1122
 2772ntf    cn114570   4.122   3.832   4.472  0.6144 -0.0513 -0.0790
 2772ntf    fn414571   4.390   3.583   4.428  0.0201  0.1416  0.0955
 2772ntf    fn414572   4.401   3.375   4.379  0.4357 -0.2339  0.3154
 2772ntf    fn414573   4.280   3.503   4.261  0.4713 -0.2256  0.4921
 2772ntf    on514574   4.108   3.343   4.428 -0.0652  0.4238 -0.5555
 2772ntf    on514575   4.267   3.401   4.610  0.7729  0.5093 -0.2435
 2772ntf    on514576   3.896   3.701   4.472  0.0603 -0.2311  0.5204
 2772ntf    on514577   4.047   3.652   4.293 -0.0786 -0.6439  0.0556
 2772ntf    fn414578   4.112   3.863   4.600  0.1548 -0.2560 -0.0619
 2772ntf    fn414579   4.252   3.825   4.450  0.5197 -0.1739 -0.6111
 2772ntf    fn414580   4.068   3.937   4.413 -0.2116 -0.4939 -0.1302
 2773ntf    cn114581   6.000   4.140   1.119 -0.0045  0.1262 -0.1815
 2773ntf    sn214582   6.131   4.059   1.216  0.1382  0.5581 -0.0091
 2773ntf    nn314583   6.040   3.986   1.322  0.0328  0.0534 -0.4452
 2773ntf    sn214584   6.031   3.833   1.355 -0.0657  0.1158 -0.1850
 2773ntf    cn114585   5.858   3.820   1.410  0.1187 -0.4502  0.2783
 2773ntf    fn414586   5.911   4.051   1.078  0.6690 -0.4378 -0.4365
 2773ntf    fn414587   5.931   4.229   1.188 -0.2282  0.1875 -0.4848
 2773ntf    fn414588   6.041   4.196   1.006  0.1421 -0.1152 -0.2487
 2773ntf    on514589   6.185   3.972   1.115  0.3120  0.7180 -0.0531
 2773ntf    on514590   6.210   4.169   1.266  0.5378  0.0530  0.4867
 2773ntf    on514591   6.100   3.813   1.480 -0.5653 -0.5277 -0.0055
 2773ntf    on514592   6.052   3.740   1.247 -0.1067  0.4213 -0.4592
 2773ntf    fn414593   5.765   3.870   1.329  0.6829  0.0287 -0.0835
 2773ntf    fn414594   5.824   3.694   1.429 -0.0264 -0.4246  0.1980
 2773ntf    fn414595   5.841   3.880   1.526  0.3641 -0.5553  0.3671
 2774ntf    cn114596   2.897   4.740   4.138 -0.0173  0.1534  0.3866
 2774ntf    sn214597   3.055   4.654   4.164 -0.0052  0.2129  0.5115
 2774ntf    nn314598   3.042   4.613   4.315  0.0052 -1.1658  0.1468
 2774ntf    sn214599   3.117   4.667   4.442 -0.0383 -0.4008 -0.1508
 2774ntf    cn114600   3.272   4.576   4.465  0.3772  0.3228 -0.0690
 2774ntf    fn414601   2.884   4.838   4.226 -0.1008  0.5235 -0.0332
 2774ntf    fn414602   2.869   4.792   4.020 -0.0977  0.0334  0.3525
 2774ntf    fn414603   2.800   4.651   4.154  0.1195 -0.1725 -0.5373
 2774ntf    on514604   3.046   4.544   4.072 -0.4690  0.7666 -0.1159
 2774ntf    on514605   3.147   4.758   4.123  0.1259 -0.4547 -0.9608
 2774ntf    on514606   3.028   4.624   4.547 -0.0906  0.2069  0.0619
 2774ntf    on514607   3.161   4.804   4.436 -0.4106 -0.2667  0.1058
 2774ntf    fn414608   3.319   4.596   4.587  0.5098 -0.2059 -0.0323
 2774ntf    fn414609   3.262   4.445   4.455  0.4578  0.3359 -0.3346
 2774ntf    fn414610   3.365   4.604   4.375  0.7133  0.2423  0.2503
 2775ntf    cn114611   1.833   1.406   6.568  0.2940  0.0931  0.4893
 2775ntf    sn214612   1.860   1.380   6.390 -0.1505 -0.1550  0.4576
 2775ntf    nn314613   2.017   1.393   6.397 -0.0474 -0.7807 -0.4614
 2775ntf    sn214614   2.133   1.368   6.294  0.1891  0.0986 -0.4112
 2775ntf    cn114615   2.267   1.278   6.378  0.2502  0.4137 -0.1676
 2775ntf    fn414616   1.838   1.531   6.610  0.3360  0.3433 -0.2326
 2775ntf    fn414617   1.717   1.359   6.611  0.1293  0.2382  0.2088
 2775ntf    fn414618   1.921   1.338   6.640  0.1735 -0.1427  0.4152
 2775ntf    on514619   1.814   1.246   6.363  0.0596 -0.2469  0.5488
 2775ntf    on514620   1.799   1.488   6.318 -0.3193 -0.3152  0.3588
 2775ntf    on514621   2.200   1.494   6.271  0.5663 -0.0056  0.0898
 2775ntf    on514622   2.108   1.281   6.182  0.4500  0.1188 -0.4846
 2775ntf    fn414623   2.354   1.235   6.288  0.4639 -0.2439  0.3527
 2775ntf    fn414624   2.340   1.359   6.453 -0.0556  0.4391  0.1058
 2775ntf    fn414625   2.228   1.179   6.456 -0.1277  0.5523 -0.1737
 2776ntf    cn114626   5.645   4.309   5.588 -0.3035  0.1674 -0.2189
 2776ntf    sn214627   5.765   4.217   5.486 -0.1285  0.2379 -0.0766
 2776ntf    nn314628   5.707   4.072   5.495  0.4051 -0.0092 -0.6082
 2776ntf    sn214629   5.627   3.990   5.387  0.1646 -0.2544 -0.2444
 2776ntf    cn114630   5.687   3.823   5.425  0.4375 -0.2803 -0.7868
 2776ntf    fn414631   5.660   4.439   5.569  0.7519  0.0673 -0.1513
 2776ntf    fn414632   5.521   4.274   5.558 -0.2813 -0.0790 -0.0268
 2776ntf    fn414633   5.670   4.287   5.716 -0.2147 -0.0302 -0.2691
 2776ntf    on514634   5.760   4.284   5.358 -0.0897 -0.2577 -0.3368
 2776ntf    on514635   5.884   4.240   5.564 -0.1180 -0.3973  0.1001
 2776ntf    on514636   5.668   3.992   5.249 -0.1577 -0.2749 -0.3408
 2776ntf    on514637   5.489   3.968   5.421 -0.0941  0.3269 -0.9086
 2776ntf    fn414638   5.811   3.798   5.384  0.4590 -0.2560 -0.7348
 2776ntf    fn414639   5.677   3.802   5.555 -0.0644 -0.5603 -0.8692
 2776ntf    fn414640   5.612   3.730   5.368  0.1606 -0.3235 -0.3524
 2777ntf    cn114641   3.198   2.890   0.413  0.1529 -0.0969 -0.2080
 2777ntf    sn214642   3.359   2.812   0.385  0.0615 -0.3184 -0.1200
 2777ntf    nn314643   3.368   2.722   0.513  0.1622  0.5034  0.4521
 2777ntf    sn214644   3.375   2.566   0.531  0.5637  0.4370 -0.2525
 2777ntf    cn114645   3.535   2.553   0.617  0.4142  0.2695 -0.0007
 2777ntf    fn414646   3.162   2.988   0.332 -0.3294 -0.1124 -0.0191
 2777ntf    fn414647   3.103   2.797   0.412  0.0247  0.0274  0.1787
 2777ntf    fn414648   3.202   2.939   0.535  0.1617 -0.4785 -0.0526
 2777ntf    on514649   3.352   2.755   0.252 -0.9181  0.2413 -0.3169
 2777ntf    on514650   3.439   2.932   0.395  0.1474 -0.3802 -0.0605
 2777ntf    on514651   3.390   2.485   0.413  0.2872 -0.2587  0.1886
 2777ntf    on514652   3.285   2.507   0.626  0.6674  0.7274  0.0294
 2777ntf    fn414653   3.587   2.434   0.591 -0.0756  0.0684 -0.0677
 2777ntf    fn414654   3.629   2.642   0.589  0.3371  0.2072 -0.4644
 2777ntf    fn414655   3.517   2.552   0.748  0.0189  0.3417 -0.0543
 2778ntf    cn114656   1.193   4.549   1.575  0.7581  0.0862  0.2183
 2778ntf    sn214657   1.052   4.508   1.683  0.1522  0.4624 -0.4164
 2778ntf    nn314658   1.006   4.373   1.618  0.3238  0.0833  0.2385
 2778ntf    sn214659   0.919   4.260   1.684  0.0910  0.1583  0.0637
 2778ntf    cn114660   0.762   4.308   1.607  0.2171  0.1413 -0.2042
 2778ntf    fn414661   1.152   4.539   1.449  0.1379 -1.3934  0.5153
 2778ntf    fn414662   1.228   4.676   1.589  0.2304  0.3251 -0.5273
 2778ntf    fn414663   1.299   4.472   1.591  0.7140 -0.0288 -0.0360
 2778ntf    on514664   1.129   4.490   1.803 -0.7312  0.1189  0.1060
 2778ntf    on514665   0.966   4.623   1.679 -0.2563  0.1417 -1.2526
 2778ntf    on514666   0.898   4.281   1.826  0.5336 -0.1982  0.1832
 2778ntf    on514667   0.933   4.127   1.632  0.8122 -0.3368  1.4492
 2778ntf    fn414668   0.760   4.283   1.477 -0.5695  0.2699 -0.2262
 2778ntf    fn414669   0.657   4.245   1.658  0.3329  0.0706 -0.0512
 2778ntf    fn414670   0.745   4.438   1.620  0.1015  0.1486 -0.4142
 2779ntf    cn114671   0.405   1.661   7.011 -0.0892  0.1433  0.1117
 2779ntf    sn214672   0.542   1.581   6.923  0.1193  0.1063  0.4670
 2779ntf    nn314673   0.661   1.654   6.993  0.3435 -0.0759  0.2782
 2779ntf    sn214674   0.776   1.744   6.935  0.0926 -0.0022 -0.1071
 2779ntf    cn114675   0.695   1.906   6.918 -0.1531 -0.1698 -0.5601
 2779ntf    fn414676   0.434   1.657   7.140 -0.7694  0.4686  0.2836
 2779ntf    fn414677   0.393   1.791   6.988  0.2415  0.0964 -0.3372
 2779ntf    fn414678   0.289   1.605   6.981  0.0925  0.3273 -0.9993
 2779ntf    on514679   0.529   1.443   6.963 -0.4728 -0.0283 -0.1549
 2779ntf    on514680   0.514   1.609   6.784  0.2342  0.0135  0.4244
 2779ntf    on514681   0.817   1.713   6.800 -0.1194 -0.2414 -0.1185
 2779ntf    on514682   0.871   1.769   7.040  0.2769 -0.2962 -0.2020
 2779ntf    fn414683   0.655   1.952   7.036  0.3069 -0.0776 -0.4396
 2779ntf    fn414684   0.767   2.002   6.863  0.0836  0.0528  0.1184
 2779ntf    fn414685   0.584   1.896   6.848 -0.7044 -0.1363  0.2893
 2780ntf    cn114686   0.303   0.675   4.832  0.0095  0.2098 -0.1068
 2780ntf    sn214687   0.464   0.760   4.836  0.1853 -0.1190 -0.0962
 2780ntf    nn314688   0.490   0.781   4.682  0.7818  0.6605  0.1044
 2780ntf    sn214689   0.468   0.913   4.599 -0.2470  0.4240 -0.0146
 2780ntf    cn114690   0.422   0.848   4.436 -0.1225 -0.3779  0.2622
 2780ntf    fn414691   0.309   0.549   4.792  0.5413  0.2469 -0.1480
 2780ntf    fn414692   0.243   0.663   4.949  0.0815 -0.1098 -0.1011
 2780ntf    fn414693   0.213   0.740   4.760 -0.1238  0.3823  0.2126
 2780ntf    on514694   0.443   0.884   4.908 -0.5056 -0.0542 -0.4005
 2780ntf    on514695   0.544   0.659   4.899 -0.1322 -0.1713  0.2253
 2780ntf    on514696   0.588   0.986   4.569  0.2559 -0.4860 -0.2663
 2780ntf    on514697   0.355   0.993   4.640 -0.4898 -0.0206  0.1962
 2780ntf    fn414698   0.296   0.812   4.422 -0.1288 -0.2447 -0.0400
 2780ntf    fn414699   0.438   0.944   4.346 -0.1720  0.2185  0.8775
 2780ntf    fn414700   0.498   0.742   4.414  0.4109 -0.0180  0.3400
 2781ntf    cn114701   3.030   0.719   5.185  0.0359 -0.1594 -0.1022
 2781ntf    sn214702   2.992   0.697   5.361  0.5650  0.0271  0.0367
 2781ntf    nn314703   3.114   0.613   5.414  0.6629  0.0202 -0.1995
 2781ntf    sn214704   3.231   0.652   5.511  0.3870 -0.5165  0.3581
 2781ntf    cn114705   3.343   0.715   5.383  0.1090  0.0924  0.4090
 2781ntf    fn414706   3.149   0.778   5.179  0.1661 -0.4287 -0.1551
 2781ntf    fn414707   3.053   0.610   5.114  0.3640 -0.5398  0.5835
 2781ntf    fn414708   2.945   0.797   5.119 -0.0938  0.1960  0.4766
 2781ntf    on514709   2.983   0.833   5.408 -0.3348 -0.0846  0.2053
 2781ntf    on514710   2.871   0.619   5.357  0.5495  0.0460  0.1367
 2781ntf    on514711   3.300   0.540   5.569  0.8877 -0.1956  0.3910
 2781ntf    on514712   3.198   0.760   5.601  0.0273  0.0475 -0.4330
 2781ntf    fn414713   3.471   0.712   5.419  0.1812 -0.0827  0.1439
 2781ntf    fn414714   3.347   0.634   5.278 -0.0573  0.1850  0.3311
 2781ntf    fn414715   3.316   0.837   5.338 -0.3655 -0.1132  0.1319
 2782ntf    cn114716   6.019   2.358   3.085 -0.3014 -0.0694  0.0600
 2782ntf    sn214717   5.894   2.270   2.985  0.0963 -0.0708 -0.4413
 2782ntf    nn314718   5.828   2.179   3.095 -0.4936  0.2086 -0.5625
 2782ntf    sn214719   5.718   2.209   3.203  0.1039  0.2554  0.0367
 2782ntf    cn114720   5.804   2.128   3.341  0.5347  0.0023 -0.3726
 2782ntf    fn414721   6.113   2.406   3.006 -0.2857  0.5745  0.4650
 2782ntf    fn414722   5.972   2.465   3.146 -0.2625  0.1791 -0.3408
 2782ntf    fn414723   6.078   2.275   3.169 -0.2504 -0.1079 -0.0130
 2782ntf    on514724   5.798   2.364   2.933 -0.7150 -0.7573 -0.2058
 2782ntf    on514725   5.969   2.190   2.892  0.0289  0.0324 -0.5846
 2782ntf    on514726   5.609   2.116   3.189  0.3334  0.0566 -0.4656
 2782ntf    on514727   5.703   2.342   3.255 -0.0813  0.0341  0.5505
 2782ntf    fn414728   5.935   2.145   3.341  0.5376 -0.0212 -0.3336
 2782ntf    fn414729   5.756   2.175   3.456 -1.0091 -0.1113 -0.9486
 2782ntf    fn414730   5.772   2.000   3.339 -0.0981  0.1367  0.4594
 2783ntf    cn114731   2.434   6.401   3.785  0.1293 -0.1414 -0.3904
 2783ntf    sn214732   2.376   6.308   3.930 -0.4228  0.4203 -0.2434
 2783ntf    nn314733   2.330   6.431   4.015 -0.3870  0.3638 -0.1418
 2783ntf    sn214734   2.415   6.544   4.083  0.1342  0.2303 -0.5655
 2783ntf    cn114735   2.391   6.507   4.259  0.4737  0.7779 -0.3996
 2783ntf    fn414736   2.357   6.509   3.773 -0.0673 -0.1498  0.7321
 2783ntf    fn414737   2.558   6.442   3.801 -0.0501  0.3975 -0.3674
 2783ntf    fn414738   2.430   6.333   3.671 -0.2400 -0.0092 -0.4585
 2783ntf    on514739   2.266   6.227   3.883 -0.3446  0.3508 -0.3095
 2783ntf    on514740   2.499   6.247   3.973 -0.7284 -0.3359 -0.4221
 2783ntf    on514741   2.361   6.677   4.065  0.3915  0.5444  0.8548
 2783ntf    on514742   2.559   6.531   4.074  0.2129  0.4040  0.3513
 2783ntf    fn414743   2.424   6.602   4.345 -0.2235  1.1938 -0.5833
 2783ntf    fn414744   2.266   6.471   4.283  0.6804  0.4771  0.2730
 2783ntf    fn414745   2.465   6.403   4.295 -0.4013  0.3544  0.2041
 2784ntf    cn114746   1.293   5.855   4.677 -0.3521 -0.6198  0.2227
 2784ntf    sn214747   1.376   5.895   4.834 -0.3710  0.1443  0.0422
 2784ntf    nn314748   1.391   6.050   4.813  0.7165  0.1522  0.7994
 2784ntf    sn214749   1.285   6.161   4.844 -0.0468 -0.3461  0.0433
 2784ntf    cn114750   1.337   6.195   5.015 -0.1826 -0.0074  0.0181
 2784ntf    fn414751   1.163   5.850   4.697 -0.4400  0.4650  0.0055
 2784ntf    fn414752   1.311   5.950   4.586 -0.6910 -0.8244 -0.0598
 2784ntf    fn414753   1.333   5.745   4.615  0.5247 -0.2905  0.1792
 2784ntf    on514754   1.294   5.850   4.944 -0.4782 -0.1709 -0.1645
 2784ntf    on514755   1.505   5.831   4.833 -0.4758 -0.0687  0.0738
 2784ntf    on514756   1.146   6.122   4.850 -0.1368  0.0063  0.3536
 2784ntf    on514757   1.320   6.281   4.772 -0.0697 -0.1393  0.3701
 2784ntf    fn414758   1.468   6.188   5.029 -0.1597 -0.7888 -0.5285
 2784ntf    fn414759   1.299   6.318   5.049 -0.0716  0.0616 -0.1065
 2784ntf    fn414760   1.282   6.107   5.098 -0.1706  0.2073  0.2560
 2785ntf    cn114761   3.032   5.358   5.790 -0.2176 -0.0094 -0.4472
 2785ntf    sn214762   2.955   5.513   5.735 -0.2652  0.2255  0.2669
 2785ntf    nn314763   2.831   5.522   5.832 -0.1949 -0.0073  0.3798
 2785ntf    sn214764   2.801   5.629   5.943 -0.2494  0.6232 -0.2304
 2785ntf    cn114765   2.913   5.544   6.058 -0.2774  0.2544 -0.4734
 2785ntf    fn414766   3.146   5.341   5.725 -0.2464  0.4792 -0.6331
 2785ntf    fn414767   3.064   5.371   5.918  0.1846 -0.4166 -0.5032
 2785ntf    fn414768   2.958   5.250   5.777 -0.0734 -0.1630 -0.0246
 2785ntf    on514769   3.057   5.614   5.741 -0.5718  0.5480  0.1326
 2785ntf    on514770   2.918   5.482   5.599  0.4400 -0.1970  0.1649
 2785ntf    on514771   2.674   5.614   6.009 -0.6024 -0.2152 -1.0794
 2785ntf    on514772   2.857   5.760   5.921  0.7531  0.2982  0.3536
 2785ntf    fn414773   2.888   5.581   6.183 -0.3012 -0.8711 -0.1314
 2785ntf    fn414774   2.897   5.413   6.048  0.0489  0.2056 -0.3596
 2785ntf    fn414775   3.041   5.569   6.035  0.0750 -0.9347  0.1189
 2786ntf    cn114776   2.485   1.959   3.142 -0.4717 -0.1354 -0.0636
 2786ntf    sn214777   2.449   1.846   3.280 -0.0697 -0.1586  0.0233
 2786ntf    nn314778   2.324   1.930   3.324  0.1320  0.2784 -0.2385
 2786ntf    sn214779   2.178   1.880   3.350  0.3506 -0.2789 -0.0847
 2786ntf    cn114780   2.153   1.925   3.524 -0.1861 -0.4648 -0.1116
 2786ntf    fn414781   2.519   2.076   3.194  0.1134  0.0542 -0.8601
 2786ntf    fn414782   2.583   1.928   3.059 -0.2726 -0.3032  0.2302
 2786ntf    fn414783   2.386   1.994   3.062 -0.4317 -0.1979 -0.1402
 2786ntf    on514784   2.420   1.718   3.221 -0.1332 -0.4670  0.7175
 2786ntf    on514785   2.560   1.858   3.371  0.1290 -0.8787 -0.1158
 2786ntf    on514786   2.154   1.737   3.345  0.5983 -0.3218 -0.0699
 2786ntf    on514787   2.082   1.961   3.280 -0.7332 -0.5515  1.0584
 2786ntf    fn414788   2.028   1.924   3.566  0.0071 -0.3370  0.4769
 2786ntf    fn414789   2.221   1.843   3.602  0.3126 -0.2151 -0.2801
 2786ntf    fn414790   2.210   2.039   3.560  0.2066 -0.7192  0.0895
 2787ntf    cn114791   2.868   1.816   5.947  0.3297 -0.1526 -0.0775
 2787ntf    sn214792   3.040   1.875   5.952  0.3063 -0.0814 -0.1157
 2787ntf    nn314793   3.119   1.749   5.902 -0.0458 -0.1568 -0.4856
 2787ntf    sn214794   3.225   1.672   5.988 -0.2362  0.0391 -0.0728
 2787ntf    cn114795   3.133   1.521   6.029 -0.0943 -0.1051 -0.2835
 2787ntf    fn414796   2.855   1.701   6.012 -0.2406 -0.0242  0.0358
 2787ntf    fn414797   2.776   1.901   5.989  0.4038 -0.0061 -0.2126
 2787ntf    fn414798   2.840   1.790   5.820  0.4822 -0.0569 -0.1303
 2787ntf    on514799   3.043   1.978   5.852  0.0217 -0.0503 -0.0925
 2787ntf    on514800   3.062   1.910   6.090 -0.6307  0.2946 -0.0569
 2787ntf    on514801   3.252   1.720   6.121  0.1608  0.5319 -0.3281
 2787ntf    on514802   3.334   1.618   5.910 -0.1038 -0.3024  0.3433
 2787ntf    fn414803   3.215   1.422   6.060 -0.0194  0.0416 -0.0056
 2787ntf    fn414804   3.042   1.546   6.122  0.0715 -0.1503 -0.1091
 2787ntf    fn414805   3.069   1.477   5.921  0.5797  0.4459 -0.9176
 2788ntf    cn114806   2.741   6.835   5.911  0.0180 -0.3760 -0.0710
 2788ntf    sn214807   2.741   6.849   6.092  0.1578 -0.1531 -0.0880
 2788ntf    nn314808   2.896   6.859   6.120  0.1777 -0.1233 -0.2124
 2788ntf    sn214809   2.973   6.945   6.226  0.1186 -0.1139 -0.1771
 2788ntf    cn114810   3.008   6.812   6.344 -0.1523 -0.2155 -0.2096
 2788ntf    fn414811   2.824   6.740   5.874  0.0540 -0.3573 -0.0402
 2788ntf    fn414812   2.620   6.815   5.862 -0.1419  0.3863 -0.0114
 2788ntf    fn414813   2.792   6.942   5.852 -0.0305 -0.5327 -0.3961
 2788ntf    on514814   2.663   6.969   6.103  0.1838 -0.1908  0.5648
 2788ntf    on514815   2.681   6.728   6.142  0.3098 -0.2095 -0.0413
 2788ntf    on514816   2.894   7.022   6.320  0.5777  0.0232  0.0957
 2788ntf    on514817   3.096   7.005   6.182  0.1340  0.0463  0.0849
 2788ntf    fn414818   2.898   6.755   6.392 -0.0662  0.2228  0.5218
 2788ntf    fn414819   3.079   6.711   6.296  0.1913  0.0236 -0.2161
 2788ntf    fn414820   3.073   6.852   6.452 -0.0279 -0.5825 -0.1481
 2789ntf    cn114821   5.914   4.176   0.672  0.1853  0.4843  0.3249
 2789ntf    sn214822   6.079   4.231   0.618  0.2001  0.1570  0.0343
 2789ntf    nn314823   6.053   4.242   0.463 -0.5571  0.0742  0.1492
 2789ntf    sn214824   5.969   4.344   0.379  0.0447  0.1507 -0.3663
 2789ntf    cn114825   5.859   4.220   0.305 -0.1723  0.2900 -0.2777
 2789ntf    fn414826   5.822   4.271   0.680  0.5856  0.9128 -0.1098
 2789ntf    fn414827   5.866   4.081   0.594 -0.1382  0.8370  0.0911
 2789ntf    fn414828   5.911   4.136   0.798  0.1436 -0.0322  0.1630
 2789ntf    on514829   6.099   4.361   0.676 -0.6842  0.3056  0.0243
 2789ntf    on514830   6.175   4.129   0.652  0.0259  0.2010  0.6672
 2789ntf    on514831   6.041   4.405   0.270  0.2746 -0.2158 -0.4199
 2789ntf    on514832   5.884   4.438   0.448  0.1117  0.3884 -0.6034
 2789ntf    fn414833   5.815   4.139   0.401  0.8583 -0.0096 -0.0462
 2789ntf    fn414834   5.758   4.281   0.245 -0.5965  0.0248  0.1601
 2789ntf    fn414835   5.920   4.143   0.217  0.0133 -0.0398  0.1315
 2790ntf    cn114836   4.382   6.932   5.316 -0.0013 -0.0360 -0.1831
 2790ntf    sn214837   4.515   6.807   5.318  0.2649  0.2435 -0.3306
 2790ntf    nn314838   4.650   6.888   5.313  0.5678 -0.2011  0.5111
 2790ntf    sn214839   4.725   6.931   5.183  0.0370 -0.2125  0.1957
 2790ntf    cn114840   4.827   6.782   5.159  0.1018 -0.1095 -0.1785
 2790ntf    fn414841   4.266   6.879   5.281  0.3491 -0.7396 -0.3040
 2790ntf    fn414842   4.362   6.988   5.434  0.7288 -0.0534 -0.0458
 2790ntf    fn414843   4.400   7.036   5.237 -0.2120  0.0002 -0.1837
 2790ntf    on514844   4.498   6.750   5.449  0.0998  0.6176 -0.1867
 2790ntf    on514845   4.483   6.719   5.209 -0.6130 -0.1544  0.2367
 2790ntf    on514846   4.818   7.040   5.200 -0.4792  0.3808 -0.7482
 2790ntf    on514847   4.649   6.939   5.061  0.2921  0.3384  0.0677
 2790ntf    fn414848   4.900   6.782   5.048 -0.2157 -0.5320 -0.3913
 2790ntf    fn414849   4.915   6.764   5.256  0.2964 -0.3565 -0.4003
 2790ntf    fn414850   4.750   6.676   5.139  0.0043 -0.1825  0.5380
 2791ntf    cn114851   4.510   2.838   2.278  0.2674 -0.3710  0.1159
 2791ntf    sn214852   4.642   2.771   2.384  0.2626 -0.2415  0.2025
 2791ntf    nn314853   4.754   2.874   2.345 -0.4381  0.3519 -0.2904
 2791ntf    sn214854   4.861   2.862   2.231  0.0132 -0.0310  0.1664
 2791ntf    cn114855   4.994   2.769   2.314  0.3878 -0.4346 -0.8677
 2791ntf    fn414856   4.408   2.754   2.264  0.2192 -0.3163  0.1329
 2791ntf    fn414857   4.453   2.949   2.322  0.1209 -0.1886 -0.5303
 2791ntf    fn414858   4.556   2.857   2.156  0.3729 -0.6740  0.1075
 2791ntf    on514859   4.588   2.792   2.516 -0.1077 -0.4439  0.0847
 2791ntf    on514860   4.662   2.635   2.341  0.7261  0.0455 -0.4976
 2791ntf    on514861   4.915   2.993   2.204  0.5680 -0.2952 -0.0319
 2791ntf    on514862   4.839   2.782   2.113 -0.4787  0.4552 -0.0726
 2791ntf    fn414863   5.085   2.726   2.229  0.6534 -1.2342 -0.1896
 2791ntf    fn414864   5.049   2.838   2.412 -0.6516 -0.4221 -0.2742
 2791ntf    fn414865   4.945   2.660   2.372  0.2717  0.4312  0.7130
 2792ntf    cn114866   6.446   1.296   6.529 -0.1920  0.2806  0.1643
 2792ntf    sn214867   6.486   1.340   6.358  0.0864 -0.0201  0.1502
 2792ntf    nn314868   6.514   1.493   6.381 -0.0919  0.1796 -0.8928
 2792ntf    sn214869   6.449   1.626   6.328 -0.1416  0.2864 -0.5630
 2792ntf    cn114870   6.597   1.723   6.285 -0.0601  0.4636  0.1006
 2792ntf    fn414871   6.375   1.386   6.594  0.0489  0.2797  0.4294
 2792ntf    fn414872   6.395   1.174   6.538 -0.4144  0.3388 -0.3058
 2792ntf    fn414873   6.560   1.288   6.596 -0.0504 -0.7057 -0.1704
 2792ntf    on514874   6.600   1.256   6.329  0.0333  0.1086 -0.4465
 2792ntf    on514875   6.369   1.298   6.285  0.3068  0.1727 -0.3197
 2792ntf    on514876   6.382   1.703   6.430  0.4487 -0.1454  0.1686
 2792ntf    on514877   6.393   1.612   6.196  0.8561 -0.3295 -0.9360
 2792ntf    fn414878   6.656   1.737   6.403 -0.2518  0.0863  0.2444
 2792ntf    fn414879   6.676   1.678   6.189 -0.4609 -0.2910  0.1107
 2792ntf    fn414880   6.557   1.845   6.252 -0.3217  0.5360  0.6618
 2793ntf    cn114881   0.334   6.794   4.829 -0.1213  0.0123 -0.1826
 2793ntf    sn214882   0.162   6.828   4.880 -0.0424  0.0256  0.0791
 2793ntf    nn314883   0.194   6.945   4.979 -0.0554  0.4086 -0.3613
 2793ntf    sn214884   0.107   6.976   5.106  0.1707  0.0406 -0.1134
 2793ntf    cn114885   0.059   7.146   5.061 -0.3838 -0.1485 -0.2459
 2793ntf    fn414886   0.399   6.905   4.799  0.2909 -0.1361  0.1532
 2793ntf    fn414887   0.400   6.745   4.932 -0.1182 -0.2988 -0.3336
 2793ntf    fn414888   0.344   6.710   4.728 -0.0592 -0.0437 -0.1294
 2793ntf    on514889   0.094   6.875   4.762 -0.2663  0.1335  0.2506
 2793ntf    on514890   0.129   6.693   4.917  0.1014 -0.1263 -0.3315
 2793ntf    on514891   0.182   7.004   5.226 -0.3118  0.1799  0.1580
 2793ntf    on514892  -0.021   6.910   5.117 -0.2381  0.8362 -0.0661
 2793ntf    fn414893  -0.009   7.201   5.160 -0.3245 -0.6397  0.0777
 2793ntf    fn414894   0.167   7.219   5.040  0.1373 -0.7258  0.3706
 2793ntf    fn414895  -0.011   7.138   4.950  0.5319  0.0717 -0.8476
 2794ntf    cn114896   5.540   4.702   4.756 -0.2289  0.7089  0.4347
 2794ntf    sn214897   5.704   4.769   4.718 -0.0636  0.1362  0.1179
 2794ntf    nn314898   5.792   4.639   4.721 -0.2591  0.0089  0.3567
 2794ntf    sn214899   5.929   4.608   4.651 -0.2735  0.0986  0.2875
 2794ntf    cn114900   6.039   4.645   4.791  0.1670  0.1470 -0.0710
 2794ntf    fn414901   5.546   4.599   4.839 -0.0668  0.3823  0.0243
 2794ntf    fn414902   5.448   4.791   4.787 -0.1241  0.8868  0.2369
 2794ntf    fn414903   5.505   4.642   4.643 -0.2188  0.5564  0.5125
 2794ntf    on514904   5.694   4.834   4.589  0.0336 -0.3218 -0.1215
 2794ntf    on514905   5.722   4.856   4.832  0.3943 -0.1614  0.2721
 2794ntf    on514906   5.978   4.689   4.542 -0.0399 -0.5059 -0.0591
 2794ntf    on514907   5.941   4.466   4.630 -0.6928  0.1023  0.0015
 2794ntf    fn414908   6.002   4.742   4.873  0.1600 -0.5409  0.7561
 2794ntf    fn414909   6.052   4.543   4.874  0.0032  0.4475  0.3270
 2794ntf    fn414910   6.157   4.670   4.736  0.0753  0.6748 -0.0372
 2795ntf    cn114911   3.430   0.285   2.435 -0.7374  0.6498 -0.4538
 2795ntf    sn214912   3.313   0.279   2.574 -0.1003  0.0988  0.0662
 2795ntf    nn314913   3.341   0.133   2.624 -0.2741  0.0654  0.0672
 2795ntf    sn214914   3.241   0.015   2.649 -0.0356 -0.1674 -0.0677
 2795ntf    cn114915   3.339  -0.088   2.762 -0.0968 -0.2256 -0.0668
 2795ntf    fn414916   3.556   0.287   2.475 -0.7134 -1.3462 -0.2998
 2795ntf    fn414917   3.422   0.184   2.350 -0.0346  0.0949  0.1304
 2795ntf    fn414918   3.415   0.396   2.365  0.6974  0.9299 -0.3338
 2795ntf    on514919   3.351   0.389   2.659  0.2777  0.2816 -0.3387
 2795ntf    on514920   3.195   0.294   2.492 -0.1374  0.9383  0.2622
 2795ntf    on514921   3.223  -0.073   2.536 -0.0643  0.2025 -0.3547
 2795ntf    on514922   3.122   0.058   2.718 -0.2470  0.0613 -0.5652
 2795ntf    fn414923   3.447  -0.143   2.711 -0.3328 -0.5780 -0.1869
 2795ntf    fn414924   3.375  -0.022   2.871 -0.0392 -0.1642 -0.1227
 2795ntf    fn414925   3.268  -0.192   2.803 -0.1707 -0.1727 -0.0606
 2796ntf    cn114926   7.141   4.804   0.943 -0.4117 -0.3799 -0.1561
 2796ntf    sn214927   7.300   4.817   0.856 -0.4632  0.0382 -0.1918
 2796ntf    nn314928   7.263   4.910   0.735 -0.3904  0.1114 -0.1577
 2796ntf    sn214929   7.227   4.880   0.585 -0.0205 -0.1556 -0.1948
 2796ntf    cn114930   7.375   4.943   0.502 -0.1105 -0.1263 -0.3339
 2796ntf    fn414931   7.165   4.765   1.067 -0.3975  0.1937  0.0268
 2796ntf    fn414932   7.067   4.914   0.944  0.0261 -0.0825  0.1194
 2796ntf    fn414933   7.073   4.713   0.876 -0.7374 -0.1793 -0.0989
 2796ntf    on514934   7.383   4.875   0.958 -0.2710  0.2202 -0.4495
 2796ntf    on514935   7.323   4.676   0.833  0.8888  0.2272 -0.1149
 2796ntf    on514936   7.134   4.968   0.520 -0.5526 -0.3896  0.2358
 2796ntf    on514937   7.222   4.743   0.542 -0.3056 -0.0825 -0.3956
 2796ntf    fn414938   7.371   5.075   0.487 -0.2226 -0.0641  0.2366
 2796ntf    fn414939   7.490   4.915   0.561 -0.0298  0.4147 -0.2247
 2796ntf    fn414940   7.383   4.895   0.379  0.2535 -0.3127 -0.2384
 2797ntf    cn114941   5.306   4.755   2.019 -0.3101  0.2487  0.2703
 2797ntf    sn214942   5.250   4.582   2.012  0.3658  0.0380 -0.0130
 2797ntf    nn314943   5.312   4.531   2.146  0.1443  0.1933  0.1475
 2797ntf    sn214944   5.247   4.565   2.285 -0.2140  0.1704 -0.0149
 2797ntf    cn114945   5.371   4.479   2.386 -0.0324  0.1751 -0.2344
 2797ntf    fn414946   5.311   4.813   1.900  0.7425 -0.6770 -0.1682
 2797ntf    fn414947   5.227   4.834   2.089 -0.4219  0.2194  0.1768
 2797ntf    fn414948   5.425   4.764   2.078  0.0279 -0.5290 -0.2744
 2797ntf    on514949   5.107   4.573   2.001  0.3976  0.1219 -0.5347
 2797ntf    on514950   5.332   4.532   1.904 -0.0073 -0.6446  0.0168
 2797ntf    on514951   5.123   4.503   2.327 -0.3949  0.7679  0.3405
 2797ntf    on514952   5.273   4.700   2.329 -0.4324  0.2795 -0.2174
 2797ntf    fn414953   5.339   4.352   2.404 -0.0488  0.1109 -0.6990
 2797ntf    fn414954   5.496   4.484   2.343 -0.0097 -0.1289 -0.2101
 2797ntf    fn414955   5.376   4.531   2.507 -0.1709 -0.2178 -0.0565
 2798ntf    cn114956   0.557   5.328   3.581  0.0610 -0.0687 -0.1309
 2798ntf    sn214957   0.490   5.440   3.707 -0.0842 -0.1905 -0.1007
 2798ntf    nn314958   0.373   5.491   3.615  0.1930 -0.1400 -0.4241
 2798ntf    sn214959   0.228   5.434   3.599  0.1827 -0.2764  0.1345
 2798ntf    cn114960   0.137   5.547   3.709 -0.1529 -0.3308 -0.0868
 2798ntf    fn414961   0.652   5.249   3.627 -0.1106 -0.3951 -0.3287
 2798ntf    fn414962   0.459   5.243   3.551  0.5732 -0.5586 -0.4415
 2798ntf    fn414963   0.600   5.391   3.473 -0.4326  0.0087 -0.2836
 2798ntf    on514964   0.462   5.373   3.833 -0.3923 -0.3929 -0.2729
 2798ntf    on514965   0.591   5.542   3.710  0.3231 -0.6003  0.2296
 2798ntf    on514966   0.203   5.305   3.659 -0.0716 -0.1077  0.3945
 2798ntf    on514967   0.171   5.453   3.468  0.1753 -0.0132  0.1758
 2798ntf    fn414968   0.181   5.539   3.833 -0.3157 -0.1893 -0.0200
 2798ntf    fn414969   0.144   5.675   3.679 -0.1322 -0.0507  1.0655
 2798ntf    fn414970   0.006   5.526   3.717 -0.2598  0.1226 -0.5811
 2799ntf    cn114971   4.053   1.354   4.019 -0.3292 -0.0677 -0.1256
 2799ntf    sn214972   4.162   1.363   3.874  0.2053  0.1574  0.2871
 2799ntf    nn314973   4.267   1.249   3.899  0.2664  0.1997  0.2266
 2799ntf    sn214974   4.258   1.100   3.849 -0.0417  0.2601  0.1019
 2799ntf    cn114975   4.300   1.120   3.673 -0.1497  0.0571  0.0523
 2799ntf    fn414976   4.117   1.354   4.135 -0.1272  0.0154 -0.2355
 2799ntf    fn414977   3.979   1.464   4.017 -0.4059 -0.1215 -0.2484
 2799ntf    fn414978   3.972   1.250   4.024 -0.3949 -0.0021  0.2082
 2799ntf    on514979   4.081   1.344   3.756 -0.7532 -0.0556  0.9739
 2799ntf    on514980   4.231   1.489   3.891 -0.3424  0.4863  0.1026
 2799ntf    on514981   4.132   1.030   3.851  0.3616 -0.5063 -0.6405
 2799ntf    on514982   4.375   1.036   3.902  0.3179  0.8269 -0.0062
 2799ntf    fn414983   4.398   1.208   3.660 -0.2427  0.1680  0.0892
 2799ntf    fn414984   4.334   1.002   3.626 -0.3323 -0.2115  0.5815
 2799ntf    fn414985   4.201   1.167   3.600 -0.7125  0.0090  0.7690
 2800ntf    cn114986   5.957   3.225   3.943  0.1484 -0.0842 -0.3758
 2800ntf    sn214987   6.132   3.258   3.905  0.2643 -0.2483  0.0109
 2800ntf    nn314988   6.182   3.348   4.023  0.2294  0.3139 -0.4012
 2800ntf    sn214989   6.333   3.364   4.063  0.1166 -0.1963  0.2305
 2800ntf    cn114990   6.335   3.262   4.214  0.1116 -0.3705  0.1134
 2800ntf    fn414991   5.938   3.182   4.066  0.2613 -0.2390 -0.4131
 2800ntf    fn414992   5.893   3.341   3.937  0.1747 -0.0607 -0.1931
 2800ntf    fn414993   5.900   3.151   3.849 -0.5341  0.3162 -0.2819
 2800ntf    on514994   6.186   3.125   3.897 -0.3757 -0.5338  0.3507
 2800ntf    on514995   6.121   3.330   3.780 -0.0288 -0.3080  0.0012
 2800ntf    on514996   6.367   3.495   4.112  0.5209 -0.2956  0.2157
 2800ntf    on514997   6.427   3.295   3.978 -0.1313 -0.0332 -0.1799
 2800ntf    fn414998   6.301   3.135   4.197  0.0427 -0.3214 -0.1186
 2800ntf    fn414999   6.449   3.251   4.280  0.0571 -0.8237  0.1367
 2800ntf    fn415000   6.244   3.321   4.290  0.0059  0.3146 -0.5241
 2801ntf    cn115001   4.271   2.529   5.402  0.3361  0.1145  0.0493
 2801ntf    sn215002   4.426   2.556   5.492  0.3680  0.4770 -0.1124
 2801ntf    nn315003   4.465   2.406   5.518 -1.1565  0.0628 -0.1245
 2801ntf    sn215004   4.434   2.317   5.644 -0.0227  0.0387  0.1480
 2801ntf    cn115005   4.582   2.356   5.741 -0.0478  0.4634  0.0195
 2801ntf    fn415006   4.180   2.476   5.482  0.4449 -0.0118  0.0867
 2801ntf    fn415007   4.216   2.644   5.365 -0.3028 -0.0148  0.5795
 2801ntf    fn415008   4.284   2.461   5.289 -0.8142 -0.4810  0.2549
 2801ntf    on515009   4.509   2.621   5.394  0.3513  0.2604 -0.2702
 2801ntf    on515010   4.397   2.635   5.609 -0.1855 -0.3915  0.3468
 2801ntf    on515011   4.436   2.177   5.610 -0.2335  0.0740 -0.0145
 2801ntf    on515012   4.321   2.362   5.721  0.2471  0.2613  0.4173
 2801ntf    fn415013   4.570   2.453   5.831 -0.3684  0.3627  0.0856
 2801ntf    fn415014   4.625   2.247   5.804  0.1081  0.6240  0.1936
 2801ntf    fn415015   4.678   2.396   5.659  0.0707  0.0093 -0.0692
 2802ntf    cn115016   4.242   4.656   0.752  0.4357  0.1708  0.0048
 2802ntf    sn215017   4.241   4.837   0.759  0.1753  0.1786 -0.2341
 2802ntf    nn315018   4.202   4.852   0.911 -0.1714  0.1589 -0.3193
 2802ntf    sn215019   4.280   4.921   1.028  0.0058 -0.2719 -0.1839
 2802ntf    cn115020   4.348   4.777   1.116  0.2305  0.0694  0.2078
 2802ntf    fn415021   4.337   4.600   0.825  0.2786 -0.0005  0.0808
 2802ntf    fn415022   4.128   4.610   0.800  0.4361 -0.2153 -0.3530
 2802ntf    fn415023   4.266   4.603   0.633 -0.3691  0.2372 -0.1928
 2802ntf    on515024   4.375   4.877   0.726  0.4597 -0.4047  0.2118
 2802ntf    on515025   4.128   4.881   0.679  0.6248  1.3343 -0.2610
 2802ntf    on515026   4.185   4.968   1.126  0.3597 -0.2064  0.1306
 2802ntf    on515027   4.400   4.993   0.995  0.0730 -0.4632 -0.3601
 2802ntf    fn415028   4.429   4.797   1.219 -0.1144  0.0533  0.4827
 2802ntf    fn415029   4.259   4.691   1.162 -0.2947  0.3524 -0.2660
 2802ntf    fn415030   4.413   4.707   1.024 -0.2467 -0.3197  0.1639
 2803ntf    cn115031   2.905   2.043   1.772  0.7702 -0.3374  0.1187
 2803ntf    sn215032   2.978   2.176   1.672 -0.1375  0.1776  0.1258
 2803ntf    nn315033   3.101   2.102   1.608 -0.3926  0.2510 -0.4607
 2803ntf    sn215034   3.248   2.157   1.605 -0.2581 -0.0831 -0.0406
 2803ntf    cn115035   3.330   2.090   1.753 -0.4481  0.0056  0.1048
 2803ntf    fn415036   2.806   2.094   1.844  0.2932 -0.2234 -0.6009
 2803ntf    fn415037   2.851   1.949   1.696  0.0881  0.0994  0.0553
 2803ntf    fn415038   2.994   1.994   1.856  0.6244 -0.2458  0.3284
 2803ntf    on515039   2.876   2.214   1.577 -0.2339  0.2519  0.2586
 2803ntf    on515040   3.009   2.278   1.769  0.1359  0.3728 -0.1635
 2803ntf    on515041   3.264   2.300   1.612 -0.6523 -0.0221 -0.3970
 2803ntf    on515042   3.323   2.086   1.504  0.3190 -0.1503  0.4261
 2803ntf    fn415043   3.273   2.133   1.865 -0.1380  0.6333  0.0295
 2803ntf    fn415044   3.329   1.959   1.742 -0.2324  0.0229 -0.1314
 2803ntf    fn415045   3.458   2.122   1.763 -0.4725  0.2619 -0.3835
 2804ntf    cn115046   6.981   6.298   5.577  0.1800 -0.2279  0.5988
 2804ntf    sn215047   6.837   6.396   5.631  0.2652  0.1652  0.1171
 2804ntf    nn315048   6.758   6.287   5.713 -0.3438 -0.1147 -0.8237
 2804ntf    sn215049   6.612   6.294   5.770  0.0420  0.0401  0.1769
 2804ntf    cn115050   6.639   6.287   5.949  0.1331 -0.2189  0.1542
 2804ntf    fn415051   7.023   6.212   5.669  0.1054 -0.4341  0.4412
 2804ntf    fn415052   6.948   6.233   5.467  0.3242  0.6439  0.0341
 2804ntf    fn415053   7.086   6.365   5.535 -0.2434  0.1009  0.0506
 2804ntf    on515054   6.891   6.501   5.714  0.0702 -0.3032  0.8453
 2804ntf    on515055   6.775   6.432   5.506 -0.0883 -0.0306  0.2352
 2804ntf    on515056   6.533   6.178   5.738  0.0829  0.0343  0.0994
 2804ntf    on515057   6.548   6.422   5.757  0.0370 -0.0522 -0.8011
 2804ntf    fn415058   6.567   6.374   6.018  0.3925 -0.0366  0.1959
 2804ntf    fn415059   6.621   6.162   5.989  0.5815 -0.4174 -0.2571
 2804ntf    fn415060   6.763   6.321   5.980  0.1572 -0.0675 -0.1113
 2805ntf    cn115061   1.667   2.835   3.667 -0.2662 -0.1408 -0.2192
 2805ntf    sn215062   1.612   2.880   3.834 -0.0305 -0.0652 -0.1601
 2805ntf    nn315063   1.743   2.888   3.919  0.5068  0.5863 -1.0312
 2805ntf    sn215064   1.781   2.965   4.050  0.1723 -0.1239 -0.5140
 2805ntf    cn115065   1.908   3.076   3.984  0.3874 -0.2721 -0.3494
 2805ntf    fn415066   1.729   2.718   3.676 -0.7031 -0.3780 -0.2753
 2805ntf    fn415067   1.572   2.820   3.576 -0.7353  0.3328  0.1877
 2805ntf    fn415068   1.753   2.922   3.614  0.1457 -0.2439  0.2709
 2805ntf    on515069   1.545   3.002   3.793 -0.4825 -0.3270 -0.2123
 2805ntf    on515070   1.531   2.765   3.867 -0.2517  0.1592  0.0807
 2805ntf    on515071   1.850   2.882   4.147 -0.5489  0.3584  0.4331
 2805ntf    on515072   1.681   3.052   4.108  0.3524  0.1421 -0.6035
 2805ntf    fn415073   1.849   3.176   3.921  0.1344 -0.0953  0.1599
 2805ntf    fn415074   1.996   3.114   4.075 -0.3253 -0.3414  0.3835
 2805ntf    fn415075   1.983   3.008   3.899  0.5184  0.2802 -0.6750
 2806ntf    cn115076   1.357   3.844   2.538 -0.2728  0.0386  0.3030
 2806ntf    sn215077   1.191   3.814   2.470 -0.3095  0.2046  0.3193
 2806ntf    nn315078   1.125   3.790   2.610 -0.0703 -0.2551  0.3531
 2806ntf    sn215079   1.014   3.875   2.682 -0.1282 -0.0565  0.0317
 2806ntf    cn115080   1.092   3.920   2.840 -0.2574 -0.1419  0.1209
 2806ntf    fn415081   1.396   3.768   2.638  0.3878 -0.0974 -0.0523
 2806ntf    fn415082   1.443   3.820   2.440  0.1262  0.1698  0.6193
 2806ntf    fn415083   1.365   3.969   2.582 -0.0617  0.1098  0.0638
 2806ntf    on515084   1.162   3.936   2.398  0.3950  0.3233  0.2252
 2806ntf    on515085   1.199   3.697   2.386  0.9628  0.2726  0.3333
 2806ntf    on515086   0.899   3.795   2.717  0.2514 -0.5503  0.1706
 2806ntf    on515087   0.995   4.002   2.617  0.6463  0.2183  0.3235
 2806ntf    fn415088   1.217   3.957   2.816 -0.4919  0.1211 -0.7282
 2806ntf    fn415089   1.033   4.017   2.908 -0.2035  0.1940 -0.3048
 2806ntf    fn415090   1.114   3.816   2.919 -0.3050 -0.3727 -0.1690
 2807ntf    cn115091   6.753   0.367   5.317  0.4143 -0.2800  0.3675
 2807ntf    sn215092   6.582   0.391   5.260  0.5412  0.0930  0.1372
 2807ntf    nn315093   6.565   0.542   5.300 -0.0194  0.1522 -0.3017
 2807ntf    sn215094   6.632   0.656   5.216  0.2695  0.2376  0.0389
 2807ntf    cn115095   6.489   0.741   5.143 -0.0173  0.0802  0.4129
 2807ntf    fn415096   6.757   0.414   5.441 -0.7013 -0.3447  0.4430
 2807ntf    fn415097   6.781   0.238   5.322 -0.0186 -0.3867  0.1162
 2807ntf    fn415098   6.849   0.425   5.248 -0.1895  0.4387  0.1203
 2807ntf    on515099   6.580   0.372   5.117 -0.2235  0.4450  0.0951
 2807ntf    on515100   6.513   0.300   5.349  0.2324  0.1452 -0.0486
 2807ntf    on515101   6.701   0.612   5.097  0.6062  0.3294  0.2000
 2807ntf    on515102   6.700   0.757   5.292  0.3492  0.2890 -0.0999
 2807ntf    fn415103   6.418   0.667   5.060  0.0637 -0.0015  0.4172
 2807ntf    fn415104   6.400   0.788   5.229 -0.5588  0.3158 -0.2698
 2807ntf    fn415105   6.532   0.843   5.071  0.6294 -0.3416  0.1962
 2808ntf    cn115106   4.488   7.005   2.723 -0.0326  0.3991  0.0253
 2808ntf    sn215107   4.464   6.831   2.675 -0.1789  0.2632  0.5898
 2808ntf    nn315108   4.511   6.749   2.801  0.0683 -0.2765  0.1481
 2808ntf    sn215109   4.653   6.687   2.825  0.0191 -0.3937  0.1388
 2808ntf    cn115110   4.624   6.518   2.766 -0.1739 -0.2913 -0.0583
 2808ntf    fn415111   4.427   7.081   2.633  0.2174  0.5656 -0.0026
 2808ntf    fn415112   4.429   7.019   2.841  0.1596 -0.2170  0.2004
 2808ntf    fn415113   4.616   7.036   2.716 -0.0142  0.2990 -0.0967
 2808ntf    on515114   4.322   6.820   2.655  0.0030 -1.0388 -0.0969
 2808ntf    on515115   4.550   6.822   2.560 -0.5646  0.0787  0.3150
 2808ntf    on515116   4.675   6.666   2.966  0.3857 -0.0062  0.1399
 2808ntf    on515117   4.764   6.727   2.742 -0.3196  0.4316  0.0760
 2808ntf    fn415118   4.502   6.480   2.801 -0.2985 -0.3529 -0.5393
 2808ntf    fn415119   4.634   6.513   2.634 -0.5947 -0.2945 -0.0911
 2808ntf    fn415120   4.708   6.430   2.817 -0.3893 -0.1081  0.6137
 2809ntf    cn115121   1.478   1.609   0.545  0.0323 -0.3033 -0.7625
 2809ntf    sn215122   1.400   1.771   0.566  0.1626 -0.3555  0.1535
 2809ntf    nn315123   1.459   1.791   0.710 -0.2344  0.0017  0.2699
 2809ntf    sn215124   1.389   1.786   0.851 -0.1851  0.0472  0.2964
 2809ntf    cn115125   1.498   1.910   0.927  0.4959 -0.4605  0.1620
 2809ntf    fn415126   1.609   1.626   0.554 -0.0439 -0.1314  0.0481
 2809ntf    fn415127   1.442   1.524   0.640  0.7001 -0.2917 -0.4969
 2809ntf    fn415128   1.455   1.566   0.422 -0.4390 -0.0994 -0.7459
 2809ntf    on515129   1.463   1.854   0.466 -0.0291 -0.1761  0.1796
 2809ntf    on515130   1.258   1.746   0.554  0.1295  0.0906 -0.4279
 2809ntf    on515131   1.420   1.666   0.926  0.4059  0.5514  0.8651
 2809ntf    on515132   1.258   1.847   0.857 -0.1060  0.1807  0.6546
 2809ntf    fn415133   1.497   1.914   1.059 -0.3053 -0.5181  0.1633
 2809ntf    fn415134   1.620   1.909   0.877  0.3308 -0.3488 -0.2488
 2809ntf    fn415135   1.448   2.029   0.896 -0.1279 -0.8331 -0.3016
 2810ntf    cn115136   1.663   3.929   2.182  0.0394 -0.1798  0.4926
 2810ntf    sn215137   1.670   3.748   2.165 -0.2159 -0.1493  0.0583
 2810ntf    nn315138   1.735   3.741   2.022 -0.0143  0.4248  0.1210
 2810ntf    sn215139   1.712   3.643   1.902  0.0943  0.3093  0.1950
 2810ntf    cn115140   1.846   3.527   1.944 -0.1993 -0.1371 -0.1036
 2810ntf    fn415141   1.597   3.994   2.089  0.7653 -0.1216  0.0093
 2810ntf    fn415142   1.615   3.972   2.297 -0.2787 -0.1767  0.3576
 2810ntf    fn415143   1.784   3.983   2.176 -0.2233  0.4490  0.7528
 2810ntf    on515144   1.765   3.703   2.263  0.5049 -0.2448 -0.6731
 2810ntf    on515145   1.531   3.714   2.184 -0.2328  0.4138  1.0120
 2810ntf    on515146   1.742   3.699   1.772 -0.5989  0.1796 -0.0212
 2810ntf    on515147   1.591   3.567   1.918  0.1537  0.1492 -0.1000
 2810ntf    fn415148   1.966   3.581   1.940 -0.0972 -0.4077 -0.9208
 2810ntf    fn415149   1.838   3.474   2.065  0.5501  0.2606  0.1259
 2810ntf    fn415150   1.848   3.425   1.860  0.4334 -0.2342  0.0295
 2811ntf    cn115151   0.968   0.501   5.524  0.5811 -0.1554 -0.7993
 2811ntf    sn215152   0.829   0.480   5.410 -0.1140 -0.0959  0.0236
 2811ntf    nn315153   0.712   0.476   5.514  0.3182 -0.4098  0.4996
 2811ntf    sn215154   0.567   0.418   5.501  0.1922  0.0485 -0.1435
 2811ntf    cn115155   0.461   0.534   5.409 -0.1685 -0.0930  0.0914
 2811ntf    fn415156   0.959   0.418   5.627 -0.2890  0.2182 -0.5659
 2811ntf    fn415157   1.090   0.502   5.472  0.8321 -0.4303 -0.2356
 2811ntf    fn415158   0.955   0.615   5.590 -0.0371 -0.6020 -0.1300
 2811ntf    on515159   0.830   0.604   5.337 -1.2317 -0.3352 -0.4223
 2811ntf    on515160   0.852   0.351   5.349 -0.2060 -0.3594  0.5388
 2811ntf    on515161   0.504   0.402   5.629  0.5427  0.0505  0.0292
 2811ntf    on515162   0.562   0.304   5.412 -0.0603  0.0875 -0.1803
 2811ntf    fn415163   0.456   0.649   5.474  0.0257 -0.0465  0.0258
 2811ntf    fn415164   0.511   0.546   5.287 -0.0852 -0.0613  0.1290
 2811ntf    fn415165   0.336   0.492   5.406 -0.2674  0.2266 -0.4570
 2812ntf    cn115166   4.062   3.465   1.931  0.2418 -0.0087  0.0645
 2812ntf    sn215167   3.919   3.364   1.980 -0.0546  0.3666 -0.0272
 2812ntf    nn315168   3.940   3.363   2.135 -0.7546 -0.2339  0.0720
 2812ntf    sn215169   4.039   3.287   2.230  0.0668  0.4890 -0.1953
 2812ntf    cn115170   3.926   3.151   2.272  0.4175  0.1020 -0.4873
 2812ntf    fn415171   4.178   3.401   1.922  0.2290 -0.0278  0.0416
 2812ntf    fn415172   4.049   3.522   1.812 -0.4023 -0.6572 -0.1823
 2812ntf    fn415173   4.076   3.565   2.017 -0.1536  0.0571  0.0528
 2812ntf    on515174   3.799   3.429   1.932  0.0254  0.0499 -0.6720
 2812ntf    on515175   3.948   3.237   1.919 -0.5715  0.1482  0.1708
 2812ntf    on515176   4.073   3.355   2.352 -0.3893  0.2626  0.0552
 2812ntf    on515177   4.147   3.221   2.159  0.3297  0.8183 -0.1052
 2812ntf    fn415178   3.889   3.084   2.164 -0.2576 -0.5479  0.1365
 2812ntf    fn415179   3.988   3.062   2.347  0.0786  0.0917 -0.2170
 2812ntf    fn415180   3.811   3.192   2.323  0.5680 -0.5905  0.4206
 2813ntf    cn115181   0.416   1.516   1.816  0.0010 -0.5929 -0.0285
 2813ntf    sn215182   0.312   1.463   1.956 -0.5126 -0.0975 -0.2200
 2813ntf    nn315183   0.320   1.597   2.038 -0.5069 -0.2779  0.0732
 2813ntf    sn215184   0.219   1.714   2.063 -0.4845 -0.2348 -0.0384
 2813ntf    cn115185   0.352   1.836   2.079 -0.0751 -0.6864  0.0018
 2813ntf    fn415186   0.543   1.530   1.851  0.1446  0.0750 -0.7909
 2813ntf    fn415187   0.417   1.427   1.718  0.4464 -0.1754 -0.4036
 2813ntf    fn415188   0.371   1.621   1.750  0.0423 -0.6296 -0.1143
 2813ntf    on515189   0.184   1.431   1.898 -0.5949 -0.1243 -0.0237
 2813ntf    on515190   0.389   1.361   2.022 -0.0092  0.4897  0.1149
 2813ntf    on515191   0.152   1.708   2.191 -0.2694  0.5882  0.1169
 2813ntf    on515192   0.143   1.761   1.949 -0.4070  0.0834  0.0400
 2813ntf    fn415193   0.430   1.848   1.972 -0.2364 -0.4841 -0.0922
 2813ntf    fn415194   0.306   1.956   2.108  0.8442 -0.2911 -0.1334
 2813ntf    fn415195   0.437   1.801   2.174  0.3630  0.0271 -0.1182
 2814ntf    cn115196   0.732   6.816   0.633 -0.4994  0.2659 -0.1226
 2814ntf    sn215197   0.841   6.948   0.694 -0.2499  0.0524 -0.1106
 2814ntf    nn315198   0.888   6.881   0.828  0.2663  0.3361 -0.1447
 2814ntf    sn215199   0.997   6.769   0.844 -0.1804 -0.1018 -0.1409
 2814ntf    cn115200   1.098   6.824   0.985 -0.1215  0.0562 -0.2446
 2814ntf    fn415201   0.659   6.871   0.536  0.1630  0.8237 -0.3117
 2814ntf    fn415202   0.798   6.723   0.566 -0.0326  0.1874  0.4445
 2814ntf    fn415203   0.658   6.754   0.723  0.1408  0.0051  0.2258
 2814ntf    on515204   0.946   6.974   0.598  0.2361  0.1466  0.4390
 2814ntf    on515205   0.756   7.062   0.716 -0.3632 -0.0831  0.1607
 2814ntf    on515206   1.106   6.769   0.750  0.3429 -0.1168  0.4577
 2814ntf    on515207   0.934   6.643   0.877  0.4667 -0.4262 -0.1239
 2814ntf    fn415208   1.141   6.947   0.963  0.2924 -0.1761 -0.7601
 2814ntf    fn415209   1.025   6.834   1.095 -0.1700 -0.2148 -0.2504
 2814ntf    fn415210   1.197   6.743   1.017 -0.1755  0.1943  0.2651
 2815ntf    cn115211   6.692   7.112   6.771 -0.1406 -0.1747 -0.1224
 2815ntf    sn215212   6.832   7.079   6.882  0.1759  0.0100 -0.4642
 2815ntf    nn315213   6.785   7.164   7.006  0.4836  0.0523 -0.3747
 2815ntf    sn215214   6.832   7.306   7.051 -0.1410  0.0831  0.1868
 2815ntf    cn115215   6.974   7.233   7.139  0.1833 -0.0547 -0.4423
 2815ntf    fn415216   6.691   7.014   6.682  0.0363 -0.3564  0.0748
 2815ntf    fn415217   6.574   7.106   6.829 -0.1823  0.0414 -0.1839
 2815ntf    fn415218   6.708   7.225   6.704 -0.4569 -0.1293 -0.1212
 2815ntf    on515219   6.831   6.938   6.913 -0.0815  0.1476  0.1735
 2815ntf    on515220   6.940   7.136   6.804  0.0870  0.2661 -0.4004
 2815ntf    on515221   6.756   7.369   7.156  0.1779  0.1038  0.4104
 2815ntf    on515222   6.883   7.395   6.950 -0.3062  0.5103  0.4776
 2815ntf    fn415223   6.943   7.119   7.198 -0.2497  0.2538 -0.0588
 2815ntf    fn415224   7.070   7.199   7.055  0.4137  0.0782 -0.2333
 2815ntf    fn415225   7.026   7.308   7.235  0.0906 -0.2415 -0.2434
 2816ntf    cn115226   4.799   6.941   0.731  0.1392 -0.0186 -0.1289
 2816ntf    sn215227   4.663   6.958   0.611  0.1649  0.2136 -0.1249
 2816ntf    nn315228   4.734   6.965   0.472  0.0084  0.0155 -0.2162
 2816ntf    sn215229   4.704   6.897   0.334 -0.0610 -0.0304 -0.1780
 2816ntf    cn115230   4.602   7.029   0.261  0.0522  0.1596  0.0073
 2816ntf    fn415231   4.853   6.820   0.730  0.2241  0.0216 -0.5155
 2816ntf    fn415232   4.894   7.024   0.692 -0.3643  0.6497  0.0543
 2816ntf    fn415233   4.777   6.956   0.861 -0.2526  0.2428 -0.2226
 2816ntf    on515234   4.593   6.832   0.624  0.0802  0.2055 -0.6431
 2816ntf    on515235   4.595   7.079   0.650 -0.3534 -0.0821 -0.0910
 2816ntf    on515236   4.616   6.782   0.334  0.3517 -0.3485  0.4710
 2816ntf    on515237   4.813   6.871   0.244  0.1937  0.8468 -0.1313
 2816ntf    fn415238   4.545   6.985   0.150  0.0773  0.0076  0.0533
 2816ntf    fn415239   4.504   7.066   0.342 -0.3203  0.1483 -0.4321
 2816ntf    fn415240   4.667   7.140   0.231  0.1876  0.0764 -0.0053
 2817ntf    cn115241   6.586   4.095   6.544 -0.2860 -0.1315 -0.1390
 2817ntf    sn215242   6.601   4.178   6.384 -0.0101  0.4007  0.1600
 2817ntf    nn315243   6.454   4.168   6.328  0.2428 -0.1758 -0.4164
 2817ntf    sn215244   6.316   4.212   6.389  0.2892  0.0926 -0.5028
 2817ntf    cn115245   6.289   4.363   6.292  0.2434  0.3188 -0.1401
 2817ntf    fn415246   6.507   3.989   6.545 -0.3986 -0.0473 -0.0361
 2817ntf    fn415247   6.705   4.053   6.587  0.0643  0.9472 -0.0127
 2817ntf    fn415248   6.549   4.163   6.651  0.1826  0.5504 -0.4028
 2817ntf    on515249   6.645   4.315   6.397  0.9699  0.0784  0.2839
 2817ntf    on515250   6.691   4.094   6.309  0.0132  0.9723 -0.4745
 2817ntf    on515251   6.323   4.262   6.524  0.7974 -0.2658 -0.3932
 2817ntf    on515252   6.203   4.131   6.353  0.8569 -0.5473 -0.8644
 2817ntf    fn415253   6.185   4.432   6.333  0.0127 -0.2421  0.2234
 2817ntf    fn415254   6.398   4.437   6.304  0.4648  0.0483 -0.4467
 2817ntf    fn415255   6.274   4.334   6.164 -0.6463 -0.3473  0.1082
 2818ntf    cn115256   1.745   3.556   3.214  0.1552 -0.4544 -0.1750
 2818ntf    sn215257   1.744   3.468   3.373  0.0044 -0.1684 -0.0186
 2818ntf    nn315258   1.602   3.484   3.437 -0.0191  0.0640 -0.1256
 2818ntf    sn215259   1.473   3.402   3.397 -0.1543 -0.0362  0.5062
 2818ntf    cn115260   1.466   3.293   3.542  0.1843  0.0372  0.5792
 2818ntf    fn415261   1.865   3.550   3.158  0.5597  0.3636  0.5965
 2818ntf    fn415262   1.650   3.515   3.131 -0.2597 -0.5398  0.3418
 2818ntf    fn415263   1.726   3.686   3.223  0.2073 -0.4194 -0.5201
 2818ntf    on515264   1.784   3.333   3.342 -0.4695 -0.2446 -0.3101
 2818ntf    on515265   1.846   3.536   3.449  0.4766 -0.2308 -0.5875
 2818ntf    on515266   1.480   3.322   3.278 -0.2206  0.2309  0.3219
 2818ntf    on515267   1.353   3.481   3.407  0.3111  0.7937 -0.2655
 2818ntf    fn415268   1.342   3.266   3.580 -0.0502 -0.0658 -0.2323
 2818ntf    fn415269   1.529   3.181   3.508 -1.2071 -0.6018  0.0318
 2818ntf    fn415270   1.530   3.341   3.648  0.5233 -0.5165  0.6295
 2819ntf    cn115271   5.095   2.383   0.667 -0.1748  0.2636  0.2975
 2819ntf    sn215272   5.143   2.479   0.521 -0.1974  0.3975  0.3779
 2819ntf    nn315273   5.281   2.408   0.496 -0.6323 -0.8251  1.3418
 2819ntf    sn215274   5.320   2.283   0.409 -0.0998  0.1248  0.1898
 2819ntf    cn115275   5.446   2.360   0.302 -0.2368 -0.1454 -0.1647
 2819ntf    fn415276   4.969   2.411   0.695 -0.0243  0.5691  0.6856
 2819ntf    fn415277   5.123   2.253   0.665 -0.9426  0.0805  0.8549
 2819ntf    fn415278   5.165   2.429   0.770 -0.0900 -0.3394  0.5149
 2819ntf    on515279   5.038   2.447   0.427 -0.0361  0.1815  0.2713
 2819ntf    on515280   5.153   2.619   0.556  0.1911  0.6279 -0.6034
 2819ntf    on515281   5.223   2.237   0.313  0.1049  0.3658 -0.1357
 2819ntf    on515282   5.402   2.184   0.475  0.1458  0.2404  0.0608
 2819ntf    fn415283   5.546   2.280   0.268  0.0601  0.2865 -0.3167
 2819ntf    fn415284   5.400   2.413   0.189  0.3568 -0.4204 -0.5389
 2819ntf    fn415285   5.499   2.459   0.370  0.1164 -0.4415 -0.0052
 2820ntf    cn115286   4.750   3.857   0.697  0.4636 -0.1055 -0.3529
 2820ntf    sn215287   4.833   3.723   0.789  0.4585  0.2117  0.1138
 2820ntf    nn315288   4.955   3.801   0.850  0.1488  0.6035  0.2386
 2820ntf    sn215289   5.035   3.768   0.981  0.1869 -0.0385  0.0576
 2820ntf    cn115290   5.199   3.838   0.946 -0.1113  0.5129 -0.2502
 2820ntf    fn415291   4.804   3.867   0.576  0.6661 -0.4728 -0.2956
 2820ntf    fn415292   4.620   3.835   0.685  0.4107 -0.3123  0.5560
 2820ntf    fn415293   4.768   3.974   0.756 -0.1992  0.0466 -0.4463
 2820ntf    on515294   4.736   3.683   0.888  0.2559  0.0160 -0.1614
 2820ntf    on515295   4.863   3.635   0.679  0.3893  0.6090 -0.2262
 2820ntf    on515296   5.058   3.627   0.996  0.9520  0.0467 -0.2505
 2820ntf    on515297   4.998   3.841   1.099 -0.8556 -0.1077 -0.2147
 2820ntf    fn415298   5.254   3.802   0.831 -0.7930 -0.3311 -0.3229
 2820ntf    fn415299   5.200   3.971   0.942  0.2685  0.5125 -0.1910
 2820ntf    fn415300   5.278   3.804   1.047 -0.0926  0.4889 -0.2727
 2821ntf    cn115301   1.813   4.720   0.755 -0.2641 -0.0707 -0.4197
 2821ntf    sn215302   1.913   4.735   0.604  0.4333 -0.0256  0.0386
 2821ntf    nn315303   2.019   4.842   0.649  0.2710  0.1617 -0.0227
 2821ntf    sn215304   2.174   4.831   0.627  0.2253  0.0944 -0.3237
 2821ntf    cn115305   2.210   4.725   0.770  0.2784  0.2529 -0.2189
 2821ntf    fn415306   1.775   4.840   0.795  0.2036  0.0370 -0.2843
 2821ntf    fn415307   1.709   4.642   0.732 -0.1327 -0.5217  0.4633
 2821ntf    fn415308   1.879   4.652   0.847  0.2206  0.9038 -0.0318
 2821ntf    on515309   1.958   4.601   0.580 -0.0003 -0.2089  0.2371
 2821ntf    on515310   1.826   4.792   0.504 -0.5332  0.1325  0.9528
 2821ntf    on515311   2.253   4.947   0.658  0.4283 -0.1502  0.0869
 2821ntf    on515312   2.221   4.755   0.514  0.5633  0.5726 -0.5070
 2821ntf    fn415313   2.152   4.769   0.881  0.3662 -0.1277 -0.0175
 2821ntf    fn415314   2.184   4.595   0.757  0.6289  0.1307  0.2643
 2821ntf    fn415315   2.337   4.735   0.805  0.1087  0.1792  0.4365
 2822ntf    cn115316   5.750   1.375   2.584 -0.2395 -0.2462 -0.1472
 2822ntf    sn215317   5.877   1.307   2.473  0.1572  0.3809 -0.0886
 2822ntf    nn315318   5.922   1.436   2.396 -0.0054  0.4795 -0.0205
 2822ntf    sn215319   6.040   1.535   2.425  0.3266  0.0865 -0.0191
 2822ntf    cn115320   5.967   1.673   2.517 -0.0516  0.2169 -0.5136
 2822ntf    fn415321   5.802   1.460   2.671 -0.2541 -0.2663 -0.1187
 2822ntf    fn415322   5.651   1.435   2.520 -0.1822 -0.1919 -0.1850
 2822ntf    fn415323   5.688   1.289   2.663 -0.0187 -0.2447  0.0286
 2822ntf    on515324   5.964   1.238   2.565 -0.3125  0.2156  0.2382
 2822ntf    on515325   5.799   1.227   2.381  0.4055 -0.0709  0.0927
 2822ntf    on515326   6.068   1.599   2.299 -0.1350 -0.1878 -0.2624
 2822ntf    on515327   6.152   1.476   2.496 -0.3191 -0.7219  0.3512
 2822ntf    fn415328   5.849   1.712   2.471 -0.3246 -0.4632 -0.4061
 2822ntf    fn415329   5.934   1.631   2.638  0.1388  0.8329 -0.2434
 2822ntf    fn415330   6.044   1.780   2.530  0.1547 -0.0623  0.6848
 2823ntf    cn115331   5.485   1.584   4.923  0.0169  0.3102 -0.1075
 2823ntf    sn215332   5.416   1.474   4.796  0.2084  0.0167  0.0421
 2823ntf    nn315333   5.523   1.361   4.814  0.2497  0.0314 -0.1181
 2823ntf    sn215334   5.498   1.214   4.863 -0.1529  0.2062  0.2080
 2823ntf    cn115335   5.602   1.116   4.750 -0.3298 -0.0505  0.2661
 2823ntf    fn415336   5.526   1.523   5.033  0.3185 -0.3620 -0.5921
 2823ntf    fn415337   5.588   1.649   4.872 -0.1237  0.4146 -0.2597
 2823ntf    fn415338   5.394   1.671   4.965  0.3646  0.4751  0.3141
 2823ntf    on515339   5.281   1.440   4.837  0.2426  0.0878  0.2169
 2823ntf    on515340   5.424   1.557   4.679 -0.0392 -0.5894 -0.4067
 2823ntf    on515341   5.366   1.160   4.841 -0.1869  0.2902  0.2093
 2823ntf    on515342   5.561   1.198   4.991 -0.6843  0.2629  0.4756
 2823ntf    fn415343   5.732   1.120   4.774 -0.3241  0.3663  0.1862
 2823ntf    fn415344   5.550   0.995   4.740 -0.4684  0.0330 -0.0573
 2823ntf    fn415345   5.593   1.148   4.621 -0.5062  0.1467  0.3266
 2824ntf    cn115346   7.090   0.344   3.035 -0.0441 -0.3010  0.0941
 2824ntf    sn215347   7.242   0.266   3.098  0.3534  0.1854 -0.2475
 2824ntf    nn315348   7.258   0.149   2.994  0.0189  0.2469 -0.3708
 2824ntf    sn215349   7.347   0.154   2.865  0.1742 -0.6322 -0.3051
 2824ntf    cn115350   7.513   0.116   2.929  0.1790 -0.0972  0.0064
 2824ntf    fn415351   7.091   0.476   3.039 -0.4193 -0.2899 -0.1870
 2824ntf    fn415352   7.049   0.295   2.919 -0.2153 -0.1108  0.0734
 2824ntf    fn415353   6.995   0.306   3.118  0.2809 -0.2482  0.4981
 2824ntf    on515354   7.345   0.364   3.119  0.3883 -0.0855  0.9425
 2824ntf    on515355   7.197   0.206   3.221  0.8629 -0.2563 -0.2703
 2824ntf    on515356   7.365   0.279   2.794  0.0524  0.0615  0.8595
 2824ntf    on515357   7.319   0.030   2.798  0.4263 -0.8549  0.0012
 2824ntf    fn415358   7.605   0.098   2.836  0.8344  0.0244  0.6152
 2824ntf    fn415359   7.551   0.216   3.007  0.4805 -0.2405  0.0438
 2824ntf    fn415360   7.515   0.005   3.000  0.6700  0.2704  0.5821
 2825ntf    cn115361   4.987   0.802   6.824  0.3678  0.2118  0.4984
 2825ntf    sn215362   5.166   0.818   6.855  0.4407 -0.1834  0.2812
 2825ntf    nn315363   5.171   0.731   6.985 -0.0778  0.3812  0.6852
 2825ntf    sn215364   5.209   0.581   7.013 -0.0363  0.1776 -0.4106
 2825ntf    cn115365   5.228   0.608   7.192  0.4798  0.0178 -0.4424
 2825ntf    fn415366   4.969   0.687   6.761  0.0559  0.4635  0.1184
 2825ntf    fn415367   4.910   0.797   6.932 -0.5752  0.5934 -0.1446
 2825ntf    fn415368   4.944   0.903   6.750  0.0135 -0.4364 -0.1848
 2825ntf    on515369   5.229   0.759   6.739 -0.0439  0.1549 -0.1624
 2825ntf    on515370   5.177   0.959   6.880  0.0032 -0.0583 -0.2010
 2825ntf    on515371   5.343   0.537   6.985 -0.1264 -0.6816  0.4245
 2825ntf    on515372   5.098   0.489   7.014  0.0408  0.0656 -1.3368
 2825ntf    fn415373   5.123   0.618   7.271  0.7338  0.6135 -0.1792
 2825ntf    fn415374   5.287   0.508   7.256 -0.1129  0.1556  0.3421
 2825ntf    fn415375   5.307   0.709   7.225  0.0093  0.0853  0.5146
 2826ntf    cn115376   2.857   3.251   1.820  0.0522  0.3116  0.0129
 2826ntf    sn215377   2.888   3.109   1.711  0.0801  0.2087  0.1533
 2826ntf    nn315378   2.976   3.177   1.599  0.1449  0.3561  0.2935
 2826ntf    sn215379   2.961   3.170   1.443  0.0693  0.0289  0.3142
 2826ntf    cn115380   2.975   3.343   1.388 -0.4667 -0.0484 -0.0775
 2826ntf    fn415381   2.764   3.231   1.912 -0.9961 -0.3301 -1.1665
 2826ntf    fn415382   2.973   3.281   1.878 -0.0350  0.4093  0.1387
 2826ntf    fn415383   2.819   3.358   1.753 -0.0144  0.2028 -0.1231
 2826ntf    on515384   2.961   3.012   1.789  0.3741  0.1339 -0.2117
 2826ntf    on515385   2.757   3.069   1.665  0.2902 -0.0653 -0.2063
 2826ntf    on515386   2.824   3.141   1.407  0.0003  0.5282  0.1756
 2826ntf    on515387   3.066   3.103   1.369  0.3075  0.4033  0.3118
 2826ntf    fn415388   2.963   3.353   1.257 -0.6813  0.2326 -0.0350
 2826ntf    fn415389   2.889   3.435   1.429 -0.1100  0.2491  0.0103
 2826ntf    fn415390   3.089   3.395   1.430 -0.3862 -0.3191  0.0467
 2827ntf    cn115391   6.002   2.047   1.072  0.2438 -0.2155  0.0467
 2827ntf    sn215392   5.986   2.059   0.891 -0.0574 -0.3820  0.0625
 2827ntf    nn315393   6.111   2.151   0.871 -0.1191 -0.3852 -0.3494
 2827ntf    sn215394   6.134   2.258   0.759  0.1025 -0.1506 -0.0818
 2827ntf    cn115395   6.305   2.216   0.715  0.1882  0.1394 -0.0304
 2827ntf    fn415396   5.908   1.979   1.135  0.1563 -0.1470 -0.0102
 2827ntf    fn415397   6.118   1.988   1.099  0.4385  0.2721  0.2726
 2827ntf    fn415398   6.007   2.162   1.137  0.0979 -0.0715 -0.1970
 2827ntf    on515399   6.008   1.931   0.829  0.1933 -0.2436 -0.1333
 2827ntf    on515400   5.864   2.136   0.888  0.3350  0.2508  0.1991
 2827ntf    on515401   6.146   2.396   0.800  1.5220 -0.3430  0.1835
 2827ntf    on515402   6.051   2.231   0.644 -0.9758  0.3379  0.5622
 2827ntf    fn415403   6.382   2.208   0.822 -0.1095 -0.0676  0.1695
 2827ntf    fn415404   6.313   2.095   0.662  0.1199  0.1422 -0.0472
 2827ntf    fn415405   6.369   2.301   0.636  0.4907 -0.3992 -0.3691
 2828ntf    cn115406   5.220   6.207   0.571 -0.1583  0.5865  0.5316
 2828ntf    sn215407   5.247   6.192   0.391  0.1829 -0.2555  0.6468
 2828ntf    nn315408   5.118   6.274   0.355  0.6589  0.2151 -0.0014
 2828ntf    sn215409   5.017   6.262   0.236  0.4716 -0.3825  0.2138
 2828ntf    cn115410   5.046   6.425   0.160  0.0716 -0.2299  0.3856
 2828ntf    fn415411   5.312   6.142   0.640  0.2369  0.5416 -0.0239
 2828ntf    fn415412   5.238   6.334   0.602  0.4003  0.4879  0.6239
 2828ntf    fn415413   5.103   6.168   0.618 -0.1101  0.1647  0.3092
 2828ntf    on515414   5.375   6.257   0.377  0.0378 -0.1665 -0.2694
 2828ntf    on515415   5.236   6.051   0.362  0.1006 -0.2039  0.4242
 2828ntf    on515416   4.878   6.264   0.276  0.3390 -0.5413 -0.2266
 2828ntf    on515417   5.062   6.175   0.130  0.2844 -0.0509 -0.1403
 2828ntf    fn415418   4.978   6.436   0.047  0.5627  0.5491  0.1612
 2828ntf    fn415419   5.023   6.532   0.233 -0.0557 -0.0484  0.0815
 2828ntf    fn415420   5.171   6.439   0.120 -0.0809 -0.3733 -0.1544
 2829ntf    cn115421   4.151   7.144   0.308 -0.1062  0.1765 -0.2043
 2829ntf    sn215422   3.999   7.214   0.237 -0.2667  0.3151  0.2713
 2829ntf    nn315423   3.910   7.177   0.361 -0.0410 -0.3357  0.2423
 2829ntf    sn215424   3.755   7.151   0.365 -0.1520  0.3125  0.2224
 2829ntf    cn115425   3.699   7.320   0.330 -0.0017  0.2865 -0.1497
 2829ntf    fn415426   4.209   7.213   0.404 -0.4224  0.1043  0.0417
 2829ntf    fn415427   4.150   7.017   0.346  0.3609  0.1460 -0.2873
 2829ntf    fn415428   4.243   7.135   0.213  0.0858 -0.3271  0.0213
 2829ntf    on515429   4.020   7.356   0.230  0.2367  0.2242 -0.1144
 2829ntf    on515430   3.978   7.144   0.112  0.1718  0.7028 -0.0213
 2829ntf    on515431   3.703   7.115   0.494 -0.3765 -0.6341 -0.1188
 2829ntf    on515432   3.701   7.073   0.256  0.0656 -0.2887  0.5378
 2829ntf    fn415433   3.689   7.346   0.200  0.1576 -0.2665 -0.2749
 2829ntf    fn415434   3.576   7.327   0.377  0.1793 -0.7875  0.5121
 2829ntf    fn415435   3.771   7.417   0.383 -0.5262  0.5500  0.0795
 2830ntf    cn115436   3.356   4.698   2.885  0.1305 -0.0382 -0.1170
 2830ntf    sn215437   3.350   4.567   3.011  0.0718  0.0792  0.0025
 2830ntf    nn315438   3.310   4.446   2.921  0.1672 -0.0994  0.1983
 2830ntf    sn215439   3.397   4.323   2.876  0.2830  0.1242 -0.1937
 2830ntf    cn115440   3.404   4.233   3.034 -0.1153  0.2635 -0.0965
 2830ntf    fn415441   3.242   4.709   2.820 -0.0816  0.2994  0.3014
 2830ntf    fn415442   3.363   4.818   2.941 -0.1314 -0.3714  0.6394
 2830ntf    fn415443   3.463   4.693   2.807  0.0559  0.7383 -0.2756
 2830ntf    on515444   3.484   4.569   3.066 -0.1622  0.0346  0.5821
 2830ntf    on515445   3.237   4.616   3.086  0.0801  0.4891 -0.2487
 2830ntf    on515446   3.538   4.348   2.855  0.3407 -0.0449 -0.0122
 2830ntf    on515447   3.329   4.233   2.787  0.0340 -0.4428  0.5603
 2830ntf    fn415448   3.526   4.228   3.083 -0.2863  0.0641  0.3149
 2830ntf    fn415449   3.315   4.279   3.120 -0.2334  0.3446 -0.2605
 2830ntf    fn415450   3.374   4.105   3.018 -0.3930  0.3595 -0.3743
 2831ntf    cn115451   2.992   0.761   3.854 -0.0817 -0.7409  0.0620
 2831ntf    sn215452   3.066   0.620   3.767  0.4597 -0.0616 -0.5966
 2831ntf    nn315453   3.163   0.704   3.677  0.7453 -0.2732 -0.4841
 2831ntf    sn215454   3.134   0.741   3.528  0.0308 -0.2529 -0.3443
 2831ntf    cn115455   3.298   0.816   3.500  0.0528 -0.2689 -0.2573
 2831ntf    fn415456   2.906   0.825   3.775  0.1319 -0.4673  0.0479
 2831ntf    fn415457   2.922   0.732   3.963 -0.1881 -0.2903  0.1187
 2831ntf    fn415458   3.084   0.848   3.893  0.0612 -0.5432 -0.6963
 2831ntf    on515459   3.131   0.554   3.877 -0.6105 -0.1246  0.0109
 2831ntf    on515460   2.960   0.549   3.699  0.0075  0.2159 -0.1900
 2831ntf    on515461   3.043   0.849   3.500  0.0965 -0.1966 -0.3413
 2831ntf    on515462   3.132   0.624   3.444 -0.3763  0.0010 -0.6922
 2831ntf    fn415463   3.335   0.799   3.374  0.6150 -0.5482 -0.0551
 2831ntf    fn415464   3.301   0.944   3.536 -0.4539 -0.2991 -0.0927
 2831ntf    fn415465   3.398   0.764   3.569  0.1551 -0.2103 -0.3609
 2832ntf    cn115466   4.175   2.356   6.619  0.1462 -0.1439 -0.3237
 2832ntf    sn215467   4.243   2.524   6.632 -0.0325 -0.1231  0.4479
 2832ntf    nn315468   4.396   2.487   6.628  0.0532  0.2139  0.5426
 2832ntf    sn215469   4.533   2.563   6.623  0.1533 -0.0043 -0.0756
 2832ntf    cn115470   4.564   2.584   6.801 -0.5498 -0.0600  0.0565
 2832ntf    fn415471   4.189   2.298   6.501 -0.0018  0.0502 -0.4374
 2832ntf    fn415472   4.233   2.272   6.702 -0.4561 -0.6664 -0.4237
 2832ntf    fn415473   4.044   2.355   6.638  0.0965  0.4089 -0.6069
 2832ntf    on515474   4.197   2.588   6.511  0.0829  0.2711  0.6091
 2832ntf    on515475   4.200   2.573   6.760 -0.3705 -0.0805  0.3179
 2832ntf    on515476   4.517   2.694   6.565  0.6411 -0.1287 -0.5010
 2832ntf    on515477   4.650   2.494   6.576 -0.1086 -0.2949 -0.3108
 2832ntf    fn415478   4.691   2.616   6.820 -0.1919 -1.0700 -0.5890
 2832ntf    fn415479   4.489   2.678   6.856 -0.4250  0.0413  0.0544
 2832ntf    fn415480   4.549   2.471   6.868  0.6727 -0.3079 -0.0719
 2833ntf    cn115481   2.143   2.486   3.880  0.0280 -0.1412  0.1563
 2833ntf    sn215482   2.307   2.539   3.937 -0.0798  0.3417  0.0218
 2833ntf    nn315483   2.341   2.418   4.031 -1.0721 -0.2489 -0.3691
 2833ntf    sn215484   2.442   2.427   4.151 -0.7106  0.1798 -0.7019
 2833ntf    cn115485   2.357   2.530   4.275  0.0813  0.2554 -0.2142
 2833ntf    fn415486   2.065   2.453   3.982 -0.1243 -0.1247  0.0454
 2833ntf    fn415487   2.080   2.593   3.834  0.3970  0.1957  0.4223
 2833ntf    fn415488   2.136   2.386   3.794 -0.6321  0.0194  0.0163
 2833ntf    on515489   2.395   2.554   3.824 -0.2158  0.3551 -0.0827
 2833ntf    on515490   2.273   2.662   4.005 -0.1561  0.1832  0.2681
 2833ntf    on515491   2.564   2.496   4.118 -0.3589 -0.1383 -0.0807
 2833ntf    on515492   2.468   2.303   4.219 -0.4680  0.5289 -0.1497
 2833ntf    fn415493   2.423   2.514   4.388  0.2292  0.6222 -0.2498
 2833ntf    fn415494   2.353   2.661   4.260  0.2194  0.2632 -0.1771
 2833ntf    fn415495   2.230   2.495   4.289  0.1323 -0.2269 -0.9018
 2834ntf    cn115496   5.289   0.920   0.445 -0.0040  0.2192 -0.2168
 2834ntf    sn215497   5.373   0.879   0.602  0.0737 -0.1450 -0.3519
 2834ntf    nn315498   5.269   0.785   0.674  0.0510  0.0983 -0.0674
 2834ntf    sn215499   5.232   0.638   0.635 -0.0683 -0.0588  0.6364
 2834ntf    cn115500   5.310   0.543   0.769  0.2739 -0.1754  0.3562
 2834ntf    fn415501   5.188   1.001   0.468 -0.4999 -0.4556  0.0278
 2834ntf    fn415502   5.362   0.980   0.353 -0.1907  0.5113 -0.1730
 2834ntf    fn415503   5.229   0.813   0.396 -0.9735  0.7300 -0.1619
 2834ntf    on515504   5.494   0.812   0.563  0.1095 -0.3526  0.1072
 2834ntf    on515505   5.383   1.005   0.671 -0.5190 -0.2878  0.0036
 2834ntf    on515506   5.297   0.583   0.519  0.1081 -0.0468  0.7280
 2834ntf    on515507   5.092   0.611   0.653 -0.2069  0.0055 -0.2989
 2834ntf    fn415508   5.244   0.556   0.883 -0.0635 -0.1536  0.1581
 2834ntf    fn415509   5.312   0.413   0.745 -0.2112 -0.0808 -0.2139
 2834ntf    fn415510   5.436   0.580   0.787  0.1558  0.1573  0.4982
 2835ntf    cn115511   5.486   3.423   6.713 -0.2226 -0.2771 -0.3125
 2835ntf    sn215512   5.507   3.598   6.666 -0.2891 -0.1877 -0.0071
 2835ntf    nn315513   5.498   3.591   6.510 -0.0605  0.1138 -0.0333
 2835ntf    sn215514   5.375   3.590   6.412  0.0225 -0.0356 -0.1369
 2835ntf    cn115515   5.391   3.419   6.351  0.1996 -0.1311  0.1758
 2835ntf    fn415516   5.503   3.418   6.844  0.2909 -0.1911 -0.3732
 2835ntf    fn415517   5.370   3.370   6.680 -0.2764 -0.7706  0.6420
 2835ntf    fn415518   5.573   3.342   6.655  0.0024  0.5918 -1.2400
 2835ntf    on515519   5.391   3.654   6.731 -0.0992 -0.0216  0.1920
 2835ntf    on515520   5.642   3.624   6.709 -0.0737  0.3384 -0.9851
 2835ntf    on515521   5.402   3.664   6.292 -1.0291  0.1575 -0.2685
 2835ntf    on515522   5.239   3.591   6.461  0.0540  0.9472 -0.0511
 2835ntf    fn415523   5.337   3.324   6.425  0.1533 -0.1819  0.0754
 2835ntf    fn415524   5.336   3.410   6.232 -0.0952 -0.1002  0.3087
 2835ntf    fn415525   5.516   3.377   6.340  0.2717  0.0735  0.2124
 2836ntf    cn115526   1.797   6.447   0.949 -0.4219  0.0076  0.3731
 2836ntf    sn215527   1.678   6.512   1.070 -0.2925  0.4619  0.2593
 2836ntf    nn315528   1.657   6.658   1.017 -0.2610  0.3869  0.0402
 2836ntf    sn215529   1.534   6.756   1.025 -0.4061  0.2032  0.0652
 2836ntf    cn115530   1.615   6.916   1.053  0.5772 -0.3274  0.3224
 2836ntf    fn415531   1.757   6.436   0.823  0.0753  0.2608  0.1930
 2836ntf    fn415532   1.904   6.524   0.944 -0.0966 -0.4141  0.7145
 2836ntf    fn415533   1.841   6.326   0.978 -0.0039 -0.1142 -0.7106
 2836ntf    on515534   1.570   6.417   1.060  0.2582 -0.1961  0.4486
 2836ntf    on515535   1.754   6.506   1.193  0.0744 -1.1376 -0.0260
 2836ntf    on515536   1.457   6.734   1.144 -0.3792  0.8599  0.2069
 2836ntf    on515537   1.463   6.768   0.900 -0.0555 -0.3338 -0.1892
 2836ntf    fn415538   1.698   6.951   0.956  0.3444  0.7325  0.4961
 2836ntf    fn415539   1.526   7.014   1.049  0.6762 -0.2466  0.1133
 2836ntf    fn415540   1.673   6.923   1.171  0.6949  0.4768  0.2207
 2837ntf    cn115541   5.323   2.135   2.429 -0.1421 -0.0505 -0.3008
 2837ntf    sn215542   5.358   2.313   2.412 -0.0132 -0.0303  0.1671
 2837ntf    nn315543   5.226   2.362   2.481  0.0794  0.9044 -0.3153
 2837ntf    sn215544   5.216   2.368   2.637 -0.0254  0.0507 -0.2857
 2837ntf    cn115545   5.109   2.514   2.657  0.4148  0.3195  0.1387
 2837ntf    fn415546   5.408   2.059   2.362  0.0481  0.2565 -0.4101
 2837ntf    fn415547   5.333   2.085   2.551 -0.3221  0.6229 -0.0035
 2837ntf    fn415548   5.199   2.110   2.390 -0.2675  0.2798 -0.1218
 2837ntf    on515549   5.485   2.343   2.474  0.0612 -0.1477  0.0714
 2837ntf    on515550   5.362   2.335   2.270  0.5446  0.1228  0.2030
 2837ntf    on515551   5.335   2.393   2.715 -0.2906  0.5568 -0.0351
 2837ntf    on515552   5.129   2.268   2.693 -0.1774  0.3158 -0.0433
 2837ntf    fn415553   5.079   2.536   2.784  0.3765 -1.0140  0.3828
 2837ntf    fn415554   5.163   2.627   2.616 -0.0769  0.6087  0.2801
 2837ntf    fn415555   4.997   2.499   2.589  0.2205  0.0975  0.5027
 2838ntf    cn115556   0.995   2.566   3.613  0.0014 -0.2877  0.6539
 2838ntf    sn215557   0.894   2.676   3.509  0.6493 -0.2374  0.0702
 2838ntf    nn315558   0.757   2.645   3.580  0.4407 -0.1967 -0.3136
 2838ntf    sn215559   0.636   2.550   3.553  0.1005  0.1263  0.0622
 2838ntf    cn115560   0.504   2.666   3.506  0.4333  0.3744 -0.2652
 2838ntf    fn415561   1.026   2.459   3.541  0.0297 -0.0479  0.3070
 2838ntf    fn415562   1.111   2.625   3.638 -0.2501  0.4519  0.0974
 2838ntf    fn415563   0.958   2.531   3.735  0.0953 -0.2417  0.6959
 2838ntf    on515564   0.941   2.810   3.536  0.8644 -0.2148 -0.3952
 2838ntf    on515565   0.895   2.628   3.373 -0.6186 -0.3036  0.0769
 2838ntf    on515566   0.595   2.486   3.676 -0.9373  0.2832 -0.1928
 2838ntf    on515567   0.656   2.463   3.440  0.0472 -0.0363  0.1772
 2838ntf    fn415568   0.495   2.761   3.598  0.0759  0.1078 -0.0218
 2838ntf    fn415569   0.529   2.715   3.386  0.1003 -0.3459 -0.6372
 2838ntf    fn415570   0.387   2.607   3.488  0.6679 -0.1807  0.0109
 2839ntf    cn115571   1.281   6.261   3.833 -0.1866  0.0491  0.2554
 2839ntf    sn215572   1.317   6.319   4.002 -0.2612  0.3801  0.1590
 2839ntf    nn315573   1.286   6.470   3.975  0.1836  0.3294 -0.7001
 2839ntf    sn215574   1.151   6.550   3.984 -0.0036 -0.0430 -0.0842
 2839ntf    cn115575   1.176   6.661   3.842 -0.1618  0.1581  0.0455
 2839ntf    fn415576   1.150   6.263   3.811 -0.1186 -0.2255 -0.1743
 2839ntf    fn415577   1.333   6.342   3.743  0.3563 -0.6361 -0.0506
 2839ntf    fn415578   1.328   6.143   3.798  0.4974  0.4264 -0.1145
 2839ntf    on515579   1.221   6.251   4.085  0.3094 -0.0158  0.5033
 2839ntf    on515580   1.454   6.280   4.027 -0.2335  0.1351 -0.3492
 2839ntf    on515581   1.154   6.641   4.096 -0.1801  0.1406 -0.2280
 2839ntf    on515582   1.024   6.487   3.959 -0.0633 -0.0772  0.3073
 2839ntf    fn415583   1.078   6.749   3.832 -0.1472  0.1320 -0.3268
 2839ntf    fn415584   1.289   6.728   3.859 -0.3929  0.5010  0.2418
 2839ntf    fn415585   1.174   6.592   3.729 -0.0931  0.0640  0.1024
 2840ntf    cn115586   5.128   0.824   1.761  0.0991  0.4066 -0.0692
 2840ntf    sn215587   5.056   0.950   1.652 -0.1526  0.0535 -0.3135
 2840ntf    nn315588   5.150   1.075   1.662 -0.1877  0.0660 -0.1360
 2840ntf    sn215589   5.133   1.219   1.722  0.2171 -0.0232  0.2008
 2840ntf    cn115590   5.230   1.309   1.597  0.0414 -0.2929 -0.1297
 2840ntf    fn415591   5.242   0.781   1.708 -0.0435 -0.5845  0.3985
 2840ntf    fn415592   5.157   0.868   1.882  0.1625  0.4727 -0.1082
 2840ntf    fn415593   5.059   0.712   1.773  0.1344  0.3810 -0.1033
 2840ntf    on515594   5.058   0.892   1.520 -0.0133 -0.3423 -0.1377
 2840ntf    on515595   4.928   0.978   1.714 -0.0377  0.0207 -0.0612
 2840ntf    on515596   5.203   1.229   1.847 -0.0096 -0.0964  0.3340
 2840ntf    on515597   5.003   1.277   1.699  0.1894 -0.3320 -0.4634
 2840ntf    fn415598   5.351   1.258   1.580  0.1464 -0.0891  0.0109
 2840ntf    fn415599   5.174   1.297   1.477 -0.1091  0.4096 -0.1340
 2840ntf    fn415600   5.255   1.435   1.629 -0.4351 -0.2793  0.2029
 2841ntf    cn115601   4.757   2.426   3.401 -0.1143 -0.1152  0.1539
 2841ntf    sn215602   4.716   2.592   3.340 -0.0714 -0.0402  0.3271
 2841ntf    nn315603   4.802   2.687   3.430 -0.2276 -0.0716  0.5096
 2841ntf    sn215604   4.948   2.727   3.386 -0.5397  0.3127 -0.1842
 2841ntf    cn115605   5.012   2.787   3.545  0.1118  0.1499 -0.3850
 2841ntf    fn415606   4.767   2.429   3.533  0.1177  0.7250  0.1217
 2841ntf    fn415607   4.678   2.331   3.353 -0.4584 -0.1464  0.7691
 2841ntf    fn415608   4.882   2.392   3.378 -0.2191 -0.0396 -0.5305
 2841ntf    on515609   4.756   2.588   3.201 -0.0556 -0.6496  0.3466
 2841ntf    on515610   4.577   2.595   3.376 -0.0235 -0.1253  0.5215
 2841ntf    on515611   4.954   2.841   3.298  0.1252  0.2118 -0.2691
 2841ntf    on515612   5.045   2.626   3.354 -0.7498  0.0102  0.1261
 2841ntf    fn415613   4.928   2.847   3.628  0.1564  0.2369 -0.4030
 2841ntf    fn415614   5.068   2.689   3.614  0.6023  0.4212 -0.3949
 2841ntf    fn415615   5.113   2.867   3.516  0.1153  0.0521 -0.6414
 2842ntf    cn115616   1.795   5.153   3.248 -0.4405  0.0322  0.7398
 2842ntf    sn215617   1.704   5.006   3.304 -0.2394 -0.5442 -0.3969
 2842ntf    nn315618   1.583   5.011   3.204 -0.4188  0.3317 -0.1529
 2842ntf    sn215619   1.589   4.950   3.060 -0.2620  0.4326 -0.1890
 2842ntf    cn115620   1.495   4.798   3.091  0.3072  0.1232  0.0493
 2842ntf    fn415621   1.844   5.125   3.128 -0.0536 -0.1241  0.9334
 2842ntf    fn415622   1.712   5.255   3.256 -0.0681  0.3421  0.6730
 2842ntf    fn415623   1.899   5.180   3.325  0.3704  0.4425 -0.4681
 2842ntf    on515624   1.793   4.894   3.291  0.3837 -0.1611  0.4811
 2842ntf    on515625   1.657   5.048   3.434 -0.2957 -0.1326 -0.5473
 2842ntf    on515626   1.718   4.899   3.019 -0.4071 -0.2031  0.1223
 2842ntf    on515627   1.509   5.024   2.966 -0.1169  0.7678 -0.0462
 2842ntf    fn415628   1.379   4.823   3.150  0.1984 -0.3243  0.0318
 2842ntf    fn415629   1.462   4.729   2.982 -0.5028  0.2385  0.2101
 2842ntf    fn415630   1.562   4.713   3.166 -0.0225 -0.3946 -0.2328
 2843ntf    cn115631   5.082   6.384   4.786 -0.1166 -0.3734  0.1701
 2843ntf    sn215632   5.153   6.255   4.680  0.1551 -0.2745  0.2317
 2843ntf    nn315633   5.023   6.174   4.647 -0.1338  0.3473 -0.1829
 2843ntf    sn215634   4.978   6.106   4.512  0.3900 -0.2282 -0.0763
 2843ntf    cn115635   5.046   5.943   4.553  0.3407 -0.1272  0.4212
 2843ntf    fn415636   5.174   6.452   4.852 -0.2392  0.1311 -0.1716
 2843ntf    fn415637   5.024   6.472   4.706 -0.2281 -0.3442  0.2817
 2843ntf    fn415638   4.990   6.341   4.872 -0.2833 -0.1790  0.0893
 2843ntf    on515639   5.203   6.334   4.570 -0.2862 -0.0983  0.1583
 2843ntf    on515640   5.252   6.207   4.774  0.3263 -0.2141  0.0837
 2843ntf    on515641   5.044   6.142   4.389 -0.5822  0.2754 -0.4655
 2843ntf    on515642   4.835   6.090   4.502  0.4010 -0.4307  0.0792
 2843ntf    fn415643   5.168   5.949   4.603  0.3430  0.1752  0.3791
 2843ntf    fn415644   4.969   5.880   4.641  0.1124 -0.1648  0.1964
 2843ntf    fn415645   5.065   5.862   4.450 -0.5093 -0.0575  0.2031
 2844ntf    cn115646   3.289   1.322   6.699  0.0136  0.0786  0.3201
 2844ntf    sn215647   3.411   1.456   6.685  0.1744 -0.0956  0.0408
 2844ntf    nn315648   3.478   1.414   6.550 -0.3584 -0.8899  0.0166
 2844ntf    sn215649   3.633   1.421   6.526 -0.3588 -0.0276  0.2162
 2844ntf    cn115650   3.677   1.245   6.541 -0.2732 -0.0189  0.0763
 2844ntf    fn415651   3.238   1.311   6.821  0.1556 -0.1466  0.3595
 2844ntf    fn415652   3.184   1.333   6.620  0.1130 -0.4496  0.1133
 2844ntf    fn415653   3.347   1.206   6.675  0.1351  0.0916  0.5425
 2844ntf    on515654   3.325   1.572   6.678  0.7285  0.3212  0.0071
 2844ntf    on515655   3.487   1.443   6.807  0.6916  0.1091 -0.2579
 2844ntf    on515656   3.719   1.484   6.622 -0.1179 -0.4361  0.2735
 2844ntf    on515657   3.673   1.462   6.393 -0.2398  0.0791  0.2844
 2844ntf    fn415658   3.595   1.183   6.625  0.3675 -0.7035  0.2016
 2844ntf    fn415659   3.664   1.186   6.423 -0.4369  0.6820 -0.2623
 2844ntf    fn415660   3.800   1.227   6.586 -0.0329  0.5221 -0.3587
 2845ntf    cn115661   5.948   6.376   1.634 -0.2203 -0.1210  0.4199
 2845ntf    sn215662   5.792   6.426   1.713 -0.1511  0.5419  0.1414
 2845ntf    nn315663   5.687   6.337   1.639  0.2129  0.0346  0.2282
 2845ntf    sn215664   5.533   6.320   1.666  0.2106 -0.4758 -0.0860
 2845ntf    cn115665   5.524   6.174   1.775  0.0459 -0.6187 -0.2877
 2845ntf    fn415666   5.948   6.403   1.505  0.1505  0.0242  0.4489
 2845ntf    fn415667   6.053   6.434   1.690 -0.1809  0.1693  0.0434
 2845ntf    fn415668   5.976   6.247   1.646 -0.0155 -0.1399 -0.2466
 2845ntf    on515669   5.813   6.391   1.852 -0.0329  0.1384  0.0246
 2845ntf    on515670   5.786   6.563   1.670 -0.1609  0.5930  0.3023
 2845ntf    on515671   5.460   6.284   1.547  0.1765  0.0639 -0.2304
 2845ntf    on515672   5.480   6.425   1.749 -0.0044 -0.5360 -0.1469
 2845ntf    fn415673   5.401   6.164   1.821  0.1449 -0.5666 -0.0092
 2845ntf    fn415674   5.556   6.060   1.717  0.3787 -0.4437 -0.4516
 2845ntf    fn415675   5.602   6.190   1.881 -0.0602 -0.4355 -0.2359
 2846ntf    cn115676   3.658   4.239   0.883  0.1698 -0.3724  0.0356
 2846ntf    sn215677   3.747   4.249   0.724 -0.3007 -0.2176 -0.2211
 2846ntf    nn315678   3.627   4.234   0.624 -0.5926 -0.3697  0.1479
 2846ntf    sn215679   3.637   4.201   0.471  0.5236  0.2755  0.0696
 2846ntf    cn115680   3.479   4.244   0.393  0.7311  0.0009 -0.5090
 2846ntf    fn415681   3.731   4.280   0.985 -0.3677  0.0149  0.2648
 2846ntf    fn415682   3.551   4.316   0.880  0.3500 -0.1290 -0.2987
 2846ntf    fn415683   3.608   4.119   0.908 -0.4922 -0.1916 -0.4077
 2846ntf    on515684   3.801   4.381   0.740 -0.5255 -0.1536  0.0232
 2846ntf    on515685   3.843   4.142   0.714 -0.0467  0.0010 -0.1281
 2846ntf    on515686   3.641   4.060   0.443 -0.3692  0.2093  0.2471
 2846ntf    on515687   3.736   4.286   0.409  0.4183  0.1010 -0.3364
 2846ntf    fn415688   3.373   4.221   0.470  0.6536  1.1122 -0.2697
 2846ntf    fn415689   3.482   4.371   0.355  0.1917  0.1071 -0.2156
 2846ntf    fn415690   3.458   4.169   0.286 -0.0960 -0.1839 -0.2263
 2847ntf    cn115691   2.729   6.224   0.001  0.3317 -0.2880 -0.0895
 2847ntf    sn215692   2.558   6.180  -0.043  0.2315 -0.1459  0.1511
 2847ntf    nn315693   2.573   6.136  -0.193  0.4222  0.1336  0.0863
 2847ntf    sn215694   2.634   6.217  -0.313  0.0965  0.1288 -0.0817
 2847ntf    cn115695   2.484   6.254  -0.411  0.2389 -0.1972 -0.4245
 2847ntf    fn415696   2.818   6.145  -0.054 -0.3480 -0.5661 -0.8088
 2847ntf    fn415697   2.764   6.349  -0.025  0.1838 -0.3214 -0.4454
 2847ntf    fn415698   2.742   6.204   0.131  0.2865  0.0551 -0.0289
 2847ntf    on515699   2.529   6.065   0.038 -0.1949 -0.0820  0.0944
 2847ntf    on515700   2.480   6.296  -0.007  0.2210 -0.0913 -0.0445
 2847ntf    on515701   2.715   6.134  -0.399  0.1375 -0.2169  0.2886
 2847ntf    on515702   2.683   6.350  -0.289  0.8824 -0.1148 -0.3151
 2847ntf    fn415703   2.415   6.146  -0.445 -0.4622 -0.0880  0.6056
 2847ntf    fn415704   2.404   6.333  -0.342 -0.1006 -0.4706 -0.5025
 2847ntf    fn415705   2.516   6.311  -0.525  0.0998 -0.0602 -0.3950
 2848ntf    cn115706   4.641   2.104   6.697  0.0975  0.1024  0.3982
 2848ntf    sn215707   4.747   1.961   6.735  0.3341  0.1127 -0.2097
 2848ntf    nn315708   4.659   1.888   6.843  0.4073  0.3783  0.0296
 2848ntf    sn215709   4.710   1.765   6.926 -0.1763  0.1035 -0.0095
 2848ntf    cn115710   4.789   1.852   7.065  0.0783  0.0572 -0.1259
 2848ntf    fn415711   4.631   2.193   6.793  0.6063  0.8440 -0.2256
 2848ntf    fn415712   4.677   2.183   6.597 -0.3513  0.1622  0.2834
 2848ntf    fn415713   4.522   2.059   6.660  0.2037  0.4469 -0.3754
 2848ntf    on515714   4.763   1.893   6.609 -0.7764  0.5047 -0.5752
 2848ntf    on515715   4.863   2.022   6.794  0.1347  0.2271  0.0634
 2848ntf    on515716   4.817   1.690   6.866  0.0919  0.3777  0.1203
 2848ntf    on515717   4.605   1.692   6.991  0.1482  0.5610  1.0402
 2848ntf    fn415718   4.910   1.897   7.033  0.1739  0.2066  0.4334
 2848ntf    fn415719   4.715   1.952   7.106  1.0950  0.9609 -0.4402
 2848ntf    fn415720   4.808   1.766   7.164  0.0216 -0.2845 -0.4081
 2849ntf    cn115721   2.951   2.697   5.020 -0.1943 -0.3122 -0.1654
 2849ntf    sn215722   2.831   2.785   4.915 -0.0162 -0.1410 -0.2270
 2849ntf    nn315723   2.692   2.749   4.979  0.0970 -0.2477 -0.0442
 2849ntf    sn215724   2.552   2.750   4.909 -0.0872  0.4659  0.3228
 2849ntf    cn115725   2.592   2.773   4.733  0.1194  0.1481  0.3263
 2849ntf    fn415726   3.072   2.737   4.985 -0.3857  0.5437  0.1156
 2849ntf    fn415727   2.941   2.722   5.149 -0.0444 -0.3660 -0.1438
 2849ntf    fn415728   2.950   2.566   5.009 -0.1086 -0.3220 -0.0517
 2849ntf    on515729   2.872   2.919   4.949  0.8006 -0.3643 -0.3064
 2849ntf    on515730   2.859   2.741   4.780 -0.1859  0.0416 -0.3233
 2849ntf    on515731   2.459   2.850   4.954 -0.0863  0.9456 -0.7065
 2849ntf    on515732   2.481   2.624   4.907 -0.3949  0.6460 -0.2607
 2849ntf    fn415733   2.481   2.797   4.665 -0.0272 -0.1821  0.4507
 2849ntf    fn415734   2.661   2.884   4.710  0.2723  0.0495  0.3077
 2849ntf    fn415735   2.649   2.666   4.680 -0.1794  0.2446 -0.2017
 2850ntf    cn115736   6.533   3.569   1.350 -0.3215 -0.2223 -0.1080
 2850ntf    sn215737   6.540   3.622   1.176 -0.0759 -0.0629 -0.0511
 2850ntf    nn315738   6.660   3.536   1.123  0.2303  0.1426  0.2976
 2850ntf    sn215739   6.665   3.390   1.063  0.0621  0.2390  0.0469
 2850ntf    cn115740   6.790   3.445   0.943 -0.1438  0.1331 -0.2144
 2850ntf    fn415741   6.517   3.439   1.364 -0.3331 -0.2599 -0.4674
 2850ntf    fn415742   6.644   3.597   1.417 -0.1020 -0.4558 -0.3741
 2850ntf    fn415743   6.438   3.630   1.419  0.4271  1.0411 -0.1670
 2850ntf    on515744   6.408   3.596   1.124 -0.1307  0.3224 -0.1091
 2850ntf    on515745   6.576   3.761   1.187  0.4929 -0.2233  0.1809
 2850ntf    on515746   6.557   3.338   0.984 -0.0917  0.3190  0.2029
 2850ntf    on515747   6.737   3.288   1.134 -0.3068 -0.0897 -0.0484
 2850ntf    fn415748   6.740   3.532   0.857 -0.0187  0.0217 -0.4029
 2850ntf    fn415749   6.883   3.514   1.006 -0.1638 -0.1326  0.1090
 2850ntf    fn415750   6.860   3.360   0.869  0.0289  0.0739  0.0195
 2851ntf    cn115751   0.341   3.316   1.276 -0.4567  0.3801  0.4594
 2851ntf    sn215752   0.504   3.234   1.274 -0.5675  0.1646 -0.2601
 2851ntf    nn315753   0.584   3.360   1.325  0.0255 -0.2174 -0.2390
 2851ntf    sn215754   0.729   3.404   1.285 -0.1149  0.3926 -0.0863
 2851ntf    cn115755   0.821   3.350   1.432  0.0088 -0.0407 -0.3204
 2851ntf    fn415756   0.318   3.389   1.168 -0.0864 -0.1873 -0.0103
 2851ntf    fn415757   0.247   3.223   1.277  0.1524 -0.2514  0.1968
 2851ntf    fn415758   0.319   3.394   1.380 -0.2216  0.4890  0.4290
 2851ntf    on515759   0.513   3.131   1.375 -0.7543  0.2517 -0.1528
 2851ntf    on515760   0.508   3.197   1.135  0.1072  0.2124 -0.2571
 2851ntf    on515761   0.739   3.548   1.287  0.1353  0.3752 -0.0491
 2851ntf    on515762   0.780   3.329   1.173  0.6096 -0.6968  0.9456
 2851ntf    fn415763   0.801   3.430   1.536 -0.1444 -0.1036 -0.3015
 2851ntf    fn415764   0.784   3.235   1.485  0.2529 -0.1173 -0.3145
 2851ntf    fn415765   0.952   3.347   1.413  0.0053  0.9811 -0.5617
 2852ntf    cn115766   6.696   2.841   6.945  0.1429 -0.0777  0.1258
 2852ntf    sn215767   6.669   2.806   6.769 -0.2014 -0.2812  0.2182
 2852ntf    nn315768   6.530   2.879   6.766  0.1121  0.3675  0.9688
 2852ntf    sn215769   6.487   3.015   6.701  0.2669 -0.1094 -0.1627
 2852ntf    cn115770   6.420   3.099   6.848  0.8821 -0.2427  0.1954
 2852ntf    fn415771   6.820   2.843   6.992  0.2154  0.9060 -0.0966
 2852ntf    fn415772   6.660   2.966   6.971  0.1737  0.0608 -0.4880
 2852ntf    fn415773   6.626   2.764   7.027 -0.0930 -0.1520 -0.1469
 2852ntf    on515774   6.785   2.860   6.703 -0.9666  0.4494 -0.5596
 2852ntf    on515775   6.660   2.662   6.766  0.4968 -0.3223  0.1040
 2852ntf    on515776   6.363   3.015   6.627  0.3255 -0.2797 -0.2603
 2852ntf    on515777   6.593   3.106   6.663 -0.0057  0.3301  0.1118
 2852ntf    fn415778   6.373   3.218   6.815  0.9164  0.0065  1.0189
 2852ntf    fn415779   6.322   3.031   6.906 -0.0727  0.8482 -0.1069
 2852ntf    fn415780   6.512   3.132   6.937  0.1798  0.2399  0.7481
 2853ntf    cn115781   3.925   6.977   5.714 -0.3134 -0.0356 -0.0805
 2853ntf    sn215782   3.955   7.112   5.832  0.0110 -0.0980 -0.0905
 2853ntf    nn315783   4.111   7.124   5.820 -0.0113  0.3845  0.0751
 2853ntf    sn215784   4.226   7.082   5.919  0.0317  0.2279 -0.0401
 2853ntf    cn115785   4.240   7.242   6.005  0.1844  0.0958  0.1804
 2853ntf    fn415786   3.976   7.009   5.596  0.8804 -0.7270  0.2263
 2853ntf    fn415787   3.983   6.866   5.756  0.1319 -0.1268 -0.9001
 2853ntf    fn415788   3.795   6.963   5.697 -0.3306  0.1273 -0.0780
 2853ntf    on515789   3.889   7.220   5.763  0.4402  0.0017 -0.3497
 2853ntf    on515790   3.889   7.072   5.953  0.9210 -0.2835  0.3489
 2853ntf    on515791   4.352   7.050   5.858  0.0155  0.2537 -0.0874
 2853ntf    on515792   4.173   6.991   6.017 -0.0666  0.1639 -0.1507
 2853ntf    fn415793   4.121   7.259   6.060 -0.1248 -0.3057 -0.3482
 2853ntf    fn415794   4.342   7.249   6.089 -0.4108  0.6547  0.8665
 2853ntf    fn415795   4.261   7.346   5.926  0.2019 -0.3269 -0.3817
 2854ntf    cn115796   3.418   5.897   5.317  0.0659 -0.1273  0.2051
 2854ntf    sn215797   3.557   5.916   5.202 -0.1474 -0.3644 -0.0961
 2854ntf    nn315798   3.624   6.050   5.249  0.1853 -0.5718  0.0239
 2854ntf    sn215799   3.773   6.099   5.237  0.0029  0.0002  0.0626
 2854ntf    cn115800   3.763   6.179   5.074  0.0228  0.0838  0.1023
 2854ntf    fn415801   3.338   6.002   5.322 -0.2005 -0.3477  0.6825
 2854ntf    fn415802   3.340   5.794   5.286  0.3335 -0.5595  0.9457
 2854ntf    fn415803   3.462   5.878   5.440 -0.1279 -0.4527  0.2262
 2854ntf    on515804   3.643   5.802   5.218  0.4283  0.0752 -0.0186
 2854ntf    on515805   3.498   5.933   5.071  0.1002  0.2216 -0.1348
 2854ntf    on515806   3.871   5.995   5.222 -0.2347 -0.1568 -0.4355
 2854ntf    on515807   3.797   6.207   5.329 -0.1573 -0.0174  0.1256
 2854ntf    fn415808   3.881   6.222   5.031  0.1689 -0.4978 -0.0778
 2854ntf    fn415809   3.706   6.101   4.984 -0.1059 -0.2692  0.4914
 2854ntf    fn415810   3.693   6.291   5.079 -0.2775 -0.0890 -0.2185
 2855ntf    cn115811   6.423   2.731   1.725  0.1345 -0.2875  0.0422
 2855ntf    sn215812   6.284   2.691   1.616  0.0891 -0.7679  0.2773
 2855ntf    nn315813   6.167   2.650   1.713 -0.4737 -0.3495 -0.2146
 2855ntf    sn215814   6.020   2.704   1.718 -0.3106  0.0860 -0.0383
 2855ntf    cn115815   6.039   2.818   1.858 -0.0298 -0.3610  0.2881
 2855ntf    fn415816   6.531   2.756   1.652 -0.0166 -0.1704 -0.1436
 2855ntf    fn415817   6.409   2.844   1.793 -0.0498 -0.2967  0.0204
 2855ntf    fn415818   6.450   2.628   1.803  0.3825 -0.2118  0.0589
 2855ntf    on515819   6.266   2.816   1.547 -0.5588 -0.7897  0.3991
 2855ntf    on515820   6.326   2.581   1.533  1.1561  0.2257 -0.5282
 2855ntf    on515821   5.930   2.605   1.772 -0.1246 -0.6241 -1.0074
 2855ntf    on515822   5.981   2.784   1.604 -0.2193  0.2184  0.0224
 2855ntf    fn415823   6.135   2.908   1.843 -0.1619 -0.2700 -0.0036
 2855ntf    fn415824   5.924   2.878   1.882 -0.0898 -0.1009 -0.6192
 2855ntf    fn415825   6.069   2.759   1.973 -0.7896 -0.3257  0.5060
 2856ntf    cn115826   3.490   3.634   4.198 -0.3398  0.1256  0.4180
 2856ntf    sn215827   3.358   3.510   4.222 -0.1589 -0.1374  0.0598
 2856ntf    nn315828   3.363   3.460   4.073  0.3683  0.8830 -0.2742
 2856ntf    sn215829   3.255   3.396   3.979  0.3257  0.3436  0.1367
 2856ntf    cn115830   3.186   3.546   3.903 -0.3149  0.1044  0.2451
 2856ntf    fn415831   3.476   3.700   4.085 -0.4883 -0.0848  0.3123
 2856ntf    fn415832   3.488   3.724   4.295  0.5028  0.2585  0.3168
 2856ntf    fn415833   3.612   3.584   4.210 -0.3512  0.0790  0.3410
 2856ntf    on515834   3.416   3.419   4.317  0.8724  0.1291 -0.2971
 2856ntf    on515835   3.243   3.587   4.262  0.3157  0.5277  0.1788
 2856ntf    on515836   3.145   3.345   4.057  0.5727 -0.1513  0.1648
 2856ntf    on515837   3.303   3.326   3.862  0.1424  0.1679  0.1668
 2856ntf    fn415838   3.078   3.586   3.968 -0.3018  0.1233  0.2552
 2856ntf    fn415839   3.272   3.646   3.895  0.0711 -0.2323  0.1410
 2856ntf    fn415840   3.142   3.531   3.779 -0.5101  0.0035  0.3254
 2857ntf    cn115841   4.032   0.338   6.460  0.2620 -0.0967  0.3531
 2857ntf    sn215842   3.898   0.215   6.474  0.1498 -0.0442 -0.2221
 2857ntf    nn315843   3.966   0.105   6.564 -0.1287 -0.0496 -0.0184
 2857ntf    sn215844   3.923  -0.041   6.599 -0.2856  0.0152  0.0612
 2857ntf    cn115845   4.017  -0.046   6.754  0.2683 -0.2417 -0.2813
 2857ntf    fn415846   4.077   0.370   6.580  0.2164 -0.1578  0.3864
 2857ntf    fn415847   4.140   0.297   6.395  0.0970  0.4471 -0.2778
 2857ntf    fn415848   3.989   0.451   6.406  0.8806  0.0474  0.1476
 2857ntf    on515849   3.808   0.296   6.553  0.6753 -0.0422  0.3910
 2857ntf    on515850   3.868   0.184   6.337  0.4890  0.3321 -0.3844
 2857ntf    on515851   3.976  -0.142   6.510  0.3254  0.1605  0.2582
 2857ntf    on515852   3.782  -0.049   6.629 -0.2781 -0.4940 -0.0223
 2857ntf    fn415853   4.004   0.057   6.835 -0.4724 -0.2273 -0.4177
 2857ntf    fn415854   3.986  -0.154   6.824  0.0562  0.1278  0.1973
 2857ntf    fn415855   4.149  -0.051   6.742  0.3057 -0.2551  0.1229
 2858ntf    cn115856   1.638   4.436   0.962 -0.3720  0.3213 -0.3061
 2858ntf    sn215857   1.466   4.386   0.931 -0.1794 -0.5995  0.0982
 2858ntf    nn315858   1.390   4.523   0.925  0.3393 -0.2663  0.9547
 2858ntf    sn215859   1.339   4.618   1.038 -0.2084  0.5484  0.0369
 2858ntf    cn115860   1.445   4.762   1.006 -0.1052  0.4207 -0.2011
 2858ntf    fn415861   1.642   4.539   1.045 -0.4403  0.0004  0.0997
 2858ntf    fn415862   1.702   4.335   1.018 -0.1784  0.6213  0.0200
 2858ntf    fn415863   1.710   4.469   0.855 -0.1426  0.2713 -0.1678
 2858ntf    on515864   1.481   4.335   0.797  0.0996 -0.5370  0.1040
 2858ntf    on515865   1.428   4.290   1.031 -0.0511 -0.3723  0.3657
 2858ntf    on515866   1.371   4.560   1.167  0.1623 -0.4100 -0.4806
 2858ntf    on515867   1.203   4.661   1.017 -0.2047  0.5197 -0.0440
 2858ntf    fn415868   1.550   4.747   0.928  0.0467 -0.3033  0.1337
 2858ntf    fn415869   1.376   4.865   0.961 -0.2303  0.6082  0.4006
 2858ntf    fn415870   1.499   4.803   1.120  0.0072 -0.6432  0.1339
 2859ntf    cn115871   0.223   3.253   6.216  0.0635 -0.2419  0.0130
 2859ntf    sn215872   0.062   3.334   6.192  0.1369 -0.2207 -0.4098
 2859ntf    nn315873   0.002   3.252   6.072 -0.7295  0.4365 -0.4336
 2859ntf    sn215874  -0.089   3.125   6.086  0.2508 -0.2430 -0.1847
 2859ntf    cn115875  -0.152   3.114   5.916 -0.2776  0.2406 -0.0212
 2859ntf    fn415876   0.306   3.314   6.299  0.1497 -0.2216 -0.0892
 2859ntf    fn415877   0.192   3.137   6.272  0.1911 -0.3103 -0.0567
 2859ntf    fn415878   0.281   3.222   6.101 -0.0960 -0.1645 -0.0899
 2859ntf    on515879  -0.012   3.319   6.315  0.1807  0.6797 -0.2627
 2859ntf    on515880   0.090   3.470   6.151 -0.1898 -0.0196  0.0225
 2859ntf    on515881  -0.203   3.136   6.173  0.7851  0.0097  0.4975
 2859ntf    on515882  -0.013   3.003   6.102  0.4082 -0.0796  0.3261
 2859ntf    fn415883  -0.218   3.005   5.880 -0.1165  0.2119 -0.2272
 2859ntf    fn415884  -0.235   3.212   5.883  0.1129  0.3218 -0.7588
 2859ntf    fn415885  -0.048   3.136   5.838 -0.0087  0.0370  0.2776
 2860ntf    cn115886   6.451   5.131   6.081  0.2661 -0.4563  0.1509
 2860ntf    sn215887   6.318   5.038   6.161 -0.3624  0.4727  0.1997
 2860ntf    nn315888   6.291   5.138   6.279 -0.0883  0.9146 -0.1102
 2860ntf    sn215889   6.217   5.119   6.417  0.1627 -0.1809 -0.1183
 2860ntf    cn115890   6.366   5.105   6.520  0.0600  0.0221  0.0565
 2860ntf    fn415891   6.417   5.254   6.047  0.0186 -0.5206  0.1650
 2860ntf    fn415892   6.556   5.134   6.161  0.3190  0.2454  0.0612
 2860ntf    fn415893   6.502   5.081   5.969 -0.2182  0.1660 -0.3567
 2860ntf    on515894   6.224   5.033   6.053 -0.8112  0.7880  0.5708
 2860ntf    on515895   6.365   4.907   6.202  0.3143  0.4392 -0.6709
 2860ntf    on515896   6.144   4.996   6.438 -0.2359 -0.1434 -1.1836
 2860ntf    on515897   6.158   5.239   6.470  0.1014 -0.2467 -0.0372
 2860ntf    fn415898   6.436   4.998   6.485  0.2054 -0.0306  0.4982
 2860ntf    fn415899   6.455   5.202   6.506 -0.5894  0.6161 -0.0014
 2860ntf    fn415900   6.342   5.075   6.647 -0.2859  0.3451  0.0688
 2861ntf    cn115901   4.131   3.921   2.191 -0.2953 -0.2792  0.1793
 2861ntf    sn215902   4.178   3.944   2.365  0.1203  0.2745 -0.0027
 2861ntf    nn315903   4.331   3.975   2.350  0.2596 -0.4588 -0.1524
 2861ntf    sn215904   4.433   4.011   2.464 -0.0268  0.1908 -0.0939
 2861ntf    cn115905   4.521   3.852   2.475  0.1380  0.2470 -0.5690
 2861ntf    fn415906   4.164   4.025   2.116 -0.2415 -0.3998  0.0366
 2861ntf    fn415907   4.183   3.816   2.131 -0.0043 -0.3157  0.4904
 2861ntf    fn415908   3.999   3.920   2.184 -0.3069 -0.2949  0.3763
 2861ntf    on515909   4.104   4.060   2.408  0.1043  0.1150  0.4149
 2861ntf    on515910   4.149   3.812   2.416  0.4873  0.3322  0.3586
 2861ntf    on515911   4.380   4.031   2.596  0.0281 -0.2542 -0.0005
 2861ntf    on515912   4.530   4.101   2.407  0.4216 -0.1858  0.0617
 2861ntf    fn415913   4.615   3.874   2.565 -0.3748  0.6347 -0.1236
 2861ntf    fn415914   4.444   3.756   2.523  0.5503  0.0204 -0.3545
 2861ntf    fn415915   4.570   3.807   2.360 -0.2525 -0.7314 -0.3612
 2862ntf    cn115916   0.353   6.788   2.091  0.1164  0.2208  0.2066
 2862ntf    sn215917   0.237   6.857   1.970  0.2553  0.1778  0.0475
 2862ntf    nn315918   0.102   6.837   2.048  0.3693 -0.4665  0.0831
 2862ntf    sn215919   0.010   6.710   2.059 -0.0439 -0.1285  0.5517
 2862ntf    cn115920   0.037   6.705   2.239  0.0796  0.2642  0.5443
 2862ntf    fn415921   0.478   6.805   2.049  0.2210  0.3631  0.5723
 2862ntf    fn415922   0.348   6.850   2.208  0.9158  0.3306  0.1931
 2862ntf    fn415923   0.328   6.661   2.117 -0.7909  0.2443 -0.5214
 2862ntf    on515924   0.268   6.996   1.946  0.0993  0.2648  0.3341
 2862ntf    on515925   0.232   6.776   1.851  0.1325  0.1962  0.0397
 2862ntf    on515926   0.058   6.582   2.014 -0.2573 -0.2145  0.5671
 2862ntf    on515927  -0.132   6.734   2.044 -0.1102 -0.9033 -0.1101
 2862ntf    fn415928   0.037   6.827   2.291 -0.1399  0.6131 -0.2542
 2862ntf    fn415929  -0.066   6.649   2.300 -0.1093  0.0790  0.0600
 2862ntf    fn415930   0.151   6.647   2.274 -0.0314 -0.2787  0.0267
 2863ntf    cn115931   4.381   6.254   3.178 -0.6303  0.3089 -0.0952
 2863ntf    sn215932   4.319   6.089   3.222 -0.0018  0.0787 -0.0705
 2863ntf    nn315933   4.208   6.068   3.114 -0.1052  0.0701  0.0387
 2863ntf    sn215934   4.213   5.983   2.982 -0.1996  0.4166 -0.1898
 2863ntf    cn115935   4.158   6.112   2.866 -0.3930  0.5558  0.0521
 2863ntf    fn415936   4.287   6.336   3.135 -0.5952  0.5955  0.3626
 2863ntf    fn415937   4.452   6.314   3.272 -0.1099 -0.0407 -0.2608
 2863ntf    fn415938   4.466   6.247   3.077 -0.3102  0.5626  0.1551
 2863ntf    on515939   4.433   6.000   3.216  0.0069  0.0637  0.2644
 2863ntf    on515940   4.266   6.115   3.354  0.2817 -0.0305  0.0672
 2863ntf    on515941   4.116   5.877   2.972 -0.1608  0.4445 -0.8607
 2863ntf    on515942   4.343   5.941   2.939 -0.1670  0.2552  0.0622
 2863ntf    fn415943   4.042   6.160   2.908 -0.1830  1.1065  0.0123
 2863ntf    fn415944   4.234   6.221   2.870 -0.0702  0.3440 -0.1975
 2863ntf    fn415945   4.149   6.087   2.736 -0.1601  0.1668  0.1093
 2864ntf    cn115946   1.751   0.206   7.079  0.1808 -0.0058 -0.7769
 2864ntf    sn215947   1.589   0.126   7.057  0.1437 -0.0838 -0.2368
 2864ntf    nn315948   1.500   0.256   7.064 -0.1490 -0.3031  0.1093
 2864ntf    sn215949   1.422   0.322   7.182 -0.3289  0.0583 -0.2109
 2864ntf    cn115950   1.282   0.392   7.089 -0.2124  0.5328 -0.0344
 2864ntf    fn415951   1.750   0.265   7.198  0.0589 -0.2480 -0.6592
 2864ntf    fn415952   1.849   0.119   7.094  0.2253  0.2602  0.5904
 2864ntf    fn415953   1.776   0.293   6.982  0.5727  0.2759 -0.4310
 2864ntf    on515954   1.596   0.062   6.928 -0.0102 -0.1981 -0.1879
 2864ntf    on515955   1.580   0.045   7.175  0.2448  0.3720  0.0888
 2864ntf    on515956   1.477   0.440   7.245  0.5330 -0.3362 -0.2208
 2864ntf    on515957   1.357   0.234   7.277  0.4855 -0.2484  0.0692
 2864ntf    fn415958   1.230   0.295   7.016  0.3445  0.2839 -0.1068
 2864ntf    fn415959   1.193   0.440   7.173 -0.5538 -0.3930  0.1471
 2864ntf    fn415960   1.318   0.497   7.017  0.4685  0.3206 -0.0128
 2865ntf    cn115961   1.732   6.888   5.803  0.3019 -0.0902  0.3509
 2865ntf    sn215962   1.851   6.837   5.931 -0.0279 -0.5153  0.4908
 2865ntf    nn315963   1.969   6.937   5.905 -0.2046 -0.3455  0.3342
 2865ntf    sn215964   2.080   6.923   5.794 -0.2457  0.5579  0.1742
 2865ntf    cn115965   2.215   7.013   5.877  0.0675  0.1804  0.0775
 2865ntf    fn415966   1.768   6.859   5.679  0.1573 -0.5670  0.4172
 2865ntf    fn415967   1.622   6.818   5.825  0.2902 -0.4375 -0.7644
 2865ntf    fn415968   1.698   7.016   5.802 -0.6437 -0.3283  0.3698
 2865ntf    on515969   1.787   6.860   6.058 -0.1510 -0.0302  0.3455
 2865ntf    on515970   1.878   6.700   5.896  0.2247 -0.1977 -0.6054
 2865ntf    on515971   2.050   7.000   5.676  0.1963  0.1379 -0.2160
 2865ntf    on515972   2.128   6.788   5.780  0.4229  0.7742  0.2920
 2865ntf    fn415973   2.180   7.136   5.912  0.3124  0.2341  0.1329
 2865ntf    fn415974   2.237   6.960   5.996  0.0263  0.0333  0.0195
 2865ntf    fn415975   2.332   7.009   5.815 -0.0307 -0.1586 -0.0859
 2866ntf    cn115976   4.967   1.159   5.938 -0.4481  0.2533  0.1099
 2866ntf    sn215977   4.936   1.328   5.996 -0.0099  0.4132 -0.1213
 2866ntf    nn315978   5.048   1.396   5.909  0.3528 -0.1929 -0.1306
 2866ntf    sn215979   5.118   1.536   5.918  0.3183 -0.1626 -0.3274
 2866ntf    cn115980   5.271   1.493   6.006  0.0646  0.4165  0.4071
 2866ntf    fn415981   4.965   1.134   5.808 -0.7043 -0.1535  0.1877
 2866ntf    fn415982   5.090   1.125   5.973 -0.1546  0.4350 -0.7090
 2866ntf    fn415983   4.886   1.071   5.995 -0.5625  0.1846 -0.1572
 2866ntf    on515984   4.801   1.353   5.953 -0.1246 -0.0132 -0.0136
 2866ntf    on515985   4.957   1.320   6.138  0.4706  0.0505 -0.2092
 2866ntf    on515986   5.064   1.636   6.007 -0.4204 -0.6051 -0.2653
 2866ntf    on515987   5.172   1.585   5.793 -0.5083  0.6935 -0.3575
 2866ntf    fn415988   5.351   1.597   6.020 -0.2137  0.7044 -0.1184
 2866ntf    fn415989   5.251   1.449   6.129 -0.0672 -0.4964  0.0722
 2866ntf    fn415990   5.326   1.394   5.936 -0.1118  0.7266 -0.1736
 2867ntf    cn115991   2.524   3.829   1.659 -0.1714  0.0317 -0.0033
 2867ntf    sn215992   2.579   3.936   1.796 -0.0404 -0.1560  0.0934
 2867ntf    nn315993   2.481   3.892   1.910  0.7087  0.3025  0.9210
 2867ntf    sn215994   2.366   3.962   1.991 -0.5178 -0.0817 -0.4619
 2867ntf    cn115995   2.285   3.820   2.071 -0.0640  0.2015  0.5116
 2867ntf    fn415996   2.521   3.701   1.694 -1.0666  0.1335  0.2963
 2867ntf    fn415997   2.400   3.850   1.620 -0.0548 -0.3328 -0.5712
 2867ntf    fn415998   2.608   3.842   1.558 -0.5978  0.3736 -0.3143
 2867ntf    on515999   2.703   3.874   1.835 -0.0572  0.1464  0.6350
 2867ntf    on516000   2.559   4.070   1.744  0.3318 -0.1568 -0.0572
 2867ntf    on516001   2.259   4.021   1.915 -0.7755 -0.2236 -0.2120
 2867ntf    on516002   2.415   4.045   2.098 -0.7110  0.0449 -0.4709
 2867ntf    fn416003   2.232   3.735   1.985  0.3369  0.0068  0.4526
 2867ntf    fn416004   2.366   3.758   2.155 -0.5266 -0.5043  0.4435
 2867ntf    fn416005   2.178   3.865   2.134 -0.5533  0.1112 -0.2483
 2868ntf    cn116006   0.328   6.204   4.309 -0.0643  0.2955 -0.6408
 2868ntf    sn216007   0.338   6.025   4.281 -0.1141  0.2060 -0.0969
 2868ntf    nn316008   0.232   5.975   4.385 -0.1305  0.4046 -0.0181
 2868ntf    sn216009   0.250   5.914   4.528  0.0890  0.0498 -0.1973
 2868ntf    cn116010   0.213   6.061   4.628 -0.1893  0.1642 -0.4665
 2868ntf    fn416011   0.213   6.255   4.269 -0.3503 -0.2131 -0.4684
 2868ntf    fn416012   0.349   6.247   4.433 -1.0290 -0.1293 -0.3157
 2868ntf    fn416013   0.420   6.272   4.243  0.7053 -0.1316 -0.0254
 2868ntf    on516014   0.290   6.009   4.146  0.2374  0.3312 -0.2379
 2868ntf    on516015   0.474   5.986   4.312 -0.1580  0.2754  0.1840
 2868ntf    on516016   0.385   5.877   4.566  0.0699 -0.1175 -0.2938
 2868ntf    on516017   0.148   5.817   4.561  0.4654 -0.4036 -0.3460
 2868ntf    fn416018   0.325   6.121   4.667  0.0354 -0.4609 -0.1277
 2868ntf    fn416019   0.145   6.156   4.566  0.1949  0.9975  0.3529
 2868ntf    fn416020   0.155   6.038   4.745  0.7553 -0.4210 -0.0983
 2869ntf    cn116021   4.319   4.222   7.078 -0.3574 -0.2255  0.0496
 2869ntf    sn216022   4.473   4.145   7.139 -0.1788 -0.1031 -0.2429
 2869ntf    nn316023   4.530   4.260   7.230  0.1226  0.0927 -0.6766
 2869ntf    sn216024   4.621   4.380   7.187  0.2409  0.1802 -0.1831
 2869ntf    cn116025   4.588   4.505   7.316 -0.3974 -0.3267  0.1485
 2869ntf    fn416026   4.335   4.343   7.029 -0.2096 -0.1689  0.2353
 2869ntf    fn416027   4.266   4.151   6.980 -0.6498 -0.3445  0.2928
 2869ntf    fn416028   4.224   4.229   7.170 -0.4087  0.3405 -0.0421
 2869ntf    on516029   4.447   4.029   7.221 -0.3177 -0.0627 -0.2289
 2869ntf    on516030   4.548   4.116   7.020  0.2289  0.0282 -0.0170
 2869ntf    on516031   4.575   4.447   7.068  0.7858 -0.0344 -0.5125
 2869ntf    on516032   4.761   4.349   7.203  0.2517  0.0961 -0.4378
 2869ntf    fn416033   4.620   4.465   7.438 -0.0993  0.0512  0.1944
 2869ntf    fn416034   4.658   4.614   7.293 -0.2153 -0.4998 -0.1240
 2869ntf    fn416035   4.461   4.543   7.315 -0.5009 -0.6696  0.1390
 2870ntf    cn116036   1.057   3.023   4.434  0.0109  0.1113  0.5700
 2870ntf    sn216037   1.178   2.902   4.372 -0.2435  0.1444  0.0051
 2870ntf    nn316038   1.206   2.803   4.490 -0.3387  0.3072  0.1649
 2870ntf    sn216039   1.243   2.650   4.489 -0.1258  0.3589 -0.2109
 2870ntf    cn116040   1.087   2.604   4.571  0.2255 -0.5486 -0.0426
 2870ntf    fn416041   0.944   2.959   4.456  0.0829 -0.4272 -0.5465
 2870ntf    fn416042   1.100   3.073   4.549 -0.1712  0.3021  0.5544
 2870ntf    fn416043   1.019   3.121   4.353  0.4469  0.0814  0.3222
 2870ntf    on516044   1.106   2.845   4.261  0.1233 -0.3337  0.0095
 2870ntf    on516045   1.292   2.985   4.341 -0.2528 -0.0454 -0.5444
 2870ntf    on516046   1.347   2.612   4.582 -0.5916  0.1784  0.2444
 2870ntf    on516047   1.228   2.578   4.365  0.1099  0.4454 -0.2896
 2870ntf    fn416048   0.980   2.648   4.507 -0.1153 -0.0537  0.8550
 2870ntf    fn416049   1.075   2.475   4.597  0.3690 -0.6770 -0.6043
 2870ntf    fn416050   1.071   2.667   4.686 -0.3827  0.0637 -0.4535
 2871ntf    cn116051   2.995   3.284   3.274  0.2250  0.2458 -0.3940
 2871ntf    sn216052   3.157   3.281   3.358  0.0899  0.6055 -0.1193
 2871ntf    nn316053   3.229   3.408   3.298  0.3569  0.5601  0.1067
 2871ntf    sn216054   3.320   3.424   3.172 -0.0835 -0.1499 -0.3088
 2871ntf    cn116055   3.466   3.336   3.235 -0.1644 -0.0803 -0.0246
 2871ntf    fn416056   2.907   3.192   3.309 -0.1666  0.6617 -0.2707
 2871ntf    fn416057   2.932   3.399   3.289  0.4127  0.3373 -0.3025
 2871ntf    fn416058   3.002   3.262   3.144 -0.2709  0.1483 -0.4050
 2871ntf    on516059   3.132   3.290   3.499  0.1474  0.0872 -0.0777
 2871ntf    on516060   3.220   3.158   3.318 -0.7222  0.1024  0.1189
 2871ntf    on516061   3.366   3.559   3.150 -0.4788  0.1489  0.6534
 2871ntf    on516062   3.274   3.354   3.054 -1.2878  0.1894 -0.0564
 2871ntf    fn416063   3.577   3.408   3.226  0.1003 -0.5249 -0.3619
 2871ntf    fn416064   3.441   3.303   3.361 -0.6996 -0.0132 -0.1102
 2871ntf    fn416065   3.494   3.221   3.175  0.4772 -0.1610  0.4186
 2872ntf    cn116066   3.649   6.109   1.929  0.1378  0.5121  0.1049
 2872ntf    sn216067   3.661   6.266   2.021  0.1299  0.2499  0.5563
 2872ntf    nn316068   3.548   6.349   1.951  0.3656  0.4310  0.3875
 2872ntf    sn216069   3.401   6.371   2.003  0.1038 -0.1201 -0.1158
 2872ntf    cn116070   3.295   6.375   1.855  0.1948 -0.3858 -0.1891
 2872ntf    fn416071   3.526   6.065   1.907  0.2345  0.1374  0.3146
 2872ntf    fn416072   3.706   6.121   1.811  0.4439  0.4633  0.2480
 2872ntf    fn416073   3.716   6.018   1.998 -0.1248  0.0360 -0.2653
 2872ntf    on516074   3.642   6.225   2.158  0.1226 -0.1091  0.4499
 2872ntf    on516075   3.790   6.318   1.984  0.1163 -0.2038 -0.1586
 2872ntf    on516076   3.374   6.504   2.052 -0.1592 -0.3974  0.5088
 2872ntf    on516077   3.339   6.257   2.067  0.8023 -0.2934  0.2584
 2872ntf    fn416078   3.174   6.328   1.880 -0.0381  0.2484 -0.1161
 2872ntf    fn416079   3.280   6.493   1.798  0.3946  0.2823  1.1010
 2872ntf    fn416080   3.342   6.291   1.765  0.5248 -0.6367  0.2122
 2873ntf    cn116081   4.184   1.650   6.219  0.0193  0.0035  0.6178
 2873ntf    sn216082   4.270   1.500   6.163 -0.0692  0.2170 -0.1026
 2873ntf    nn316083   4.324   1.530   6.019 -0.0559  0.2052 -0.1002
 2873ntf    sn216084   4.257   1.513   5.878 -0.0743  0.2479 -0.0963
 2873ntf    cn116085   4.288   1.336   5.850  0.2133  0.2505  0.2160
 2873ntf    fn416086   4.081   1.680   6.142  0.4246  0.4814  0.2516
 2873ntf    fn416087   4.135   1.635   6.341 -0.6722 -0.2699  0.3058
 2873ntf    fn416088   4.273   1.748   6.223 -0.2015  0.2794 -0.6544
 2873ntf    on516089   4.378   1.465   6.252 -0.0456  0.1847 -0.1442
 2873ntf    on516090   4.158   1.409   6.166 -0.1884  0.3636 -0.0939
 2873ntf    on516091   4.322   1.572   5.764  0.3024  0.0401  0.0103
 2873ntf    on516092   4.113   1.522   5.880 -0.0660  0.2720  1.2397
 2873ntf    fn416093   4.233   1.290   5.739  0.7130 -0.5899  0.3101
 2873ntf    fn416094   4.417   1.307   5.837  0.1287 -0.1934  0.3303
 2873ntf    fn416095   4.238   1.264   5.949 -0.7727  0.7867  0.1108
 2874ntf    cn116096   0.767   4.655   6.684 -0.2588  0.0864  0.0824
 2874ntf    sn216097   0.809   4.483   6.721 -0.1782  0.0662 -0.0989
 2874ntf    nn316098   0.707   4.458   6.838  0.7369 -0.7789  0.5393
 2874ntf    sn216099   0.604   4.340   6.851 -0.0755 -0.1199  0.1771
 2874ntf    cn116100   0.490   4.398   6.981  0.1202  0.2623  0.1822
 2874ntf    fn416101   0.775   4.728   6.794 -0.1535 -0.2739  0.3148
 2874ntf    fn416102   0.842   4.710   6.589  0.0848  0.2803  0.4613
 2874ntf    fn416103   0.646   4.662   6.630 -0.0234 -0.0478 -0.4728
 2874ntf    on516104   0.779   4.410   6.600  0.4040  0.2070 -0.3309
 2874ntf    on516105   0.947   4.501   6.757 -0.2208 -0.1187  0.1607
 2874ntf    on516106   0.662   4.225   6.915  0.0709 -0.0641  0.1450
 2874ntf    on516107   0.514   4.327   6.739 -0.3167  0.3410  0.3119
 2874ntf    fn416108   0.400   4.303   6.999  0.2840 -0.0390 -0.5390
 2874ntf    fn416109   0.553   4.429   7.093  0.6081  0.1934 -0.0706
 2874ntf    fn416110   0.432   4.505   6.929 -0.1740 -0.2362 -0.5391
 2875ntf    cn116111   4.949   1.148   3.305 -0.1420 -0.2791 -0.1296
 2875ntf    sn216112   5.048   1.272   3.217 -0.0248 -0.0460  0.3309
 2875ntf    nn316113   5.134   1.171   3.134  0.1494  0.1048  0.3250
 2875ntf    sn216114   5.073   1.105   3.004  0.0594  0.2230  0.3074
 2875ntf    cn116115   5.173   1.191   2.878 -0.0535 -0.1368 -0.0251
 2875ntf    fn416116   4.879   1.190   3.409  0.4873  0.0402  0.1647
 2875ntf    fn416117   4.853   1.098   3.229 -0.2871  0.3250 -0.3542
 2875ntf    fn416118   5.018   1.048   3.357  0.2912  0.3513  0.5313
 2875ntf    on516119   4.951   1.356   3.152 -0.0960 -0.5083 -0.1615
 2875ntf    on516120   5.135   1.342   3.309  0.2690 -0.1841  0.1602
 2875ntf    on516121   4.938   1.129   2.961  0.3335  1.0027 -0.1439
 2875ntf    on516122   5.112   0.968   2.988 -0.4978  0.1743 -0.6710
 2875ntf    fn416123   5.131   1.315   2.864 -0.9926 -0.3563  0.6758
 2875ntf    fn416124   5.301   1.202   2.906  0.1433 -0.0564 -0.9290
 2875ntf    fn416125   5.155   1.141   2.757  0.3299  0.2514 -0.2423
 2876ntf    cn116126   4.948   3.709   4.152 -0.2827  0.3315 -0.7720
 2876ntf    sn216127   4.780   3.685   4.216  0.0086 -0.2922 -0.2260
 2876ntf    nn316128   4.704   3.694   4.079 -0.0426  0.3192 -0.1609
 2876ntf    sn216129   4.646   3.585   3.982  0.0267  0.1614 -0.0270
 2876ntf    cn116130   4.778   3.597   3.857 -0.2392  0.2287 -0.3058
 2876ntf    fn416131   4.949   3.803   4.059  0.1370  0.8101 -0.2902
 2876ntf    fn416132   5.043   3.757   4.230 -0.6670 -0.5591  0.2749
 2876ntf    fn416133   4.999   3.598   4.101 -0.1466 -0.0109  0.0947
 2876ntf    on516134   4.770   3.555   4.277 -0.0515  0.1706  0.7721
 2876ntf    on516135   4.761   3.803   4.297 -0.6281 -0.2999 -0.3552
 2876ntf    on516136   4.530   3.622   3.905 -0.4665 -0.2113  0.5309
 2876ntf    on516137   4.662   3.446   4.017 -0.3611 -0.0472 -0.6514
 2876ntf    fn416138   4.760   3.509   3.760 -0.3311 -0.4815  0.3465
 2876ntf    fn416139   4.785   3.714   3.796 -0.7949  0.5976  0.3289
 2876ntf    fn416140   4.894   3.563   3.912 -0.5566 -0.3311  0.0367
 2877ntf    cn116141   2.110   0.309   6.865 -0.0207 -0.3136  0.2608
 2877ntf    sn216142   2.070   0.244   6.700  0.1508  0.0903  0.0572
 2877ntf    nn316143   2.126   0.101   6.733 -0.2716 -0.1130 -0.0992
 2877ntf    sn216144   2.268   0.039   6.709 -0.0855  0.3015 -0.0681
 2877ntf    cn116145   2.270  -0.085   6.841  0.3886  0.1878 -0.1776
 2877ntf    fn416146   2.236   0.297   6.902  0.3309  0.3975 -0.6815
 2877ntf    fn416147   2.083   0.438   6.876 -0.4315 -0.2820 -0.8923
 2877ntf    fn416148   2.037   0.252   6.960  0.0612 -0.5024  0.2095
 2877ntf    on516149   1.926   0.243   6.704  0.1598  0.0767  0.3813
 2877ntf    on516150   2.143   0.326   6.608  0.0169 -0.1880 -0.3012
 2877ntf    on516151   2.382   0.125   6.731 -0.3281  0.5840  0.0882
 2877ntf    on516152   2.266  -0.042   6.589  0.3035  1.0493 -0.5911
 2877ntf    fn416153   2.369  -0.169   6.815 -0.1500 -0.5541  0.1172
 2877ntf    fn416154   2.284  -0.028   6.960 -0.4633 -0.0137  0.0282
 2877ntf    fn416155   2.156  -0.151   6.853  0.3437  0.3262  0.1811
 2878ntf    cn116156   2.622   2.199   2.905 -0.1161  0.1144  0.0099
 2878ntf    sn216157   2.583   2.153   2.734  0.0521  0.1797 -0.0463
 2878ntf    nn316158   2.537   2.004   2.751  0.4762  0.0685  0.1292
 2878ntf    sn216159   2.620   1.871   2.742 -0.0100 -0.2685  0.5480
 2878ntf    cn116160   2.608   1.833   2.564  0.2910  0.2056  0.4237
 2878ntf    fn416161   2.717   2.127   2.963 -0.3922 -0.5662 -0.3729
 2878ntf    fn416162   2.657   2.326   2.921 -0.3485  0.1493  0.2531
 2878ntf    fn416163   2.520   2.197   2.989  0.3345 -0.1421  0.5602
 2878ntf    on516164   2.477   2.246   2.704  0.2439  0.5629  0.4623
 2878ntf    on516165   2.708   2.172   2.665 -0.0317 -0.3569 -0.3563
 2878ntf    on516166   2.554   1.756   2.799 -0.4912 -0.1845  0.1627
 2878ntf    on516167   2.763   1.876   2.756  0.0717  0.4175 -0.3917
 2878ntf    fn416168   2.673   1.922   2.491 -0.2158 -0.2712 -0.6348
 2878ntf    fn416169   2.650   1.711   2.533 -0.2904  0.0816  0.1093
 2878ntf    fn416170   2.479   1.834   2.536  0.3679 -0.5443  0.0029
 2879ntf    cn116171   4.025   1.882   0.412 -0.1495  0.5160  0.0717
 2879ntf    sn216172   4.076   2.042   0.482 -0.1869  0.3695  0.4341
 2879ntf    nn316173   3.934   2.085   0.535 -0.4267  0.1220 -0.0109
 2879ntf    sn216174   3.905   2.195   0.642  0.4186  0.0267  0.3218
 2879ntf    cn116175   3.862   2.342   0.543 -0.0012 -0.2533  0.0882
 2879ntf    fn416176   3.977   1.801   0.504 -0.2025  0.6440  0.1571
 2879ntf    fn416177   3.937   1.896   0.315 -0.7188  0.2069  0.5438
 2879ntf    fn416178   4.129   1.822   0.356 -0.0201  0.0298  0.8149
 2879ntf    on516179   4.182   2.008   0.574 -0.0747 -0.3372  0.0458
 2879ntf    on516180   4.122   2.122   0.371  0.5107 -0.1918  0.3141
 2879ntf    on516181   4.020   2.233   0.721  0.3579  0.2397  0.3102
 2879ntf    on516182   3.791   2.164   0.724  0.0096  0.0484 -0.2384
 2879ntf    fn416183   3.772   2.311   0.451  0.2742 -1.1153  0.0981
 2879ntf    fn416184   3.795   2.430   0.616  0.3935  0.5269 -0.4779
 2879ntf    fn416185   3.961   2.410   0.489 -0.2676 -0.1564 -0.2793
 2880ntf    cn116186   5.989   3.879   3.715 -0.3199  0.2951 -0.0075
 2880ntf    sn216187   5.975   3.976   3.561 -0.2212  0.2098 -0.0709
 2880ntf    nn316188   6.008   4.114   3.628  0.2396  0.0133  0.1111
 2880ntf    sn216189   6.100   4.224   3.563  0.0868  0.1535  0.1320
 2880ntf    cn116190   6.068   4.364   3.675 -0.2785  0.1783 -0.0022
 2880ntf    fn416191   5.948   3.754   3.705  0.0954  0.1408  0.2130
 2880ntf    fn416192   6.112   3.883   3.762 -0.3724  0.1508  0.1388
 2880ntf    fn416193   5.908   3.925   3.809 -0.0730  0.1576  0.2718
 2880ntf    on516194   6.075   3.911   3.481 -0.5034 -0.3252  0.0083
 2880ntf    on516195   5.836   3.955   3.529 -0.0850 -0.1107 -0.4560
 2880ntf    on516196   6.046   4.279   3.441 -0.0610 -0.3094 -0.0145
 2880ntf    on516197   6.243   4.207   3.569  0.0202 -0.5033 -0.0964
 2880ntf    fn416198   6.114   4.479   3.628  0.0647  0.1029  0.1514
 2880ntf    fn416199   5.940   4.393   3.693 -0.2813 -0.0770  0.4064
 2880ntf    fn416200   6.119   4.352   3.796  0.0174  0.0818 -0.1364
 2881ntf    cn116201   4.459   5.162   4.836  0.4575 -0.3743 -0.1018
 2881ntf    sn216202   4.551   5.310   4.783 -0.3340  0.0236 -0.3822
 2881ntf    nn316203   4.622   5.348   4.919 -0.3721 -0.6223 -0.1798
 2881ntf    sn216204   4.768   5.320   4.970 -0.1824  0.2918 -0.2066
 2881ntf    cn116205   4.853   5.428   4.851 -0.3023  0.0446 -0.5212
 2881ntf    fn416206   4.385   5.102   4.745 -0.6453  0.2244  0.3761
 2881ntf    fn416207   4.529   5.058   4.880  0.2417 -0.5329 -0.1329
 2881ntf    fn416208   4.379   5.199   4.935  0.2257  0.1007 -0.4622
 2881ntf    on516209   4.638   5.262   4.679  0.1303  0.1957 -0.0772
 2881ntf    on516210   4.453   5.411   4.751 -0.2227  0.3217  0.2072
 2881ntf    on516211   4.814   5.185   4.947  0.8792  0.5441  0.4045
 2881ntf    on516212   4.800   5.379   5.097 -0.0210 -0.0285 -0.0982
 2881ntf    fn416213   4.834   5.401   4.723 -0.4094  0.1779 -0.5330
 2881ntf    fn416214   4.805   5.551   4.865 -0.0601  0.0729  0.1265
 2881ntf    fn416215   4.983   5.428   4.876 -0.4248 -0.8377  0.1704
 2882ntf    cn116216   1.256   2.516   6.998 -0.0053 -0.4304  0.3164
 2882ntf    sn216217   1.414   2.438   7.045  0.5632  0.5540  0.0606
 2882ntf    nn316218   1.510   2.552   6.996  0.6701  0.7211  0.6473
 2882ntf    sn216219   1.634   2.527   6.903 -0.0142  0.0325 -0.0979
 2882ntf    cn116220   1.769   2.538   7.025 -0.2280 -0.1979  0.1605
 2882ntf    fn416221   1.256   2.547   6.869 -0.0526 -0.1165  0.3908
 2882ntf    fn416222   1.144   2.449   7.022 -0.1662 -0.1271  0.4131
 2882ntf    fn416223   1.240   2.636   7.050  0.1393 -0.1521 -0.2697
 2882ntf    on516224   1.406   2.446   7.189 -0.4516  0.7549 -0.0003
 2882ntf    on516225   1.408   2.311   6.978 -0.2654  0.5793  0.0753
 2882ntf    on516226   1.655   2.645   6.824 -0.5168  0.3781  0.2834
 2882ntf    on516227   1.647   2.397   6.842 -0.2279  0.0765 -0.2384
 2882ntf    fn416228   1.878   2.523   6.953 -0.2136  0.1130  0.1157
 2882ntf    fn416229   1.781   2.654   7.087 -1.1013 -0.1632  0.2865
 2882ntf    fn416230   1.756   2.449   7.122  0.1053 -0.2940  0.1150
 2883ntf    cn116231   1.960   2.729   6.363  0.4192  0.7375  0.0434
 2883ntf    sn216232   2.045   2.601   6.267 -0.2435  0.1274  0.2653
 2883ntf    nn316233   2.084   2.497   6.378 -0.3618  0.2028  0.3789
 2883ntf    sn216234   2.227   2.491   6.441 -0.0208  0.2636 -0.3735
 2883ntf    cn116235   2.202   2.378   6.582 -0.0349  0.5465 -0.1488
 2883ntf    fn416236   1.920   2.835   6.295 -0.2476  0.2994 -0.2569
 2883ntf    fn416237   1.856   2.670   6.419  0.5703  0.5368  0.1137
 2883ntf    fn416238   2.040   2.766   6.462  0.1870 -0.6504  0.7715
 2883ntf    on516239   1.943   2.552   6.177  0.0575 -0.1146  0.0564
 2883ntf    on516240   2.155   2.674   6.211 -0.2462 -0.0565  0.0174
 2883ntf    on516241   2.271   2.614   6.501 -0.3199  0.2212 -0.0657
 2883ntf    on516242   2.314   2.414   6.355  0.2049 -0.0478  0.1222
 2883ntf    fn416243   2.073   2.369   6.611  0.1284  0.4296  0.5525
 2883ntf    fn416244   2.242   2.253   6.568  0.2922  0.6183  0.1412
 2883ntf    fn416245   2.266   2.428   6.686  0.3777  0.2288 -0.2449
 2884ntf    cn116246   2.307   0.893   4.378  0.1062  0.6490 -0.0305
 2884ntf    sn216247   2.351   0.892   4.202  0.0782 -0.1341 -0.0340
 2884ntf    nn316248   2.479   0.984   4.200  0.1149 -0.1777  0.2433
 2884ntf    sn216249   2.494   1.139   4.187  0.1030 -0.2147 -0.2364
 2884ntf    cn116250   2.582   1.163   4.344 -0.3086 -0.0130 -0.0341
 2884ntf    fn416251   2.412   0.887   4.459 -0.1329 -0.3451  0.2185
 2884ntf    fn416252   2.244   1.007   4.403  0.1584  0.5828  0.4051
 2884ntf    fn416253   2.223   0.795   4.406  0.1947  0.5030 -0.2685
 2884ntf    on516254   2.396   0.757   4.178  0.5687  0.0423 -0.1371
 2884ntf    on516255   2.242   0.944   4.123 -0.2390  0.0899  0.5480
 2884ntf    on516256   2.375   1.216   4.214  0.4132  0.2152 -0.0871
 2884ntf    on516257   2.592   1.178   4.088 -0.2679 -0.0709 -0.5497
 2884ntf    fn416258   2.657   1.057   4.370 -0.2127 -0.1364 -0.7844
 2884ntf    fn416259   2.666   1.265   4.354 -0.2672 -0.1148  0.7319
 2884ntf    fn416260   2.487   1.173   4.436  0.0116  0.3927  0.2580
 2885ntf    cn116261   6.033   0.558   1.922  0.4092 -0.5820 -0.3476
 2885ntf    sn216262   6.141   0.671   1.829  0.1235  0.0631  0.0976
 2885ntf    nn316263   6.185   0.569   1.717  0.3013 -0.0384  0.2589
 2885ntf    sn216264   6.168   0.588   1.562  0.0682  0.3437  0.3288
 2885ntf    cn116265   6.261   0.441   1.509 -0.1610  0.2914  0.0694
 2885ntf    fn416266   5.904   0.571   1.896  0.2551 -0.3194  0.5214
 2885ntf    fn416267   6.069   0.432   1.901  0.1353 -0.6616 -0.3323
 2885ntf    fn416268   6.042   0.577   2.052  0.1770 -0.4808 -0.3475
 2885ntf    on516269   6.060   0.785   1.794  0.1776  0.1922  0.3940
 2885ntf    on516270   6.251   0.693   1.919 -0.2035 -0.5426  0.6524
 2885ntf    on516271   6.249   0.694   1.506 -0.0269  0.0566 -0.3655
 2885ntf    on516272   6.037   0.566   1.506  0.3887 -0.0913 -0.2681
 2885ntf    fn416273   6.219   0.331   1.570  0.0531 -0.0608 -0.4103
 2885ntf    fn416274   6.250   0.417   1.379  0.1855  0.7289 -0.0419
 2885ntf    fn416275   6.391   0.446   1.533 -0.0589 -0.1832 -0.3666
 2886ntf    cn116276   6.243   0.358   6.280 -0.2516 -0.1121  0.2292
 2886ntf    sn216277   6.261   0.538   6.255 -0.2192 -0.1599 -0.0960
 2886ntf    nn316278   6.311   0.577   6.398 -0.4069  0.2131 -0.1328
 2886ntf    sn216279   6.247   0.656   6.518  0.0258  0.2658  0.0682
 2886ntf    cn116280   6.398   0.721   6.595  0.0712  0.1726  0.0581
 2886ntf    fn416281   6.252   0.296   6.163 -0.1580  0.1950  0.0704
 2886ntf    fn416282   6.341   0.299   6.347  0.1082  0.5903  0.3398
 2886ntf    fn416283   6.126   0.325   6.330 -0.3603 -0.2978 -0.1418
 2886ntf    on516284   6.364   0.553   6.155 -0.1640 -0.6254 -0.1136
 2886ntf    on516285   6.130   0.581   6.214 -0.1737  0.6695  0.6107
 2886ntf    on516286   6.186   0.568   6.614 -0.3601  0.0679 -0.3499
 2886ntf    on516287   6.173   0.775   6.481  0.2060  0.3905  0.1109
 2886ntf    fn416288   6.367   0.785   6.706 -0.4910 -0.4614  0.2699
 2886ntf    fn416289   6.487   0.630   6.631 -0.0327  0.4052  0.9130
 2886ntf    fn416290   6.460   0.816   6.527  0.4492  0.0539  0.2331
 2887ntf    cn116291   5.347   1.448   2.597 -0.0624  0.1153 -0.0449
 2887ntf    sn216292   5.183   1.447   2.517  0.0806 -0.2969 -0.3381
 2887ntf    nn316293   5.115   1.562   2.599 -0.4504 -0.5664 -0.3959
 2887ntf    sn216294   5.042   1.695   2.560  0.4040  0.0563  0.0645
 2887ntf    cn116295   4.875   1.639   2.604  0.6316 -0.9478 -0.3265
 2887ntf    fn416296   5.426   1.549   2.569 -0.1778  0.1755 -0.1558
 2887ntf    fn416297   5.333   1.426   2.727 -0.5427 -0.4017 -0.1775
 2887ntf    fn416298   5.397   1.336   2.548 -0.8590 -0.0317 -0.5496
 2887ntf    on516299   5.216   1.479   2.380 -0.9046  0.4222 -0.4164
 2887ntf    on516300   5.129   1.318   2.550 -0.4376 -0.1851 -0.7374
 2887ntf    on516301   5.047   1.733   2.420 -0.5718  1.0471  0.2762
 2887ntf    on516302   5.068   1.794   2.661  0.1517  0.3672 -0.1684
 2887ntf    fn416303   4.788   1.731   2.566  0.4346 -0.6490  0.7983
 2887ntf    fn416304   4.833   1.532   2.538  0.3526 -0.8512 -0.3088
 2887ntf    fn416305   4.862   1.617   2.734  0.3265  0.0639 -0.1808
 2888ntf    cn116306   6.794   5.990   4.764 -0.2894 -0.2495  0.0423
 2888ntf    sn216307   6.895   5.887   4.875 -0.1213  0.0857  0.2012
 2888ntf    nn316308   6.818   5.903   5.010 -0.3891 -0.2620  0.0903
 2888ntf    sn216309   6.813   6.029   5.103  0.0360 -0.0372 -0.1928
 2888ntf    cn116310   6.724   5.955   5.243 -0.0816  0.3563 -0.0560
 2888ntf    fn416311   6.832   5.971   4.639 -0.4705  0.0837 -0.0630
 2888ntf    fn416312   6.664   5.968   4.776 -0.2937 -0.2707 -0.0374
 2888ntf    fn416313   6.810   6.120   4.782 -0.1774 -0.2144 -0.3125
 2888ntf    on516314   6.881   5.749   4.835 -0.1143  0.1671 -0.0921
 2888ntf    on516315   7.028   5.938   4.854 -0.1104 -0.0872 -0.1629
 2888ntf    on516316   6.727   6.136   5.059  0.4329  0.1550 -0.5098
 2888ntf    on516317   6.943   6.068   5.152 -0.0858  0.3052 -0.1372
 2888ntf    fn416318   6.701   6.024   5.354  1.5752  0.1932  0.4210
 2888ntf    fn416319   6.602   5.921   5.204  0.3209 -0.5510 -0.5633
 2888ntf    fn416320   6.787   5.844   5.280  0.0642  0.3816 -0.2257
 2889ntf    cn116321   0.774   4.357   4.417 -0.0426 -0.0298  0.1059
 2889ntf    sn216322   0.837   4.527   4.404 -0.1149  0.0157  0.3503
 2889ntf    nn316323   0.773   4.563   4.265  0.1077  0.0006  0.2440
 2889ntf    sn216324   0.656   4.662   4.233  0.0531 -0.1168  0.0762
 2889ntf    cn116325   0.538   4.549   4.153  0.0189 -0.1326  0.1486
 2889ntf    fn416326   0.813   4.276   4.320  0.1980  0.1441  0.0562
 2889ntf    fn416327   0.815   4.304   4.530  0.2953  0.3576  0.1665
 2889ntf    fn416328   0.642   4.349   4.424  0.0008 -0.1822  0.7889
 2889ntf    on516329   0.793   4.597   4.522 -0.2936  0.6273 -0.0750
 2889ntf    on516330   0.980   4.508   4.396 -0.1115  0.0208  0.4003
 2889ntf    on516331   0.697   4.761   4.137 -0.1283 -0.0897  0.0278
 2889ntf    on516332   0.588   4.712   4.350 -0.4776 -0.5959 -0.0262
 2889ntf    fn416333   0.571   4.496   4.037 -0.5077 -0.0002 -0.0609
 2889ntf    fn416334   0.528   4.436   4.222 -0.6853 -0.0996  0.1039
 2889ntf    fn416335   0.419   4.605   4.142 -0.2244 -0.7339 -0.3092
 2890ntf    cn116336   0.235   5.079   4.322 -0.3209 -0.1290 -0.3900
 2890ntf    sn216337   0.097   5.019   4.424  0.1336 -0.1010  0.2486
 2890ntf    nn316338   0.027   4.930   4.315  0.0130 -0.3315  0.5110
 2890ntf    sn216339   0.017   4.774   4.309 -0.2540 -0.3049  0.2445
 2890ntf    cn116340   0.171   4.720   4.229  0.0668  0.4874  0.3249
 2890ntf    fn416341   0.329   5.140   4.392 -1.2176  0.6117  0.2013
 2890ntf    fn416342   0.302   4.973   4.281  0.6579 -0.1544  1.1948
 2890ntf    fn416343   0.209   5.149   4.213  0.5033  0.2648 -0.3398
 2890ntf    on516344   0.159   4.953   4.537 -0.6470  0.0954  0.8031
 2890ntf    on516345   0.007   5.129   4.448  0.1894 -0.0886  0.4032
 2890ntf    on516346  -0.091   4.725   4.226 -0.3900 -0.1884  0.3507
 2890ntf    on516347   0.021   4.709   4.438  0.0967 -0.5084  0.1316
 2890ntf    fn416348   0.193   4.783   4.114  0.1898 -0.1705 -0.0133
 2890ntf    fn416349   0.274   4.741   4.309  0.7560  0.3985 -0.5252
 2890ntf    fn416350   0.170   4.591   4.201 -1.1601  0.4276  0.5745
 2891ntf    cn116351   5.209   1.866   4.689  0.3205  0.2648 -0.5509
 2891ntf    sn216352   5.176   2.041   4.652 -0.2989  0.2954  0.1300
 2891ntf    nn316353   5.317   2.100   4.616 -0.3307  0.2505 -0.0684
 2891ntf    sn216354   5.411   2.195   4.698 -0.3705  0.1174  0.1336
 2891ntf    cn116355   5.555   2.095   4.651 -0.1661  0.6249 -0.3349
 2891ntf    fn416356   5.101   1.794   4.665  0.1505  0.3004  0.0910
 2891ntf    fn416357   5.312   1.826   4.616  0.5206  0.7133 -0.5185
 2891ntf    fn416358   5.240   1.854   4.818 -0.0711 -0.1443 -0.4929
 2891ntf    on516359   5.096   2.046   4.532  0.2156 -0.1812 -0.2351
 2891ntf    on516360   5.110   2.093   4.769 -0.5128  0.3062  0.0044
 2891ntf    on516361   5.390   2.182   4.840 -0.1747 -0.9650  0.0699
 2891ntf    on516362   5.427   2.329   4.646  0.5314 -0.1380 -0.2641
 2891ntf    fn416363   5.570   2.084   4.520 -0.5098  0.5857 -0.3703
 2891ntf    fn416364   5.669   2.135   4.706 -0.0649 -0.3407  0.1896
 2891ntf    fn416365   5.535   1.973   4.698 -0.3155  0.7468 -0.0776
 2892ntf    cn116366   0.831   4.612   0.167  0.4659  0.4794 -0.1165
 2892ntf    sn216367   0.742   4.656   0.319  0.1762 -0.0491 -0.1327
 2892ntf    nn316368   0.847   4.745   0.394 -0.2838  0.0774  0.3682
 2892ntf    sn216369   0.839   4.899   0.427 -0.0226  0.0677  0.4776
 2892ntf    cn116370   0.762   4.905   0.592 -0.3548  0.5932  0.3046
 2892ntf    fn416371   0.912   4.702   0.113  0.3151  0.4696 -0.3601
 2892ntf    fn416372   0.922   4.519   0.188 -0.3260 -0.2695  0.0421
 2892ntf    fn416373   0.756   4.575   0.064  0.1232 -0.1177  0.3444
 2892ntf    on516374   0.623   4.711   0.260 -0.2228 -0.3297  0.4057
 2892ntf    on516375   0.730   4.530   0.388  0.6852 -0.0297 -0.0063
 2892ntf    on516376   0.750   4.972   0.340  0.0356 -0.6796 -0.2247
 2892ntf    on516377   0.968   4.959   0.450  0.2146 -0.3033  0.1353
 2892ntf    fn416378   0.663   4.820   0.609  0.0714 -0.0227 -0.2551
 2892ntf    fn416379   0.852   4.880   0.685  0.4130  0.1226 -0.5403
 2892ntf    fn416380   0.721   5.028   0.618  0.1697  0.8344  0.0251
 2893ntf    cn116381   4.252   5.279   5.211  0.0610  0.1133 -0.1711
 2893ntf    sn216382   4.210   5.249   5.385  0.2074  0.1840 -0.1230
 2893ntf    nn316383   4.283   5.369   5.456  0.2302  0.1682 -0.1197
 2893ntf    sn216384   4.279   5.422   5.604 -0.0043  0.0187 -0.0723
 2893ntf    cn116385   4.249   5.597   5.564 -0.2298 -0.0068 -0.0166
 2893ntf    fn416386   4.220   5.402   5.173 -0.1777 -0.0010 -0.3425
 2893ntf    fn416387   4.382   5.266   5.187  0.0652 -0.1876  0.0084
 2893ntf    fn416388   4.191   5.195   5.130 -0.0338 -0.2747  0.2963
 2893ntf    on516389   4.067   5.264   5.382  0.1611 -0.3088 -0.6619
 2893ntf    on516390   4.271   5.120   5.411  0.0066  0.0355 -0.3798
 2893ntf    on516391   4.400   5.406   5.680 -0.1957 -0.6617  0.0993
 2893ntf    on516392   4.162   5.385   5.679 -0.2068  0.4378 -0.1769
 2893ntf    fn416393   4.241   5.664   5.677 -0.6968  0.1764 -0.1555
 2893ntf    fn416394   4.340   5.658   5.490  0.0332 -0.0488  0.2691
 2893ntf    fn416395   4.132   5.611   5.503 -0.3062 -0.7436 -0.0482
 2894ntf    cn116396   1.368   3.738   1.342  0.1864 -0.2052 -0.1301
 2894ntf    sn216397   1.211   3.788   1.266  0.1121 -0.0774  0.1083
 2894ntf    nn316398   1.175   3.655   1.191 -0.7569  0.0896  0.2173
 2894ntf    sn216399   1.200   3.618   1.041  0.4651 -0.1199  0.4602
 2894ntf    cn116400   1.060   3.698   0.957  0.6712 -0.2715 -0.0321
 2894ntf    fn416401   1.352   3.649   1.438 -0.5812  0.1017  0.0294
 2894ntf    fn416402   1.455   3.683   1.259 -0.1624 -0.2945 -0.4401
 2894ntf    fn416403   1.433   3.840   1.397  0.5005 -0.1304 -0.6365
 2894ntf    on516404   1.127   3.818   1.379  0.0677 -0.6499  0.2282
 2894ntf    on516405   1.237   3.902   1.181 -0.7599 -0.0556 -0.1371
 2894ntf    on516406   1.183   3.479   1.009  0.0427  0.0201  0.0540
 2894ntf    on516407   1.316   3.681   0.981  0.2307  0.3737  0.5191
 2894ntf    fn416408   1.025   3.657   0.836 -0.3586 -0.1122  0.2054
 2894ntf    fn416409   0.954   3.673   1.032  0.2732 -0.6435 -0.6986
 2894ntf    fn416410   1.077   3.829   0.946 -0.2004 -0.1434  0.0282
 2895ntf    cn116411   1.830   1.821   4.124 -0.4047 -0.1773  0.1538
 2895ntf    sn216412   1.680   1.735   4.180 -0.3832 -0.1297  0.2850
 2895ntf    nn316413   1.574   1.839   4.128  0.0722  0.1696 -0.0504
 2895ntf    sn216414   1.467   1.921   4.209 -0.1901  0.0411 -0.2660
 2895ntf    cn116415   1.321   1.817   4.182  0.1415 -0.4783 -0.0913
 2895ntf    fn416416   1.846   1.821   3.993 -0.1659 -0.4364  0.1841
 2895ntf    fn416417   1.818   1.950   4.152 -0.0598 -0.0442 -0.3094
 2895ntf    fn416418   1.943   1.774   4.173 -0.4373 -0.5476 -0.1254
 2895ntf    on516419   1.689   1.611   4.107 -0.3351 -0.1182  0.2714
 2895ntf    on516420   1.710   1.720   4.320 -0.6623  0.2305  0.3842
 2895ntf    on516421   1.438   2.046   4.143  0.2256  0.0591 -0.4176
 2895ntf    on516422   1.482   1.926   4.353  0.4691 -0.3970 -0.3142
 2895ntf    fn416423   1.312   1.765   4.061  0.3983 -0.5085 -0.0977
 2895ntf    fn416424   1.312   1.719   4.271  0.1648 -0.2393  0.1770
 2895ntf    fn416425   1.209   1.887   4.197  0.5928  0.0961  0.7127
 2896ntf    cn116426   6.514   4.012   2.062  0.3400  0.2474 -0.1475
 2896ntf    sn216427   6.601   4.139   1.966  0.2261  0.3378 -0.1310
 2896ntf    nn316428   6.547   4.269   2.035 -0.3672 -0.1776  0.3807
 2896ntf    sn216429   6.614   4.411   2.044  0.0128 -0.3173 -0.2051
 2896ntf    cn116430   6.488   4.522   1.974  0.2688  0.0237 -0.1234
 2896ntf    fn416431   6.554   3.886   2.057 -0.1870  0.0822 -0.2562
 2896ntf    fn416432   6.512   4.035   2.192 -0.4255 -0.2251 -0.0706
 2896ntf    fn416433   6.387   4.001   2.025  0.4269  0.0762 -0.4015
 2896ntf    on516434   6.741   4.107   1.986  0.2358  0.0950 -0.5696
 2896ntf    on516435   6.549   4.132   1.831  0.0564 -0.1181 -0.0430
 2896ntf    on516436   6.719   4.439   1.950  0.3556 -0.2590  0.1935
 2896ntf    on516437   6.635   4.453   2.180 -0.3111 -0.4089 -0.1261
 2896ntf    fn416438   6.380   4.528   2.050  0.3748 -0.5976  0.0797
 2896ntf    fn416439   6.541   4.643   1.982 -0.0032  0.1371 -0.0250
 2896ntf    fn416440   6.446   4.492   1.852  0.1923 -0.0005 -0.0907
 2897ntf    cn116441   3.774   2.509   0.973 -0.0764  0.0680  0.2827
 2897ntf    sn216442   3.871   2.652   0.916 -0.1354 -0.0744 -0.1787
 2897ntf    nn316443   3.810   2.772   0.995 -0.3567 -0.2199 -0.1260
 2897ntf    sn216444   3.859   2.835   1.131  0.2219 -0.1944 -0.3438
 2897ntf    cn116445   3.962   2.967   1.059  0.0786  0.1252  0.0368
 2897ntf    fn416446   3.780   2.496   1.104  0.5128  0.8010  0.3311
 2897ntf    fn416447   3.645   2.523   0.947 -0.0693 -0.4761 -0.0622
 2897ntf    fn416448   3.798   2.388   0.924 -0.6490  0.0350  0.0705
 2897ntf    on516449   4.005   2.622   0.958 -0.2990 -0.1290  0.3104
 2897ntf    on516450   3.857   2.674   0.774 -0.5075  0.4964 -0.0575
 2897ntf    on516451   3.943   2.755   1.217 -0.1649  0.2867  0.4985
 2897ntf    on516452   3.746   2.901   1.190  0.5071  0.4390 -0.5001
 2897ntf    fn416453   4.080   2.928   1.014  0.3509  0.4384  0.4669
 2897ntf    fn416454   3.894   3.039   0.972 -0.4614 -0.5298 -0.1011
 2897ntf    fn416455   3.989   3.054   1.155  0.0705  0.0028  0.1519
 2898ntf    cn116456   1.532   4.170   5.439  0.6064  0.1703 -0.5567
 2898ntf    sn216457   1.564   4.018   5.344 -0.3400 -0.2225 -0.2607
 2898ntf    nn316458   1.663   3.949   5.443 -0.2167  0.2237 -0.0675
 2898ntf    sn216459   1.650   3.794   5.469 -0.1639  0.2302 -0.0007
 2898ntf    cn116460   1.810   3.760   5.548 -0.0593  0.3945 -0.1423
 2898ntf    fn416461   1.433   4.153   5.526  0.5994 -0.1585 -0.6268
 2898ntf    fn416462   1.639   4.197   5.512  0.3522 -0.0563 -0.0960
 2898ntf    fn416463   1.494   4.275   5.367 -0.5250  0.4612  0.4269
 2898ntf    on516464   1.430   3.968   5.328 -0.6334  0.3399  0.3496
 2898ntf    on516465   1.623   4.079   5.228 -0.2313 -0.1278 -0.1562
 2898ntf    on516466   1.662   3.721   5.346 -0.1283 -0.2862  0.3065
 2898ntf    on516467   1.550   3.762   5.568 -0.0714 -0.0187  0.0110
 2898ntf    fn416468   1.820   3.814   5.668 -0.1491 -0.3609  0.2113
 2898ntf    fn416469   1.848   3.633   5.551 -0.1182  0.3427 -1.1693
 2898ntf    fn416470   1.903   3.826   5.480 -0.3875  0.2697 -0.7186
 2899ntf    cn116471   5.573   3.266   5.695 -0.4816 -0.5019  0.2760
 2899ntf    sn216472   5.563   3.300   5.873 -0.4306 -0.1180  0.2063
 2899ntf    nn316473   5.614   3.449   5.878 -0.3046 -0.1467 -0.2717
 2899ntf    sn216474   5.759   3.509   5.876 -0.1722 -0.4535  0.0064
 2899ntf    cn116475   5.751   3.635   5.745  0.3883 -0.0949  0.3184
 2899ntf    fn416476   5.682   3.322   5.646 -0.5143 -0.3413  0.3846
 2899ntf    fn416477   5.586   3.137   5.667  0.3202 -0.2775 -0.4300
 2899ntf    fn416478   5.475   3.307   5.617  0.1519 -0.0478 -0.2887
 2899ntf    on516479   5.423   3.299   5.910 -0.5260  0.4881 -0.1230
 2899ntf    on516480   5.647   3.198   5.931  0.0384 -0.0062 -0.2699
 2899ntf    on516481   5.867   3.419   5.844  0.2660  0.1413 -0.2071
 2899ntf    on516482   5.781   3.582   5.998  0.0947 -0.6113  0.0516
 2899ntf    fn416483   5.706   3.588   5.630  0.3175 -0.1948  0.3871
 2899ntf    fn416484   5.663   3.727   5.782  0.5126  0.2586 -0.2531
 2899ntf    fn416485   5.864   3.699   5.718  0.0700  0.0881 -0.5880
 2900ntf    cn116486   2.186   5.720   4.986 -0.3680 -0.3019 -0.3935
 2900ntf    sn216487   2.222   5.895   4.952  0.6588 -0.3636  0.3283
 2900ntf    nn316488   2.198   5.887   4.797 -0.2360 -0.0679  0.4464
 2900ntf    sn216489   2.266   5.973   4.684 -0.1306 -0.1115  0.4777
 2900ntf    cn116490   2.359   5.840   4.601 -0.6216 -0.4179  0.4142
 2900ntf    fn416491   2.249   5.674   5.092 -0.3006  0.2350 -0.1991
 2900ntf    fn416492   2.059   5.695   5.013 -0.3172 -0.2824 -0.1387
 2900ntf    fn416493   2.213   5.635   4.888 -0.2102 -0.0842 -0.5387
 2900ntf    on516494   2.120   5.973   5.018  0.7079 -0.0226  0.0087
 2900ntf    on516495   2.358   5.920   4.991  0.3325  0.3686  1.0070
 2900ntf    on516496   2.354   6.077   4.731 -0.3300 -0.0172  0.6444
 2900ntf    on516497   2.166   6.011   4.587  0.2239  0.4478  0.3285
 2900ntf    fn416498   2.458   5.884   4.525 -0.7095 -0.1351  0.4590
 2900ntf    fn416499   2.406   5.752   4.688  0.0146 -0.3141  0.1782
 2900ntf    fn416500   2.278   5.772   4.522 -0.1024  0.1067 -0.5788
 2901ntf    cn116501   1.041   5.447   4.629  0.2693  0.3153  0.3146
 2901ntf    sn216502   0.896   5.380   4.541  0.2803  0.1459  0.4229
 2901ntf    nn316503   0.820   5.514   4.513 -0.1670 -0.0937  0.4798
 2901ntf    sn216504   0.724   5.547   4.393  0.2624 -0.1143  0.1312
 2901ntf    cn116505   0.615   5.675   4.462 -0.2181 -0.6469  0.3692
 2901ntf    fn416506   1.147   5.372   4.605  0.2135  0.3209  0.0510
 2901ntf    fn416507   1.080   5.571   4.607 -0.4201  0.5061  0.1490
 2901ntf    fn416508   1.023   5.432   4.760  0.0436  0.0964  0.2603
 2901ntf    on516509   0.948   5.320   4.421  0.2101  0.7192  0.1028
 2901ntf    on516510   0.845   5.297   4.647 -0.2211  0.0312  0.0927
 2901ntf    on516511   0.630   5.442   4.365  0.6013 -0.2836 -0.3822
 2901ntf    on516512   0.791   5.603   4.278  0.2075 -0.1863  0.0638
 2901ntf    fn416513   0.531   5.637   4.557 -0.5500  0.4282  0.5208
 2901ntf    fn416514   0.681   5.770   4.527 -0.8941  0.3271 -0.3372
 2901ntf    fn416515   0.545   5.728   4.363  0.0109 -0.2803  0.4012
 2902ntf    cn116516   6.540   4.988   1.300 -0.0833 -0.3046 -0.1128
 2902ntf    sn216517   6.417   4.990   1.167 -0.1563 -0.1884 -0.0429
 2902ntf    nn316518   6.284   5.013   1.247 -0.1604  0.5445 -0.2528
 2902ntf    sn216519   6.179   5.131   1.249 -0.1542  0.5432  0.5583
 2902ntf    cn116520   6.028   5.054   1.313 -0.1710 -0.2039 -0.3454
 2902ntf    fn416521   6.648   4.915   1.276  0.1671  0.1742 -0.4701
 2902ntf    fn416522   6.577   5.113   1.325 -0.3318 -0.2593  0.0319
 2902ntf    fn416523   6.503   4.943   1.419 -0.2594 -0.3270 -0.1756
 2902ntf    on516524   6.466   5.093   1.078 -0.0749  0.8230  1.1499
 2902ntf    on516525   6.429   4.856   1.116  0.1002 -0.1889  0.0203
 2902ntf    on516526   6.136   5.170   1.116  0.2355 -0.2056  0.2048
 2902ntf    on516527   6.216   5.237   1.339  0.1188  0.7864  0.1631
 2902ntf    fn416528   5.920   5.125   1.285 -0.0630 -0.0034 -0.2531
 2902ntf    fn416529   6.007   4.932   1.266 -0.6739 -0.3455  0.2257
 2902ntf    fn416530   6.034   5.043   1.445 -0.1474 -0.1449 -0.3412
 2903ntf    cn116531   6.603   3.067   2.258  0.0135 -0.4778 -0.1478
 2903ntf    sn216532   6.570   3.220   2.349  0.4508 -0.3848 -0.1466
 2903ntf    nn316533   6.694   3.314   2.326 -0.1019  0.4400  0.1853
 2903ntf    sn216534   6.698   3.438   2.231 -0.2097  0.3524  0.0668
 2903ntf    cn116535   6.616   3.560   2.338 -0.3640  0.3051  0.0037
 2903ntf    fn416536   6.620   3.103   2.132  0.1322 -0.3883 -0.1059
 2903ntf    fn416537   6.708   3.001   2.304  0.0629 -0.3406 -0.0661
 2903ntf    fn416538   6.492   2.994   2.261 -0.4615  0.2629  0.3700
 2903ntf    on516539   6.448   3.267   2.288 -0.3447 -0.5193  1.2800
 2903ntf    on516540   6.568   3.173   2.485 -0.0999  0.1916  0.0504
 2903ntf    on516541   6.621   3.436   2.108 -0.1846  0.7491  0.0421
 2903ntf    on516542   6.835   3.481   2.219 -0.0844 -0.1317 -0.2376
 2903ntf    fn416543   6.658   3.555   2.464  0.7815 -0.6063 -0.4062
 2903ntf    fn416544   6.623   3.688   2.305  0.2738  0.2549 -0.0684
 2903ntf    fn416545   6.489   3.525   2.349 -0.4063  0.4137 -0.1441
 2904ntf    cn116546   6.958   5.178   2.189  0.3525  0.1776  0.6015
 2904ntf    sn216547   7.006   5.308   2.071  0.1440 -0.0803  0.2318
 2904ntf    nn316548   7.160   5.282   2.076  0.2249  0.2125 -0.6247
 2904ntf    sn216549   7.263   5.336   2.181 -0.2970 -0.0865  0.0480
 2904ntf    cn116550   7.412   5.380   2.086 -0.1457 -0.3585  0.1587
 2904ntf    fn416551   7.022   5.174   2.304  0.0757  0.0468  0.7527
 2904ntf    fn416552   6.829   5.186   2.216  0.3344 -0.6021  0.7638
 2904ntf    fn416553   6.976   5.057   2.137 -0.3798  0.3535 -0.0907
 2904ntf    on516554   6.947   5.265   1.946 -0.4417 -0.5495  0.6574
 2904ntf    on516555   6.962   5.433   2.127  0.6592  0.4753 -0.5927
 2904ntf    on516556   7.312   5.240   2.276  0.6905 -0.2482 -0.6088
 2904ntf    on516557   7.227   5.465   2.235  0.2907  0.0942  0.0167
 2904ntf    fn416558   7.515   5.404   2.165  0.3923  0.1729 -0.6868
 2904ntf    fn416559   7.454   5.284   2.006  0.1570 -0.2449  0.1813
 2904ntf    fn416560   7.389   5.481   2.004 -0.2046  0.0012  0.6148
 2905ntf    cn116561   3.666   0.087   2.990 -0.0886  0.1544  0.1003
 2905ntf    sn216562   3.801   0.200   3.036  0.1930 -0.1593  0.0533
 2905ntf    nn316563   3.719   0.317   3.102  0.1367 -0.0915 -0.1336
 2905ntf    sn216564   3.669   0.450   3.036  0.1965  0.2321  0.4594
 2905ntf    cn116565   3.810   0.560   3.067  0.5016  0.0929 -0.3810
 2905ntf    fn416566   3.611   0.029   3.095 -0.2718 -0.2555 -0.2193
 2905ntf    fn416567   3.567   0.150   2.929 -0.1466  0.2162  0.2601
 2905ntf    fn416568   3.725   0.002   2.907  0.1562 -0.1989  0.6304
 2905ntf    on516569   3.872   0.131   3.141  0.0345 -0.6526 -0.1619
 2905ntf    on516570   3.872   0.247   2.920 -0.2587 -0.0154 -0.1688
 2905ntf    on516571   3.563   0.509   3.112  0.3150  0.4377  0.4657
 2905ntf    on516572   3.652   0.450   2.892 -0.3753  0.7568  0.5219
 2905ntf    fn416573   3.781   0.676   3.011  0.4601  0.1329 -0.2774
 2905ntf    fn416574   3.831   0.571   3.197 -0.2280 -0.5258 -0.2034
 2905ntf    fn416575   3.925   0.519   3.016  0.3191  0.2640 -0.9313
 2906ntf    cn116576   6.183   6.360   5.962 -0.2325  0.3589 -0.8443
 2906ntf    sn216577   6.006   6.336   5.928 -0.3295 -0.3152  0.1054
 2906ntf    nn316578   6.007   6.303   5.775 -0.1616 -0.3198  0.1068
 2906ntf    sn216579   5.889   6.335   5.676  0.0236 -0.0662 -0.0309
 2906ntf    cn116580   5.891   6.191   5.564 -0.0452 -0.0005 -0.1183
 2906ntf    fn416581   6.244   6.246   5.933 -0.5302  0.1073 -0.4925
 2906ntf    fn416582   6.234   6.457   5.888 -0.3704  0.5777 -0.6527
 2906ntf    fn416583   6.210   6.393   6.087 -0.0040 -0.3033 -0.7172
 2906ntf    on516584   5.973   6.222   6.010 -0.0584  0.3145  1.1073
 2906ntf    on516585   5.954   6.465   5.967  0.2396  0.0403 -0.2940
 2906ntf    on516586   5.932   6.433   5.579  0.6512 -0.6241 -0.3312
 2906ntf    on516587   5.754   6.339   5.725 -0.1015  0.1739 -0.3916
 2906ntf    fn416588   5.855   6.079   5.625 -0.2612  0.0587 -0.1368
 2906ntf    fn416589   5.798   6.205   5.472 -0.2464 -0.3493  0.0289
 2906ntf    fn416590   6.008   6.169   5.507  0.0706 -0.3195  0.2399
 2907ntf    cn116591   1.903   2.969   5.834 -0.3334 -0.0020  0.2089
 2907ntf    sn216592   2.047   3.053   5.908  0.0533 -0.1536 -0.3720
 2907ntf    nn316593   1.999   3.112   6.045  0.2571 -0.2371 -0.2649
 2907ntf    sn216594   2.043   3.239   6.127 -0.4480 -0.0991 -0.0911
 2907ntf    cn116595   2.051   3.172   6.296 -0.1806 -0.0566 -0.0848
 2907ntf    fn416596   1.844   2.895   5.927 -0.2603  0.2134  0.4284
 2907ntf    fn416597   1.820   3.059   5.784  0.1576  0.1813 -0.2801
 2907ntf    fn416598   1.960   2.892   5.744 -0.3525 -0.2308  0.3899
 2907ntf    on516599   2.137   2.943   5.932  0.0122 -0.1916 -0.3912
 2907ntf    on516600   2.084   3.140   5.799 -0.2437 -0.0020 -0.3533
 2907ntf    on516601   1.944   3.343   6.127 -0.6235 -0.2580 -0.9854
 2907ntf    on516602   2.180   3.278   6.103 -0.3803 -0.2651  0.0256
 2907ntf    fn416603   2.071   3.277   6.374  0.3082 -0.0663 -0.1965
 2907ntf    fn416604   1.937   3.112   6.329 -0.0390 -0.4045 -0.2223
 2907ntf    fn416605   2.149   3.084   6.309 -0.0628  0.0373 -0.3428
 2908ntf    cn116606   0.734   2.129   0.427  0.0961 -0.3863  0.1056
 2908ntf    sn216607   0.693   2.142   0.251 -0.0905  0.0471  0.1796
 2908ntf    nn316608   0.537   2.150   0.271 -0.0399  0.5478  0.3752
 2908ntf    sn216609   0.436   2.030   0.267  0.1326  0.4084  0.1870
 2908ntf    cn116610   0.381   2.016   0.094  0.1269  0.3056  0.1972
 2908ntf    fn416611   0.866   2.129   0.444  0.1688 -0.1081 -0.4397
 2908ntf    fn416612   0.683   2.225   0.503  0.9413 -0.1611  0.4040
 2908ntf    fn416613   0.685   2.016   0.477 -0.0032 -0.4573 -0.1537
 2908ntf    on516614   0.740   2.276   0.226  0.1671  0.0638  0.7461
 2908ntf    on516615   0.746   2.025   0.185  0.1468  0.1135  0.2550
 2908ntf    on516616   0.312   2.077   0.324 -0.0529  0.1499 -0.0010
 2908ntf    on516617   0.482   1.898   0.302 -0.5456 -0.0370 -0.5735
 2908ntf    fn416618   0.487   2.014   0.015  0.3149 -0.1341  0.4559
 2908ntf    fn416619   0.320   1.900   0.075  0.5677  0.0918  0.0810
 2908ntf    fn416620   0.291   2.104   0.053 -0.1024 -0.1948 -0.3897
 2909ntf    cn116621   4.347   3.055   3.485  0.4024  0.1908 -0.0946
 2909ntf    sn216622   4.202   3.046   3.377  0.1717 -0.0393  0.2325
 2909ntf    nn316623   4.119   3.155   3.455 -0.2850  0.2576 -0.6492
 2909ntf    sn216624   3.965   3.181   3.453 -0.3415 -0.0235 -0.0398
 2909ntf    cn116625   3.916   3.122   3.619 -0.1009 -0.3618 -0.0889
 2909ntf    fn416626   4.318   2.998   3.601  0.8303 -0.4948 -0.3200
 2909ntf    fn416627   4.452   2.996   3.430 -0.0962 -0.2449 -0.5805
 2909ntf    fn416628   4.390   3.179   3.504  0.0161  0.2305  0.5430
 2909ntf    on516629   4.250   3.091   3.249 -0.0636 -0.2514  0.0679
 2909ntf    on516630   4.155   2.911   3.398 -0.0593 -0.0059 -0.0622
 2909ntf    on516631   3.898   3.103   3.353 -0.9240  0.4301 -0.0104
 2909ntf    on516632   3.939   3.323   3.447  0.0668  0.0326 -0.5330
 2909ntf    fn416633   3.805   3.177   3.665  0.1192 -0.2957  0.3700
 2909ntf    fn416634   3.887   2.993   3.623 -0.8029 -0.1944  0.2787
 2909ntf    fn416635   4.012   3.142   3.708 -0.1906 -0.7901  0.1047
 2910ntf    cn116636   2.585   1.950   1.282  0.0276  0.1545  0.6320
 2910ntf    sn216637   2.494   2.088   1.208 -0.0301 -0.2666 -0.0945
 2910ntf    nn316638   2.442   2.163   1.335 -0.3431 -0.1855 -0.2674
 2910ntf    sn216639   2.314   2.128   1.419  0.0425 -0.5153  0.1891
 2910ntf    cn116640   2.383   2.108   1.586  0.4965 -0.2934  0.0289
 2910ntf    fn416641   2.656   1.881   1.193 -0.8470  0.2185 -0.1349
 2910ntf    fn416642   2.671   1.990   1.374  0.2126  0.0532  0.5059
 2910ntf    fn416643   2.501   1.862   1.335  0.1904 -0.4600 -0.1028
 2910ntf    on516644   2.598   2.163   1.142  0.0776 -0.0327  0.3361
 2910ntf    on516645   2.397   2.024   1.121  0.2382 -0.6637 -0.1049
 2910ntf    on516646   2.254   1.998   1.402 -0.8268 -0.1241  0.1948
 2910ntf    on516647   2.222   2.238   1.419 -0.1584 -0.6807  0.6231
 2910ntf    fn416648   2.501   2.048   1.590  0.4004 -0.5046 -0.2549
 2910ntf    fn416649   2.400   2.221   1.652  0.4888 -0.1170 -0.2662
 2910ntf    fn416650   2.295   2.045   1.661 -0.3374  0.3659 -0.3770
 2911ntf    cn116651   4.663   6.329   6.208 -0.2307 -0.6174 -0.3618
 2911ntf    sn216652   4.719   6.189   6.107  0.4658 -0.5612 -0.0581
 2911ntf    nn316653   4.653   6.235   5.973  0.3258  0.3056  0.3049
 2911ntf    sn216654   4.536   6.162   5.898  0.2143  0.2424  0.5389
 2911ntf    cn116655   4.621   6.055   5.778 -0.7048 -0.2235  0.2981
 2911ntf    fn416656   4.729   6.330   6.322 -0.3719 -0.4077 -0.2809
 2911ntf    fn416657   4.688   6.448   6.156 -0.4980 -0.1602  0.5205
 2911ntf    fn416658   4.535   6.340   6.241  0.1095 -0.7999  1.0732
 2911ntf    on516659   4.862   6.199   6.096  0.3803  0.2667 -0.4626
 2911ntf    on516660   4.675   6.065   6.167 -0.2598 -0.2188  0.1261
 2911ntf    on516661   4.472   6.260   5.813 -0.1001 -0.6443 -0.2618
 2911ntf    on516662   4.454   6.077   5.980  0.6374 -0.1455  0.5651
 2911ntf    fn416663   4.676   6.121   5.678 -0.3625 -0.2878  0.4422
 2911ntf    fn416664   4.714   5.986   5.843 -0.5427 -0.4779 -0.2048
 2911ntf    fn416665   4.534   5.971   5.724 -0.3033 -0.4739  0.0328
 2912ntf    cn116666   6.366   0.705   0.919 -0.0223 -0.4080 -0.1083
 2912ntf    sn216667   6.313   0.809   0.780  0.0758  0.1831  0.2944
 2912ntf    nn316668   6.297   0.722   0.650  0.1051  0.4739  0.0948
 2912ntf    sn216669   6.391   0.708   0.525 -0.3639  0.0530 -0.2120
 2912ntf    cn116670   6.333   0.544   0.472  0.0403 -0.1067 -0.1615
 2912ntf    fn416671   6.494   0.672   0.910  0.2704  0.6544  0.0832
 2912ntf    fn416672   6.343   0.763   1.035  0.1049 -0.3747 -0.0998
 2912ntf    fn416673   6.292   0.595   0.924 -0.5104 -0.0656  0.2904
 2912ntf    on516674   6.185   0.867   0.812 -0.2556 -0.3745 -0.0054
 2912ntf    on516675   6.421   0.904   0.769 -0.0010  0.2294 -0.0749
 2912ntf    on516676   6.531   0.687   0.551 -0.2478  0.5211 -0.4495
 2912ntf    on516677   6.357   0.798   0.417 -0.2612 -0.3387 -0.5736
 2912ntf    fn416678   6.330   0.451   0.566  0.0915  0.2512  0.1956
 2912ntf    fn416679   6.209   0.554   0.426 -0.0132 -0.2514 -0.0469
 2912ntf    fn416680   6.398   0.497   0.366  0.1423  0.1367 -0.2090
 2913ntf    cn116681   2.753   2.421   6.849 -0.0611  0.0889 -0.1548
 2913ntf    sn216682   2.888   2.442   6.968 -0.3523  0.2386  0.1511
 2913ntf    nn316683   3.017   2.452   6.879 -0.2319  0.4517  0.3505
 2913ntf    sn216684   3.101   2.572   6.820 -0.0098  0.2566  0.2684
 2913ntf    cn116685   3.264   2.494   6.802 -0.3535 -0.3525 -0.2724
 2913ntf    fn416686   2.635   2.406   6.907 -0.1574  0.0694 -0.3539
 2913ntf    fn416687   2.752   2.522   6.763  0.6808  0.3999  0.2004
 2913ntf    fn416688   2.790   2.314   6.780  0.0174  0.0613 -0.0700
 2913ntf    on516689   2.839   2.558   7.038 -0.0288 -0.0020  0.7867
 2913ntf    on516690   2.896   2.318   7.042  0.4026  0.1747 -0.0264
 2913ntf    on516691   3.124   2.679   6.913 -0.6982  0.1364  0.5895
 2913ntf    on516692   3.058   2.614   6.689 -0.1250 -0.3669  0.1025
 2913ntf    fn416693   3.252   2.390   6.721 -0.4479 -0.1767 -0.4856
 2913ntf    fn416694   3.354   2.572   6.745  0.4120 -0.5861  0.5860
 2913ntf    fn416695   3.312   2.440   6.913  0.4857 -0.2055 -0.5543
 2914ntf    cn116696   5.452   0.080   1.422  0.1380  0.2086  0.1201
 2914ntf    sn216697   5.502  -0.053   1.535  0.3148  0.1196 -0.0619
 2914ntf    nn316698   5.576   0.029   1.646 -0.4217 -0.2392  0.7103
 2914ntf    sn216699   5.719   0.022   1.711 -0.1399  0.2664  0.1533
 2914ntf    cn116700   5.767   0.198   1.717  0.7398  0.0386 -0.1363
 2914ntf    fn416701   5.382   0.175   1.481 -0.3868  0.5875 -1.0692
 2914ntf    fn416702   5.566   0.131   1.379  0.3946  0.0179  0.5724
 2914ntf    fn416703   5.380   0.042   1.317 -0.1248 -0.0418  0.3904
 2914ntf    on516704   5.378  -0.118   1.573  0.0186  0.8823  0.2915
 2914ntf    on516705   5.588  -0.132   1.450  0.0134 -0.4527  0.1527
 2914ntf    on516706   5.821  -0.042   1.632  0.2557  0.5888  0.3992
 2914ntf    on516707   5.700  -0.020   1.847 -0.1328 -0.4147 -0.0525
 2914ntf    fn416708   5.890   0.222   1.761  0.7695  0.0299 -0.2142
 2914ntf    fn416709   5.754   0.260   1.602 -0.7356 -0.2002 -0.1145
 2914ntf    fn416710   5.685   0.259   1.801  0.8124 -0.0232 -0.0199
 2915ntf    cn116711   3.905   5.430   2.076  0.2080  0.4804  0.3126
 2915ntf    sn216712   4.014   5.290   2.038 -0.3017  0.1210  0.1718
 2915ntf    nn316713   3.934   5.239   1.913 -0.2983 -0.2351  0.3137
 2915ntf    sn216714   3.969   5.118   1.818  0.1337 -0.1539  0.3665
 2915ntf    cn116715   3.949   5.213   1.664  0.2420  0.1401  0.5324
 2915ntf    fn416716   3.813   5.459   1.986 -0.3740 -0.5502  0.5552
 2915ntf    fn416717   3.836   5.409   2.187 -0.1180  0.3043  0.0782
 2915ntf    fn416718   3.967   5.546   2.095  0.5500  0.4845 -0.7754
 2915ntf    on516719   4.139   5.355   2.006 -0.1905 -0.3472 -0.3798
 2915ntf    on516720   4.006   5.204   2.153  0.2775  0.6768  0.6335
 2915ntf    on516721   3.862   5.022   1.811  0.2425 -0.2367 -0.1982
 2915ntf    on516722   4.104   5.069   1.821  0.1791 -0.0721 -0.2677
 2915ntf    fn416723   3.976   5.134   1.562  0.5222  0.8128  0.0830
 2915ntf    fn416724   3.827   5.264   1.649  0.4241  0.2496 -0.6011
 2915ntf    fn416725   4.031   5.316   1.654  0.0447  0.2614  0.1434
 2916ntf    cn116726   0.457   3.697   4.521 -0.2343 -0.1043  0.0740
 2916ntf    sn216727   0.324   3.815   4.559 -0.2191 -0.0523 -0.0330
 2916ntf    nn316728   0.297   3.780   4.710 -0.6768 -0.3442 -0.1804
 2916ntf    sn216729   0.277   3.873   4.835  0.4998 -0.4202  0.0710
 2916ntf    cn116730   0.448   3.908   4.885  0.2929  0.5048  0.1480
 2916ntf    fn416731   0.575   3.728   4.571 -0.0105 -0.9477  0.0833
 2916ntf    fn416732   0.432   3.578   4.573 -0.3332 -0.2014 -0.1931
 2916ntf    fn416733   0.481   3.685   4.392 -0.7767 -0.6860  0.0215
 2916ntf    on516734   0.382   3.946   4.543 -0.6672  0.1434 -0.0744
 2916ntf    on516735   0.228   3.760   4.466  0.2263 -0.3778 -0.3049
 2916ntf    on516736   0.223   3.814   4.955 -0.1747 -0.1484 -0.0950
 2916ntf    on516737   0.224   4.002   4.802  0.6296 -0.3323  0.2042
 2916ntf    fn416738   0.523   3.805   4.922 -0.1023  0.2643  0.2818
 2916ntf    fn416739   0.507   3.966   4.782  0.0992  0.0927 -0.1986
 2916ntf    fn416740   0.452   3.990   4.989 -0.5394  0.0421  0.5532
 2917ntf    cn116741   0.915   2.729   6.852 -0.2840 -0.0821  0.0784
 2917ntf    sn216742   0.862   2.903   6.856 -0.0141 -0.0091  0.5385
 2917ntf    nn316743   0.705   2.895   6.851 -0.0291  0.2923  0.5089
 2917ntf    sn216744   0.609   2.937   6.734  0.2804  0.0620  0.1697
 2917ntf    cn116745   0.479   2.811   6.755  0.2733  0.0304 -0.0571
 2917ntf    fn416746   0.904   2.674   6.732  0.4224  0.4856 -0.2595
 2917ntf    fn416747   1.044   2.720   6.881 -0.2774 -0.2883 -0.0113
 2917ntf    fn416748   0.853   2.652   6.939 -0.3059 -0.2676 -0.1018
 2917ntf    on516749   0.902   2.940   6.989  0.1729 -0.3948  0.5890
 2917ntf    on516750   0.922   2.956   6.736 -0.0947 -1.0804  0.0112
 2917ntf    on516751   0.652   2.916   6.598 -0.3806  0.0134 -0.0385
 2917ntf    on516752   0.522   3.048   6.761 -0.5531 -0.3856 -0.6012
 2917ntf    fn416753   0.389   2.837   6.849 -0.5089 -0.2871 -0.7115
 2917ntf    fn416754   0.407   2.782   6.648  0.1428  0.6202 -0.1298
 2917ntf    fn416755   0.531   2.698   6.800 -0.2018 -0.3658 -0.4895
 2918ntf    cn116756   3.196   3.257   6.398  0.8220 -0.3010 -0.1552
 2918ntf    sn216757   3.204   3.360   6.547 -0.1262 -0.1322 -0.2128
 2918ntf    nn316758   3.315   3.269   6.611  0.0629  0.6814  0.6418
 2918ntf    sn216759   3.331   3.235   6.763  0.0091 -0.0942  0.4782
 2918ntf    cn116760   3.294   3.058   6.777  0.2766 -0.1607  0.3588
 2918ntf    fn416761   3.119   3.298   6.298  0.0544  0.3682  0.6908
 2918ntf    fn416762   3.314   3.240   6.340  0.4422 -0.3893 -0.9141
 2918ntf    fn416763   3.160   3.133   6.429 -0.1602  0.0182  0.0198
 2918ntf    on516764   3.255   3.488   6.503 -0.3203 -0.0947 -0.3293
 2918ntf    on516765   3.070   3.343   6.597 -0.1158 -0.1119 -0.1781
 2918ntf    on516766   3.231   3.290   6.851 -0.4065  0.0614 -0.0870
 2918ntf    on516767   3.469   3.240   6.807  0.1551 -0.7720  0.1185
 2918ntf    fn416768   3.375   2.991   6.697  0.4083  0.9106 -0.4317
 2918ntf    fn416769   3.315   3.007   6.897  0.1594  0.6926  0.7496
 2918ntf    fn416770   3.172   3.023   6.741  0.1355  0.9749 -0.3195
 2919ntf    cn116771   2.468   5.972   3.514 -0.2480  0.0656  0.7496
 2919ntf    sn216772   2.349   5.836   3.492 -0.1164  0.0807 -0.0845
 2919ntf    nn316773   2.253   5.880   3.376 -0.1778  0.5781  0.1568
 2919ntf    sn216774   2.123   5.969   3.385 -0.5650  0.0488 -0.1211
 2919ntf    cn116775   1.986   5.854   3.418 -0.3538 -0.2203 -0.1783
 2919ntf    fn416776   2.424   6.084   3.569  0.1696  0.0938  1.0288
 2919ntf    fn416777   2.577   5.952   3.586  0.0010  0.2206  0.4195
 2919ntf    fn416778   2.511   6.005   3.393 -0.6982 -0.7103  0.3686
 2919ntf    on516779   2.433   5.729   3.443  0.4121  0.1884  0.5719
 2919ntf    on516780   2.291   5.820   3.623 -0.0427 -0.4987 -0.1169
 2919ntf    on516781   2.091   6.003   3.249  1.0242 -0.6137 -0.6912
 2919ntf    on516782   2.122   6.068   3.490 -0.5647 -0.2338  0.1467
 2919ntf    fn416783   1.982   5.741   3.350  0.3941 -0.4714  0.1810
 2919ntf    fn416784   1.989   5.817   3.545 -0.1889  0.2397 -0.0461
 2919ntf    fn416785   1.867   5.907   3.393 -0.2965 -0.0646 -0.1259
 2920ntf    cn116786   0.085   3.956   0.812  0.1727 -0.1286  0.2284
 2920ntf    sn216787   0.142   4.127   0.786 -0.0220 -0.1530 -0.3733
 2920ntf    nn316788   0.285   4.106   0.847 -0.0763  0.1504 -0.1393
 2920ntf    sn216789   0.409   4.025   0.794 -0.0013  0.1715  0.0025
 2920ntf    cn116790   0.490   4.171   0.722  0.1527  0.0430 -0.0840
 2920ntf    fn416791   0.162   3.882   0.890  0.1764 -0.3055  0.0559
 2920ntf    fn416792  -0.042   3.961   0.847  0.0300  0.4853 -0.3560
 2920ntf    fn416793   0.071   3.892   0.697 -0.3686  0.4789 -0.0505
 2920ntf    on516794   0.151   4.150   0.644  0.3671  0.0428 -0.3166
 2920ntf    on516795   0.063   4.217   0.867  0.1721  0.2742 -0.6555
 2920ntf    on516796   0.389   3.921   0.696 -0.0248  0.2464 -0.0722
 2920ntf    on516797   0.494   3.993   0.906 -0.2159 -0.5547 -0.0412
 2920ntf    fn416798   0.598   4.130   0.657  0.4229  0.2731  0.2133
 2920ntf    fn416799   0.424   4.234   0.627  0.0948 -0.0253 -0.0885
 2920ntf    fn416800   0.535   4.257   0.813  0.3322 -0.7631  0.6058
 2921ntf    cn116801   4.992   2.229   6.511 -0.2496 -0.3838 -0.3536
 2921ntf    sn216802   5.079   2.303   6.369 -0.3064  0.3006 -0.0368
 2921ntf    nn316803   5.222   2.239   6.389 -0.5349 -0.2885 -0.2524
 2921ntf    sn216804   5.285   2.122   6.305  0.0195 -0.0505 -0.1726
 2921ntf    cn116805   5.424   2.074   6.412  0.2862 -0.1653 -0.5741
 2921ntf    fn416806   4.924   2.119   6.483 -0.3104 -0.3163 -0.4690
 2921ntf    fn416807   5.071   2.193   6.612  0.0904  0.4985 -0.2951
 2921ntf    fn416808   4.912   2.315   6.571 -0.2532 -0.2961 -0.4844
 2921ntf    on516809   5.004   2.250   6.258 -0.1031 -0.1178  0.0228
 2921ntf    on516810   5.075   2.444   6.397  0.3521  0.2298  0.4655
 2921ntf    on516811   5.341   2.160   6.178  0.8944 -0.8226 -0.0272
 2921ntf    on516812   5.213   1.997   6.302  0.4012 -0.2804  0.1830
 2921ntf    fn416813   5.504   1.980   6.362 -0.2887 -0.6406 -0.6103
 2921ntf    fn416814   5.505   2.177   6.429  0.0026  0.0120 -0.2819
 2921ntf    fn416815   5.389   2.032   6.532  0.2487  0.8486 -0.2199
 2922ntf    cn116816   5.188   4.512   4.654  0.0625  0.2546  0.5892
 2922ntf    sn216817   5.281   4.356   4.639 -0.3953  0.0368 -0.0161
 2922ntf    nn316818   5.171   4.245   4.622 -0.0420 -0.2512 -0.4283
 2922ntf    sn216819   5.189   4.101   4.561  0.1680 -0.4100 -0.0005
 2922ntf    cn116820   5.115   4.130   4.398  0.0473  0.5698  0.2194
 2922ntf    fn416821   5.166   4.568   4.537  1.0407  0.0054  0.2765
 2922ntf    fn416822   5.064   4.493   4.695 -0.2479  0.4779 -0.2260
 2922ntf    fn416823   5.263   4.600   4.719  0.3182  0.8317 -0.4756
 2922ntf    on516824   5.377   4.371   4.533 -0.0226  0.6612  0.4040
 2922ntf    on516825   5.336   4.340   4.772 -0.4733  0.0015  0.0117
 2922ntf    on516826   5.092   4.007   4.612 -0.4104  0.0814 -0.1801
 2922ntf    on516827   5.322   4.054   4.529  0.3100 -0.3546  0.4920
 2922ntf    fn416828   5.175   4.226   4.331  0.4262 -0.0302 -0.3169
 2922ntf    fn416829   5.113   4.028   4.313 -0.1099  0.9923 -0.2925
 2922ntf    fn416830   4.987   4.163   4.400 -0.0869  0.0710  0.1124
 2923ntf    cn116831   5.430   2.364   5.822 -0.1789  0.4515 -0.0896
 2923ntf    sn216832   5.330   2.464   5.708  0.1459  0.4364 -0.3904
 2923ntf    nn316833   5.326   2.601   5.785  0.2963  0.3595 -0.2432
 2923ntf    sn216834   5.384   2.742   5.749 -0.0227  0.4604 -0.3704
 2923ntf    cn116835   5.245   2.803   5.649 -0.2670  0.2347 -0.1671
 2923ntf    fn416836   5.525   2.439   5.876 -0.2008  0.7485 -0.4610
 2923ntf    fn416837   5.358   2.306   5.916 -0.0783 -0.3376 -0.4912
 2923ntf    fn416838   5.489   2.268   5.753  0.2737  0.7922 -0.1788
 2923ntf    on516839   5.409   2.466   5.588  0.2136 -0.6556 -0.3710
 2923ntf    on516840   5.210   2.384   5.705  0.3187  0.1270  0.5630
 2923ntf    on516841   5.499   2.754   5.663  0.1909 -0.4370 -0.2117
 2923ntf    on516842   5.392   2.827   5.866  0.3051  0.5638 -0.4663
 2923ntf    fn416843   5.250   2.758   5.525 -0.3604  0.5735 -0.2945
 2923ntf    fn416844   5.122   2.767   5.682 -0.1383 -0.2515 -0.2087
 2923ntf    fn416845   5.243   2.935   5.658  0.0032  0.2558 -0.3930
 2924ntf    cn116846   0.692   4.569   6.053  0.0623  0.0493  0.2056
 2924ntf    sn216847   0.724   4.607   6.227  0.0248 -0.1832  0.2635
 2924ntf    nn316848   0.765   4.759   6.234  0.0619 -0.2016  0.4541
 2924ntf    sn216849   0.664   4.879   6.236 -0.0215 -0.2670  0.1264
 2924ntf    cn116850   0.668   4.921   6.413 -0.0618 -0.0496  0.0756
 2924ntf    fn416851   0.629   4.454   6.041  0.5908 -0.2094 -0.1486
 2924ntf    fn416852   0.617   4.659   5.991 -0.4742 -0.6484 -0.1610
 2924ntf    fn416853   0.808   4.561   5.988  0.2406 -0.1401  0.5435
 2924ntf    on516854   0.600   4.568   6.290 -0.2482 -0.5942 -0.5296
 2924ntf    on516855   0.845   4.532   6.252 -0.0513 -0.3982 -0.0161
 2924ntf    on516856   0.523   4.852   6.216 -0.1486  0.6432 -0.2289
 2924ntf    on516857   0.718   4.993   6.167  0.3338 -0.5341 -0.0439
 2924ntf    fn416858   0.706   4.815   6.481 -0.5205 -0.4481 -0.2781
 2924ntf    fn416859   0.760   5.013   6.435 -0.3824  0.3475 -0.2241
 2924ntf    fn416860   0.559   4.971   6.468  0.0082  0.3245 -0.1244
 2925ntf    cn116861   1.630   0.880   5.045  0.1295 -0.2775  0.6244
 2925ntf    sn216862   1.483   0.896   5.151 -0.2048 -0.1756  0.1522
 2925ntf    nn316863   1.371   0.838   5.058  0.0548  0.2791 -0.4477
 2925ntf    sn216864   1.339   0.684   5.053 -0.1198  0.3088 -0.2268
 2925ntf    cn116865   1.179   0.678   5.139  0.0745  0.1570  0.1231
 2925ntf    fn416866   1.731   0.946   5.099 -0.0796 -0.2300  0.9585
 2925ntf    fn416867   1.667   0.755   5.022 -0.5152 -0.4550  0.5279
 2925ntf    fn416868   1.607   0.928   4.924  0.0202 -0.7294  0.4622
 2925ntf    on516869   1.511   0.828   5.275 -0.2197  0.1346  0.3265
 2925ntf    on516870   1.479   1.039   5.168  0.4422 -0.1253 -0.0702
 2925ntf    on516871   1.423   0.592   5.124 -0.3479 -0.0310 -0.3974
 2925ntf    on516872   1.295   0.645   4.922 -0.1240  0.7536 -0.3611
 2925ntf    fn416873   1.136   0.553   5.146 -1.1946  0.5349 -0.5951
 2925ntf    fn416874   1.181   0.714   5.267 -0.1127  0.6464 -0.0104
 2925ntf    fn416875   1.089   0.754   5.080 -0.5145 -0.4279  0.2585
 2926ntf    cn116876   4.355   1.145   3.010  0.2970 -0.0057 -0.6573
 2926ntf    sn216877   4.486   1.020   3.025  0.1181 -0.1512 -0.3059
 2926ntf    nn316878   4.394   0.893   3.026 -0.1093  0.0129 -0.0577
 2926ntf    sn216879   4.340   0.796   2.914 -0.3308 -0.0300  0.0852
 2926ntf    cn116880   4.161   0.815   2.942 -0.2754  0.4135  0.1606
 2926ntf    fn416881   4.255   1.125   3.094 -0.1038  0.3008 -1.0551
 2926ntf    fn416882   4.398   1.264   3.048 -0.0530 -0.1467  0.1921
 2926ntf    fn416883   4.309   1.154   2.886  0.1884  0.2426 -0.5999
 2926ntf    on516884   4.556   1.032   2.900 -0.1168 -0.5736 -0.4801
 2926ntf    on516885   4.554   1.049   3.149  0.0730 -0.3847 -0.2260
 2926ntf    on516886   4.378   0.662   2.948  0.6056  0.2823  0.2987
 2926ntf    on516887   4.365   0.840   2.779 -0.2892  0.5348  0.2712
 2926ntf    fn416888   4.093   0.716   2.885  0.1346  0.3807 -0.2836
 2926ntf    fn416889   4.128   0.824   3.070  0.3730  0.0946  0.3548
 2926ntf    fn416890   4.120   0.924   2.879 -0.1444  0.2470 -0.2188
 2927ntf    cn116891   2.956   4.443   6.336 -0.2273  0.5213  0.0200
 2927ntf    sn216892   3.034   4.580   6.426  0.4225  0.3028 -0.1992
 2927ntf    nn316893   2.917   4.686   6.423  0.6725  0.5860 -0.0142
 2927ntf    sn216894   2.881   4.783   6.305  0.1738  0.4100 -0.0086
 2927ntf    cn116895   2.931   4.934   6.393  0.0600  0.2399  0.3516
 2927ntf    fn416896   3.039   4.340   6.327 -0.5489  0.2876 -0.2942
 2927ntf    fn416897   2.845   4.403   6.396 -0.2409 -0.0148 -0.3534
 2927ntf    fn416898   2.938   4.477   6.209 -0.4935  0.2560 -0.0118
 2927ntf    on516899   3.049   4.530   6.561  0.2155  0.2071 -0.2115
 2927ntf    on516900   3.147   4.631   6.353  0.3083  0.3676 -0.3324
 2927ntf    on516901   2.739   4.801   6.288  0.1067 -0.1239 -0.0357
 2927ntf    on516902   2.961   4.791   6.185  1.4702 -0.1564  0.7884
 2927ntf    fn416903   3.059   4.935   6.425  0.2917  0.5381 -0.5491
 2927ntf    fn416904   2.904   5.043   6.322 -0.5062  0.3616  0.7437
 2927ntf    fn416905   2.864   4.951   6.506 -0.2861 -0.0738  0.1978
 2928ntf    cn116906   2.293   5.340   2.326  0.0365  0.0884 -0.1210
 2928ntf    sn216907   2.254   5.516   2.304 -0.2389  0.0643  0.1584
 2928ntf    nn316908   2.111   5.512   2.241  0.0346 -0.8714 -0.4240
 2928ntf    sn216909   2.054   5.590   2.117 -0.0615 -0.1842  0.0471
 2928ntf    cn116910   2.117   5.473   1.993  0.1396  0.0999 -0.1205
 2928ntf    fn416911   2.288   5.279   2.209  0.8823 -0.1240 -0.0552
 2928ntf    fn416912   2.408   5.313   2.386 -0.5164 -0.2267  0.8295
 2928ntf    fn416913   2.199   5.283   2.399  0.1403  0.6318  0.4423
 2928ntf    on516914   2.249   5.564   2.439 -0.6275 -0.0613  0.1893
 2928ntf    on516915   2.359   5.559   2.214 -0.6275  0.2250 -0.2190
 2928ntf    on516916   2.125   5.713   2.091 -0.0638 -0.2435 -0.2415
 2928ntf    on516917   1.911   5.590   2.094  0.0045 -0.3600 -0.3849
 2928ntf    fn416918   2.249   5.475   1.997  0.1443  0.1002 -0.2810
 2928ntf    fn416919   2.059   5.356   2.013 -0.0415  0.1464 -0.3643
 2928ntf    fn416920   2.085   5.501   1.867  0.4672 -0.3648 -0.3088
 2929ntf    cn116921   3.424   1.593   4.303  0.0881 -0.3087  0.0540
 2929ntf    sn216922   3.297   1.481   4.236 -0.3499  0.0379  0.2911
 2929ntf    nn316923   3.232   1.450   4.376  0.0509  0.3246  0.5440
 2929ntf    sn216924   3.081   1.414   4.400  0.0887 -0.0012  0.3078
 2929ntf    cn116925   3.009   1.577   4.438  0.1448  0.1645 -0.2839
 2929ntf    fn416926   3.535   1.591   4.231  0.7034  0.4416  0.9574
 2929ntf    fn416927   3.385   1.720   4.304 -0.1125 -0.3576 -0.6974
 2929ntf    fn416928   3.472   1.559   4.421  0.4061  0.0413  0.0296
 2929ntf    on516929   3.218   1.562   4.147 -0.0279  0.1535  0.1086
 2929ntf    on516930   3.378   1.373   4.185 -0.1029  0.4289 -0.1499
 2929ntf    on516931   3.064   1.340   4.523 -0.2582 -0.2061  0.1357
 2929ntf    on516932   3.004   1.366   4.289 -0.1230  0.4508  0.2559
 2929ntf    fn416933   2.953   1.639   4.335  0.0088  0.5873  0.0417
 2929ntf    fn416934   2.928   1.576   4.543  0.3004 -0.0028 -0.1646
 2929ntf    fn416935   3.108   1.655   4.477 -0.2694  0.2894  0.5511
 2930ntf    cn116936   3.481   6.726   2.566 -0.2152 -0.2918 -0.2875
 2930ntf    sn216937   3.475   6.544   2.572  0.0450 -0.3006 -0.3063
 2930ntf    nn316938   3.602   6.512   2.659  0.1102  0.6469 -0.0431
 2930ntf    sn216939   3.704   6.393   2.661 -0.5317  0.0873 -0.1885
 2930ntf    cn116940   3.715   6.374   2.841  0.0548 -0.5843 -0.2920
 2930ntf    fn416941   3.449   6.785   2.680 -0.0229 -0.0071 -0.3796
 2930ntf    fn416942   3.603   6.771   2.542 -0.1986 -0.2972 -0.2123
 2930ntf    fn416943   3.393   6.774   2.479 -0.4189 -0.9427 -0.4493
 2930ntf    on516944   3.353   6.537   2.648  0.0017  0.0400 -0.3402
 2930ntf    on516945   3.477   6.503   2.433  0.6557 -0.1843 -0.3373
 2930ntf    on516946   3.839   6.434   2.632 -0.3460 -0.3677  0.0263
 2930ntf    on516947   3.649   6.271   2.607 -0.3810 -0.2656  0.4413
 2930ntf    fn416948   3.805   6.284   2.878  0.1685 -0.4787 -0.3134
 2930ntf    fn416949   3.743   6.488   2.901 -0.4234 -0.1470 -0.8962
 2930ntf    fn416950   3.599   6.342   2.896  0.0247 -0.5324 -0.3254
 2931ntf    cn116951   4.727   7.016   1.692 -0.2423  0.1227 -0.0666
 2931ntf    sn216952   4.853   7.147   1.710  0.0912 -0.2625  0.4337
 2931ntf    nn316953   4.830   7.233   1.580  0.0275 -0.2292  0.4664
 2931ntf    sn216954   4.909   7.208   1.447 -0.1825  0.2034  0.2612
 2931ntf    cn116955   5.069   7.288   1.478 -0.0693  0.0029  0.1997
 2931ntf    fn416956   4.737   6.938   1.586  0.6836  0.1098  0.0205
 2931ntf    fn416957   4.723   6.929   1.791  0.0947  0.1123 -0.0606
 2931ntf    fn416958   4.608   7.073   1.692 -0.3007 -0.0019 -0.0153
 2931ntf    on516959   4.819   7.216   1.832 -0.4038  0.4991 -0.1176
 2931ntf    on516960   4.972   7.068   1.729  0.3362  0.1120  0.4637
 2931ntf    on516961   4.858   7.285   1.336  0.2733 -0.0864 -0.1513
 2931ntf    on516962   4.943   7.071   1.420 -0.1422  0.1294  0.6876
 2931ntf    fn416963   5.152   7.262   1.379 -0.3007 -0.0540  0.0212
 2931ntf    fn416964   5.059   7.419   1.497 -0.0834  0.0590 -0.2001
 2931ntf    fn416965   5.127   7.244   1.588 -0.2821  0.1980  0.3938
 2932ntf    cn116966   5.255   6.325   5.394  0.6056 -0.2694  0.1368
 2932ntf    sn216967   5.309   6.157   5.441 -0.0438 -0.4397  0.2768
 2932ntf    nn316968   5.166   6.116   5.491 -0.3845  0.0348 -0.2901
 2932ntf    sn216969   5.066   6.011   5.430 -0.0519 -0.2472 -0.3495
 2932ntf    cn116970   5.047   5.881   5.555 -0.3070  0.1350  0.0124
 2932ntf    fn416971   5.359   6.393   5.349  0.5602 -0.1336  0.2392
 2932ntf    fn416972   5.170   6.324   5.293  0.0647 -0.0385  0.5862
 2932ntf    fn416973   5.203   6.382   5.501  0.2042 -0.4255  0.0257
 2932ntf    on516974   5.369   6.092   5.327 -0.0774  0.5792 -0.3363
 2932ntf    on516975   5.390   6.171   5.559 -0.2110  0.4780  0.2881
 2932ntf    on516976   5.118   5.939   5.316  0.0951  0.2209 -0.5837
 2932ntf    on516977   4.932   6.061   5.419 -0.0580 -0.0979  0.3480
 2932ntf    fn416978   5.119   5.771   5.536 -0.1828  0.2398 -0.1233
 2932ntf    fn416979   5.084   5.928   5.673 -0.0324 -0.3427  0.1192
 2932ntf    fn416980   4.922   5.843   5.571 -0.4391  0.6399  0.1817
 2933ntf    cn116981   0.052   1.284   3.791  0.3240 -0.5089 -0.0934
 2933ntf    sn216982   0.025   1.127   3.879  0.1395 -0.2382  0.3381
 2933ntf    nn316983   0.053   1.159   4.030 -0.0565  0.2439  0.2751
 2933ntf    sn216984  -0.037   1.149   4.158 -0.4176 -0.0871 -0.0014
 2933ntf    cn116985   0.061   1.036   4.261 -0.2224  0.2500  0.1861
 2933ntf    fn416986  -0.046   1.370   3.812  0.7250 -0.1308  0.2663
 2933ntf    fn416987   0.171   1.332   3.822  0.1203  0.2984 -0.5622
 2933ntf    fn416988   0.060   1.266   3.660  0.2766  0.6288 -0.2553
 2933ntf    on516989  -0.113   1.103   3.845 -0.0199  0.4022  0.5342
 2933ntf    on516990   0.120   1.042   3.811  0.3590  0.4778 -0.2586
 2933ntf    on516991  -0.169   1.092   4.152 -0.5856  0.1880  0.9812
 2933ntf    on516992  -0.024   1.275   4.228  0.5765 -0.2807  0.1809
 2933ntf    fn416993   0.179   1.088   4.291 -0.0205  0.2522 -0.5660
 2933ntf    fn416994   0.003   1.025   4.379  0.0673  0.4747  0.3500
 2933ntf    fn416995   0.086   0.915   4.214 -0.1589  0.4642 -0.3488
 2934ntf    cn116996   6.351   5.904   4.938  0.0274 -0.0539  0.2392
 2934ntf    sn216997   6.285   5.790   5.063 -0.0325  0.0594  0.3123
 2934ntf    nn316998   6.164   5.735   4.979  0.2194 -0.0996  0.0523
 2934ntf    sn216999   6.023   5.799   4.953  0.2348 -0.0816  0.0117
 2934ntf    cn117000   5.914   5.676   5.030 -0.1348  0.0051 -0.3689
 2934ntf    fn417001   6.286   6.018   4.919 -0.1948 -0.1691  0.2927
 2934ntf    fn417002   6.471   5.938   4.982  0.1355  0.1329 -0.1910
 2934ntf    fn417003   6.363   5.842   4.822  0.0267  0.5586 -0.0962
 2934ntf    on517004   6.381   5.682   5.070  0.1825  0.2737  0.7356
 2934ntf    on517005   6.255   5.863   5.184  0.4907  0.0553  0.4482
 2934ntf    on517006   5.985   5.792   4.814  0.2078  0.0157  0.0144
 2934ntf    on517007   5.986   5.920   5.023 -0.2436 -0.4011  0.3197
 2934ntf    fn417008   5.901   5.568   4.954 -0.3236 -0.0733 -0.2276
 2934ntf    fn417009   5.973   5.634   5.141 -0.3399  0.9666  0.1147
 2934ntf    fn417010   5.792   5.718   5.059 -0.0042 -0.1317  0.4032
 2935ntf    cn117011   3.247   2.292   4.209  0.1864 -0.2062  0.2726
 2935ntf    sn217012   3.317   2.380   4.352 -0.1468 -0.4379  0.5845
 2935ntf    nn317013   3.223   2.331   4.467 -0.3742  0.1276  0.6405
 2935ntf    sn217014   3.270   2.280   4.608  0.3648 -0.1212  0.3075
 2935ntf    cn117015   3.133   2.330   4.716  0.0109  0.2934 -0.3237
 2935ntf    fn417016   3.329   2.198   4.166 -0.0705  0.0700 -0.8354
 2935ntf    fn417017   3.135   2.226   4.234  0.0031 -0.1100 -0.2823
 2935ntf    fn417018   3.235   2.372   4.105  0.1252 -0.0964  0.3645
 2935ntf    on517019   3.456   2.343   4.361 -0.2760 -0.9521  0.4903
 2935ntf    on517020   3.290   2.516   4.312 -0.1551 -0.6811 -0.2695
 2935ntf    on517021   3.391   2.339   4.659  0.4040  0.0080  0.0703
 2935ntf    on517022   3.258   2.137   4.606  0.4428 -0.1218 -0.3031
 2935ntf    fn417023   3.175   2.366   4.836  0.4116  0.5548 -0.5412
 2935ntf    fn417024   3.067   2.437   4.674 -0.0211  0.5379  0.3370
 2935ntf    fn417025   3.050   2.228   4.732  0.5074 -0.0534  0.0747
 2936ntf    cn117026   5.857   1.879   4.169 -0.0436  0.1511 -0.2668
 2936ntf    sn217027   6.030   1.906   4.120  0.0288  0.4336  0.1306
 2936ntf    nn317028   6.077   1.756   4.105 -0.7125  0.1551  0.5537
 2936ntf    sn217029   6.128   1.653   4.212 -0.2303  0.0028  0.1785
 2936ntf    cn117030   6.306   1.663   4.173 -0.3111 -0.2076 -0.2477
 2936ntf    fn417031   5.785   1.846   4.064  0.1394  0.4860 -0.4966
 2936ntf    fn417032   5.835   1.779   4.253 -1.2215  0.2166 -0.4909
 2936ntf    fn417033   5.803   1.989   4.219 -0.5430 -0.0341 -0.3950
 2936ntf    on517034   6.015   1.969   3.991 -0.8230  0.3646  0.1931
 2936ntf    on517035   6.096   1.982   4.223 -0.2892  0.5535  0.2485
 2936ntf    on517036   6.082   1.520   4.183 -0.2125  0.0644 -0.1323
 2936ntf    on517037   6.111   1.704   4.346 -0.4664 -0.1495  0.2065
 2936ntf    fn417038   6.366   1.579   4.256  0.2217 -0.4604 -0.8827
 2936ntf    fn417039   6.325   1.618   4.051  0.4708  0.1959 -0.2778
 2936ntf    fn417040   6.363   1.782   4.184  0.9584 -0.8385  0.1449
 2937ntf    cn117041   6.354   1.709   0.015 -0.0377  0.1559 -0.0327
 2937ntf    sn217042   6.271   1.576  -0.078  0.0487 -0.1229  0.2868
 2937ntf    nn317043   6.276   1.451   0.016 -0.2041 -0.4031 -0.0727
 2937ntf    sn217044   6.370   1.326   0.002  0.3253 -0.0739  0.4787
 2937ntf    cn117045   6.243   1.203  -0.041  0.3659  0.0875 -0.1122
 2937ntf    fn417046   6.321   1.834  -0.014  0.0804  0.0616 -0.5785
 2937ntf    fn417047   6.321   1.696   0.143 -0.3647  0.5287 -0.0755
 2937ntf    fn417048   6.485   1.696   0.010 -0.1138 -0.5831 -0.2107
 2937ntf    on517049   6.136   1.624  -0.092  0.1411  0.1315  0.2615
 2937ntf    on517050   6.339   1.562  -0.204 -0.3962  0.4595 -0.0242
 2937ntf    on517051   6.419   1.285   0.131  0.8200 -0.1778  0.2604
 2937ntf    on517052   6.477   1.330  -0.094  0.2729  0.1090  0.4286
 2937ntf    fn417053   6.135   1.254  -0.098 -0.2423 -0.9569  0.0693
 2937ntf    fn417054   6.298   1.119  -0.128 -0.4298  0.0007 -0.5403
 2937ntf    fn417055   6.193   1.137   0.062 -0.1746  0.3590 -0.1966
 2938ntf    cn117056   4.824   4.066   6.344  0.6928  0.0363  0.0770
 2938ntf    sn217057   4.892   3.932   6.242  0.4310 -0.0078 -0.0379
 2938ntf    nn317058   4.950   4.024   6.129  0.1137  0.3533  0.0920
 2938ntf    sn217059   4.905   4.046   5.980  0.0208 -0.2388  0.0318
 2938ntf    cn117060   5.010   4.184   5.925 -0.3288  0.0467  0.0781
 2938ntf    fn417061   4.925   4.131   6.401  0.4905  0.2231  0.2279
 2938ntf    fn417062   4.765   4.168   6.284 -0.6240 -0.7691 -0.0159
 2938ntf    fn417063   4.751   4.023   6.446  0.9653 -0.7184 -0.0398
 2938ntf    on517064   4.998   3.881   6.326  0.2610 -0.0384  0.1585
 2938ntf    on517065   4.782   3.842   6.216  0.4903  0.0603 -0.5246
 2938ntf    on517066   4.781   4.117   5.962 -0.1901 -0.5368  0.2982
 2938ntf    on517067   4.932   3.938   5.888  0.2539 -0.0704 -0.0988
 2938ntf    fn417068   5.010   4.184   5.793 -0.0140  0.0240  0.0787
 2938ntf    fn417069   4.969   4.300   5.974 -0.0696  0.1540  0.0407
 2938ntf    fn417070   5.136   4.172   5.962 -0.1797 -0.0656 -0.4516
 2939ntf    cn117071   1.097   0.167   4.550 -0.6806 -0.3107  0.1103
 2939ntf    sn217072   1.237   0.124   4.442 -0.4247  0.3573  0.1717
 2939ntf    nn317073   1.182   0.164   4.301 -0.0590  0.0318 -0.0641
 2939ntf    sn217074   1.115   0.081   4.186  0.1277 -0.0214 -0.1358
 2939ntf    cn117075   1.185   0.162   4.039 -0.0157  0.1163 -0.1290
 2939ntf    fn417076   1.096   0.295   4.583  0.6077 -0.2245 -0.1311
 2939ntf    fn417077   0.978   0.146   4.497 -0.5711  0.0924 -0.3078
 2939ntf    fn417078   1.096   0.110   4.669 -0.0292 -0.2732  0.1383
 2939ntf    on517079   1.340   0.214   4.489  0.4833 -0.6450  0.1499
 2939ntf    on517080   1.258  -0.018   4.454  0.5913  0.4660 -0.2531
 2939ntf    on517081   0.972   0.098   4.176  0.2113  0.4328 -0.5800
 2939ntf    on517082   1.167  -0.051   4.161  0.0509 -0.0287 -0.2592
 2939ntf    fn417083   1.317   0.162   4.033 -0.0255 -0.0453 -0.3619
 2939ntf    fn417084   1.135   0.111   3.927 -0.5110  0.3627 -0.0227
 2939ntf    fn417085   1.152   0.290   4.041 -0.4690 -0.0053  0.3637
 2940ntf    cn117086   2.084   4.094   3.530 -0.5721 -0.3984  0.2050
 2940ntf    sn217087   2.071   4.268   3.580  0.3412 -0.1393 -0.4181
 2940ntf    nn317088   2.108   4.266   3.733 -0.1156 -0.2858 -0.3066
 2940ntf    sn217089   2.011   4.276   3.856  0.2938 -0.2846  0.0186
 2940ntf    cn117090   2.129   4.329   3.983  0.3094 -0.2880  0.0058
 2940ntf    fn417091   2.197   4.033   3.564 -0.2707  0.0235 -0.0296
 2940ntf    fn417092   1.986   4.023   3.584 -0.5276 -0.5862  0.0399
 2940ntf    fn417093   2.079   4.087   3.398  0.6297 -0.2259  0.1368
 2940ntf    on517094   2.175   4.338   3.508 -0.0796  0.6204 -0.3063
 2940ntf    on517095   1.934   4.296   3.544  0.2760 -0.1340 -0.1662
 2940ntf    on517096   1.953   4.152   3.901 -0.1365  0.0169  0.2980
 2940ntf    on517097   1.920   4.388   3.862  0.5519 -0.0462 -0.4769
 2940ntf    fn417098   2.217   4.421   3.950 -0.0029  0.0090 -0.0121
 2940ntf    fn417099   2.071   4.375   4.093  0.1770  0.5520 -0.4054
 2940ntf    fn417100   2.210   4.234   4.024  0.3666 -0.5226 -0.6575
 2941ntf    cn117101   4.060   5.772   3.654  0.3980  0.2013  0.1331
 2941ntf    sn217102   4.190   5.651   3.692  0.3309  0.1036  0.0487
 2941ntf    nn317103   4.320   5.710   3.627  0.3345 -0.0941 -0.1239
 2941ntf    sn217104   4.454   5.631   3.601  0.1846 -0.3900  0.0056
 2941ntf    cn117105   4.513   5.626   3.773 -0.0211  0.5864  0.1134
 2941ntf    fn417106   4.039   5.780   3.524  0.0783 -0.5924  0.1332
 2941ntf    fn417107   3.946   5.743   3.714  0.4194 -0.0945  0.0278
 2941ntf    fn417108   4.099   5.894   3.688  0.6028  0.1832 -0.0322
 2941ntf    on517109   4.191   5.652   3.836 -0.2774  0.1183  0.0533
 2941ntf    on517110   4.138   5.534   3.625  0.1141  0.1312  0.1676
 2941ntf    on517111   4.546   5.711   3.524 -0.0731 -0.2517 -0.1602
 2941ntf    on517112   4.431   5.493   3.568 -0.5425 -0.2994  0.1077
 2941ntf    fn417113   4.640   5.588   3.775 -0.2316 -0.1486  0.0085
 2941ntf    fn417114   4.502   5.736   3.845 -0.0682  0.6571 -0.0005
 2941ntf    fn417115   4.451   5.532   3.842  0.6529  0.2852  0.3224
 2942ntf    cn117116   7.069   3.764   2.975 -0.1138  0.3554  0.2276
 2942ntf    sn217117   6.916   3.699   3.048 -0.0819 -0.1700 -0.1717
 2942ntf    nn317118   6.857   3.616   2.928  0.5198 -0.9264  0.0460
 2942ntf    sn217119   6.728   3.526   2.919  0.1847 -0.4485  0.0245
 2942ntf    cn117120   6.813   3.369   2.884  0.3819 -0.3329 -0.0210
 2942ntf    fn417121   7.152   3.673   2.928 -0.8542  0.0208 -0.4583
 2942ntf    fn417122   7.044   3.847   2.875 -0.0769  0.1427  0.0422
 2942ntf    fn417123   7.133   3.840   3.062  0.0909  0.1597  0.2488
 2942ntf    on517124   6.967   3.610   3.150  0.0587  0.4227  0.2767
 2942ntf    on517125   6.845   3.818   3.085  0.2156  0.1295 -0.5547
 2942ntf    on517126   6.647   3.554   2.803  0.1030 -0.1286  0.1566
 2942ntf    on517127   6.657   3.514   3.044  0.1065 -0.6265 -0.0361
 2942ntf    fn417128   6.902   3.336   2.976  0.2966  0.2238  0.2605
 2942ntf    fn417129   6.729   3.267   2.872 -0.1937  0.1048  0.2092
 2942ntf    fn417130   6.888   3.364   2.775  1.1536 -0.3781  0.5074
 2943ntf    cn117131   2.751   0.537   7.073 -0.0489 -0.1042  0.1135
 2943ntf    sn217132   2.850   0.667   7.153 -0.0858 -0.1029  0.1564
 2943ntf    nn317133   2.759   0.789   7.115  0.3661  0.2503  0.2032
 2943ntf    sn217134   2.772   0.872   6.982  0.2409 -0.1067 -0.0330
 2943ntf    cn117135   2.886   1.005   7.032 -0.7301  0.7179  0.0098
 2943ntf    fn417136   2.759   0.529   6.941 -0.4119  0.7304  0.0363
 2943ntf    fn417137   2.800   0.419   7.107  0.1575  0.0211  0.2538
 2943ntf    fn417138   2.621   0.535   7.098 -0.0926  0.5428 -0.0503
 2943ntf    on517139   2.825   0.634   7.291 -0.2564 -0.4465  0.0453
 2943ntf    on517140   2.983   0.645   7.102 -0.0120  0.0684  0.2724
 2943ntf    on517141   2.655   0.947   6.947  0.4129  0.1776 -0.0010
 2943ntf    on517142   2.836   0.795   6.878 -0.3904 -0.2253 -0.3353
 2943ntf    fn417143   2.912   1.085   6.930  0.3412  0.3026 -0.0570
 2943ntf    fn417144   2.834   1.085   7.124 -1.0589  0.4756  0.0389
 2943ntf    fn417145   3.002   0.955   7.073 -1.0352 -0.5424 -0.6042
 2944ntf    cn117146   0.949   4.050   0.732  0.0080 -0.1732 -0.0524
 2944ntf    sn217147   1.072   3.994   0.610 -0.3475  0.1233 -0.5504
 2944ntf    nn317148   0.984   4.006   0.480 -0.8837 -0.4339 -0.2468
 2944ntf    sn217149   1.022   3.949   0.339 -0.3398 -0.2637 -0.1700
 2944ntf    cn117150   1.026   4.104   0.243 -0.2047  0.3065  0.7427
 2944ntf    fn417151   0.845   3.969   0.739 -0.2095  0.0373 -0.7154
 2944ntf    fn417152   1.000   4.063   0.853  0.4789  0.0630 -0.2727
 2944ntf    fn417153   0.906   4.170   0.697  0.1172  0.0750  0.6609
 2944ntf    on517154   1.167   4.101   0.627  0.0254 -0.3298  0.2631
 2944ntf    on517155   1.113   3.860   0.643 -0.0343  0.1931 -0.6562
 2944ntf    on517156   0.919   3.872   0.274 -0.7956 -0.0746  0.3218
 2944ntf    on517157   1.158   3.906   0.319 -0.2072  0.3767 -0.7248
 2944ntf    fn417158   0.938   4.195   0.280 -0.3433  0.3273  0.3608
 2944ntf    fn417159   1.141   4.167   0.264  0.1025  0.2911 -0.7968
 2944ntf    fn417160   1.031   4.088   0.112  0.2321 -0.0358  0.7978
 2945ntf    cn117161   4.142   3.337   6.125 -0.0967  0.3514 -0.0834
 2945ntf    sn217162   4.053   3.367   5.969  0.0013 -0.1386 -0.2329
 2945ntf    nn317163   3.956   3.475   6.028 -0.0603 -0.0377 -0.5194
 2945ntf    sn217164   3.925   3.619   5.974 -0.0281  0.1395 -0.0668
 2945ntf    cn117165   3.757   3.631   6.044  0.2008 -0.2755  0.5631
 2945ntf    fn417166   4.056   3.317   6.223 -0.1937  0.4216 -0.1537
 2945ntf    fn417167   4.220   3.231   6.131 -0.0687  0.3665 -0.1825
 2945ntf    fn417168   4.223   3.436   6.161  0.4899 -0.2589  0.3079
 2945ntf    on517169   4.160   3.392   5.875 -0.0625  0.6401 -0.1047
 2945ntf    on517170   3.977   3.246   5.948 -0.1073 -0.3051  1.0115
 2945ntf    on517171   3.904   3.628   5.832  0.7307  0.5778 -0.1558
 2945ntf    on517172   4.010   3.720   6.031  0.3998 -0.1320 -0.2202
 2945ntf    fn417173   3.683   3.530   6.003  0.4957 -0.2790  0.0261
 2945ntf    fn417174   3.749   3.635   6.176  0.4438 -0.1693  0.5752
 2945ntf    fn417175   3.695   3.744   6.012 -0.0971 -0.5580  0.1454
 2946ntf    cn117176   0.888   2.439   6.378 -0.1723 -0.0148  0.2363
 2946ntf    sn217177   0.992   2.491   6.239 -0.0009 -0.4832  0.1865
 2946ntf    nn317178   1.024   2.355   6.167 -0.2053 -0.5625  0.2458
 2946ntf    sn217179   1.157   2.272   6.166 -0.0429 -0.2991  0.0334
 2946ntf    cn117180   1.142   2.183   6.008 -0.0626 -0.1067 -0.0732
 2946ntf    fn417181   0.761   2.404   6.362 -0.1883  0.1368  0.0386
 2946ntf    fn417182   0.953   2.346   6.447  0.8845 -0.0762 -0.8073
 2946ntf    fn417183   0.886   2.547   6.454 -0.0522 -0.1656  0.4571
 2946ntf    on517184   0.895   2.570   6.168 -0.4059 -0.4031  0.8244
 2946ntf    on517185   1.108   2.557   6.295 -0.3147  0.2079  0.0308
 2946ntf    on517186   1.160   2.167   6.264  0.1737 -0.1525  0.1858
 2946ntf    on517187   1.282   2.343   6.149  0.2125 -0.7683 -0.0731
 2946ntf    fn417188   1.253   2.113   5.992 -0.0453 -0.0570 -0.1725
 2946ntf    fn417189   1.037   2.103   6.005  0.0025 -0.1788 -0.4873
 2946ntf    fn417190   1.133   2.259   5.900  0.2826  0.8151  0.5300
 2947ntf    cn117191   5.477   0.364   2.822  0.4447  0.0844 -0.2047
 2947ntf    sn217192   5.413   0.196   2.793  0.1370  0.2183 -0.3081
 2947ntf    nn317193   5.384   0.154   2.941  0.4319  0.1489 -0.2704
 2947ntf    sn217194   5.367   0.015   3.012  0.1914  0.1743 -0.2784
 2947ntf    cn117195   5.186   0.019   3.028  0.1337 -0.4214 -0.7114
 2947ntf    fn417196   5.494   0.437   2.713  0.1182  0.4513 -0.0172
 2947ntf    fn417197   5.403   0.437   2.905  0.0353 -0.3977 -0.1352
 2947ntf    fn417198   5.598   0.359   2.876  0.4559  0.5093 -0.1852
 2947ntf    on517199   5.297   0.205   2.708  0.0402 -0.1165 -0.2110
 2947ntf    on517200   5.533   0.133   2.745  0.0451  0.1132 -0.4016
 2947ntf    on517201   5.409   0.012   3.150 -0.3823 -0.2716 -0.1054
 2947ntf    on517202   5.398  -0.100   2.930 -0.0990 -0.0964 -0.0082
 2947ntf    fn417203   5.142   0.127   3.090  0.5133 -0.5320 -0.2417
 2947ntf    fn417204   5.119   0.007   2.915 -0.8191  0.1978 -0.2266
 2947ntf    fn417205   5.149  -0.081   3.107 -0.3319 -0.1413 -0.5692
 2948ntf    cn117206   5.905   6.404   3.202  0.2463 -0.1033 -0.0923
 2948ntf    sn217207   5.868   6.503   3.350 -0.1044 -0.4457  0.0504
 2948ntf    nn317208   6.003   6.488   3.429  0.0186  0.0917 -0.0577
 2948ntf    sn217209   6.084   6.607   3.493  0.1732 -0.1007  0.1030
 2948ntf    cn117210   6.001   6.614   3.655 -0.2446 -0.2247 -0.1029
 2948ntf    fn417211   6.015   6.448   3.144 -0.0259  0.0307 -0.5130
 2948ntf    fn417212   5.917   6.276   3.232 -0.4960 -0.1245  0.1454
 2948ntf    fn417213   5.806   6.407   3.114 -0.1998 -0.4221  0.3978
 2948ntf    on517214   5.845   6.635   3.296  0.4716 -0.5060 -0.3599
 2948ntf    on517215   5.757   6.435   3.413 -0.3969 -0.2144 -0.2159
 2948ntf    on517216   6.071   6.737   3.434  0.3915 -0.1664 -0.0901
 2948ntf    on517217   6.216   6.570   3.539  0.4387  0.2824 -0.3544
 2948ntf    fn417218   5.881   6.668   3.652 -0.3534 -0.4236  0.5088
 2948ntf    fn417219   5.985   6.493   3.708 -0.2772 -0.1045  0.1633
 2948ntf    fn417220   6.069   6.696   3.734 -0.0759 -0.7146  0.2690
 2949ntf    cn117221   0.602   1.840   3.817  0.0260  0.0468  0.2527
 2949ntf    sn217222   0.586   1.673   3.748  0.4851  0.1230 -0.0432
 2949ntf    nn317223   0.505   1.685   3.614 -0.1858 -0.1644  0.3316
 2949ntf    sn217224   0.475   1.564   3.519  0.0087 -0.0156  0.0795
 2949ntf    cn117225   0.608   1.569   3.395  0.0705  0.3746  0.1603
 2949ntf    fn417226   0.671   1.847   3.930  0.2778  1.1122  0.0433
 2949ntf    fn417227   0.677   1.908   3.732  0.2853 -0.8429 -0.2394
 2949ntf    fn417228   0.489   1.906   3.840 -0.4287 -0.5929 -0.1259
 2949ntf    on517229   0.721   1.629   3.727  0.4789 -0.4417  1.0594
 2949ntf    on517230   0.507   1.603   3.846  0.0285 -0.5612 -0.8819
 2949ntf    on517231   0.356   1.583   3.438 -0.1328  0.1260  0.3192
 2949ntf    on517232   0.484   1.434   3.581  0.0354  0.2612  0.6616
 2949ntf    fn417233   0.731   1.581   3.442 -0.0000 -0.1025  0.4710
 2949ntf    fn417234   0.617   1.462   3.318 -0.1461  0.2400  0.3212
 2949ntf    fn417235   0.583   1.669   3.311 -0.0901 -0.2815 -0.5859
 2950ntf    cn117236   1.152   2.926   2.468  0.7171 -0.0445 -0.4857
 2950ntf    sn217237   1.292   2.910   2.583  0.3784 -0.4591 -0.1278
 2950ntf    nn317238   1.321   2.756   2.586 -0.4277 -0.6128 -0.0261
 2950ntf    sn217239   1.430   2.667   2.517  0.1901 -0.0073  0.1555
 2950ntf    cn117240   1.483   2.585   2.670 -0.0641 -0.2530  0.1147
 2950ntf    fn417241   1.052   2.840   2.482  0.4427  0.4064  0.4139
 2950ntf    fn417242   1.098   3.047   2.469  0.2972 -0.2307 -0.4043
 2950ntf    fn417243   1.182   2.907   2.340  0.0654 -0.2062 -0.6195
 2950ntf    on517244   1.391   2.997   2.524  0.0598  0.0510  0.0838
 2950ntf    on517245   1.246   2.960   2.710 -0.1437  0.2330 -0.5750
 2950ntf    on517246   1.542   2.742   2.467  0.0613 -0.4817 -0.8653
 2950ntf    on517247   1.365   2.558   2.448  0.4224 -0.0894  0.0644
 2950ntf    fn417248   1.508   2.668   2.771  0.2278 -0.6809  0.3967
 2950ntf    fn417249   1.390   2.501   2.712 -0.2371 -0.1213 -0.0028
 2950ntf    fn417250   1.592   2.516   2.640  0.0718  0.2694 -0.6091
 2951ntf    cn117251   3.514   1.127   4.741 -0.1977  0.1770  0.3347
 2951ntf    sn217252   3.668   1.047   4.686 -0.1984  0.3209  0.1222
 2951ntf    nn317253   3.750   1.168   4.628 -0.1137  0.1680 -0.0773
 2951ntf    sn217254   3.799   1.200   4.483 -0.0925 -0.3095 -0.1786
 2951ntf    cn117255   3.874   1.365   4.500 -0.2189 -0.3140  0.4360
 2951ntf    fn417256   3.448   1.187   4.643 -0.3933 -0.6410 -0.0359
 2951ntf    fn417257   3.438   1.044   4.810 -0.0202 -0.3891 -0.1414
 2951ntf    fn417258   3.546   1.227   4.822 -0.0471  0.6320 -0.2769
 2951ntf    on517259   3.727   0.988   4.803 -0.1299 -0.3574 -0.2485
 2951ntf    on517260   3.622   0.954   4.586  0.9479 -0.1472  0.0195
 2951ntf    on517261   3.697   1.224   4.383  0.1921 -0.1155 -0.4246
 2951ntf    on517262   3.909   1.121   4.432 -0.1347  0.0323 -0.8143
 2951ntf    fn417263   4.001   1.358   4.536  0.0224 -0.2621 -0.3754
 2951ntf    fn417264   3.868   1.444   4.394 -0.2003 -0.9023 -0.0065
 2951ntf    fn417265   3.823   1.442   4.595 -0.1505  0.3591 -0.0691
 2952ntf    cn117266   6.153   2.342   2.006  0.4665 -0.2491  0.0907
 2952ntf    sn217267   6.091   2.171   2.008  0.2090 -0.1566  0.1294
 2952ntf    nn317268   5.938   2.174   1.976  0.0353  0.2011  0.9498
 2952ntf    sn217269   5.816   2.241   2.048 -0.1437  0.4928  0.3870
 2952ntf    cn117270   5.756   2.089   2.128 -0.2139  0.2861 -0.0560
 2952ntf    fn417271   6.104   2.429   2.093 -0.0854 -0.1179 -0.3418
 2952ntf    fn417272   6.284   2.341   2.022  0.5143 -0.0221 -0.2627
 2952ntf    fn417273   6.115   2.389   1.888  0.2737 -0.2948  0.1345
 2952ntf    on517274   6.175   2.109   1.909  0.6459  0.1607  0.2936
 2952ntf    on517275   6.115   2.116   2.140  0.0136  0.2061  0.3166
 2952ntf    on517276   5.698   2.276   1.972  0.0418  0.3443  0.0297
 2952ntf    on517277   5.848   2.331   2.157 -0.2561  0.3900  0.5058
 2952ntf    fn417278   5.843   2.050   2.220 -0.0156  0.2708 -0.2494
 2952ntf    fn417279   5.647   2.121   2.197 -0.0948  0.2722  0.1399
 2952ntf    fn417280   5.726   1.983   2.055  0.0718 -0.0170  0.2632
 2953ntf    cn117281   3.784   4.443   1.737 -0.0254 -0.1710  0.0517
 2953ntf    sn217282   3.946   4.507   1.685 -0.0169 -0.0535  0.2202
 2953ntf    nn317283   4.010   4.382   1.615 -0.2439 -0.2343  0.3337
 2953ntf    sn217284   4.118   4.277   1.658 -0.0609 -0.0654  0.2818
 2953ntf    cn117285   4.030   4.149   1.752 -0.1963 -0.2043 -0.0342
 2953ntf    fn417286   3.782   4.313   1.759 -0.8121 -0.1761 -0.0196
 2953ntf    fn417287   3.732   4.509   1.840  0.1401  0.1090 -0.0428
 2953ntf    fn417288   3.700   4.456   1.636 -0.1589 -0.3591  0.1392
 2953ntf    on517289   3.913   4.611   1.592  0.0246 -0.4412 -0.2316
 2953ntf    on517290   4.009   4.542   1.810  0.2222  0.1624  0.0386
 2953ntf    on517291   4.223   4.318   1.749 -0.5841  0.5496  0.6210
 2953ntf    on517292   4.157   4.194   1.547 -0.1583  0.2309  0.0235
 2953ntf    fn417293   4.112   4.063   1.809 -0.2531 -0.2193  0.0248
 2953ntf    fn417294   3.950   4.207   1.841  0.6117  0.2427  0.4161
 2953ntf    fn417295   3.952   4.072   1.678 -0.0966  0.4203 -0.8079
 2954ntf    cn117296   3.630   6.902   1.258  0.1917 -0.2017 -0.2129
 2954ntf    sn217297   3.654   6.770   1.382  0.0351 -0.0379 -0.0068
 2954ntf    nn317298   3.577   6.838   1.501 -0.0445 -0.2128  0.0412
 2954ntf    sn217299   3.635   6.869   1.643  0.2540  0.4040 -0.2134
 2954ntf    cn117300   3.644   6.705   1.720  0.4455  0.5487  0.0757
 2954ntf    fn417301   3.504   6.893   1.220  0.1100 -0.2404  0.0595
 2954ntf    fn417302   3.661   7.027   1.288  0.0063 -0.1402 -0.2811
 2954ntf    fn417303   3.688   6.871   1.143  0.2203 -0.1421 -0.2146
 2954ntf    on517304   3.591   6.658   1.317  0.2202 -0.2376  0.1589
 2954ntf    on517305   3.796   6.753   1.404 -0.0016  0.0566  0.3017
 2954ntf    on517306   3.534   6.935   1.723  0.3061 -0.1771  0.3401
 2954ntf    on517307   3.768   6.925   1.654  0.2163  0.3661  0.5065
 2954ntf    fn417308   3.744   6.630   1.675  0.3048  0.4484 -0.0719
 2954ntf    fn417309   3.673   6.707   1.849  0.0359 -0.3972  0.1927
 2954ntf    fn417310   3.537   6.630   1.700  0.8594  0.0070 -0.1293
 2955ntf    cn117311   6.972   3.689   0.614 -0.2311 -0.7267  0.3372
 2955ntf    sn217312   7.093   3.649   0.485 -0.2817  0.1644  0.0100
 2955ntf    nn317313   7.152   3.508   0.521 -0.5306  0.1588  0.4070
 2955ntf    sn217314   7.156   3.372   0.442  0.0323  0.3866  0.0334
 2955ntf    cn117315   7.326   3.386   0.378  0.0797  0.4642  0.1747
 2955ntf    fn417316   6.874   3.599   0.614 -0.0775 -0.8942  0.3036
 2955ntf    fn417317   7.033   3.690   0.731  0.1109 -0.5371  0.1564
 2955ntf    fn417318   6.916   3.808   0.602  0.7330 -0.3132 -0.1532
 2955ntf    on517319   7.025   3.658   0.358 -0.4922 -0.4188  0.0772
 2955ntf    on517320   7.193   3.751   0.506  0.0540 -0.1416 -0.0955
 2955ntf    on517321   7.071   3.360   0.326  0.2435 -0.2214 -0.0587
 2955ntf    on517322   7.167   3.250   0.518  0.0043  0.0733 -0.4570
 2955ntf    fn417323   7.367   3.272   0.324 -0.1955  0.5129 -0.1463
 2955ntf    fn417324   7.331   3.482   0.288  0.1435  0.1408 -0.1708
 2955ntf    fn417325   7.408   3.417   0.477  0.3638 -0.0880  0.1187
 2956ntf    cn117326   1.721   6.249   7.147 -0.1028 -0.0619  0.3788
 2956ntf    sn217327   1.576   6.337   7.212 -0.3841 -0.1814 -0.0812
 2956ntf    nn317328   1.564   6.281   7.358 -0.3619 -0.5441 -0.2159
 2956ntf    sn217329   1.664   6.294   7.479 -0.3299 -0.5546 -0.2415
 2956ntf    cn117330   1.595   6.444   7.555  0.1608 -0.2725 -0.3473
 2956ntf    fn417331   1.841   6.299   7.173  0.0750 -0.2070 -0.1354
 2956ntf    fn417332   1.720   6.121   7.179  0.6615 -0.1461  0.0967
 2956ntf    fn417333   1.720   6.250   7.014 -0.1040 -0.6817  0.3744
 2956ntf    on517334   1.603   6.478   7.198 -0.4391 -0.0703  0.8864
 2956ntf    on517335   1.468   6.275   7.139 -0.0072 -0.8839 -0.0533
 2956ntf    on517336   1.796   6.342   7.447 -0.4605 -0.0713 -0.0603
 2956ntf    on517337   1.648   6.187   7.574 -0.4817  0.3904  0.8095
 2956ntf    fn417338   1.490   6.415   7.630 -0.1258 -0.0075 -0.6440
 2956ntf    fn417339   1.687   6.511   7.623 -0.2634 -0.1474  0.1122
 2956ntf    fn417340   1.550   6.533   7.469 -0.0279  0.0048  0.0376
 2957ntf    cn117341   2.139   3.080   3.004 -0.2799  0.0224 -0.1410
 2957ntf    sn217342   2.131   3.236   2.910 -0.1419  0.1976  0.1375
 2957ntf    nn317343   2.102   3.174   2.769  0.1255 -0.0217  0.1776
 2957ntf    sn217344   2.189   3.167   2.639  0.0285  0.0649  0.1075
 2957ntf    cn117345   2.073   3.250   2.527  0.0749  0.2667  0.2088
 2957ntf    fn417346   2.049   2.993   2.961 -0.7499  0.5191 -0.1776
 2957ntf    fn417347   2.253   3.018   2.975 -0.3890 -0.2957  0.1057
 2957ntf    fn417348   2.129   3.096   3.135 -0.4233  0.4394 -0.2008
 2957ntf    on517349   2.023   3.308   2.973 -0.4789 -0.0881 -0.1097
 2957ntf    on517350   2.264   3.289   2.927 -0.3535  0.7444  0.0934
 2957ntf    on517351   2.197   3.037   2.577  0.5472  0.2811 -0.2950
 2957ntf    on517352   2.310   3.247   2.633 -0.0207  0.1361  0.0596
 2957ntf    fn417353   2.111   3.255   2.401  0.3287 -0.4229  0.2566
 2957ntf    fn417354   1.958   3.184   2.518 -0.0364  0.4496  0.2881
 2957ntf    fn417355   2.038   3.372   2.566 -0.1585  0.4592 -0.5851
 2958ntf    cn117356   1.901   3.005   5.047  0.0879  0.0785 -0.1335
 2958ntf    sn217357   1.841   2.836   5.021 -0.4635  0.2095  0.2741
 2958ntf    nn317358   1.771   2.808   5.158 -0.3656  0.6110  0.4056
 2958ntf    sn217359   1.618   2.812   5.194 -0.4442  0.2786  0.1138
 2958ntf    cn117360   1.622   2.715   5.348  0.1804  0.0309 -0.0564
 2958ntf    fn417361   1.964   2.999   5.163  0.0958  0.4570 -0.1151
 2958ntf    fn417362   1.987   3.047   4.955 -0.2218  0.2429 -0.3519
 2958ntf    fn417363   1.799   3.087   5.065 -0.1246 -0.3220  0.5065
 2958ntf    on517364   1.772   2.838   4.894 -0.3165  0.4232  0.1971
 2958ntf    on517365   1.967   2.766   5.014 -0.2592  0.5265  0.7664
 2958ntf    on517366   1.532   2.733   5.110 -0.0821  0.6433 -0.6045
 2958ntf    on517367   1.570   2.946   5.218 -0.2966  0.3907 -0.2169
 2958ntf    fn417368   1.702   2.769   5.439  0.0915  0.4645 -0.2326
 2958ntf    fn417369   1.505   2.685   5.402  0.0808 -0.2682 -0.4358
 2958ntf    fn417370   1.672   2.595   5.322  0.2262 -0.0444  0.3618
 2959ntf    cn117371   5.404   0.707   5.820 -0.0060  0.1454 -0.0367
 2959ntf    sn217372   5.559   0.791   5.864  0.0572  0.0178 -0.0131
 2959ntf    nn317373   5.527   0.825   6.014  0.1636  0.1644 -0.0236
 2959ntf    sn217374   5.563   0.738   6.139 -0.4774 -0.0109  0.0383
 2959ntf    cn117375   5.696   0.844   6.204 -0.3690 -0.1936  0.1175
 2959ntf    fn417376   5.424   0.576   5.823 -0.1752  0.1169 -0.1301
 2959ntf    fn417377   5.311   0.722   5.912 -0.2456 -0.3511 -0.1908
 2959ntf    fn417378   5.357   0.730   5.698 -0.4295  0.0290  0.1033
 2959ntf    on517379   5.659   0.691   5.832  0.1075 -0.1053  0.5327
 2959ntf    on517380   5.546   0.909   5.783 -0.0855  0.2421  0.3374
 2959ntf    on517381   5.638   0.617   6.117 -0.0574  0.2047  0.2752
 2959ntf    on517382   5.456   0.738   6.237 -0.5144  0.0251 -0.0027
 2959ntf    fn417383   5.799   0.847   6.121  0.1477 -0.0803  0.7544
 2959ntf    fn417384   5.664   0.972   6.216 -0.4595 -0.1318 -0.7103
 2959ntf    fn417385   5.738   0.797   6.320 -0.3995  0.4689  0.4003
 2960ntf    cn117386   6.464   6.414   2.822 -0.1367 -0.6812 -0.0365
 2960ntf    sn217387   6.422   6.489   2.663  0.1715 -0.0411  0.1816
 2960ntf    nn317388   6.498   6.404   2.555  0.3523  0.4916 -0.1145
 2960ntf    sn217389   6.648   6.411   2.507  0.1871  0.1489 -0.6893
 2960ntf    cn117390   6.694   6.245   2.565 -0.1824  0.1535 -0.3797
 2960ntf    fn417391   6.389   6.462   2.920  0.2139  0.4746 -0.3210
 2960ntf    fn417392   6.461   6.282   2.814  0.3914 -0.7215  0.3252
 2960ntf    fn417393   6.591   6.436   2.851 -0.1825  0.5203 -0.7186
 2960ntf    on517394   6.279   6.474   2.649 -0.0194  1.1434  0.7205
 2960ntf    on517395   6.465   6.626   2.674  0.3484 -0.1060  0.2924
 2960ntf    on517396   6.733   6.497   2.585 -0.2645  0.2837 -0.3402
 2960ntf    on517397   6.659   6.399   2.364 -0.2918  0.5128 -0.7577
 2960ntf    fn417398   6.629   6.218   2.678 -0.0542  0.1300 -0.3119
 2960ntf    fn417399   6.663   6.147   2.482  0.1821  0.2600 -0.6417
 2960ntf    fn417400   6.825   6.230   2.577 -0.2438 -0.1403 -0.0478
 2961ntf    cn117401   1.312   2.914   1.573  0.1165 -0.0273  0.2128
 2961ntf    sn217402   1.493   2.907   1.583  0.1183 -0.2218  0.0557
 2961ntf    nn317403   1.503   2.811   1.707 -0.0168 -0.0947  0.1658
 2961ntf    sn217404   1.542   2.659   1.707  0.1559 -0.0517 -0.2270
 2961ntf    cn117405   1.487   2.624   1.876  0.1203  0.4467 -0.1342
 2961ntf    fn417406   1.252   2.796   1.581 -0.7214  0.3778  0.0724
 2961ntf    fn417407   1.260   2.981   1.674 -0.2935 -0.1102  0.0593
 2961ntf    fn417408   1.273   2.974   1.461  0.0178 -0.2401  0.1319
 2961ntf    on517409   1.544   2.864   1.455  0.6117  0.2162  0.0981
 2961ntf    on517410   1.516   3.046   1.612  0.4375 -0.2156 -0.2209
 2961ntf    on517411   1.684   2.639   1.711  0.0154 -1.0183  0.2028
 2961ntf    on517412   1.466   2.569   1.623  0.0506  0.5422 -0.7738
 2961ntf    fn417413   1.357   2.628   1.899  0.0725 -0.8169 -0.0884
 2961ntf    fn417414   1.528   2.505   1.917  0.3034  0.4382 -0.3365
 2961ntf    fn417415   1.545   2.699   1.968 -0.2544  0.0173  0.4614
 2962ntf    cn117416   6.642   3.008   4.222  0.0602 -0.0854 -0.1782
 2962ntf    sn217417   6.687   2.840   4.169 -0.3231 -0.1998 -0.1399
 2962ntf    nn317418   6.638   2.768   4.299 -0.1182  0.1198  0.1140
 2962ntf    sn217419   6.746   2.719   4.403  0.0213  0.3444  0.0766
 2962ntf    cn117420   6.646   2.660   4.543  0.4661 -0.2498  0.1485
 2962ntf    fn417421   6.650   3.101   4.129 -0.8427  0.2771  0.1047
 2962ntf    fn417422   6.520   3.023   4.271  0.3364  0.4636  0.3573
 2962ntf    fn417423   6.728   3.037   4.319  0.2121  0.1895 -0.3965
 2962ntf    on517424   6.594   2.823   4.060 -0.0432  0.0635 -0.4208
 2962ntf    on517425   6.824   2.847   4.125 -0.3991  0.2880 -0.2998
 2962ntf    on517426   6.823   2.820   4.470  0.6474 -0.3415  0.4108
 2962ntf    on517427   6.815   2.601   4.356  0.2885  0.3179  0.5281
 2962ntf    fn417428   6.579   2.548   4.520 -0.5463  0.3966 -0.0867
 2962ntf    fn417429   6.721   2.642   4.651 -0.0784 -0.0358  0.5675
 2962ntf    fn417430   6.560   2.752   4.583  0.2161 -0.3487 -0.1627
 2963ntf    cn117431   0.775   0.653   6.630  0.0849  0.0370 -0.1136
 2963ntf    sn217432   0.912   0.708   6.736  0.1480 -0.1583 -0.0941
 2963ntf    nn317433   0.852   0.828   6.817  0.0348 -0.4586  0.2702
 2963ntf    sn217434   0.817   0.847   6.969 -0.1134  0.0599  0.1736
 2963ntf    cn117435   0.975   0.893   7.046  0.0341  0.3409 -0.2934
 2963ntf    fn417436   0.677   0.595   6.697  0.1293 -0.2988 -0.3353
 2963ntf    fn417437   0.727   0.751   6.555  0.0051 -0.0654 -0.1958
 2963ntf    fn417438   0.817   0.570   6.536  0.1622 -0.0407 -0.0109
 2963ntf    on517439   0.948   0.592   6.814  0.1707 -0.0358  0.0788
 2963ntf    on517440   1.010   0.759   6.643  0.0391  0.0766 -0.0804
 2963ntf    on517441   0.783   0.726   7.040  0.6609 -0.3918 -0.2189
 2963ntf    on517442   0.723   0.954   6.992 -0.1573  0.0878 -0.1343
 2963ntf    fn417443   0.983   0.856   7.173  0.1059 -0.0055 -0.3963
 2963ntf    fn417444   1.078   0.834   6.987  0.2013 -0.0316  0.3631
 2963ntf    fn417445   1.002   1.022   7.039 -0.2132  0.4319  0.3650
 2964ntf    cn117446   5.838   5.296   4.723  0.2706  0.2087 -0.0114
 2964ntf    sn217447   5.690   5.400   4.700  0.2252  0.1217 -0.1230
 2964ntf    nn317448   5.591   5.301   4.631  0.3778 -0.2265  0.1537
 2964ntf    sn217449   5.474   5.217   4.695 -0.2834  0.1305 -0.5671
 2964ntf    cn117450   5.342   5.341   4.706  0.1763  0.5563  0.2775
 2964ntf    fn417451   5.877   5.239   4.610  0.0623  0.7047 -0.3423
 2964ntf    fn417452   5.940   5.367   4.770  0.9024 -0.5265 -0.2604
 2964ntf    fn417453   5.813   5.199   4.809 -0.1600  0.1989 -0.1453
 2964ntf    on517454   5.647   5.446   4.830  0.0496 -0.0100 -0.1348
 2964ntf    on517455   5.736   5.503   4.610 -0.0317  0.2161 -0.1477
 2964ntf    on517456   5.505   5.176   4.829 -0.1208  0.3250 -0.5444
 2964ntf    on517457   5.416   5.122   4.604 -0.3418 -0.4866  0.1073
 2964ntf    fn417458   5.293   5.372   4.586  0.0681  0.4069  0.2832
 2964ntf    fn417459   5.239   5.306   4.781 -0.0514  0.4059 -0.0970
 2964ntf    fn417460   5.386   5.456   4.754  0.8215  0.2341  0.4664
 2965ntf    cn117461   6.689   1.762   0.729  0.1310 -0.0520 -0.4407
 2965ntf    sn217462   6.869   1.785   0.733  0.1258 -0.0554 -0.0688
 2965ntf    nn317463   6.906   1.832   0.878  0.3068  0.5177 -0.2950
 2965ntf    sn217464   7.000   1.946   0.931  0.4440  0.0725  0.4356
 2965ntf    cn117465   6.883   2.085   0.929  0.0639 -0.2508 -0.0311
 2965ntf    fn417466   6.619   1.869   0.766 -0.0956 -0.5954  0.7633
 2965ntf    fn417467   6.644   1.740   0.607 -0.6092 -0.5420 -0.0879
 2965ntf    fn417468   6.643   1.663   0.804 -0.0720  0.3085 -0.0807
 2965ntf    on517469   6.929   1.659   0.697  0.2504 -0.0642  0.1709
 2965ntf    on517470   6.886   1.889   0.634  0.2037  0.0784  0.0836
 2965ntf    on517471   7.109   1.986   0.845 -0.4712  0.1051 -0.7346
 2965ntf    on517472   7.022   1.932   1.072  0.0893 -0.3757  0.4486
 2965ntf    fn417473   6.843   2.129   0.811  0.3524  0.8365  0.2737
 2965ntf    fn417474   6.775   2.049   0.997  0.0258  0.1215  0.1050
 2965ntf    fn417475   6.935   2.183   1.001 -0.1214 -0.1814  0.0085
 2966ntf    cn117476   2.647   0.827   1.656 -0.0906  0.0192 -0.4770
 2966ntf    sn217477   2.702   0.725   1.516 -0.2291 -0.0537 -0.4777
 2966ntf    nn317478   2.802   0.630   1.590 -0.0009  0.0610 -0.6389
 2966ntf    sn217479   2.770   0.504   1.678 -0.3703  0.4073 -0.2713
 2966ntf    cn117480   2.866   0.383   1.582  0.1006  0.3067  0.3209
 2966ntf    fn417481   2.751   0.882   1.716 -0.3057  0.2379 -0.3011
 2966ntf    fn417482   2.556   0.917   1.621 -0.3414  0.1296  0.4479
 2966ntf    fn417483   2.582   0.752   1.743 -0.0012  0.6684  0.1618
 2966ntf    on517484   2.582   0.663   1.464 -0.0593 -0.0324 -0.9013
 2966ntf    on517485   2.769   0.821   1.432  0.0605 -0.3121 -0.5434
 2966ntf    on517486   2.637   0.448   1.677  0.0355 -0.5728 -0.2651
 2966ntf    on517487   2.840   0.514   1.804  0.2248 -0.1063 -0.5537
 2966ntf    fn417488   2.871   0.268   1.648  0.2744  0.2277  0.1728
 2966ntf    fn417489   2.813   0.355   1.464  0.6948  0.0938  0.0967
 2966ntf    fn417490   2.989   0.429   1.566  0.1901 -0.1199 -0.2448
 2967ntf    cn117491   5.261   4.393   6.965  0.4775 -0.1796 -0.0487
 2967ntf    sn217492   5.351   4.325   7.108  0.2938  0.1747  0.2376
 2967ntf    nn317493   5.269   4.191   7.120  0.1096  0.2777  0.1334
 2967ntf    sn217494   5.305   4.046   7.072 -0.2279  0.1892  0.1464
 2967ntf    cn117495   5.440   4.014   7.189  0.0991 -0.2457 -0.3457
 2967ntf    fn417496   5.250   4.309   6.863  0.1287  0.3846 -0.4793
 2967ntf    fn417497   5.139   4.436   6.994  0.3119 -0.1898 -0.7193
 2967ntf    fn417498   5.319   4.502   6.918 -0.0661  0.0900 -0.1061
 2967ntf    on517499   5.481   4.323   7.046 -0.0718  0.3231 -0.5471
 2967ntf    on517500   5.325   4.409   7.222 -0.1348  0.2321  0.0994
 2967ntf    on517501   5.354   4.022   6.939 -0.7222  0.7403 -0.1395
 2967ntf    on517502   5.205   3.951   7.115 -0.0390  0.0793  0.3440
 2967ntf    fn417503   5.546   4.093   7.173 -0.0974  0.1991  0.4968
 2967ntf    fn417504   5.405   4.038   7.315  0.0108  0.1468 -0.4434
 2967ntf    fn417505   5.477   3.887   7.187 -0.6292 -0.4703  0.1611
 2968ntf    cn117506   0.281   2.398   0.733 -0.0828  0.1452 -0.6487
 2968ntf    sn217507   0.430   2.295   0.726 -0.0134  0.1775  0.2036
 2968ntf    nn317508   0.532   2.396   0.662 -0.1216  0.1880  0.0478
 2968ntf    sn217509   0.628   2.499   0.731  0.0716 -0.1982  0.3615
 2968ntf    cn117510   0.770   2.394   0.771  0.2058 -0.0876  0.1753
 2968ntf    fn417511   0.237   2.460   0.625 -0.1694  0.3363 -0.5057
 2968ntf    fn417512   0.177   2.348   0.799  0.1444  0.3890 -0.0946
 2968ntf    fn417513   0.304   2.496   0.819  0.1739 -0.3935 -0.0979
 2968ntf    on517514   0.445   2.248   0.861  0.4735 -0.1429  0.0418
 2968ntf    on517515   0.386   2.193   0.635 -0.1344 -0.1889  0.6736
 2968ntf    on517516   0.582   2.549   0.859 -0.3583  0.5278 -0.0683
 2968ntf    on517517   0.675   2.595   0.634 -1.1773  0.2929  0.2158
 2968ntf    fn417518   0.863   2.471   0.825  0.4093  0.0388 -0.3431
 2968ntf    fn417519   0.743   2.302   0.862 -0.3156 -0.8196 -0.7007
 2968ntf    fn417520   0.831   2.321   0.678 -0.1391 -0.4758  0.2490
 2969ntf    cn117521   5.817   0.555   2.306  0.1992 -0.4187  0.3981
 2969ntf    sn217522   5.685   0.652   2.226  0.5044 -0.0282  0.3631
 2969ntf    nn317523   5.594   0.696   2.346  0.0585 -0.1807  0.0837
 2969ntf    sn217524   5.632   0.734   2.493 -0.0633  0.0656  0.0524
 2969ntf    cn117525   5.470   0.737   2.575 -0.0000  0.0356  0.1771
 2969ntf    fn417526   5.906   0.512   2.217 -0.7119 -0.3478 -0.5702
 2969ntf    fn417527   5.889   0.620   2.396  0.2507  0.4411 -0.2464
 2969ntf    fn417528   5.766   0.447   2.361 -0.2212 -0.1200  0.5971
 2969ntf    on517529   5.759   0.753   2.156  0.1298 -0.2326 -0.3413
 2969ntf    on517530   5.617   0.553   2.146  0.2777  0.1574  0.3270
 2969ntf    on517531   5.688   0.867   2.506 -0.4035  0.1863  0.2981
 2969ntf    on517532   5.692   0.625   2.566 -0.6126  0.0540  0.4924
 2969ntf    fn417533   5.406   0.850   2.550  0.0445 -0.0336 -0.2496
 2969ntf    fn417534   5.398   0.634   2.535  0.4438 -0.0774 -0.3278
 2969ntf    fn417535   5.476   0.729   2.707 -0.1917 -0.1880  0.1723
 2970ntf    cn117536   5.775   5.824   0.591 -0.0376  0.1574 -0.3184
 2970ntf    sn217537   5.857   5.705   0.701 -0.0569  0.2700 -0.1806
 2970ntf    nn317538   5.741   5.607   0.741  0.2375  0.0778  0.2136
 2970ntf    sn217539   5.750   5.451   0.763 -0.0772  0.0510  0.1543
 2970ntf    cn117540   5.720   5.386   0.596 -0.4418  0.5521  0.0215
 2970ntf    fn417541   5.853   5.895   0.511  0.2743  0.3786  0.1726
 2970ntf    fn417542   5.685   5.764   0.516 -0.1878 -0.1030  0.0644
 2970ntf    fn417543   5.709   5.920   0.655  0.3250  0.0073  0.2904
 2970ntf    on517544   5.964   5.645   0.625  0.1896  0.1561  0.2499
 2970ntf    on517545   5.896   5.787   0.813  0.8900  0.3743 -0.5822
 2970ntf    on517546   5.634   5.393   0.826 -0.2484 -0.0202 -0.2225
 2970ntf    on517547   5.879   5.396   0.795  0.1209  0.0405 -0.6369
 2970ntf    fn417548   5.800   5.444   0.507  0.3381  0.1924  0.4727
 2970ntf    fn417549   5.759   5.260   0.588  0.0909  0.7316 -0.3147
 2970ntf    fn417550   5.596   5.399   0.552 -0.4752 -0.1271 -0.0890
 2971ntf    cn117551   5.445   4.655   6.331 -0.3023  0.7894  0.0159
 2971ntf    sn217552   5.538   4.515   6.261 -0.4221  0.5182  0.3972
 2971ntf    nn317553   5.563   4.419   6.383 -0.3606  0.4344  0.3184
 2971ntf    sn217554   5.692   4.412   6.472 -0.2288  0.0751  0.0992
 2971ntf    cn117555   5.769   4.266   6.396 -0.1867 -0.1778  0.6187
 2971ntf    fn417556   5.385   4.728   6.238 -0.2700  0.4401 -0.2831
 2971ntf    fn417557   5.341   4.609   6.399  0.5348 -0.2833  0.5947
 2971ntf    fn417558   5.511   4.743   6.404  0.4684  0.2456 -0.0152
 2971ntf    on517559   5.444   4.453   6.172 -0.0371  0.4567  0.0280
 2971ntf    on517560   5.646   4.590   6.200  0.0452 -0.8001 -0.4262
 2971ntf    on517561   5.664   4.363   6.605  0.2988 -1.0939 -0.2078
 2971ntf    on517562   5.794   4.513   6.457  0.3826 -0.4502  0.6578
 2971ntf    fn417563   5.819   4.285   6.275 -0.5671  0.3878  0.5467
 2971ntf    fn417564   5.870   4.216   6.465 -0.0335 -0.2713  0.3300
 2971ntf    fn417565   5.678   4.172   6.377  0.7203 -0.9624  0.0611
 2972ntf    cn117566   2.942   0.892   6.354 -0.2070  0.2728  0.3681
 2972ntf    sn217567   3.014   0.771   6.239 -0.4350  0.1787  0.3241
 2972ntf    nn317568   3.089   0.868   6.141 -0.2621 -0.5069 -0.2330
 2972ntf    sn217569   3.242   0.902   6.127 -0.4063  0.3018  0.1086
 2972ntf    cn117570   3.266   1.064   6.208  0.4002  0.2211  0.0388
 2972ntf    fn417571   2.865   0.974   6.285  0.0431  0.2325  0.0381
 2972ntf    fn417572   2.867   0.837   6.448 -0.5986  0.0707 -0.0564
 2972ntf    fn417573   3.031   0.970   6.413  0.8930 -0.5135 -0.2013
 2972ntf    on517574   3.099   0.687   6.319 -0.7240 -0.1527  0.2815
 2972ntf    on517575   2.900   0.718   6.169 -0.0193  0.0869 -0.2941
 2972ntf    on517576   3.289   0.930   5.994  0.1224 -0.2266  0.1804
 2972ntf    on517577   3.335   0.825   6.206  0.1444  0.3899 -0.4470
 2972ntf    fn417578   3.394   1.088   6.230  0.5304  0.1930 -0.6667
 2972ntf    fn417579   3.228   1.170   6.138 -0.0096 -0.0732 -0.1899
 2972ntf    fn417580   3.208   1.074   6.326  0.3730 -0.0987  0.0529
 2973ntf    cn117581   3.737   2.093   0.161  0.0273  0.6156 -0.0156
 2973ntf    sn217582   3.734   2.004   0.002  0.2529  0.2720  0.1707
 2973ntf    nn317583   3.584   1.958   0.010  0.3201 -0.0385 -0.3109
 2973ntf    sn217584   3.468   1.918  -0.088 -0.0575 -0.0885  0.1521
 2973ntf    cn117585   3.373   2.072  -0.082 -0.0620 -0.0742 -0.2534
 2973ntf    fn417586   3.859   2.139   0.184  0.2215  0.4675 -0.7119
 2973ntf    fn417587   3.649   2.191   0.169 -0.7051 -0.0106 -0.3485
 2973ntf    fn417588   3.701   2.011   0.259  0.2683  0.1857 -0.2795
 2973ntf    on517589   3.779   2.102  -0.093  0.6218  0.0555  0.1199
 2973ntf    on517590   3.821   1.891   0.025  0.0666  0.1608  0.3327
 2973ntf    on517591   3.383   1.812  -0.040 -0.0483  0.0450  0.4624
 2973ntf    on517592   3.507   1.905  -0.226  0.6871 -1.0243  0.4351
 2973ntf    fn417593   3.419   2.159  -0.170  0.1949  0.5455  0.4831
 2973ntf    fn417594   3.244   2.047  -0.103 -0.1585  0.0044  0.2184
 2973ntf    fn417595   3.390   2.130   0.036 -0.3497 -0.2950 -0.1012
 2974ntf    cn117596   1.912   1.050   1.945 -0.0115 -0.1310 -0.0690
 2974ntf    sn217597   1.876   1.106   1.775 -0.5192 -0.0575  0.0607
 2974ntf    nn317598   2.005   1.037   1.717 -0.3605  0.4790 -0.2214
 2974ntf    sn217599   2.012   0.917   1.617  0.0080  0.1665  0.1786
 2974ntf    cn117600   2.189   0.886   1.591 -0.0650 -0.0926 -0.0256
 2974ntf    fn417601   1.806   1.064   2.023  0.5726 -0.3792  0.7720
 2974ntf    fn417602   1.942   0.921   1.949  0.2213 -0.0767 -0.0963
 2974ntf    fn417603   2.014   1.107   2.006 -0.2075 -0.3188  0.4343
 2974ntf    on517604   1.752   1.038   1.749 -0.4397 -0.3641  0.4724
 2974ntf    on517605   1.891   1.249   1.771  0.0907 -0.1207 -0.0581
 2974ntf    on517606   1.952   0.937   1.487 -0.5231  0.5153  0.4717
 2974ntf    on517607   1.974   0.794   1.683 -0.1543  0.2682  0.2763
 2974ntf    fn417608   2.256   0.993   1.552  0.1297 -0.1521  0.1440
 2974ntf    fn417609   2.251   0.841   1.699  0.0241 -0.2404 -0.1372
 2974ntf    fn417610   2.205   0.789   1.502 -0.2041 -0.1105 -0.0312
 2975ntf    cn117611   6.631   1.091   4.723  0.2324 -0.7587  0.2683
 2975ntf    sn217612   6.644   1.080   4.542 -0.1286 -0.0703  0.1970
 2975ntf    nn317613   6.495   1.119   4.510  0.0783  0.3862 -0.2297
 2975ntf    sn217614   6.429   1.255   4.467 -0.3443  0.1495 -0.3375
 2975ntf    cn117615   6.463   1.240   4.289 -0.2192 -0.5811 -0.2566
 2975ntf    fn417616   6.737   1.036   4.781  0.5218 -0.4206  0.0664
 2975ntf    fn417617   6.609   1.205   4.786 -0.3240 -0.1167 -1.0489
 2975ntf    fn417618   6.524   1.026   4.763 -0.9336  0.7482 -0.3144
 2975ntf    on517619   6.746   1.174   4.505 -0.6672  0.4650  0.0505
 2975ntf    on517620   6.670   0.942   4.508  0.1249  0.1586 -0.5610
 2975ntf    on517621   6.494   1.379   4.500  0.4083 -0.3641  0.1397
 2975ntf    on517622   6.286   1.248   4.484 -0.2526 -0.1647  0.3299
 2975ntf    fn417623   6.404   1.134   4.238 -0.0212 -0.5147 -0.6244
 2975ntf    fn417624   6.442   1.349   4.217 -0.0090 -0.1296  0.3486
 2975ntf    fn417625   6.593   1.216   4.275 -0.1351 -0.1465 -0.2279
 2976ntf    cn117626   5.679   5.758   6.235 -0.2610 -0.6670  0.2117
 2976ntf    sn217627   5.656   5.762   6.055 -0.2129  0.0633  0.2179
 2976ntf    nn317628   5.527   5.852   6.055 -0.1763  0.1148  0.0712
 2976ntf    sn217629   5.378   5.803   6.046 -0.1326  0.0564 -0.3523
 2976ntf    cn117630   5.368   5.834   5.867 -0.1144  0.3129 -0.3097
 2976ntf    fn417631   5.561   5.781   6.290 -0.2041  0.6325 -0.1647
 2976ntf    fn417632   5.713   5.635   6.268 -0.1108 -0.6096  0.2781
 2976ntf    fn417633   5.764   5.855   6.265 -0.1081 -0.6099 -0.3986
 2976ntf    on517634   5.774   5.836   6.018  0.3641 -1.1398 -0.4025
 2976ntf    on517635   5.644   5.624   6.017 -0.3955  0.1041  0.1239
 2976ntf    on517636   5.276   5.884   6.108  0.1587  0.2393 -0.1030
 2976ntf    on517637   5.362   5.661   6.062  0.4963  0.0689  0.4902
 2976ntf    fn417638   5.245   5.847   5.819 -0.1743  0.1780 -0.1971
 2976ntf    fn417639   5.432   5.944   5.832  0.7933 -0.1034  0.0066
 2976ntf    fn417640   5.418   5.733   5.798 -0.3537 -0.0807  0.0826
 2977ntf    cn117641   1.070   6.688   2.479  0.1446  0.5557  0.1514
 2977ntf    sn217642   0.975   6.676   2.325  0.0907  0.1198  0.2158
 2977ntf    nn317643   0.839   6.611   2.369  0.0345 -0.0476 -0.1946
 2977ntf    sn217644   0.716   6.672   2.445  0.2873 -0.0190  0.1988
 2977ntf    cn117645   0.621   6.712   2.295  0.0303 -0.5396  0.2195
 2977ntf    fn417646   1.010   6.757   2.574  0.0588  0.5287  0.1166
 2977ntf    fn417647   1.084   6.566   2.528 -0.0542  0.5061  0.0848
 2977ntf    fn417648   1.191   6.737   2.458  0.4127  0.0629  0.5192
 2977ntf    on517649   0.957   6.809   2.271  0.6745  0.2388  0.3065
 2977ntf    on517650   1.047   6.588   2.236 -0.1166 -0.1162  0.2796
 2977ntf    on517651   0.745   6.793   2.517  0.7673  0.3460 -0.6027
 2977ntf    on517652   0.624   6.577   2.503  0.5479 -0.3080  0.1393
 2977ntf    fn417653   0.668   6.636   2.196  1.1740 -0.1509  0.4503
 2977ntf    fn417654   0.493   6.682   2.302 -0.2726  0.6304 -0.1805
 2977ntf    fn417655   0.631   6.841   2.270  0.5924 -0.7516 -0.7333
 2978ntf    cn117656   0.258   3.979   3.692  0.2435  0.2554 -0.3952
 2978ntf    sn217657   0.421   3.995   3.769  0.1009  0.3506 -0.1123
 2978ntf    nn317658   0.478   4.118   3.691  0.0716  0.4911  0.0864
 2978ntf    sn217659   0.590   4.222   3.729  0.1684  0.2611  0.4357
 2978ntf    cn117660   0.487   4.363   3.780 -0.1577  0.2411 -0.1505
 2978ntf    fn417661   0.191   4.093   3.688  0.0345  0.1640  0.3088
 2978ntf    fn417662   0.255   3.940   3.565  0.2379 -0.2620 -0.2418
 2978ntf    fn417663   0.185   3.897   3.767 -0.5199  0.4894 -0.8638
 2978ntf    on517664   0.394   4.016   3.909  0.5778  0.0270  0.0315
 2978ntf    on517665   0.489   3.871   3.738 -0.0120  0.2815 -0.0840
 2978ntf    on517666   0.656   4.279   3.613 -0.5463  0.0496 -0.0841
 2978ntf    on517667   0.679   4.185   3.835 -0.1900  0.1856  0.7133
 2978ntf    fn417668   0.396   4.391   3.688 -0.2879 -0.6539 -0.2955
 2978ntf    fn417669   0.424   4.346   3.895 -0.2548  0.3494 -0.1875
 2978ntf    fn417670   0.559   4.474   3.787 -0.7006  0.5830  0.0954
 2979ntf    cn117671   4.130   5.276   6.652 -0.3855  0.2310  0.2323
 2979ntf    sn217672   4.006   5.144   6.670  0.2202 -0.3625  0.0985
 2979ntf    nn317673   3.927   5.185   6.800  0.2414 -0.7751  0.2413
 2979ntf    sn217674   3.954   5.149   6.950  0.1171  0.3015  0.5297
 2979ntf    cn117675   3.863   4.993   6.973  0.3235  0.1102  0.0631
 2979ntf    fn417676   4.137   5.353   6.759 -0.2657  0.2430  0.2162
 2979ntf    fn417677   4.249   5.225   6.623 -0.4653 -0.2139  0.6839
 2979ntf    fn417678   4.101   5.361   6.554  0.0955  0.0754 -0.0491
 2979ntf    on517679   3.923   5.151   6.552  0.2677  0.2622  0.0989
 2979ntf    on517680   4.086   5.027   6.693  0.0884 -0.4721 -0.0023
 2979ntf    on517681   3.892   5.235   7.047 -0.4810  0.5512 -0.0744
 2979ntf    on517682   4.093   5.119   6.977  0.1405 -0.5800 -0.4767
 2979ntf    fn417683   3.738   5.001   6.931  0.3695 -0.4193 -0.1904
 2979ntf    fn417684   3.917   4.896   6.901 -0.1268 -0.1927  0.1312
 2979ntf    fn417685   3.872   4.948   7.097 -0.3356 -0.2068  0.0003
 2980ntf    cn117686   1.383   6.621   6.264  0.3387 -0.1800  0.1748
 2980ntf    sn217687   1.260   6.610   6.399 -0.2491  0.2471 -0.3199
 2980ntf    nn317688   1.177   6.743   6.389 -0.3524  0.2091  0.0400
 2980ntf    sn217689   1.216   6.881   6.453 -0.5665  0.3432 -0.1155
 2980ntf    cn117690   1.207   6.988   6.307 -0.2721  0.4102 -0.0864
 2980ntf    fn417691   1.452   6.734   6.267 -0.2779  0.2160 -0.2482
 2980ntf    fn417692   1.458   6.513   6.258  0.3941 -0.1528  0.3712
 2980ntf    fn417693   1.323   6.624   6.146 -0.2987  0.0411  0.4966
 2980ntf    on517694   1.187   6.493   6.356 -1.3145  0.7209  0.1712
 2980ntf    on517695   1.334   6.594   6.522  0.4036 -0.1432 -0.7548
 2980ntf    on517696   1.352   6.895   6.501 -0.5684  0.3246 -0.1050
 2980ntf    on517697   1.119   6.939   6.543 -0.4151 -0.2187  0.4195
 2980ntf    fn417698   1.083   7.015   6.271 -0.2577 -0.0578 -0.5005
 2980ntf    fn417699   1.260   7.104   6.342 -0.4628  0.5262 -0.1854
 2980ntf    fn417700   1.273   6.942   6.202 -0.1105  0.1617  0.1221
 2981ntf    cn117701   6.938   1.139   0.037  0.0134 -0.2545 -0.2163
 2981ntf    sn217702   6.940   0.990   0.140  0.0273 -0.0933  0.0184
 2981ntf    nn317703   7.036   0.885   0.073  0.1010  0.0443 -0.0901
 2981ntf    sn217704   7.191   0.879   0.052  0.0690  0.0788 -0.3413
 2981ntf    cn117705   7.221   0.700   0.057 -0.2107  0.0410 -0.0675
 2981ntf    fn417706   7.063   1.183   0.027 -0.1423  0.2501  0.0012
 2981ntf    fn417707   6.885   1.126  -0.084  0.3170 -0.4846 -0.3272
 2981ntf    fn417708   6.872   1.241   0.089  0.1446 -0.3623  0.1655
 2981ntf    on517709   6.977   1.039   0.270 -0.0372  0.0844 -0.0305
 2981ntf    on517710   6.805   0.942   0.121  0.2663 -0.5230 -0.6566
 2981ntf    on517711   7.269   0.931   0.161 -0.0783  0.1475 -0.2699
 2981ntf    on517712   7.228   0.916  -0.083  0.0626  0.0918 -0.3396
 2981ntf    fn417713   7.348   0.670   0.035 -0.3170 -0.3846 -0.1055
 2981ntf    fn417714   7.191   0.656   0.179  0.2461  0.1166  0.0755
 2981ntf    fn417715   7.154   0.632  -0.035  0.0652  0.1604 -0.3562
 2982ntf    cn117716   4.298   3.342   1.527  0.0222  0.0785  0.1010
 2982ntf    sn217717   4.439   3.233   1.560  0.1872  0.1878 -0.2408
 2982ntf    nn317718   4.422   3.114   1.459 -0.3629  0.2077 -0.1729
 2982ntf    sn217719   4.520   3.061   1.348  0.0425 -0.0905  0.3182
 2982ntf    cn117720   4.486   3.180   1.215  0.0760 -0.5134 -0.0699
 2982ntf    fn417721   4.187   3.273   1.549  0.2980 -0.3421  0.1793
 2982ntf    fn417722   4.296   3.460   1.586  0.0829  0.1652 -0.0702
 2982ntf    fn417723   4.301   3.367   1.397 -0.4508 -0.2506  0.0199
 2982ntf    on517724   4.551   3.324   1.552  0.0392  0.4274  0.3353
 2982ntf    on517725   4.409   3.194   1.696  0.3793  0.1537 -0.2079
 2982ntf    on517726   4.480   2.936   1.288 -0.4640  0.2460 -0.0567
 2982ntf    on517727   4.656   3.084   1.391  0.3534 -1.0441 -0.1458
 2982ntf    fn417728   4.489   3.308   1.247 -0.8553 -0.4788 -0.0951
 2982ntf    fn417729   4.573   3.160   1.117  0.5790 -0.0153  0.2690
 2982ntf    fn417730   4.368   3.161   1.156 -0.1595  0.1610  0.1770
 2983ntf    cn117731   0.143   5.255   4.985 -0.1758 -0.4281 -0.0974
 2983ntf    sn217732   0.243   5.229   5.134 -0.3386 -0.0795  0.0733
 2983ntf    nn317733   0.369   5.144   5.093 -0.3108 -0.1246  0.2527
 2983ntf    sn217734   0.521   5.179   5.078 -0.2890 -0.1571  0.3942
 2983ntf    cn117735   0.583   5.100   5.229  0.5414  0.2705  0.2830
 2983ntf    fn417736   0.202   5.333   4.896 -0.0748 -0.5353 -0.1239
 2983ntf    fn417737   0.118   5.142   4.921  0.6886 -0.2852 -0.7147
 2983ntf    fn417738   0.028   5.311   5.019  0.1097 -0.0342  0.2163
 2983ntf    on517739   0.283   5.363   5.170  0.0842 -0.2210  0.1457
 2983ntf    on517740   0.146   5.169   5.221 -0.2397 -0.1635  0.1252
 2983ntf    on517741   0.550   5.320   5.085 -0.9639 -0.0146  0.3802
 2983ntf    on517742   0.587   5.095   4.981  0.0758  0.1673  0.3609
 2983ntf    fn417743   0.591   5.183   5.332  0.3072  0.1131  0.4291
 2983ntf    fn417744   0.514   4.994   5.268  0.4864 -0.0027 -0.5289
 2983ntf    fn417745   0.708   5.059   5.211  0.1196 -0.9803  0.0507
 2984ntf    cn117746   3.207   4.935   7.067  0.3753  0.2219  0.1552
 2984ntf    sn217747   3.362   4.908   6.976  0.0891 -0.0646 -0.2518
 2984ntf    nn317748   3.464   4.884   7.094  0.3111  0.3509 -0.3567
 2984ntf    sn217749   3.567   4.768   7.116 -0.2008 -0.0141  0.1214
 2984ntf    cn117750   3.464   4.637   7.191 -0.0940 -0.2417 -0.1274
 2984ntf    fn417751   3.187   4.863   7.176  0.0887  0.1586  0.0596
 2984ntf    fn417752   3.193   5.058   7.114 -0.8062 -0.0696  0.6028
 2984ntf    fn417753   3.102   4.912   6.991  0.5120 -0.2764  0.1178
 2984ntf    on517754   3.336   4.792   6.895 -0.5428 -0.4671  0.5129
 2984ntf    on517755   3.382   5.029   6.900 -0.2258  0.1388 -0.0152
 2984ntf    on517756   3.654   4.806   7.225  0.3958 -0.5238 -0.1690
 2984ntf    on517757   3.626   4.713   6.997 -0.2390  0.3926 -0.0846
 2984ntf    fn417758   3.355   4.604   7.124 -0.5551  0.2002  0.3989
 2984ntf    fn417759   3.535   4.528   7.211 -0.2544 -0.2922  0.1716
 2984ntf    fn417760   3.420   4.674   7.310  0.0470 -1.0418  0.1778
 2985ntf    cn117761   3.364   2.429   6.288  0.1927  0.1247  0.1687
 2985ntf    sn217762   3.273   2.535   6.172 -0.1673 -0.0565  0.2832
 2985ntf    nn317763   3.323   2.475   6.036  0.2489 -0.4146  0.5902
 2985ntf    sn217764   3.446   2.522   5.951 -0.3487  0.1233  0.0144
 2985ntf    cn117765   3.393   2.494   5.779  0.0067  0.2606 -0.1179
 2985ntf    fn417766   3.344   2.462   6.414  0.1877  0.0269  0.1941
 2985ntf    fn417767   3.348   2.298   6.279  0.7979  0.0694 -0.1929
 2985ntf    fn417768   3.495   2.443   6.276  0.2170  0.3702  0.7143
 2985ntf    on517769   3.139   2.502   6.214  0.1734 -0.8972  0.7242
 2985ntf    on517770   3.325   2.663   6.213 -0.2732  0.0846 -0.0199
 2985ntf    on517771   3.559   2.434   5.961 -0.6612 -0.2065  0.6543
 2985ntf    on517772   3.477   2.663   5.941  0.2044  0.0249  0.3240
 2985ntf    fn417773   3.291   2.568   5.738 -0.2889 -0.2426 -0.2961
 2985ntf    fn417774   3.488   2.521   5.691  0.2226  0.4962  0.1825
 2985ntf    fn417775   3.351   2.372   5.753 -0.5736  0.5141 -0.3882
 2986ntf    cn117776   6.901   4.091   5.134  0.0260 -0.0103 -0.0248
 2986ntf    sn217777   6.804   4.207   5.033  0.2101  0.0955 -0.0828
 2986ntf    nn317778   6.851   4.348   5.082  0.1621  0.1041 -0.0612
 2986ntf    sn217779   6.993   4.414   5.068  0.0162  0.3503 -0.4209
 2986ntf    cn117780   6.943   4.575   5.002 -0.6323  0.3613  0.0853
 2986ntf    fn417781   7.008   4.037   5.077  0.3511 -0.0250  0.5892
 2986ntf    fn417782   6.933   4.142   5.252 -0.4178 -0.2608  0.2031
 2986ntf    fn417783   6.825   3.988   5.168 -0.0879  0.3418  0.8151
 2986ntf    on517784   6.824   4.179   4.893 -0.4462 -0.2196 -0.1180
 2986ntf    on517785   6.669   4.189   5.081  0.2050 -0.0355 -0.1469
 2986ntf    on517786   7.078   4.354   4.968  0.2254 -0.3182  0.1483
 2986ntf    on517787   7.056   4.449   5.193  0.1560 -1.1090 -0.0601
 2986ntf    fn417788   6.873   4.572   4.890 -0.5010  0.3727  0.0024
 2986ntf    fn417789   6.877   4.655   5.085 -0.3833  0.8094 -0.1471
 2986ntf    fn417790   7.050   4.646   4.971 -0.4896  0.2528  0.3284
 2987ntf    cn117791   2.804   7.090   1.612 -0.0684  0.0986  0.3662
 2987ntf    sn217792   2.646   7.001   1.635  0.0197 -0.2613 -0.3603
 2987ntf    nn317793   2.685   6.944   1.776 -0.2876 -0.4463 -0.3503
 2987ntf    sn217794   2.584   6.883   1.880 -0.0433 -0.1258  0.0788
 2987ntf    cn117795   2.608   6.704   1.856 -0.1610 -0.1226 -0.0589
 2987ntf    fn417796   2.817   7.177   1.710 -0.2182  0.0376  0.4408
 2987ntf    fn417797   2.906   7.009   1.633  0.2787  0.3444 -0.3344
 2987ntf    fn417798   2.827   7.146   1.494 -0.2699  1.0088  0.7555
 2987ntf    on517799   2.547   7.106   1.636  0.1556 -0.1323 -0.0947
 2987ntf    on517800   2.646   6.914   1.520 -0.3711 -0.7351 -0.0059
 2987ntf    on517801   2.442   6.893   1.860 -0.0891 -0.3855  0.2696
 2987ntf    on517802   2.630   6.907   2.015 -0.6224 -0.4786  0.3395
 2987ntf    fn417803   2.546   6.668   1.744 -0.1643 -0.0876 -0.0683
 2987ntf    fn417804   2.736   6.680   1.831 -0.1439  0.0417 -0.1369
 2987ntf    fn417805   2.572   6.615   1.946 -0.7140  0.1634  0.0091
 2988ntf    cn117806   5.296   1.398   0.607  0.2155 -0.1063 -0.6380
 2988ntf    sn217807   5.348   1.572   0.627  0.1007 -0.1560  0.1458
 2988ntf    nn317808   5.297   1.632   0.491  0.2891 -0.1289  0.0874
 2988ntf    sn217809   5.155   1.680   0.444  0.3680  0.2661  0.2453
 2988ntf    cn117810   5.183   1.858   0.469 -0.0952  0.3199  0.3853
 2988ntf    fn417811   5.171   1.383   0.568  0.0881  0.0843 -0.3102
 2988ntf    fn417812   5.380   1.339   0.524  0.2066 -0.8734 -0.1100
 2988ntf    fn417813   5.305   1.333   0.722  0.0099  0.5733 -0.2314
 2988ntf    on517814   5.284   1.620   0.747  0.4476  0.3788  0.1168
 2988ntf    on517815   5.492   1.569   0.628  0.1314  0.7728 -0.2512
 2988ntf    on517816   5.038   1.642   0.520  0.1931  0.8103  0.2477
 2988ntf    on517817   5.138   1.680   0.301  0.3974  0.3890  0.2420
 2988ntf    fn417818   5.082   1.921   0.412  0.0241  0.0548 -0.1218
 2988ntf    fn417819   5.199   1.895   0.595 -0.1744 -0.1851  0.5458
 2988ntf    fn417820   5.293   1.896   0.407  0.2957 -0.5341  0.5352
 2989ntf    cn117821   4.010   5.416   2.782  0.2405 -0.0800 -0.2113
 2989ntf    sn217822   3.962   5.242   2.798 -0.2721  0.0712 -0.0590
 2989ntf    nn317823   4.060   5.200   2.914 -0.4356  0.3258  0.1712
 2989ntf    sn217824   4.214   5.229   2.915 -0.3828  0.0426  0.1064
 2989ntf    cn117825   4.266   5.054   2.921 -0.0288  0.1240 -0.5271
 2989ntf    fn417826   4.074   5.464   2.888  0.0362 -0.4794  0.0940
 2989ntf    fn417827   4.092   5.442   2.682  0.1929 -0.4401 -0.3443
 2989ntf    fn417828   3.902   5.492   2.768  0.3829  0.1971  0.1777
 2989ntf    on517829   3.826   5.248   2.845 -0.4624  0.1082 -0.6197
 2989ntf    on517830   3.982   5.185   2.667 -0.5501  0.3634 -0.2290
 2989ntf    on517831   4.261   5.291   3.037  0.0054 -0.6811  0.3336
 2989ntf    on517832   4.266   5.273   2.789  0.4033 -0.1884  0.3425
 2989ntf    fn417833   4.252   4.983   3.032 -0.4414 -0.5398 -0.9993
 2989ntf    fn417834   4.197   4.996   2.825  0.0466 -0.2842 -0.3339
 2989ntf    fn417835   4.395   5.051   2.891  0.1882  0.1266  0.3683
 2990ntf    cn117836   1.288   3.915   4.584  0.5955 -0.1172 -0.1633
 2990ntf    sn217837   1.152   3.900   4.704  0.1505  0.3533 -0.6048
 2990ntf    nn317838   1.027   3.876   4.612  0.2871 -0.3753 -0.6027
 2990ntf    sn217839   0.937   3.979   4.535 -0.0202 -0.0827  0.1386
 2990ntf    cn117840   0.815   4.019   4.664 -0.2891 -0.0864 -0.1136
 2990ntf    fn417841   1.402   3.902   4.650  0.6536  0.5423 -0.1277
 2990ntf    fn417842   1.290   3.819   4.493 -0.1595 -0.5390  0.2530
 2990ntf    fn417843   1.282   4.027   4.513  0.4600  0.5155  0.8247
 2990ntf    on517844   1.187   3.780   4.776 -0.7281  0.1843 -0.4559
 2990ntf    on517845   1.151   4.025   4.777  0.4394 -0.1320  0.2346
 2990ntf    on517846   0.851   3.911   4.442 -0.3054 -0.5207  0.7142
 2990ntf    on517847   0.999   4.099   4.485 -0.7976  0.1963 -0.1617
 2990ntf    fn417848   0.732   4.115   4.629  0.5765  0.4996 -0.5875
 2990ntf    fn417849   0.728   3.925   4.698  0.4518 -0.7562 -0.0332
 2990ntf    fn417850   0.875   4.068   4.772  0.2543  0.2831 -0.5762
 2991ntf    cn117851   2.799   1.074   0.517  0.3240  0.3388  0.1798
 2991ntf    sn217852   2.698   0.936   0.579  0.2704  0.2573 -0.0842
 2991ntf    nn317853   2.673   0.991   0.724 -0.0045 -0.4885  0.1559
 2991ntf    sn217854   2.541   1.005   0.808 -0.0571  0.1699 -0.0291
 2991ntf    cn117855   2.475   1.170   0.770  0.2353  0.3396  0.1911
 2991ntf    fn417856   2.732   1.138   0.422 -0.7174 -0.0876  0.6131
 2991ntf    fn417857   2.831   1.158   0.614  0.1076 -0.2275  0.7431
 2991ntf    fn417858   2.912   1.030   0.465 -0.0252  0.4128 -0.6599
 2991ntf    on517859   2.583   0.946   0.494 -0.0703  0.2930  0.3773
 2991ntf    on517860   2.785   0.821   0.585  0.0981  0.1270 -0.0878
 2991ntf    on517861   2.580   1.024   0.946 -0.3902 -0.4176  0.1481
 2991ntf    on517862   2.436   0.910   0.781 -0.4285  0.5934 -0.0832
 2991ntf    fn417863   2.544   1.269   0.824 -0.4210  0.8234  0.1498
 2991ntf    fn417864   2.481   1.178   0.638 -0.7697 -0.0294  0.1184
 2991ntf    fn417865   2.346   1.181   0.798 -0.0752 -0.8979 -0.6558
 2992ntf    cn117866   1.080   1.790   2.555  0.3827  0.1436 -0.1996
 2992ntf    sn217867   0.901   1.765   2.569  0.3276  0.4466 -0.3567
 2992ntf    nn317868   0.858   1.903   2.629  0.2678  0.2398  0.0810
 2992ntf    sn217869   0.821   2.046   2.576  0.3361  0.1996 -0.0747
 2992ntf    cn117870   0.639   2.035   2.570  0.3320 -0.2849  0.8235
 2992ntf    fn417871   1.138   1.806   2.672 -0.1803 -0.4114  0.1614
 2992ntf    fn417872   1.133   1.685   2.493  0.0339 -0.3223  0.2835
 2992ntf    fn417873   1.099   1.895   2.477 -0.1480 -0.0624 -0.6117
 2992ntf    on517874   0.858   1.744   2.433  0.1178  0.0428 -0.2306
 2992ntf    on517875   0.886   1.655   2.661  0.4208  0.2919 -0.5231
 2992ntf    on517876   0.858   2.071   2.439  0.3493  0.7178  0.0210
 2992ntf    on517877   0.843   2.150   2.673  0.3996 -0.1498  0.2879
 2992ntf    fn417878   0.583   2.148   2.609  0.1702 -0.0294 -0.1159
 2992ntf    fn417879   0.594   2.016   2.447 -0.3458  0.5482  0.9348
 2992ntf    fn417880   0.595   1.939   2.650  0.1178 -0.0642  0.9688
 2993ntf    cn117881   0.595   2.125   3.977 -0.1017 -0.2964 -0.0712
 2993ntf    sn217882   0.658   2.245   4.098 -0.2326 -0.2015 -0.0973
 2993ntf    nn317883   0.707   2.155   4.217 -0.0321  0.1171  0.0654
 2993ntf    sn217884   0.717   2.176   4.372 -0.1914 -0.0454  0.0982
 2993ntf    cn117885   0.561   2.088   4.405  0.0551 -0.6150 -0.2427
 2993ntf    fn417886   0.496   2.054   4.028 -0.2636  0.2981  0.4570
 2993ntf    fn417887   0.553   2.178   3.863  0.0915  0.1526  0.0634
 2993ntf    fn417888   0.688   2.034   3.953 -0.0183 -0.2077 -0.0877
 2993ntf    on517889   0.758   2.324   4.031 -0.3855  0.2661  0.2208
 2993ntf    on517890   0.536   2.319   4.121 -0.1086 -0.0741  0.1651
 2993ntf    on517891   0.693   2.310   4.417  0.0787  0.2189 -0.5329
 2993ntf    on517892   0.818   2.101   4.444  0.0778 -0.0252 -0.2572
 2993ntf    fn417893   0.543   1.975   4.339  0.3498 -0.7403 -0.1094
 2993ntf    fn417894   0.533   2.066   4.532  0.0719 -0.1209 -0.1540
 2993ntf    fn417895   0.455   2.161   4.376  0.1911 -0.2592  0.1480
 2994ntf    cn117896   1.722   0.521   0.866  0.4405  0.4591  0.5091
 2994ntf    sn217897   1.597   0.524   0.734  0.7399  0.2531  0.2181
 2994ntf    nn317898   1.651   0.648   0.655 -0.5381  0.3496 -0.5299
 2994ntf    sn217899   1.729   0.662   0.519  0.0111 -0.1833 -0.2730
 2994ntf    cn117900   1.597   0.657   0.395 -0.0235 -0.2041 -0.2354
 2994ntf    fn417901   1.690   0.622   0.945 -0.0974  0.3145  0.4814
 2994ntf    fn417902   1.718   0.416   0.946  0.1062  0.1973  0.1544
 2994ntf    fn417903   1.847   0.548   0.831  0.4165  0.0067  0.0584
 2994ntf    on517904   1.600   0.398   0.666  0.6963  0.3726 -0.0052
 2994ntf    on517905   1.472   0.555   0.799  0.4740 -0.2159 -0.0717
 2994ntf    on517906   1.823   0.559   0.484  0.3485  0.0959 -0.1927
 2994ntf    on517907   1.777   0.798   0.520  0.2024 -0.2507  0.0227
 2994ntf    fn417908   1.510   0.754   0.419  0.5094  0.1880  0.1271
 2994ntf    fn417909   1.638   0.678   0.271  0.3760  0.7930  0.0556
 2994ntf    fn417910   1.531   0.543   0.394 -0.4060  0.0119  0.0629
 2995ntf    cn117911   6.032   5.211   2.505  0.0317  0.4800 -0.0792
 2995ntf    sn217912   6.040   5.307   2.351 -0.4038  0.1411 -0.3165
 2995ntf    nn317913   5.993   5.446   2.407 -0.4676  0.1380 -0.3614
 2995ntf    sn217914   6.083   5.568   2.446  0.0284 -0.3450  0.0235
 2995ntf    cn117915   6.110   5.637   2.281  0.0629  0.1693  0.2419
 2995ntf    fn417916   6.116   5.253   2.598 -0.4813  0.2744  0.4880
 2995ntf    fn417917   5.907   5.213   2.550 -0.0599  0.2491 -0.3168
 2995ntf    fn417918   6.063   5.085   2.483  0.1117  0.4940 -0.0460
 2995ntf    on517919   6.176   5.285   2.309 -0.1253  0.5782  0.3453
 2995ntf    on517920   5.934   5.235   2.285 -0.6948 -0.2218  0.5358
 2995ntf    on517921   6.207   5.531   2.510 -0.1186  0.2132  0.6506
 2995ntf    on517922   5.997   5.663   2.514  1.0014  0.5845 -0.0188
 2995ntf    fn417923   5.999   5.624   2.211 -0.1984  0.2233  0.6493
 2995ntf    fn417924   6.137   5.767   2.285  0.5991  0.1008 -0.7755
 2995ntf    fn417925   6.198   5.566   2.212 -0.4715 -0.3573  0.1069
 2996ntf    cn117926   0.563   6.031   6.779  0.3857 -0.0479  0.1201
 2996ntf    sn217927   0.441   6.017   6.644  0.0660 -0.2856  0.4317
 2996ntf    nn317928   0.429   6.165   6.592  0.1956 -0.2590  0.4772
 2996ntf    sn217929   0.346   6.286   6.648  0.0222 -0.2269  0.1496
 2996ntf    cn117930   0.470   6.413   6.687 -0.0893 -0.0835  0.0376
 2996ntf    fn417931   0.686   6.065   6.742  0.3359 -0.0404 -0.0410
 2996ntf    fn417932   0.527   6.109   6.879  0.0597 -0.7344  0.5488
 2996ntf    fn417933   0.589   5.914   6.835 -0.1263 -0.1188  0.2102
 2996ntf    on517934   0.499   5.925   6.550 -0.4044 -0.5811  0.4286
 2996ntf    on517935   0.322   5.976   6.715 -0.4038  0.0336 -0.1639
 2996ntf    on517936   0.297   6.255   6.780  0.2102 -0.3351  0.1946
 2996ntf    on517937   0.255   6.354   6.559 -0.0149  0.0026  0.3648
 2996ntf    fn417938   0.416   6.524   6.735  0.2830  0.1661 -0.1158
 2996ntf    fn417939   0.558   6.373   6.777  0.0489 -0.5927 -0.3190
 2996ntf    fn417940   0.535   6.459   6.581  0.3158  0.0610  0.3497
 2997ntf    cn117941   3.710   3.031   3.942 -0.4654  0.4763 -0.3660
 2997ntf    sn217942   3.723   3.011   4.122  0.0055  0.1090 -0.4373
 2997ntf    nn317943   3.845   2.913   4.128  0.5374  0.7767 -0.2778
 2997ntf    sn217944   3.979   2.931   4.208  0.3882  0.2278  0.1012
 2997ntf    cn117945   4.085   3.029   4.098  0.3414 -0.1267 -0.2638
 2997ntf    fn417946   3.660   2.922   3.888 -0.3705  0.2418  0.0161
 2997ntf    fn417947   3.619   3.122   3.908 -0.3112  0.7047 -0.1740
 2997ntf    fn417948   3.829   3.045   3.885 -0.2424  0.2167  0.0321
 2997ntf    on517949   3.749   3.145   4.168 -0.0745  0.0252 -0.1438
 2997ntf    on517950   3.600   2.939   4.147 -0.1491  0.5123 -0.0082
 2997ntf    on517951   4.052   2.807   4.217  0.2507  0.0985 -0.5394
 2997ntf    on517952   3.970   2.996   4.336  0.6074 -0.2332  0.3543
 2997ntf    fn417953   4.016   3.132   4.051  0.2771 -0.0795 -0.0661
 2997ntf    fn417954   4.184   3.090   4.161  0.3825 -0.2071 -0.2499
 2997ntf    fn417955   4.126   2.959   3.993 -0.1378 -0.2450 -0.3706
 2998ntf    cn117956   7.115   3.762   4.289  0.1729  0.1478 -0.0619
 2998ntf    sn217957   7.017   3.790   4.138  0.4755 -0.1950 -0.3265
 2998ntf    nn317958   6.876   3.747   4.194  0.6849  0.1618  0.4963
 2998ntf    sn217959   6.739   3.820   4.222  0.4263 -0.2637  0.3422
 2998ntf    cn117960   6.659   3.788   4.062 -0.1525 -0.1809  0.6128
 2998ntf    fn417961   7.087   3.846   4.387 -0.3818  0.4117 -0.4399
 2998ntf    fn417962   7.103   3.638   4.332 -0.8351  0.1784 -0.2356
 2998ntf    fn417963   7.244   3.782   4.267  0.1444  0.4552  0.0461
 2998ntf    on517964   7.038   3.933   4.131 -0.4643  0.0137  0.6762
 2998ntf    on517965   7.082   3.696   4.051  0.3237 -0.4273 -0.1888
 2998ntf    on517966   6.757   3.962   4.237  0.3497 -0.2021 -0.1406
 2998ntf    on517967   6.660   3.752   4.321  0.0471 -0.1115  0.1445
 2998ntf    fn417968   6.653   3.658   4.038 -0.1175 -0.0584 -0.0987
 2998ntf    fn417969   6.535   3.834   4.061  0.0822  0.4732  0.7710
 2998ntf    fn417970   6.734   3.846   3.970 -0.6207 -0.6832 -0.0943
 2999ntf    cn117971   4.464   1.914   0.962  0.5092 -0.3090  0.3803
 2999ntf    sn217972   4.584   2.017   0.872 -0.2572 -0.0208 -0.3293
 2999ntf    nn317973   4.704   1.993   0.970 -0.5995  0.1047  0.1238
 2999ntf    sn217974   4.749   2.084   1.090 -0.0318  0.1382 -0.1107
 2999ntf    cn117975   4.824   2.212   0.985 -0.4950  0.2747 -0.2789
 2999ntf    fn417976   4.347   1.894   0.902  0.4610  0.6292  0.1381
 2999ntf    fn417977   4.504   1.797   1.006  0.0015 -0.5000  0.3444
 2999ntf    fn417978   4.434   1.967   1.079 -0.4025 -0.4326  0.2139
 2999ntf    on517979   4.603   1.949   0.747  0.4815 -0.0523 -0.2022
 2999ntf    on517980   4.520   2.147   0.868  0.0687  0.1475 -0.1093
 2999ntf    on517981   4.864   2.040   1.164  0.0617 -0.1582 -0.4310
 2999ntf    on517982   4.652   2.160   1.165  0.0860  0.3082 -0.1329
 2999ntf    fn417983   4.750   2.319   0.963 -0.8680  0.0754 -0.0082
 2999ntf    fn417984   4.936   2.258   1.039 -0.3238 -0.3741 -0.0733
 2999ntf    fn417985   4.858   2.176   0.863  0.7710  0.2266  0.0801
 3000ntf    cn117986   2.278   4.840   6.880  0.1593  0.1699 -0.0470
 3000ntf    sn217987   2.209   4.797   7.043 -0.2799  0.0230 -0.2709
 3000ntf    nn317988   2.314   4.861   7.140 -0.3218 -0.0251 -0.1943
 3000ntf    sn217989   2.446   4.790   7.187 -0.3617 -0.1307 -0.2427
 3000ntf    cn117990   2.396   4.734   7.353  0.0286 -0.1955 -0.1476
 3000ntf    fn417991   2.298   4.970   6.863  0.0560  0.1861 -0.0446
 3000ntf    fn417992   2.392   4.779   6.853  0.2366  0.3384 -0.1080
 3000ntf    fn417993   2.201   4.796   6.782 -0.2029  0.6685  0.0078
 3000ntf    on517994   2.088   4.875   7.039  0.0454  0.5400 -0.1087
 3000ntf    on517995   2.194   4.654   7.038 -0.3469  0.0269 -0.1737
 3000ntf    on517996   2.544   4.891   7.218 -0.0933 -0.6003  0.4637
 3000ntf    on517997   2.485   4.668   7.122 -0.3593 -0.2074 -0.0979
 3000ntf    fn417998   2.270   4.695   7.363 -0.0941  0.2860  0.2120
 3000ntf    fn417999   2.463   4.626   7.390  0.1725  0.1374  0.5687
 3000ntf    fn418000   2.407   4.819   7.453 -0.0579  0.3282 -0.5793
 3001ntf    cn118001   1.858   4.302   6.707  0.0762 -0.0491  0.3645
 3001ntf    sn218002   1.682   4.337   6.730  0.0744  0.0599  0.1861
 3001ntf    nn318003   1.655   4.309   6.882  0.1278 -0.7820  0.0403
 3001ntf    sn218004   1.518   4.254   6.938 -0.0646  0.2794  0.6343
 3001ntf    cn118005   1.570   4.227   7.110  0.2849 -0.2768  0.4438
 3001ntf    fn418006   1.889   4.174   6.721  0.0023 -0.0877  0.1684
 3001ntf    fn418007   1.891   4.339   6.584  1.0337  0.1133  0.6571
 3001ntf    fn418008   1.944   4.369   6.783  0.3530 -0.0784  0.0786
 3001ntf    on518009   1.676   4.478   6.699  0.3690 -0.0386 -0.3226
 3001ntf    on518010   1.621   4.253   6.630  0.2076  0.0592  0.1052
 3001ntf    on518011   1.474   4.126   6.890  0.3712  0.3433  0.0410
 3001ntf    on518012   1.420   4.360   6.940 -0.1940  0.1872 -0.3756
 3001ntf    fn418013   1.620   4.342   7.153  0.0722 -0.1028  0.2310
 3001ntf    fn418014   1.467   4.200   7.188  0.1673 -0.2688  0.2936
 3001ntf    fn418015   1.665   4.136   7.128  0.5188 -0.0726  0.2512
 3002ntf    cn118016   4.888   6.830   3.212  0.0081  0.2187 -0.4399
 3002ntf    sn218017   4.920   6.887   3.382 -0.0584 -0.3030 -0.2505
 3002ntf    nn318018   4.881   6.767   3.475 -0.3282  0.1405  0.2138
 3002ntf    sn218019   4.787   6.744   3.599  0.0682  0.1805  0.5254
 3002ntf    cn118020   4.923   6.746   3.719  0.1812  0.4120  0.3954
 3002ntf    fn418021   4.888   6.932   3.128 -0.6141  0.0453 -0.6503
 3002ntf    fn418022   4.981   6.743   3.178  0.6664  0.7290  0.0163
 3002ntf    fn418023   4.771   6.770   3.209  0.0249  0.1521  0.0925
 3002ntf    on518024   5.062   6.916   3.382 -0.1346  0.1079 -1.0303
 3002ntf    on518025   4.822   6.993   3.390  0.4633  0.1206  0.7187
 3002ntf    on518026   4.720   6.616   3.601  0.9818 -0.3032  0.7347
 3002ntf    on518027   4.711   6.859   3.640 -0.6469 -0.0144 -0.2038
 3002ntf    fn418028   5.038   6.711   3.663  0.1864  0.9597  0.0661
 3002ntf    fn418029   4.951   6.861   3.777  0.9675  0.0350  0.7869
 3002ntf    fn418030   4.896   6.669   3.823  0.2341  0.4487  0.4361
 3003ntf    cn118031   3.834   2.454   5.077 -0.0903  0.3461 -0.0293
 3003ntf    sn218032   3.888   2.413   4.908 -0.0815 -0.1261  0.0854
 3003ntf    nn318033   4.026   2.344   4.938 -0.0662 -0.2121 -0.1799
 3003ntf    sn218034   4.163   2.356   4.863  0.0581 -0.0773  0.0685
 3003ntf    cn118035   4.236   2.504   4.937 -0.1970  0.3786 -0.5874
 3003ntf    fn418036   3.805   2.341   5.141 -0.2451  0.3015 -0.1753
 3003ntf    fn418037   3.933   2.507   5.147 -0.1514 -0.1826  0.4687
 3003ntf    fn418038   3.730   2.535   5.072 -0.4174 -0.1018 -0.7868
 3003ntf    on518039   3.791   2.320   4.856 -0.1520  0.0291 -0.0596
 3003ntf    on518040   3.886   2.546   4.853  0.0047 -0.2696 -0.2671
 3003ntf    on518041   4.156   2.389   4.723 -0.5371  0.3503  0.1942
 3003ntf    on518042   4.249   2.244   4.893  0.3194  0.1844  0.2926
 3003ntf    fn418043   4.273   2.493   5.063 -0.8061  0.2797 -0.4138
 3003ntf    fn418044   4.342   2.550   4.872  1.0837 -0.1912  1.0345
 3003ntf    fn418045   4.149   2.604   4.932 -0.1128  0.5147  0.4212
 3004ntf    cn118046   1.412   6.175   5.663 -0.3508  0.3663 -0.2623
 3004ntf    sn218047   1.279   6.054   5.690  0.0879 -0.0802 -0.0939
 3004ntf    nn318048   1.304   5.992   5.833 -0.2069 -0.5981 -0.2639
 3004ntf    sn218049   1.193   5.963   5.940 -0.0766 -0.1093  0.0058
 3004ntf    cn118050   1.233   5.795   5.994  0.0402 -0.3261 -0.7442
 3004ntf    fn418051   1.392   6.232   5.546 -0.4322 -0.0062 -0.4313
 3004ntf    fn418052   1.425   6.259   5.764 -0.3753 -0.3648  0.3623
 3004ntf    fn418053   1.527   6.110   5.654 -0.5533 -0.1010  0.4419
 3004ntf    on518054   1.159   6.132   5.675 -0.1033 -0.4053 -0.2722
 3004ntf    on518055   1.306   5.960   5.584 -0.4121  0.2212 -0.4900
 3004ntf    on518056   1.053   5.960   5.905  0.0423  1.0166 -0.6112
 3004ntf    on518057   1.220   6.042   6.058  0.2992 -0.1869 -0.0267
 3004ntf    fn418058   1.353   5.794   6.050 -0.2895  0.2327 -0.0065
 3004ntf    fn418059   1.151   5.737   6.082  0.2175  0.0095 -0.3569
 3004ntf    fn418060   1.223   5.710   5.893 -0.1508 -0.2376 -0.8019
 3005ntf    cn118061   6.000   0.467   3.920  0.6800  0.0797  0.0576
 3005ntf    sn218062   5.834   0.452   3.991  0.5730  0.2124 -0.1596
 3005ntf    nn318063   5.764   0.579   3.931  0.0610  0.0092 -0.0017
 3005ntf    sn218064   5.681   0.578   3.798 -0.1594  0.5516  0.1322
 3005ntf    cn118065   5.529   0.526   3.882 -0.2047  0.0240 -0.2732
 3005ntf    fn418066   6.087   0.378   3.966  0.3156 -0.0379  0.5170
 3005ntf    fn418067   6.003   0.466   3.787 -0.0187 -0.0120  0.0430
 3005ntf    fn418068   6.052   0.586   3.948  0.2484  0.3643 -0.3300
 3005ntf    on518069   5.775   0.326   3.954 -0.3281  0.4813  0.3297
 3005ntf    on518070   5.866   0.473   4.130 -0.1547  0.1115  0.0276
 3005ntf    on518071   5.712   0.481   3.696 -0.9016 -0.1572  0.5811
 3005ntf    on518072   5.645   0.709   3.749 -0.0131  0.2175 -0.8995
 3005ntf    fn418073   5.432   0.484   3.802 -0.7788  0.4845  0.1690
 3005ntf    fn418074   5.560   0.432   3.969 -0.4688 -0.1687 -0.3855
 3005ntf    fn418075   5.477   0.628   3.949 -0.1699 -0.1059 -0.0500
 3006ntf    cn118076   5.706   1.638   1.268 -0.1183 -0.1620  0.2097
 3006ntf    sn218077   5.766   1.650   1.439  0.1359 -0.0260  0.1110
 3006ntf    nn318078   5.632   1.695   1.507 -0.0473 -0.1872 -0.1457
 3006ntf    sn218079   5.536   1.619   1.605 -0.0744 -0.0489 -0.0656
 3006ntf    cn118080   5.618   1.662   1.762 -0.3221  0.5591 -0.0981
 3006ntf    fn418081   5.697   1.761   1.221  0.2716 -0.2036  0.0200
 3006ntf    fn418082   5.787   1.562   1.196  0.0555  0.0444  0.1858
 3006ntf    fn418083   5.584   1.589   1.255  0.1568 -0.6809 -0.4637
 3006ntf    on518084   5.811   1.517   1.470  0.9172  0.2506  0.2053
 3006ntf    on518085   5.861   1.759   1.439 -0.4830  0.5224 -0.0101
 3006ntf    on518086   5.538   1.475   1.596  0.3424 -0.0531  0.0606
 3006ntf    on518087   5.408   1.681   1.631 -0.2371 -0.0986 -0.7480
 3006ntf    fn418088   5.549   1.612   1.864  0.0996  0.0606 -0.0489
 3006ntf    fn418089   5.738   1.607   1.772 -0.4180  0.4244  0.3464
 3006ntf    fn418090   5.634   1.792   1.777 -0.6887  0.6644 -0.6054
 3007ntf    cn118091   5.855   6.936   5.668  0.0826  0.4031  0.2222
 3007ntf    sn218092   5.780   6.948   5.833 -0.3929  0.0272  0.0357
 3007ntf    nn318093   5.651   6.859   5.832  0.0323 -0.5937 -0.4812
 3007ntf    sn218094   5.511   6.882   5.765 -0.3030 -0.4539  0.2549
 3007ntf    cn118095   5.418   6.956   5.903  0.2449  0.3099  0.2179
 3007ntf    fn418096   5.774   6.968   5.569 -0.3088 -0.2707  0.3211
 3007ntf    fn418097   5.951   7.026   5.650  0.5481 -0.2319 -0.5106
 3007ntf    fn418098   5.908   6.816   5.649 -0.3081  0.2243  0.2547
 3007ntf    on518099   5.880   6.875   5.908 -0.0902 -0.4179 -0.7883
 3007ntf    on518100   5.744   7.083   5.867 -0.2859 -0.0691  0.5456
 3007ntf    on518101   5.438   6.759   5.750 -0.9045 -0.0762  0.0697
 3007ntf    on518102   5.498   6.976   5.657 -0.4266 -0.7772 -0.0152
 3007ntf    fn418103   5.308   7.012   5.856  0.3973  0.4554  0.0332
 3007ntf    fn418104   5.381   6.858   5.984 -0.7368 -0.1048 -0.7015
 3007ntf    fn418105   5.480   7.046   5.978  0.0938  0.4320  0.1983
 3008ntf    cn118106   6.637   6.690   3.230 -0.0994 -0.0066  0.2974
 3008ntf    sn218107   6.809   6.673   3.285 -0.1000 -0.0145  0.2975
 3008ntf    nn318108   6.830   6.804   3.369  0.4269 -0.0560  0.2331
 3008ntf    sn218109   6.891   6.938   3.313  0.3183 -0.1531 -0.1214
 3008ntf    cn118110   7.052   6.954   3.396 -0.1136  0.5698  0.5885
 3008ntf    fn418111   6.591   6.577   3.179  0.0813  0.0213  0.0723
 3008ntf    fn418112   6.550   6.723   3.323 -0.6464  0.3409 -0.3260
 3008ntf    fn418113   6.625   6.788   3.141 -0.2875 -0.4714 -0.1976
 3008ntf    on518114   6.795   6.554   3.364  0.0325 -0.2060  0.0342
 3008ntf    on518115   6.883   6.654   3.163 -0.5797 -0.5345  0.0852
 3008ntf    on518116   6.814   7.043   3.375 -0.0902 -0.4052 -0.2018
 3008ntf    on518117   6.917   6.939   3.171 -0.8591 -0.2922 -0.3482
 3008ntf    fn418118   7.035   6.959   3.528 -0.5198  0.6003  0.5380
 3008ntf    fn418119   7.128   6.848   3.377 -0.5988  0.3231  0.0218
 3008ntf    fn418120   7.128   7.053   3.352  0.5029 -0.1492  0.0057
 3009ntf    cn118121   5.656   5.678   2.147 -0.3186  0.2152  0.1478
 3009ntf    sn218122   5.549   5.682   1.999  0.0505  0.2871 -0.1186
 3009ntf    nn318123   5.621   5.573   1.913 -0.2530  0.1213 -0.1628
 3009ntf    sn218124   5.746   5.591   1.818 -0.1028  0.0722  0.0258
 3009ntf    cn118125   5.802   5.419   1.797 -0.2040  0.0499 -0.0587
 3009ntf    fn418126   5.779   5.726   2.135 -0.3255  0.1754 -0.0844
 3009ntf    fn418127   5.605   5.730   2.257 -0.6746  0.1135  0.0326
 3009ntf    fn418128   5.687   5.554   2.183 -0.0510  0.3455  0.3614
 3009ntf    on518129   5.423   5.638   2.053 -0.2290  1.2954  0.0781
 3009ntf    on518130   5.566   5.818   1.954  0.1654  0.3008 -0.0386
 3009ntf    on518131   5.863   5.651   1.877 -0.0528  0.0445 -0.0463
 3009ntf    on518132   5.701   5.636   1.689 -0.1121 -0.4550 -0.1550
 3009ntf    fn418133   5.710   5.331   1.760 -0.6052  0.4129  0.0647
 3009ntf    fn418134   5.886   5.408   1.696  0.0160  0.5559  0.0651
 3009ntf    fn418135   5.868   5.373   1.901  0.0783 -0.2820 -0.3836
 3010ntf    cn118136   2.181   4.605   2.179 -0.6748 -0.2047 -0.0706
 3010ntf    sn218137   2.185   4.787   2.181  0.1540 -0.2192 -0.0488
 3010ntf    nn318138   2.170   4.816   2.028  0.3475  0.5947  0.0787
 3010ntf    sn218139   2.036   4.812   1.945  0.2011  0.2951  0.3250
 3010ntf    cn118140   1.992   4.986   1.973 -0.7707  0.1840 -0.4768
 3010ntf    fn418141   2.079   4.560   2.107 -0.0464 -0.2102 -0.9775
 3010ntf    fn418142   2.288   4.552   2.122 -0.5423 -0.4792  0.4282
 3010ntf    fn418143   2.182   4.555   2.301  0.6769  0.2714  0.1250
 3010ntf    on518144   2.081   4.819   2.276  0.2661  0.1393 -0.0455
 3010ntf    on518145   2.314   4.836   2.223 -0.0983  0.1230  0.3373
 3010ntf    on518146   1.922   4.756   2.012  0.0924  0.7522  0.5305
 3010ntf    on518147   2.044   4.793   1.803 -0.4742 -0.0767  0.3336
 3010ntf    fn418148   1.919   5.020   1.868 -0.0777  0.0043 -1.0161
 3010ntf    fn418149   1.935   5.010   2.090  0.0762  0.1763 -0.0612
 3010ntf    fn418150   2.094   5.071   1.972 -0.6796  0.0778 -0.1999
 3011ntf    cn118151   0.291   0.332   3.877  0.5530 -0.2357 -0.3816
 3011ntf    sn218152   0.455   0.410   3.886  0.3396  0.1901 -0.0887
 3011ntf    nn318153   0.481   0.439   3.733 -0.1841 -0.0047 -0.2184
 3011ntf    sn218154   0.492   0.571   3.649  0.0747 -0.0890 -0.3190
 3011ntf    cn118155   0.644   0.540   3.555  0.0483 -0.0837 -0.3633
 3011ntf    fn418156   0.270   0.246   3.975 -0.2647 -0.4874 -0.7661
 3011ntf    fn418157   0.185   0.411   3.887  0.6704 -0.1695  0.3745
 3011ntf    fn418158   0.274   0.264   3.765  0.3222  0.0317 -0.5126
 3011ntf    on518159   0.434   0.529   3.963  0.3188  0.1465 -0.0271
 3011ntf    on518160   0.540   0.308   3.943  0.3836  0.1280 -0.2642
 3011ntf    on518161   0.518   0.689   3.728  0.0112 -0.4738  0.2892
 3011ntf    on518162   0.377   0.570   3.562 -0.3915  0.5606  0.2837
 3011ntf    fn418163   0.751   0.510   3.627 -0.5625 -0.8692  0.2347
 3011ntf    fn418164   0.636   0.435   3.474  0.5885 -0.1515 -0.3314
 3011ntf    fn418165   0.689   0.641   3.482  0.1383  0.2094  0.0966
 3012ntf    cn118166   6.602   2.578   0.345 -0.3064 -0.0024  0.2522
 3012ntf    sn218167   6.612   2.689   0.489 -0.0310  0.2731  0.0230
 3012ntf    nn318168   6.750   2.647   0.552 -0.0276 -0.3427 -0.3882
 3012ntf    sn218169   6.789   2.613   0.700  0.3350  0.1732 -0.3654
 3012ntf    cn118170   6.756   2.435   0.711 -0.2995  0.3223  0.1866
 3012ntf    fn418171   6.655   2.458   0.357  0.7649  0.3516 -0.7514
 3012ntf    fn418172   6.478   2.568   0.300 -0.0619 -0.0295 -0.4385
 3012ntf    fn418173   6.669   2.634   0.245 -0.0535 -0.4377  0.1755
 3012ntf    on518174   6.623   2.815   0.420 -0.1859 -0.0319 -0.5644
 3012ntf    on518175   6.498   2.656   0.570  0.1380 -0.2529  0.0550
 3012ntf    on518176   6.701   2.672   0.798 -0.1720 -0.2453 -0.5649
 3012ntf    on518177   6.932   2.624   0.721  0.3492 -0.1314 -0.3076
 3012ntf    fn418178   6.749   2.391   0.836 -0.0821 -0.1913  0.0192
 3012ntf    fn418179   6.636   2.405   0.665 -0.2336 -0.3572  0.4481
 3012ntf    fn418180   6.847   2.369   0.641  0.1217  0.2877  0.7607
 3013ntf    cn118181   4.046   1.185   6.921 -0.2361  0.0105  0.1049
 3013ntf    sn218182   4.197   1.149   7.016  0.0716  0.4766 -0.2035
 3013ntf    nn318183   4.123   1.120   7.152 -1.3947  0.7022 -0.9341
 3013ntf    sn218184   4.100   1.224   7.267 -0.3334  0.1984 -0.2522
 3013ntf    cn118185   4.258   1.229   7.356 -0.4524 -0.3839 -0.0058
 3013ntf    fn418186   3.976   1.280   6.981 -0.4259  0.2262 -0.4578
 3013ntf    fn418187   4.064   1.230   6.798  0.0543  0.2198  0.2218
 3013ntf    fn418188   3.966   1.081   6.906  0.0639 -0.0926 -0.8161
 3013ntf    on518189   4.226   1.023   6.954 -0.1525  0.2372  0.1695
 3013ntf    on518190   4.277   1.269   7.016  0.7067  0.0525  0.0016
 3013ntf    on518191   4.019   1.176   7.376  0.1787 -0.2864 -0.0825
 3013ntf    on518192   4.079   1.358   7.218 -0.2545  0.2147 -0.2412
 3013ntf    fn418193   4.338   1.125   7.339 -0.0903 -0.1692  0.3535
 3013ntf    fn418194   4.325   1.337   7.317  0.5099 -0.9358  0.0707
 3013ntf    fn418195   4.250   1.251   7.486 -0.2681 -0.1788 -0.0290
 3014ntf    cn118196   4.351   6.577   3.451  0.0537  0.0932  0.5526
 3014ntf    sn218197   4.191   6.597   3.535 -0.1527 -0.1195  0.2130
 3014ntf    nn318198   4.089   6.637   3.422 -0.2599  0.0769  0.3798
 3014ntf    sn218199   3.993   6.758   3.391  0.0109  0.1938 -0.0037
 3014ntf    cn118200   3.836   6.694   3.457 -0.0111 -0.1409 -0.3744
 3014ntf    fn418201   4.355   6.469   3.374 -0.7339  0.7245 -0.3967
 3014ntf    fn418202   4.375   6.681   3.374  0.1120 -0.1450  0.2455
 3014ntf    fn418203   4.444   6.561   3.543 -0.0242  0.4105  0.6870
 3014ntf    on518204   4.164   6.469   3.595  0.2288 -0.2332  0.1451
 3014ntf    on518205   4.224   6.711   3.617 -0.8802  0.7863 -0.7168
 3014ntf    on518206   3.980   6.779   3.249 -0.5079  0.4442  0.0782
 3014ntf    on518207   4.004   6.879   3.468  0.8924 -0.2073  0.5128
 3014ntf    fn418208   3.740   6.723   3.370 -0.1900  0.1578 -0.0784
 3014ntf    fn418209   3.837   6.565   3.486  0.7558 -0.0284  0.1255
 3014ntf    fn418210   3.809   6.760   3.568 -0.6261 -0.4226 -0.3570
 3015ntf    cn118211   6.877   1.612   5.472 -0.4744 -0.1464  0.0893
 3015ntf    sn218212   6.914   1.439   5.431  0.0169 -0.0319  0.0429
 3015ntf    nn318213   7.043   1.455   5.343  0.0159 -0.0224  0.0426
 3015ntf    sn218214   7.190   1.488   5.386  0.0021  0.0416  0.0384
 3015ntf    cn118215   7.254   1.320   5.413  0.1620  0.1290  0.2078
 3015ntf    fn418216   6.854   1.683   5.363 -0.5587 -0.0525  0.1682
 3015ntf    fn418217   6.770   1.626   5.549 -0.6468  0.6631 -0.2899
 3015ntf    fn418218   6.971   1.675   5.540 -0.4732 -0.0830  0.0288
 3015ntf    on518219   6.943   1.370   5.554 -0.2159 -0.4146 -0.1129
 3015ntf    on518220   6.807   1.382   5.353 -0.1529 -0.3426  0.5025
 3015ntf    on518221   7.209   1.556   5.513 -0.9025  0.6551 -0.1415
 3015ntf    on518222   7.270   1.542   5.279 -0.3523  0.4737 -0.0122
 3015ntf    fn418223   7.188   1.238   5.494  0.1308 -0.7837 -0.7328
 3015ntf    fn418224   7.253   1.261   5.295 -0.6509  0.6805 -0.0736
 3015ntf    fn418225   7.380   1.323   5.455  0.3258 -0.0046 -0.2752
 3016ntf    cn118226   5.647   3.438   4.679  0.1715  0.2793 -0.2256
 3016ntf    sn218227   5.500   3.337   4.645  0.1622  0.1256  0.2601
 3016ntf    nn318228   5.448   3.338   4.793  0.3255  0.3798  0.3152
 3016ntf    sn218229   5.444   3.230   4.908 -0.3124 -0.0010 -0.0598
 3016ntf    cn118230   5.267   3.233   4.948 -0.2837 -0.0031  0.0667
 3016ntf    fn418231   5.741   3.387   4.757 -0.3457  0.1828  0.3468
 3016ntf    fn418232   5.702   3.477   4.565  0.6087 -0.6647 -0.3459
 3016ntf    fn418233   5.612   3.552   4.737 -0.4576 -0.4101  0.7922
 3016ntf    on518234   5.418   3.415   4.555 -0.3847 -0.6005  0.1156
 3016ntf    on518235   5.553   3.209   4.604  0.0418  0.1452  0.0418
 3016ntf    on518236   5.491   3.275   5.037 -0.7048  1.1675 -0.3128
 3016ntf    on518237   5.457   3.091   4.871  1.0597  0.1109 -0.0772
 3016ntf    fn418238   5.229   3.130   5.022  0.3150 -0.0408  0.3289
 3016ntf    fn418239   5.237   3.344   5.013 -0.2515  0.0178  0.0457
 3016ntf    fn418240   5.187   3.234   4.843  0.2079  0.0565 -0.3144
 3017ntf    cn118241   4.830   3.164   5.054 -0.2512 -0.0991 -0.4163
 3017ntf    sn218242   4.738   3.011   5.024 -0.0384 -0.3857  0.3539
 3017ntf    nn318243   4.849   2.907   4.984  0.0383 -0.1956  0.0645
 3017ntf    sn218244   4.949   2.829   5.077  0.1015 -0.1855  0.0045
 3017ntf    cn118245   4.848   2.680   5.101  0.2167 -0.2556  0.0524
 3017ntf    fn418246   4.920   3.134   5.147 -0.4362 -0.5260 -0.3764
 3017ntf    fn418247   4.902   3.205   4.951  0.4791 -0.2141  0.0421
 3017ntf    fn418248   4.758   3.265   5.101 -0.2509 -0.2006 -0.1959
 3017ntf    on518249   4.667   2.986   5.146  0.2513 -0.6999  0.4610
 3017ntf    on518250   4.661   3.052   4.909  0.4475 -0.4125  0.0127
 3017ntf    on518251   4.966   2.872   5.214  0.1037  0.0476 -0.0678
 3017ntf    on518252   5.065   2.765   5.020  0.4497  0.0800  0.4011
 3017ntf    fn418253   4.718   2.702   5.090  0.0844 -0.9019  0.2666
 3017ntf    fn418254   4.872   2.593   5.005  0.4806  0.0460 -0.1569
 3017ntf    fn418255   4.870   2.628   5.221 -0.3487  0.3565  0.4300
 3018ntf    cn118256   2.649   5.528   2.635 -0.0756  0.0839  0.2734
 3018ntf    sn218257   2.721   5.671   2.720  0.1992  0.1704 -0.1047
 3018ntf    nn318258   2.781   5.592   2.841  0.4874  0.2245 -0.2123
 3018ntf    sn218259   2.722   5.565   2.984  0.0565  0.1991 -0.3934
 3018ntf    cn118260   2.745   5.385   2.991  0.2009  0.2400  0.2134
 3018ntf    fn418261   2.622   5.548   2.507 -0.1056 -0.2953  0.2190
 3018ntf    fn418262   2.739   5.431   2.637  0.7386  0.8220 -0.1443
 3018ntf    fn418263   2.533   5.487   2.685 -0.1856 -0.5326 -0.4575
 3018ntf    on518264   2.825   5.729   2.638 -0.5301  0.4858 -0.8194
 3018ntf    on518265   2.608   5.756   2.749  0.2391  0.3230 -0.3892
 3018ntf    on518266   2.579   5.582   2.988  0.1018  0.4950  0.1147
 3018ntf    on518267   2.801   5.610   3.096  0.0564 -0.2821 -0.1949
 3018ntf    fn418268   2.857   5.357   2.925 -0.0807 -0.2912 -0.0456
 3018ntf    fn418269   2.750   5.330   3.112 -0.3563 -0.3865 -0.0440
 3018ntf    fn418270   2.662   5.305   2.926  0.6628  0.1011 -0.2167
 3019ntf    cn118271   0.327   7.067   0.001  0.1011  0.7085  0.1113
 3019ntf    sn218272   0.411   7.120  -0.151  0.2738 -0.1320 -0.0901
 3019ntf    nn318273   0.428   7.273  -0.122  0.2686 -0.2079  0.3233
 3019ntf    sn218274   0.550   7.362  -0.165 -0.1324  0.1767 -0.0368
 3019ntf    cn118275   0.465   7.520  -0.192 -0.0856  0.1901 -0.1050
 3019ntf    fn418276   0.209   7.126   0.008 -0.1170  0.3006 -0.0763
 3019ntf    fn418277   0.311   6.936   0.007 -0.5116  0.7952  0.4569
 3019ntf    fn418278   0.387   7.113   0.109  0.2067  0.2434  0.2541
 3019ntf    on518279   0.529   7.037  -0.147  0.0138 -0.4747  0.6733
 3019ntf    on518280   0.321   7.096  -0.261 -0.5182 -0.3412  0.5978
 3019ntf    on518281   0.605   7.332  -0.295  0.2256 -0.2486  0.2101
 3019ntf    on518282   0.642   7.383  -0.055  0.0545 -0.1329 -0.1326
 3019ntf    fn418283   0.378   7.551  -0.097  0.3824  0.7691  0.1468
 3019ntf    fn418284   0.548   7.624  -0.196  0.1879 -0.0204  0.0982
 3019ntf    fn418285   0.392   7.526  -0.302 -0.2347  0.1335 -0.0098
 3020ntf    cn118286   4.575   0.341   2.101  0.5699 -0.3063  0.3062
 3020ntf    sn218287   4.657   0.479   2.186  0.1361 -0.0855  0.3710
 3020ntf    nn318288   4.720   0.398   2.305  0.3014 -0.6656 -0.1075
 3020ntf    sn218289   4.704   0.423   2.459  0.4181 -0.4012 -0.1374
 3020ntf    cn118290   4.564   0.316   2.503  0.0317  0.2314  0.1704
 3020ntf    fn418291   4.469   0.378   2.031  0.3550 -0.2295  0.6681
 3020ntf    fn418292   4.657   0.288   2.012  0.3355  0.6362 -0.4900
 3020ntf    fn418293   4.534   0.234   2.167  0.2980 -0.4108 -0.0290
 3020ntf    on518294   4.764   0.519   2.098 -0.0506 -0.6425 -0.1152
 3020ntf    on518295   4.551   0.573   2.214 -0.1396 -0.2258 -0.2028
 3020ntf    on518296   4.668   0.555   2.503  0.3288 -0.5460  0.2309
 3020ntf    on518297   4.815   0.363   2.529  0.0518 -0.4139  0.4361
 3020ntf    fn418298   4.594   0.188   2.489  0.2893  0.2748  0.3127
 3020ntf    fn418299   4.521   0.341   2.626 -0.1653  0.3266  0.0829
 3020ntf    fn418300   4.450   0.325   2.436  0.1512  0.1259 -0.0471
 3021ntf    cn118301   5.080   2.769   1.388 -0.2295  0.1366  0.3473
 3021ntf    sn218302   5.186   2.623   1.405 -0.0691  0.1505 -0.4649
 3021ntf    nn318303   5.221   2.585   1.257  0.1977  0.1036 -0.3912
 3021ntf    sn218304   5.352   2.519   1.202 -0.0628 -0.4995 -0.2901
 3021ntf    cn118305   5.291   2.459   1.042 -0.3675  0.2495 -0.4597
 3021ntf    fn418306   5.139   2.870   1.325  0.2856 -0.1798  0.3187
 3021ntf    fn418307   4.964   2.751   1.326  0.0898 -0.1862 -0.1620
 3021ntf    fn418308   5.051   2.814   1.509  0.2141  0.1227  0.4606
 3021ntf    on518309   5.289   2.669   1.496 -0.0049 -0.3627 -0.2761
 3021ntf    on518310   5.092   2.531   1.465  0.2151  0.3744  0.3459
 3021ntf    on518311   5.392   2.395   1.265 -0.1471 -0.1037  0.5521
 3021ntf    on518312   5.452   2.620   1.176 -0.4406 -0.0541 -0.0264
 3021ntf    fn418313   5.259   2.561   0.965  1.0660  0.4112 -0.8800
 3021ntf    fn418314   5.386   2.392   0.979 -0.0839  0.4335 -0.2286
 3021ntf    fn418315   5.191   2.373   1.056  0.0808 -0.1758  0.2298
 3022ntf    cn118316   1.432   5.437   5.826 -0.0777 -0.2500  0.0902
 3022ntf    sn218317   1.430   5.302   5.948 -0.2553 -0.1599  0.1884
 3022ntf    nn318318   1.580   5.286   5.990 -0.2440  0.5934  0.4599
 3022ntf    sn218319   1.651   5.302   6.129 -0.1438  0.4227  0.4282
 3022ntf    cn118320   1.754   5.442   6.076  0.3238  0.0780  0.4172
 3022ntf    fn418321   1.502   5.537   5.877 -0.1774  0.0076 -0.2708
 3022ntf    fn418322   1.477   5.396   5.709 -0.2442 -0.0272 -0.0528
 3022ntf    fn418323   1.307   5.471   5.800 -0.0544 -0.2226  0.0168
 3022ntf    on518324   1.343   5.354   6.051 -0.6875  0.8985 -0.6879
 3022ntf    on518325   1.377   5.199   5.863 -0.2774 -0.0929  0.1203
 3022ntf    on518326   1.750   5.198   6.150 -0.2196  0.3382  0.3674
 3022ntf    on518327   1.567   5.340   6.240 -0.4284 -0.0394  0.3760
 3022ntf    fn418328   1.833   5.408   5.975  0.3954  0.3334  0.3880
 3022ntf    fn418329   1.687   5.548   6.035  0.4874 -0.2960 -0.8860
 3022ntf    fn418330   1.836   5.484   6.171  0.1372 -0.1579  0.6843
 3023ntf    cn118331   5.138   5.019   1.198  0.0835 -0.0139  0.0539
 3023ntf    sn218332   5.030   5.026   1.345  0.0927  0.1452  0.0529
 3023ntf    nn318333   4.940   5.148   1.305  0.1963  0.0867 -0.3674
 3023ntf    sn218334   4.812   5.134   1.215  0.0790 -0.0243 -0.1857
 3023ntf    cn118335   4.861   5.260   1.093 -0.7839  0.0105 -0.5014
 3023ntf    fn418336   5.072   5.005   1.084 -0.0736 -0.4858  0.1998
 3023ntf    fn418337   5.213   5.127   1.193  0.1359 -0.0631 -0.2280
 3023ntf    fn418338   5.216   4.915   1.220 -0.0993 -0.1400  0.1167
 3023ntf    on518339   4.975   4.893   1.347 -0.3354  0.3309  0.8164
 3023ntf    on518340   5.128   5.057   1.446 -0.0434 -0.0133  0.2345
 3023ntf    on518341   4.696   5.205   1.262 -0.4341 -0.5198 -0.6912
 3023ntf    on518342   4.797   5.021   1.127 -0.8474  0.1595 -0.2702
 3023ntf    fn418343   4.986   5.262   1.049 -0.9442  0.3739 -0.9405
 3023ntf    fn418344   4.793   5.265   0.979 -0.0019 -0.6008 -1.0049
 3023ntf    fn418345   4.855   5.377   1.155 -0.0293 -0.2376  0.0517
 3024ntf    cn118346   3.426   0.669   7.130  0.3099 -0.1143  0.1947
 3024ntf    sn218347   3.589   0.587   7.126  0.2268 -0.2671 -0.0574
 3024ntf    nn318348   3.684   0.695   7.063  0.8717 -0.9498 -0.2712
 3024ntf    sn218349   3.745   0.727   6.922  0.1173  0.0075 -0.3968
 3024ntf    cn118350   3.701   0.902   6.903  0.2652  0.0667 -0.2016
 3024ntf    fn418351   3.418   0.762   7.224 -0.1918 -0.2414  0.2790
 3024ntf    fn418352   3.414   0.734   7.016 -0.1236  0.7848  0.7432
 3024ntf    fn418353   3.321   0.591   7.149 -0.2909  0.6444  0.0445
 3024ntf    on518354   3.617   0.556   7.264  0.1766 -0.4864 -0.0956
 3024ntf    on518355   3.567   0.476   7.037 -0.7104 -0.2087  0.0861
 3024ntf    on518356   3.675   0.661   6.815  0.4257 -0.0066 -0.5925
 3024ntf    on518357   3.889   0.735   6.916  0.1553 -0.0228  0.3752
 3024ntf    fn418358   3.717   0.942   6.778 -0.5933 -0.0049 -0.3400
 3024ntf    fn418359   3.579   0.945   6.931  0.5573  0.6381  0.2145
 3024ntf    fn418360   3.776   0.978   6.981 -0.3381  0.1508  0.3078
 3025ntf    cn118361   6.721   6.162   1.534  0.0143  0.2291 -0.1274
 3025ntf    sn218362   6.823   6.051   1.636  0.1869  0.4237 -0.0903
 3025ntf    nn318363   6.704   5.958   1.679  0.5235  0.0727  0.0891
 3025ntf    sn218364   6.660   5.926   1.826 -0.0607  0.0484 -0.0896
 3025ntf    cn118365   6.556   5.779   1.805 -0.0846  0.0677 -0.1029
 3025ntf    fn418366   6.791   6.265   1.492 -0.3936  0.3833 -0.4381
 3025ntf    fn418367   6.677   6.093   1.430 -0.0258  0.1802 -0.0783
 3025ntf    fn418368   6.622   6.218   1.601  0.1469 -0.0092  0.2735
 3025ntf    on518369   6.909   5.989   1.538 -0.0399 -0.1866  0.0923
 3025ntf    on518370   6.881   6.143   1.732 -0.0772  0.1628  0.3210
 3025ntf    on518371   6.571   6.021   1.888 -0.2676  0.0512 -0.3864
 3025ntf    on518372   6.768   5.886   1.913  0.0279  0.3149 -0.0752
 3025ntf    fn418373   6.472   5.793   1.704 -0.1109  0.2149 -0.0599
 3025ntf    fn418374   6.618   5.667   1.773 -0.0165 -0.0707  0.4993
 3025ntf    fn418375   6.489   5.750   1.916  0.2400 -0.0000  0.0754
 3026ntf    cn118376   2.526   1.499   1.300 -0.1908  0.0382 -0.0639
 3026ntf    sn218377   2.500   1.518   1.479 -0.0854  0.1076 -0.0560
 3026ntf    nn318378   2.613   1.422   1.530  0.0006  0.1992 -0.0725
 3026ntf    sn218379   2.594   1.277   1.587 -0.3644  0.2597 -0.0416
 3026ntf    cn118380   2.758   1.254   1.661 -0.2006  0.4497 -0.3481
 3026ntf    fn418381   2.498   1.375   1.264 -0.1489 -0.0863  0.3258
 3026ntf    fn418382   2.454   1.583   1.228 -0.1611  0.0127 -0.1241
 3026ntf    fn418383   2.655   1.516   1.272 -0.2349 -0.5128 -0.6325
 3026ntf    on518384   2.529   1.657   1.507 -0.1771  0.2584 -0.6863
 3026ntf    on518385   2.364   1.476   1.496 -0.1194  0.3097  0.1748
 3026ntf    on518386   2.592   1.179   1.482 -0.6045  0.1397  0.0727
 3026ntf    on518387   2.516   1.255   1.706  0.4886  0.1350  0.5018
 3026ntf    fn418388   2.771   1.329   1.770 -0.1051 -0.6815  0.4300
 3026ntf    fn418389   2.788   1.131   1.698  0.1638  0.5773 -0.2139
 3026ntf    fn418390   2.860   1.285   1.581 -0.3254 -0.0931 -0.7215
 3027ntf    cn118391   3.524   1.798   1.915 -0.2100 -0.1179  0.3289
 3027ntf    sn218392   3.687   1.801   1.995 -0.1845 -0.3206  0.2864
 3027ntf    nn318393   3.746   1.937   1.944 -0.1504 -0.4655 -0.0618
 3027ntf    sn218394   3.851   1.964   1.830 -0.0397 -0.1875  0.1036
 3027ntf    cn118395   4.008   1.922   1.911  0.1360  0.0392 -0.1197
 3027ntf    fn418396   3.529   1.786   1.783 -0.0509 -0.2555  0.3468
 3027ntf    fn418397   3.453   1.693   1.955  0.2967 -0.4520  0.3565
 3027ntf    fn418398   3.446   1.900   1.945 -0.0364 -0.0682  0.6141
 3027ntf    on518399   3.664   1.810   2.137  0.6244  0.1001  0.3983
 3027ntf    on518400   3.756   1.685   1.944  0.1371  0.2220 -0.5266
 3027ntf    on518401   3.875   2.100   1.788 -0.0535 -0.2679 -0.1678
 3027ntf    on518402   3.836   1.872   1.719 -0.2207 -0.1359  0.0851
 3027ntf    fn418403   3.999   1.804   1.969  0.0672 -0.3274 -0.8612
 3027ntf    fn418404   4.118   1.920   1.837  0.2638 -0.0970  0.0736
 3027ntf    fn418405   4.033   2.010   2.007  0.0361  0.2610 -0.2954
 3028ntf    cn118406   6.926   5.500   6.667  0.3397  0.2424 -0.2445
 3028ntf    sn218407   7.065   5.414   6.746  0.0798 -0.0083 -0.0570
 3028ntf    nn318408   7.005   5.361   6.881  0.1984  0.1133  0.0442
 3028ntf    sn218409   7.007   5.212   6.929  0.2044  0.0752 -0.0728
 3028ntf    cn118410   6.910   5.231   7.081  0.0653  0.1453 -0.1706
 3028ntf    fn418411   6.944   5.525   6.538  0.9303  0.6450 -0.0903
 3028ntf    fn418412   6.812   5.435   6.682  0.1326  0.7156  0.2739
 3028ntf    fn418413   6.904   5.613   6.731  0.3484 -0.4512  1.0093
 3028ntf    on518414   7.096   5.315   6.645  1.1025  0.1699  0.0670
 3028ntf    on518415   7.166   5.515   6.767  0.6429 -0.5635 -0.0560
 3028ntf    on518416   7.132   5.165   6.984  0.1717  0.0125 -0.0517
 3028ntf    on518417   6.924   5.122   6.853  0.0030  0.2995 -0.1185
 3028ntf    fn418418   6.780   5.242   7.058  0.2159  0.2291 -0.9850
 3028ntf    fn418419   6.939   5.128   7.160 -0.3610 -0.0226 -0.2288
 3028ntf    fn418420   6.943   5.341   7.146  0.0291  0.2816 -0.3818
 3029ntf    cn118421   6.598   1.723   3.054  0.0637 -0.3135  0.1453
 3029ntf    sn218422   6.717   1.741   3.190  0.0553 -0.2776  0.1487
 3029ntf    nn318423   6.766   1.592   3.196  0.1132 -0.2435  0.6013
 3029ntf    sn218424   6.906   1.536   3.239  0.2380 -0.1247  0.3526
 3029ntf    cn118425   6.857   1.400   3.350 -0.1175  0.0829  0.4504
 3029ntf    fn418426   6.656   1.703   2.937 -0.1597  0.2263 -0.0631
 3029ntf    fn418427   6.521   1.620   3.084 -0.0466 -0.3917 -0.3885
 3029ntf    fn418428   6.521   1.827   3.026  0.1269 -0.0970  0.7599
 3029ntf    on518429   6.812   1.838   3.143 -0.6247  0.3818  0.1192
 3029ntf    on518430   6.635   1.779   3.303 -0.1885 -0.2308 -0.0425
 3029ntf    on518431   6.978   1.629   3.322  0.2208  0.4021 -0.2203
 3029ntf    on518432   6.973   1.479   3.125 -0.3583  0.1687 -0.1504
 3029ntf    fn418433   6.931   1.291   3.348 -0.2052  0.0196  0.6216
 3029ntf    fn418434   6.857   1.431   3.479 -0.1437  0.0755  0.4520
 3029ntf    fn418435   6.732   1.366   3.321 -0.0006  0.1415 -0.1349
 3030ntf    cn118436   5.833   7.025   2.221  0.3294  0.1012 -0.1262
 3030ntf    sn218437   5.873   6.956   2.384  0.0265  0.0536 -0.0714
 3030ntf    nn318438   6.030   6.955   2.385  0.0330  0.3514 -0.4430
 3030ntf    sn218439   6.145   7.050   2.435 -0.1557  0.2146  0.2725
 3030ntf    cn118440   6.264   6.938   2.514 -0.1950  0.0442  0.0924
 3030ntf    fn418441   5.702   7.022   2.206  0.3778  0.2863 -0.6182
 3030ntf    fn418442   5.875   7.149   2.198 -0.1592  0.1506 -0.7883
 3030ntf    fn418443   5.875   6.952   2.119 -0.0950 -0.3521  0.0197
 3030ntf    on518444   5.816   7.042   2.484  0.3253  0.1219  0.0426
 3030ntf    on518445   5.815   6.826   2.358 -0.1803  0.1194  0.0606
 3030ntf    on518446   6.103   7.133   2.545 -0.2031 -0.2099  0.5761
 3030ntf    on518447   6.214   7.120   2.329 -0.2952 -0.5013 -0.3005
 3030ntf    fn418448   6.250   6.933   2.646 -0.6365  0.0440  0.0454
 3030ntf    fn418449   6.252   6.813   2.471 -0.3028  0.1094 -0.0640
 3030ntf    fn418450   6.391   6.971   2.495 -0.0906 -0.5703 -0.3170
 3031ntf    cn118451   0.091   2.737   2.020 -0.1931  0.1578  0.3581
 3031ntf    sn218452   0.136   2.564   2.057 -0.0720  0.0916 -0.0967
 3031ntf    nn318453   0.262   2.611   2.138 -0.3314 -0.0333  0.3817
 3031ntf    sn218454   0.404   2.544   2.140 -0.4113 -0.2036  0.3383
 3031ntf    cn118455   0.357   2.379   2.200  0.0926 -0.4974 -0.0685
 3031ntf    fn418456   0.077   2.819   2.123  0.1618  0.1654  0.4023
 3031ntf    fn418457   0.181   2.790   1.938  0.0821  0.0423  0.5820
 3031ntf    fn418458  -0.031   2.738   1.969 -0.0792  0.6447  0.0939
 3031ntf    on518459   0.032   2.504   2.137  0.2036 -0.1142  0.1096
 3031ntf    on518460   0.160   2.518   1.922 -0.1008  0.9191 -0.3928
 3031ntf    on518461   0.493   2.604   2.236  0.2477 -0.7174  0.0592
 3031ntf    on518462   0.451   2.521   2.006 -0.4813 -0.6203  0.3830
 3031ntf    fn418463   0.289   2.311   2.110  0.0667  0.0996 -0.5037
 3031ntf    fn418464   0.464   2.310   2.236 -0.0403 -0.7608 -0.1751
 3031ntf    fn418465   0.278   2.392   2.305  0.1491  0.0348 -0.0883
 3032ntf    cn118466   0.921   1.082   4.225  0.2150  0.1093  0.2305
 3032ntf    sn218467   0.913   0.952   4.097  0.0232  0.1317  0.2197
 3032ntf    nn318468   1.034   0.861   4.140  0.1696  0.2815  0.1250
 3032ntf    sn218469   1.125   0.784   4.038  0.0121  0.2277  0.0256
 3032ntf    cn118470   1.266   0.892   4.003 -0.0378  0.2065 -0.2430
 3032ntf    fn418471   1.030   1.156   4.217  0.1866  0.1351  0.0727
 3032ntf    fn418472   0.812   1.157   4.220 -0.4898 -0.8602  0.7284
 3032ntf    fn418473   0.926   1.028   4.345  0.3897 -0.5024 -0.0448
 3032ntf    on518474   0.787   0.895   4.138  0.1085 -0.3303 -0.1548
 3032ntf    on518475   0.920   1.012   3.966  0.0604  0.0146  0.1675
 3032ntf    on518476   1.060   0.760   3.911 -0.8076  0.0312  0.4723
 3032ntf    on518477   1.185   0.671   4.104  0.0305  0.1878 -0.0593
 3032ntf    fn418478   1.241   1.013   3.955  0.0306  0.1536 -0.4131
 3032ntf    fn418479   1.342   0.916   4.109 -0.1214 -0.0794 -0.1162
 3032ntf    fn418480   1.339   0.827   3.914  0.1347 -0.0684  0.1000
 3033ntf    cn118481   2.621   5.306   4.350 -0.1777  0.6282 -0.2651
 3033ntf    sn218482   2.701   5.383   4.206  0.3784 -0.0416 -0.3198
 3033ntf    nn318483   2.579   5.387   4.107  0.1710  0.2186 -0.0565
 3033ntf    sn218484   2.477   5.505   4.094 -0.2376 -0.1504 -0.2241
 3033ntf    cn118485   2.563   5.649   4.023  0.4033 -0.2240  0.3968
 3033ntf    fn418486   2.703   5.281   4.451 -0.1284 -0.0981 -0.4782
 3033ntf    fn418487   2.520   5.377   4.397 -0.2367  0.5529 -0.2775
 3033ntf    fn418488   2.558   5.195   4.317  0.2535  0.3261 -0.0868
 3033ntf    on518489   2.744   5.505   4.269 -0.0832 -0.0283 -0.0264
 3033ntf    on518490   2.800   5.288   4.161  0.7760  0.2906 -0.1589
 3033ntf    on518491   2.428   5.550   4.222  0.0393  0.4708 -0.3299
 3033ntf    on518492   2.384   5.483   3.986  0.2262 -0.6528 -0.5235
 3033ntf    fn418493   2.651   5.702   4.107 -0.0505  0.4943  0.4223
 3033ntf    fn418494   2.629   5.615   3.913 -0.3642  0.2664 -0.2181
 3033ntf    fn418495   2.478   5.744   3.990 -0.1824 -0.6262  0.7364
 3034ntf    cn118496   5.927   6.338   2.727 -0.1628 -0.1929  0.5088
 3034ntf    sn218497   5.761   6.262   2.721 -0.1312 -0.2094 -0.2399
 3034ntf    nn318498   5.656   6.378   2.729 -0.1691 -0.2991  0.6462
 3034ntf    sn218499   5.586   6.450   2.608  0.3770 -0.4459  0.2431
 3034ntf    cn118500   5.438   6.346   2.594 -0.0395  0.1359  0.3066
 3034ntf    fn418501   5.934   6.440   2.643  0.2700 -0.8010 -0.2075
 3034ntf    fn418502   5.938   6.387   2.850 -0.0187 -0.0202  0.4267
 3034ntf    fn418503   6.029   6.260   2.700 -0.3562 -0.2562 -0.0416
 3034ntf    on518504   5.769   6.197   2.593  0.4193 -0.1820 -0.2226
 3034ntf    on518505   5.771   6.187   2.844  0.4012  0.1417 -0.0614
 3034ntf    on518506   5.664   6.451   2.487  0.1902 -0.0367  0.1249
 3034ntf    on518507   5.528   6.576   2.645  0.4133 -0.5855  0.7873
 3034ntf    fn418508   5.460   6.235   2.526 -0.4052  0.1144  0.2219
 3034ntf    fn418509   5.393   6.309   2.713  0.0238  0.0047  0.2898
 3034ntf    fn418510   5.342   6.403   2.522  0.0881  0.2685  0.2403
 3035ntf    cn118511   0.377   3.525   5.708  0.2749 -0.0022 -0.5264
 3035ntf    sn218512   0.480   3.637   5.808 -0.1998  0.0004 -0.0336
 3035ntf    nn318513   0.604   3.541   5.798 -0.4718 -0.2889 -0.6588
 3035ntf    sn218514   0.728   3.543   5.702 -0.1239  0.0157 -0.2028
 3035ntf    cn118515   0.720   3.362   5.684 -0.0716 -0.0009 -0.0612
 3035ntf    fn418516   0.431   3.504   5.590  0.1485 -0.4278 -0.5097
 3035ntf    fn418517   0.350   3.408   5.764  0.3500  0.2384  0.0285
 3035ntf    fn418518   0.257   3.577   5.684  0.4392  0.8490  0.4383
 3035ntf    on518519   0.489   3.756   5.728 -0.3356 -0.0117 -0.0668
 3035ntf    on518520   0.417   3.643   5.938  0.4624 -0.2764  0.3076
 3035ntf    on518521   0.854   3.567   5.768 -0.3935  0.1139  0.2814
 3035ntf    on518522   0.704   3.602   5.573 -0.1796  0.3925 -0.0229
 3035ntf    fn418523   0.801   3.312   5.592  0.3235 -0.2063  0.3963
 3035ntf    fn418524   0.740   3.296   5.797  0.4507  0.1047 -0.0878
 3035ntf    fn418525   0.601   3.320   5.647  0.0539  0.0174 -0.4848
 3036ntf    cn118526   5.884   3.838   2.272 -0.0050  0.4697 -0.0578
 3036ntf    sn218527   6.036   3.899   2.351  0.2668  0.1390 -0.3186
 3036ntf    nn318528   5.976   3.945   2.489 -0.6776 -0.6947 -0.4397
 3036ntf    sn218529   5.977   3.859   2.620  0.0010 -0.0534 -0.0222
 3036ntf    cn118530   5.834   3.938   2.699  0.2487  0.2147  0.1639
 3036ntf    fn418531   5.813   3.936   2.219 -0.8726 -0.1373 -0.0324
 3036ntf    fn418532   5.902   3.749   2.176 -0.3143  0.1268  0.2000
 3036ntf    fn418533   5.803   3.766   2.348 -0.1786  0.3813 -0.3223
 3036ntf    on518534   6.111   3.776   2.353  0.1340  0.0604  0.0982
 3036ntf    on518535   6.077   4.005   2.264 -0.3312  0.6095 -0.0399
 3036ntf    on518536   6.081   3.892   2.715 -0.0290 -0.4397  0.1464
 3036ntf    on518537   5.936   3.721   2.614  0.5096 -0.2423  0.6755
 3036ntf    fn418538   5.861   4.056   2.752 -0.2760  0.6026 -0.4121
 3036ntf    fn418539   5.738   3.963   2.611  0.1663  0.0150  0.1965
 3036ntf    fn418540   5.783   3.867   2.799 -0.4133  1.0053  0.4011
 3037ntf    cn118541   5.782   3.075   3.026 -0.1240  0.1886 -0.3602
 3037ntf    sn218542   5.698   3.145   2.881 -0.0971  0.4800 -0.2363
 3037ntf    nn318543   5.684   3.293   2.931 -0.1854  0.4455 -0.1586
 3037ntf    sn218544   5.788   3.411   2.938 -0.1105  0.3679  0.0542
 3037ntf    cn118545   5.729   3.518   2.804  0.0304 -0.1418 -0.4177
 3037ntf    fn418546   5.702   3.047   3.127  0.1138  0.5171 -0.0818
 3037ntf    fn418547   5.841   2.959   2.999 -0.4059 -0.0248 -0.0720
 3037ntf    fn418548   5.864   3.168   3.071  0.0685 -0.0599 -0.1957
 3037ntf    on518549   5.798   3.116   2.781  0.1260 -0.6850  0.3049
 3037ntf    on518550   5.566   3.085   2.879 -0.0422  0.3285  0.4737
 3037ntf    on518551   5.927   3.391   2.906 -0.0787  0.1631  0.3093
 3037ntf    on518552   5.765   3.495   3.053  0.1843 -0.1957  0.5346
 3037ntf    fn418553   5.598   3.534   2.804  0.0115 -0.2615  0.3141
 3037ntf    fn418554   5.774   3.641   2.823 -0.0346 -0.1253 -0.3705
 3037ntf    fn418555   5.767   3.477   2.684  0.3362 -0.4558 -0.2166
 3038ntf    cn118556   0.544   6.915   1.195  0.3062  0.0294  0.0910
 3038ntf    sn218557   0.576   6.890   1.372 -0.3616 -0.4511  0.1492
 3038ntf    nn318558   0.538   7.036   1.416 -0.3967 -0.3875 -0.0954
 3038ntf    sn218559   0.425   7.085   1.513  0.0957  0.1063  0.2328
 3038ntf    cn118560   0.507   7.083   1.675  0.2674  0.1449  0.1468
 3038ntf    fn418561   0.538   6.797   1.135  0.0879  0.0600  0.0521
 3038ntf    fn418562   0.437   6.987   1.166  0.1495 -0.2028  0.0851
 3038ntf    fn418563   0.646   6.980   1.143  0.2873  0.1511  0.2043
 3038ntf    on518564   0.488   6.783   1.413 -0.6054 -0.4395 -0.3413
 3038ntf    on518565   0.717   6.859   1.378 -0.4106 -0.7243 -0.1045
 3038ntf    on518566   0.315   6.994   1.533  0.2645 -0.2079 -0.2379
 3038ntf    on518567   0.384   7.221   1.485 -0.4900 -0.0761  0.1793
 3038ntf    fn418568   0.431   7.141   1.766  0.0927  0.1381  0.0070
 3038ntf    fn418569   0.536   6.959   1.711  0.1270  0.1920  0.4227
 3038ntf    fn418570   0.616   7.157   1.671 -0.3243  1.0053 -0.2634
 3039ntf    cn118571   4.813   3.472   5.409 -0.1559 -0.0076  0.2932
 3039ntf    sn218572   4.848   3.616   5.305  0.0762 -0.1704  0.1437
 3039ntf    nn318573   4.865   3.725   5.418  0.1512 -0.2374  0.1976
 3039ntf    sn218574   4.891   3.879   5.402 -0.1221 -0.2360 -0.2610
 3039ntf    cn118575   4.769   3.952   5.516 -0.1462 -0.4128 -0.1742
 3039ntf    fn418576   4.692   3.464   5.462 -0.3155 -0.2118 -0.1037
 3039ntf    fn418577   4.823   3.354   5.350  0.4842  0.2364 -0.0953
 3039ntf    fn418578   4.893   3.468   5.514  0.5310  0.2507 -0.2136
 3039ntf    on518579   4.975   3.587   5.243  0.3085  0.2689  0.4075
 3039ntf    on518580   4.730   3.626   5.223  0.1085 -0.1996  0.0943
 3039ntf    on518581   4.852   3.930   5.273  0.8973  0.2112 -0.4003
 3039ntf    on518582   5.014   3.920   5.464 -0.1959 -0.8033  0.2763
 3039ntf    fn418583   4.646   3.927   5.474 -0.4401  0.3913  0.2091
 3039ntf    fn418584   4.770   3.895   5.635  0.0769 -0.2553 -0.0991
 3039ntf    fn418585   4.784   4.083   5.525 -0.1997 -0.4054 -0.1954
 3040ntf    cn118586   6.158   1.038   5.499 -0.1385 -0.1083  0.1923
 3040ntf    sn218587   6.134   1.090   5.326 -0.2345  0.1106  0.2717
 3040ntf    nn318588   5.994   1.027   5.295 -0.0117 -0.0425 -0.4356
 3040ntf    sn218589   5.881   1.070   5.194 -0.1786 -0.0928 -0.2694
 3040ntf    cn118590   5.911   0.950   5.061 -0.0489 -0.2447 -0.1022
 3040ntf    fn418591   6.132   0.910   5.520 -0.0732 -0.1000  0.3256
 3040ntf    fn418592   6.287   1.042   5.528 -0.1384 -0.1751  0.1998
 3040ntf    fn418593   6.080   1.110   5.578 -0.3708 -0.1293 -0.0149
 3040ntf    on518594   6.135   1.234   5.341 -0.2372  0.2091 -0.6259
 3040ntf    on518595   6.242   1.034   5.250 -0.3020  0.9618 -0.4733
 3040ntf    on518596   5.910   1.196   5.131 -0.8761  0.3905  0.3526
 3040ntf    on518597   5.749   1.040   5.244 -0.1548  0.2084 -0.0176
 3040ntf    fn418598   5.811   0.969   4.977 -0.6550  0.4694  0.7540
 3040ntf    fn418599   6.028   0.960   5.000 -0.2303 -0.5395 -0.4999
 3040ntf    fn418600   5.902   0.824   5.103 -0.4318 -0.1619  0.0677
 3041ntf    cn118601   0.345   4.238   2.386 -0.1183  0.1993 -0.3289
 3041ntf    sn218602   0.324   4.099   2.502  0.1507  0.5575  0.1501
 3041ntf    nn318603   0.291   4.178   2.633 -0.3076 -0.5580  0.7146
 3041ntf    sn218604   0.338   4.149   2.780  0.0981 -0.0685  0.6818
 3041ntf    cn118605   0.191   4.074   2.855 -0.3552  0.3184  0.1944
 3041ntf    fn418606   0.242   4.318   2.364 -0.4373 -0.0826  0.1284
 3041ntf    fn418607   0.450   4.301   2.434 -0.0946 -0.3683  0.3831
 3041ntf    fn418608   0.369   4.196   2.263  0.2030 -0.1852 -0.1347
 3041ntf    on518609   0.213   4.028   2.445  0.3111 -0.3833  0.9824
 3041ntf    on518610   0.447   4.023   2.499 -0.3146 -0.1890 -0.2759
 3041ntf    on518611   0.354   4.279   2.841  0.2333  0.3690 -0.2667
 3041ntf    on518612   0.438   4.047   2.801 -0.0017 -0.4074 -0.4282
 3041ntf    fn418613   0.221   4.030   2.976 -0.1817  0.2006  0.1093
 3041ntf    fn418614   0.089   4.156   2.865  0.0470  0.8569 -0.0814
 3041ntf    fn418615   0.149   3.968   2.788 -0.0511  0.1435  0.2744
 3042ntf    cn118616   6.365   6.981   5.069 -0.0343  0.0924  0.0687
 3042ntf    sn218617   6.391   6.845   5.186  0.1292 -0.1198 -0.2121
 3042ntf    nn318618   6.494   6.926   5.273 -0.3176  0.5406 -0.2914
 3042ntf    sn218619   6.645   6.893   5.302 -0.5426 -0.3612 -0.1269
 3042ntf    cn118620   6.704   7.050   5.373 -0.4205 -0.2818 -0.4035
 3042ntf    fn418621   6.290   6.940   4.968  0.5394  0.1301 -0.3770
 3042ntf    fn418622   6.310   7.086   5.129  0.0488  0.0651  0.1920
 3042ntf    fn418623   6.472   7.024   5.005 -0.2724  0.3628 -0.1533
 3042ntf    on518624   6.268   6.822   5.258  0.7589 -0.6212  0.7272
 3042ntf    on518625   6.444   6.741   5.102  0.3609 -0.1301 -0.0572
 3042ntf    on518626   6.724   6.883   5.182  0.0668  0.0920  0.2260
 3042ntf    on518627   6.669   6.788   5.398 -0.6186 -0.0414  0.2465
 3042ntf    fn418628   6.754   7.131   5.281 -0.0593  0.4714  0.4369
 3042ntf    fn418629   6.609   7.119   5.433 -0.0448 -0.2871  0.2068
 3042ntf    fn418630   6.798   7.028   5.464 -0.6428  0.2123 -0.0542
 3043ntf    cn118631   3.789   1.197   1.985  0.2315  0.2329 -0.2677
 3043ntf    sn218632   3.753   1.111   1.829  0.1052  0.0274 -0.1255
 3043ntf    nn318633   3.896   1.052   1.801 -0.0193 -0.3573  0.0374
 3043ntf    sn218634   3.963   0.915   1.836  0.5265 -0.1425 -0.1549
 3043ntf    cn118635   3.904   0.807   1.702 -0.0575 -0.2049  0.1464
 3043ntf    fn418636   3.678   1.245   2.040  0.3166  0.6232 -0.4310
 3043ntf    fn418637   3.834   1.119   2.082  0.3717  0.5943 -0.0401
 3043ntf    fn418638   3.871   1.300   1.972 -0.4334  0.7936 -0.1199
 3043ntf    on518639   3.653   1.011   1.854 -0.2101  0.2258 -0.5773
 3043ntf    on518640   3.713   1.216   1.738 -0.0891 -0.1642 -0.2621
 3043ntf    on518641   3.921   0.848   1.956 -0.0719 -0.2006 -0.3914
 3043ntf    on518642   4.105   0.927   1.818  0.5481  0.3194  0.3082
 3043ntf    fn418643   3.938   0.848   1.580  0.1150 -0.4222  0.1200
 3043ntf    fn418644   3.938   0.680   1.709 -0.1803 -0.2689 -0.3300
 3043ntf    fn418645   3.772   0.804   1.711 -0.0753  0.2357  0.0768
 3044ntf    cn118646   4.456   4.978   0.358  0.4568  0.3415  0.6442
 3044ntf    sn218647   4.429   5.156   0.335 -0.1970  0.1465 -0.1404
 3044ntf    nn318648   4.489   5.166   0.190 -0.0837  0.1084 -0.0963
 3044ntf    sn218649   4.565   5.289   0.127 -0.2539  0.1423 -0.2383
 3044ntf    cn118650   4.485   5.302  -0.035  0.1485 -0.0525 -0.4532
 3044ntf    fn418651   4.380   4.912   0.272  0.6789  0.0643  0.6599
 3044ntf    fn418652   4.580   4.947   0.325  0.0881 -0.4687 -0.0141
 3044ntf    fn418653   4.431   4.926   0.478 -0.5218 -0.6059  0.0475
 3044ntf    on518654   4.286   5.170   0.342 -0.2592 -0.4195 -0.2217
 3044ntf    on518655   4.504   5.207   0.447 -0.3035 -0.2266  0.1038
 3044ntf    on518656   4.699   5.254   0.088 -0.1182  0.4875 -0.0875
 3044ntf    on518657   4.538   5.422   0.174 -0.5442 -0.0029  0.0148
 3044ntf    fn418658   4.489   5.199  -0.118  0.5692 -0.1384 -0.3264
 3044ntf    fn418659   4.353   5.310  -0.035  0.1541  0.0373 -0.1263
 3044ntf    fn418660   4.525   5.412  -0.097  0.1306 -0.1307 -0.6046
 3045ntf    cn118661   6.388   1.260   1.438 -0.2868 -0.5696  0.0102
 3045ntf    sn218662   6.561   1.305   1.407 -0.3703 -0.3014 -0.0675
 3045ntf    nn318663   6.540   1.442   1.334 -0.0038 -0.3261 -0.2228
 3045ntf    sn218664   6.653   1.545   1.298  0.0738 -0.2777  0.1611
 3045ntf    cn118665   6.657   1.520   1.118 -0.2545  0.0403  0.1089
 3045ntf    fn418666   6.339   1.345   1.527 -0.2399 -0.3686 -0.1558
 3045ntf    fn418667   6.313   1.270   1.330 -0.1308  0.4912 -0.0076
 3045ntf    fn418668   6.376   1.135   1.481  0.1509 -0.3102  0.9140
 3045ntf    on518669   6.625   1.303   1.536  0.4643  0.3565 -0.4611
 3045ntf    on518670   6.597   1.197   1.319 -0.2975 -0.4536  0.1472
 3045ntf    on518671   6.789   1.513   1.334  0.0670 -0.1386  0.3094
 3045ntf    on518672   6.607   1.681   1.305  0.0234 -0.3028  0.3382
 3045ntf    fn418673   6.688   1.397   1.080  0.3829  0.0335  0.6370
 3045ntf    fn418674   6.541   1.545   1.059 -0.0956  0.0112 -0.2202
 3045ntf    fn418675   6.751   1.593   1.061 -0.3469 -0.3357 -0.5360
 3046ntf    cn118676   3.915   0.253   1.758  0.0106  0.0747 -0.1403
 3046ntf    sn218677   3.904   0.371   1.896 -0.2487 -0.1790  0.0568
 3046ntf    nn318678   3.760   0.430   1.878  0.2436  0.9290 -0.3400
 3046ntf    sn218679   3.664   0.488   1.988  0.0923  0.1627 -0.0652
 3046ntf    cn118680   3.553   0.346   2.015  0.1890  0.1165  0.0936
 3046ntf    fn418681   3.835   0.148   1.760  0.0243  0.0746  0.5069
 3046ntf    fn418682   3.887   0.313   1.643 -0.3199  0.4896  0.1519
 3046ntf    fn418683   4.034   0.197   1.758 -0.1747 -0.3233  0.5526
 3046ntf    on518684   3.918   0.282   2.008 -0.1004 -0.6698 -0.3488
 3046ntf    on518685   4.014   0.458   1.861 -0.1481 -0.1735  0.3859
 3046ntf    on518686   3.576   0.592   1.942 -0.1502 -0.2887 -0.6414
 3046ntf    on518687   3.726   0.509   2.116  0.1933  0.1745 -0.1157
 3046ntf    fn418688   3.500   0.303   1.901 -0.2423 -0.3239  0.4564
 3046ntf    fn418689   3.611   0.243   2.073  0.0389  0.1357  0.2786
 3046ntf    fn418690   3.453   0.378   2.096 -0.0871 -0.0469 -0.1776
 3047ntf    cn118691   2.468   3.937   4.235  0.4223 -0.1709 -0.1014
 3047ntf    sn218692   2.450   3.902   4.412  0.2810  0.4576  0.0135
 3047ntf    nn318693   2.295   3.915   4.430  0.2128 -0.0217 -0.1971
 3047ntf    sn218694   2.222   3.917   4.569  0.2656  0.2157 -0.1712
 3047ntf    cn118695   2.130   3.760   4.554  0.3297  0.1452  0.1532
 3047ntf    fn418696   2.585   3.896   4.188  0.3475  0.2534 -0.6625
 3047ntf    fn418697   2.368   3.884   4.168  0.7857 -0.4938 -0.3930
 3047ntf    fn418698   2.464   4.069   4.224  0.3945 -0.1090  0.6170
 3047ntf    on518699   2.501   3.767   4.411 -0.7211  0.0648  0.4492
 3047ntf    on518700   2.520   4.004   4.486  0.3008  0.7970 -0.4705
 3047ntf    on518701   2.132   4.029   4.570  0.1889  0.1524  0.2320
 3047ntf    on518702   2.311   3.893   4.680 -0.2404  0.6919  0.3446
 3047ntf    fn418703   2.047   3.776   4.452  0.5734  0.2009 -0.0385
 3047ntf    fn418704   2.207   3.662   4.510 -0.4301 -0.4685  0.1751
 3047ntf    fn418705   2.063   3.732   4.664  0.1273  0.3044  0.0697
 3048ntf    cn118706   6.906   0.003   1.377  0.2092  0.2255  0.1584
 3048ntf    sn218707   6.775   0.045   1.258  0.1462 -0.1177  0.1049
 3048ntf    nn318708   6.835   0.165   1.176 -0.3258  0.1961  0.2188
 3048ntf    sn218709   6.823   0.204   1.024 -0.1575  0.2354  0.2155
 3048ntf    cn118710   6.711   0.347   1.039 -0.5207  0.0233 -0.4246
 3048ntf    fn418711   6.859  -0.102   1.442  0.3570  0.3693  0.5031
 3048ntf    fn418712   7.020  -0.022   1.315  0.1120  0.2028 -0.0110
 3048ntf    fn418713   6.927   0.103   1.462 -0.2836  0.4469  0.0223
 3048ntf    on518714   6.762  -0.079   1.187 -0.3536 -0.1330  0.2228
 3048ntf    on518715   6.660   0.085   1.335 -0.0355  0.0066 -0.2279
 3048ntf    on518716   6.753   0.111   0.939 -0.1096 -0.3692  0.8260
 3048ntf    on518717   6.949   0.257   0.978 -0.0632  0.4813  0.7466
 3048ntf    fn418718   6.688   0.421   0.932 -0.4183  0.3634 -0.2127
 3048ntf    fn418719   6.591   0.307   1.078 -0.1575 -0.9438 -0.2642
 3048ntf    fn418720   6.756   0.431   1.131 -0.4396 -0.3935 -0.0788
 3049ntf    cn118721   5.819   3.221   2.130  0.1278 -0.2366 -0.1201
 3049ntf    sn218722   5.753   3.142   2.280 -0.4484  0.0193 -0.2380
 3049ntf    nn318723   5.879   3.063   2.327 -0.1891  0.0321 -0.9021
 3049ntf    sn218724   5.915   2.914   2.292  0.0519 -0.0769 -0.2088
 3049ntf    cn118725   6.095   2.927   2.267  0.0897 -0.3873 -0.1081
 3049ntf    fn418726   5.818   3.137   2.027 -0.2984  0.2464 -0.5170
 3049ntf    fn418727   5.736   3.321   2.102  0.1732  0.0009  0.5801
 3049ntf    fn418728   5.938   3.273   2.154  0.0182  0.0230 -0.1446
 3049ntf    on518729   5.728   3.254   2.367  0.1594 -0.0383  0.0136
 3049ntf    on518730   5.636   3.072   2.231 -0.3961 -0.2178 -0.0237
 3049ntf    on518731   5.864   2.874   2.163 -0.5182 -0.6778  0.2005
 3049ntf    on518732   5.907   2.820   2.401 -0.0675  0.7114  0.4741
 3049ntf    fn418733   6.162   2.977   2.369  0.4941  0.2227 -0.6620
 3049ntf    fn418734   6.145   2.806   2.246 -0.0079 -0.4671  0.1205
 3049ntf    fn418735   6.126   3.003   2.163  0.5867  0.5056  0.6795
 3050ntf    cn118736   6.613   5.052   2.728 -0.4044  0.2806  0.0338
 3050ntf    sn218737   6.585   4.911   2.617  0.1377  0.0671  0.1640
 3050ntf    nn318738   6.472   4.839   2.699  0.5874 -0.5315  0.2669
 3050ntf    sn218739   6.419   4.691   2.695 -0.1574 -0.2522 -0.2793
 3050ntf    cn118740   6.263   4.709   2.786  0.1333  0.4157  0.0955
 3050ntf    fn418741   6.622   5.022   2.857 -0.7667  0.7387  0.1684
 3050ntf    fn418742   6.715   5.122   2.682  0.3412 -0.3404  0.7034
 3050ntf    fn418743   6.506   5.129   2.718 -0.3613  0.3456  0.0694
 3050ntf    on518744   6.532   4.976   2.500 -0.5464 -0.3621  0.2285
 3050ntf    on518745   6.713   4.844   2.608  0.1764  0.1593  0.0408
 3050ntf    on518746   6.490   4.605   2.786 -0.6448  0.0740  0.4179
 3050ntf    on518747   6.379   4.642   2.565  0.1086 -0.3080 -0.3404
 3050ntf    fn418748   6.210   4.601   2.842  0.4662  0.5189  0.6125
 3050ntf    fn418749   6.280   4.796   2.884 -0.9570  0.8685 -0.0947
 3050ntf    fn418750   6.166   4.761   2.712 -0.1263  0.3264  0.3700
 3051ntf    cn118751   0.290   0.833   2.690 -0.0238  0.0082 -0.6936
 3051ntf    sn218752   0.213   0.997   2.699  0.0721  0.0260 -0.2140
 3051ntf    nn318753   0.345   1.082   2.705  0.1150 -0.0921  0.8221
 3051ntf    sn218754   0.392   1.204   2.791  0.5382  0.2831  0.0719
 3051ntf    cn118755   0.492   1.117   2.915 -0.3830  0.0065  0.6363
 3051ntf    fn418756   0.203   0.734   2.691 -0.2281  0.1876 -0.7036
 3051ntf    fn418757   0.366   0.813   2.583 -0.0629 -0.1651 -0.6899
 3051ntf    fn418758   0.378   0.809   2.786 -0.5503 -0.5343 -0.3419
 3051ntf    on518759   0.139   1.012   2.577  0.2925 -0.1829 -0.3732
 3051ntf    on518760   0.143   0.994   2.825 -0.5530 -0.2167 -0.5676
 3051ntf    on518761   0.282   1.270   2.858  0.3928 -0.0722  0.1821
 3051ntf    on518762   0.482   1.293   2.722  0.2615  0.6395  0.1613
 3051ntf    fn418763   0.422   1.034   2.990 -0.2313 -0.4353  0.2947
 3051ntf    fn418764   0.597   1.063   2.854 -0.4422  0.0293  0.5143
 3051ntf    fn418765   0.545   1.200   3.004 -0.0687  0.1890  0.2868
 3052ntf    cn118766   1.193   6.308   2.783  0.4351  0.1145  0.3848
 3052ntf    sn218767   1.363   6.286   2.723  0.1975 -0.0558 -0.2390
 3052ntf    nn318768   1.342   6.214   2.585 -0.0467 -0.0215 -0.2200
 3052ntf    sn218769   1.342   6.058   2.565 -0.1948 -0.0766  0.1874
 3052ntf    cn118770   1.518   6.015   2.548 -0.1514  0.3209 -0.4236
 3052ntf    fn418771   1.110   6.362   2.695  0.4355  0.1313  0.3951
 3052ntf    fn418772   1.142   6.189   2.813 -0.1678  0.2753  0.0286
 3052ntf    fn418773   1.190   6.380   2.893  0.3858  0.6362  0.0436
 3052ntf    on518774   1.413   6.420   2.703  0.3604 -0.2653 -1.2796
 3052ntf    on518775   1.434   6.205   2.818 -0.1880  0.7189  0.7247
 3052ntf    on518776   1.292   6.014   2.437 -0.1447  0.3303  0.0277
 3052ntf    on518777   1.301   5.972   2.674  0.1162  0.0289  0.3868
 3052ntf    fn418778   1.542   5.896   2.497 -0.0419  0.2156 -0.1280
 3052ntf    fn418779   1.595   6.101   2.484  0.3583  0.4344  0.3256
 3052ntf    fn418780   1.580   6.008   2.665 -0.4700 -0.6891 -0.3042
 3053ntf    cn118781   0.263   3.237   2.957 -0.1829  0.0693 -0.0860
 3053ntf    sn218782   0.149   3.146   3.066  0.3758 -0.3286  0.1715
 3053ntf    nn318783   0.257   3.040   3.108  0.8376  0.0927  0.0544
 3053ntf    sn218784   0.293   2.894   3.064 -0.0180 -0.1048  0.0074
 3053ntf    cn118785   0.361   2.833   3.221 -0.2016 -0.4121 -0.0300
 3053ntf    fn418786   0.278   3.168   2.846  0.0586  0.0558 -0.0448
 3053ntf    fn418787   0.217   3.357   2.925  0.0432  0.2470  0.2447
 3053ntf    fn418788   0.387   3.252   3.001 -0.1235 -0.5034 -0.0490
 3053ntf    on518789   0.101   3.233   3.170  0.2301 -0.1344 -0.0554
 3053ntf    on518790   0.055   3.100   2.966  0.1971 -0.3238  0.3371
 3053ntf    on518791   0.414   2.885   2.987 -0.3329  0.7505 -0.5907
 3053ntf    on518792   0.186   2.799   3.044 -0.1892 -0.1194  0.9307
 3053ntf    fn418793   0.274   2.814   3.319 -0.2505  0.3292  0.0748
 3053ntf    fn418794   0.421   2.716   3.203  0.2815 -0.1774  0.0438
 3053ntf    fn418795   0.459   2.910   3.266 -0.2711 -0.3394 -0.0037
 3054ntf    cn118796   2.222   4.159   2.693 -0.0845 -0.5432  0.3526
 3054ntf    sn218797   2.178   4.147   2.869  0.2942 -0.2047  0.4732
 3054ntf    nn318798   2.316   4.154   2.943  0.0657  0.2593  0.8623
 3054ntf    sn218799   2.433   4.050   2.960 -0.0489 -0.0250 -0.0161
 3054ntf    cn118800   2.569   4.164   2.917 -0.0226 -0.2195 -0.4535
 3054ntf    fn418801   2.119   4.131   2.615 -0.4452  0.6724  0.3716
 3054ntf    fn418802   2.262   4.280   2.658  0.1316 -0.8662 -0.5388
 3054ntf    fn418803   2.322   4.081   2.656  0.8339  0.6335  0.2958
 3054ntf    on518804   2.097   4.266   2.874 -0.1336 -0.4644 -0.0963
 3054ntf    on518805   2.117   4.017   2.878 -0.0311 -0.0552  0.4542
 3054ntf    on518806   2.457   3.955   2.855  0.6367 -0.3148  0.3952
 3054ntf    on518807   2.469   4.013   3.095 -0.0205 -0.3200 -0.1043
 3054ntf    fn418808   2.591   4.254   3.012 -0.3464 -0.3494 -0.2498
 3054ntf    fn418809   2.680   4.103   2.881  0.1882  0.1810 -0.4813
 3054ntf    fn418810   2.544   4.247   2.818  0.9158  0.2846 -0.2715
 3055ntf    cn118811   5.152   5.293   3.860  0.0251  0.1252  0.0445
 3055ntf    sn218812   5.101   5.176   3.989 -0.2693 -0.0015 -0.1844
 3055ntf    nn318813   5.052   5.054   3.904 -0.1648 -0.3326  0.2292
 3055ntf    sn218814   4.972   4.923   3.938 -0.2021 -0.3584  0.0431
 3055ntf    cn118815   5.063   4.844   4.074  0.3884  0.1608 -0.0443
 3055ntf    fn418816   5.049   5.314   3.779  0.1467 -0.2547 -0.2077
 3055ntf    fn418817   5.196   5.411   3.902  0.1415  0.1574 -0.1614
 3055ntf    fn418818   5.253   5.248   3.788  0.1479  0.0913  0.2379
 3055ntf    on518819   5.220   5.146   4.065 -0.0060  0.1318 -0.5390
 3055ntf    on518820   4.999   5.247   4.062 -0.2934  0.3753 -0.5793
 3055ntf    on518821   4.993   4.827   3.831  0.4120  0.3065 -0.4441
 3055ntf    on518822   4.840   4.949   3.989 -0.1069  0.2889 -0.0374
 3055ntf    fn418823   5.047   4.909   4.188 -0.1761  0.2208 -0.1525
 3055ntf    fn418824   5.024   4.719   4.096 -0.2567  0.4035  0.2041
 3055ntf    fn418825   5.194   4.839   4.059  0.4159  0.0671  0.2098
 3056ntf    cn118826   3.142   1.101   2.018 -0.7132 -0.2329 -0.2954
 3056ntf    sn218827   3.159   1.282   2.016 -0.3212 -0.2677 -0.1511
 3056ntf    nn318828   3.070   1.315   2.141 -0.1228  0.2418 -0.1437
 3056ntf    sn218829   3.082   1.355   2.292  0.0059  0.3070 -0.1707
 3056ntf    cn118830   2.994   1.515   2.295  0.3022  0.4731 -0.2983
 3056ntf    fn418831   3.021   1.052   1.996 -0.5200 -0.7323 -0.2564
 3056ntf    fn418832   3.232   1.054   1.934 -0.3300  0.0165 -0.0278
 3056ntf    fn418833   3.179   1.047   2.133 -0.4301  0.7761  0.0937
 3056ntf    on518834   3.300   1.306   2.035 -0.3867  0.1709 -0.2178
 3056ntf    on518835   3.104   1.323   1.890 -0.5522 -0.0865  0.0092
 3056ntf    on518836   3.218   1.383   2.331  0.1217 -0.4342 -0.0209
 3056ntf    on518837   3.014   1.273   2.389  0.1246  0.3753 -0.0298
 3056ntf    fn418838   2.905   1.506   2.198  0.2745 -0.3623 -0.2047
 3056ntf    fn418839   2.945   1.549   2.413 -0.1588  0.2287 -0.4170
 3056ntf    fn418840   3.066   1.619   2.258  0.2231  0.4606 -0.4875
 3057ntf    cn118841   3.563   1.488   0.526  0.1613  0.4352  0.0351
 3057ntf    sn218842   3.464   1.381   0.635  0.0400  0.1270 -0.3762
 3057ntf    nn318843   3.531   1.431   0.767 -0.2401 -0.2908 -0.0732
 3057ntf    sn218844   3.654   1.368   0.843 -0.2099  0.2849  0.3674
 3057ntf    cn118845   3.794   1.478   0.807 -0.0292 -0.0163  0.1433
 3057ntf    fn418846   3.576   1.606   0.583  0.2720  0.5373 -0.1990
 3057ntf    fn418847   3.688   1.445   0.512  0.1709  0.2527  0.6612
 3057ntf    fn418848   3.511   1.508   0.406 -0.1896 -0.4726  0.0260
 3057ntf    on518849   3.327   1.424   0.623 -0.1377 -0.4826 -0.5557
 3057ntf    on518850   3.493   1.246   0.595  0.1818 -0.1766  0.7241
 3057ntf    on518851   3.705   1.241   0.798 -0.2765  0.3585  0.0761
 3057ntf    on518852   3.646   1.364   0.986  0.1495 -0.5995  0.3682
 3057ntf    fn418853   3.829   1.475   0.680 -0.0810  0.0978  0.1264
 3057ntf    fn418854   3.771   1.606   0.832 -0.2083 -0.0619  0.2166
 3057ntf    fn418855   3.898   1.449   0.883  0.6623  0.1424 -0.7325
 3058ntf    cn118856   5.272   0.014   0.923 -0.2334  0.2158  0.0440
 3058ntf    sn218857   5.438   0.035   0.994 -0.2982  0.3898  0.1445
 3058ntf    nn318858   5.520   0.003   0.864  0.4031 -0.3827  0.7616
 3058ntf    sn218859   5.651   0.056   0.795 -0.0528 -0.0619  0.1254
 3058ntf    cn118860   5.583   0.196   0.702 -0.1358 -0.3496 -0.2494
 3058ntf    fn418861   5.257   0.095   0.819  0.1890 -0.4172 -0.5236
 3058ntf    fn418862   5.253  -0.108   0.875  0.2424  0.1667 -0.0271
 3058ntf    fn418863   5.175   0.035   1.010 -0.0562 -0.3546  0.3812
 3058ntf    on518864   5.419   0.173   1.032 -0.2676  0.3381  0.3481
 3058ntf    on518865   5.452  -0.068   1.095  0.1648  0.0216 -0.2936
 3058ntf    on518866   5.710  -0.028   0.694 -0.0377  0.1784 -0.0643
 3058ntf    on518867   5.747   0.115   0.886  0.0217  0.1041 -0.0609
 3058ntf    fn418868   5.678   0.270   0.646 -0.2960 -0.3281 -0.4937
 3058ntf    fn418869   5.490   0.168   0.612 -0.1859  0.5256 -0.4789
 3058ntf    fn418870   5.523   0.284   0.781  0.0955  0.2268 -0.7043
 3059ntf    cn118871   5.795   6.296   3.969  0.3202 -0.2541 -0.4839
 3059ntf    sn218872   5.918   6.167   4.006  0.0737 -0.2251  0.4707
 3059ntf    nn318873   6.003   6.169   3.874  0.0426 -0.4179  0.4478
 3059ntf    sn218874   6.001   6.058   3.763 -0.0681  0.2515 -0.2229
 3059ntf    cn118875   5.834   6.079   3.694 -0.3692 -0.4686  0.2782
 3059ntf    fn418876   5.854   6.411   3.941  0.0051 -0.0476 -0.3018
 3059ntf    fn418877   5.718   6.262   3.867 -0.1664  0.7325 -0.4605
 3059ntf    fn418878   5.714   6.318   4.072  0.1140  0.2976 -0.7592
 3059ntf    on518879   5.993   6.224   4.115 -0.1322  0.4178  0.2839
 3059ntf    on518880   5.850   6.043   4.034  0.1468 -0.5486 -0.7204
 3059ntf    on518881   6.018   5.923   3.811  0.4801  0.1172 -0.7695
 3059ntf    on518882   6.092   6.103   3.660  0.5077 -0.0025  0.1677
 3059ntf    fn418883   5.815   6.188   3.621  0.1381 -0.5984 -0.0489
 3059ntf    fn418884   5.802   5.980   3.612 -0.3205 -0.5662  0.3769
 3059ntf    fn418885   5.742   6.085   3.789  0.0742  0.6637  0.6600
 3060ntf    cn118886   3.493   4.050   1.261 -0.2076 -0.2770 -0.4127
 3060ntf    sn218887   3.330   4.131   1.264  0.1739  0.4906 -0.3080
 3060ntf    nn318888   3.364   4.278   1.308  0.0923  0.2895  0.4265
 3060ntf    sn218889   3.260   4.389   1.347 -0.2961  0.1700 -0.2606
 3060ntf    cn118890   3.236   4.475   1.188 -0.2488  0.1353 -0.2863
 3060ntf    fn418891   3.567   4.090   1.363 -0.1148 -1.1936 -0.1151
 3060ntf    fn418892   3.494   3.918   1.265  0.4189 -0.2663 -0.0499
 3060ntf    fn418893   3.558   4.078   1.150 -0.5859 -0.3813 -0.6620
 3060ntf    on518894   3.290   4.115   1.126  0.4215 -0.0740 -0.3140
 3060ntf    on518895   3.264   4.046   1.359  0.7767 -0.0535 -0.3669
 3060ntf    on518896   3.327   4.484   1.433 -0.0236 -0.3786  0.1327
 3060ntf    on518897   3.128   4.344   1.383 -0.2489 -0.1590 -0.4925
 3060ntf    fn418898   3.136   4.426   1.117 -0.2150  0.3300 -0.4695
 3060ntf    fn418899   3.219   4.606   1.198  0.0005  0.1447  0.0722
 3060ntf    fn418900   3.341   4.466   1.107  0.1902 -0.0270  0.2913
 3061ntf    cn118901   3.200   6.897   5.627  0.0417  0.3468  0.2091
 3061ntf    sn218902   3.164   7.043   5.525 -0.1474  0.1533 -0.0049
 3061ntf    nn318903   3.247   7.004   5.397  0.0934  0.3603  0.0863
 3061ntf    sn218904   3.220   7.037   5.246 -0.2114 -0.2110  0.0131
 3061ntf    cn118905   3.357   7.148   5.202 -0.4060  0.0963  0.1779
 3061ntf    fn418906   3.327   6.862   5.626 -0.0353  0.0589  0.4051
 3061ntf    fn418907   3.163   6.919   5.752 -0.2904  0.5362  0.0777
 3061ntf    fn418908   3.133   6.793   5.578  0.3620  0.0553  0.3844
 3061ntf    on518909   3.022   7.048   5.503 -0.1351 -0.1099 -0.1415
 3061ntf    on518910   3.218   7.160   5.590 -0.3370  0.3697 -0.2377
 3061ntf    on518911   3.100   7.115   5.227 -0.4857 -0.4661  0.6797
 3061ntf    on518912   3.218   6.925   5.156  1.1277 -0.3025  0.0722
 3061ntf    fn418913   3.405   7.215   5.305  0.0284 -0.3576  0.2710
 3061ntf    fn418914   3.462   7.075   5.169 -0.4282 -0.2445  0.8570
 3061ntf    fn418915   3.334   7.236   5.105  0.4334  0.2597  0.1153
 3062ntf    cn118916   0.540   6.485   3.371  0.3515  0.0238 -0.2257
 3062ntf    sn218917   0.499   6.339   3.272 -0.2933  0.0820 -0.0506
 3062ntf    nn318918   0.646   6.291   3.241 -0.4882 -0.2575 -0.4553
 3062ntf    sn218919   0.745   6.314   3.121  0.1525 -0.1758  0.0844
 3062ntf    cn118920   0.777   6.143   3.066  0.2152 -0.2581  0.3770
 3062ntf    fn418921   0.557   6.586   3.286  0.3604 -0.4731 -0.8215
 3062ntf    fn418922   0.439   6.528   3.445 -0.0568 -0.4890 -0.4812
 3062ntf    fn418923   0.648   6.473   3.447 -0.1837  0.0243  0.5436
 3062ntf    on518924   0.433   6.244   3.358  0.2481 -0.1184  0.1534
 3062ntf    on518925   0.421   6.389   3.162 -0.3275 -0.0111 -0.0686
 3062ntf    on518926   0.871   6.373   3.157 -0.1333  0.3627  0.2099
 3062ntf    on518927   0.670   6.378   3.016 -0.5053 -0.3243  0.4578
 3062ntf    fn418928   0.674   6.078   3.017  0.5508 -0.7287  0.2907
 3062ntf    fn418929   0.857   6.152   2.961 -0.2487 -0.0736  0.0373
 3062ntf    fn418930   0.842   6.076   3.160  0.1954 -0.7407  0.0509
 3063ntf    cn118931   2.594   6.403   0.704  0.0565  0.3336 -0.0838
 3063ntf    sn218932   2.560   6.240   0.631 -0.0006  0.1124  0.4302
 3063ntf    nn318933   2.410   6.273   0.601  0.2297 -0.0505 -0.9449
 3063ntf    sn218934   2.288   6.175   0.621  0.3512 -0.1174 -0.5406
 3063ntf    cn118935   2.208   6.239   0.771  0.3572  0.0783 -0.6202
 3063ntf    fn418936   2.501   6.442   0.791 -0.0922  0.3435 -0.2464
 3063ntf    fn418937   2.707   6.391   0.772  0.1752  0.3991 -0.2698
 3063ntf    fn418938   2.605   6.493   0.608 -0.2159 -0.0179 -0.4468
 3063ntf    on518939   2.652   6.222   0.521 -0.2370  1.2298  0.0405
 3063ntf    on518940   2.585   6.160   0.749 -0.7239 -0.0666  0.4686
 3063ntf    on518941   2.322   6.037   0.644  0.1261 -0.1355 -0.3134
 3063ntf    on518942   2.190   6.200   0.519  0.1689 -0.1983 -0.3860
 3063ntf    fn418943   2.159   6.359   0.744 -0.4979 -0.2508 -0.5602
 3063ntf    fn418944   2.106   6.168   0.816  0.5321  0.2277  0.0248
 3063ntf    fn418945   2.293   6.242   0.873  0.2657  0.3724 -0.5489
 3064ntf    cn118946   3.657   5.034   5.383 -0.0171  0.0454 -0.0754
 3064ntf    sn218947   3.533   4.916   5.321  0.1760 -0.2142  0.0265
 3064ntf    nn318948   3.438   4.908   5.445  0.3657  0.7741  0.2461
 3064ntf    sn218949   3.442   4.807   5.566 -0.3367  0.1984 -0.2023
 3064ntf    cn118950   3.378   4.904   5.706  0.3831  0.1722  0.1453
 3064ntf    fn418951   3.728   5.002   5.489  0.1581  0.2613 -0.1286
 3064ntf    fn418952   3.741   5.066   5.285  0.2282 -0.6302 -0.0922
 3064ntf    fn418953   3.608   5.152   5.417 -0.0050  0.1501 -0.4133
 3064ntf    on518954   3.475   4.993   5.213  0.1055  0.2970  0.4226
 3064ntf    on518955   3.608   4.798   5.288  0.0513 -0.2451 -0.1478
 3064ntf    on518956   3.579   4.781   5.601 -0.5043 -0.1453  0.2040
 3064ntf    on518957   3.351   4.696   5.565  0.0086 -0.0887 -0.0101
 3064ntf    fn418958   3.438   5.021   5.719 -0.7374  0.7908 -0.2310
 3064ntf    fn418959   3.247   4.921   5.703  0.3328 -0.2476 -0.0857
 3064ntf    fn418960   3.391   4.839   5.821  0.0359 -0.4881 -0.1789
 3065ntf    cn118961   1.125   1.382   6.023  0.0866 -0.2075  0.4523
 3065ntf    sn218962   1.220   1.419   6.173  0.2072 -0.5569  0.4628
 3065ntf    nn318963   1.171   1.566   6.197  0.1302 -0.4326 -0.4381
 3065ntf    sn218964   1.219   1.702   6.133  0.3294 -0.3782 -0.1761
 3065ntf    cn118965   1.075   1.750   6.034  0.2654  0.0363  0.1150
 3065ntf    fn418966   0.996   1.377   6.050  0.0165 -0.2705  0.1206
 3065ntf    fn418967   1.139   1.470   5.924 -0.1200 -0.9926 -0.2830
 3065ntf    fn418968   1.170   1.272   5.966  0.4968  0.0409  0.2889
 3065ntf    on518969   1.164   1.331   6.273 -0.1355 -0.5947  0.2399
 3065ntf    on518970   1.360   1.409   6.139  0.1222  0.3400 -0.1950
 3065ntf    on518971   1.326   1.702   6.035  0.6263 -0.0321  0.1468
 3065ntf    on518972   1.209   1.804   6.234  0.0421 -0.2675 -0.3162
 3065ntf    fn418973   1.087   1.871   5.981  0.2977 -0.0245 -0.0185
 3065ntf    fn418974   1.044   1.668   5.934  0.2408 -0.0651  0.2050
 3065ntf    fn418975   0.966   1.757   6.109 -0.0597  0.3775 -0.3843
 3066ntf    cn118976   7.053   2.125   7.007 -0.4274 -0.3323 -0.3198
 3066ntf    sn218977   7.175   2.151   6.875 -0.0400  0.1134  0.1204
 3066ntf    nn318978   7.223   2.298   6.901  0.1471  0.1024 -0.1620
 3066ntf    sn218979   7.375   2.338   6.894  0.2467 -0.2785 -0.2301
 3066ntf    cn118980   7.367   2.474   6.774  0.0072 -0.1210 -0.0375
 3066ntf    fn418981   7.098   2.119   7.132  0.2213 -0.5364 -0.5574
 3066ntf    fn418982   6.959   2.217   7.000 -0.3045 -0.1559  0.3065
 3066ntf    fn418983   6.989   2.009   7.000 -0.3131 -0.3998 -0.2560
 3066ntf    on518984   7.271   2.048   6.908  0.1998  0.1887 -0.3453
 3066ntf    on518985   7.093   2.135   6.758 -0.2998  0.2870  0.2778
 3066ntf    on518986   7.471   2.249   6.835  0.7143  0.1156 -0.0724
 3066ntf    on518987   7.417   2.408   7.013 -0.3687  0.0053 -0.1770
 3066ntf    fn418988   7.467   2.471   6.687 -0.7263  0.1545 -0.8994
 3066ntf    fn418989   7.255   2.485   6.704 -0.0045 -0.1315 -0.0205
 3066ntf    fn418990   7.389   2.590   6.834 -0.2479 -0.2524  0.3091
 3067ntf    cn118991   3.451   3.489   0.238  0.0616  0.5723  0.1220
 3067ntf    sn218992   3.424   3.605   0.375  0.3903  0.3754  0.3553
 3067ntf    nn318993   3.360   3.512   0.485 -0.3840 -0.0619 -0.4465
 3067ntf    sn218994   3.446   3.416   0.574 -0.2483 -0.1021 -0.6203
 3067ntf    cn118995   3.306   3.315   0.631 -0.0847 -0.0625 -0.1432
 3067ntf    fn418996   3.531   3.387   0.266 -0.3412  0.2639  0.1686
 3067ntf    fn418997   3.338   3.431   0.201  0.2858  0.0512  0.2433
 3067ntf    fn418998   3.499   3.541   0.126  0.0038  0.6009  0.1104
 3067ntf    on518999   3.555   3.655   0.407  0.4451  0.3249  0.2128
 3067ntf    on519000   3.327   3.702   0.330  0.1521  0.1369  0.3471
 3067ntf    on519001   3.481   3.464   0.705 -0.0981  0.1991 -0.7716
 3067ntf    on519002   3.534   3.322   0.508  0.0659 -0.1343 -0.1541
 3067ntf    fn419003   3.284   3.215   0.546 -0.4296 -0.4408  0.3876
 3067ntf    fn419004   3.340   3.261   0.747  0.3661 -0.2068 -0.3405
 3067ntf    fn419005   3.194   3.384   0.646  0.0722  0.3810 -0.9374
 3068ntf    cn119006   6.457   2.423   6.071 -0.1067  0.4468  0.0238
 3068ntf    sn219007   6.447   2.301   6.206 -0.4169 -0.0310 -0.4299
 3068ntf    nn319008   6.309   2.340   6.268 -0.2016 -0.3495  0.2572
 3068ntf    sn219009   6.285   2.412   6.406  0.0558  0.2315  0.0051
 3068ntf    cn119010   6.104   2.419   6.410  0.0612  0.1514  0.4358
 3068ntf    fn419011   6.354   2.419   5.989  0.4009  0.4262 -0.6261
 3068ntf    fn419012   6.470   2.546   6.119 -0.5132  0.4947  0.0078
 3068ntf    fn419013   6.567   2.408   5.999 -0.1682 -0.4546  0.1167
 3068ntf    on519014   6.454   2.178   6.131 -0.2240  0.0311 -0.5167
 3068ntf    on519015   6.559   2.334   6.291 -0.6049 -0.4002 -0.0352
 3068ntf    on519016   6.334   2.547   6.407  0.4392  0.0973 -0.3923
 3068ntf    on519017   6.317   2.329   6.520  0.0941  0.2200 -0.0137
 3068ntf    fn419018   6.053   2.297   6.409  0.6242 -0.0816 -0.1470
 3068ntf    fn419019   6.042   2.482   6.509 -0.7404  0.1439 -0.0454
 3068ntf    fn419020   6.055   2.482   6.305 -0.0430 -0.2755  0.2256
 3069ntf    cn119021   1.716   1.598   2.440  0.0670 -0.2676 -0.1083
 3069ntf    sn219022   1.865   1.648   2.531  0.0587 -0.2525 -0.1033
 3069ntf    nn319023   1.966   1.664   2.412 -0.2404 -0.5886 -0.4032
 3069ntf    sn219024   2.103   1.594   2.380 -0.0664 -0.4534  0.0422
 3069ntf    cn119025   2.046   1.455   2.278 -0.2622 -0.0582 -0.3879
 3069ntf    fn419026   1.629   1.696   2.425  0.1158 -0.1687  0.2416
 3069ntf    fn419027   1.739   1.550   2.319 -0.8123 -0.7069 -0.1059
 3069ntf    fn419028   1.642   1.512   2.508 -0.1670 -0.2191 -0.3000
 3069ntf    on519029   1.835   1.769   2.604 -0.5488 -0.4075 -0.0909
 3069ntf    on519030   1.877   1.536   2.622 -0.4177 -0.1946  0.0321
 3069ntf    on519031   2.172   1.531   2.490  0.7476  0.2337 -0.0594
 3069ntf    on519032   2.186   1.675   2.295 -0.5558  0.4795  0.4322
 3069ntf    fn419033   1.965   1.373   2.343  0.5095 -0.2865  0.2994
 3069ntf    fn419034   1.990   1.496   2.165 -0.7235 -0.2720 -0.2389
 3069ntf    fn419035   2.141   1.376   2.233 -0.2576 -0.6932  0.7268
 3070ntf    cn119036   3.627   5.227   4.524  0.3630  0.1717 -0.0001
 3070ntf    sn219037   3.560   5.395   4.544  0.0151  0.0098  0.1929
 3070ntf    nn319038   3.408   5.359   4.526 -0.0343  0.2905  0.0594
 3070ntf    sn219039   3.300   5.309   4.628  0.0027 -0.2052 -0.1452
 3070ntf    cn119040   3.198   5.457   4.655 -0.3800 -0.4615 -0.1857
 3070ntf    fn419041   3.616   5.179   4.401 -0.1824  0.2249  0.0249
 3070ntf    fn419042   3.754   5.215   4.558  0.2400 -0.1170  0.3687
 3070ntf    fn419043   3.555   5.144   4.598 -0.0085  0.1799 -0.3468
 3070ntf    on519044   3.598   5.436   4.677 -0.0252 -0.0637  0.2275
 3070ntf    on519045   3.612   5.463   4.428 -0.6775 -0.0655 -0.1702
 3070ntf    on519046   3.349   5.286   4.762  0.1980  0.2037 -0.1448
 3070ntf    on519047   3.208   5.211   4.575  0.1958 -0.1478 -0.5896
 3070ntf    fn419048   3.083   5.431   4.716  0.0121 -0.0975  0.7207
 3070ntf    fn419049   3.253   5.554   4.726 -0.2064 -0.3995 -0.4042
 3070ntf    fn419050   3.154   5.514   4.544 -0.0291 -0.3125 -0.2471
 3071ntf    cn119051   2.133   6.916   3.634  0.1780 -0.2997  0.0836
 3071ntf    sn219052   2.040   6.964   3.783  0.2790  0.1895 -0.0094
 3071ntf    nn319053   1.992   7.109   3.746 -0.3826 -0.0390 -0.0633
 3071ntf    sn219054   1.846   7.157   3.719 -0.3900 -0.0424 -0.0288
 3071ntf    cn119055   1.774   7.168   3.886 -0.0150  0.6091  0.0925
 3071ntf    fn419056   2.232   7.002   3.618 -0.1377  0.1969  0.7507
 3071ntf    fn419057   2.192   6.799   3.647  0.7458 -0.0229  0.0005
 3071ntf    fn419058   2.058   6.909   3.525  0.2859  0.4846 -0.0488
 3071ntf    on519059   1.945   6.857   3.799  0.0806  0.3208 -0.3009
 3071ntf    on519060   2.139   6.975   3.887 -0.4546 -0.1588  0.7306
 3071ntf    on519061   1.757   7.075   3.640  0.4162 -0.7621 -0.1989
 3071ntf    on519062   1.843   7.299   3.691 -0.1510  0.0568  0.4426
 3071ntf    fn419063   1.702   7.063   3.919  0.2164  0.6358  0.6838
 3071ntf    fn419064   1.864   7.178   3.982  0.0575  0.2101  0.0657
 3071ntf    fn419065   1.691   7.270   3.898 -0.4149  0.3321 -0.2901
 3072ntf    cn119066   4.798   6.303   1.382 -0.2918 -0.0974  0.3713
 3072ntf    sn219067   4.854   6.411   1.246 -0.4655 -0.1819  0.2327
 3072ntf    nn319068   4.929   6.299   1.165  0.3124 -0.2271  0.9978
 3072ntf    sn219069   5.081   6.288   1.129  0.1273 -0.2357  0.1959
 3072ntf    cn119070   5.079   6.196   0.972  0.0622 -0.0274  0.0733
 3072ntf    fn419071   4.904   6.280   1.459 -0.1008  0.0020  0.1409
 3072ntf    fn419072   4.718   6.370   1.462 -0.2890  0.1546  0.1632
 3072ntf    fn419073   4.740   6.191   1.341  0.4263 -0.3892  0.1303
 3072ntf    on519074   4.727   6.446   1.187 -0.4304 -0.2744  0.1017
 3072ntf    on519075   4.925   6.522   1.304  0.2123 -0.3272 -0.3082
 3072ntf    on519076   5.162   6.201   1.211 -0.0842 -0.5684  0.0548
 3072ntf    on519077   5.138   6.413   1.084  0.1698 -0.3107  0.0407
 3072ntf    fn419078   5.025   6.075   0.983 -0.3061  0.1556  0.3159
 3072ntf    fn419079   5.000   6.258   0.886 -0.1419  0.2873  0.4861
 3072ntf    fn419080   5.198   6.179   0.918 -0.4193 -0.2325 -0.9333
 3073ntf    cn119081   1.896   2.184   1.934  0.0998 -0.3183  0.2399
 3073ntf    sn219082   1.722   2.129   1.934  0.0171 -0.0564 -0.0961
 3073ntf    nn319083   1.760   1.980   1.904  0.1214 -0.0346 -0.0736
 3073ntf    sn219084   1.689   1.853   1.964  0.0843  0.1677  0.3136
 3073ntf    cn119085   1.773   1.851   2.125  0.2058 -0.2052  0.2446
 3073ntf    fn419086   1.954   2.188   1.816 -0.1268 -0.1659  0.1332
 3073ntf    fn419087   1.920   2.299   1.994 -0.4058 -0.1244  0.0790
 3073ntf    fn419088   1.966   2.095   2.002  0.0349 -0.2308  0.4235
 3073ntf    on519089   1.682   2.168   2.067  0.2323 -0.4289  0.0785
 3073ntf    on519090   1.662   2.201   1.824 -0.3117  0.2128  0.2557
 3073ntf    on519091   1.728   1.736   1.890  0.5131  0.6237 -0.1887
 3073ntf    on519092   1.546   1.869   1.979  0.0421  0.1785 -0.0911
 3073ntf    fn419093   1.731   1.946   2.206 -0.0388 -0.0634 -0.0489
 3073ntf    fn419094   1.763   1.738   2.194 -0.3388 -0.7516 -0.6961
 3073ntf    fn419095   1.903   1.874   2.121  0.1017  0.3049 -0.3449
 3074ntf    cn119096   4.624   2.473   0.578  0.0227  0.0516  0.4404
 3074ntf    sn219097   4.501   2.593   0.637 -0.2959 -0.0062 -0.1029
 3074ntf    nn319098   4.394   2.561   0.527  0.0292 -0.4933 -0.2816
 3074ntf    sn219099   4.299   2.663   0.454  0.2710 -0.0202  0.0630
 3074ntf    cn119100   4.311   2.586   0.290  0.2354 -0.0419  0.0707
 3074ntf    fn419101   4.737   2.479   0.647 -0.1197  0.2321  0.6610
 3074ntf    fn419102   4.578   2.349   0.593  0.0482  0.0467  0.4780
 3074ntf    fn419103   4.656   2.497   0.452 -0.0983 -0.2903  0.3415
 3074ntf    on519104   4.461   2.543   0.767  0.0253 -0.1802 -0.0703
 3074ntf    on519105   4.566   2.721   0.639  0.4303 -0.3681 -0.1149
 3074ntf    on519106   4.344   2.799   0.435  0.1007  0.0109 -0.1245
 3074ntf    on519107   4.161   2.633   0.485  0.2798  0.0394  0.1617
 3074ntf    fn419108   4.289   2.456   0.288 -0.2331  0.0312  0.2635
 3074ntf    fn419109   4.234   2.644   0.200  0.3490 -0.0380 -0.0244
 3074ntf    fn419110   4.434   2.595   0.243  0.0376 -0.3433 -0.5222
 3075ntf    cn119111   4.482   6.317   6.757 -0.4374  0.0577  0.1885
 3075ntf    sn219112   4.342   6.235   6.839 -0.3610  0.1308  0.3931
 3075ntf    nn319113   4.428   6.176   6.956 -0.1952  0.1032  0.2580
 3075ntf    sn219114   4.500   6.038   6.977  0.0897  0.2067 -0.0547
 3075ntf    cn119115   4.654   6.074   7.066  0.1560  0.0159 -0.0915
 3075ntf    fn419116   4.572   6.224   6.727  0.0788  0.5760  0.1116
 3075ntf    fn419117   4.451   6.389   6.650  0.1842 -0.0400 -0.0602
 3075ntf    fn419118   4.548   6.395   6.841 -0.6581 -0.0931  0.5041
 3075ntf    on519119   4.251   6.337   6.888 -0.0067  0.8142 -0.3507
 3075ntf    on519120   4.293   6.145   6.738  0.2599  0.3382 -0.1025
 3075ntf    on519121   4.548   5.979   6.854 -0.9339 -0.6605 -0.0449
 3075ntf    on519122   4.417   5.951   7.056  0.0262 -0.3346 -0.7061
 3075ntf    fn419123   4.710   6.178   7.007 -0.6915  0.2689 -0.4601
 3075ntf    fn419124   4.618   6.113   7.188 -0.7404  0.2091 -0.4138
 3075ntf    fn419125   4.732   5.969   7.087 -0.4274 -0.4631 -0.2879
 3076ntf    cn119126   4.442   4.744   3.652 -0.0359  0.5513 -0.4489
 3076ntf    sn219127   4.274   4.768   3.718  0.0622 -0.1155  0.0486
 3076ntf    nn319128   4.206   4.648   3.644 -0.2118 -0.1365  0.3339
 3076ntf    sn219129   4.096   4.551   3.700 -0.2674 -0.1055  0.2776
 3076ntf    cn119130   4.075   4.438   3.559  0.5330 -0.1443  0.1871
 3076ntf    fn419131   4.440   4.784   3.526 -0.5747  0.4181 -0.4865
 3076ntf    fn419132   4.540   4.805   3.718 -0.4043  0.2724  0.3604
 3076ntf    fn419133   4.476   4.617   3.648  0.3816  0.6241  0.4019
 3076ntf    on519134   4.293   4.749   3.860 -0.3311 -0.1461  0.0963
 3076ntf    on519135   4.239   4.897   3.663 -0.4075 -0.2726 -0.0250
 3076ntf    on519136   3.966   4.612   3.716 -0.3331 -0.1500 -0.0886
 3076ntf    on519137   4.129   4.468   3.813 -0.8663 -0.5579  0.1300
 3076ntf    fn419138   4.035   4.502   3.451 -0.0007  0.2774  0.6275
 3076ntf    fn419139   4.177   4.361   3.524  0.7162 -0.0863  0.5824
 3076ntf    fn419140   3.989   4.343   3.591  0.5186 -0.2049 -0.0316
 3077ntf    cn119141   5.727   3.301   6.930  0.1045 -0.4383 -0.3648
 3077ntf    sn219142   5.897   3.298   6.996 -0.0021  0.0454 -0.0605
 3077ntf    nn319143   5.943   3.438   6.944 -0.1477  0.1733  0.1530
 3077ntf    sn219144   6.044   3.538   7.013 -0.0289  0.4102 -0.3616
 3077ntf    cn119145   5.920   3.622   7.116 -0.1471 -0.3320  0.1126
 3077ntf    fn419146   5.655   3.192   6.949  0.1644 -0.4716 -0.3266
 3077ntf    fn419147   5.658   3.397   6.991  0.0280 -0.5206 -0.3217
 3077ntf    fn419148   5.726   3.335   6.802 -0.2404 -0.3897 -0.3495
 3077ntf    on519149   5.876   3.271   7.136 -0.2547 -0.1457 -0.1327
 3077ntf    on519150   5.956   3.193   6.917  0.4583  0.3782 -0.1574
 3077ntf    on519151   6.091   3.633   6.915  0.1070  0.1750 -0.5278
 3077ntf    on519152   6.144   3.473   7.095 -0.3997  0.1236 -0.1349
 3077ntf    fn419153   5.975   3.724   7.179 -0.7720 -0.0075  0.1380
 3077ntf    fn419154   5.823   3.680   7.047 -0.0306 -0.2261  0.0376
 3077ntf    fn419155   5.855   3.552   7.207  0.0659 -0.0136  0.5102
 3078ntf    cn119156   5.043   5.814   3.376  0.0660  0.0431 -0.0650
 3078ntf    sn219157   5.112   5.925   3.503 -0.1425  0.0517  0.0403
 3078ntf    nn319158   5.210   5.822   3.570 -0.0121  0.0422 -0.1632
 3078ntf    sn219159   5.171   5.735   3.695 -0.0372  0.1597 -0.0897
 3078ntf    cn119160   5.145   5.854   3.830  0.0540  0.3434 -0.2338
 3078ntf    fn419161   4.920   5.835   3.332  0.0190 -0.0443  0.0266
 3078ntf    fn419162   5.110   5.817   3.262  0.4045 -0.7030  0.1121
 3078ntf    fn419163   5.059   5.686   3.403  0.4442  0.1128  0.0491
 3078ntf    on519164   5.180   6.030   3.431 -0.0928 -0.0375 -0.0434
 3078ntf    on519165   5.002   5.965   3.587 -0.7514 -1.0936 -0.1831
 3078ntf    on519166   5.293   5.680   3.749  0.2528  0.3056 -0.5859
 3078ntf    on519167   5.062   5.643   3.674 -0.1086  0.2202  0.0153
 3078ntf    fn419168   5.027   5.913   3.818 -0.0315  0.1882 -0.1537
 3078ntf    fn419169   5.140   5.790   3.945  0.5276 -0.3388 -0.5835
 3078ntf    fn419170   5.240   5.946   3.826  0.4683 -0.0696  0.0573
 3079ntf    cn119171   1.207   0.558   2.745  0.0795  0.1321 -0.1393
 3079ntf    sn219172   1.249   0.437   2.616  0.0465  0.0402 -0.0636
 3079ntf    nn319173   1.248   0.523   2.484  0.1897  0.2374  0.0635
 3079ntf    sn219174   1.141   0.548   2.372  0.3071 -0.2142 -0.1505
 3079ntf    cn119175   1.160   0.727   2.348 -0.1559 -0.1131  0.2152
 3079ntf    fn419176   1.304   0.637   2.787 -0.4162  0.5794  0.1769
 3079ntf    fn419177   1.095   0.625   2.725 -0.4699 -0.7751 -0.1501
 3079ntf    fn419178   1.181   0.493   2.857  0.3683  0.1021 -0.0893
 3079ntf    on519179   1.382   0.396   2.653 -0.1304 -0.4992 -0.0155
 3079ntf    on519180   1.138   0.347   2.637  0.1038  0.0060  0.0892
 3079ntf    on519181   1.005   0.547   2.420  0.3267 -1.2823 -0.0915
 3079ntf    on519182   1.177   0.493   2.244 -0.6881 -0.0736 -0.5014
 3079ntf    fn419183   1.141   0.800   2.457  0.5379  0.2031  0.1281
 3079ntf    fn419184   1.285   0.757   2.319 -0.2282 -0.2881 -0.2844
 3079ntf    fn419185   1.079   0.773   2.254  0.4095  0.2220 -0.1130
 3080ntf    cn119186   1.788   5.497   3.712 -0.2979  0.3877 -0.3352
 3080ntf    sn219187   1.840   5.464   3.884 -0.0882  0.0536 -0.4606
 3080ntf    nn319188   1.751   5.576   3.951  0.4832 -0.0663  0.5084
 3080ntf    sn219189   1.647   5.577   4.068 -0.0922  0.1332 -0.0029
 3080ntf    cn119190   1.500   5.580   3.960 -0.0251 -0.3028 -0.1080
 3080ntf    fn419191   1.864   5.592   3.660  0.1881  0.2369  0.0903
 3080ntf    fn419192   1.798   5.391   3.634 -0.0170  0.1837 -0.0261
 3080ntf    fn419193   1.663   5.539   3.718 -0.6627 -0.7420  0.2358
 3080ntf    on519194   1.796   5.329   3.909  0.8554 -0.2177 -0.2389
 3080ntf    on519195   1.981   5.490   3.885  0.0112 -0.4652 -0.7307
 3080ntf    on519196   1.649   5.700   4.142  0.8060  0.2615 -0.2345
 3080ntf    on519197   1.634   5.452   4.139 -0.4287 -0.1392 -0.5342
 3080ntf    fn419198   1.396   5.603   4.039 -0.2663  0.3643 -0.6176
 3080ntf    fn419199   1.497   5.682   3.876 -0.5884 -0.1134  0.1391
 3080ntf    fn419200   1.477   5.471   3.888 -0.5403 -0.0718 -0.2918
 3081ntf    cn119201   6.879   5.649   5.869  0.4621  0.4754 -0.2394
 3081ntf    sn219202   6.849   5.501   5.769 -0.1834  0.2208  0.3209
 3081ntf    nn319203   6.935   5.400   5.853  0.1616  0.4569  0.2585
 3081ntf    sn219204   7.077   5.340   5.826  0.0790  0.4489 -0.1570
 3081ntf    cn119205   7.044   5.219   5.694 -0.1735 -0.0169  0.3330
 3081ntf    fn419206   6.824   5.754   5.811 -0.0314  0.1423 -0.3790
 3081ntf    fn419207   6.822   5.636   5.988  0.2055 -0.1256 -0.4263
 3081ntf    fn419208   7.007   5.680   5.889  0.4373  0.2782  0.2417
 3081ntf    on519209   6.707   5.478   5.774 -0.2002  0.0183 -0.7622
 3081ntf    on519210   6.910   5.519   5.639  0.1881 -0.1181  0.4459
 3081ntf    on519211   7.120   5.266   5.942  0.2893  0.1115 -0.4452
 3081ntf    on519212   7.159   5.445   5.771  1.1096 -0.3888 -0.2695
 3081ntf    fn419213   6.993   5.270   5.583 -0.3505  0.3206  0.5668
 3081ntf    fn419214   7.137   5.131   5.661  0.0694  0.4903 -0.3461
 3081ntf    fn419215   6.952   5.133   5.735  0.0523 -0.0173  0.8486
 3082ntf    cn119216   0.401   4.170   1.649  0.0243  0.0940  0.2983
 3082ntf    sn219217   0.235   4.146   1.581  0.0813 -0.0570  0.2122
 3082ntf    nn319218   0.225   3.990   1.590  0.2079 -0.0643  0.2319
 3082ntf    sn219219   0.169   3.901   1.707 -0.1008  0.0355  0.1620
 3082ntf    cn119220   0.000   3.873   1.645 -0.0730 -0.0390  0.1194
 3082ntf    fn419221   0.492   4.094   1.590 -0.0434  0.1447  0.1303
 3082ntf    fn419222   0.454   4.292   1.645  0.0337  0.0959  0.4604
 3082ntf    fn419223   0.417   4.137   1.777  1.1468  0.4311  0.2624
 3082ntf    on519224   0.147   4.212   1.674  0.3727  0.2909  0.2446
 3082ntf    on519225   0.241   4.196   1.446 -0.2927 -0.3203  0.0977
 3082ntf    on519226   0.145   3.960   1.836 -0.2443  0.0567  0.1259
 3082ntf    on519227   0.227   3.769   1.695  0.2326  0.1994 -0.0490
 3082ntf    fn419228  -0.071   3.786   1.715 -0.1828  0.2356  0.3510
 3082ntf    fn419229  -0.083   3.975   1.641  0.1199  0.1304  0.3897
 3082ntf    fn419230   0.004   3.809   1.529  0.4258 -0.1754  0.2071
 3083ntf    cn119231   6.714   2.408   3.905 -0.8097 -0.1393 -0.3402
 3083ntf    sn219232   6.808   2.253   3.906 -0.0383  0.3228  0.2229
 3083ntf    nn319233   6.902   2.266   3.781 -0.4990  0.7995 -0.0751
 3083ntf    sn219234   7.055   2.302   3.780 -0.2829 -0.1148 -0.0369
 3083ntf    cn119235   7.142   2.148   3.825  0.1185  0.1277  0.0160
 3083ntf    fn419236   6.637   2.407   3.798 -0.6102 -0.4768 -0.4822
 3083ntf    fn419237   6.639   2.423   4.014  0.4235  0.3644  0.4717
 3083ntf    fn419238   6.793   2.515   3.909 -0.1424 -0.6462  0.7992
 3083ntf    on519239   6.871   2.265   4.036  0.5710  0.5399 -0.0888
 3083ntf    on519240   6.702   2.156   3.891  1.0508 -0.8397 -0.1809
 3083ntf    on519241   7.084   2.396   3.885  1.0889 -0.4785 -0.0624
 3083ntf    on519242   7.102   2.329   3.646  0.4142  0.3572  0.2984
 3083ntf    fn419243   7.273   2.159   3.843  0.0806  0.0481  0.3450
 3083ntf    fn419244   7.092   2.093   3.934 -0.5896 -0.1409 -0.4390
 3083ntf    fn419245   7.126   2.059   3.728  0.3263 -0.1244  0.2125
 3084ntf    cn119246   0.085   1.538   6.391 -0.4944  0.1046  0.3714
 3084ntf    sn219247   0.113   1.417   6.523  0.2651  0.0298  0.1468
 3084ntf    nn319248  -0.040   1.394   6.551  0.2055 -0.5857 -0.6547
 3084ntf    sn219249  -0.115   1.271   6.613  0.3873 -0.4221 -0.1079
 3084ntf    cn119250  -0.147   1.184   6.457 -0.1449  0.0722 -0.2762
 3084ntf    fn419251   0.027   1.648   6.436 -0.3817 -0.2284  1.3501
 3084ntf    fn419252   0.199   1.577   6.337 -0.1727 -0.0632  0.9286
 3084ntf    fn419253   0.007   1.497   6.292 -0.2119 -0.0301  0.2040
 3084ntf    on519254   0.178   1.298   6.474 -0.2815 -0.3433  0.3186
 3084ntf    on519255   0.190   1.499   6.614  1.1619 -0.2173 -0.3802
 3084ntf    on519256  -0.245   1.313   6.658  0.2258 -0.3007 -0.6753
 3084ntf    on519257  -0.032   1.186   6.695  0.1430 -0.0630  0.5214
 3084ntf    fn419258  -0.182   1.262   6.356  0.1593  0.0398 -0.4054
 3084ntf    fn419259  -0.038   1.121   6.418 -0.1330  0.0737 -0.2450
 3084ntf    fn419260  -0.242   1.092   6.459 -0.2907  0.2246 -0.0302
 3085ntf    cn119261   6.733   1.576   4.162  0.1284 -0.0015 -0.1649
 3085ntf    sn219262   6.830   1.714   4.230 -0.0406  0.1603 -0.2515
 3085ntf    nn319263   6.765   1.737   4.371  0.3866 -0.2836  0.0174
 3085ntf    sn219264   6.769   1.862   4.466  0.1232 -0.2583 -0.0052
 3085ntf    cn119265   6.590   1.892   4.469  0.1287 -0.2289  0.0688
 3085ntf    fn419266   6.601   1.591   4.168  0.1057 -0.1449 -0.2936
 3085ntf    fn419267   6.761   1.553   4.035 -0.2547 -0.4517 -0.1726
 3085ntf    fn419268   6.755   1.463   4.226  0.0986  0.1494  0.1139
 3085ntf    on519269   6.962   1.658   4.245 -0.0570  0.2398  0.1941
 3085ntf    on519270   6.816   1.822   4.135 -0.4692  0.3188 -0.0124
 3085ntf    on519271   6.813   1.982   4.400 -0.5208 -0.3324 -0.5742
 3085ntf    on519272   6.800   1.837   4.605  0.0393  0.0017  0.0615
 3085ntf    fn419273   6.556   1.926   4.592  0.5810  0.0355  0.1218
 3085ntf    fn419274   6.562   1.991   4.385  0.2192 -0.0668  0.2308
 3085ntf    fn419275   6.520   1.786   4.433 -0.0083 -0.0458 -0.2077
 3086ntf    cn119276   5.780   6.431   4.724  0.0492  0.1483 -0.2060
 3086ntf    sn219277   5.787   6.545   4.583  0.3243 -0.0932 -0.3887
 3086ntf    nn319278   5.813   6.683   4.652 -0.9967  0.1556 -0.3627
 3086ntf    sn219279   5.882   6.803   4.579 -0.1196  0.1027  0.3565
 3086ntf    cn119280   6.057   6.756   4.564 -0.1927 -0.0461 -0.0578
 3086ntf    fn419281   5.895   6.427   4.789 -0.1748  0.3442  0.2079
 3086ntf    fn419282   5.686   6.467   4.809  0.0704 -0.4029  0.0564
 3086ntf    fn419283   5.746   6.306   4.693 -0.0325 -0.0364  0.6079
 3086ntf    on519284   5.894   6.490   4.503  0.9094  0.5907 -0.0859
 3086ntf    on519285   5.654   6.538   4.527  0.2253 -0.0887 -0.1545
 3086ntf    on519286   5.888   6.912   4.674 -0.0111  0.4172 -0.0046
 3086ntf    on519287   5.841   6.832   4.443 -0.0920 -0.6525  0.1839
 3086ntf    fn419288   6.112   6.759   4.685 -0.4050 -0.5001  0.0543
 3086ntf    fn419289   6.087   6.642   4.504  0.2317  0.0220  0.0209
 3086ntf    fn419290   6.128   6.846   4.499 -0.0528 -0.0803  0.0476
 3087ntf    cn119291   0.602   1.215   5.818 -0.1159 -0.1027  0.0715
 3087ntf    sn219292   0.446   1.212   5.724 -0.1541 -0.0866  0.1345
 3087ntf    nn319293   0.370   1.088   5.784  0.2778 -0.1363  0.5818
 3087ntf    sn219294   0.388   0.939   5.740  0.1473  0.1394 -0.4241
 3087ntf    cn119295   0.249   0.909   5.626 -0.2069 -0.3191  0.1219
 3087ntf    fn419296   0.675   1.105   5.813 -0.5003 -0.3891  0.6972
 3087ntf    fn419297   0.679   1.315   5.778 -0.2858  0.3873  0.9447
 3087ntf    fn419298   0.586   1.235   5.947 -0.7529 -0.2979  0.0275
 3087ntf    on519299   0.382   1.337   5.753  0.0878  0.1515 -0.3424
 3087ntf    on519300   0.479   1.196   5.585  0.1530 -0.1414  0.2121
 3087ntf    on519301   0.346   0.857   5.852 -0.0027  0.6640 -0.0948
 3087ntf    on519302   0.498   0.895   5.658  0.4138  0.4130 -0.2161
 3087ntf    fn419303   0.225   0.780   5.613 -0.3297 -0.2333 -0.4953
 3087ntf    fn419304   0.132   0.961   5.659 -0.2106 -0.3170  0.1057
 3087ntf    fn419305   0.279   0.951   5.505 -0.5192 -0.4323  0.0048
 3088ntf    cn119306   3.231   4.135   4.722 -0.1044 -0.0045  0.0112
 3088ntf    sn219307   3.303   4.098   4.885  0.1849  0.1523 -0.0795
 3088ntf    nn319308   3.277   4.233   4.961  0.5813  0.1614  0.0430
 3088ntf    sn219309   3.353   4.299   5.081  0.2778  0.4515  0.0778
 3088ntf    cn119310   3.454   4.423   4.994  0.4327  0.3290  0.0821
 3088ntf    fn419311   3.099   4.145   4.727 -0.1348 -0.1397 -0.5354
 3088ntf    fn419312   3.272   4.248   4.666  0.1880 -0.2175 -0.2037
 3088ntf    fn419313   3.252   4.038   4.635  0.3423  0.0878  0.0119
 3088ntf    on519314   3.230   3.985   4.936  0.6736 -0.2003 -0.1546
 3088ntf    on519315   3.445   4.080   4.864  0.2205  0.4859 -0.1270
 3088ntf    on519316   3.451   4.213   5.143  0.2949  0.4288  0.0199
 3088ntf    on519317   3.265   4.374   5.167  0.0393 -0.4402  0.6219
 3088ntf    fn419318   3.562   4.372   4.938  0.1845 -0.2736  0.1470
 3088ntf    fn419319   3.380   4.472   4.896  0.5461  0.4568  0.0599
 3088ntf    fn419320   3.498   4.523   5.069  0.4055 -0.0532  0.6153
 3089ntf    cn119321   0.149   2.196   4.602 -0.0104 -0.3613 -0.3422
 3089ntf    sn219322  -0.004   2.220   4.698  0.1636 -0.0770 -0.1334
 3089ntf    nn319323   0.035   2.362   4.751  0.0723 -0.1690  0.1786
 3089ntf    sn219324   0.009   2.508   4.701 -0.2603 -0.1933  0.2805
 3089ntf    cn119325  -0.149   2.534   4.787 -0.3776  0.4519 -0.1196
 3089ntf    fn419326   0.140   2.268   4.492  0.5568  0.3461  0.0672
 3089ntf    fn419327   0.249   2.238   4.678 -0.0180 -0.6570 -0.1654
 3089ntf    fn419328   0.171   2.071   4.565  0.2929 -0.3052 -0.3543
 3089ntf    on519329  -0.105   2.215   4.595 -0.2289  0.5912  0.2124
 3089ntf    on519330  -0.002   2.115   4.796 -0.0730  0.1761  0.1428
 3089ntf    on519331  -0.020   2.504   4.560  0.1051 -0.4632  0.2131
 3089ntf    on519332   0.087   2.623   4.740 -0.6956  0.2239 -0.0631
 3089ntf    fn419333  -0.239   2.449   4.738  0.5375 -0.8641  0.4216
 3089ntf    fn419334  -0.134   2.514   4.917 -0.2169  0.1320 -0.1861
 3089ntf    fn419335  -0.204   2.653   4.773 -0.6285  0.3349 -0.1378
 3090ntf    cn119336   2.819   6.451   3.318  0.2285  0.1288 -0.3329
 3090ntf    sn219337   2.955   6.400   3.428  0.2936  0.0998 -0.4268
 3090ntf    nn319338   2.976   6.537   3.501 -0.2936 -0.2029  0.3130
 3090ntf    sn219339   3.107   6.623   3.509 -0.1669 -0.3556 -0.1092
 3090ntf    cn119340   3.177   6.580   3.672  0.3511 -0.2527 -0.3016
 3090ntf    fn419341   2.878   6.526   3.226  0.2058  0.4664 -0.0747
 3090ntf    fn419342   2.747   6.357   3.261  0.1824  0.2537 -0.4821
 3090ntf    fn419343   2.734   6.531   3.380  0.0974  0.0479 -0.4079
 3090ntf    on519344   2.906   6.303   3.522 -0.0313  0.1387 -0.5542
 3090ntf    on519345   3.070   6.363   3.350  0.2100  0.4715 -0.7345
 3090ntf    on519346   3.083   6.765   3.518 -0.2937 -0.3944  0.1748
 3090ntf    on519347   3.215   6.588   3.421  0.4805 -0.1650  0.5987
 3090ntf    fn419348   3.073   6.587   3.753  0.1976  0.6939 -0.5647
 3090ntf    fn419349   3.209   6.452   3.685 -0.0314 -0.3694 -0.4964
 3090ntf    fn419350   3.274   6.656   3.718 -0.1536 -0.1822  0.6749
 3091ntf    cn119351   4.131   0.617   4.637  0.5263 -0.0070 -0.5239
 3091ntf    sn219352   4.169   0.631   4.814 -0.0294 -0.0703 -0.3995
 3091ntf    nn319353   4.143   0.481   4.851 -1.1122  0.1442 -0.2492
 3091ntf    sn219354   4.070   0.427   4.979 -0.1290 -0.0002  0.2616
 3091ntf    cn119355   3.893   0.431   4.935 -0.0833  0.3472  0.1047
 3091ntf    fn419356   4.198   0.710   4.571  0.6336  0.5217  0.3262
 3091ntf    fn419357   4.167   0.501   4.583 -0.1964 -0.2731 -0.4439
 3091ntf    fn419358   4.003   0.631   4.607  0.5173  0.6859 -0.1658
 3091ntf    on519359   4.309   0.661   4.826 -0.1203  0.0664  0.3581
 3091ntf    on519360   4.072   0.726   4.864  0.4520  0.5721 -0.6666
 3091ntf    on519361   4.069   0.508   5.098 -0.2092  0.5831 -0.1288
 3091ntf    on519362   4.088   0.285   4.986 -0.8511 -0.1415 -0.5068
 3091ntf    fn419363   3.828   0.344   5.010 -0.1106  0.0879 -0.2191
 3091ntf    fn419364   3.843   0.552   4.952 -0.5020  0.1524  0.2724
 3091ntf    fn419365   3.876   0.401   4.807 -0.4314 -0.8528  0.4235
 3092ntf    cn119366   5.650   0.287   5.172 -0.0134  0.4502  0.0645
 3092ntf    sn219367   5.690   0.127   5.249 -0.1182  0.2585 -0.2773
 3092ntf    nn319368   5.846   0.143   5.240 -0.0633  0.0601  0.3004
 3092ntf    sn219369   5.940   0.098   5.123 -0.0584 -0.0770  0.3563
 3092ntf    cn119370   5.977  -0.071   5.179  0.0052  0.0145  0.5913
 3092ntf    fn419371   5.524   0.319   5.195 -0.2684 -0.4878  0.0036
 3092ntf    fn419372   5.731   0.386   5.206  0.4138  0.1872 -0.1835
 3092ntf    fn419373   5.661   0.272   5.041 -0.1356  0.3045  0.0705
 3092ntf    on519374   5.648   0.144   5.385  0.3722 -0.9506  0.0376
 3092ntf    on519375   5.618   0.029   5.172  0.8230 -0.4790 -0.2276
 3092ntf    on519376   6.070   0.162   5.124 -0.0072 -0.1856  0.6318
 3092ntf    on519377   5.874   0.073   4.997  0.4815 -0.2905  0.1122
 3092ntf    fn419378   5.973  -0.073   5.311  0.3672 -0.3811  0.5967
 3092ntf    fn419379   5.891  -0.159   5.132  0.8003 -0.4272 -0.0768
 3092ntf    fn419380   6.094  -0.114   5.135  0.3024  1.2516  0.1155
 3093ntf    cn119381   3.862   1.282   2.803  0.1165 -0.1276 -0.4144
 3093ntf    sn219382   3.784   1.397   2.685 -0.1398  0.0409 -0.0822
 3093ntf    nn319383   3.680   1.468   2.779 -0.1133 -0.0095 -0.0150
 3093ntf    sn219384   3.536   1.411   2.804  0.0557 -0.3332  0.2145
 3093ntf    cn119385   3.488   1.501   2.955 -0.2467 -0.0583 -0.0466
 3093ntf    fn419386   3.973   1.229   2.755  0.0555 -0.4318 -0.2169
 3093ntf    fn419387   3.899   1.339   2.916 -0.0218 -0.2418 -0.3117
 3093ntf    fn419388   3.784   1.183   2.843  0.1935  0.0708  0.2366
 3093ntf    on519389   3.889   1.491   2.657  0.0616 -0.0947  0.2166
 3093ntf    on519390   3.738   1.312   2.578 -0.0502 -0.1431  0.0254
 3093ntf    on519391   3.536   1.271   2.839 -1.2103 -0.6190 -0.8899
 3093ntf    on519392   3.443   1.459   2.705  0.3608  0.0381  0.1066
 3093ntf    fn419393   3.565   1.473   3.058  0.1378 -0.2050 -0.3698
 3093ntf    fn419394   3.496   1.633   2.944 -0.2368 -0.0443  0.1359
 3093ntf    fn419395   3.360   1.483   2.981 -0.0834 -0.1891  0.6662
 3094ntf    cn119396   3.611   6.112   0.508 -0.3933 -0.3442 -0.3257
 3094ntf    sn219397   3.700   5.978   0.423  0.2761 -0.0630 -0.0738
 3094ntf    nn319398   3.847   5.998   0.476  0.2033 -0.3251  0.2294
 3094ntf    sn219399   3.982   5.956   0.408  0.1196 -0.4091  0.1152
 3094ntf    cn119400   4.050   5.910   0.570 -0.1140 -0.0623  0.3126
 3094ntf    fn419401   3.483   6.105   0.477 -0.5190 -0.5596  0.2273
 3094ntf    fn419402   3.633   6.111   0.639 -0.3233 -0.0763 -0.3345
 3094ntf    fn419403   3.647   6.233   0.470  0.6430 -0.2852  0.7542
 3094ntf    on519404   3.641   5.857   0.475 -0.3110  0.0672 -0.4298
 3094ntf    on519405   3.678   6.004   0.283  0.2748  0.1052 -0.0433
 3094ntf    on519406   4.062   6.067   0.363 -0.0021 -0.4031 -0.0870
 3094ntf    on519407   3.984   5.836   0.328 -0.3711  0.0152 -0.5403
 3094ntf    fn419408   4.018   5.786   0.605  0.3849 -0.1694  0.3865
 3094ntf    fn419409   4.181   5.918   0.563 -0.1087  0.0197  0.5109
 3094ntf    fn419410   4.004   5.983   0.670  0.3162  0.8240 -0.1291
 3095ntf    cn119411   6.317   3.590   5.120  0.1233 -0.1252  0.1875
 3095ntf    sn219412   6.440   3.461   5.159  0.1897 -0.0467  0.2376
 3095ntf    nn319413   6.433   3.471   5.316 -0.1960 -0.2310  0.2323
 3095ntf    sn219414   6.414   3.352   5.417 -0.1348 -0.2508  0.2208
 3095ntf    cn119415   6.533   3.403   5.544  0.1409  0.1809 -0.2056
 3095ntf    fn419416   6.196   3.562   5.165  0.0068 -0.3583 -0.2682
 3095ntf    fn419417   6.351   3.711   5.161  0.1251 -0.0330 -0.0825
 3095ntf    fn419418   6.305   3.600   4.989 -0.1099  0.5117  0.2530
 3095ntf    on519419   6.388   3.340   5.101 -0.0406 -0.0414  0.4331
 3095ntf    on519420   6.561   3.519   5.105  0.0712  0.7742  0.8333
 3095ntf    on519421   6.473   3.226   5.378 -0.7041 -0.5284  0.2478
 3095ntf    on519422   6.285   3.348   5.480 -0.1341  0.2840  0.2583
 3095ntf    fn419423   6.504   3.517   5.606 -0.1401  0.0032 -0.0041
 3095ntf    fn419424   6.545   3.313   5.640 -0.5261 -0.2235 -0.4943
 3095ntf    fn419425   6.656   3.404   5.495 -0.0577 -0.6934 -0.7475
 3096ntf    cn119426   2.419   0.405   3.316  0.2044  0.2379 -0.1211
 3096ntf    sn219427   2.370   0.232   3.292 -0.2469  0.3638 -0.1025
 3096ntf    nn319428   2.497   0.155   3.343 -0.4857  0.0839  0.0732
 3096ntf    sn219429   2.578   0.038   3.276 -0.5477 -0.1639  0.4293
 3096ntf    cn119430   2.444  -0.084   3.254 -0.0270 -0.6214 -0.2294
 3096ntf    fn419431   2.314   0.483   3.333 -0.1626 -0.2259 -0.2607
 3096ntf    fn419432   2.510   0.428   3.409  0.1145 -0.2220  0.0799
 3096ntf    fn419433   2.468   0.451   3.202 -0.0274 -0.1165 -0.3660
 3096ntf    on519434   2.252   0.214   3.374 -0.0927  0.2196  0.0899
 3096ntf    on519435   2.345   0.231   3.150  0.0524  0.6907 -0.1586
 3096ntf    on519436   2.668  -0.038   3.359 -0.0801 -0.2307 -0.1348
 3096ntf    on519437   2.635   0.059   3.146  0.4327  0.3111  0.9263
 3096ntf    fn419438   2.485  -0.201   3.207 -0.1221 -0.6354 -0.2758
 3096ntf    fn419439   2.388  -0.114   3.370 -0.4212 -0.2582 -0.3232
 3096ntf    fn419440   2.343  -0.041   3.181  0.2424 -0.0551 -0.2826
 3097ntf    cn119441   3.321   6.208   5.599  0.0322  0.1523  0.1960
 3097ntf    sn219442   3.367   6.169   5.770  0.4037  0.2504  0.1185
 3097ntf    nn319443   3.417   6.309   5.821 -0.2373  0.3995  0.3496
 3097ntf    sn219444   3.566   6.348   5.850 -0.0643 -0.0826  0.1075
 3097ntf    cn119445   3.566   6.525   5.810  0.1578 -0.0891  0.0749
 3097ntf    fn419446   3.420   6.249   5.522  0.3486  0.5286  0.8005
 3097ntf    fn419447   3.265   6.100   5.547  0.2708  0.2758 -0.3184
 3097ntf    fn419448   3.234   6.308   5.597 -0.1728 -0.0233  0.2767
 3097ntf    on519449   3.239   6.130   5.825  0.1383  0.0716 -0.6119
 3097ntf    on519450   3.462   6.062   5.756  0.0447 -0.1007  0.3379
 3097ntf    on519451   3.667   6.284   5.768 -0.5057 -0.3269 -0.2502
 3097ntf    on519452   3.581   6.339   5.993 -0.0659  0.7927  0.1633
 3097ntf    fn419453   3.562   6.552   5.681  0.4360 -0.6058 -0.0432
 3097ntf    fn419454   3.471   6.593   5.872 -0.2082 -0.5150 -0.0171
 3097ntf    fn419455   3.676   6.585   5.854  0.0593 -0.1295  0.3793
 3098ntf    cn119456   2.523   2.347   0.027 -0.0855  0.1654 -0.2765
 3098ntf    sn219457   2.438   2.246   0.152 -0.0196  0.4284 -0.0181
 3098ntf    nn319458   2.293   2.306   0.158 -0.2250 -0.0578  0.0036
 3098ntf    sn219459   2.245   2.423   0.251  0.0898 -0.2245  0.3758
 3098ntf    cn119460   2.203   2.337   0.406 -0.4793 -0.1879  0.2418
 3098ntf    fn419461   2.505   2.476   0.051 -0.2925  0.1346 -0.2644
 3098ntf    fn419462   2.653   2.323   0.026 -0.0908  0.1321 -0.1948
 3098ntf    fn419463   2.472   2.339  -0.095  0.0046 -0.4465 -0.2808
 3098ntf    on519464   2.445   2.118   0.085 -0.2138  0.1352  0.5117
 3098ntf    on519465   2.528   2.251   0.264 -0.1775  0.6393  0.0977
 3098ntf    on519466   2.118   2.466   0.198 -0.0060 -0.2605  0.5758
 3098ntf    on519467   2.343   2.526   0.277 -0.0340 -0.0113  0.0093
 3098ntf    fn419468   2.115   2.239   0.392 -0.5243 -0.0950 -0.1399
 3098ntf    fn419469   2.311   2.273   0.448 -0.0617  0.0098 -0.4994
 3098ntf    fn419470   2.164   2.411   0.508  0.0588  0.0939  0.2460
 3099ntf    cn119471   2.658   2.008   5.175 -0.2578  0.5404  0.2090
 3099ntf    sn219472   2.766   2.088   5.297  0.0125  0.2187  0.1812
 3099ntf    nn319473   2.689   2.223   5.315 -0.5141 -0.0808  0.1807
 3099ntf    sn219474   2.719   2.346   5.408  0.4466 -0.5306  0.4796
 3099ntf    cn119475   2.829   2.443   5.301 -0.1356 -0.4514 -0.0586
 3099ntf    fn419476   2.703   1.890   5.136 -0.2911  0.6335 -0.1139
 3099ntf    fn419477   2.535   1.987   5.219 -0.0041  0.4933  0.8975
 3099ntf    fn419478   2.647   2.085   5.068 -0.4493  0.5114  0.2061
 3099ntf    on519479   2.763   1.993   5.405 -0.1090 -0.3687 -0.3354
 3099ntf    on519480   2.892   2.094   5.227 -0.0244 -0.1149  0.0873
 3099ntf    on519481   2.792   2.310   5.527 -0.2922 -0.5595  0.9327
 3099ntf    on519482   2.601   2.427   5.430  0.2057 -0.7151 -0.1178
 3099ntf    fn419483   2.785   2.441   5.177 -0.6114 -0.9108  0.1134
 3099ntf    fn419484   2.831   2.572   5.332  0.3874 -0.3457 -0.5159
 3099ntf    fn419485   2.958   2.412   5.306 -0.0963 -0.2418  0.2853
 3100ntf    cn119486   2.558   1.899   5.687  0.0012 -0.1442 -0.6021
 3100ntf    sn219487   2.398   1.875   5.771  0.1880 -0.0399 -0.2121
 3100ntf    nn319488   2.345   2.022   5.782 -0.3547 -0.2736  0.3310
 3100ntf    sn219489   2.219   2.096   5.725  0.2853  0.2815 -0.3760
 3100ntf    cn119490   2.250   2.273   5.753  0.1191  0.2848 -0.2087
 3100ntf    fn419491   2.561   1.978   5.582  0.1869  0.4587 -0.1475
 3100ntf    fn419492   2.649   1.941   5.774 -0.1978 -0.4934 -0.2187
 3100ntf    fn419493   2.591   1.778   5.645  0.8467 -0.0420 -0.2653
 3100ntf    on519494   2.333   1.786   5.678  0.0387 -0.4442  0.2731
 3100ntf    on519495   2.435   1.828   5.902  0.7878  0.6927 -0.1116
 3100ntf    on519496   2.105   2.078   5.811  0.6040 -0.2933 -0.0656
 3100ntf    on519497   2.198   2.086   5.582 -0.1517  0.4824 -0.3293
 3100ntf    fn419498   2.143   2.346   5.729  0.1124  0.2230 -0.3670
 3100ntf    fn419499   2.296   2.295   5.875  0.1560 -0.4696 -0.0848
 3100ntf    fn419500   2.345   2.312   5.669 -0.2737  0.0464 -0.7685
 3101ntf    cn119501   5.292   4.977   0.272  0.0481 -0.2446 -0.4124
 3101ntf    sn219502   5.271   5.070   0.427  0.2896 -0.0875 -0.4720
 3101ntf    nn319503   5.387   5.006   0.511  0.4757  0.4106 -0.3483
 3101ntf    sn219504   5.400   4.977   0.665 -0.1926 -0.1234 -0.3865
 3101ntf    cn119505   5.417   4.796   0.669 -0.4598 -0.1396  0.1629
 3101ntf    fn419506   5.305   4.846   0.281  0.1629 -0.1938  0.2046
 3101ntf    fn419507   5.209   5.002   0.172 -0.4372  0.4352  0.1508
 3101ntf    fn419508   5.414   5.009   0.231  0.0036  0.4053 -0.0529
 3101ntf    on519509   5.291   5.210   0.400 -0.4032  0.0403 -0.3488
 3101ntf    on519510   5.135   5.045   0.469  0.7161 -0.6166  0.6406
 3101ntf    on519511   5.284   5.004   0.746  0.4224 -0.0629  0.4919
 3101ntf    on519512   5.525   5.028   0.716 -0.0131 -0.0624 -0.8817
 3101ntf    fn419513   5.305   4.735   0.634 -0.3711  0.2967 -0.9126
 3101ntf    fn419514   5.509   4.755   0.582 -0.2498  0.2837  0.1823
 3101ntf    fn419515   5.460   4.757   0.788  0.2522  0.1962  0.0245
 3102ntf    cn119516   2.465   6.951   2.581 -0.0428 -0.4990 -0.0058
 3102ntf    sn219517   2.333   6.880   2.478 -0.3068 -0.3285  0.2141
 3102ntf    nn319518   2.247   6.816   2.593 -0.0379  0.4955  0.8827
 3102ntf    sn219519   2.182   6.674   2.599  0.2000  0.3607  0.2678
 3102ntf    cn119520   2.249   6.621   2.759 -0.3243 -0.2724  0.2829
 3102ntf    fn419521   2.578   6.951   2.513 -0.4772 -0.9221 -0.7478
 3102ntf    fn419522   2.436   7.076   2.612  0.5753 -0.4536  0.4026
 3102ntf    fn419523   2.481   6.896   2.700  0.0749  0.0005  0.2120
 3102ntf    on519524   2.261   6.977   2.400  0.0663  0.2267  0.5527
 3102ntf    on519525   2.404   6.782   2.401  0.0481 -0.0872  0.2330
 3102ntf    on519526   2.235   6.567   2.518  0.3031  0.3808  0.3083
 3102ntf    on519527   2.041   6.691   2.622  0.0305  0.5235 -0.8162
 3102ntf    fn419528   2.218   6.699   2.861 -0.0616  0.2141 -0.0057
 3102ntf    fn419529   2.202   6.504   2.799  0.0567 -0.4385  0.2535
 3102ntf    fn419530   2.380   6.599   2.763 -0.2876 -0.1747 -0.3403
 3103ntf    cn119531   0.364   5.868   1.345 -0.0796 -0.1787  0.0811
 3103ntf    sn219532   0.345   6.007   1.229  0.1439 -0.2886 -0.0872
 3103ntf    nn319533   0.216   5.966   1.148 -0.0088  0.1299 -0.0599
 3103ntf    sn219534   0.079   5.941   1.221  0.1492  0.2899  0.2935
 3103ntf    cn119535   0.009   6.098   1.164  0.1350  0.0151 -0.4567
 3103ntf    fn419536   0.488   5.844   1.383  0.0080  0.3662  0.1574
 3103ntf    fn419537   0.294   5.886   1.456  0.1769  0.1228  0.1983
 3103ntf    fn419538   0.322   5.758   1.285  0.0767 -0.1893 -0.0093
 3103ntf    on519539   0.330   6.124   1.310 -0.1071  0.2174 -0.8539
 3103ntf    on519540   0.461   5.995   1.144  0.6451 -0.5242  0.6214
 3103ntf    on519541   0.069   5.950   1.365 -0.2032  0.7394  0.2419
 3103ntf    on519542   0.003   5.833   1.162 -0.0590 -0.0075  1.0951
 3103ntf    fn419543   0.010   6.098   1.032 -0.5323 -0.4802 -0.4636
 3103ntf    fn419544  -0.119   6.111   1.194  0.0646 -0.8727 -0.3409
 3103ntf    fn419545   0.068   6.208   1.207  0.3533 -0.2211 -0.1483
 3104ntf    cn119546   3.727   5.435   0.925  0.2283  0.1243  0.3552
 3104ntf    sn219547   3.691   5.344   0.772 -0.2248  0.2596  0.3798
 3104ntf    nn319548   3.607   5.225   0.833 -0.4380 -0.1704 -0.7365
 3104ntf    sn219549   3.459   5.226   0.886 -0.2331  0.1949 -0.1618
 3104ntf    cn119550   3.385   5.117   0.761 -0.3185 -0.1160  0.1597
 3104ntf    fn419551   3.808   5.539   0.917  0.4253 -0.0213  0.4343
 3104ntf    fn419552   3.621   5.472   0.995 -0.0608  0.2015 -0.1224
 3104ntf    fn419553   3.787   5.351   1.008  0.0551 -0.0468  0.3073
 3104ntf    on519554   3.620   5.437   0.688 -0.1894  0.4373  0.5469
 3104ntf    on519555   3.818   5.290   0.732 -0.3002  0.5288 -0.2246
 3104ntf    on519556   3.393   5.354   0.877 -0.1771  0.2568  0.2918
 3104ntf    on519557   3.430   5.154   1.007  0.4907 -0.1081 -0.1614
 3104ntf    fn419558   3.253   5.104   0.765 -0.4196  0.8629  0.2707
 3104ntf    fn419559   3.412   5.157   0.638  0.3920  0.4746  0.5031
 3104ntf    fn419560   3.438   4.999   0.785 -0.2941 -0.1099  0.1360
 3105ntf    cn119561   6.157   6.576   6.691  0.1808  0.0126 -0.0093
 3105ntf    sn219562   6.041   6.523   6.562 -0.1092 -0.1531  0.3169
 3105ntf    nn319563   6.027   6.369   6.591 -0.5991 -0.2105 -0.2051
 3105ntf    sn219564   5.927   6.282   6.676 -0.0478 -0.3477  0.3045
 3105ntf    cn119565   6.046   6.170   6.755 -0.0627 -0.5226  0.0784
 3105ntf    fn419566   6.279   6.536   6.660  0.1478 -0.2804  0.2329
 3105ntf    fn419567   6.155   6.708   6.702  0.1421  0.0080  0.0368
 3105ntf    fn419568   6.135   6.544   6.818  0.2882 -0.2133 -0.0479
 3105ntf    on519569   5.918   6.596   6.581  0.0367  0.3363 -0.5528
 3105ntf    on519570   6.105   6.552   6.436 -0.2691  0.0385  0.2802
 3105ntf    on519571   5.844   6.191   6.602 -0.8944  0.4481  0.2546
 3105ntf    on519572   5.870   6.352   6.789 -0.3713 -0.5363  0.2563
 3105ntf    fn419573   6.079   6.064   6.683  0.5505  0.0042 -0.4221
 3105ntf    fn419574   6.157   6.240   6.766 -0.2202 -0.2297 -0.2077
 3105ntf    fn419575   6.009   6.131   6.876  0.1819  0.0719  0.3488
 3106ntf    cn119576   0.836   2.582   1.345  0.4733 -0.2272 -0.2007
 3106ntf    sn219577   0.978   2.670   1.417  0.3736 -0.1868 -0.0536
 3106ntf    nn319578   0.957   2.666   1.573  0.6197  0.1859 -0.0086
 3106ntf    sn219579   0.872   2.745   1.679  0.2033 -0.0372 -0.1739
 3106ntf    cn119580   0.984   2.727   1.820 -0.3837 -0.5945  0.2281
 3106ntf    fn419581   0.720   2.646   1.342  0.1047 -0.8981 -0.3561
 3106ntf    fn419582   0.867   2.545   1.222  0.2085  0.6571 -0.5454
 3106ntf    fn419583   0.823   2.468   1.410  0.4406  0.0558  0.2958
 3106ntf    on519584   1.092   2.592   1.378  0.4944  0.0449 -0.1702
 3106ntf    on519585   0.962   2.799   1.354  0.1306 -0.3781 -0.3833
 3106ntf    on519586   0.749   2.680   1.717  0.1557  0.2486  0.1630
 3106ntf    on519587   0.878   2.889   1.666 -0.6165  0.0347  0.1600
 3106ntf    fn419588   1.001   2.847   1.875 -0.2055 -0.6469  0.2892
 3106ntf    fn419589   0.949   2.648   1.920 -0.5872  0.2330  0.8277
 3106ntf    fn419590   1.100   2.685   1.773 -0.2625 -0.3785  0.3299
 3107ntf    cn119591   1.987   6.260   6.467 -0.0886  0.2883 -0.4022
 3107ntf    sn219592   2.061   6.360   6.599  0.1995  0.1085 -0.4251
 3107ntf    nn319593   1.925   6.433   6.629  0.0924 -0.0381 -0.5529
 3107ntf    sn219594   1.875   6.575   6.585  0.1536  0.1778  0.0637
 3107ntf    cn119595   1.702   6.546   6.633  0.0761  0.1588 -0.2267
 3107ntf    fn419596   1.869   6.219   6.511  0.1443 -0.1517 -0.1772
 3107ntf    fn419597   1.956   6.330   6.360 -0.4037 -0.0744 -0.5540
 3107ntf    fn419598   2.059   6.157   6.426 -0.8189 -0.1296 -0.6548
 3107ntf    on519599   2.092   6.264   6.702  0.2565 -0.0971 -0.6330
 3107ntf    on519600   2.162   6.421   6.517  0.2730  0.2155 -0.2566
 3107ntf    on519601   1.866   6.604   6.444 -0.1711  0.3046  0.1102
 3107ntf    on519602   1.914   6.678   6.679  0.3327  0.1689 -0.0004
 3107ntf    fn419603   1.655   6.445   6.561 -0.1379 -0.0139  0.1523
 3107ntf    fn419604   1.692   6.516   6.761  0.3946 -0.5202 -0.3510
 3107ntf    fn419605   1.615   6.644   6.617 -0.4390 -0.2503  0.0065
 3108ntf    cn119606   4.971   0.527   3.934 -0.2443  0.3002 -0.2124
 3108ntf    sn219607   4.920   0.550   3.761 -0.0413  0.3412 -0.2670
 3108ntf    nn319608   4.913   0.706   3.743  0.3707  0.3827 -0.0728
 3108ntf    sn219609   4.802   0.801   3.801  0.0054  0.1588 -0.3978
 3108ntf    cn119610   4.696   0.822   3.655 -0.1869 -0.0213 -0.2846
 3108ntf    fn419611   4.868   0.543   4.015  0.0661 -0.1226  0.2708
 3108ntf    fn419612   5.017   0.404   3.948  0.2490  0.4666 -0.3465
 3108ntf    fn419613   5.066   0.608   3.977  0.0579 -0.2972  0.2525
 3108ntf    on519614   5.036   0.497   3.693  0.1277 -0.6296  0.7522
 3108ntf    on519615   4.799   0.476   3.737  0.3363 -0.4225  0.1679
 3108ntf    on519616   4.845   0.937   3.822  0.2028  0.0915 -0.3659
 3108ntf    on519617   4.718   0.744   3.903  0.2801  0.1772 -0.1596
 3108ntf    fn419618   4.621   0.716   3.627 -0.1375  0.0477 -0.6857
 3108ntf    fn419619   4.616   0.923   3.685 -0.4685 -0.3241 -0.0080
 3108ntf    fn419620   4.764   0.860   3.548  0.4977 -0.0934  0.1187
 3109ntf    cn119621   1.874   0.923   4.351  0.1680  0.0199 -0.5203
 3109ntf    sn219622   1.778   1.076   4.328  0.0490  0.0337  0.0336
 3109ntf    nn319623   1.705   1.051   4.191 -0.2679  0.1820  0.1755
 3109ntf    sn219624   1.756   1.092   4.049 -0.0406  0.0989  0.2323
 3109ntf    cn119625   1.609   1.166   3.972  0.1866 -0.1155 -0.4145
 3109ntf    fn419626   1.961   0.908   4.253  0.4471 -0.2981 -0.2232
 3109ntf    fn419627   1.938   0.907   4.466  0.3006 -0.1985 -0.6256
 3109ntf    fn419628   1.813   0.807   4.332  0.3997 -0.2457  0.3179
 3109ntf    on519629   1.695   1.063   4.444  0.0251  0.2392  0.0412
 3109ntf    on519630   1.875   1.183   4.338 -0.1152  0.2015 -0.1486
 3109ntf    on519631   1.779   0.975   3.968  0.1037  0.0436  0.3537
 3109ntf    on519632   1.856   1.196   4.053  0.3649 -0.2443 -0.6035
 3109ntf    fn419633   1.638   1.239   3.865  0.4290 -0.3417 -0.5044
 3109ntf    fn419634   1.522   1.080   3.922  0.2520 -0.0299 -0.6815
 3109ntf    fn419635   1.539   1.240   4.056  0.2968 -0.2365 -0.2158
 3110ntf    cn119636   1.339   4.886   5.438 -0.2658 -0.2156 -0.2165
 3110ntf    sn219637   1.492   4.906   5.342 -0.0331  0.0478  0.2066
 3110ntf    nn319638   1.458   5.051   5.293 -0.4282 -0.1992 -0.2551
 3110ntf    sn219639   1.558   5.167   5.260 -0.1472 -0.4483 -0.2770
 3110ntf    cn119640   1.508   5.206   5.090 -0.1221 -0.2800 -0.2460
 3110ntf    fn419641   1.236   4.920   5.362 -0.3070  0.4982  0.1497
 3110ntf    fn419642   1.319   4.764   5.484  0.3276 -0.1960  0.1148
 3110ntf    fn419643   1.330   4.960   5.547 -0.1727 -0.4976 -0.0154
 3110ntf    on519644   1.601   4.897   5.436  0.0366  0.6934  0.1908
 3110ntf    on519645   1.483   4.811   5.234  0.6756 -0.0686  0.2421
 3110ntf    on519646   1.691   5.117   5.235  0.0322 -0.0084 -0.2114
 3110ntf    on519647   1.535   5.292   5.328  0.8785 -0.3124 -0.1560
 3110ntf    fn419648   1.603   5.266   5.020  0.0211 -0.2276 -0.0059
 3110ntf    fn419649   1.469   5.099   5.023 -0.2039 -0.3212 -0.1325
 3110ntf    fn419650   1.406   5.290   5.082  0.2324  0.2166  0.2824
 3111ntf    cn119651   7.063   1.837   6.243  0.1637 -0.0049  0.2262
 3111ntf    sn219652   7.234   1.861   6.187  0.1541  0.4648  0.3917
 3111ntf    nn319653   7.208   1.996   6.112 -0.0322  0.0835 -0.2406
 3111ntf    sn219654   7.249   2.139   6.161 -0.3208  0.1179 -0.0963
 3111ntf    cn119655   7.089   2.219   6.133 -0.2377  0.1586 -0.4556
 3111ntf    fn419656   7.035   1.896   6.358 -0.1605  0.1052  0.0932
 3111ntf    fn419657   6.973   1.896   6.166  0.2638  0.3131  0.3520
 3111ntf    fn419658   7.025   1.711   6.229 -0.3615  0.1867 -0.1025
 3111ntf    on519659   7.315   1.855   6.306  0.1220 -0.6023  0.3710
 3111ntf    on519660   7.254   1.748   6.099 -0.4542  0.4990  0.2044
 3111ntf    on519661   7.345   2.199   6.071  0.3244 -0.1304  0.4125
 3111ntf    on519662   7.264   2.163   6.303  0.1994 -0.6435 -0.0156
 3111ntf    fn419663   7.067   2.225   6.003  0.4052 -0.1466 -0.5788
 3111ntf    fn419664   6.996   2.147   6.193  0.2564 -0.1086 -0.0033
 3111ntf    fn419665   7.090   2.342   6.182  0.3045  0.1197 -0.3625
 3112ntf    cn119666   7.019   4.658   6.982  0.8275  0.0488 -0.2902
 3112ntf    sn219667   7.096   4.582   6.835 -0.0426 -0.4864 -0.4756
 3112ntf    nn319668   7.152   4.710   6.763  0.1442  0.1773  0.8109
 3112ntf    sn219669   7.288   4.777   6.801  0.3262  0.4116 -0.2181
 3112ntf    cn119670   7.410   4.700   6.690 -0.1063 -0.1486 -0.3092
 3112ntf    fn419671   6.920   4.742   6.960  0.4012 -0.2801  0.3431
 3112ntf    fn419672   6.962   4.575   7.068  0.9215  0.3740  0.0877
 3112ntf    fn419673   7.105   4.724   7.057 -0.1726  0.2807  0.6828
 3112ntf    on519674   7.188   4.487   6.892  0.2977  0.3938  0.4837
 3112ntf    on519675   6.982   4.519   6.773 -0.2666 -0.5197 -0.0405
 3112ntf    on519676   7.345   4.732   6.926  0.3313  0.9180 -0.0366
 3112ntf    on519677   7.283   4.917   6.768  0.1165  0.4416 -0.0571
 3112ntf    fn419678   7.408   4.568   6.690 -0.4008 -0.1467 -0.3749
 3112ntf    fn419679   7.384   4.736   6.565 -0.7508 -0.2388 -0.2077
 3112ntf    fn419680   7.530   4.751   6.713 -0.5333  1.0742 -0.6932
 3113ntf    cn119681   4.960   5.410   2.447 -0.0370  0.2428  0.3240
 3113ntf    sn219682   4.865   5.310   2.329  0.2086  0.4314 -0.0369
 3113ntf    nn319683   4.979   5.218   2.274 -0.2618 -0.1438 -0.0580
 3113ntf    sn219684   4.966   5.106   2.165 -0.4530  0.1482 -0.3334
 3113ntf    cn119685   4.956   4.959   2.270  0.0047 -0.0257 -0.5316
 3113ntf    fn419686   5.046   5.337   2.516 -0.1423 -0.2019 -0.0136
 3113ntf    fn419687   5.033   5.502   2.385  0.5065 -0.5450 -0.2276
 3113ntf    fn419688   4.882   5.476   2.531  0.0035  0.4022  0.2368
 3113ntf    on519689   4.778   5.235   2.416 -0.1357  0.2173 -0.5577
 3113ntf    on519690   4.806   5.410   2.243 -0.2067 -0.2825 -0.5937
 3113ntf    on519691   5.094   5.093   2.099 -0.1143 -0.2426  0.3926
 3113ntf    on519692   4.847   5.108   2.084 -0.5819 -0.2178 -0.1504
 3113ntf    fn419693   4.860   4.966   2.360 -0.1655 -0.5916 -0.6686
 3113ntf    fn419694   4.931   4.850   2.199 -0.0317 -0.2635 -0.1560
 3113ntf    fn419695   5.067   4.930   2.336 -0.1388  0.5413 -0.0352
 3114ntf    cn119696   5.654   3.434   1.170 -0.2988  0.0664 -0.2103
 3114ntf    sn219697   5.513   3.392   1.063 -0.1628  0.0676 -0.3905
 3114ntf    nn319698   5.549   3.243   1.030 -0.2926 -0.1219  0.3018
 3114ntf    sn219699   5.448   3.123   1.033 -0.8274  0.3098 -0.1522
 3114ntf    cn119700   5.473   3.063   1.203  0.1129  0.2778 -0.2940
 3114ntf    fn419701   5.625   3.385   1.290 -0.1619 -0.0142 -0.2097
 3114ntf    fn419702   5.765   3.381   1.122  0.1408  1.0874 -0.3534
 3114ntf    fn419703   5.667   3.564   1.190 -0.6438  0.1186 -0.3171
 3114ntf    on519704   5.405   3.430   1.152 -0.1418  0.3191 -0.4711
 3114ntf    on519705   5.536   3.487   0.957  0.1885  0.3190 -0.0899
 3114ntf    on519706   5.498   3.006   0.964 -0.8603 -0.4627  1.0974
 3114ntf    on519707   5.311   3.165   1.020 -0.9057  0.1019 -0.0026
 3114ntf    fn419708   5.415   3.143   1.291  0.1119 -0.1494  0.0916
 3114ntf    fn419709   5.417   2.945   1.225  0.2789  0.2217 -0.1707
 3114ntf    fn419710   5.601   3.053   1.233 -0.1108 -0.6383  0.4038
 3115ntf    cn119711   5.004   2.573   3.993  0.3287 -0.6323  0.2044
 3115ntf    sn219712   4.944   2.699   4.110  0.0753 -0.4094 -0.1632
 3115ntf    nn319713   4.809   2.633   4.155 -0.2019  0.0434 -0.3282
 3115ntf    sn219714   4.725   2.660   4.285 -0.1734  0.3339 -0.3692
 3115ntf    cn119715   4.796   2.529   4.389 -0.2013  0.2671 -0.4339
 3115ntf    fn419716   5.113   2.599   3.923  0.1446 -0.5194 -0.0413
 3115ntf    fn419717   5.014   2.454   4.050 -0.6166 -0.9268 -0.2215
 3115ntf    fn419718   4.912   2.558   3.899  0.3040 -0.4760  0.2030
 3115ntf    on519719   5.052   2.704   4.204 -0.1366 -0.4505  0.0838
 3115ntf    on519720   4.925   2.811   4.022 -0.0847 -0.0665  0.3068
 3115ntf    on519721   4.587   2.617   4.280  0.0927 -0.5554 -0.2372
 3115ntf    on519722   4.750   2.786   4.350  0.1028 -0.3434  0.8615
 3115ntf    fn419723   4.751   2.409   4.356  0.4582 -0.0160 -0.3316
 3115ntf    fn419724   4.928   2.514   4.383 -0.1875  0.4302 -0.5477
 3115ntf    fn419725   4.761   2.559   4.513  0.3462  0.2994 -0.2851
 3116ntf    cn119726   1.167   0.943   1.301  0.4633 -0.1480 -0.4588
 3116ntf    sn219727   1.219   1.116   1.321  0.2291 -0.1428  0.1419
 3116ntf    nn319728   1.086   1.196   1.341  0.3477  0.2129 -0.4734
 3116ntf    sn219729   1.018   1.307   1.253 -0.1251  0.0820 -0.2788
 3116ntf    cn119730   0.889   1.203   1.179 -0.2820  0.2439 -0.2327
 3116ntf    fn419731   1.272   0.867   1.275  0.6496 -0.1214  0.1979
 3116ntf    fn419732   1.126   0.901   1.420  0.4278 -0.8753 -0.7207
 3116ntf    fn419733   1.075   0.907   1.214 -0.0841  0.1853 -0.0280
 3116ntf    on519734   1.290   1.109   1.446  0.4266 -0.4112  0.0159
 3116ntf    on519735   1.291   1.147   1.200  0.2950 -0.3188  0.1359
 3116ntf    on519736   1.084   1.355   1.134 -0.0859  0.5277 -0.0784
 3116ntf    on519737   0.950   1.403   1.336  0.0106  0.0896 -0.1762
 3116ntf    fn419738   0.939   1.093   1.125  0.1770 -0.0095  0.6894
 3116ntf    fn419739   0.795   1.150   1.255  0.0467 -0.2266 -0.1492
 3116ntf    fn419740   0.819   1.268   1.087  0.2592  0.9019 -0.1886
 3117ntf    cn119741   2.511   5.198   4.849  0.0369  0.1830 -0.1488
 3117ntf    sn219742   2.456   5.038   4.915  0.0478  0.1634 -0.1867
 3117ntf    nn319743   2.387   4.973   4.789  0.0382 -0.0699 -0.0610
 3117ntf    sn219744   2.234   4.948   4.768  0.0308 -0.1218  0.0548
 3117ntf    cn119745   2.243   4.783   4.846 -0.1113 -0.0797  0.1602
 3117ntf    fn419746   2.535   5.281   4.950 -0.1184  0.1089 -0.0523
 3117ntf    fn419747   2.626   5.184   4.785  0.6022 -0.1629  0.9225
 3117ntf    fn419748   2.421   5.252   4.769  0.3535  0.2355 -0.4741
 3117ntf    on519749   2.581   4.980   4.956 -0.3626 -0.0298  0.8200
 3117ntf    on519750   2.372   5.088   5.022  0.3630  0.0741  0.1036
 3117ntf    on519751   2.196   4.919   4.632 -0.8442 -0.5192  0.3719
 3117ntf    on519752   2.141   5.021   4.851 -0.0946 -0.0059 -0.1881
 3117ntf    fn419753   2.133   4.713   4.824  0.1612 -0.3367 -0.4182
 3117ntf    fn419754   2.338   4.701   4.803 -0.3242 -0.1480 -0.1802
 3117ntf    fn419755   2.269   4.791   4.975  0.3216 -0.1366  0.0800
 3118ntf    cn119756   7.059   0.500   1.279  0.0935 -0.0247  0.0166
 3118ntf    sn219757   7.219   0.583   1.301  0.2428 -0.2620 -0.1701
 3118ntf    nn319758   7.188   0.671   1.427 -0.8220 -0.5885 -0.2000
 3118ntf    sn219759   7.119   0.809   1.456  0.0426 -0.1178 -0.3668
 3118ntf    cn119760   7.267   0.914   1.465 -0.1921  0.1937 -0.1212
 3118ntf    fn419761   7.079   0.417   1.178  0.3948 -0.2967  0.3011
 3118ntf    fn419762   7.012   0.431   1.381 -0.3538  0.3712  0.0823
 3118ntf    fn419763   6.956   0.576   1.246 -0.6832 -0.8650  0.4732
 3118ntf    on519764   7.321   0.482   1.313  0.1212 -0.3595  0.0462
 3118ntf    on519765   7.219   0.670   1.185 -0.4123 -0.3189 -0.2167
 3118ntf    on519766   7.060   0.808   1.588  0.5648  0.5692 -0.1186
 3118ntf    on519767   7.037   0.859   1.349 -0.2418  0.5383  0.1499
 3118ntf    fn419768   7.348   0.865   1.557 -0.2549  0.0514 -0.1422
 3118ntf    fn419769   7.327   0.927   1.348 -0.0534 -0.7428 -0.1633
 3118ntf    fn419770   7.229   1.034   1.506  0.2314  0.4117 -0.3628
 3119ntf    cn119771   6.993   4.301   5.632 -0.0858  0.1131 -0.2801
 3119ntf    sn219772   7.155   4.339   5.704 -0.1570 -0.2679  0.0888
 3119ntf    nn319773   7.126   4.477   5.774 -0.2181 -0.1918 -0.0858
 3119ntf    sn219774   7.138   4.509   5.928 -0.0320  0.0239 -0.1445
 3119ntf    cn119775   7.247   4.654   5.918 -0.0415  0.0341 -0.0992
 3119ntf    fn419776   6.909   4.276   5.732  0.1275  0.1271 -0.0969
 3119ntf    fn419777   6.940   4.397   5.559  0.2501  0.7136  0.2602
 3119ntf    fn419778   7.001   4.192   5.558  0.5717 -0.3514  0.4558
 3119ntf    on519779   7.172   4.224   5.790 -0.5792 -0.2475  0.2026
 3119ntf    on519780   7.249   4.352   5.595 -0.3598  0.0706 -0.0489
 3119ntf    on519781   7.227   4.434   6.013  0.6126  1.1268  0.1787
 3119ntf    on519782   7.015   4.558   5.984 -0.3144 -0.7686 -0.0591
 3119ntf    fn419783   7.195   4.756   5.852  0.0107  0.0667 -0.0899
 3119ntf    fn419784   7.283   4.694   6.038  0.1313  0.0166 -0.1445
 3119ntf    fn419785   7.362   4.629   5.857  0.3137 -0.3022  0.6959
 3120ntf    cn119786   4.954   3.574   3.153  0.0859  0.0240 -0.1814
 3120ntf    sn219787   4.879   3.455   3.037 -0.6015  0.0253  0.2613
 3120ntf    nn319788   5.005   3.438   2.946 -0.3043  0.8961  0.4910
 3120ntf    sn219789   5.058   3.534   2.834  0.0271  0.1184 -0.0311
 3120ntf    cn119790   4.970   3.489   2.681  0.2708 -0.4674 -0.0012
 3120ntf    fn419791   5.051   3.523   3.228  0.1320  0.6893  0.2247
 3120ntf    fn419792   5.008   3.680   3.096  0.4921 -0.0360  0.0875
 3120ntf    fn419793   4.860   3.613   3.237  0.2167  0.0116 -0.0302
 3120ntf    on519794   4.846   3.343   3.121 -0.0811 -0.2704  0.0742
 3120ntf    on519795   4.769   3.523   2.972 -0.1178  0.5567 -0.0094
 3120ntf    on519796   5.198   3.515   2.807 -0.0121  0.3049 -0.3743
 3120ntf    on519797   5.019   3.671   2.855  0.3602  0.3113 -0.6490
 3120ntf    fn419798   4.985   3.365   2.638 -0.0563 -0.5122  0.0116
 3120ntf    fn419799   4.839   3.501   2.691  0.3748  0.2071  0.6076
 3120ntf    fn419800   5.009   3.565   2.579  0.1996 -0.3125  0.0870
 3121ntf    cn119801   6.832   5.660   0.119  0.0311  0.3975  0.0792
 3121ntf    sn219802   6.739   5.815   0.102 -0.0789  0.3030 -0.1770
 3121ntf    nn319803   6.783   5.876   0.239  0.2244  0.1370 -0.1997
 3121ntf    sn219804   6.695   5.909   0.365  0.0293  0.0041 -0.3030
 3121ntf    cn119805   6.812   5.937   0.501  0.0782  0.1705 -0.3792
 3121ntf    fn419806   6.945   5.682   0.185  0.2417  0.2062 -0.2138
 3121ntf    fn419807   6.770   5.568   0.190  0.8308  0.1684  0.4997
 3121ntf    fn419808   6.868   5.600   0.007 -0.1428  0.3879  0.0288
 3121ntf    on519809   6.818   5.880  -0.001  0.0610 -0.3434 -0.4838
 3121ntf    on519810   6.602   5.776   0.081  0.1679 -0.2448 -0.8002
 3121ntf    on519811   6.610   5.797   0.400 -0.0845  0.1975  0.0373
 3121ntf    on519812   6.627   6.036   0.353 -0.2587 -0.0460  0.7227
 3121ntf    fn419813   6.895   5.835   0.514 -0.0344  0.1551  0.2461
 3121ntf    fn419814   6.889   6.043   0.482  0.4657 -0.0885 -0.2572
 3121ntf    fn419815   6.755   5.957   0.619 -0.1640 -0.6049 -0.3645
 3122ntf    cn119816   2.592   1.551   4.985 -0.1949 -0.2932 -0.1674
 3122ntf    sn219817   2.697   1.431   4.897  0.0468 -0.0812 -0.1694
 3122ntf    nn319818   2.586   1.358   4.813 -0.0044 -0.1921 -0.0075
 3122ntf    sn219819   2.516   1.221   4.843 -0.0321 -0.1612  0.0689
 3122ntf    cn119820   2.631   1.099   4.772  0.1843  0.1221 -0.0689
 3122ntf    fn419821   2.652   1.654   5.041 -0.1179 -0.3528 -0.1414
 3122ntf    fn419822   2.491   1.602   4.915 -0.3520  0.2860  0.4704
 3122ntf    fn419823   2.522   1.489   5.079 -0.4088 -0.1077 -0.2024
 3122ntf    on519824   2.791   1.506   4.817  0.2282 -0.0373  0.0844
 3122ntf    on519825   2.740   1.349   5.007 -0.2315 -0.3614 -0.2678
 3122ntf    on519826   2.410   1.203   4.747  0.3328 -0.4733 -0.2797
 3122ntf    on519827   2.485   1.198   4.982 -0.2383 -0.0856  0.0351
 3122ntf    fn419828   2.599   0.975   4.805 -0.4919  0.1787 -0.4945
 3122ntf    fn419829   2.628   1.110   4.640 -0.0457  0.2631 -0.0518
 3122ntf    fn419830   2.754   1.114   4.820  0.2148 -0.2940 -0.0167
 3123ntf    cn119831   0.566   3.384   0.062 -0.2024 -0.4070 -0.1692
 3123ntf    sn219832   0.642   3.445   0.215 -0.3142  0.1567 -0.3326
 3123ntf    nn319833   0.638   3.314   0.303 -0.1950  0.3869  0.0161
 3123ntf    sn219834   0.768   3.227   0.312 -0.4235  0.0158 -0.2490
 3123ntf    cn119835   0.704   3.072   0.382 -0.4497  0.1622  0.0526
 3123ntf    fn419836   0.607   3.262   0.033  0.3132 -0.4562  0.7358
 3123ntf    fn419837   0.434   3.390   0.058 -0.1885  0.0479 -0.0574
 3123ntf    fn419838   0.595   3.464  -0.040 -0.1195  0.2143  0.3305
 3123ntf    on519839   0.768   3.503   0.177 -0.0700 -0.0502  0.1492
 3123ntf    on519840   0.547   3.545   0.256 -0.6294 -0.7751  1.3244
 3123ntf    on519841   0.858   3.275   0.415 -0.2468  0.3540 -0.5606
 3123ntf    on519842   0.818   3.178   0.186 -0.0230 -0.3860  0.0610
 3123ntf    fn419843   0.623   3.005   0.302 -0.6560  0.2320  0.2020
 3123ntf    fn419844   0.794   2.987   0.429 -0.5525 -0.3640 -0.7004
 3123ntf    fn419845   0.631   3.097   0.490 -0.0294 -0.0002  0.3754
 3124ntf    cn119846   2.826   6.530   5.512  0.0410 -0.2143 -0.3726
 3124ntf    sn219847   2.769   6.444   5.363  0.2357 -0.4917 -0.2866
 3124ntf    nn319848   2.613   6.441   5.381  0.3918 -0.0670  1.2248
 3124ntf    sn219849   2.534   6.323   5.448 -0.1781 -0.3531  0.0686
 3124ntf    cn119850   2.367   6.394   5.459 -0.0343 -0.0153  0.0981
 3124ntf    fn419851   2.752   6.510   5.621  0.3798 -0.2117 -0.1406
 3124ntf    fn419852   2.951   6.499   5.542  0.0400 -0.1409 -0.2924
 3124ntf    fn419853   2.814   6.661   5.495 -0.1728 -0.2284 -0.3431
 3124ntf    on519854   2.793   6.536   5.254 -0.1378  0.1270  0.1433
 3124ntf    on519855   2.833   6.315   5.367 -0.3690 -0.7862 -0.0900
 3124ntf    on519856   2.565   6.307   5.588  0.2519  0.6948  0.1039
 3124ntf    on519857   2.517   6.216   5.353  0.8982 -0.3848 -0.1064
 3124ntf    fn419858   2.351   6.478   5.560 -0.0101 -0.0397  0.1229
 3124ntf    fn419859   2.337   6.463   5.351 -0.0098 -0.2057 -0.0301
 3124ntf    fn419860   2.274   6.300   5.461 -0.4711  0.4193  0.6929
 3125ntf    cn119861   7.146   0.025   4.029 -0.2092 -0.0073 -0.0878
 3125ntf    sn219862   7.222  -0.135   3.989 -0.1967  0.0103 -0.1346
 3125ntf    nn319863   7.357  -0.139   4.069 -0.2459 -0.3094 -0.0671
 3125ntf    sn219864   7.397  -0.221   4.197  0.2758 -0.1331 -0.1146
 3125ntf    cn119865   7.458  -0.082   4.297  0.0696 -0.0990 -0.0349
 3125ntf    fn419866   7.193   0.128   3.959  0.0867  0.0430  0.1859
 3125ntf    fn419867   7.018   0.010   3.996 -0.2286 -0.3060  0.1228
 3125ntf    fn419868   7.148   0.073   4.152 -0.2124  0.0306 -0.1022
 3125ntf    on519869   7.125  -0.235   4.026  0.3462 -0.3822  0.2402
 3125ntf    on519870   7.240  -0.112   3.848  0.2490 -0.3513 -0.1379
 3125ntf    on519871   7.514  -0.302   4.173  0.2172 -0.1269 -0.4331
 3125ntf    on519872   7.291  -0.271   4.281  0.1234  0.2099 -0.1038
 3125ntf    fn419873   7.364   0.006   4.327  0.2437  0.1282 -0.1505
 3125ntf    fn419874   7.512  -0.117   4.413  0.0741  0.0814  0.0173
 3125ntf    fn419875   7.546  -0.012   4.227  0.1259 -0.1473 -0.0134
 3126ntf    cn119876   6.725   0.482   3.927 -0.4256  0.2682  0.3187
 3126ntf    sn219877   6.862   0.520   4.040 -0.1319 -0.0668  0.0788
 3126ntf    nn319878   6.965   0.570   3.933  0.1310  0.4607  0.5746
 3126ntf    sn219879   7.047   0.704   3.923  0.1834  0.3787 -0.1083
 3126ntf    cn119880   7.051   0.740   3.745 -0.4862 -0.0875 -0.2218
 3126ntf    fn419881   6.615   0.456   3.996 -0.3939 -0.0058  0.2679
 3126ntf    fn419882   6.691   0.583   3.848 -0.0893 -0.0476 -0.2387
 3126ntf    fn419883   6.750   0.376   3.852 -0.0868  0.7677 -0.2817
 3126ntf    on519884   6.806   0.621   4.127 -0.3635  0.0014 -0.1475
 3126ntf    on519885   6.889   0.395   4.106 -0.8103 -0.1810  0.1490
 3126ntf    on519886   7.186   0.677   3.951  0.0133 -0.2842  0.1163
 3126ntf    on519887   6.991   0.824   3.978  0.3238  0.4996 -0.2283
 3126ntf    fn419888   7.090   0.637   3.671  0.1814 -0.2054  0.2900
 3126ntf    fn419889   6.940   0.796   3.700 -0.3549 -0.0134 -0.4539
 3126ntf    fn419890   7.149   0.826   3.721 -0.5106  0.2095  0.7165
 3127ntf    cn119891   5.780   4.250   4.016  0.0200  0.6143 -0.1132
 3127ntf    sn219892   5.620   4.166   4.002  0.2241  0.2782 -0.4513
 3127ntf    nn319893   5.539   4.300   3.988 -0.1962  0.0873  0.0796
 3127ntf    sn219894   5.434   4.373   4.079 -0.1210  0.0502  0.1964
 3127ntf    cn119895   5.282   4.280   4.049 -0.1303  0.0984  0.0886
 3127ntf    fn419896   5.881   4.165   4.002  0.0095  0.5981 -0.0888
 3127ntf    fn419897   5.794   4.343   3.923 -0.0761  0.2212 -0.5259
 3127ntf    fn419898   5.802   4.305   4.135  0.2514 -0.1701  0.2147
 3127ntf    on519899   5.635   4.089   3.881 -0.1242 -0.0567 -0.2865
 3127ntf    on519900   5.611   4.098   4.130  0.5422  0.2179 -0.4612
 3127ntf    on519901   5.397   4.506   4.036  0.2327  0.2204  0.4122
 3127ntf    on519902   5.454   4.355   4.220  0.2646 -0.4731  0.0770
 3127ntf    fn419903   5.249   4.280   3.921 -0.0012 -0.0007  0.0558
 3127ntf    fn419904   5.296   4.153   4.087 -0.3452  0.0965  0.1667
 3127ntf    fn419905   5.176   4.321   4.118 -0.3894 -0.4198  0.0122
 3128ntf    cn119906   0.982   0.153   3.384 -0.4014 -0.4073  0.2974
 3128ntf    sn219907   0.936  -0.021   3.362 -0.1129 -0.4719  0.1989
 3128ntf    nn319908   1.074  -0.087   3.395  0.3428  0.3849  0.0256
 3128ntf    sn219909   1.112  -0.144   3.537  0.0238 -0.4655 -0.2251
 3128ntf    cn119910   1.292  -0.130   3.524  0.0336 -0.4695 -0.0946
 3128ntf    fn419911   1.104   0.177   3.340 -0.6155 -0.1699 -0.1738
 3128ntf    fn419912   0.896   0.231   3.320  0.7629  0.5914 -0.0791
 3128ntf    fn419913   0.990   0.189   3.512  0.6342 -0.1049  0.1578
 3128ntf    on519914   0.825  -0.054   3.448 -0.2720 -0.2173  0.0942
 3128ntf    on519915   0.907  -0.028   3.221 -0.2023  0.3733  0.1699
 3128ntf    on519916   1.084  -0.285   3.546 -0.4469 -0.3788 -0.2721
 3128ntf    on519917   1.081  -0.057   3.648  0.5745  0.2931 -0.6584
 3128ntf    fn419918   1.353  -0.220   3.448  0.5628 -0.2588  0.0757
 3128ntf    fn419919   1.327  -0.011   3.477  0.3054 -0.6022 -0.2318
 3128ntf    fn419920   1.345  -0.120   3.645 -0.2538  0.5499 -0.0430
 3129ntf    cn119921   1.153   5.133   0.916  0.0941  0.3871 -0.3124
 3129ntf    sn219922   1.203   5.205   1.075  0.1230  0.2485 -0.2589
 3129ntf    nn319923   1.226   5.357   1.046  0.2177  0.2762 -0.0405
 3129ntf    sn219924   1.336   5.458   1.096  0.3956 -0.0693  0.2695
 3129ntf    cn119925   1.429   5.495   0.944 -0.0254  0.1045  0.0522
 3129ntf    fn419926   1.235   5.177   0.821  0.8663  0.0345  0.1813
 3129ntf    fn419927   1.146   5.001   0.917  0.1643  0.3854  0.3745
 3129ntf    fn419928   1.038   5.182   0.872 -0.0707 -0.1303 -0.4611
 3129ntf    on519929   1.096   5.181   1.169  0.4267  0.5117  0.1573
 3129ntf    on519930   1.320   5.122   1.090 -0.1428 -0.1247 -0.2342
 3129ntf    on519931   1.433   5.409   1.191  0.5641  0.3106  0.2935
 3129ntf    on519932   1.274   5.583   1.132 -0.1294 -0.0266 -0.7444
 3129ntf    fn419933   1.363   5.562   0.851 -0.1522  0.2042  0.2125
 3129ntf    fn419934   1.534   5.568   0.977  0.4959 -0.4580 -0.3627
 3129ntf    fn419935   1.457   5.383   0.880 -0.5410 -0.1133  0.2019
 3130ntf    cn119936   2.479   0.609   5.202  0.0014  0.3515 -0.2173
 3130ntf    sn219937   2.412   0.616   5.371 -0.0778 -0.0049 -0.2318
 3130ntf    nn319938   2.328   0.749   5.364  0.2494  0.2251  0.2188
 3130ntf    sn219939   2.177   0.766   5.326  0.1686 -0.2928  0.3084
 3130ntf    cn119940   2.162   0.947   5.339  0.0125 -0.3130  0.4076
 3130ntf    fn419941   2.393   0.596   5.103 -0.2884 -0.4616  0.1263
 3130ntf    fn419942   2.547   0.718   5.171  0.6076 -0.2220 -0.9736
 3130ntf    fn419943   2.576   0.519   5.196 -0.6487 -0.3420 -0.3978
 3130ntf    on519944   2.340   0.491   5.378 -0.2904  0.1555  0.6015
 3130ntf    on519945   2.531   0.628   5.451  0.0018  0.2695 -0.3861
 3130ntf    on519946   2.089   0.717   5.430 -0.1708 -0.0115  0.1565
 3130ntf    on519947   2.155   0.722   5.191 -0.1791  0.2101  0.2011
 3130ntf    fn419948   2.060   1.008   5.281  0.5139  0.4100  0.2743
 3130ntf    fn419949   2.162   0.998   5.461 -0.4816 -0.4934  0.4883
 3130ntf    fn419950   2.267   0.994   5.274  0.0769 -0.1521  0.6283
 3131ntf    cn119951   2.826   7.121   0.897  0.1434 -0.1544 -0.1471
 3131ntf    sn219952   2.993   7.158   0.835  0.1314  0.2322  0.0493
 3131ntf    nn319953   3.073   7.204   0.962  0.7384  0.1136 -0.2881
 3131ntf    sn219954   3.077   7.350   1.018 -0.1764  0.0521 -0.0426
 3131ntf    cn119955   3.235   7.409   0.948  0.0356 -0.2142  0.2111
 3131ntf    fn419956   2.737   7.099   0.801 -0.0659  0.4189 -0.0881
 3131ntf    fn419957   2.831   7.007   0.964 -0.5102 -0.0200  0.1346
 3131ntf    fn419958   2.779   7.210   0.983  1.1801  0.4163 -0.1564
 3131ntf    on519959   3.042   7.032   0.786 -0.7904  0.0286 -0.3657
 3131ntf    on519960   2.974   7.250   0.726  0.5921  0.0975 -0.1463
 3131ntf    on519961   3.098   7.353   1.161 -0.5833  0.2159  0.0148
 3131ntf    on519962   2.978   7.438   0.962  0.0903  0.1949 -0.2912
 3131ntf    fn419963   3.247   7.396   0.817 -0.1310 -0.0255  0.1758
 3131ntf    fn419964   3.252   7.537   0.975  0.3596 -0.2756  0.2962
 3131ntf    fn419965   3.339   7.345   0.998  0.4320 -0.0779 -0.4428
 3132ntf    cn119966   3.707   6.241   6.702  0.5213  0.5801 -0.6010
 3132ntf    sn219967   3.741   6.412   6.650  0.4889  0.7003 -0.2263
 3132ntf    nn319968   3.589   6.447   6.631  0.1622 -0.4585  0.1728
 3132ntf    sn219969   3.501   6.448   6.501 -0.1759  0.4543  0.4016
 3132ntf    cn119970   3.415   6.607   6.522 -0.1042  0.5837 -0.2413
 3132ntf    fn419971   3.817   6.176   6.736 -0.3768 -0.6361  0.0546
 3132ntf    fn419972   3.626   6.224   6.806  0.4452 -0.0888 -0.7619
 3132ntf    fn419973   3.651   6.162   6.611 -0.0718 -0.1687  0.3935
 3132ntf    on519974   3.795   6.477   6.767 -0.9132  0.0532  0.8232
 3132ntf    on519975   3.828   6.400   6.536  0.0410 -0.3992 -0.4622
 3132ntf    on519976   3.396   6.350   6.510 -0.3127  0.5958  0.3485
 3132ntf    on519977   3.564   6.454   6.371  0.1256  0.1459  0.5334
 3132ntf    fn419978   3.500   6.706   6.542 -0.0294  0.5836 -0.5572
 3132ntf    fn419979   3.348   6.637   6.413 -0.4837  0.1725 -0.1244
 3132ntf    fn419980   3.328   6.618   6.621 -0.0957 -0.4215 -0.1043
 3133ntf    cn119981   1.833   2.253   3.254  0.4123 -0.3131 -0.3222
 3133ntf    sn219982   1.964   2.379   3.260 -0.2100  0.3193  0.2653
 3133ntf    nn319983   1.987   2.399   3.106 -0.4603 -0.0160  0.1819
 3133ntf    sn219984   2.098   2.484   3.034 -0.2124 -0.3138  0.2081
 3133ntf    cn119985   1.993   2.617   2.966  0.0950 -0.1098  0.1329
 3133ntf    fn419986   1.870   2.161   3.166  0.5431 -0.4853 -0.0887
 3133ntf    fn419987   1.805   2.197   3.371  0.3499  0.4736  0.0430
 3133ntf    fn419988   1.719   2.308   3.215  0.8722  0.6310 -0.3439
 3133ntf    on519989   1.906   2.489   3.333 -0.1765  0.6021 -0.1324
 3133ntf    on519990   2.073   2.318   3.330 -0.2543  0.1075  0.1519
 3133ntf    on519991   2.167   2.429   2.920  0.0364 -0.9423  0.6573
 3133ntf    on519992   2.181   2.550   3.131 -0.3232 -0.2200  0.2406
 3133ntf    fn419993   1.898   2.568   2.888  0.3068 -0.4172  0.0653
 3133ntf    fn419994   1.937   2.693   3.059 -0.2109  0.7071 -0.7055
 3133ntf    fn419995   2.061   2.708   2.897  0.1564 -0.3223 -0.0901
 3134ntf    cn119996   5.005   4.288   1.191  0.2130  0.7013  0.0249
 3134ntf    sn219997   4.927   4.451   1.169 -0.2049  0.5596  0.4276
 3134ntf    nn319998   4.780   4.398   1.163 -0.0054  0.0312  0.0800
 3134ntf    sn219999   4.683   4.396   1.039 -0.1368 -0.0044  0.1820
 3134ntf    cn120000   4.530   4.423   1.132 -0.1228 -0.2662  0.2803
 3134ntf    fn420001   4.958   4.197   1.106  0.3300  0.7173 -0.0561
 3134ntf    fn420002   5.136   4.297   1.186  0.3087 -0.4265  0.0934
 3134ntf    fn420003   4.985   4.243   1.314  0.4886  0.8753  0.1319
 3134ntf    on520004   4.963   4.509   1.297  0.0879  0.4990  0.3742
 3134ntf    on520005   4.981   4.509   1.049 -0.1150 -0.3957  0.0009
 3134ntf    on520006   4.659   4.263   0.988 -0.2410  0.0954 -0.0289
 3134ntf    on520007   4.691   4.501   0.940  0.2184  0.0310  0.2459
 3134ntf    fn420008   4.538   4.535   1.202  0.3724  0.1398 -0.4121
 3134ntf    fn420009   4.427   4.431   1.048 -0.0013  0.2722  0.1819
 3134ntf    fn420010   4.489   4.325   1.211 -0.5063 -0.1692  0.2079
 3135ntf    cn120011   2.593   2.966   0.318  0.3505 -0.0254  0.4037
 3135ntf    sn220012   2.541   3.139   0.294  0.1706 -0.1608 -0.2010
 3135ntf    nn320013   2.672   3.212   0.337 -0.1419  0.0298  0.4417
 3135ntf    sn220014   2.708   3.364   0.355 -0.0102  0.0232  0.2363
 3135ntf    cn120015   2.871   3.350   0.434  0.1284  0.2088 -0.0134
 3135ntf    fn420016   2.688   2.927   0.235  0.2627  0.0011  0.2895
 3135ntf    fn420017   2.618   2.936   0.444  0.1618  0.0064  0.4501
 3135ntf    fn420018   2.488   2.893   0.284  0.0903  0.4424  0.1939
 3135ntf    on520019   2.523   3.141   0.151  0.7133 -0.3238 -0.2719
 3135ntf    on520020   2.426   3.157   0.380  0.4605  0.0571  0.1446
 3135ntf    on520021   2.632   3.438   0.452 -0.4520 -0.1460  0.0207
 3135ntf    on520022   2.733   3.417   0.223  0.4454 -0.0406  0.2944
 3135ntf    fn420023   2.959   3.266   0.382  0.1382  0.5242 -0.5103
 3135ntf    fn420024   2.933   3.463   0.463  0.0435  0.1838  0.2653
 3135ntf    fn420025   2.849   3.291   0.550 -0.9099 -0.2737 -0.4433
 3136ntf    cn120026   1.210   5.684   3.799  0.2335  0.3045 -0.0389
 3136ntf    sn220027   1.201   5.744   3.628 -0.0656 -0.0198 -0.1384
 3136ntf    nn320028   1.148   5.619   3.548  0.6279 -0.0440 -0.5700
 3136ntf    sn220029   1.075   5.613   3.410  0.1166 -0.1509 -0.2971
 3136ntf    cn120030   0.902   5.610   3.465  0.2863 -0.0876  0.2377
 3136ntf    fn420031   1.094   5.675   3.862  0.2039  0.1366 -0.1154
 3136ntf    fn420032   1.274   5.570   3.817 -0.1642 -0.0721 -0.9233
 3136ntf    fn420033   1.270   5.767   3.883  0.6143  0.1978 -0.2018
 3136ntf    on520034   1.102   5.848   3.646 -0.0879 -0.0537 -0.0618
 3136ntf    on520035   1.335   5.784   3.595 -0.0722 -0.0754 -0.2338
 3136ntf    on520036   1.096   5.484   3.349 -0.5520 -0.4904  0.1758
 3136ntf    on520037   1.084   5.730   3.326 -0.1972 -0.3046 -0.5521
 3136ntf    fn420038   0.873   5.496   3.527 -0.4561 -0.2590 -0.4101
 3136ntf    fn420039   0.875   5.709   3.549  0.5662  0.2969 -0.1214
 3136ntf    fn420040   0.814   5.626   3.368 -0.1008 -0.2312  0.5562
 3137ntf    cn120041   2.305   4.394   1.173 -0.0284 -0.1470  0.4606
 3137ntf    sn220042   2.418   4.337   1.303  0.1517 -0.2033  0.2793
 3137ntf    nn320043   2.402   4.181   1.295  0.0001 -0.1910  0.3406
 3137ntf    sn220044   2.483   4.074   1.213  0.0488  0.2391 -0.1746
 3137ntf    cn120045   2.375   4.040   1.071  0.1500 -0.1297 -0.1629
 3137ntf    fn420046   2.348   4.359   1.053 -0.0395 -0.4991  0.5589
 3137ntf    fn420047   2.186   4.337   1.180  0.0575 -0.4079 -0.1411
 3137ntf    fn420048   2.306   4.527   1.178  0.2635 -0.1454  0.3799
 3137ntf    on520049   2.544   4.389   1.256  0.2138 -0.4925  0.1296
 3137ntf    on520050   2.361   4.391   1.424 -0.1477 -0.1732  0.1243
 3137ntf    on520051   2.469   3.943   1.271  0.1778  0.1096 -0.4343
 3137ntf    on520052   2.605   4.113   1.148 -0.1534  0.2258 -0.5690
 3137ntf    fn420053   2.434   3.943   1.002  0.4031  0.1552 -0.3497
 3137ntf    fn420054   2.250   4.014   1.108  0.3494 -1.0507 -0.1067
 3137ntf    fn420055   2.376   4.146   0.992 -0.4018 -0.0884 -0.1201
 3138ntf    cn120056   2.911   3.636   5.444  0.1757  0.6321  0.5427
 3138ntf    sn220057   2.786   3.739   5.362 -0.2431 -0.1501  0.1832
 3138ntf    nn320058   2.690   3.622   5.321  0.3153 -0.7230  0.4819
 3138ntf    sn220059   2.666   3.568   5.176 -0.2980  0.0069  0.3003
 3138ntf    cn120060   2.498   3.626   5.139 -0.1824  0.3230  0.2654
 3138ntf    fn420061   3.017   3.697   5.495  0.0419  1.4535 -0.1467
 3138ntf    fn420062   2.853   3.567   5.542  0.0426 -0.4383 -0.2761
 3138ntf    fn420063   2.955   3.539   5.366  0.0178  0.3009  0.8595
 3138ntf    on520064   2.737   3.824   5.469 -0.1588 -0.1234  0.2009
 3138ntf    on520065   2.858   3.809   5.259 -0.0075  0.0450  0.4758
 3138ntf    on520066   2.648   3.425   5.171 -0.0702  0.0140 -1.2865
 3138ntf    on520067   2.743   3.624   5.067 -0.1907 -0.8890 -0.0967
 3138ntf    fn420068   2.477   3.754   5.166 -0.0138  0.4624 -0.2553
 3138ntf    fn420069   2.463   3.614   5.012  0.8800 -0.4609  0.0326
 3138ntf    fn420070   2.412   3.553   5.208  0.0837  0.4380  0.7222
 3139ntf    cn120071   1.181   7.097   1.840 -0.1837  0.0109 -0.1650
 3139ntf    sn220072   1.107   7.220   1.729  0.1640  0.1884 -0.2006
 3139ntf    nn320073   1.238   7.281   1.668 -0.0200  0.7306 -0.0655
 3139ntf    sn220074   1.302   7.267   1.525  0.1683 -0.1278  0.0949
 3139ntf    cn120075   1.472   7.314   1.570  0.2694  0.0017 -0.4114
 3139ntf    fn420076   1.254   7.006   1.778 -0.1747  0.2177 -0.4595
 3139ntf    fn420077   1.269   7.153   1.921 -0.0384 -0.4641  0.0101
 3139ntf    fn420078   1.098   7.041   1.926  0.3859 -0.2345  0.2307
 3139ntf    on520079   1.036   7.137   1.635  0.2538 -0.5305  0.3600
 3139ntf    on520080   1.031   7.308   1.815  0.6701  0.4689 -0.0361
 3139ntf    on520081   1.254   7.376   1.443 -0.0018  0.1924  0.6150
 3139ntf    on520082   1.331   7.137   1.471  0.2831 -0.0903  0.0649
 3139ntf    fn420083   1.547   7.344   1.466  0.2433  1.1273 -0.1186
 3139ntf    fn420084   1.472   7.421   1.648  0.1969 -0.4940  0.2762
 3139ntf    fn420085   1.536   7.219   1.637  0.4344 -0.1421 -0.7725
 3140ntf    cn120086   1.798   5.604   6.744 -0.3919 -0.7348  0.0462
 3140ntf    sn220087   1.944   5.705   6.706 -0.3973 -0.7068  0.1009
 3140ntf    nn320088   1.893   5.777   6.576  0.3950  0.3240  0.3485
 3140ntf    sn220089   1.883   5.725   6.428 -0.1875  0.1318  0.4524
 3140ntf    cn120090   1.707   5.681   6.412 -0.1117  0.0143 -0.0865
 3140ntf    fn420091   1.791   5.492   6.673  0.4920 -0.4526 -0.5092
 3140ntf    fn420092   1.786   5.571   6.872 -0.0807  0.0838  0.2937
 3140ntf    fn420093   1.683   5.662   6.716  0.1043  0.5976  0.6987
 3140ntf    on520094   1.953   5.797   6.816 -0.1798 -0.2101 -0.3256
 3140ntf    on520095   2.053   5.611   6.696  0.0723 -0.1344 -0.2743
 3140ntf    on520096   1.943   5.599   6.394 -1.0127 -0.0363 -0.4192
 3140ntf    on520097   1.898   5.839   6.340  0.6699  0.0364  0.4659
 3140ntf    fn420098   1.675   5.576   6.486  0.8372  0.4046  0.9288
 3140ntf    fn420099   1.634   5.784   6.453 -0.1040 -0.1525  0.3552
 3140ntf    fn420100   1.670   5.660   6.287 -0.0553  0.3906 -0.1683
 3141ntf    cn120101   3.606   5.399   6.327 -0.0021 -0.3945 -0.1879
 3141ntf    sn220102   3.659   5.367   6.156 -0.1737  0.3579 -0.3833
 3141ntf    nn320103   3.653   5.513   6.097  0.5953  0.5305 -0.0460
 3141ntf    sn220104   3.661   5.576   5.954 -0.1639  0.0935 -0.2844
 3141ntf    cn120105   3.829   5.645   5.959 -0.0547 -0.2190  0.5173
 3141ntf    fn420106   3.694   5.473   6.393 -0.5019  0.0477 -0.0109
 3141ntf    fn420107   3.492   5.466   6.331  0.4106  0.2977  0.2705
 3141ntf    fn420108   3.588   5.293   6.404 -0.6672  0.0363  0.2556
 3141ntf    on520109   3.791   5.311   6.173 -0.3960 -0.0929 -0.1352
 3141ntf    on520110   3.567   5.267   6.108  0.1478 -0.0993 -0.0474
 3141ntf    on520111   3.572   5.689   5.940 -0.4749 -0.1532 -0.3409
 3141ntf    on520112   3.658   5.485   5.841  0.8192  0.1776 -0.3825
 3141ntf    fn420113   3.841   5.752   6.036  0.2096 -0.1683  0.4060
 3141ntf    fn420114   3.911   5.550   6.001  0.0385 -0.6663 -0.6388
 3141ntf    fn420115   3.877   5.685   5.842 -0.8161  0.4652  0.4250
 3142ntf    cn120116   0.091   4.899   1.846 -0.2164  0.0804  0.1759
 3142ntf    sn220117   0.100   4.735   1.767 -0.0363  0.0429  0.2737
 3142ntf    nn320118   0.156   4.763   1.623 -0.0651  0.4478  0.3401
 3142ntf    sn220119   0.086   4.799   1.487 -0.0118  0.0707  0.2131
 3142ntf    cn120120   0.215   4.781   1.360 -0.0926 -0.2309  0.1726
 3142ntf    fn420121   0.085   4.894   1.978 -0.0861  0.9817  0.2206
 3142ntf    fn420122   0.183   4.985   1.804 -0.7526  0.6085  0.0750
 3142ntf    fn420123  -0.025   4.955   1.817 -0.3575 -0.2059  0.1826
 3142ntf    on520124   0.195   4.664   1.850  0.0956 -0.4044 -0.2558
 3142ntf    on520125  -0.036   4.688   1.761  0.0245 -0.0783 -0.1711
 3142ntf    on520126   0.047   4.937   1.475 -0.2105 -0.0441 -0.5480
 3142ntf    on520127  -0.007   4.698   1.442  0.5348 -0.2090 -0.3136
 3142ntf    fn420128   0.176   4.829   1.243  0.3474 -0.4544 -0.0713
 3142ntf    fn420129   0.333   4.835   1.388 -0.6327  1.0585  0.0261
 3142ntf    fn420130   0.237   4.651   1.345  0.2488 -0.1918  0.3202
 3143ntf    cn120131   3.616   6.287   4.305  0.1809 -0.0230  0.1490
 3143ntf    sn220132   3.576   6.141   4.205 -0.1000  0.1388  0.0239
 3143ntf    nn320133   3.462   6.085   4.298 -0.0926  0.6336  0.3378
 3143ntf    sn220134   3.477   5.995   4.425 -0.1381  0.1794  0.0250
 3143ntf    cn120135   3.330   5.890   4.406  0.2895 -0.4362  0.0605
 3143ntf    fn420136   3.508   6.362   4.322  0.2464  0.1099 -0.0214
 3143ntf    fn420137   3.648   6.261   4.431 -0.6305 -0.0721  0.3530
 3143ntf    fn420138   3.709   6.361   4.247  0.1394  0.4059  0.6159
 3143ntf    on520139   3.526   6.196   4.081 -0.3336 -0.4580 -0.1474
 3143ntf    on520140   3.700   6.068   4.207 -0.7071 -0.8961  0.2929
 3143ntf    on520141   3.461   6.059   4.553  0.4468  0.0526  0.1690
 3143ntf    on520142   3.579   5.893   4.416 -0.0990  0.1779  0.4522
 3143ntf    fn420143   3.301   5.820   4.514 -0.8347 -0.4619 -0.2488
 3143ntf    fn420144   3.227   5.970   4.383  0.9295  0.3708 -0.0712
 3143ntf    fn420145   3.327   5.810   4.300 -0.2295 -0.0460 -0.2237
 3144ntf    cn120146   4.445   0.255   4.216 -0.4802 -0.1189  0.6441
 3144ntf    sn220147   4.287   0.342   4.239 -0.3412  0.4213 -0.3834
 3144ntf    nn320148   4.198   0.228   4.180  0.1613 -0.1236 -0.0939
 3144ntf    sn220149   4.063   0.250   4.103 -0.0087 -0.0529  0.2249
 3144ntf    cn120150   3.965   0.151   4.221 -0.1316 -0.2155 -0.0117
 3144ntf    fn420151   4.546   0.334   4.247  0.2661 -0.5772 -0.5335
 3144ntf    fn420152   4.448   0.152   4.298 -0.3259 -0.5143  0.1480
 3144ntf    fn420153   4.473   0.197   4.100 -0.5086  0.4664  0.3351
 3144ntf    on520154   4.266   0.361   4.380 -0.4142  0.5663 -0.4133
 3144ntf    on520155   4.308   0.458   4.155 -0.4096  0.8368  0.1631
 3144ntf    on520156   4.057   0.176   3.980 -0.1594  0.9370 -0.3723
 3144ntf    on520157   4.003   0.382   4.103 -0.2521 -0.1506 -0.9718
 3144ntf    fn420158   3.837   0.138   4.192 -0.2412  0.2874  0.2267
 3144ntf    fn420159   4.012   0.028   4.212  0.9652  0.2140 -0.4108
 3144ntf    fn420160   3.984   0.195   4.345 -0.4153 -0.0893 -0.0123
 3145ntf    cn120161   0.134   0.643   2.040 -0.4078 -0.0387  0.3517
 3145ntf    sn220162   0.084   0.553   2.190 -0.2568 -0.0847  0.3741
 3145ntf    nn320163  -0.069   0.585   2.179 -0.1628  0.3061  0.1741
 3145ntf    sn220164  -0.171   0.533   2.071  0.1915 -0.0883  0.0277
 3145ntf    cn120165  -0.235   0.378   2.141 -0.0900  0.0067 -0.0197
 3145ntf    fn420166   0.231   0.725   2.075 -0.1468 -0.1484 -0.1121
 3145ntf    fn420167   0.173   0.565   1.941 -0.0457  0.1396  0.3549
 3145ntf    fn420168   0.044   0.724   1.986  0.0916  0.4320  0.2255
 3145ntf    on520169   0.110   0.414   2.162  0.3507 -0.0015  0.5137
 3145ntf    on520170   0.152   0.611   2.304 -0.7184  0.2728  0.4751
 3145ntf    on520171  -0.118   0.494   1.943 -0.0220 -0.3983  0.0327
 3145ntf    on520172  -0.291   0.612   2.064  0.0278 -0.1927  1.3148
 3145ntf    fn420173  -0.333   0.393   2.229  0.0702 -0.9890  0.3394
 3145ntf    fn420174  -0.280   0.297   2.047  0.0196 -0.2036  0.1069
 3145ntf    fn420175  -0.138   0.310   2.199  0.1937  0.2310 -0.2325
 3146ntf    cn120176   4.214   1.295   2.336  0.4966  0.3766  0.0787
 3146ntf    sn220177   4.147   1.464   2.323  0.0372  0.1558 -0.4742
 3146ntf    nn320178   4.189   1.530   2.459 -0.2978  0.3273 -0.4536
 3146ntf    sn220179   4.256   1.670   2.482  0.3315 -0.0975  0.3431
 3146ntf    cn120180   4.428   1.643   2.430  0.0346  0.1283 -0.7728
 3146ntf    fn420181   4.129   1.230   2.413  0.3233  0.1749 -0.2793
 3146ntf    fn420182   4.214   1.227   2.222  0.5450 -0.0446  0.3291
 3146ntf    fn420183   4.340   1.297   2.378  0.2859  0.3620  0.7232
 3146ntf    on520184   4.213   1.511   2.204  0.8182 -0.2317 -0.2040
 3146ntf    on520185   4.005   1.451   2.301 -0.1243 -0.5922  0.9141
 3146ntf    on520186   4.267   1.710   2.621 -0.1048  1.0022  0.0712
 3146ntf    on520187   4.212   1.778   2.398 -1.0532 -0.3213  0.7504
 3146ntf    fn420188   4.502   1.748   2.463  0.2483 -0.3603  0.3511
 3146ntf    fn420189   4.480   1.543   2.500  0.1762  0.6366 -0.1421
 3146ntf    fn420190   4.449   1.612   2.303  0.5664 -0.2352 -0.6017
 3147ntf    cn120191   1.590   4.293   2.449  0.1493  0.2150  0.2994
 3147ntf    sn220192   1.501   4.440   2.390 -0.1634 -0.2212 -0.3374
 3147ntf    nn320193   1.403   4.457   2.512  0.2129 -0.4011 -0.0056
 3147ntf    sn220194   1.248   4.445   2.533  0.1776 -0.1687 -0.1270
 3147ntf    cn120195   1.243   4.361   2.694 -0.5764 -0.0033 -0.0589
 3147ntf    fn420196   1.509   4.188   2.450  0.1369  0.2248  0.4941
 3147ntf    fn420197   1.699   4.267   2.380  0.1030  0.1926  0.2344
 3147ntf    fn420198   1.637   4.296   2.572  0.1335 -0.4052  0.3245
 3147ntf    on520199   1.600   4.545   2.381 -0.1478 -0.1602  0.4529
 3147ntf    on520200   1.454   4.397   2.261  0.8458 -0.1943 -0.7217
 3147ntf    on520201   1.190   4.353   2.438  0.5567 -0.1779 -0.3478
 3147ntf    on520202   1.184   4.574   2.548  0.2946 -0.1311  0.0471
 3147ntf    fn420203   1.116   4.365   2.731 -0.5397  0.1428  0.0551
 3147ntf    fn420204   1.291   4.238   2.690 -0.3199  0.0944 -0.0234
 3147ntf    fn420205   1.320   4.426   2.780 -0.3544  0.2270 -0.4319
 3148ntf    cn120206   1.063   2.244   1.494 -0.5871 -0.0689  0.2416
 3148ntf    sn220207   1.139   2.081   1.519  0.1927  0.2772  0.1649
 3148ntf    nn320208   1.085   1.995   1.399  0.4105  0.4222 -0.0365
 3148ntf    sn220209   1.168   1.963   1.270  0.1797  0.1150 -0.1077
 3148ntf    cn120210   1.117   1.793   1.227 -0.1604  0.1221  0.2628
 3148ntf    fn420211   0.932   2.232   1.488 -0.6473  0.4930  0.3712
 3148ntf    fn420212   1.092   2.320   1.599 -0.2014  0.2632 -0.0994
 3148ntf    fn420213   1.107   2.318   1.394 -0.8035 -0.1475  0.0885
 3148ntf    on520214   1.281   2.105   1.523  0.2124  0.1899 -0.0197
 3148ntf    on520215   1.077   2.047   1.645  0.6949 -0.3007  0.2608
 3148ntf    on520216   1.310   1.944   1.283  0.0856 -0.0243  0.7477
 3148ntf    on520217   1.122   2.038   1.155 -0.0390  0.0442 -0.0667
 3148ntf    fn420218   1.140   1.710   1.327  0.2080 -0.1596 -0.0533
 3148ntf    fn420219   0.989   1.791   1.195 -0.0176  0.3087 -0.3304
 3148ntf    fn420220   1.186   1.741   1.126  0.0162  0.6696  0.0955
 3149ntf    cn120221   0.331   5.625   0.858  0.0716  0.0782 -0.1562
 3149ntf    sn220222   0.441   5.482   0.882  0.1834  0.1720 -0.1080
 3149ntf    nn320223   0.455   5.480   1.039  0.7815  0.5113 -0.1561
 3149ntf    sn220224   0.574   5.424   1.125  0.2425 -0.2062  0.1238
 3149ntf    cn120225   0.669   5.578   1.140 -0.0621 -0.0123  0.0838
 3149ntf    fn420226   0.399   5.734   0.892  0.5766 -0.3034  0.0879
 3149ntf    fn420227   0.290   5.629   0.733 -0.2750 -0.2900 -0.0565
 3149ntf    fn420228   0.221   5.621   0.931  0.3282  0.2446  0.2437
 3149ntf    on520229   0.356   5.381   0.824 -0.3863  0.4290  0.2700
 3149ntf    on520230   0.565   5.514   0.817  0.1651  0.2829 -0.0885
 3149ntf    on520231   0.654   5.330   1.050  0.3518 -0.1380  0.1546
 3149ntf    on520232   0.558   5.396   1.265  0.0044  0.6340  0.2649
 3149ntf    fn420233   0.595   5.671   1.198 -0.1192 -0.1708  0.2659
 3149ntf    fn420234   0.777   5.563   1.215 -0.0593  0.0938  0.1009
 3149ntf    fn420235   0.707   5.627   1.023 -0.1271 -0.2693 -0.0474
 3150ntf    cn120236   1.485   4.924   4.643 -0.1451  0.2493  0.2626
 3150ntf    sn220237   1.658   4.871   4.657 -0.2091  0.0502  0.3052
 3150ntf    nn320238   1.653   4.718   4.620 -0.1274  0.0948  0.1104
 3150ntf    sn220239   1.651   4.650   4.478 -0.0001 -0.0503  0.1777
 3150ntf    cn120240   1.829   4.618   4.454 -0.1110 -0.5280 -0.0047
 3150ntf    fn420241   1.406   4.862   4.730  0.0079  0.0780  0.2812
 3150ntf    fn420242   1.474   5.050   4.681 -0.7994  0.2760 -0.0065
 3150ntf    fn420243   1.436   4.924   4.520 -0.0986 -0.5233  0.2382
 3150ntf    on520244   1.739   4.945   4.563 -0.1961  0.1094  0.3631
 3150ntf    on520245   1.684   4.903   4.795  0.1174  0.5594  0.1275
 3150ntf    on520246   1.609   4.729   4.365  0.3157  0.4796  0.4253
 3150ntf    on520247   1.595   4.518   4.480 -0.5509  0.1865  0.4180
 3150ntf    fn420248   1.900   4.587   4.561  0.0382  0.1215  0.0887
 3150ntf    fn420249   1.860   4.525   4.365 -0.2139 -0.3173 -0.2587
 3150ntf    fn420250   1.884   4.728   4.406 -0.0699 -0.7018 -0.3599
 3151ntf    cn120251   0.426   0.475   6.432  0.0237  0.0019  0.3632
 3151ntf    sn220252   0.309   0.584   6.344  0.0157 -0.1781  0.1490
 3151ntf    nn320253   0.338   0.725   6.408 -0.0794  0.0349 -0.2814
 3151ntf    sn220254   0.420   0.840   6.341  0.1395  0.1235  0.1398
 3151ntf    cn120255   0.293   0.917   6.236  0.4298  0.2786 -0.1019
 3151ntf    fn420256   0.418   0.461   6.563  0.5148  0.5424  0.4552
 3151ntf    fn420257   0.429   0.356   6.375  0.0875  0.2938 -0.2527
 3151ntf    fn420258   0.552   0.510   6.416  0.0018 -0.2028 -0.2813
 3151ntf    on520259   0.340   0.559   6.206 -0.1126 -0.3115  0.1432
 3151ntf    on520260   0.188   0.523   6.392 -0.2784  0.2502 -0.0458
 3151ntf    on520261   0.531   0.801   6.258 -0.1714 -0.2500 -0.1005
 3151ntf    on520262   0.453   0.939   6.441 -0.1817  0.0645  0.3056
 3151ntf    fn420263   0.326   1.023   6.164  0.6285  0.3656  0.1180
 3151ntf    fn420264   0.242   0.830   6.149  0.2222 -0.4494  0.7316
 3151ntf    fn420265   0.188   0.948   6.310  0.2732 -0.1164 -0.1529
 3152ntf    cn120266   3.025   7.022   0.022  0.0775 -0.0026 -0.3156
 3152ntf    sn220267   3.173   7.113  -0.032  0.0527  0.1563 -0.1179
 3152ntf    nn320268   3.144   7.113  -0.186 -0.2719 -0.0133 -0.0564
 3152ntf    sn220269   3.178   7.011  -0.300 -0.1602 -0.2980  0.2315
 3152ntf    cn120270   3.156   7.117  -0.446 -0.3512 -0.1330  0.3808
 3152ntf    fn420271   3.030   6.896  -0.018  0.2581 -0.3245  0.6804
 3152ntf    fn420272   3.022   7.018   0.155  0.1199 -0.2240 -0.3214
 3152ntf    fn420273   2.908   7.069  -0.019 -0.1830 -0.5412 -0.1931
 3152ntf    on520274   3.163   7.243   0.030 -0.4249  0.1710 -0.2291
 3152ntf    on520275   3.281   7.026   0.011 -0.6157 -0.4957  0.2620
 3152ntf    on520276   3.088   6.900  -0.322 -0.4913  0.0420 -0.1127
 3152ntf    on520277   3.321   6.991  -0.299 -0.0631  0.3912  0.8490
 3152ntf    fn420278   3.028   7.138  -0.475 -0.2180 -0.3113 -0.3496
 3152ntf    fn420279   3.207   7.237  -0.426 -0.6947  0.0865 -0.0619
 3152ntf    fn420280   3.209   7.060  -0.553  0.5157  0.1179  0.6683
 3153ntf    cn120281   6.540   5.563   2.963 -0.1195  0.6564  0.1078
 3153ntf    sn220282   6.700   5.645   2.937  0.0623  0.2026 -0.2326
 3153ntf    nn320283   6.780   5.550   3.032  0.6193  0.8716 -0.0296
 3153ntf    sn220284   6.904   5.457   3.006 -0.0802 -0.1016  0.0963
 3153ntf    cn120285   6.826   5.294   3.028 -0.3991  0.0276 -0.0664
 3153ntf    fn420286   6.502   5.586   3.087  0.3690  0.1125  0.3629
 3153ntf    fn420287   6.448   5.599   2.875  0.5318  0.8857 -0.4817
 3153ntf    fn420288   6.539   5.431   2.953  0.4667  0.5862  0.8821
 3153ntf    on520289   6.723   5.630   2.796  0.1742 -0.1214 -0.1792
 3153ntf    on520290   6.679   5.781   2.981  0.4839  0.4913 -0.9031
 3153ntf    on520291   6.994   5.460   3.118  0.0165 -0.3643  0.0272
 3153ntf    on520292   6.960   5.447   2.873 -0.2588  0.2720 -0.0083
 3153ntf    fn420293   6.718   5.304   3.104 -0.4830 -0.1464 -0.1616
 3153ntf    fn420294   6.786   5.238   2.915  0.4013 -0.0771 -0.3055
 3153ntf    fn420295   6.902   5.199   3.079  0.6878  0.8546 -0.1060
 3154ntf    cn120296   3.324   4.399   2.356  0.0823 -0.1805  0.8424
 3154ntf    sn220297   3.280   4.573   2.387  0.1620  0.0017 -0.0327
 3154ntf    nn320298   3.128   4.553   2.421  0.0907  0.1866 -0.2366
 3154ntf    sn220299   3.017   4.522   2.315 -0.1130  0.3660 -0.0777
 3154ntf    cn120300   2.948   4.688   2.294 -0.2076  0.2460 -0.7187
 3154ntf    fn420301   3.276   4.319   2.450  0.4466 -1.0880  0.2719
 3154ntf    fn420302   3.288   4.354   2.236 -0.1926  0.7505  0.5679
 3154ntf    fn420303   3.455   4.384   2.356  0.1301  0.2201  0.9331
 3154ntf    on520304   3.352   4.600   2.509 -0.0001 -0.6058  0.2004
 3154ntf    on520305   3.322   4.635   2.264 -0.0292 -0.1235 -0.1612
 3154ntf    on520306   2.899   4.460   2.371  0.2846 -0.2329  0.1088
 3154ntf    on520307   3.067   4.472   2.189 -0.1702  0.0981  0.0051
 3154ntf    fn420308   2.860   4.681   2.195 -0.4303  0.1773 -0.5144
 3154ntf    fn420309   2.886   4.730   2.403 -0.0079 -0.1423 -0.4537
 3154ntf    fn420310   3.041   4.775   2.257  0.0375  0.2197 -0.1611
 3155ntf    cn120311   6.514   4.737   4.158  0.2428 -0.1088  0.1575
 3155ntf    sn220312   6.614   4.859   4.067  0.2900 -0.4431 -0.2369
 3155ntf    nn320313   6.534   4.865   3.932 -0.2808 -0.4738  0.0973
 3155ntf    sn220314   6.562   4.778   3.804 -0.1413 -0.2270 -0.0405
 3155ntf    cn120315   6.407   4.683   3.799  0.0849 -0.5946 -0.0799
 3155ntf    fn420316   6.554   4.725   4.284 -0.1792  0.5244  0.3576
 3155ntf    fn420317   6.386   4.769   4.155  0.2498 -0.0516  0.4350
 3155ntf    fn420318   6.522   4.621   4.095 -0.4809  0.0436 -0.2178
 3155ntf    on520319   6.586   4.980   4.140 -1.1918 -0.3254 -0.9443
 3155ntf    on520320   6.747   4.804   4.076  0.3682 -0.2854 -0.4065
 3155ntf    on520321   6.657   4.670   3.817  0.3700  0.2112 -0.1141
 3155ntf    on520322   6.561   4.851   3.679 -0.1779 -0.1405  0.0101
 3155ntf    fn420323   6.291   4.745   3.811  0.1735 -0.3756 -0.3596
 3155ntf    fn420324   6.408   4.622   3.682  0.3517 -0.0042 -0.3848
 3155ntf    fn420325   6.409   4.582   3.885 -0.1373 -0.2665  0.3129
 3156ntf    cn120326   2.926   2.175   3.978  0.1487  0.3797 -0.1564
 3156ntf    sn220327   2.927   2.340   3.901 -0.0848  0.2124 -0.5213
 3156ntf    nn320328   3.033   2.315   3.789 -0.0082 -0.0819 -0.3844
 3156ntf    sn220329   3.007   2.298   3.635 -0.0853 -0.1196 -0.3669
 3156ntf    cn120330   3.141   2.184   3.589  0.1295 -0.0348  0.0535
 3156ntf    fn420331   2.839   2.167   4.078 -0.4721  0.4627 -0.6815
 3156ntf    fn420332   2.884   2.089   3.887 -0.5093  0.0849  0.4174
 3156ntf    fn420333   3.041   2.135   4.027  0.1175 -0.3641 -0.6731
 3156ntf    on520334   2.792   2.363   3.856 -0.1974  0.2581 -0.1672
 3156ntf    on520335   2.976   2.426   4.006 -0.6932 -0.3369  0.2261
 3156ntf    on520336   3.043   2.414   3.558 -0.0203 -0.1492 -0.3809
 3156ntf    on520337   2.890   2.223   3.593 -0.4586  0.2916 -0.0693
 3156ntf    fn420338   3.134   2.073   3.661 -0.5555 -0.0629 -0.0505
 3156ntf    fn420339   3.138   2.146   3.463 -0.2662  0.4044 -0.0737
 3156ntf    fn420340   3.266   2.225   3.604  0.2316 -0.2634 -0.1610
 3157ntf    cn120341   5.658   1.728   6.218 -0.0753 -0.2825 -0.0494
 3157ntf    sn220342   5.793   1.741   6.097  0.3370 -0.1019  0.4268
 3157ntf    nn320343   5.730   1.668   5.974  0.6903  0.5633 -0.1553
 3157ntf    sn220344   5.659   1.710   5.840  0.0656 -0.2263 -0.0766
 3157ntf    cn120345   5.789   1.682   5.716  0.3549 -0.0694  0.1929
 3157ntf    fn420346   5.680   1.811   6.319 -0.5546  0.4495 -0.5400
 3157ntf    fn420347   5.543   1.761   6.164 -0.0248  0.3601  0.2330
 3157ntf    fn420348   5.645   1.604   6.263  0.2555 -0.3064 -0.0113
 3157ntf    on520349   5.823   1.882   6.084 -0.0091 -0.1201 -0.6423
 3157ntf    on520350   5.893   1.651   6.148  0.6119 -0.1513 -0.1959
 3157ntf    on520351   5.623   1.848   5.824 -0.1381 -0.2742 -0.0420
 3157ntf    on520352   5.565   1.607   5.801 -0.4002  0.3732 -0.5588
 3157ntf    fn420353   5.752   1.706   5.592  0.0687  0.2783  0.3443
 3157ntf    fn420354   5.889   1.765   5.742  0.1521  0.4019 -0.5033
 3157ntf    fn420355   5.836   1.559   5.720 -0.2504 -0.3010  0.2025
 3158ntf    cn120356   6.578   3.665   6.728 -0.3455 -0.6560  0.0151
 3158ntf    sn220357   6.700   3.551   6.800  0.1824 -0.0303  0.1186
 3158ntf    nn320358   6.628   3.543   6.939 -0.7237  0.4968 -0.3064
 3158ntf    sn220359   6.704   3.509   7.073  0.0449  0.0534 -0.8484
 3158ntf    cn120360   6.759   3.674   7.127  0.0933 -0.2131 -0.0812
 3158ntf    fn420361   6.559   3.775   6.799  0.4781 -0.2324 -0.4009
 3158ntf    fn420362   6.611   3.710   6.608  0.2067 -0.1582  0.3438
 3158ntf    fn420363   6.457   3.612   6.720 -0.3401 -0.6524 -0.0918
 3158ntf    on520364   6.685   3.438   6.713  0.2729 -0.4204  0.6079
 3158ntf    on520365   6.825   3.623   6.786  0.6050 -0.7406  0.1955
 3158ntf    on520366   6.836   3.451   7.063 -0.0018 -0.2417  0.2232
 3158ntf    on520367   6.618   3.467   7.180  0.4695  0.3816 -0.3771
 3158ntf    fn420368   6.658   3.759   7.126  0.0483 -0.2615  0.1805
 3158ntf    fn420369   6.794   3.670   7.255 -0.3024 -0.0175  0.0360
 3158ntf    fn420370   6.859   3.727   7.059  0.0369 -0.1689 -0.1290
 3159ntf    cn120371   2.994   6.670   4.491  0.0522  0.1541 -0.0830
 3159ntf    sn220372   2.866   6.550   4.537  0.1108  0.0663 -0.1461
 3159ntf    nn320373   2.773   6.631   4.635  0.0188 -0.1002 -0.0956
 3159ntf    sn220374   2.628   6.597   4.683  0.0234 -0.3238 -0.2391
 3159ntf    cn120375   2.536   6.707   4.572 -0.1095 -0.3448 -0.1503
 3159ntf    fn420376   3.071   6.622   4.395 -0.2381 -0.2437 -0.1176
 3159ntf    fn420377   2.941   6.785   4.455  0.5023  0.4116  0.0652
 3159ntf    fn420378   3.074   6.702   4.592 -0.3809  0.3775  0.1913
 3159ntf    on520379   2.814   6.508   4.409 -0.8399  0.8804 -0.0458
 3159ntf    on520380   2.937   6.448   4.610 -0.3574 -0.5276 -0.5101
 3159ntf    on520381   2.602   6.646   4.816 -0.1772 -0.0793 -0.3671
 3159ntf    on520382   2.590   6.459   4.661  0.3925 -0.5727  0.6374
 3159ntf    fn420383   2.584   6.702   4.449 -0.8088  0.0071 -0.4484
 3159ntf    fn420384   2.404   6.691   4.572 -0.1367 -0.1423  0.1623
 3159ntf    fn420385   2.546   6.833   4.612 -0.4875 -0.4395  0.2558
 3160ntf    cn120386   3.221   1.231   3.130 -0.3640  0.1259  0.1979
 3160ntf    sn220387   3.083   1.113   3.126 -0.2429 -0.0070 -0.0628
 3160ntf    nn320388   2.963   1.212   3.148  0.0837  0.3140  0.2937
 3160ntf    sn220389   2.821   1.187   3.209  0.0737  0.0848  0.1766
 3160ntf    cn120390   2.784   1.017   3.154  0.7095 -0.0135  0.0456
 3160ntf    fn420391   3.201   1.322   3.224 -0.0441 -0.0151  0.4068
 3160ntf    fn420392   3.342   1.179   3.141 -0.3097  0.2189  0.0388
 3160ntf    fn420393   3.225   1.302   3.019 -0.7061  0.1629  0.2090
 3160ntf    on520394   3.076   1.066   2.990  0.5202  0.7108 -0.3629
 3160ntf    on520395   3.115   1.017   3.228  0.0090  0.2205  0.0724
 3160ntf    on520396   2.712   1.269   3.163  0.4297  0.0538 -0.7227
 3160ntf    on520397   2.821   1.175   3.353  0.7274  0.0424  0.1731
 3160ntf    fn420398   2.767   0.994   3.025 -0.2027 -0.7353  0.2853
 3160ntf    fn420399   2.868   0.920   3.182  0.7496 -0.1338 -0.4927
 3160ntf    fn420400   2.667   0.991   3.212  0.5413 -0.0972 -0.3273
 3161ntf    cn120401   2.370   5.368   0.714 -0.2799  0.4712  0.0904
 3161ntf    sn220402   2.307   5.536   0.744 -0.2762  0.4834  0.0320
 3161ntf    nn320403   2.158   5.511   0.701 -0.2025  0.0106  0.0445
 3161ntf    sn220404   2.082   5.563   0.574 -0.4351  0.4601  0.3631
 3161ntf    cn120405   2.002   5.706   0.652 -0.1133  0.5213  0.5844
 3161ntf    fn420406   2.296   5.285   0.787 -0.4219  0.0108 -0.5730
 3161ntf    fn420407   2.348   5.328   0.590 -0.4416  0.1817  0.2130
 3161ntf    fn420408   2.494   5.335   0.747 -0.3984 -0.1143 -0.0365
 3161ntf    on520409   2.317   5.543   0.888 -0.7228 -0.2407  0.1017
 3161ntf    on520410   2.382   5.620   0.654  0.0037 -0.0741 -0.2569
 3161ntf    on520411   1.986   5.462   0.539 -0.4124  0.1141  1.2700
 3161ntf    on520412   2.165   5.609   0.465  0.0227 -0.5580  0.2729
 3161ntf    fn420413   1.916   5.676   0.748 -0.2684 -0.2283  0.2180
 3161ntf    fn420414   2.091   5.788   0.705 -0.2836  0.5678  0.8019
 3161ntf    fn420415   1.936   5.773   0.558 -0.0267 -0.0249  0.1301
 3162ntf    cn120416   6.147   5.228   5.639  0.0936  0.0977  0.2365
 3162ntf    sn220417   6.157   5.068   5.553 -0.1384  0.3036 -0.1762
 3162ntf    nn320418   6.226   4.967   5.650 -0.1897 -0.0206 -0.4731
 3162ntf    sn220419   6.238   4.813   5.621  0.1057 -0.0544 -0.1833
 3162ntf    cn120420   6.405   4.808   5.550  0.1213 -0.0625 -0.1468
 3162ntf    fn420421   6.115   5.323   5.552  0.0526  0.3168  0.4893
 3162ntf    fn420422   6.061   5.239   5.739  0.1538  0.0902  0.2884
 3162ntf    fn420423   6.267   5.259   5.684  0.4234 -0.6349 -0.1119
 3162ntf    on520424   6.017   5.035   5.535  0.0321 -0.7244  0.3200
 3162ntf    on520425   6.238   5.104   5.439  0.3035  0.3485  0.1539
 3162ntf    on520426   6.147   4.753   5.527  0.0335  0.1907 -0.2694
 3162ntf    on520427   6.250   4.744   5.747 -0.5207  0.4605  0.1697
 3162ntf    fn420428   6.426   4.680   5.523  0.3277 -0.0396 -0.0988
 3162ntf    fn420429   6.409   4.882   5.441 -0.0839  0.0685 -0.0649
 3162ntf    fn420430   6.497   4.860   5.629  0.3211 -0.8112  0.1258
 3163ntf    cn120431   0.042   3.231   5.425  0.0880  0.2579  0.1919
 3163ntf    sn220432   0.105   3.194   5.258  0.1775 -0.2948  0.3436
 3163ntf    nn320433   0.100   3.337   5.192  0.1579 -0.7282 -0.6049
 3163ntf    sn220434  -0.028   3.422   5.160  0.5518  0.0298 -0.1980
 3163ntf    cn120435  -0.037   3.398   4.980  0.0091  0.0013 -0.1705
 3163ntf    fn420436   0.148   3.225   5.503 -0.1790 -0.2579  0.5195
 3163ntf    fn420437  -0.005   3.355   5.430  0.9398  0.5765  0.3903
 3163ntf    fn420438  -0.047   3.146   5.474  0.0901  0.2848  0.2415
 3163ntf    on520439   0.238   3.141   5.265  0.2232 -0.1966  0.2271
 3163ntf    on520440   0.001   3.106   5.210  0.0394  0.2460 -0.3750
 3163ntf    on520441  -0.009   3.563   5.178  0.2369  0.1397 -0.7082
 3163ntf    on520442  -0.154   3.365   5.202  0.4913  0.1842 -0.1719
 3163ntf    fn420443   0.058   3.446   4.902  0.3195 -0.3426 -0.0073
 3163ntf    fn420444  -0.029   3.268   4.954 -0.4355 -0.1491  0.4200
 3163ntf    fn420445  -0.144   3.444   4.918 -0.1428 -0.0605  0.0454
 3164ntf    cn120446   6.849   0.407   5.801 -0.0043 -0.4497  0.1035
 3164ntf    sn220447   6.870   0.232   5.845  0.2348 -0.4233  0.0968
 3164ntf    nn320448   6.765   0.231   5.962 -0.2361 -0.4841 -0.3189
 3164ntf    sn220449   6.777   0.283   6.110 -0.2222  0.2387 -0.5689
 3164ntf    cn120450   6.614   0.364   6.115 -0.0376  0.5803  0.0612
 3164ntf    fn420451   6.739   0.425   5.729  0.4569  0.1883 -0.4625
 3164ntf    fn420452   6.835   0.493   5.901  0.1146 -0.0845 -0.1910
 3164ntf    fn420453   6.949   0.458   5.731 -0.2462 -0.1548 -0.0314
 3164ntf    on520454   6.823   0.165   5.726  0.4543 -0.3812 -0.0125
 3164ntf    on520455   7.009   0.222   5.882  0.2356  0.1006  0.2500
 3164ntf    on520456   6.876   0.385   6.133  0.2608 -0.3742  0.0828
 3164ntf    on520457   6.755   0.179   6.207  0.3744  0.5933 -0.0512
 3164ntf    fn420458   6.596   0.415   6.235 -0.0728 -0.0323  0.3197
 3164ntf    fn420459   6.602   0.461   6.026 -0.8310 -0.3333 -0.8550
 3164ntf    fn420460   6.523   0.271   6.091  0.6501  0.0298 -0.4598
 3165ntf    cn120461   4.392   5.986   4.202  0.2967 -0.3496  0.2565
 3165ntf    sn220462   4.259   5.959   4.323 -0.1179  0.3324 -0.0375
 3165ntf    nn320463   4.312   5.824   4.384 -0.5473 -0.0194 -0.4436
 3165ntf    sn220464   4.257   5.679   4.358 -0.2756 -0.1957 -0.0381
 3165ntf    cn120465   4.277   5.602   4.522  0.0155  0.4873  0.2554
 3165ntf    fn420466   4.396   5.890   4.110 -0.6366 -0.4227  0.2805
 3165ntf    fn420467   4.392   6.104   4.143 -0.0824 -0.2245  0.5028
 3165ntf    fn420468   4.516   5.984   4.246  0.1895  0.2504  0.5951
 3165ntf    on520469   4.283   6.068   4.415 -0.1288  0.6305 -0.3888
 3165ntf    on520470   4.134   5.949   4.253 -0.1417 -0.0728  0.0593
 3165ntf    on520471   4.344   5.598   4.277 -0.3720 -0.2850 -0.0508
 3165ntf    on520472   4.115   5.665   4.341 -0.2291 -0.5893 -0.1052
 3165ntf    fn420473   4.202   5.652   4.619 -0.4345  0.7390 -0.2139
 3165ntf    fn420474   4.233   5.477   4.522 -0.1055  0.5244 -0.3040
 3165ntf    fn420475   4.402   5.603   4.565  0.1687 -0.2883 -0.1365
 3166ntf    cn120476   4.685   1.915   1.873 -0.3955 -0.2351  0.1609
 3166ntf    sn220477   4.601   1.935   2.033 -0.5849 -0.1666  0.0539
 3166ntf    nn320478   4.525   2.071   2.014  0.2857  0.3360  0.1123
 3166ntf    sn220479   4.486   2.173   2.127 -0.0549  0.4790 -0.1320
 3166ntf    cn120480   4.530   2.329   2.044  0.3365  0.1447 -0.5569
 3166ntf    fn420481   4.757   2.021   1.844 -0.0735 -0.4206  0.2754
 3166ntf    fn420482   4.764   1.809   1.869 -0.2419 -0.1006 -0.3993
 3166ntf    fn420483   4.601   1.891   1.774  0.3662 -0.5859 -0.4079
 3166ntf    on520484   4.513   1.821   2.025 -0.1798 -0.4599 -0.2522
 3166ntf    on520485   4.716   1.938   2.120 -0.7722  0.1247  0.2935
 3166ntf    on520486   4.566   2.160   2.247 -0.5081 -0.1352  0.1060
 3166ntf    on520487   4.343   2.177   2.140 -0.0504 -0.6247  0.3455
 3166ntf    fn420488   4.433   2.376   1.966  0.1352 -0.1964 -0.5154
 3166ntf    fn420489   4.546   2.420   2.138 -0.1934 -0.1725 -0.1535
 3166ntf    fn420490   4.640   2.317   1.972  0.3178  0.0191 -0.5650
 3167ntf    cn120491   6.900   5.695   3.823 -0.3381  0.2269 -0.1791
 3167ntf    sn220492   6.811   5.612   3.958 -0.0110  0.4031  0.1463
 3167ntf    nn320493   6.728   5.502   3.882  0.1606  0.0263  0.4954
 3167ntf    sn220494   6.572   5.483   3.870  0.1936  0.0127  0.0955
 3167ntf    cn120495   6.561   5.539   3.697  0.0132  0.2175  0.1734
 3167ntf    fn420496   6.912   5.619   3.716  0.1261  0.0266  0.0140
 3167ntf    fn420497   6.835   5.801   3.777 -0.0646  0.4423 -0.0685
 3167ntf    fn420498   7.024   5.726   3.854 -0.2355  0.1243 -0.4879
 3167ntf    on520499   6.917   5.542   4.026 -0.3839  0.2431  0.5757
 3167ntf    on520500   6.739   5.716   4.028 -0.5304  0.0382  0.1641
 3167ntf    on520501   6.493   5.585   3.933 -0.5909 -0.7474  0.3526
 3167ntf    on520502   6.519   5.349   3.872  0.1990  0.0146  0.3701
 3167ntf    fn420503   6.593   5.666   3.678 -0.2205  0.3245  0.4924
 3167ntf    fn420504   6.633   5.463   3.616  0.0308  0.3395  0.0747
 3167ntf    fn420505   6.441   5.528   3.642  0.1772  0.6754 -0.2770
 3168ntf    cn120506   2.621   4.950   3.512  0.0457 -0.1141 -0.3294
 3168ntf    sn220507   2.708   4.984   3.356  0.2644 -0.1682 -0.2193
 3168ntf    nn320508   2.854   4.950   3.403  0.2496  0.0016 -0.0482
 3168ntf    sn220509   2.965   4.890   3.309  0.1714 -0.1084 -0.0702
 3168ntf    cn120510   2.952   4.714   3.352  0.4344 -0.1499 -0.1552
 3168ntf    fn420511   2.654   5.035   3.608  0.1496 -0.2468 -0.2479
 3168ntf    fn420512   2.491   4.959   3.487 -0.0570 -0.1970  0.1556
 3168ntf    fn420513   2.638   4.827   3.557 -0.2220  0.1295  0.4640
 3168ntf    on520514   2.649   4.896   3.259  0.0460 -0.0969 -0.1519
 3168ntf    on520515   2.682   5.125   3.343  0.5452 -0.0472  0.4366
 3168ntf    on520516   3.097   4.931   3.349 -0.0299  0.3853  0.0970
 3168ntf    on520517   2.927   4.905   3.171  0.6056 -0.0228 -0.1803
 3168ntf    fn420518   3.058   4.644   3.317  1.0013  0.4906  0.2431
 3168ntf    fn420519   2.946   4.696   3.483  0.0074  0.1965 -0.1230
 3168ntf    fn420520   2.848   4.655   3.297  0.4489  0.0874 -0.4372
 3169ntf    cn120521   0.244   2.364   3.243  0.0832  0.2688 -0.3300
 3169ntf    sn220522   0.213   2.367   3.064 -0.4311 -0.4061 -0.2573
 3169ntf    nn320523   0.277   2.228   3.029  0.0093 -0.2910  0.0997
 3169ntf    sn220524   0.365   2.193   2.904  0.3468  0.7127  0.0460
 3169ntf    cn120525   0.220   2.166   2.798  0.4771  0.4422 -0.0631
 3169ntf    fn420526   0.198   2.468   3.310  0.3664 -0.3586  0.8716
 3169ntf    fn420527   0.194   2.262   3.311  0.3199  0.4019  0.0473
 3169ntf    fn420528   0.375   2.356   3.260  0.1839  0.0222 -1.1595
 3169ntf    on520529   0.071   2.388   3.048 -0.4789 -0.2553  0.3635
 3169ntf    on520530   0.295   2.477   3.020 -0.3633 -0.2908  0.1553
 3169ntf    on520531   0.415   2.058   2.906 -0.2139  0.5057  0.1618
 3169ntf    on520532   0.442   2.298   2.843 -0.1683  0.8637 -0.3566
 3169ntf    fn420533   0.120   2.246   2.830  0.2741 -0.0724  0.6025
 3169ntf    fn420534   0.234   2.196   2.670 -0.5613  1.1876 -0.0138
 3169ntf    fn420535   0.173   2.043   2.812  0.1368  0.6204  0.4024
 3170ntf    cn120536   4.614   1.928   3.380 -0.3810  0.1767  0.0130
 3170ntf    sn220537   4.458   1.926   3.475 -0.2100  0.0322  0.2924
 3170ntf    nn320538   4.484   2.051   3.567 -0.1717  0.0750  0.2243
 3170ntf    sn220539   4.554   2.063   3.707 -0.0137  0.0481  0.1468
 3170ntf    cn120540   4.641   2.222   3.686 -0.1834  0.1354  0.1047
 3170ntf    fn420541   4.641   1.828   3.298  0.5475  0.0691  0.4431
 3170ntf    fn420542   4.623   2.031   3.298 -0.4234 -0.7830 -1.2155
 3170ntf    fn420543   4.722   1.927   3.456 -0.1670  0.4615 -0.2824
 3170ntf    on520544   4.365   1.945   3.367  0.2147 -0.2137 -0.1209
 3170ntf    on520545   4.453   1.798   3.540  0.4017 -0.3588 -0.4097
 3170ntf    on520546   4.658   1.965   3.730 -0.7257 -0.7503  0.0028
 3170ntf    on520547   4.460   2.087   3.813 -0.5668 -0.6772 -0.1707
 3170ntf    fn420548   4.707   2.252   3.796  0.2690 -0.0735 -0.1061
 3170ntf    fn420549   4.724   2.229   3.583 -0.1267  0.1941  0.1544
 3170ntf    fn420550   4.556   2.321   3.663  0.1001  0.2486 -0.4621
 3171ntf    cn120551   6.344   7.066   3.939 -0.0263  0.0635 -0.0549
 3171ntf    sn220552   6.273   6.915   4.010 -0.0255  0.0354 -0.1131
 3171ntf    nn320553   6.402   6.842   4.063 -0.1178  0.4489  0.7026
 3171ntf    sn220554   6.414   6.727   4.168  0.3949 -0.0298  0.1272
 3171ntf    cn120555   6.443   6.822   4.320  0.3335 -0.3556  0.3449
 3171ntf    fn420556   6.258   7.167   3.935  0.1401  0.2063 -0.0265
 3171ntf    fn420557   6.454   7.105   4.002 -0.1849 -0.2365  0.4109
 3171ntf    fn420558   6.386   7.046   3.815  0.5002  0.0737  0.1209
 3171ntf    on520559   6.186   6.968   4.112  0.4531  0.7901 -0.0901
 3171ntf    on520560   6.213   6.859   3.891 -0.0653 -0.1940  0.0127
 3171ntf    on520561   6.531   6.642   4.164 -0.1845 -0.8167 -0.3273
 3171ntf    on520562   6.288   6.664   4.198  0.0305  0.4290 -0.4411
 3171ntf    fn420563   6.557   6.889   4.312 -0.1111  0.3616 -0.1592
 3171ntf    fn420564   6.349   6.912   4.343  0.1531 -0.5450  0.3437
 3171ntf    fn420565   6.454   6.746   4.427 -0.9382 -0.5840  0.3250
 3172ntf    cn120566   0.901   4.854   2.363  0.2564  0.1061  0.1039
 3172ntf    sn220567   0.977   4.883   2.200  0.0028  0.0813 -0.0192
 3172ntf    nn320568   1.122   4.919   2.246  0.0595 -0.1429 -0.0223
 3172ntf    sn220569   1.257   4.919   2.166  0.1821 -0.0489  0.1830
 3172ntf    cn120570   1.382   4.956   2.293  0.6210 -0.1411 -0.2187
 3172ntf    fn420571   0.987   4.789   2.440  0.8779  0.2088 -0.4970
 3172ntf    fn420572   0.879   4.964   2.434  0.3033  0.3413 -0.2449
 3172ntf    fn420573   0.790   4.784   2.350  0.4371 -0.1334 -0.1529
 3172ntf    on520574   0.955   4.759   2.130 -0.1233  0.3454 -0.4454
 3172ntf    on520575   0.902   4.999   2.158 -0.3216 -0.0562  0.1720
 3172ntf    on520576   1.271   5.038   2.085  0.5718 -0.2756 -0.0864
 3172ntf    on520577   1.288   4.790   2.110  0.6778  0.2829 -0.3245
 3172ntf    fn420578   1.400   4.856   2.378 -0.2419  0.4542  0.6788
 3172ntf    fn420579   1.498   4.971   2.232  0.6434 -0.4359 -0.2515
 3172ntf    fn420580   1.356   5.060   2.371 -0.0128 -0.9545  0.6801
 3173ntf    cn120581   1.779   6.459   1.864 -0.1269 -0.2329 -0.3098
 3173ntf    sn220582   1.750   6.637   1.888 -0.0893 -0.2586 -0.0742
 3173ntf    nn320583   1.854   6.679   1.779  0.1339  0.0954  0.2736
 3173ntf    sn220584   1.997   6.745   1.784  0.1370  0.0526  0.7460
 3173ntf    cn120585   2.103   6.602   1.748 -0.3161 -0.0493 -0.2142
 3173ntf    fn420586   1.749   6.412   1.744 -0.6620 -0.1114 -0.2264
 3173ntf    fn420587   1.899   6.416   1.898 -0.2827  0.2107  0.8430
 3173ntf    fn420588   1.698   6.396   1.947  0.2645 -0.1316  0.1503
 3173ntf    on520589   1.616   6.659   1.839  0.2769  0.4474 -0.7858
 3173ntf    on520590   1.788   6.657   2.026  0.3222  0.0889 -0.2380
 3173ntf    on520591   2.045   6.798   1.909  0.8518 -0.4260  0.6770
 3173ntf    on520592   2.013   6.831   1.670 -0.2763 -0.5868  0.2015
 3173ntf    fn420593   2.062   6.539   1.640  0.2989  0.3742 -0.6989
 3173ntf    fn420594   2.227   6.640   1.724 -0.4548 -0.0728 -0.9810
 3173ntf    fn420595   2.106   6.514   1.847 -0.2539 -0.1321 -0.2900
 3174ntf    cn120596   1.759   4.026   6.268 -0.1435  0.0431  0.2799
 3174ntf    sn220597   1.592   4.049   6.202 -0.1671  0.0987  0.3593
 3174ntf    nn320598   1.630   4.090   6.055  0.5577  0.2170  0.5740
 3174ntf    sn220599   1.591   4.227   5.990  0.1458  0.0243  0.4033
 3174ntf    cn120600   1.555   4.167   5.822  0.1755  0.0826  0.3754
 3174ntf    fn420601   1.759   4.020   6.400 -0.2220  0.0621  0.2809
 3174ntf    fn420602   1.803   3.913   6.213  0.5865  0.6629 -0.4405
 3174ntf    fn420603   1.844   4.123   6.238 -0.3792  0.1242 -0.1243
 3174ntf    on520604   1.539   3.916   6.212 -0.3575  0.1452  0.0036
 3174ntf    on520605   1.535   4.144   6.294 -0.1724  0.0055  0.4518
 3174ntf    on520606   1.699   4.322   5.975 -0.2836  0.4405 -0.0637
 3174ntf    on520607   1.463   4.282   6.026  0.1131 -0.3207  0.8080
 3174ntf    fn420608   1.553   4.264   5.731 -0.6876 -0.4165 -0.1469
 3174ntf    fn420609   1.651   4.087   5.780  0.5977  0.7598  0.0222
 3174ntf    fn420610   1.440   4.103   5.812  0.2081  0.1246 -0.2911
 3175ntf    cn120611   6.245   0.098   0.419 -0.4502  0.0524 -0.2573
 3175ntf    sn220612   6.268   0.088   0.239  0.2846 -0.1138 -0.1582
 3175ntf    nn320613   6.152   0.179   0.184  0.5660 -0.1665 -0.8398
 3175ntf    sn220614   6.008   0.133   0.144  0.1021 -0.0652  0.6734
 3175ntf    cn120615   6.007   0.140  -0.037 -0.3125 -0.5811  0.6514
 3175ntf    fn420616   6.125   0.061   0.463 -0.6983  0.7407 -0.3442
 3175ntf    fn420617   6.319   0.019   0.496 -0.4312 -0.1306 -0.4612
 3175ntf    fn420618   6.258   0.222   0.462  0.1148 -0.1127  0.0600
 3175ntf    on520619   6.393   0.158   0.224  0.1021  0.2455 -0.0151
 3175ntf    on520620   6.254  -0.054   0.214  0.6408 -0.1278 -0.2770
 3175ntf    on520621   5.905   0.228   0.182 -0.3651 -0.2408 -0.1348
 3175ntf    on520622   5.976  -0.006   0.162  0.5058 -0.2818 -0.2519
 3175ntf    fn420623   5.894   0.092  -0.086 -0.4329  0.4992 -0.1736
 3175ntf    fn420624   6.012   0.266  -0.079 -0.2233 -0.5909  0.6334
 3175ntf    fn420625   6.105   0.069  -0.091  0.2612  0.4742  0.2621
 3176ntf    cn120626   4.564   0.487   5.520  0.3830 -0.4769 -0.0918
 3176ntf    sn220627   4.737   0.457   5.566  0.3982 -0.1509  0.0648
 3176ntf    nn320628   4.773   0.604   5.609  0.0923 -0.0403 -0.0581
 3176ntf    sn220629   4.850   0.704   5.516  0.0827 -0.0413 -0.0672
 3176ntf    cn120630   4.799   0.858   5.599 -0.1597 -0.3604  0.3786
 3176ntf    fn420631   4.557   0.608   5.467  0.1450 -0.2820  0.3755
 3176ntf    fn420632   4.516   0.401   5.432  0.5718 -0.1440 -0.5251
 3176ntf    fn420633   4.483   0.487   5.625 -0.5101 -0.0770 -0.7604
 3176ntf    on520634   4.728   0.376   5.685  0.3688  0.2620  0.3480
 3176ntf    on520635   4.803   0.396   5.453  0.6219  0.3188 -0.0615
 3176ntf    on520636   4.808   0.725   5.379  0.4922  0.8334 -0.0690
 3176ntf    on520637   4.992   0.700   5.539  0.0312  0.2735  0.3284
 3176ntf    fn420638   4.862   0.875   5.714  0.5152 -0.0257 -0.0342
 3176ntf    fn420639   4.841   0.958   5.523 -0.4243 -0.4373  0.1307
 3176ntf    fn420640   4.668   0.860   5.616 -0.2101  0.1827 -0.0654
 3177ntf    cn120641   4.180   3.324   0.032  0.2306  0.4015 -0.2503
 3177ntf    sn220642   4.313   3.295   0.153 -0.3055  0.4832  0.3659
 3177ntf    nn320643   4.258   3.363   0.283 -0.0366 -0.4795  0.9925
 3177ntf    sn220644   4.317   3.482   0.366  0.5464  0.1358 -0.2863
 3177ntf    cn120645   4.429   3.387   0.472 -0.0726 -0.0509  0.2069
 3177ntf    fn420646   4.074   3.262   0.081  0.7778 -0.5624 -0.2584
 3177ntf    fn420647   4.149   3.452   0.022  0.1791  0.3871 -0.2712
 3177ntf    fn420648   4.208   3.272  -0.086 -0.0369 -0.3840  0.0257
 3177ntf    on520649   4.331   3.154   0.179 -0.7103  0.4961  0.7228
 3177ntf    on520650   4.429   3.358   0.096 -0.3941  0.2333 -0.0958
 3177ntf    on520651   4.219   3.535   0.458  0.6211 -0.3475  0.0742
 3177ntf    on520652   4.398   3.581   0.299  0.1515  0.5117 -0.2195
 3177ntf    fn420653   4.491   3.464   0.560  0.2252  0.2815 -0.2914
 3177ntf    fn420654   4.373   3.290   0.542  0.2691 -0.2414  0.2184
 3177ntf    fn420655   4.528   3.328   0.406 -0.1928 -0.0623  0.0356
 3178ntf    cn120656   2.561   0.859   2.701  0.1180  0.6860  0.2442
 3178ntf    sn220657   2.620   0.899   2.534  0.0721 -0.2969 -0.0119
 3178ntf    nn320658   2.616   0.759   2.463  0.4600 -0.1346 -0.3564
 3178ntf    sn220659   2.730   0.681   2.387  0.7234 -0.3577  0.2592
 3178ntf    cn120660   2.783   0.555   2.508  0.3282 -0.3458  0.4467
 3178ntf    fn420661   2.639   0.780   2.773 -0.1112 -0.1768 -0.4353
 3178ntf    fn420662   2.529   0.971   2.764 -0.0082  0.6995  0.1584
 3178ntf    fn420663   2.451   0.785   2.696  0.4823  0.1441  0.2199
 3178ntf    on520664   2.520   0.980   2.470  0.2793 -0.1705 -0.1766
 3178ntf    on520665   2.753   0.953   2.547 -0.2342  0.3810  0.3164
 3178ntf    on520666   2.849   0.758   2.363  0.1084  0.3726 -0.5029
 3178ntf    on520667   2.685   0.601   2.276  0.3246 -0.2220  0.3208
 3178ntf    fn420668   2.891   0.486   2.478  0.3267 -0.2726  0.2721
 3178ntf    fn420669   2.831   0.602   2.622  0.2443 -0.4936  0.5419
 3178ntf    fn420670   2.680   0.474   2.526 -0.2495  0.1485 -0.5248
 3179ntf    cn120671   0.524   6.954   6.190  0.0953  0.1609 -0.0266
 3179ntf    sn220672   0.497   6.825   6.066  0.2197  0.1364 -0.0285
 3179ntf    nn320673   0.542   6.694   6.140  0.0272  0.1397  0.0948
 3179ntf    sn220674   0.460   6.608   6.243  0.2752 -0.1464  0.0558
 3179ntf    cn120675   0.351   6.506   6.139  0.2191 -0.0440  0.0132
 3179ntf    fn420676   0.512   7.073   6.132 -0.0820  0.1988  0.0887
 3179ntf    fn420677   0.437   6.958   6.289  0.1392  0.2099  0.0107
 3179ntf    fn420678   0.649   6.954   6.234  0.0174 -0.0268  0.1979
 3179ntf    on520679   0.354   6.825   6.044  0.1692  0.5360  0.3029
 3179ntf    on520680   0.587   6.851   5.956 -0.1234 -0.0048 -0.3474
 3179ntf    on520681   0.371   6.698   6.311  0.5306 -0.0782  0.2973
 3179ntf    on520682   0.544   6.513   6.311  0.5861 -0.2163 -0.4208
 3179ntf    fn420683   0.414   6.434   6.047  0.2899  0.1768 -0.1119
 3179ntf    fn420684   0.274   6.421   6.206 -0.4331  0.5195 -0.0095
 3179ntf    fn420685   0.269   6.586   6.073  0.3418  0.3170  0.2985
 3180ntf    cn120686   0.391   1.418   1.301  0.0384  0.1563  0.0988
 3180ntf    sn220687   0.319   1.420   1.134 -0.0121  0.2082  0.1212
 3180ntf    nn320688   0.259   1.275   1.125  0.1136  0.2059 -0.7922
 3180ntf    sn220689   0.111   1.232   1.092  0.1296 -0.4170 -0.0720
 3180ntf    cn120690   0.019   1.272   1.244  0.3148 -0.2804  0.0060
 3180ntf    fn420691   0.459   1.528   1.331 -0.1743  0.2184  0.3522
 3180ntf    fn420692   0.298   1.406   1.394 -0.4348  0.1799 -0.3684
 3180ntf    fn420693   0.477   1.318   1.318 -0.3186 -0.2243 -0.3056
 3180ntf    on520694   0.223   1.527   1.130  0.3082  0.4805 -0.3410
 3180ntf    on520695   0.436   1.421   1.050 -0.1438 -0.0994 -0.0658
 3180ntf    on520696   0.099   1.089   1.075  0.1755 -0.3877 -0.3511
 3180ntf    on520697   0.048   1.312   0.991 -0.2042  0.0625  0.5107
 3180ntf    fn420698   0.047   1.394   1.285 -0.1032 -0.0196 -0.4725
 3180ntf    fn420699  -0.113   1.267   1.236  0.2790 -0.1571  0.5203
 3180ntf    fn420700   0.055   1.191   1.342  0.4194  0.1338  0.3067
 3181ntf    cn120701   2.922   5.443   0.491 -0.0442  0.3252  0.4378
 3181ntf    sn220702   2.975   5.346   0.636 -0.2045 -0.4196  0.0047
 3181ntf    nn320703   2.959   5.194   0.599 -0.7902 -0.4126  0.2152
 3181ntf    sn220704   3.055   5.107   0.510 -0.1490  0.2712  0.2213
 3181ntf    cn120705   2.935   5.087   0.374 -0.1670  0.4777  0.2064
 3181ntf    fn420706   2.955   5.394   0.372 -0.0347  1.2287  0.0636
 3181ntf    fn420707   2.793   5.467   0.479 -0.0424 -0.0120 -0.3661
 3181ntf    fn420708   2.980   5.561   0.504  0.0999  0.2858  0.1693
 3181ntf    on520709   3.102   5.406   0.669 -0.0499 -0.2026 -0.9519
 3181ntf    on520710   2.871   5.376   0.731  0.1173  0.4764  0.0806
 3181ntf    on520711   3.076   4.971   0.553  0.0602 -0.1213 -1.0760
 3181ntf    on520712   3.169   5.176   0.455 -0.0902 -0.0425 -0.0557
 3181ntf    fn420713   2.923   5.200   0.307 -0.2329  0.2879 -0.1037
 3181ntf    fn420714   2.970   4.999   0.282 -0.8929  0.1731  0.2100
 3181ntf    fn420715   2.815   5.039   0.406 -0.1708  0.3480 -0.0023
 3182ntf    cn120716   4.277   4.620   6.169  0.0260 -0.0884 -0.6654
 3182ntf    sn220717   4.117   4.645   6.086 -0.2504 -0.0034 -0.1154
 3182ntf    nn320718   4.117   4.800   6.063 -0.3882 -0.0055 -0.1305
 3182ntf    sn220719   4.098   4.887   5.933 -0.4404 -0.1235 -0.2016
 3182ntf    cn120720   4.268   4.924   5.882 -0.5680  0.2076 -0.3903
 3182ntf    fn420721   4.378   4.651   6.090  0.1123  0.3371 -0.3866
 3182ntf    fn420722   4.289   4.691   6.280  0.5042 -0.1514 -0.6763
 3182ntf    fn420723   4.300   4.499   6.219  0.3773  0.3582  0.2829
 3182ntf    on520724   4.114   4.547   5.980 -0.0545 -0.4677  0.3004
 3182ntf    on520725   4.025   4.604   6.189 -0.2478 -0.4268 -0.2778
 3182ntf    on520726   4.045   5.015   5.974 -0.4209 -0.2895  0.3589
 3182ntf    on520727   4.051   4.820   5.815 -1.0611 -0.0912  0.0212
 3182ntf    fn420728   4.336   4.972   5.984 -0.0052  0.3304 -0.8197
 3182ntf    fn420729   4.337   4.820   5.838 -0.0220  0.3697  0.0678
 3182ntf    fn420730   4.274   5.015   5.786  0.1596  0.4716 -0.1019
 3183ntf    cn120731   5.005   5.907   2.409 -0.0661  0.5298  0.4625
 3183ntf    sn220732   4.892   5.947   2.545 -0.1850  0.3047  0.4314
 3183ntf    nn320733   4.787   6.026   2.460 -0.5969  0.0683  0.7172
 3183ntf    sn220734   4.664   5.972   2.379 -0.1974 -0.0200  0.1574
 3183ntf    cn120735   4.520   6.032   2.473 -0.3937 -0.2041 -0.0230
 3183ntf    fn420736   5.076   6.006   2.356  0.3789 -0.4857 -0.8863
 3183ntf    fn420737   5.097   5.818   2.443 -0.2400  0.0426 -0.3249
 3183ntf    fn420738   4.935   5.858   2.308  0.1612  0.5920  0.2713
 3183ntf    on520739   4.854   5.820   2.601  0.0767 -0.0346 -0.1484
 3183ntf    on520740   4.975   6.038   2.621  0.1639  0.7339 -0.4505
 3183ntf    on520741   4.652   5.828   2.382 -0.0801 -0.0364 -0.2105
 3183ntf    on520742   4.667   6.036   2.250  1.5520 -0.1920  0.0919
 3183ntf    fn420743   4.538   6.161   2.497 -0.1336 -0.1978 -0.2382
 3183ntf    fn420744   4.406   6.010   2.410 -0.3435 -1.0802  0.1888
 3183ntf    fn420745   4.509   5.964   2.586  0.1067 -0.6648 -0.2441
 3184ntf    cn120746   4.074   6.180   0.864  0.3984 -0.0800  0.0843
 3184ntf    sn220747   4.139   6.287   0.995  0.2734  0.0230  0.0635
 3184ntf    nn320748   4.249   6.188   1.048  0.3084  0.2402  0.3942
 3184ntf    sn220749   4.284   6.151   1.197 -0.4222 -0.3505  0.4223
 3184ntf    cn120750   4.300   6.316   1.271  0.1121 -0.1939 -0.0367
 3184ntf    fn420751   3.952   6.221   0.832  0.3560 -0.5491 -0.3795
 3184ntf    fn420752   4.148   6.179   0.754 -0.7099  0.9010 -0.6919
 3184ntf    fn420753   4.063   6.053   0.902 -0.1994  0.2002  0.8818
 3184ntf    on520754   4.184   6.404   0.924  0.1190  0.1852  0.2328
 3184ntf    on520755   4.022   6.296   1.078  0.9190 -0.1731  1.0116
 3184ntf    on520756   4.416   6.093   1.188 -0.3629 -0.1508 -0.0174
 3184ntf    on520757   4.182   6.082   1.273 -0.4710 -0.7465  0.0071
 3184ntf    fn420758   4.329   6.294   1.398 -0.5363 -0.3364  0.0888
 3184ntf    fn420759   4.397   6.384   1.212 -0.3480 -0.3165 -0.9586
 3184ntf    fn420760   4.191   6.391   1.270  0.0823 -0.2357  0.0629
 3185ntf    cn120761   4.018   2.768   2.633  0.1149  0.2968  0.1588
 3185ntf    sn220762   4.123   2.744   2.780  0.4220  0.1175 -0.0887
 3185ntf    nn320763   4.130   2.587   2.786 -0.0269  0.0951 -0.1455
 3185ntf    sn220764   4.028   2.484   2.846  0.2255  0.1069  0.3047
 3185ntf    cn120765   4.096   2.469   3.014 -0.4540 -0.2962  0.5474
 3185ntf    fn420766   3.888   2.755   2.652  0.2437 -0.3834  0.5971
 3185ntf    fn420767   4.038   2.891   2.587 -0.5867  0.3815  0.0812
 3185ntf    fn420768   4.058   2.676   2.546 -0.4427  0.3373 -0.1426
 3185ntf    on520769   4.254   2.794   2.745  0.1312  0.7396 -0.3150
 3185ntf    on520770   4.055   2.806   2.891  0.1908 -0.4362  0.0822
 3185ntf    on520771   4.057   2.352   2.795  0.3812  0.3356 -0.2070
 3185ntf    on520772   3.891   2.525   2.868  0.1714  0.0170  0.1295
 3185ntf    fn420773   4.118   2.589   3.064 -1.2098 -0.0671  0.3431
 3185ntf    fn420774   4.024   2.393   3.095 -1.0317 -0.2020  0.1291
 3185ntf    fn420775   4.221   2.426   3.030 -0.1224  0.6386  0.5197
 3186ntf    cn120776   2.724   3.959   0.755 -0.3335  0.5253  0.4700
 3186ntf    sn220777   2.842   4.078   0.686 -0.2680  0.0628 -0.2258
 3186ntf    nn320778   2.875   4.004   0.552 -0.4363 -0.9638  0.2924
 3186ntf    sn220779   2.791   3.988   0.420 -0.2943  0.1655  0.0551
 3186ntf    cn120780   2.853   3.829   0.357 -0.2107  0.2529 -0.0821
 3186ntf    fn420781   2.786   3.861   0.820  0.0156  0.0707 -0.5359
 3186ntf    fn420782   2.638   4.010   0.841 -0.5775  0.2192  0.4093
 3186ntf    fn420783   2.652   3.887   0.671 -0.1803  0.2665  0.5588
 3186ntf    on520784   2.779   4.208   0.675  0.4067  0.3632 -0.6034
 3186ntf    on520785   2.954   4.057   0.775  0.2517  0.1556 -0.8538
 3186ntf    on520786   2.830   4.078   0.315  0.3133 -0.3500 -0.1610
 3186ntf    on520787   2.649   3.966   0.437 -0.2698 -0.0411 -0.0074
 3186ntf    fn420788   2.790   3.785   0.250 -0.0437 -0.6630  0.1855
 3186ntf    fn420789   2.976   3.842   0.310  0.0052 -0.0978  0.3723
 3186ntf    fn420790   2.852   3.729   0.443 -0.1650  0.0334 -0.3379
 3187ntf    cn120791   3.001   6.963   4.289 -0.2206 -0.0367 -0.0284
 3187ntf    sn220792   3.053   7.090   4.169 -0.1049  0.2308  0.3046
 3187ntf    nn320793   3.196   7.115   4.229 -0.0921  0.3549  0.2228
 3187ntf    sn220794   3.323   7.173   4.158 -0.0384 -0.1635 -0.1136
 3187ntf    cn120795   3.439   7.038   4.194  0.1950  0.1024  0.1354
 3187ntf    fn420796   3.032   6.999   4.412  0.0542  0.1800 -0.1590
 3187ntf    fn420797   2.871   6.943   4.276 -0.1484 -0.1957 -0.5648
 3187ntf    fn420798   3.072   6.855   4.261  0.1596  0.4092 -0.8504
 3187ntf    on520799   3.046   7.020   4.043  0.6593  0.1391  0.3096
 3187ntf    on520800   2.968   7.204   4.192  0.3572  0.5792  0.3053
 3187ntf    on520801   3.374   7.284   4.234  0.0763 -0.2318 -0.0902
 3187ntf    on520802   3.300   7.193   4.017 -0.4892  0.0132 -0.0166
 3187ntf    fn420803   3.550   7.049   4.122 -0.2368  0.2647 -0.5072
 3187ntf    fn420804   3.470   7.022   4.322  0.0886 -0.3154  0.1094
 3187ntf    fn420805   3.377   6.925   4.164  0.1722  0.3198 -0.6511
 3188ntf    cn120806   6.903   6.342   6.507  0.0110 -0.0456 -0.1555
 3188ntf    sn220807   6.826   6.186   6.560 -0.1005  0.1230  0.1870
 3188ntf    nn320808   6.892   6.093   6.452 -0.2791  0.0119  0.1732
 3188ntf    sn220809   7.037   6.032   6.443 -0.2403  0.0901  0.2582
 3188ntf    cn120810   6.981   5.859   6.458 -0.2509  0.0634 -0.0880
 3188ntf    fn420811   6.905   6.355   6.376  0.1567  0.1877 -0.1324
 3188ntf    fn420812   6.835   6.441   6.563  0.0810 -0.0985  0.0253
 3188ntf    fn420813   7.029   6.339   6.550 -0.0460 -0.1295  0.0085
 3188ntf    on520814   6.869   6.169   6.696 -0.3094 -0.6556  0.1603
 3188ntf    on520815   6.684   6.203   6.538 -0.2255 -0.2364  0.7230
 3188ntf    on520816   7.120   6.035   6.560 -0.3247  0.4335  0.3091
 3188ntf    on520817   7.103   6.043   6.315 -0.9177  0.1014 -0.0967
 3188ntf    fn420818   6.893   5.858   6.557  0.1393 -0.6122  0.2522
 3188ntf    fn420819   6.916   5.821   6.349 -0.4043  0.1587 -0.0307
 3188ntf    fn420820   7.079   5.773   6.477 -0.4009 -0.2285 -0.6130
 3189ntf    cn120821   0.894   1.314   0.757  0.1264 -0.0654  0.5192
 3189ntf    sn220822   0.845   1.393   0.601 -0.3247 -0.1764  0.6020
 3189ntf    nn320823   0.773   1.274   0.527  0.1761  0.1751 -0.4745
 3189ntf    sn220824   0.799   1.209   0.387  0.0326 -0.0467 -0.3982
 3189ntf    cn120825   0.647   1.216   0.287 -0.4545 -0.0638  0.3322
 3189ntf    fn420826   0.937   1.396   0.851 -0.2644  0.0959  0.5608
 3189ntf    fn420827   0.791   1.249   0.811  0.3225 -0.8478 -0.0209
 3189ntf    fn420828   0.984   1.217   0.748 -0.1506 -0.2865  0.1027
 3189ntf    on520829   0.746   1.487   0.646  0.0937  0.1719  0.7910
 3189ntf    on520830   0.965   1.450   0.546 -0.6196  0.1017  0.2407
 3189ntf    on520831   0.830   1.069   0.402 -0.6498 -0.1694 -0.0862
 3189ntf    on520832   0.879   1.285   0.294  0.0883  0.3107 -0.0609
 3189ntf    fn420833   0.676   1.196   0.159 -0.0114  0.2946  0.3715
 3189ntf    fn420834   0.553   1.134   0.329 -0.3861 -0.0709  0.4708
 3189ntf    fn420835   0.600   1.339   0.289 -0.0832  0.0930 -0.1678
 3190ntf    cn120836   3.125   3.795   6.531  0.0073 -0.1957  0.1644
 3190ntf    sn220837   3.030   3.929   6.611 -0.3097 -0.4928  0.2880
 3190ntf    nn320838   2.893   3.874   6.559 -0.4225 -0.1687  0.2429
 3190ntf    sn220839   2.812   3.911   6.429 -0.2605  0.1095  0.2207
 3190ntf    cn120840   2.647   3.873   6.495 -0.2579  0.1696  0.2626
 3190ntf    fn420841   3.078   3.682   6.581 -0.4575  0.1049  0.4147
 3190ntf    fn420842   3.110   3.792   6.400 -0.7334  0.1351  0.2355
 3190ntf    fn420843   3.255   3.810   6.554  0.0379  0.2669 -0.2935
 3190ntf    on520844   3.054   3.902   6.750 -0.2834 -0.3497  0.3115
 3190ntf    on520845   3.079   4.054   6.560  0.4793 -1.0371 -0.3190
 3190ntf    on520846   2.825   3.809   6.328 -0.0828  0.2333  0.1196
 3190ntf    on520847   2.810   4.052   6.399 -0.3242  0.0447 -0.0799
 3190ntf    fn420848   2.556   3.896   6.401  0.2783 -0.0943 -0.3272
 3190ntf    fn420849   2.634   3.747   6.534  0.4073  0.0353  0.0548
 3190ntf    fn420850   2.623   3.955   6.596  0.0799  0.0142  0.4677
 3191ntf    cn120851   2.402   1.491   0.578  0.2091  0.4560 -0.0736
 3191ntf    sn220852   2.246   1.531   0.493  0.2314  0.0690 -0.2967
 3191ntf    nn320853   2.179   1.389   0.506 -0.1210  0.2583 -0.0269
 3191ntf    sn220854   2.056   1.347   0.593  0.1621 -0.2059  0.1525
 3191ntf    cn120855   1.910   1.406   0.502  0.3784 -0.0978 -0.1235
 3191ntf    fn420856   2.476   1.601   0.577  0.0163  0.5987  0.9982
 3191ntf    fn420857   2.377   1.452   0.702 -0.1927  0.1110 -0.2606
 3191ntf    fn420858   2.464   1.398   0.506  0.0073  0.0943  0.2181
 3191ntf    on520859   2.179   1.630   0.573  0.8199 -0.2814  0.6437
 3191ntf    on520860   2.304   1.560   0.364 -0.3578  0.4112 -0.4856
 3191ntf    on520861   2.047   1.395   0.729  0.4341 -0.5310  0.2870
 3191ntf    on520862   2.040   1.204   0.584  0.2212 -0.1682 -0.5517
 3191ntf    fn420863   1.798   1.390   0.570  0.0599  0.4460 -0.5126
 3191ntf    fn420864   1.908   1.536   0.479  0.8053 -0.1160 -0.2720
 3191ntf    fn420865   1.892   1.338   0.390 -0.5763  0.0618 -0.0696
 3192ntf    cn120866   5.715   6.379   1.282 -0.0828  0.2917 -0.4767
 3192ntf    sn220867   5.752   6.326   1.112 -0.3269 -0.1295 -0.4007
 3192ntf    nn320868   5.640   6.408   1.040 -0.5957 -0.2333 -0.1055
 3192ntf    sn220869   5.641   6.555   0.983  0.0310 -0.1366  0.1480
 3192ntf    cn120870   5.712   6.535   0.816 -0.3236  0.0404 -0.0238
 3192ntf    fn420871   5.729   6.511   1.291  0.0680  0.2272  0.2933
 3192ntf    fn420872   5.594   6.360   1.332 -0.1120 -0.2147 -0.7399
 3192ntf    fn420873   5.798   6.319   1.366 -0.0375  0.0548 -0.6895
 3192ntf    on520874   5.891   6.362   1.091 -0.4201  0.0056 -0.7908
 3192ntf    on520875   5.725   6.187   1.134  0.0907 -0.0815  0.4717
 3192ntf    on520876   5.724   6.655   1.046 -0.1107 -0.2488  0.5102
 3192ntf    on520877   5.509   6.598   0.946  0.3171  0.4895 -0.1574
 3192ntf    fn420878   5.709   6.655   0.760 -0.0235  0.0489 -0.0202
 3192ntf    fn420879   5.835   6.487   0.808 -0.0553  0.7294 -0.1170
 3192ntf    fn420880   5.633   6.456   0.745 -0.0782 -0.3291  0.1105
 3193ntf    cn120881   3.599   5.756   6.507 -0.2571 -0.4196  0.1466
 3193ntf    sn220882   3.449   5.856   6.525  0.1494  0.2747 -0.2799
 3193ntf    nn320883   3.331   5.753   6.524  0.1502  0.2743 -0.3710
 3193ntf    sn220884   3.185   5.773   6.468  0.0425 -0.0942 -0.2249
 3193ntf    cn120885   3.120   5.633   6.564 -0.2327 -0.1567 -0.5036
 3193ntf    fn420886   3.710   5.827   6.517 -0.3973 -0.2296  0.3735
 3193ntf    fn420887   3.610   5.656   6.593  0.0753 -0.2649  0.2862
 3193ntf    fn420888   3.604   5.702   6.386 -0.1614 -0.2766  0.0860
 3193ntf    on520889   3.468   5.917   6.655 -0.3704  0.0537 -0.0967
 3193ntf    on520890   3.443   5.941   6.409 -0.7917 -0.1835 -0.5794
 3193ntf    on520891   3.169   5.737   6.330  0.6102  0.3862 -0.4233
 3193ntf    on520892   3.114   5.885   6.526  0.0298  0.0583 -0.5343
 3193ntf    fn420893   2.990   5.622   6.543 -0.1924 -0.6506 -0.5124
 3193ntf    fn420894   3.196   5.526   6.545  0.0684 -0.1914  0.8116
 3193ntf    fn420895   3.137   5.653   6.693  0.5606 -0.4585 -0.5517
 3194ntf    cn120896   6.024   5.033   0.036  0.0605  0.1543  0.0610
 3194ntf    sn220897   6.187   5.097   0.087  0.3087 -0.2271 -0.2537
 3194ntf    nn320898   6.271   4.997  -0.000  0.7399  0.2614 -0.4021
 3194ntf    sn220899   6.380   4.896   0.051  0.3897  0.2235  0.2679
 3194ntf    cn120900   6.523   5.006   0.031  0.1135  0.4536 -0.4497
 3194ntf    fn420901   5.940   5.133   0.018 -0.4783 -0.3373 -0.1777
 3194ntf    fn420902   6.023   4.974  -0.082 -0.2744  0.5149 -0.1187
 3194ntf    fn420903   5.972   4.938   0.112  0.5783 -0.2986 -0.1483
 3194ntf    on520904   6.198   5.234   0.046  0.1176 -0.0915  0.1453
 3194ntf    on520905   6.191   5.073   0.229 -0.1759 -0.4058 -0.2676
 3194ntf    on520906   6.403   4.799  -0.053  0.4562  0.7499 -0.2108
 3194ntf    on520907   6.388   4.860   0.191 -0.2599 -0.2945  0.1817
 3194ntf    fn420908   6.560   5.018  -0.095  0.0281 -1.1234 -0.6393
 3194ntf    fn420909   6.482   5.123   0.077 -0.2726  0.2502 -0.2721
 3194ntf    fn420910   6.628   4.970   0.102 -0.0888  0.3841 -0.1837
 3195ntf    cn120911   5.549   1.534   4.118 -0.2039 -0.0531  0.0017
 3195ntf    sn220912   5.571   1.479   3.947  0.3352  0.1478  0.0046
 3195ntf    nn320913   5.443   1.390   3.927  0.6943 -0.3336 -0.1510
 3195ntf    sn220914   5.404   1.258   4.003  0.0717 -0.0119  0.0885
 3195ntf    cn120915   5.488   1.126   3.910 -0.0888 -0.0391 -0.0177
 3195ntf    fn420916   5.599   1.446   4.204  0.3217  0.2302 -0.0087
 3195ntf    fn420917   5.608   1.650   4.142  0.1452 -0.1142 -0.5525
 3195ntf    fn420918   5.420   1.550   4.143 -0.2049 -0.6256  0.3916
 3195ntf    on520919   5.581   1.607   3.880  0.6864 -0.0088 -0.2424
 3195ntf    on520920   5.693   1.404   3.957 -0.0350 -0.4240  0.2280
 3195ntf    on520921   5.265   1.228   3.980  0.1138 -0.0394 -0.1395
 3195ntf    on520922   5.446   1.247   4.141  0.0148 -0.2940  0.0830
 3195ntf    fn420923   5.619   1.118   3.926 -0.0694  0.0069 -0.1598
 3195ntf    fn420924   5.451   1.010   3.962 -0.2528  0.0568  0.0823
 3195ntf    fn420925   5.465   1.132   3.780  0.2362  0.3044 -0.0633
 3196ntf    cn120926   0.287   6.476   5.325  0.0047  0.0675 -0.2852
 3196ntf    sn220927   0.341   6.565   5.474 -0.1796 -0.2319 -0.0367
 3196ntf    nn320928   0.411   6.453   5.558  0.4619  0.2601  0.0935
 3196ntf    sn220929   0.538   6.450   5.652  0.1582  0.0919  0.5017
 3196ntf    cn120930   0.657   6.382   5.533  0.1622 -0.0656  0.5970
 3196ntf    fn420931   0.222   6.364   5.354 -0.0751  0.2389  0.2081
 3196ntf    fn420932   0.205   6.550   5.253 -0.3271 -0.4238 -0.4213
 3196ntf    fn420933   0.388   6.434   5.251 -0.4003 -0.4165 -0.5712
 3196ntf    on520934   0.433   6.662   5.419 -0.5817  0.5991  0.7244
 3196ntf    on520935   0.222   6.618   5.536 -0.0990 -0.2019  0.0928
 3196ntf    on520936   0.514   6.347   5.750 -0.1635  0.0087  0.3390
 3196ntf    on520937   0.579   6.578   5.703  0.0362  0.2454  0.2232
 3196ntf    fn420938   0.773   6.359   5.593  0.2769  0.0692  0.4253
 3196ntf    fn420939   0.616   6.270   5.475 -0.6464  0.2688  0.5221
 3196ntf    fn420940   0.677   6.478   5.444 -0.1104 -0.2091  0.3802
 3197ntf    cn120941   1.268   0.908   6.238  0.3625  0.1096 -0.0833
 3197ntf    sn220942   1.312   0.751   6.157 -0.2082  0.2545 -0.6804
 3197ntf    nn320943   1.463   0.737   6.196 -0.3350 -0.3600 -0.4097
 3197ntf    sn220944   1.526   0.663   6.320 -0.0770  0.3374 -0.1237
 3197ntf    cn120945   1.632   0.536   6.247  0.0602  0.4098 -0.0499
 3197ntf    fn420946   1.155   0.960   6.194  0.2199 -0.1765 -0.0573
 3197ntf    fn420947   1.252   0.905   6.369 -0.0581 -0.1820 -0.1359
 3197ntf    fn420948   1.362   0.997   6.212  0.4027  0.2561  0.5540
 3197ntf    on520949   1.222   0.654   6.213 -0.2838  0.4167 -0.5198
 3197ntf    on520950   1.288   0.781   6.018 -0.0330  0.2758 -0.7070
 3197ntf    on520951   1.441   0.595   6.415 -0.0994 -0.2656 -0.5717
 3197ntf    on520952   1.623   0.752   6.380  0.0533  0.0577  0.0797
 3197ntf    fn420953   1.673   0.569   6.126 -0.1450  0.3775 -0.1273
 3197ntf    fn420954   1.743   0.514   6.317  0.0362 -0.1918 -0.1935
 3197ntf    fn420955   1.564   0.423   6.239  0.4258  0.1842 -0.0351
 3198ntf    cn120956   3.716   0.775   1.298 -0.0566 -0.2257  0.3245
 3198ntf    sn220957   3.642   0.744   1.135  0.1500 -0.0014  0.1873
 3198ntf    nn320958   3.745   0.630   1.102  0.0978 -0.1947  0.6953
 3198ntf    sn220959   3.854   0.628   0.990 -0.3181  0.2104  0.2789
 3198ntf    cn120960   3.797   0.502   0.872  0.4102 -0.0426  0.1864
 3198ntf    fn420961   3.844   0.808   1.295 -0.1669  0.1798 -0.0938
 3198ntf    fn420962   3.651   0.875   1.356 -0.2739 -0.2342  0.0963
 3198ntf    fn420963   3.713   0.668   1.375  0.0882 -0.3918  0.1004
 3198ntf    on520964   3.510   0.696   1.166  0.1900  0.0104  0.3789
 3198ntf    on520965   3.657   0.874   1.074 -0.4772  0.1244  0.3023
 3198ntf    on520966   3.978   0.577   1.043  0.0209  0.7000 -0.0321
 3198ntf    on520967   3.873   0.745   0.908 -0.0394  0.3658  0.5620
 3198ntf    fn420968   3.897   0.470   0.792  0.1312 -0.0352 -0.1688
 3198ntf    fn420969   3.751   0.391   0.927  0.0625 -0.2312 -0.4649
 3198ntf    fn420970   3.708   0.555   0.788  0.2276 -0.3438  0.1897
 3199ntf    cn120971   3.697   2.984   5.211 -0.0815  0.7576 -0.3332
 3199ntf    sn220972   3.873   3.020   5.241  0.0177 -0.0450  0.0616
 3199ntf    nn320973   3.858   3.176   5.247  0.3355 -0.0089 -0.0456
 3199ntf    sn220974   3.875   3.280   5.131 -0.2095  0.1137 -0.0191
 3199ntf    cn120975   4.024   3.354   5.204 -0.0968  0.1081 -0.2404
 3199ntf    fn420976   3.660   2.886   5.291  0.5114  0.8950  0.1156
 3199ntf    fn420977   3.631   3.090   5.253 -0.6854  0.2925 -0.1109
 3199ntf    fn420978   3.665   2.949   5.087 -0.2622 -0.2268 -0.0121
 3199ntf    on520979   3.887   2.955   5.370 -0.3461 -0.7396 -0.2417
 3199ntf    on520980   3.937   2.963   5.125  0.3951 -0.5172  0.4963
 3199ntf    on520981   3.784   3.392   5.139  0.2389  0.4369  0.6281
 3199ntf    on520982   3.908   3.232   4.999  0.1534  0.7559 -0.1656
 3199ntf    fn420983   3.996   3.423   5.314  0.5225  0.5291 -0.3391
 3199ntf    fn420984   4.128   3.279   5.237 -0.5226 -0.3150  0.1580
 3199ntf    fn420985   4.073   3.451   5.128  0.0672  0.3281  0.1418
 3200ntf    cn120986   0.052   4.088   3.282 -0.2341 -0.0090 -0.1017
 3200ntf    sn220987  -0.032   4.169   3.421  0.4450  0.1401  0.2279
 3200ntf    nn320988  -0.144   4.239   3.337 -0.0080 -0.2806  0.4770
 3200ntf    sn220989  -0.261   4.331   3.388 -0.0833 -0.1213  0.0335
 3200ntf    cn120990  -0.401   4.215   3.395 -0.1689 -0.0187  0.0224
 3200ntf    fn420991   0.175   4.059   3.321 -0.3482 -0.0981  0.1896
 3200ntf    fn420992  -0.007   3.978   3.239 -0.4474  0.0595  0.0174
 3200ntf    fn420993   0.064   4.175   3.183  0.1788 -0.0152 -0.0594
 3200ntf    on520994  -0.079   4.051   3.489  0.0947  0.1973  0.0883
 3200ntf    on520995   0.063   4.259   3.483  0.3757  0.3643  0.0097
 3200ntf    on520996  -0.294   4.432   3.291 -0.8446 -0.7528 -0.3793
 3200ntf    on520997  -0.245   4.378   3.524  0.3408 -0.0990 -0.0213
 3200ntf    fn420998  -0.447   4.167   3.280 -0.2752  0.2615 -0.0529
 3200ntf    fn420999  -0.374   4.121   3.484  0.4436  0.2012  0.0721
 3200ntf    fn421000  -0.513   4.271   3.438 -0.2520 -0.1153 -0.0678
 3201ntf    cn121001   5.123   5.580   6.408 -0.3350 -0.1513 -0.3341
 3201ntf    sn221002   5.063   5.454   6.523  0.0976 -0.0585 -0.0038
 3201ntf    nn321003   4.908   5.467   6.507  0.0336 -0.3599  0.3595
 3201ntf    sn221004   4.820   5.557   6.601  0.3693  0.1650  0.1728
 3201ntf    cn121005   4.789   5.433   6.730  0.3184  0.2753  0.2668
 3201ntf    fn421006   5.255   5.590   6.398 -0.2921  0.3346  0.6610
 3201ntf    fn421007   5.075   5.561   6.286 -0.0781  0.0606 -0.4729
 3201ntf    fn421008   5.085   5.702   6.445  0.3660  0.2168 -0.7897
 3201ntf    on521009   5.103   5.327   6.468  0.4309  0.0446 -0.0014
 3201ntf    on521010   5.120   5.499   6.647 -0.1706  0.2107  0.0217
 3201ntf    on521011   4.693   5.575   6.535  0.0955  0.1369  0.6782
 3201ntf    on521012   4.869   5.674   6.670  0.6393  0.2599 -0.1776
 3201ntf    fn421013   4.897   5.374   6.777  0.6296  0.0901 -0.6628
 3201ntf    fn421014   4.742   5.489   6.841  0.5479  0.3321  0.3358
 3201ntf    fn421015   4.699   5.339   6.706  0.4891 -0.0010  0.6859
 3202ntf    cn121016   1.662   6.913   2.987 -0.1613 -0.0372 -0.1577
 3202ntf    sn221017   1.537   7.011   2.897 -0.3670 -0.0784  0.0800
 3202ntf    nn321018   1.527   6.936   2.759  0.3260  0.0429 -0.0430
 3202ntf    sn221019   1.504   6.995   2.616 -0.3041 -0.1461 -0.0236
 3202ntf    cn121020   1.332   7.049   2.636 -0.2714 -0.0443 -0.0145
 3202ntf    fn421021   1.707   6.957   3.104 -0.2974 -0.3883  0.0282
 3202ntf    fn421022   1.625   6.790   3.017  0.1749 -0.0549  0.1911
 3202ntf    fn421023   1.773   6.908   2.916 -0.0451 -0.4336  0.0511
 3202ntf    on521024   1.422   6.987   2.980 -0.3105  0.6834  0.3869
 3202ntf    on521025   1.593   7.144   2.892  0.0016 -0.2576 -0.6921
 3202ntf    on521026   1.489   6.899   2.508 -0.2963  0.0576 -0.2068
 3202ntf    on521027   1.582   7.113   2.590 -0.9918  0.1186 -0.9451
 3202ntf    fn421028   1.292   7.125   2.535 -0.3940  0.1395  0.1717
 3202ntf    fn421029   1.252   6.943   2.634 -0.3952  0.0567 -0.5154
 3202ntf    fn421030   1.308   7.114   2.749 -0.0159  0.1269 -0.0579
 3203ntf    cn121031   4.216   1.898   4.353  0.2936 -0.0910  0.7564
 3203ntf    sn221032   4.358   1.821   4.437  0.4659 -0.1063  0.4506
 3203ntf    nn321033   4.473   1.921   4.398  0.4140  0.1015  0.8244
 3203ntf    sn221034   4.589   1.905   4.293 -0.2121  0.0048  0.1322
 3203ntf    cn121035   4.618   2.082   4.265 -0.0601 -0.1012 -0.3739
 3203ntf    fn421036   4.243   1.925   4.227 -0.5268 -0.4516  0.5006
 3203ntf    fn421037   4.109   1.821   4.350  0.0477  0.2518  0.6858
 3203ntf    fn421038   4.169   2.011   4.403 -0.0643  0.2973 -0.4398
 3203ntf    on521039   4.315   1.826   4.574 -0.2298  1.1694  0.2003
 3203ntf    on521040   4.367   1.689   4.380  0.0742  0.0806 -0.0555
 3203ntf    on521041   4.551   1.867   4.160  0.6734  0.7161 -0.3329
 3203ntf    on521042   4.718   1.862   4.341 -0.1909 -0.6646 -0.5176
 3203ntf    fn421043   4.660   2.140   4.376 -0.0747  0.0656 -0.4546
 3203ntf    fn421044   4.717   2.104   4.179  0.1310 -0.1139 -0.1551
 3203ntf    fn421045   4.510   2.146   4.224 -0.2760 -0.0418  0.2911
 3204ntf    cn121046   3.142   5.443   2.769 -0.2208  0.0145 -0.2330
 3204ntf    sn221047   3.305   5.519   2.797 -0.2653 -0.1135  0.3852
 3204ntf    nn321048   3.276   5.586   2.936 -0.8000 -0.4528  0.4398
 3204ntf    sn221049   3.282   5.741   2.957 -0.0291 -0.3851 -0.2166
 3204ntf    cn121050   3.126   5.796   2.881  0.1104  0.4942  0.1231
 3204ntf    fn421051   3.051   5.539   2.765  0.2227  0.4529  0.0260
 3204ntf    fn421052   3.136   5.360   2.666 -0.4217 -0.6411  0.3040
 3204ntf    fn421053   3.111   5.369   2.874 -0.4625  0.3946 -0.0317
 3204ntf    on521054   3.393   5.405   2.805 -0.3476 -0.2095 -0.0220
 3204ntf    on521055   3.332   5.604   2.684  0.2767 -0.4909  0.2285
 3204ntf    on521056   3.398   5.812   2.909  0.2369 -0.4400  0.3415
 3204ntf    on521057   3.255   5.764   3.097  0.3360  0.0503 -0.2167
 3204ntf    fn421058   3.098   5.921   2.915 -0.3640  0.4935 -0.2475
 3204ntf    fn421059   3.128   5.784   2.749 -0.7257  0.8142  0.0731
 3204ntf    fn421060   3.029   5.720   2.930 -0.1704  0.6167 -0.2430
 3205ntf    cn121061   1.710   3.417   0.779 -0.0695  0.0433  0.2817
 3205ntf    sn221062   1.659   3.295   0.655  0.1566  0.2817 -0.0512
 3205ntf    nn321063   1.666   3.374   0.520 -0.2334 -0.2575 -0.3909
 3205ntf    sn221064   1.561   3.458   0.438 -0.3436 -0.2494 -0.2436
 3205ntf    cn121065   1.692   3.535   0.338 -0.4693  0.0553 -0.1732
 3205ntf    fn421066   1.704   3.375   0.904  0.0821 -0.1758  0.2146
 3205ntf    fn421067   1.837   3.449   0.761  0.0200 -0.5062 -0.0856
 3205ntf    fn421068   1.644   3.532   0.770 -0.1477 -0.0089  0.1884
 3205ntf    on521069   1.752   3.185   0.658  0.0697  0.2177  0.5960
 3205ntf    on521070   1.529   3.264   0.710  0.2898 -0.0973  0.0557
 3205ntf    on521071   1.500   3.565   0.511 -0.0916 -0.1393 -0.1915
 3205ntf    on521072   1.487   3.387   0.336 -0.3141 -0.2248 -0.2821
 3205ntf    fn421073   1.783   3.593   0.415 -0.5869  0.0131 -0.0005
 3205ntf    fn421074   1.768   3.446   0.276  0.1906  0.3523  0.1989
 3205ntf    fn421075   1.650   3.612   0.239  0.3734  0.5837 -0.1361
 3206ntf    cn121076   1.391   1.285   7.137  0.1628  0.2854 -0.4380
 3206ntf    sn221077   1.427   1.447   7.212 -0.0322 -0.0615  0.4143
 3206ntf    nn321078   1.468   1.538   7.091  0.0281  0.2998  0.7061
 3206ntf    sn221079   1.411   1.678   7.049 -0.0570  0.1344  0.2692
 3206ntf    cn121080   1.293   1.631   6.918 -0.0167  0.5323  0.0899
 3206ntf    fn421081   1.274   1.295   7.075 -0.1304 -0.3281  0.0087
 3206ntf    fn421082   1.485   1.235   7.058  0.3160 -0.4618  0.2102
 3206ntf    fn421083   1.372   1.190   7.226 -0.7645  0.6970 -0.1829
 3206ntf    on521084   1.302   1.471   7.279 -0.6496  0.0562 -0.7598
 3206ntf    on521085   1.533   1.415   7.304  0.1312 -0.3968  0.1152
 3206ntf    on521086   1.508   1.761   6.982 -0.0915 -0.3069 -0.3446
 3206ntf    on521087   1.325   1.741   7.145  0.1237  0.1542  0.4181
 3206ntf    fn421088   1.210   1.730   6.888 -0.2037  0.3957  0.1526
 3206ntf    fn421089   1.352   1.594   6.806  0.3395 -0.1588  0.4985
 3206ntf    fn421090   1.222   1.527   6.956 -0.1848  0.5281 -0.2360
 3207ntf    cn121091   1.772   3.602   1.077 -0.4498  0.0762  0.3358
 3207ntf    sn221092   1.782   3.780   1.113 -0.3503  0.1191  0.0944
 3207ntf    nn321093   1.927   3.820   1.068 -0.5378  0.6110 -0.0808
 3207ntf    sn221094   1.971   3.877   0.928 -0.0449 -0.0140 -0.1859
 3207ntf    cn121095   2.108   3.761   0.896  0.2685  0.2295  0.2615
 3207ntf    fn421096   1.814   3.565   0.958 -0.4127 -0.3393  0.4751
 3207ntf    fn421097   1.829   3.526   1.169 -0.0375 -0.0469 -0.0243
 3207ntf    fn421098   1.649   3.553   1.075 -0.3911 -0.0524 -0.1356
 3207ntf    on521099   1.676   3.833   1.031 -0.0159 -0.0718 -0.4685
 3207ntf    on521100   1.763   3.775   1.256 -0.5410  0.0107  0.0662
 3207ntf    on521101   2.034   4.007   0.933 -0.0145 -0.0293 -0.1762
 3207ntf    on521102   1.883   3.845   0.819  0.1413 -0.5508 -0.1799
 3207ntf    fn421103   2.059   3.638   0.893  0.0209  0.3283  0.1954
 3207ntf    fn421104   2.155   3.789   0.776  0.0411  0.1983  0.1656
 3207ntf    fn421105   2.201   3.765   0.989 -0.2595  0.0430  0.8062
 3208ntf    cn121106   2.295   4.374   6.452  0.4504 -0.4999  0.4294
 3208ntf    sn221107   2.342   4.493   6.323 -0.1318 -0.4688  0.2468
 3208ntf    nn321108   2.199   4.495   6.258 -0.1040  0.5941  0.1866
 3208ntf    sn221109   2.168   4.478   6.105 -0.3064  0.0519  0.2845
 3208ntf    cn121110   2.110   4.305   6.108 -0.0202 -0.0497 -0.0868
 3208ntf    fn421111   2.229   4.280   6.387 -0.0888  0.4070 -0.3531
 3208ntf    fn421112   2.399   4.313   6.509  0.8504  0.0270  0.2743
 3208ntf    fn421113   2.222   4.429   6.548 -0.1963 -0.0533 -0.3078
 3208ntf    on521114   2.364   4.617   6.395  0.0463 -0.4878  0.2260
 3208ntf    on521115   2.456   4.437   6.255  0.0942 -0.0468  0.2729
 3208ntf    on521116   2.280   4.476   6.015  0.0400  0.3679  0.7031
 3208ntf    on521117   2.045   4.548   6.076 -0.1811  0.2165  0.1493
 3208ntf    fn421118   2.077   4.260   5.988 -0.2534 -0.9061  0.2980
 3208ntf    fn421119   2.207   4.222   6.143 -0.2250 -0.5161 -0.6111
 3208ntf    fn421120   2.005   4.285   6.184  0.0772 -1.4298 -0.3021
 3209ntf    cn121121   0.858   1.185   3.144  0.1713 -0.4558 -0.2615
 3209ntf    sn221122   1.003   1.078   3.118  0.4689 -0.1463  0.1047
 3209ntf    nn321123   0.969   0.983   3.238 -0.0728  0.1256  0.1712
 3209ntf    sn221124   1.061   0.902   3.337  0.0662  0.2187  0.1194
 3209ntf    cn121125   1.071   0.745   3.247 -0.6132 -0.0243  0.4542
 3209ntf    fn421126   0.837   1.257   3.035  0.5555 -0.0292 -0.0550
 3209ntf    fn421127   0.752   1.110   3.170  0.1005 -0.3840 -0.3442
 3209ntf    fn421128   0.871   1.265   3.248  0.3633 -0.6101 -0.1647
 3209ntf    on521129   0.977   1.025   2.986  0.9365  0.5797 -0.2830
 3209ntf    on521130   1.111   1.173   3.118  0.3036  0.0409  0.2929
 3209ntf    on521131   0.990   0.866   3.457 -0.4992  0.1743 -0.2245
 3209ntf    on521132   1.200   0.934   3.352  0.1164 -0.1546  0.4765
 3209ntf    fn421133   0.950   0.694   3.229 -0.2462 -0.5243 -0.7210
 3209ntf    fn421134   1.132   0.754   3.129 -0.2635  0.5620  0.6776
 3209ntf    fn421135   1.139   0.652   3.312 -0.0489 -0.2286 -0.4031
 3210ntf    cn121136   3.474   5.323   3.699  0.4892  0.2814  0.0712
 3210ntf    sn221137   3.457   5.504   3.687 -0.2537  0.2215  0.1638
 3210ntf    nn321138   3.512   5.556   3.824 -0.2629  0.2838  0.1438
 3210ntf    sn221139   3.563   5.699   3.863 -0.0893  0.1637  0.3596
 3210ntf    cn121140   3.405   5.741   3.944 -0.4660  0.3091 -0.4446
 3210ntf    fn421141   3.400   5.267   3.793  0.9763  0.2360  0.4322
 3210ntf    fn421142   3.457   5.262   3.583 -0.6159  0.6168  0.0452
 3210ntf    fn421143   3.596   5.289   3.736  0.0319 -0.8001  0.6230
 3210ntf    on521144   3.540   5.530   3.572  0.9165 -0.6043  0.8040
 3210ntf    on521145   3.314   5.522   3.676 -0.2272  0.1357 -0.3383
 3210ntf    on521146   3.584   5.801   3.763  0.5211  0.2713  0.5915
 3210ntf    on521147   3.660   5.699   3.970  0.2055 -0.2669  0.0937
 3210ntf    fn421148   3.341   5.632   3.982 -0.0058  0.2778  0.2687
 3210ntf    fn421149   3.423   5.807   4.057  0.1968 -0.1471 -0.2738
 3210ntf    fn421150   3.323   5.805   3.863 -0.6862  0.2249 -0.2867
 3211ntf    cn121151   6.318   0.359   2.740  0.0986  0.3441  0.3926
 3211ntf    sn221152   6.331   0.329   2.919  0.3666  0.0027  0.3175
 3211ntf    nn321153   6.244   0.442   2.985 -0.1909 -0.4954  0.4323
 3211ntf    sn221154   6.088   0.456   3.000 -0.2136 -0.2720  0.0207
 3211ntf    cn121155   6.055   0.374   3.160 -0.4975 -0.0178  0.0924
 3211ntf    fn421156   6.406   0.286   2.674  0.2586  0.9385 -0.0507
 3211ntf    fn421157   6.195   0.337   2.697  0.5719  0.4156 -1.0346
 3211ntf    fn421158   6.354   0.482   2.706 -0.1980  0.5193  0.7031
 3211ntf    on521159   6.274   0.198   2.933  0.4098 -0.1240 -0.6477
 3211ntf    on521160   6.471   0.347   2.949  0.4532 -0.4203  0.1611
 3211ntf    on521161   6.012   0.388   2.898 -0.2886  0.2096 -0.2436
 3211ntf    on521162   6.044   0.590   3.028  0.1270 -0.1604  0.0261
 3211ntf    fn421163   6.085   0.458   3.258  0.1984  0.3718 -0.4411
 3211ntf    fn421164   5.932   0.334   3.187 -0.4797 -0.2857 -0.2139
 3211ntf    fn421165   6.132   0.268   3.171 -0.2166  0.1371 -0.3211
 3212ntf    cn121166   2.847   6.192   1.611 -0.4429 -0.2062  0.2253
 3212ntf    sn221167   2.738   6.097   1.502  0.0862 -0.0889 -0.4102
 3212ntf    nn321168   2.822   5.968   1.469  0.8817  0.1952  0.4852
 3212ntf    sn221169   2.801   5.820   1.515  0.1994  0.1203 -0.0525
 3212ntf    cn121170   2.722   5.761   1.363  0.0007 -0.1042  0.1365
 3212ntf    fn421171   2.951   6.242   1.547 -0.5536  0.3692  0.4856
 3212ntf    fn421172   2.780   6.296   1.659 -0.2784 -0.0926  0.2097
 3212ntf    fn421173   2.890   6.127   1.718  0.0889  0.2061  0.2671
 3212ntf    on521174   2.622   6.074   1.584  0.4223 -0.2618  0.0190
 3212ntf    on521175   2.704   6.184   1.392 -0.3078 -0.0667 -0.2731
 3212ntf    on521176   2.713   5.782   1.623  0.3601 -0.2872 -0.0656
 3212ntf    on521177   2.923   5.744   1.509 -0.1696 -0.5314  0.4594
 3212ntf    fn421178   2.719   5.628   1.357 -0.3730 -0.0675 -0.7663
 3212ntf    fn421179   2.598   5.804   1.345  0.1624  0.2071 -0.2496
 3212ntf    fn421180   2.793   5.793   1.256 -0.3064  0.1894  0.0198
 3213ntf    cn121181   3.747   2.229   3.760 -0.0010 -0.2420  0.1468
 3213ntf    sn221182   3.835   2.335   3.642 -0.1165  0.0429  0.3181
 3213ntf    nn321183   3.756   2.310   3.508 -0.2386 -0.6378  0.5156
 3213ntf    sn221184   3.800   2.221   3.386 -0.3546  0.1200 -0.0882
 3213ntf    cn121185   3.642   2.135   3.356  0.0016 -0.6634  0.2542
 3213ntf    fn421186   3.821   2.200   3.866 -0.1502 -0.8229  0.0973
 3213ntf    fn421187   3.646   2.302   3.804  0.2569  0.1230  0.1324
 3213ntf    fn421188   3.700   2.114   3.713 -0.1308 -0.3605  0.5616
 3213ntf    on521189   3.802   2.468   3.689  0.0527  0.2212 -0.0578
 3213ntf    on521190   3.974   2.301   3.654 -0.0404  0.3058  0.2113
 3213ntf    on521191   3.884   2.110   3.425 -0.6635 -0.1490 -0.1804
 3213ntf    on521192   3.828   2.295   3.266 -0.5430 -0.1953 -0.3292
 3213ntf    fn421193   3.667   2.039   3.268  0.3625 -0.1681 -0.1941
 3213ntf    fn421194   3.593   2.073   3.462 -0.4660  0.1790  0.5373
 3213ntf    fn421195   3.549   2.217   3.311  0.0803 -0.4586  0.4637
 3214ntf    cn121196   4.246   6.292   2.069  0.3368  0.1981  0.5370
 3214ntf    sn221197   4.360   6.295   1.928  0.3230  0.3295  0.5279
 3214ntf    nn321198   4.347   6.151   1.866 -0.0116  0.8145 -0.5514
 3214ntf    sn221199   4.328   6.105   1.717 -0.0749  0.3935 -0.4137
 3214ntf    cn121200   4.259   5.939   1.748  0.2779  0.4152  0.5268
 3214ntf    fn421201   4.272   6.196   2.156  0.1419  0.1465  0.5393
 3214ntf    fn421202   4.243   6.410   2.129 -0.0683  0.2014  0.5092
 3214ntf    fn421203   4.127   6.258   2.023  0.6772 -0.1508 -0.1003
 3214ntf    on521204   4.315   6.407   1.849  1.0394  0.0148 -0.3519
 3214ntf    on521205   4.488   6.313   1.992  0.8756 -0.5504 -0.2960
 3214ntf    on521206   4.460   6.081   1.664  0.2375  0.9146  0.1110
 3214ntf    on521207   4.238   6.184   1.638 -0.5937 -0.0044 -0.2230
 3214ntf    fn421208   4.235   5.883   1.631 -0.6173 -0.3027  1.0415
 3214ntf    fn421209   4.335   5.857   1.819 -0.0562 -0.2613  0.1070
 3214ntf    fn421210   4.144   5.944   1.814  0.1257  0.1035  0.2864
 3215ntf    cn121211   1.172   5.672   0.355  0.1236  0.4479 -0.3627
 3215ntf    sn221212   1.027   5.767   0.300 -0.1494  0.0170 -0.3921
 3215ntf    nn321213   1.052   5.757   0.145 -0.1585  0.3081 -0.4135
 3215ntf    sn221214   1.146   5.858   0.070  0.0906  0.0028 -0.5163
 3215ntf    cn121215   1.027   5.976   0.001 -0.3920 -0.1346  0.0736
 3215ntf    fn421216   1.175   5.555   0.292 -0.5050  0.1991  0.0661
 3215ntf    fn421217   1.280   5.745   0.333  0.2868  0.2759 -0.1322
 3215ntf    fn421218   1.165   5.639   0.483  0.4777  0.3178 -0.3752
 3215ntf    on521219   0.905   5.700   0.336  0.1902 -0.1893  0.4048
 3215ntf    on521220   1.049   5.895   0.362  0.1713 -0.2380  0.0250
 3215ntf    on521221   1.199   5.793  -0.048 -0.0734  0.1208 -0.6548
 3215ntf    on521222   1.236   5.938   0.149 -0.2546 -0.1081 -0.0074
 3215ntf    fn421223   0.959   6.036   0.097 -0.6451 -0.5713  0.1709
 3215ntf    fn421224   1.087   6.064  -0.078  0.0962 -0.6367 -0.1201
 3215ntf    fn421225   0.933   5.914  -0.069 -0.5534 -0.4203  0.5373
 3216ntf    cn121226   4.578   1.102   0.532 -0.1445  0.1413  0.3569
 3216ntf    sn221227   4.571   1.280   0.571  0.1288  0.1302  0.4565
 3216ntf    nn321228   4.549   1.269   0.726 -0.4139 -0.0103  0.3707
 3216ntf    sn221229   4.543   1.383   0.834  0.0352 -0.1074  0.4993
 3216ntf    cn121230   4.367   1.427   0.829  0.0487 -0.0840  0.2368
 3216ntf    fn421231   4.671   1.035   0.597  0.1478  0.1073 -0.0886
 3216ntf    fn421232   4.464   1.043   0.565 -0.2170  0.2031  0.2193
 3216ntf    fn421233   4.601   1.079   0.403 -0.5141 -0.1862  0.3490
 3216ntf    on521234   4.699   1.338   0.540  0.0212  0.0917 -0.0702
 3216ntf    on521235   4.464   1.335   0.492  0.1721 -0.0246  0.2898
 3216ntf    on521236   4.610   1.505   0.796 -0.1900 -0.2432 -0.3463
 3216ntf    on521237   4.567   1.332   0.967  0.6507 -0.3475  0.3009
 3216ntf    fn421238   4.345   1.514   0.927  0.5019  0.1577  0.1284
 3216ntf    fn421239   4.347   1.497   0.718  0.4265 -0.3803 -0.0212
 3216ntf    fn421240   4.289   1.322   0.845  0.0506 -0.0518  0.4537
 3217ntf    cn121241   6.952   6.353   0.974  0.4232  0.3177  0.0288
 3217ntf    sn221242   6.847   6.492   0.922  0.2141  0.1918  0.1104
 3217ntf    nn321243   6.705   6.427   0.935  0.2637 -0.0287 -0.4189
 3217ntf    sn221244   6.595   6.420   0.823  0.0312 -0.1967 -0.1807
 3217ntf    cn121245   6.670   6.321   0.691  0.1544 -0.2143 -0.0968
 3217ntf    fn421246   6.943   6.334   1.105  0.7496 -0.2763 -0.0331
 3217ntf    fn421247   6.926   6.245   0.902 -0.2400  0.0919  0.5978
 3217ntf    fn421248   7.079   6.381   0.950  0.4031  0.4291  0.0560
 3217ntf    on521249   6.874   6.594   1.020 -0.0681  0.5914 -0.2277
 3217ntf    on521250   6.886   6.525   0.787  0.3145 -1.0171 -0.1739
 3217ntf    on521251   6.551   6.539   0.754 -0.4214 -0.5376 -0.4867
 3217ntf    on521252   6.489   6.329   0.859  0.3159 -0.6142 -0.3946
 3217ntf    fn421253   6.588   6.245   0.621 -0.3352  0.2645 -0.0438
 3217ntf    fn421254   6.743   6.385   0.601  0.1305  0.3456  0.2788
 3217ntf    fn421255   6.748   6.228   0.746 -0.2021 -0.2902  0.2883
 3218ntf    cn121256   5.478   2.828   3.949 -0.3918  0.4720 -0.2314
 3218ntf    sn221257   5.550   2.786   3.788  0.2060 -0.1032  0.1811
 3218ntf    nn321258   5.463   2.657   3.766 -0.0987  0.0395  0.5469
 3218ntf    sn221259   5.500   2.506   3.792  0.3336  0.1029  0.3117
 3218ntf    cn121260   5.603   2.468   3.647 -0.1003  0.0082  0.0264
 3218ntf    fn421261   5.555   2.919   4.007  0.4474 -0.5640  0.3229
 3218ntf    fn421262   5.351   2.864   3.944 -0.4472  0.3425  0.1534
 3218ntf    fn421263   5.485   2.719   4.025  0.0095  0.3469 -0.4492
 3218ntf    on521264   5.525   2.902   3.706 -0.1308 -0.3423 -0.0534
 3218ntf    on521265   5.691   2.762   3.808  0.2178 -0.2637 -0.0925
 3218ntf    on521266   5.386   2.418   3.789  0.2776  0.1709  0.4250
 3218ntf    on521267   5.590   2.477   3.900  0.4977  0.5658  0.3031
 3218ntf    fn421268   5.707   2.550   3.638 -0.1108  0.0070 -0.1151
 3218ntf    fn421269   5.647   2.344   3.658 -0.0040  0.0901  0.5821
 3218ntf    fn421270   5.535   2.476   3.533  0.4690 -0.2360 -0.3380
 3219ntf    cn121271   4.038   1.668   5.237  0.4122  0.0242 -0.5081
 3219ntf    sn221272   3.918   1.607   5.359  0.6655  0.0484 -0.2433
 3219ntf    nn321273   3.823   1.517   5.271  0.4744  0.0466 -0.0353
 3219ntf    sn221274   3.671   1.529   5.236  0.3737 -0.0421  0.3616
 3219ntf    cn121275   3.643   1.351   5.258  0.2197 -0.0064  0.4589
 3219ntf    fn421276   3.999   1.774   5.169 -0.1305 -0.2766 -0.6638
 3219ntf    fn421277   4.159   1.697   5.285  0.3064 -0.3918  0.0267
 3219ntf    fn421278   4.060   1.571   5.150  0.0405 -0.1698 -0.3854
 3219ntf    on521279   3.999   1.518   5.439  0.0040 -0.4662 -0.1361
 3219ntf    on521280   3.864   1.731   5.409  0.1365 -0.1013 -0.4350
 3219ntf    on521281   3.649   1.555   5.095 -0.2858 -0.5224  0.3703
 3219ntf    on521282   3.582   1.584   5.335  0.0910  0.0740  0.0463
 3219ntf    fn421283   3.688   1.316   5.378  0.9699  0.7462  0.4015
 3219ntf    fn421284   3.516   1.316   5.268  0.1288  0.2644  0.2375
 3219ntf    fn421285   3.706   1.267   5.177 -0.1507 -0.2481  0.4216
 3220ntf    cn121286   1.890   5.460   3.008  0.1621  0.0951  0.0291
 3220ntf    sn221287   1.836   5.453   2.834  0.2444  0.0302  0.0062
 3220ntf    nn321288   1.750   5.582   2.817 -0.2785 -0.3120  0.0376
 3220ntf    sn221289   1.803   5.715   2.752 -0.1498 -0.4017 -0.0416
 3220ntf    cn121290   1.783   5.676   2.576  0.0850 -0.2326 -0.1051
 3220ntf    fn421291   1.987   5.548   3.027  0.4568 -0.2033 -0.0844
 3220ntf    fn421292   1.789   5.502   3.081  0.5776  0.2688  0.5097
 3220ntf    fn421293   1.930   5.346   3.062 -0.0426  0.4610  0.9547
 3220ntf    on521294   1.968   5.458   2.774  0.2730 -0.6090  0.0106
 3220ntf    on521295   1.754   5.337   2.814  0.1418  0.1568 -0.3028
 3220ntf    on521296   1.939   5.755   2.778 -0.4676  0.6340  0.1026
 3220ntf    on521297   1.706   5.822   2.764  0.1203 -0.2408  0.7826
 3220ntf    fn421298   1.656   5.644   2.558 -0.0638  0.2438  0.0660
 3220ntf    fn421299   1.806   5.774   2.490 -0.2233  0.0075  0.0842
 3220ntf    fn421300   1.850   5.571   2.531 -0.2387 -0.5289  0.0993
 3221ntf    cn121301   5.578   0.635   4.872 -0.1306 -0.0617 -0.2446
 3221ntf    sn221302   5.571   0.538   4.718 -0.0389 -0.1577 -0.1891
 3221ntf    nn321303   5.416   0.525   4.697 -0.0265 -0.7767  0.0930
 3221ntf    sn221304   5.335   0.482   4.569 -0.3258  0.1008 -0.0143
 3221ntf    cn121305   5.387   0.612   4.453  0.0046 -0.0687 -0.0559
 3221ntf    fn421306   5.518   0.751   4.856  0.0814  0.0852  0.0135
 3221ntf    fn421307   5.523   0.584   4.981 -0.5270  0.4745 -0.1912
 3221ntf    fn421308   5.704   0.671   4.889 -0.2213  0.3560 -0.4648
 3221ntf    on521309   5.640   0.614   4.617  0.2492 -0.3080 -0.1075
 3221ntf    on521310   5.639   0.416   4.751  0.0807 -0.0739 -0.1217
 3221ntf    on521311   5.192   0.499   4.584 -0.4212 -0.2509 -0.5216
 3221ntf    on521312   5.382   0.363   4.504  0.6145 -0.0332  0.8863
 3221ntf    fn421313   5.297   0.628   4.357  0.0461  0.1267 -0.0606
 3221ntf    fn421314   5.402   0.729   4.512 -0.7032 -0.1026  0.2028
 3221ntf    fn421315   5.499   0.571   4.395  0.1859 -0.7976  0.8032
 3222ntf    cn121316   0.594   1.829   4.926 -0.1538 -0.4310 -0.0931
 3222ntf    sn221317   0.578   1.675   5.021  0.1363 -0.2679  0.2241
 3222ntf    nn321318   0.675   1.572   4.953  0.3449  0.0828 -0.0115
 3222ntf    sn221319   0.632   1.443   4.875  0.4282 -0.0308  0.1310
 3222ntf    cn121320   0.787   1.352   4.846  0.7647  0.5010  0.2404
 3222ntf    fn421321   0.717   1.842   4.879 -0.1866  0.1717 -0.0219
 3222ntf    fn421322   0.520   1.834   4.817 -0.8513 -0.0391  0.3879
 3222ntf    fn421323   0.562   1.933   5.001  0.5598  0.0113 -0.3941
 3222ntf    on521324   0.625   1.714   5.151  0.0403  0.4926  0.0344
 3222ntf    on521325   0.438   1.639   5.012  0.0637  0.1327 -0.3135
 3222ntf    on521326   0.581   1.461   4.741  0.2204 -0.0497  0.2081
 3222ntf    on521327   0.557   1.345   4.949  0.1072 -0.1274 -0.3205
 3222ntf    fn421328   0.835   1.310   4.962  0.4855 -0.0193  0.1708
 3222ntf    fn421329   0.776   1.242   4.773  0.8702 -0.0295  1.0144
 3222ntf    fn421330   0.884   1.421   4.789  0.4096  0.4189 -0.4715
 3223ntf    cn121331   4.260   3.869   2.957 -0.0326 -0.8577 -0.2968
 3223ntf    sn221332   4.086   3.910   2.928  0.1716  0.2786  0.0218
 3223ntf    nn321333   4.054   3.956   3.075  0.3234  0.0134  0.1404
 3223ntf    sn221334   3.950   4.061   3.129  0.1098  0.0554 -0.3380
 3223ntf    cn121335   3.855   3.936   3.221  0.3776  0.0897 -0.0134
 3223ntf    fn421336   4.335   3.947   3.034 -0.3263 -0.5848 -0.2898
 3223ntf    fn421337   4.258   3.754   3.022 -0.2727 -0.5768  0.1980
 3223ntf    fn421338   4.338   3.861   2.850  0.5298 -0.3236  0.0651
 3223ntf    on521339   4.084   4.016   2.830 -0.0929  0.1698 -0.0931
 3223ntf    on521340   4.036   3.780   2.889 -0.5479  0.6278 -0.2353
 3223ntf    on521341   3.863   4.123   3.033 -0.0038  0.5668  0.0891
 3223ntf    on521342   4.013   4.142   3.231  0.1495 -0.3370 -0.0513
 3223ntf    fn421343   3.899   3.901   3.341 -0.0046 -0.1232  0.0638
 3223ntf    fn421344   3.732   3.979   3.244  0.3237  0.2005 -0.4921
 3223ntf    fn421345   3.844   3.821   3.157  0.0442  0.3624 -0.4494
 3224ntf    cn121346   2.500   5.073   1.551 -0.0013  0.1243 -0.3104
 3224ntf    sn221347   2.554   5.064   1.724  0.1777 -0.1605 -0.3797
 3224ntf    nn321348   2.636   4.930   1.735 -0.0038 -0.2711 -0.3799
 3224ntf    sn221349   2.580   4.792   1.785 -0.0513  0.0014  0.3389
 3224ntf    cn121350   2.725   4.684   1.760 -0.0064  0.1096  0.1266
 3224ntf    fn421351   2.407   5.166   1.536 -0.3511 -0.1225  0.2923
 3224ntf    fn421352   2.593   5.102   1.461  0.3584  0.3864  0.1449
 3224ntf    fn421353   2.448   4.960   1.505 -0.3459  0.3034 -0.3615
 3224ntf    on521354   2.648   5.174   1.723  0.4204 -0.3644 -0.3132
 3224ntf    on521355   2.438   5.082   1.807 -0.1042 -0.1485 -0.7773
 3224ntf    on521356   2.478   4.724   1.710 -0.0739 -0.3006  0.6431
 3224ntf    on521357   2.573   4.789   1.929  0.0395  0.0079  0.3438
 3224ntf    fn421358   2.835   4.722   1.821 -0.1646  0.5741  0.1248
 3224ntf    fn421359   2.701   4.562   1.805  0.8896 -0.0328  0.2281
 3224ntf    fn421360   2.745   4.674   1.629  0.0396  0.3833  0.1125
 3225ntf    cn121361   4.589   5.116   3.373  0.0414 -0.3725  0.2394
 3225ntf    sn221362   4.654   5.091   3.205 -0.3175 -0.4098  0.1064
 3225ntf    nn321363   4.548   4.982   3.165 -0.8544  0.2046 -0.1429
 3225ntf    sn221364   4.577   4.841   3.104 -0.0315  0.1299  0.4174
 3225ntf    cn121365   4.609   4.738   3.250  0.7215  0.0966  0.2375
 3225ntf    fn421366   4.658   5.205   3.443 -0.5339  0.1138  0.1862
 3225ntf    fn421367   4.462   5.150   3.372  0.1440  0.0253  0.3569
 3225ntf    fn421368   4.610   5.007   3.446 -0.3574 -0.6469 -0.0539
 3225ntf    on521369   4.635   5.214   3.133  0.1462 -0.5764 -0.3031
 3225ntf    on521370   4.789   5.049   3.233 -0.0284  0.2980 -0.2273
 3225ntf    on521371   4.702   4.828   3.032 -0.2906  0.1969 -0.0498
 3225ntf    on521372   4.457   4.786   3.046  0.5036 -0.6859  0.0476
 3225ntf    fn421373   4.517   4.750   3.345 -0.1735 -0.1168 -0.5869
 3225ntf    fn421374   4.614   4.612   3.208  0.3882  0.2111 -0.1520
 3225ntf    fn421375   4.723   4.744   3.317  0.5894  0.7862  0.3986
 3226ntf    cn121376   3.313   4.196   3.780 -0.1143  0.2185  0.3661
 3226ntf    sn221377   3.421   4.057   3.824 -0.0208  0.1488 -0.0863
 3226ntf    nn321378   3.559   4.130   3.840  0.0638 -0.0908  0.2932
 3226ntf    sn221379   3.666   4.172   3.734 -0.0324  0.0347  0.2454
 3226ntf    cn121380   3.814   4.179   3.839  0.4196 -0.1223 -0.3713
 3226ntf    fn421381   3.191   4.158   3.747  0.1251 -0.2080 -0.0401
 3226ntf    fn421382   3.291   4.289   3.872 -0.4453  0.0840  0.4261
 3226ntf    fn421383   3.362   4.260   3.675 -0.1158  0.0041  0.2341
 3226ntf    on521384   3.364   4.012   3.948  0.8995 -0.0509  0.2706
 3226ntf    on521385   3.398   3.976   3.706  0.3461 -0.1197  0.0224
 3226ntf    on521386   3.649   4.309   3.693  0.2452  0.1092  0.3726
 3226ntf    on521387   3.703   4.070   3.638  0.0413  0.3460 -0.0617
 3226ntf    fn421388   3.844   4.061   3.890  0.1011  0.0413  0.2068
 3226ntf    fn421389   3.924   4.214   3.775  0.0596  0.5112 -0.6545
 3226ntf    fn421390   3.808   4.267   3.938 -0.2390 -0.4559 -0.1101
 3227ntf    cn121391   2.700   6.733   0.296  0.2728  0.0210  0.4879
 3227ntf    sn221392   2.612   6.840   0.413 -0.4871  0.0098 -0.0695
 3227ntf    nn321393   2.593   6.968   0.323  0.6208  0.0499 -0.2613
 3227ntf    sn221394   2.480   7.001   0.218  0.1872 -0.0011  0.1836
 3227ntf    cn121395   2.367   7.091   0.328  0.0638  0.0437  0.0197
 3227ntf    fn421396   2.825   6.769   0.271 -0.0968  0.8958 -0.1467
 3227ntf    fn421397   2.699   6.608   0.340 -0.0025 -0.1313  0.0613
 3227ntf    fn421398   2.648   6.721   0.175  0.0126 -0.0432  0.6052
 3227ntf    on521399   2.493   6.767   0.449 -0.1933 -0.2706  0.3434
 3227ntf    on521400   2.715   6.866   0.510 -0.2358  0.2506 -0.3946
 3227ntf    on521401   2.394   6.894   0.176 -0.0085  0.3776 -0.3804
 3227ntf    on521402   2.519   7.107   0.129 -0.3000 -0.2589 -0.3409
 3227ntf    fn421403   2.319   7.004   0.415 -0.5032  0.3882  0.0573
 3227ntf    fn421404   2.425   7.190   0.393  0.4442 -0.4529  0.4389
 3227ntf    fn421405   2.263   7.148   0.269 -0.4733  0.2056  1.0940
 3228ntf    cn121406   1.868   2.209   1.166 -0.4122  0.2742 -0.2573
 3228ntf    sn221407   1.952   2.368   1.140 -0.1699  0.2005  0.0673
 3228ntf    nn321408   1.834   2.458   1.088 -0.4341 -0.1003  0.1429
 3228ntf    sn221409   1.784   2.499   0.945 -0.0155  0.2890  0.1047
 3228ntf    cn121410   1.871   2.659   0.936  0.3997  0.0525 -0.1086
 3228ntf    fn421411   1.812   2.191   1.284  0.0666  0.1981 -0.0411
 3228ntf    fn421412   1.783   2.194   1.066 -0.4911 -0.0115 -0.1479
 3228ntf    fn421413   1.950   2.106   1.154  0.1024  0.5756  0.5996
 3228ntf    on521414   2.000   2.411   1.269 -0.3168 -0.2640  0.2787
 3228ntf    on521415   2.051   2.333   1.041 -0.0416 -0.2169  0.3424
 3228ntf    on521416   1.645   2.537   0.955 -0.1307 -0.1187  0.0749
 3228ntf    on521417   1.820   2.426   0.826 -0.7051 -0.1039  0.1290
 3228ntf    fn421418   2.000   2.646   0.960  0.2725 -0.1804  0.4796
 3228ntf    fn421419   1.848   2.728   0.826 -0.5008  0.2181  0.1709
 3228ntf    fn421420   1.833   2.740   1.034 -0.6741 -0.3416 -0.1908
 3229ntf    cn121421   1.569   0.039   6.016 -0.0008  0.5217  0.2532
 3229ntf    sn221422   1.405   0.073   5.944  0.1308  0.3339 -0.1402
 3229ntf    nn321423   1.412  -0.013   5.813  0.0957  0.2655 -0.0972
 3229ntf    sn221424   1.325   0.006   5.684 -0.1241  0.0414  0.0165
 3229ntf    cn121425   1.219  -0.142   5.688  0.1579 -0.1577  0.1785
 3229ntf    fn421426   1.586  -0.092   6.022 -0.4017  0.4323 -0.4250
 3229ntf    fn421427   1.677   0.079   5.951 -0.1683 -0.2659 -0.5434
 3229ntf    fn421428   1.571   0.089   6.138  0.2030  0.0055  0.4625
 3229ntf    on521429   1.309   0.011   6.031  0.5310 -0.0497  0.0291
 3229ntf    on521430   1.411   0.217   5.927 -0.0729  0.3857  0.2151
 3229ntf    on521431   1.407  -0.015   5.567  0.1184  0.3095  0.1367
 3229ntf    on521432   1.230   0.114   5.678  0.0020  0.1127 -0.7801
 3229ntf    fn421433   1.289  -0.251   5.716  0.1297 -0.1462  0.2937
 3229ntf    fn421434   1.124  -0.138   5.779 -0.0050  0.1577 -0.0039
 3229ntf    fn421435   1.158  -0.158   5.571 -0.2835  0.3685  0.3336
 3230ntf    cn121436   1.103   0.481   0.818  0.0479  0.7145  0.2658
 3230ntf    sn221437   0.931   0.442   0.862  0.1386  0.1449  0.1245
 3230ntf    nn321438   0.851   0.563   0.802  0.0634  0.1642  0.2620
 3230ntf    sn221439   0.759   0.561   0.675  0.0997 -0.1325  0.2397
 3230ntf    cn121440   0.679   0.723   0.690 -0.1042 -0.2092 -0.0144
 3230ntf    fn421441   1.112   0.613   0.814 -0.2522  0.7489  0.6248
 3230ntf    fn421442   1.184   0.448   0.918  0.0958  0.1480  0.0430
 3230ntf    fn421443   1.149   0.435   0.703  0.0258  0.1407  0.4824
 3230ntf    on521444   0.916   0.316   0.794  0.7469  0.4111 -0.5129
 3230ntf    on521445   0.931   0.447   1.006  0.1671  0.3989  0.1159
 3230ntf    on521446   0.657   0.462   0.696 -0.5153  0.3271 -0.5054
 3230ntf    on521447   0.831   0.567   0.550 -0.4075 -0.4122 -0.0711
 3230ntf    fn421448   0.572   0.721   0.611 -0.1976 -0.6471  0.1241
 3230ntf    fn421449   0.637   0.736   0.815 -0.0450  0.4189 -0.0562
 3230ntf    fn421450   0.756   0.825   0.655 -0.4727  0.2444  0.4670
 3231ntf    cn121451   1.570   3.212   6.600  0.5462  0.5169 -0.3847
 3231ntf    sn221452   1.432   3.327   6.568 -0.0405 -0.1398 -0.2402
 3231ntf    nn321453   1.423   3.334   6.411 -0.3376  0.7670 -0.1831
 3231ntf    sn221454   1.348   3.236   6.314  0.2929 -0.0715  0.1658
 3231ntf    cn121455   1.479   3.235   6.188  0.3061 -0.0650  0.1787
 3231ntf    fn421456   1.688   3.270   6.593  0.6857  0.2265 -0.4615
 3231ntf    fn421457   1.579   3.159   6.721  0.5328 -0.0393 -0.6235
 3231ntf    fn421458   1.566   3.106   6.521 -0.0813  0.1119  0.1792
 3231ntf    on521459   1.327   3.275   6.652  0.3160  0.0606  0.3338
 3231ntf    on521460   1.486   3.456   6.605  0.1864 -0.3403  0.1422
 3231ntf    on521461   1.232   3.287   6.246 -0.1524 -1.0767  0.1581
 3231ntf    on521462   1.346   3.100   6.363  0.1512 -0.0727  0.1579
 3231ntf    fn421463   1.457   3.316   6.085  0.1298  0.0338  0.2929
 3231ntf    fn421464   1.596   3.255   6.246  0.2292 -0.0582  0.3333
 3231ntf    fn421465   1.485   3.110   6.144  0.6516 -0.0700  0.2426
 3232ntf    cn121466   0.809   5.686   6.044  0.4059 -0.2254  0.2328
 3232ntf    sn221467   0.650   5.643   6.119  0.1953 -0.5409 -0.3876
 3232ntf    nn321468   0.592   5.560   5.999  0.2935 -0.2587 -0.6306
 3232ntf    sn221469   0.598   5.405   5.976 -0.1194 -0.4010  0.1928
 3232ntf    cn121470   0.484   5.326   6.094 -0.1267  0.0961  0.5174
 3232ntf    fn421471   0.800   5.764   5.937  0.1625  0.0362  0.4445
 3232ntf    fn421472   0.892   5.755   6.120 -0.1316  0.4565  0.1996
 3232ntf    fn421473   0.878   5.580   6.004  0.5264 -0.1414  0.2167
 3232ntf    on521474   0.688   5.577   6.242 -0.0410 -0.3703 -0.2204
 3232ntf    on521475   0.582   5.768   6.141 -0.0753 -0.7773  0.1637
 3232ntf    on521476   0.727   5.346   5.999  0.0838  0.0979  0.3306
 3232ntf    on521477   0.533   5.356   5.856  0.1019 -0.2528  0.0126
 3232ntf    fn421478   0.364   5.383   6.100  0.1515  0.7800 -0.2411
 3232ntf    fn421479   0.471   5.197   6.068 -0.0361  0.0958  0.4788
 3232ntf    fn421480   0.528   5.329   6.219  0.6043  0.3668  0.2562
 3233ntf    cn121481   0.953   0.499   1.683 -0.3527 -0.0824  0.2936
 3233ntf    sn221482   0.997   0.581   1.840  0.1866  0.3295 -0.0681
 3233ntf    nn321483   0.857   0.640   1.880  0.0630  0.6509 -0.9556
 3233ntf    sn221484   0.828   0.775   1.955 -0.1730  0.0289  0.0927
 3233ntf    cn121485   0.736   0.856   1.821 -0.1201 -0.1115 -0.0287
 3233ntf    fn421486   0.955   0.589   1.586 -0.2467 -0.1789  0.2057
 3233ntf    fn421487   1.041   0.409   1.645 -0.3391  0.2305 -0.4215
 3233ntf    fn421488   0.830   0.450   1.680 -0.1956 -0.4833  0.2747
 3233ntf    on521489   1.041   0.475   1.928  0.2558 -0.1127 -0.6236
 3233ntf    on521490   1.095   0.677   1.796  0.0754  0.2784 -0.4340
 3233ntf    on521491   0.932   0.874   1.972 -0.4128  0.2269  0.4103
 3233ntf    on521492   0.730   0.757   2.059  0.0915  0.3039  0.3891
 3233ntf    fn421493   0.639   0.777   1.776 -0.2258 -0.0810  0.1440
 3233ntf    fn421494   0.678   0.969   1.858 -0.5786 -0.4832  0.4063
 3233ntf    fn421495   0.802   0.879   1.709  0.3507 -0.5813  0.1498
 3234ntf    cn121496   0.956   2.807   5.804 -0.0778 -0.1941  0.1471
 3234ntf    sn221497   1.019   2.975   5.781  0.0330 -0.2279  0.2033
 3234ntf    nn321498   1.170   2.942   5.754  0.1842  0.1616  0.5553
 3234ntf    sn221499   1.254   2.992   5.631 -0.1743 -0.0674  0.2151
 3234ntf    cn121500   1.419   2.977   5.705 -0.3128 -0.2079  0.4958
 3234ntf    fn421501   0.826   2.818   5.827 -0.2187 -0.3561 -0.5466
 3234ntf    fn421502   0.974   2.729   5.699  0.3640  0.3224 -0.1619
 3234ntf    fn421503   1.016   2.742   5.903 -0.2627 -0.3549  0.1552
 3234ntf    on521504   0.932   3.023   5.676  0.6525  0.9180  0.1888
 3234ntf    on521505   1.004   3.022   5.917  0.2526  0.2277  0.0735
 3234ntf    on521506   1.234   3.133   5.610 -0.9188 -0.1584  0.2713
 3234ntf    on521507   1.265   2.900   5.521  0.3623  0.4725 -0.1841
 3234ntf    fn421508   1.437   3.045   5.817 -0.1156  0.3735  0.1119
 3234ntf    fn421509   1.457   2.853   5.732 -0.1112 -0.1494  0.4832
 3234ntf    fn421510   1.507   3.029   5.621 -0.6878  0.3531  0.4464
 3235ntf    cn121511   4.629   1.576   1.320  0.2368  0.3103  0.0273
 3235ntf    sn221512   4.588   1.543   1.494  0.2530 -0.1387 -0.0521
 3235ntf    nn321513   4.500   1.672   1.512 -0.1635 -0.5581  0.9671
 3235ntf    sn221514   4.344   1.688   1.521 -0.1375  0.1073  0.3097
 3235ntf    cn121515   4.336   1.658   1.700 -0.0830 -0.0464  0.2870
 3235ntf    fn421516   4.726   1.664   1.302  0.4192  0.0449 -0.3094
 3235ntf    fn421517   4.666   1.465   1.257 -0.1952  0.5313 -0.6272
 3235ntf    fn421518   4.522   1.608   1.250  0.2515  0.3738  0.0346
 3235ntf    on521519   4.515   1.419   1.495  0.6846 -0.3964 -0.0686
 3235ntf    on521520   4.718   1.556   1.555  0.2626 -0.0456 -0.0918
 3235ntf    on521521   4.268   1.587   1.450  0.2194 -0.7489  1.1281
 3235ntf    on521522   4.304   1.825   1.502  0.9027  0.4092  0.2740
 3235ntf    fn421523   4.405   1.552   1.738  0.1973  0.0112 -0.0523
 3235ntf    fn421524   4.375   1.762   1.773  0.4147 -0.0722  0.0595
 3235ntf    fn421525   4.211   1.635   1.739 -0.0709 -0.1895  0.2422
 3236ntf    cn121526   3.400   4.012   6.171 -0.2325 -0.3172 -0.0916
 3236ntf    sn221527   3.339   4.063   6.007 -0.2166 -0.1560 -0.0478
 3236ntf    nn321528   3.417   3.980   5.900 -0.1050 -0.3000  0.1445
 3236ntf    sn221529   3.369   3.885   5.784  0.0710 -0.2088 -0.0043
 3236ntf    cn121530   3.383   3.724   5.867 -0.2481 -0.1461  0.1752
 3236ntf    fn421531   3.532   4.014   6.172 -0.2308 -0.4797  0.2710
 3236ntf    fn421532   3.363   4.090   6.271  0.2813 -0.2096  0.0170
 3236ntf    fn421533   3.370   3.890   6.213  0.1093 -0.1097  0.7797
 3236ntf    on521534   3.200   4.026   6.005 -0.2610  0.0076 -0.0084
 3236ntf    on521535   3.371   4.204   6.004 -0.0794 -0.1849  0.0386
 3236ntf    on521536   3.457   3.865   5.672  0.2332 -0.6120  0.1941
 3236ntf    on521537   3.230   3.879   5.746 -0.0167 -0.0388  0.2789
 3236ntf    fn421538   3.510   3.699   5.896  0.0016  0.3339 -0.4575
 3236ntf    fn421539   3.306   3.710   5.973  0.2913 -0.2856  0.5529
 3236ntf    fn421540   3.333   3.628   5.790  0.3605  0.0946 -0.5349
 3237ntf    cn121541   5.706   1.234   6.813  0.2279  0.2685  0.0589
 3237ntf    sn221542   5.625   1.195   6.971  0.1048 -0.0013 -0.0699
 3237ntf    nn321543   5.686   1.054   7.002 -0.1536 -0.0584  0.1813
 3237ntf    sn221544   5.792   0.999   7.104  0.0132  0.0653  0.0742
 3237ntf    cn121545   5.673   0.933   7.224 -0.1256  0.2056  0.0136
 3237ntf    fn421546   5.664   1.355   6.777 -0.2392  0.3601  0.8929
 3237ntf    fn421547   5.837   1.247   6.828  0.2211  0.0045  0.3584
 3237ntf    fn421548   5.680   1.142   6.722  0.3919  0.2934 -0.0132
 3237ntf    on521549   5.667   1.303   7.057  0.0667 -0.3686  0.4138
 3237ntf    on521550   5.486   1.197   6.935  0.0657  0.2249  0.0931
 3237ntf    on521551   5.856   1.095   7.191  0.3723 -0.3216  0.2430
 3237ntf    on521552   5.862   0.880   7.061  0.5683  0.2609  0.4211
 3237ntf    fn421553   5.576   1.018   7.252 -0.4991 -0.0337 -0.5356
 3237ntf    fn421554   5.611   0.824   7.182 -0.4064  0.1279  0.6113
 3237ntf    fn421555   5.724   0.901   7.342  0.2928  0.1824 -0.1712
 3238ntf    cn121556   2.401   3.545   3.967 -0.0934  0.4475  0.3480
 3238ntf    sn221557   2.520   3.435   4.051 -0.0121  0.1068 -0.2139
 3238ntf    nn321558   2.551   3.331   3.937  0.0564  0.0917 -0.1812
 3238ntf    sn221559   2.647   3.336   3.813  0.3365 -0.0816  0.0289
 3238ntf    cn121560   2.800   3.289   3.900  0.3744  0.3114  0.1791
 3238ntf    fn421561   2.305   3.472   3.913  0.1205  0.1996  0.3024
 3238ntf    fn421562   2.347   3.639   4.043 -0.3690  0.6266 -0.0716
 3238ntf    fn421563   2.465   3.602   3.866  0.3008 -0.5887  0.0018
 3238ntf    on521564   2.634   3.509   4.098  0.0471 -0.0795 -0.0648
 3238ntf    on521565   2.443   3.363   4.149 -0.5438  0.7454 -0.1529
 3238ntf    on521566   2.675   3.465   3.756  0.0924 -0.0571 -0.0353
 3238ntf    on521567   2.622   3.236   3.712 -0.3896  0.0459  0.0756
 3238ntf    fn421568   2.790   3.174   3.966  0.0913 -0.0307 -0.4470
 3238ntf    fn421569   2.906   3.261   3.827  0.0416  0.3506 -0.3269
 3238ntf    fn421570   2.839   3.379   3.988 -0.0651  0.3728  0.3153
 3239ntf    cn121571   6.193   6.623   1.444 -0.5314  0.8324  0.2274
 3239ntf    sn221572   6.269   6.785   1.414  0.3142  0.4110  0.0530
 3239ntf    nn321573   6.307   6.821   1.561 -0.5285 -0.3663  0.4703
 3239ntf    sn221574   6.437   6.797   1.646 -0.2287 -0.1159  0.0824
 3239ntf    cn121575   6.516   6.959   1.616 -0.2336 -0.0868  0.2260
 3239ntf    fn421576   6.077   6.638   1.505 -0.6086  0.5072  0.1648
 3239ntf    fn421577   6.163   6.556   1.334  0.2632  0.3486  0.2911
 3239ntf    fn421578   6.264   6.539   1.518 -0.4620  0.6177 -0.0789
 3239ntf    on521579   6.376   6.758   1.321  0.0866 -0.1517 -0.0500
 3239ntf    on521580   6.161   6.870   1.370 -0.1495 -0.4269 -0.4590
 3239ntf    on521581   6.523   6.694   1.593 -0.4672 -0.4111  0.2701
 3239ntf    on521582   6.422   6.808   1.789 -0.5460  0.3159  0.0182
 3239ntf    fn421583   6.630   6.963   1.681  0.3467 -0.0211 -0.7696
 3239ntf    fn421584   6.540   6.975   1.486 -0.4128  0.2524  0.2336
 3239ntf    fn421585   6.437   7.060   1.648  0.5774  0.7001 -0.2129
 3240ntf    cn121586   1.721   5.870   1.754 -0.1062 -0.4830 -0.2734
 3240ntf    sn221587   1.645   5.942   1.606 -0.0439  0.1677  0.0061
 3240ntf    nn321588   1.765   5.944   1.504 -0.0151  0.7713  0.0468
 3240ntf    sn221589   1.787   5.872   1.366 -0.3342  0.0822  0.3498
 3240ntf    cn121590   1.674   5.958   1.252  0.2623  0.1968 -0.1546
 3240ntf    fn421591   1.738   5.739   1.753 -0.3998 -0.5201 -0.4504
 3240ntf    fn421592   1.841   5.921   1.779 -0.2095 -0.3858  0.0299
 3240ntf    fn421593   1.645   5.894   1.860 -0.6726  0.2428 -0.8319
 3240ntf    on521594   1.540   5.849   1.572  0.2410 -0.2186  0.1793
 3240ntf    on521595   1.611   6.079   1.635  0.3904  0.4227 -0.6619
 3240ntf    on521596   1.744   5.735   1.360 -0.2534  0.0494  0.4946
 3240ntf    on521597   1.919   5.901   1.317 -0.4122 -0.3518 -0.1185
 3240ntf    fn421598   1.547   5.931   1.272  0.1949  0.6170 -0.0066
 3240ntf    fn421599   1.678   6.089   1.271 -0.2863  0.1267  0.4440
 3240ntf    fn421600   1.704   5.939   1.124  0.2590  0.1450 -0.1480
   7.14926   7.14926   7.14926
