Converted from moscito
19440
    1SOL     ow    1   5.383   3.897   4.554  0.1595  0.2366 -0.0446
    1SOL     hw    2   5.378   3.829   4.621  0.2967  0.4647  0.2053
    1SOL     hw    3   5.472   3.890   4.520  0.1189  0.1805 -0.1388
    1SOL     vw    4   5.394   3.887   4.559  0.1721  0.2594 -0.0238
    2SOL     ow    5   1.981   1.898   6.125  0.5721  0.6649 -0.2232
    2SOL     hw    6   2.053   1.864   6.071  0.0951 -1.3848  0.3399
    2SOL     hw    7   1.922   1.940   6.062  0.3616 -1.0801 -1.2583
    2SOL     vw    8   1.983   1.899   6.109  0.4814  0.1643 -0.2851
    3SOL     ow    9   1.999   3.914   1.220 -0.1711  0.1480 -0.0605
    3SOL     hw   10   2.037   3.860   1.289 -0.6547 -0.4311 -0.2361
    3SOL     hw   11   2.053   3.895   1.142 -0.6571 -0.4852 -0.2492
    3SOL     vw   12   2.011   3.904   1.219 -0.2991 -0.0120 -0.1085
    4SOL     ow   13   4.883   5.301   2.482  0.1348 -0.8012 -0.4898
    4SOL     hw   14   4.879   5.265   2.571 -0.9007  1.0742  0.2707
    4SOL     hw   15   4.935   5.237   2.433  1.3181 -1.5435  1.6134
    4SOL     vw   16   4.889   5.288   2.487  0.1545 -0.6518 -0.1118
    5SOL     ow   17   4.282   6.530   1.064 -0.2705 -0.2614 -0.2211
    5SOL     hw   18   4.250   6.447   1.100  0.7932  0.0044  1.4460
    5SOL     hw   19   4.365   6.506   1.022 -0.9160 -0.3514 -1.5037
    5SOL     vw   20   4.289   6.516   1.063 -0.2153 -0.2379 -0.1704
    6SOL     ow   21   3.720   0.481   2.263  1.0721 -0.3290 -0.4793
    6SOL     hw   22   3.714   0.389   2.240 -0.5955 -0.4410  0.2285
    6SOL     hw   23   3.676   0.488   2.348  0.4715  1.2132 -0.8665
    6SOL     vw   24   3.713   0.470   2.271  0.7728 -0.1403 -0.4369
    7SOL     ow   25   2.337   6.347   3.011  0.2744 -0.3349  0.3737
    7SOL     hw   26   2.379   6.326   2.927  1.2419  1.3054  0.4063
    7SOL     hw   27   2.244   6.349   2.992  0.5673  1.7578 -1.1272
    7SOL     vw   28   2.331   6.344   2.997  0.4407  0.1576  0.1799
    8SOL     ow   29   0.729   3.683   0.809  0.2227  0.6494 -0.1682
    8SOL     hw   30   0.696   3.682   0.720 -0.4253 -0.0571  0.0705
    8SOL     hw   31   0.677   3.751   0.853  0.7040  1.1640 -0.3755
    8SOL     vw   32   0.718   3.692   0.803  0.2007  0.6242 -0.1640
    9SOL     ow   33   0.574   2.578   2.882  0.0882 -0.1747  0.4171
    9SOL     hw   34   0.509   2.574   2.812  2.4632 -2.4484 -1.9017
    9SOL     hw   35   0.590   2.487   2.906 -0.2195  0.4830  3.6946
    9SOL     vw   36   0.567   2.566   2.876  0.3609 -0.3880  0.5435
   10SOL     ow   37   1.373   2.665   4.630  0.5058 -0.1706 -0.5953
   10SOL     hw   38   1.405   2.691   4.716 -2.1306 -0.3962  0.5610
   10SOL     hw   39   1.415   2.580   4.614 -0.3159 -1.0360  1.3896
   10SOL     vw   40   1.383   2.657   4.640  0.0495 -0.3144 -0.1807
   11SOL     ow   41   2.372   1.066   6.416 -0.7653  0.0801 -0.3065
   11SOL     hw   42   2.389   1.149   6.460  0.8592  0.5129 -1.6635
   11SOL     hw   43   2.454   1.043   6.374 -0.9425 -2.6166  0.5903
   11SOL     vw   44   2.385   1.074   6.416 -0.5745 -0.2185 -0.3674
   12SOL     ow   45   1.433   0.510   3.751  0.1359  0.1095 -0.1089
   12SOL     hw   46   1.436   0.604   3.733  0.5561  0.3949  1.2950
   12SOL     hw   47   1.492   0.472   3.687 -2.2611  0.3901 -2.6878
   12SOL     vw   48   1.441   0.518   3.740 -0.1249  0.1842 -0.2639
   13SOL     ow   49   0.220   1.064   4.399 -0.6409 -0.9327  0.7416
   13SOL     hw   50   0.276   1.074   4.322 -2.0531 -3.2975 -0.7030
   13SOL     hw   51   0.255   1.127   4.463  1.6845 -0.1649 -1.1663
   13SOL     vw   52   0.232   1.074   4.398 -0.5204 -1.1433  0.2995
   14SOL     ow   53   3.585   4.113   6.750 -0.2185  0.6333  0.6745
   14SOL     hw   54   3.642   4.051   6.794  0.0160 -0.6843 -1.3321
   14SOL     hw   55   3.497   4.078   6.761  0.0183 -0.8853 -1.5096
   14SOL     vw   56   3.581   4.101   6.757 -0.1562  0.2589  0.1216
   15SOL     ow   57   0.640   3.991   3.376  0.0882 -0.1065 -0.4699
   15SOL     hw   58   0.556   4.009   3.333 -0.4257  1.6501  1.1260
   15SOL     hw   59   0.699   4.057   3.341  0.1925  0.0798  0.0508
   15SOL     vw   60   0.637   4.002   3.366  0.0342  0.1497 -0.1905
   16SOL     ow   61   2.906   6.259   2.848  0.0938 -0.2034 -0.1153
   16SOL     hw   62   2.949   6.285   2.929 -1.0381 -0.0867  0.4619
   16SOL     hw   63   2.963   6.293   2.779  1.5707 -1.1425  0.6104
   16SOL     vw   64   2.919   6.267   2.849  0.1394 -0.3121  0.0566
   17SOL     ow   65   3.818   0.966   2.524 -0.4501 -0.2339 -1.2884
   17SOL     hw   66   3.728   0.969   2.558  0.6422 -1.4280  2.1196
   17SOL     hw   67   3.834   0.873   2.506 -0.0033  0.0177 -2.2444
   17SOL     vw   68   3.808   0.954   2.526 -0.2471 -0.3583 -0.9649
   18SOL     ow   69   0.254   0.021   1.918  0.4476  0.8612  0.5568
   18SOL     hw   70   0.200   0.021   1.839  0.5184 -1.0020  0.4762
   18SOL     hw   71   0.325   0.083   1.899 -0.2668  1.4449 -0.2934
   18SOL     vw   72   0.256   0.029   1.905  0.3627  0.6926  0.4340
   19SOL     ow   73   0.744   6.048   6.510 -0.4366  0.1130 -0.3108
   19SOL     hw   74   0.658   6.064   6.472 -0.9424 -1.1357  0.2599
   19SOL     hw   75   0.778   5.972   6.462  1.3270  1.8700 -2.0540
   19SOL     vw   76   0.737   6.040   6.498 -0.2706  0.1798 -0.4654
   20SOL     ow   77   2.009   6.386   5.057 -0.5690 -0.4959 -0.1544
   20SOL     hw   78   2.019   6.302   5.014 -1.6359  0.0995 -1.6436
   20SOL     hw   79   1.915   6.395   5.071 -0.3752 -0.0046  0.9824
   20SOL     vw   80   1.998   6.376   5.054 -0.6842 -0.3526 -0.2010
   21SOL     ow   81   6.490   3.738   3.064 -0.2252 -0.5984  0.9965
   21SOL     hw   82   6.477   3.832   3.079  0.1711 -0.6191  1.4790
   21SOL     hw   83   6.483   3.698   3.151 -2.6583 -1.3089  0.5606
   21SOL     vw   84   6.487   3.745   3.077 -0.4938 -0.6950  1.0026
   22SOL     ow   85   2.133   3.649   6.686 -0.8867 -0.0142 -0.0099
   22SOL     hw   86   2.141   3.725   6.629 -2.6547  1.8588  2.0229
   22SOL     hw   87   2.041   3.622   6.678 -1.0956  0.0792  1.5827
   22SOL     vw   88   2.122   3.656   6.678 -1.1476  0.2452  0.4683
   23SOL     ow   89   2.020   3.062   6.082 -0.2022 -0.3686 -0.4365
   23SOL     hw   90   2.001   2.973   6.109 -1.4830 -0.3903 -1.3181
   23SOL     hw   91   2.091   3.091   6.140 -0.5944 -1.5323  0.6499
   23SOL     vw   92   2.027   3.054   6.093 -0.4230 -0.5250 -0.4096
   24SOL     ow   93   1.175   4.286   2.103  0.4674 -0.1252 -0.2522
   24SOL     hw   94   1.112   4.240   2.047  1.8304 -1.8343 -0.4495
   24SOL     hw   95   1.125   4.359   2.139 -2.0954 -2.2461  0.8151
   24SOL     vw   96   1.160   4.290   2.100  0.3091 -0.6304 -0.1374
   25SOL     ow   97   2.324   3.147   5.016  0.9551  0.2143  0.8524
   25SOL     hw   98   2.250   3.180   5.067 -0.6930  1.4812 -2.1179
   25SOL     hw   99   2.287   3.078   4.962  2.0066  0.5899 -0.3987
   25SOL     vw  100   2.309   3.142   5.016  0.8763  0.4311  0.2954
   26SOL     ow  101   6.794   0.158   1.291 -0.2669 -0.3216 -0.0227
   26SOL     hw  102   6.816   0.085   1.233 -1.4013 -0.2554 -0.5494
   26SOL     hw  103   6.783   0.118   1.378  1.7478 -0.3781  0.2557
   26SOL     vw  104   6.796   0.143   1.295 -0.1507 -0.3203 -0.0555
   27SOL     ow  105   4.478   6.507   2.633  0.5076 -0.9171  0.1277
   27SOL     hw  106   4.437   6.591   2.656  2.8272  0.0962  0.8570
   27SOL     hw  107   4.457   6.449   2.706 -0.3386 -0.7150  0.0581
   27SOL     vw  108   4.470   6.510   2.646  0.7019 -0.7567  0.2148
   28SOL     ow  109   3.171   6.815   5.800  0.3169 -0.3481  0.2148
   28SOL     hw  110   3.098   6.862   5.840 -0.7337 -0.8501 -1.0693
   28SOL     hw  111   3.248   6.846   5.849 -0.5264  1.4205  0.5231
   28SOL     vw  112   3.172   6.826   5.812  0.0669 -0.1810  0.0861
   29SOL     ow  113   3.029   6.727   5.552  0.1768 -0.2575  0.3854
   29SOL     hw  114   3.023   6.672   5.474  1.0843 -1.3293  1.0344
   29SOL     hw  115   2.977   6.805   5.531  0.7784 -0.3095 -1.4484
   29SOL     vw  116   3.021   6.730   5.539  0.3759 -0.4058  0.2291
   30SOL     ow  117   1.858   5.008   6.878  0.4082  0.3371  0.1897
   30SOL     hw  118   1.770   4.990   6.845 -0.1261  1.5507  0.8949
   30SOL     hw  119   1.844   5.051   6.962  1.6971 -3.5299  2.6732
   30SOL     vw  120   1.845   5.011   6.885  0.5078 -0.0131  0.6101
   31SOL     ow  121   0.861   0.796   2.658 -0.3937 -0.0390 -0.5109
   31SOL     hw  122   0.797   0.841   2.714 -0.3439 -1.0327  0.3710
   31SOL     hw  123   0.814   0.779   2.576 -0.9431  0.1186 -0.2301
   31SOL     vw  124   0.847   0.800   2.655 -0.4596 -0.1493 -0.3575
   32SOL     ow  125   2.065   3.645   6.968  0.7635 -0.0295  0.4369
   32SOL     hw  126   2.088   3.552   6.975  0.8162 -0.1423 -0.8918
   32SOL     hw  127   2.092   3.669   6.879 -2.1345  0.4110 -0.4403
   32SOL     vw  128   2.072   3.636   6.957  0.3883  0.0137  0.1457
   33SOL     ow  129   2.331   4.752   1.127  0.2047 -0.4436 -0.2683
   33SOL     hw  130   2.337   4.841   1.162 -0.4778 -0.6787  0.4944
   33SOL     hw  131   2.393   4.702   1.181 -1.7794 -1.0693  1.5535
   33SOL     vw  132   2.340   4.757   1.139 -0.1471 -0.5574  0.0727
   34SOL     ow  133   1.821   1.156   1.070  0.2862  0.2067  0.1273
   34SOL     hw  134   1.751   1.219   1.085 -0.4602 -0.4068 -0.6352
   34SOL     hw  135   1.845   1.169   0.978  0.3535 -0.3706  0.0563
   34SOL     vw  136   1.815   1.166   1.060  0.1966  0.0496  0.0173
   35SOL     ow  137   4.699   2.637   3.149  0.2608 -0.2520  0.2756
   35SOL     hw  138   4.678   2.581   3.075  2.3236  1.1715 -1.4854
   35SOL     hw  139   4.713   2.724   3.111 -2.6574  1.5937  2.8565
   35SOL     vw  140   4.698   2.641   3.134  0.1481  0.1794  0.3837
   36SOL     ow  141   2.255   5.035   4.720 -0.0741 -0.5281 -0.3373
   36SOL     hw  142   2.228   5.112   4.770  2.4923 -1.0202  2.0690
   36SOL     hw  143   2.309   5.070   4.649  0.2123 -0.0400  0.1118
   36SOL     vw  144   2.258   5.050   4.718  0.3022 -0.5286  0.0396
   37SOL     ow  145   1.974   0.496   4.855  0.3547 -0.1159 -0.1546
   37SOL     hw  146   1.927   0.485   4.772 -0.1541  1.6966 -0.1455
   37SOL     hw  147   1.924   0.443   4.918 -1.8740  1.8668 -0.1152
   37SOL     vw  148   1.961   0.488   4.853 -0.0066  0.3848 -0.1481
   38SOL     ow  149   4.010   1.967   4.408 -0.1034 -0.0473 -0.0492
   38SOL     hw  150   4.057   1.895   4.448  0.1981 -0.4409 -1.0677
   38SOL     hw  151   4.047   2.046   4.449  0.5191 -0.4122  0.0977
   38SOL     vw  152   4.021   1.968   4.418  0.0186 -0.1473 -0.1645
   39SOL     ow  153   4.495   6.327   4.197  0.2924  1.0011 -0.6238
   39SOL     hw  154   4.407   6.302   4.224  0.5440  0.2943 -0.4259
   39SOL     hw  155   4.503   6.419   4.222 -0.5646  1.2169 -1.1080
   39SOL     vw  156   4.484   6.336   4.204  0.2122  0.9363 -0.6616
   40SOL     ow  157   4.074   2.882   4.443  0.3549 -0.6385  0.6792
   40SOL     hw  158   4.073   2.876   4.538  0.7334 -0.9718  0.6679
   40SOL     hw  159   4.070   2.791   4.413  1.3312 -0.6033  0.4025
   40SOL     vw  160   4.074   2.869   4.451  0.5338 -0.6779  0.6411
   41SOL     ow  161   5.913   2.449   4.155 -0.3591 -0.2232 -0.2315
   41SOL     hw  162   5.971   2.497   4.213  2.1127 -1.3214 -1.6331
   41SOL     hw  163   5.933   2.482   4.067  1.5935 -3.7046 -1.3058
   41SOL     vw  164   5.923   2.459   4.151  0.2246 -0.8273 -0.5581
   42SOL     ow  165   5.997   6.077   5.314  0.5569  0.1941  0.4533
   42SOL     hw  166   5.992   6.092   5.409  1.5377 -0.5793  0.6403
   42SOL     hw  167   5.986   6.165   5.276 -3.2179  0.1671  1.0829
   42SOL     vw  168   5.995   6.091   5.322  0.1884  0.0887  0.5610
   43SOL     ow  169   0.525   1.287   1.149  0.4387 -0.5111 -0.2488
   43SOL     hw  170   0.500   1.278   1.241 -0.1859 -1.5783 -0.4952
   43SOL     hw  171   0.442   1.280   1.102  1.0207 -3.1014 -1.0432
   43SOL     vw  172   0.510   1.285   1.155  0.4331 -0.9936 -0.3861
   44SOL     ow  173   5.233   3.899   2.742  0.1237 -0.3655 -0.0148
   44SOL     hw  174   5.327   3.906   2.723  0.0821 -0.7135 -0.3837
   44SOL     hw  175   5.219   3.956   2.818  0.3928  0.6752 -0.7303
   44SOL     vw  176   5.244   3.907   2.750  0.1540 -0.2741 -0.1578
   45SOL     ow  177   6.761   6.296   2.740  0.1908 -0.0463 -0.2850
   45SOL     hw  178   6.753   6.365   2.675  0.3009  0.7540  0.5269
   45SOL     hw  179   6.826   6.329   2.802  0.4730 -1.0150 -0.0437
   45SOL     vw  180   6.768   6.309   2.740  0.2427 -0.0687 -0.1462
   46SOL     ow  181   5.752   1.825   6.222  0.9691 -0.0528 -0.4968
   46SOL     hw  182   5.679   1.834   6.283  0.8355  0.1381 -0.6827
   46SOL     hw  183   5.715   1.781   6.146  0.5875  1.6622 -1.3576
   46SOL     vw  184   5.737   1.821   6.220  0.9010  0.1987 -0.6349
   47SOL     ow  185   6.090   4.465   4.672 -0.0157  0.2062 -0.7997
   47SOL     hw  186   6.145   4.400   4.627 -0.7519 -1.7178  0.8949
   47SOL     hw  187   6.108   4.451   4.765  0.4437  3.1096 -0.3729
   47SOL     vw  188   6.100   4.454   4.678 -0.0522  0.3352 -0.5200
   48SOL     ow  189   5.574   1.901   3.146  0.2332 -0.1323 -0.5920
   48SOL     hw  190   5.639   1.835   3.121  0.6204 -0.4659  1.1935
   48SOL     hw  191   5.492   1.852   3.155  0.3850 -0.2645  0.1060
   48SOL     vw  192   5.572   1.886   3.144  0.3045 -0.1938 -0.2644
   49SOL     ow  193   5.508   3.056   0.723 -0.0825  0.2607  0.0834
   49SOL     hw  194   5.526   2.962   0.732  2.9287  0.7996  0.7470
   49SOL     hw  195   5.413   3.063   0.733 -0.3808 -2.6698  0.2640
   49SOL     vw  196   5.497   3.045   0.725  0.2751 -0.0550  0.1948
   50SOL     ow  197   3.020   6.572   5.301 -0.1115 -0.5359  0.0160
   50SOL     hw  198   2.972   6.591   5.220  1.8272 -2.7798 -1.8070
   50SOL     hw  199   3.112   6.590   5.280  0.4626 -1.3063  1.6557
   50SOL     vw  200   3.026   6.577   5.288  0.2199 -0.9336 -0.0083
   51SOL     ow  201   1.843   1.268   5.223  0.3524  0.4059 -0.0142
   51SOL     hw  202   1.936   1.281   5.245  0.2680 -0.6992  1.1270
   51SOL     hw  203   1.799   1.340   5.269  0.6793  1.3103 -1.0743
   51SOL     vw  204   1.850   1.279   5.232  0.3844  0.3795 -0.0033
   52SOL     ow  205   4.231   2.316   0.180  0.1023  0.2443  0.2488
   52SOL     hw  206   4.209   2.339   0.090 -0.5355 -0.5804  0.1856
   52SOL     hw  207   4.183   2.235   0.197 -0.4314  0.8064  1.5994
   52SOL     vw  208   4.222   2.308   0.170 -0.0520  0.2096  0.4186
   53SOL     ow  209   6.990   2.266   5.458  0.6341  0.0521  0.2384
   53SOL     hw  210   7.071   2.261   5.509  0.4058 -3.1483  0.5262
   53SOL     hw  211   7.009   2.215   5.379  0.4186  3.4656 -2.2473
   53SOL     vw  212   7.003   2.258   5.455  0.5758  0.0802 -0.0520
   54SOL     ow  213   5.920   1.148   5.191 -0.6204  0.1325  0.3014
   54SOL     hw  214   5.906   1.182   5.103 -1.4147 -0.2517  0.2766
   54SOL     hw  215   5.874   1.209   5.248 -1.2597 -0.3787  0.3345
   54SOL     vw  216   5.912   1.161   5.187 -0.8097  0.0144  0.3028
   55SOL     ow  217   3.971   1.499   6.678  0.1862  0.0530 -0.1338
   55SOL     hw  218   4.016   1.517   6.760  0.6488 -1.4824 -0.0232
   55SOL     hw  219   3.919   1.420   6.695  0.1159 -0.1656 -1.2429
   55SOL     vw  220   3.970   1.491   6.691  0.2379 -0.1784 -0.2656
   56SOL     ow  221   1.089   4.612   6.320  0.3733  0.3748 -0.2931
   56SOL     hw  222   1.174   4.646   6.346  0.1187  0.2455  0.7450
   56SOL     hw  223   1.109   4.539   6.261  0.9394  1.3196 -1.3020
   56SOL     vw  224   1.103   4.607   6.316  0.4144  0.4823 -0.2892
   57SOL     ow  225   6.529   4.282   4.326 -0.5450  0.6237  0.4745
   57SOL     hw  226   6.440   4.312   4.307  0.1069  0.9678 -2.5146
   57SOL     hw  227   6.573   4.359   4.361 -0.5971  1.4055 -1.1131
   57SOL     vw  228   6.523   4.296   4.328 -0.4656  0.7720 -0.1292
   58SOL     ow  229   3.167   1.099   0.833  0.2370 -0.2356  0.0198
   58SOL     hw  230   3.183   1.158   0.907 -3.6833  1.1037  0.0022
   58SOL     hw  231   3.189   1.151   0.756 -0.5484  0.2348  0.1041
   58SOL     vw  232   3.172   1.114   0.833 -0.3840  0.0033  0.0286
   59SOL     ow  233   2.714   5.986   0.095 -0.7019 -0.3801  0.6602
   59SOL     hw  234   2.783   6.041   0.133  2.2977 -2.0721 -1.8249
   59SOL     hw  235   2.676   6.041   0.026 -0.2501 -0.1634  0.5751
   59SOL     vw  236   2.718   6.001   0.091 -0.2465 -0.5748  0.3211
   60SOL     ow  237   3.235   6.062   4.394  0.2162 -0.6311  0.6548
   60SOL     hw  238   3.258   5.984   4.343 -0.5432 -0.5316  0.1514
   60SOL     hw  239   3.237   6.033   4.485  1.1051 -0.9341  0.5510
   60SOL     vw  240   3.239   6.048   4.399  0.2334 -0.6580  0.5748
   61SOL     ow  241   5.166   4.729   0.763 -0.0752  0.3773 -0.2385
   61SOL     hw  242   5.081   4.768   0.784  0.0958  0.4605  0.3152
   61SOL     hw  243   5.218   4.739   0.843  0.3156 -0.0540 -0.4308
   61SOL     vw  244   5.162   4.735   0.776 -0.0012  0.3314 -0.1909
   62SOL     ow  245   6.141   4.573   0.453  0.1682 -0.7374  0.1744
   62SOL     hw  246   6.094   4.574   0.536  2.3561 -0.0700  1.4975
   62SOL     hw  247   6.181   4.487   0.448  3.6373  0.5704  2.1109
   62SOL     vw  248   6.140   4.562   0.463  0.9143 -0.4768  0.6045
   63SOL     ow  249   1.885   3.394   4.674 -0.3120 -0.0438  0.5904
   63SOL     hw  250   1.977   3.372   4.686 -0.2929 -0.9831 -1.0189
   63SOL     hw  251   1.839   3.347   4.745  0.2610 -1.1777  0.2359
   63SOL     vw  252   1.891   3.385   4.685 -0.2338 -0.3173  0.3314
   64SOL     ow  253   0.855   2.440   6.624 -0.3751 -0.6429  0.5439
   64SOL     hw  254   0.796   2.365   6.613 -0.6454 -0.9814  3.4343
   64SOL     hw  255   0.934   2.402   6.664  0.2405  0.3480  0.2829
   64SOL     vw  256   0.858   2.425   6.628 -0.3296 -0.5568  0.8910
   65SOL     ow  257   6.214   6.167   0.767 -0.3348  0.2965  0.1940
   65SOL     hw  258   6.145   6.220   0.807 -1.1127 -0.9184  0.5066
   65SOL     hw  259   6.169   6.113   0.703  0.7565  1.5002 -1.6919
   65SOL     vw  260   6.199   6.167   0.764 -0.2935  0.2949 -0.0135
   66SOL     ow  261   6.600   4.172   2.251 -0.0593 -0.3597  0.6668
   66SOL     hw  262   6.695   4.160   2.247 -0.0923 -0.2991 -1.8315
   66SOL     hw  263   6.565   4.084   2.257  0.0775 -1.4024 -6.1023
   66SOL     vw  264   6.608   4.159   2.251 -0.0455 -0.4895 -0.5560
   67SOL     ow  265   3.942   1.590   6.438 -0.6047  0.3672  0.1874
   67SOL     hw  266   3.891   1.521   6.395  0.6792  0.3705 -1.4428
   67SOL     hw  267   3.951   1.560   6.528 -0.4759 -1.3781 -0.3558
   67SOL     vw  268   3.936   1.577   6.444 -0.4183  0.1373 -0.0994
   68SOL     ow  269   3.865   6.357   4.503 -0.3911  0.7794  0.3380
   68SOL     hw  270   3.834   6.280   4.551  1.1806  0.2883  0.6151
   68SOL     hw  271   3.894   6.322   4.418 -1.7541  1.4228 -0.4194
   68SOL     vw  272   3.865   6.342   4.498 -0.3636  0.7994  0.2744
   69SOL     ow  273   6.881   0.466   1.444 -0.2363  0.0967 -0.4608
   69SOL     hw  274   6.890   0.558   1.470  1.0418 -0.1749  0.1534
   69SOL     hw  275   6.833   0.426   1.516 -1.2797  0.3740 -0.9828
   69SOL     vw  276   6.876   0.473   1.457 -0.2053  0.0975 -0.4486
   70SOL     ow  277   5.726   4.036   0.152  0.3812  0.1185  0.7372
   70SOL     hw  278   5.765   4.082   0.077 -0.4855 -2.9876 -1.8445
   70SOL     hw  279   5.800   3.999   0.199  0.8952 -1.5592 -1.2373
   70SOL     vw  280   5.741   4.037   0.148  0.3345 -0.5126  0.1361
   71SOL     ow  281   6.097   5.318   3.307 -0.0725  0.3865 -0.4802
   71SOL     hw  282   6.129   5.408   3.313 -0.3010  0.3934  1.4334
   71SOL     hw  283   6.175   5.264   3.319 -0.3124  0.3956  1.5778
   71SOL     vw  284   6.111   5.323   3.309 -0.1342  0.3884  0.0439
   72SOL     ow  285   1.026   2.285   5.290 -0.4692  0.3453  0.2235
   72SOL     hw  286   0.975   2.345   5.235 -0.1701  0.5255  0.1428
   72SOL     hw  287   1.104   2.266   5.239 -0.8803 -0.6644 -0.0422
   72SOL     vw  288   1.030   2.291   5.276 -0.4840  0.2358  0.1779
   73SOL     ow  289   0.737   3.039   0.856 -0.2134  0.1778  0.1982
   73SOL     hw  290   0.811   3.094   0.828 -1.9547  2.4746 -0.2067
   73SOL     hw  291   0.717   3.069   0.945 -1.5722  0.7062 -0.2544
   73SOL     vw  292   0.744   3.051   0.864 -0.6225  0.5506  0.0851
   74SOL     ow  293   1.518   4.080   3.449  0.1460  0.5285 -0.0515
   74SOL     hw  294   1.480   4.162   3.483 -0.9323  0.7033 -1.5356
   74SOL     hw  295   1.496   4.014   3.515  0.1348  1.2563  0.6874
   74SOL     vw  296   1.510   4.082   3.462  0.0022  0.6475 -0.1496
   75SOL     ow  297   3.876   4.241   5.645  0.1079  0.1690  0.0110
   75SOL     hw  298   3.960   4.208   5.613 -0.3741 -0.5048 -0.6058
   75SOL     hw  299   3.898   4.323   5.690  0.7954  1.4524 -2.4857
   75SOL     vw  300   3.890   4.248   5.647  0.1351  0.2494 -0.4001
   76SOL     ow  301   1.324   0.017   4.338  0.3852  0.7663 -0.1221
   76SOL     hw  302   1.412   0.053   4.329  0.7579  0.1313  0.8874
   76SOL     hw  303   1.326  -0.066   4.290  1.5223 -1.1734  2.9719
   76SOL     vw  304   1.336   0.011   4.331  0.5844  0.4268  0.4191
   77SOL     ow  305   2.559   4.085   1.892  0.6537 -0.1144  0.6927
   77SOL     hw  306   2.580   4.046   1.977  1.8061 -3.8019 -1.0603
   77SOL     hw  307   2.473   4.123   1.904 -0.2632 -2.5716  2.9841
   77SOL     vw  308   2.551   4.085   1.905  0.6846 -0.9253  0.7638
   78SOL     ow  309   2.511   6.262   2.274 -0.2397  0.3100 -0.6500
   78SOL     hw  310   2.562   6.325   2.223 -2.4789  2.2026 -0.7128
   78SOL     hw  311   2.433   6.246   2.220 -1.6377  0.6821  1.1893
   78SOL     vw  312   2.507   6.268   2.260 -0.7197  0.6087 -0.4157
   79SOL     ow  313   3.349   0.236   5.326 -0.0846 -0.0228 -0.1962
   79SOL     hw  314   3.309   0.243   5.412 -0.1314  0.3008 -0.2435
   79SOL     hw  315   3.279   0.259   5.265  0.4843  1.7953 -0.2269
   79SOL     vw  316   3.334   0.240   5.329 -0.0156  0.2598 -0.2067
   80SOL     ow  317   0.559   1.555   5.965 -0.3943  0.2377 -0.6287
   80SOL     hw  318   0.644   1.589   5.994  1.5121 -2.5020 -2.4305
   80SOL     hw  319   0.507   1.547   6.045  0.7423  2.6314  0.4410
   80SOL     vw  320   0.564   1.558   5.980  0.0072  0.1920 -0.7255
   81SOL     ow  321   1.491   6.871   3.320  0.6808  0.3948  0.2942
   81SOL     hw  322   1.433   6.870   3.396 -0.2566 -1.9102 -0.3635
   81SOL     hw  323   1.579   6.878   3.357  0.1693  0.6246  1.5104
   81SOL     vw  324   1.495   6.872   3.335  0.4897  0.1209  0.3679
   82SOL     ow  325   6.309   1.284   4.636  0.1002 -0.1326  0.7396
   82SOL     hw  326   6.233   1.322   4.590 -0.7309 -1.1967  1.1870
   82SOL     hw  327   6.380   1.345   4.618 -0.5423  0.2253 -0.7792
   82SOL     vw  328   6.308   1.297   4.627 -0.0944 -0.2257  0.5980
   83SOL     ow  329   0.431   0.317   3.630 -0.2252 -0.1494 -0.0800
   83SOL     hw  330   0.387   0.234   3.613  0.6577 -0.6397 -0.0330
   83SOL     hw  331   0.367   0.369   3.678 -0.6363 -0.9756  0.2881
   83SOL     vw  332   0.417   0.313   3.634 -0.1629 -0.3231 -0.0253
   84SOL     ow  333   3.811   3.457   2.263  0.7243  0.1507  0.5181
   84SOL     hw  334   3.754   3.530   2.238  0.2137 -0.2824  0.3890
   84SOL     hw  335   3.897   3.480   2.228  0.0331 -0.4707 -1.7877
   84SOL     vw  336   3.815   3.469   2.255  0.5658  0.0116  0.1968
   85SOL     ow  337   4.769   2.263   6.665  0.1441  0.4209  0.6232
   85SOL     hw  338   4.797   2.171   6.671 -3.9794 -1.1250 -0.1461
   85SOL     hw  339   4.752   2.276   6.571 -3.2287  0.4164  1.0928
   85SOL     vw  340   4.770   2.252   6.653 -0.8450  0.2162  0.5836
   86SOL     ow  341   3.208   2.940   5.418 -0.1977 -0.5072  0.7903
   86SOL     hw  342   3.137   2.883   5.387 -0.1348  0.1993 -0.7973
   86SOL     hw  343   3.236   2.987   5.339  0.0076  1.4266  1.9372
   86SOL     vw  344   3.202   2.939   5.403 -0.1624 -0.1589  0.7319
   87SOL     ow  345   6.294   2.349   2.296  0.6280 -0.0372 -0.1038
   87SOL     hw  346   6.330   2.389   2.375 -0.3346  1.0644 -0.1730
   87SOL     hw  347   6.201   2.335   2.317  0.1607  1.0566 -1.2900
   87SOL     vw  348   6.286   2.353   2.309  0.4394  0.2524 -0.2695
   88SOL     ow  349   1.656   4.316   6.045 -0.8905 -0.3706  0.5922
   88SOL     hw  350   1.718   4.389   6.046 -1.7426  0.3944  1.8350
   88SOL     hw  351   1.570   4.358   6.037 -1.2918 -1.3642 -0.4737
   88SOL     vw  352   1.653   4.331   6.044 -1.0559 -0.4005  0.6156
   89SOL     ow  353   5.975   4.700   4.617  0.2058 -0.2581  0.1983
   89SOL     hw  354   6.030   4.752   4.558  1.0065 -1.5045 -0.1884
   89SOL     hw  355   6.025   4.620   4.632 -0.2341 -0.2149  2.1477
   89SOL     vw  356   5.989   4.696   4.611  0.2534 -0.4168  0.4044
   90SOL     ow  357   7.006   5.718   0.955 -0.3795  0.0270  0.4662
   90SOL     hw  358   7.000   5.658   1.029 -1.0483  0.3112  0.6524
   90SOL     hw  359   6.928   5.700   0.903  1.3262 -1.9474 -1.5808
   90SOL     vw  360   6.995   5.708   0.958 -0.2427 -0.1960  0.2207
   91SOL     ow  361   3.179   5.922   0.091 -0.2520  0.7289 -0.2880
   91SOL     hw  362   3.117   5.953   0.024  1.4528  0.5460 -2.0593
   91SOL     hw  363   3.185   5.994   0.153 -1.9073  0.9105 -0.3014
   91SOL     vw  364   3.172   5.936   0.090 -0.2455  0.7288 -0.5234
   92SOL     ow  365   0.550   1.281   4.350  0.0064  0.0347  0.5174
   92SOL     hw  366   0.503   1.364   4.347  0.5093  0.2955 -0.8268
   92SOL     hw  367   0.641   1.305   4.365  0.1009 -0.3001  0.4905
   92SOL     vw  368   0.556   1.295   4.351  0.0852  0.0250  0.3366
   93SOL     ow  369   3.890   6.138   1.802 -0.2290 -0.3691  0.6531
   93SOL     hw  370   3.852   6.212   1.849 -0.6398  0.0422 -0.3119
   93SOL     hw  371   3.897   6.168   1.712 -1.2423 -1.8252  0.0684
   93SOL     vw  372   3.886   6.152   1.797 -0.4170 -0.5074  0.4487
   94SOL     ow  373   3.921   1.300   4.320  0.1007 -0.1802 -0.0517
   94SOL     hw  374   3.964   1.338   4.244  0.0143  0.5231  0.2449
   94SOL     hw  375   3.993   1.274   4.378  0.1739 -0.9444 -0.4701
   94SOL     vw  376   3.936   1.301   4.318  0.0989 -0.1883 -0.0677
   95SOL     ow  377   3.465   3.546   1.411 -0.3555 -0.1054 -0.3764
   95SOL     hw  378   3.379   3.567   1.447 -0.1266  2.3675 -1.1084
   95SOL     hw  379   3.526   3.560   1.484 -0.2894  1.1134 -0.6494
   95SOL     vw  380   3.462   3.550   1.425 -0.3166  0.3816 -0.5090
   96SOL     ow  381   1.825   2.075   6.386  0.0501 -0.0643  0.0867
   96SOL     hw  382   1.850   2.127   6.462  2.7925 -2.5189  1.0329
   96SOL     hw  383   1.761   2.012   6.420 -2.2538  1.6362 -0.7784
   96SOL     vw  384   1.820   2.074   6.400  0.1079 -0.1637  0.0978
   97SOL     ow  385   2.951   5.133   1.431  0.8413  0.2633  0.2652
   97SOL     hw  386   2.898   5.178   1.366 -0.5064 -0.0595  1.1024
   97SOL     hw  387   2.990   5.059   1.384  0.3138  0.3423 -0.3039
   97SOL     vw  388   2.949   5.129   1.416  0.5939  0.2313  0.3006
   98SOL     ow  389   6.310   0.098   5.720 -0.4057  0.2153  0.1763
   98SOL     hw  390   6.273   0.016   5.752 -0.0890 -0.7886 -1.9310
   98SOL     hw  391   6.252   0.125   5.649  0.5347  0.8469 -0.3673
   98SOL     vw  392   6.297   0.091   5.715 -0.2398  0.1661 -0.1733
   99SOL     ow  393   6.832   2.679   6.653 -0.3357  0.1357  0.1099
   99SOL     hw  394   6.900   2.719   6.707  0.3000 -1.2510  0.3993
   99SOL     hw  395   6.878   2.614   6.600 -1.4690 -1.1274  0.6053
   99SOL     vw  396   6.847   2.675   6.653 -0.4017 -0.2137  0.2134
  100SOL     ow  397   1.719   5.387   0.583  0.0274  0.1983  0.2878
  100SOL     hw  398   1.786   5.339   0.535  0.0230  0.5190 -0.0439
  100SOL     hw  399   1.766   5.435   0.650  0.2825  1.3522 -0.6839
  100SOL     vw  400   1.734   5.387   0.585  0.0604  0.3927  0.1158
  101SOL     ow  401   5.621   4.242   0.422  0.0807  0.6543 -0.4048
  101SOL     hw  402   5.630   4.169   0.484  0.3469 -0.4136 -1.6505
  101SOL     hw  403   5.649   4.319   0.471 -0.1334 -0.0917  0.9285
  101SOL     vw  404   5.626   4.242   0.437  0.0875  0.4151 -0.3933
  102SOL     ow  405   5.510   6.962   6.623 -0.3758 -0.2982 -0.3686
  102SOL     hw  406   5.517   6.891   6.687 -1.5120 -1.3670 -1.3566
  102SOL     hw  407   5.588   6.952   6.568 -0.4689 -0.7180 -0.4277
  102SOL     vw  408   5.521   6.951   6.624 -0.5379 -0.4946 -0.5069
  103SOL     ow  409   0.824   3.448   6.250  0.7580 -0.2450 -0.5087
  103SOL     hw  410   0.758   3.379   6.255  0.9570 -0.3721  2.7103
  103SOL     hw  411   0.777   3.528   6.275  1.0678  0.4049 -1.8755
  103SOL     vw  412   0.809   3.450   6.254  0.8251 -0.1761 -0.2646
  104SOL     ow  413   1.220   1.479   3.519  0.5546 -0.2299 -0.0315
  104SOL     hw  414   1.196   1.491   3.611 -0.1628 -1.5895 -0.0039
  104SOL     hw  415   1.138   1.490   3.471  0.7385 -0.4758 -0.4070
  104SOL     vw  416   1.206   1.482   3.525  0.4842 -0.4417 -0.0774
  105SOL     ow  417   5.078   3.142   1.440 -0.6147 -0.3340 -0.3706
  105SOL     hw  418   5.170   3.167   1.439 -0.3425 -1.2303 -2.8535
  105SOL     hw  419   5.077   3.053   1.405 -2.4062 -0.4579 -0.0802
  105SOL     vw  420   5.090   3.134   1.435 -0.8149 -0.4686 -0.6599
  106SOL     ow  421   5.407   0.544   1.674 -0.1653 -0.2926 -0.0633
  106SOL     hw  422   5.410   0.579   1.585  1.2217  0.8363  0.4104
  106SOL     hw  423   5.336   0.592   1.716 -0.4275 -0.4096 -0.3574
  106SOL     vw  424   5.398   0.555   1.668 -0.0172 -0.1591 -0.0396
  107SOL     ow  425   3.250   3.669   6.567 -0.8012  0.1313  0.1566
  107SOL     hw  426   3.254   3.764   6.558 -1.0812  0.3188  1.6603
  107SOL     hw  427   3.158   3.650   6.585 -0.6510 -0.3662  0.4245
  107SOL     vw  428   3.238   3.679   6.568 -0.8181  0.0904  0.3905
  108SOL     ow  429   5.062   0.193   5.641 -0.4448 -0.2818 -0.5400
  108SOL     hw  430   5.070   0.187   5.545  1.5885  0.0490 -0.4233
  108SOL     hw  431   5.071   0.286   5.660  0.3458 -0.4771  0.0621
  108SOL     vw  432   5.064   0.204   5.631 -0.0722 -0.2639 -0.4451
  109SOL     ow  433   5.461   6.783   0.893  0.0056 -0.1171 -0.3027
  109SOL     hw  434   5.454   6.753   0.803  0.9807 -1.7575  0.1223
  109SOL     hw  435   5.554   6.802   0.905 -0.1973  0.6223  0.2045
  109SOL     vw  436   5.472   6.782   0.883  0.1075 -0.2360 -0.1797
  110SOL     ow  437   1.424   6.429   3.573  0.1628  0.5671  0.3419
  110SOL     hw  438   1.485   6.476   3.629 -0.7183 -0.5155  2.2947
  110SOL     hw  439   1.337   6.453   3.605 -0.3756  0.0581 -0.6791
  110SOL     vw  440   1.420   6.438   3.584 -0.0246  0.3574  0.4648
  111SOL     ow  441   4.775   6.198   1.015 -0.6083 -0.0812 -0.0341
  111SOL     hw  442   4.769   6.276   0.960  1.9932  1.1993  1.2857
  111SOL     hw  443   4.785   6.125   0.952  0.1031  1.0509 -1.2937
  111SOL     vw  444   4.776   6.198   0.999 -0.1712  0.2372 -0.0262
  112SOL     ow  445   4.637   6.299   2.431 -0.3962 -0.5721  0.4050
  112SOL     hw  446   4.607   6.245   2.358  3.1253  1.5001 -2.9206
  112SOL     hw  447   4.722   6.262   2.455 -0.6078 -0.0016  2.1804
  112SOL     vw  448   4.644   6.287   2.425  0.0403 -0.2234  0.2003
  113SOL     ow  449   0.817   5.767   0.001  0.0202  0.2797  1.1813
  113SOL     hw  450   0.830   5.751  -0.093  1.9292 -2.5905  1.8040
  113SOL     hw  451   0.794   5.859   0.006 -0.1805  0.5409 -2.1154
  113SOL     vw  452   0.816   5.777  -0.011  0.2455 -0.0644  0.8287
  114SOL     ow  453   1.439   2.998   2.644  0.4840  0.1904 -0.6514
  114SOL     hw  454   1.361   2.962   2.603  1.5757 -1.8668 -1.0647
  114SOL     hw  455   1.442   3.089   2.616 -0.1413 -0.4926 -3.1479
  114SOL     vw  456   1.429   3.005   2.635  0.5455 -0.1713 -1.0355
  115SOL     ow  457   3.985   1.210   3.217  0.3339  0.0624  0.0575
  115SOL     hw  458   3.903   1.237   3.257  1.3116  1.1010  1.4462
  115SOL     hw  459   4.018   1.289   3.174  1.4201  0.1374  0.9850
  115SOL     vw  460   3.978   1.224   3.217  0.6062  0.2093  0.3630
  116SOL     ow  461   2.807   3.056   0.485  0.2092 -0.2896 -0.2375
  116SOL     hw  462   2.879   3.005   0.446 -0.3790 -1.8715  0.6689
  116SOL     hw  463   2.828   3.061   0.578 -1.0206 -1.0963  0.1039
  116SOL     vw  464   2.819   3.050   0.492 -0.0308 -0.6047 -0.0729
  117SOL     ow  465   5.475   4.605   5.713  0.2820 -0.4344 -0.0497
  117SOL     hw  466   5.417   4.559   5.653 -0.3719  0.1748  0.1025
  117SOL     hw  467   5.516   4.673   5.659 -1.1298  0.8348  0.3827
  117SOL     vw  468   5.473   4.608   5.698  0.0098 -0.1864  0.0272
  118SOL     ow  469   4.467   3.764   6.941 -0.1860 -0.3070 -0.4573
  118SOL     hw  470   4.527   3.739   7.011 -0.9854 -0.2698  0.2477
  118SOL     hw  471   4.410   3.830   6.980 -0.3992 -0.0139 -1.2504
  118SOL     vw  472   4.467   3.769   6.955 -0.3197 -0.2636 -0.4687
  119SOL     ow  473   0.807   0.391   1.886 -0.2650 -0.0336  0.6788
  119SOL     hw  474   0.803   0.481   1.919  1.8891  0.4178 -0.0854
  119SOL     hw  475   0.774   0.337   1.958  0.2273  1.2396  1.9197
  119SOL     vw  476   0.802   0.396   1.900  0.0842  0.1939  0.7417
  120SOL     ow  477   1.877   0.889   1.903  0.1377 -0.6718 -0.0149
  120SOL     hw  478   1.955   0.836   1.884  0.9634  0.6978 -0.6134
  120SOL     hw  479   1.822   0.881   1.826  0.5729 -0.1463 -0.3878
  120SOL     vw  480   1.880   0.881   1.891  0.3040 -0.4217 -0.1431
  121SOL     ow  481   4.926   4.397   5.475  0.5293  0.3150  0.1013
  121SOL     hw  482   4.982   4.337   5.524  1.3706  0.4474 -0.6725
  121SOL     hw  483   4.974   4.479   5.474  0.8231  0.1493 -1.4624
  121SOL     vw  484   4.940   4.400   5.481  0.6793  0.3109 -0.2072
  122SOL     ow  485   5.634   0.453   5.371  0.2570 -0.3504  0.6411
  122SOL     hw  486   5.553   0.417   5.407  0.7305 -0.5630  1.5093
  122SOL     hw  487   5.698   0.443   5.441  1.2261 -0.8446 -0.2901
  122SOL     vw  488   5.631   0.447   5.385  0.4473 -0.4437  0.6330
  123SOL     ow  489   5.232   1.940   2.777  0.0077  0.2493  0.3299
  123SOL     hw  490   5.164   1.948   2.844  0.4354 -0.0206  0.8028
  123SOL     hw  491   5.303   1.894   2.821  0.7773  1.1473  0.0339
  123SOL     vw  492   5.232   1.935   2.792  0.1657  0.3321  0.3533
  124SOL     ow  493   0.941   4.564   4.312  0.1522  0.0767  0.0641
  124SOL     hw  494   0.850   4.535   4.310  0.0905 -0.0879  2.5198
  124SOL     hw  495   0.935   4.660   4.304 -0.2438  0.0715  0.2690
  124SOL     vw  496   0.928   4.573   4.311  0.0918  0.0544  0.4151
  125SOL     ow  497   5.370   2.027   5.636 -0.4762  0.0102 -0.2717
  125SOL     hw  498   5.297   2.083   5.610  0.8750  1.1510 -1.8215
  125SOL     hw  499   5.402   2.065   5.717 -1.2588 -0.1918  0.1456
  125SOL     vw  500   5.364   2.039   5.643 -0.4013  0.1340 -0.4208
  126SOL     ow  501   6.635   5.137   5.196  0.0493 -0.4888  0.6157
  126SOL     hw  502   6.630   5.193   5.119 -0.3243  1.3837  1.9467
  126SOL     hw  503   6.546   5.136   5.231  0.2029 -1.3702  1.0068
  126SOL     vw  504   6.623   5.144   5.191  0.0203 -0.3581  0.8433
  127SOL     ow  505   3.382   5.161   3.441  0.4550 -0.2903  0.3639
  127SOL     hw  506   3.395   5.248   3.478 -1.4694 -0.8618  2.6820
  127SOL     hw  507   3.313   5.173   3.376 -0.2737 -0.1343  1.1406
  127SOL     vw  508   3.374   5.174   3.438  0.1050 -0.3452  0.7722
  128SOL     ow  509   0.242   6.665   1.231  0.0686 -0.1048  0.0756
  128SOL     hw  510   0.160   6.616   1.234  0.0690 -0.0652  0.7893
  128SOL     hw  511   0.297   6.624   1.298  1.1003 -0.9587 -1.2462
  128SOL     vw  512   0.238   6.653   1.240  0.2047 -0.2124 -0.0047
  129SOL     ow  513   0.969   2.118   3.521  0.1211 -0.2759 -0.4571
  129SOL     hw  514   0.996   2.028   3.541  0.6107 -0.2099 -0.7982
  129SOL     hw  515   0.921   2.147   3.599  0.3914 -0.6625 -0.1445
  129SOL     vw  516   0.966   2.110   3.534  0.2214 -0.3182 -0.4609
  130SOL     ow  517   0.977   6.947   0.093  0.6047  0.0359  0.0337
  130SOL     hw  518   1.041   6.999   0.045 -0.2334  2.1031  1.0414
  130SOL     hw  519   0.900   6.945   0.036  0.6718 -0.2405 -0.0525
  130SOL     vw  520   0.975   6.953   0.079  0.5030  0.2720  0.1553
  131SOL     ow  521   3.775   2.865   3.344 -0.1223  0.5031 -0.0162
  131SOL     hw  522   3.721   2.920   3.401  1.8585  2.0989  0.4559
  131SOL     hw  523   3.843   2.924   3.311 -0.4070 -0.6733 -3.0411
  131SOL     vw  524   3.777   2.880   3.347  0.1014  0.5585 -0.3531
  132SOL     ow  525   1.238   0.139   6.062  0.1359  0.4346  0.6964
  132SOL     hw  526   1.301   0.159   6.131  2.7243  0.1776 -1.4042
  132SOL     hw  527   1.246   0.213   6.001 -1.4216  0.2296  0.2094
  132SOL     vw  528   1.247   0.152   6.063  0.2719  0.3737  0.3550
  133SOL     ow  529   3.421   6.234   3.503  0.2023 -0.1344  0.0156
  133SOL     hw  530   3.441   6.317   3.459 -1.2661  1.8088  2.6494
  133SOL     hw  531   3.505   6.191   3.514  0.9631  0.8302 -1.7240
  133SOL     vw  532   3.434   6.239   3.499  0.1088  0.2494  0.1336
  134SOL     ow  533   2.834   2.918   3.006  0.4162  0.2179  0.3786
  134SOL     hw  534   2.894   2.954   2.942  1.7565 -0.7962  1.0120
  134SOL     hw  535   2.890   2.877   3.071 -0.9474  0.0030  1.4696
  134SOL     vw  536   2.849   2.917   3.006  0.4132  0.0558  0.6061
  135SOL     ow  537   3.885   3.507   0.367 -0.1803  0.1837  0.8377
  135SOL     hw  538   3.947   3.436   0.349  1.3978  1.7216 -0.0402
  135SOL     hw  539   3.937   3.574   0.410 -1.6815  0.7861  1.8063
  135SOL     vw  540   3.900   3.506   0.371 -0.1702  0.4660  0.8496
  136SOL     ow  541   3.199   0.334   6.432 -0.1021  0.1121 -0.3729
  136SOL     hw  542   3.151   0.416   6.445  0.4932  0.1969  1.5760
  136SOL     hw  543   3.161   0.297   6.352 -2.5476  0.7594  0.3983
  136SOL     vw  544   3.188   0.340   6.423 -0.3463  0.2087 -0.0143
  137SOL     ow  545   6.711   0.682   2.701 -0.5591  0.6243 -0.3753
  137SOL     hw  546   6.672   0.635   2.628  3.3528 -1.2912 -1.4839
  137SOL     hw  547   6.702   0.623   2.776  0.8186 -0.2135 -0.8341
  137SOL     vw  548   6.705   0.668   2.702  0.1390  0.2610 -0.5821
  138SOL     ow  549   4.605   6.289   5.871 -0.1201  0.4345  0.0266
  138SOL     hw  550   4.603   6.196   5.849 -1.1100  0.0770  1.5378
  138SOL     hw  551   4.516   6.309   5.900  0.7466  1.1831  2.3581
  138SOL     vw  552   4.593   6.280   5.872 -0.1366  0.4861  0.5336
  139SOL     ow  553   0.276   1.601   6.810  0.0308  0.5757 -0.3694
  139SOL     hw  554   0.192   1.590   6.765  0.2071  0.0225 -0.5706
  139SOL     hw  555   0.258   1.575   6.901  0.4477 -1.5385 -0.8429
  139SOL     vw  556   0.262   1.596   6.816  0.1091  0.2238 -0.4585
  140SOL     ow  557   1.361   1.236   3.360  1.2550  0.4892 -0.6051
  140SOL     hw  558   1.340   1.142   3.358  0.1952  0.6648  0.6804
  140SOL     hw  559   1.367   1.261   3.268 -0.5222 -0.4107 -1.0101
  140SOL     vw  560   1.359   1.227   3.348  0.8807  0.3937 -0.4891
  141SOL     ow  561   4.412   1.032   3.489  0.4188  0.5788  0.3137
  141SOL     hw  562   4.368   1.093   3.549 -0.3026  1.0088 -0.6171
  141SOL     hw  563   4.360   0.952   3.494  0.2065  0.6988  0.0919
  141SOL     vw  564   4.399   1.030   3.498  0.2956  0.6513  0.1615
  142SOL     ow  565   0.196   6.747   0.107  0.5003 -0.3803  0.3995
  142SOL     hw  566   0.241   6.807   0.047  0.1287  0.0575  0.5528
  142SOL     hw  567   0.104   6.750   0.078  0.0728  0.7890  1.7400
  142SOL     vw  568   0.190   6.756   0.095  0.3949 -0.1683  0.5966
  143SOL     ow  569   1.260   5.507   4.179 -0.6736 -0.0078 -0.0065
  143SOL     hw  570   1.333   5.562   4.149 -0.3700 -1.1968 -1.6010
  143SOL     hw  571   1.257   5.520   4.273  1.7928 -0.1310  0.1425
  143SOL     vw  572   1.269   5.516   4.187 -0.3081 -0.1810 -0.1974
  144SOL     ow  573   3.569   2.896   4.978  0.2861  0.4731 -0.1161
  144SOL     hw  574   3.523   2.959   5.034 -1.9316 -0.4235 -0.8412
  144SOL     hw  575   3.583   2.820   5.034  1.4179  0.9351  0.2562
  144SOL     vw  576   3.565   2.894   4.993  0.1428  0.4157 -0.1628
  145SOL     ow  577   5.443   4.539   6.630 -0.5285 -0.3621 -0.2883
  145SOL     hw  578   5.468   4.517   6.540  1.4667  2.0807 -0.4326
  145SOL     hw  579   5.364   4.592   6.621 -0.0835  0.2480 -0.6468
  145SOL     vw  580   5.436   4.543   6.617 -0.2065  0.0408 -0.3545
  146SOL     ow  581   4.895   4.929   1.852  0.0710  0.1113 -0.0695
  146SOL     hw  582   4.904   4.959   1.943 -0.0678  1.6567 -0.5359
  146SOL     hw  583   4.806   4.954   1.828  0.0545 -0.4396 -0.5829
  146SOL     vw  584   4.884   4.936   1.861  0.0503  0.2425 -0.1988
  147SOL     ow  585   3.301   4.691   0.218  0.4021  0.1893  0.0478
  147SOL     hw  586   3.315   4.782   0.192 -1.0184 -0.1916 -2.4695
  147SOL     hw  587   3.293   4.644   0.135  1.9530 -2.4224  1.2682
  147SOL     vw  588   3.302   4.697   0.204  0.4194 -0.2058 -0.1233
  148SOL     ow  589   0.365   4.435   3.917 -0.4312  0.5061  0.8254
  148SOL     hw  590   0.385   4.500   3.849  0.9156  0.3459  1.0492
  148SOL     hw  591   0.401   4.472   3.997  0.7789 -0.7248  0.8654
  148SOL     vw  592   0.372   4.449   3.918 -0.0939  0.3221  0.8600
  149SOL     ow  593   5.845   5.553   1.911 -0.4919  0.3229 -0.6482
  149SOL     hw  594   5.856   5.524   2.001 -1.2882  1.7453 -0.0563
  149SOL     hw  595   5.781   5.493   1.873 -1.5324  0.7760  0.3131
  149SOL     vw  596   5.838   5.542   1.918 -0.7346  0.5701 -0.4432
  150SOL     ow  597   0.369   4.313   2.655  0.5866  0.9234  0.1650
  150SOL     hw  598   0.273   4.320   2.655  0.4759 -0.3207 -0.4902
  150SOL     hw  599   0.392   4.294   2.746  0.1171  0.1837  0.1341
  150SOL     vw  600   0.359   4.312   2.667  0.5101  0.6616  0.0743
  151SOL     ow  601   2.250   0.727   5.769 -0.3384 -0.5440 -0.2270
  151SOL     hw  602   2.265   0.699   5.679 -1.1287 -1.4903 -0.0791
  151SOL     hw  603   2.233   0.821   5.763 -3.7009 -1.1105 -1.5213
  151SOL     vw  604   2.250   0.735   5.757 -0.8863 -0.7436 -0.3781
  152SOL     ow  605   0.796   0.806   1.012 -0.0847 -0.2723  0.2336
  152SOL     hw  606   0.881   0.782   0.975 -0.4429 -1.7095  0.2616
  152SOL     hw  607   0.750   0.850   0.941  0.1359 -0.8423 -0.2722
  152SOL     vw  608   0.801   0.808   0.998 -0.1029 -0.5370  0.1705
  153SOL     ow  609   2.729   1.318   5.934  0.0745 -0.1383 -0.0735
  153SOL     hw  610   2.756   1.338   5.844  0.0045 -0.0740 -0.0789
  153SOL     hw  611   2.743   1.223   5.942 -1.4584 -0.4352 -0.6707
  153SOL     vw  612   2.735   1.308   5.923 -0.1370 -0.1689 -0.1528
  154SOL     ow  613   1.967   3.952   5.048 -0.2849 -0.2406 -0.4169
  154SOL     hw  614   2.004   4.039   5.041 -0.6016 -0.1428 -0.9384
  154SOL     hw  615   1.891   3.953   4.989  1.4413 -1.8024 -2.8602
  154SOL     vw  616   1.962   3.964   5.039 -0.0989 -0.4338 -0.8080
  155SOL     ow  617   4.632   1.480   6.600  0.0268  0.0701 -0.2109
  155SOL     hw  618   4.713   1.431   6.613 -0.1476 -0.0800  0.3233
  155SOL     hw  619   4.589   1.480   6.685 -0.0292  1.0584 -0.2210
  155SOL     vw  620   4.637   1.473   6.613 -0.0038  0.1808 -0.1416
  156SOL     ow  621   0.517   1.896   1.699 -0.2658 -0.2400  0.0928
  156SOL     hw  622   0.589   1.952   1.668  0.7895 -1.0448  1.0019
  156SOL     hw  623   0.465   1.955   1.754 -0.2165  0.3103 -0.4297
  156SOL     vw  624   0.520   1.911   1.702 -0.1201 -0.2736  0.1438
  157SOL     ow  625   0.202   2.729   1.849  0.0181  0.5208  0.5122
  157SOL     hw  626   0.264   2.664   1.815 -0.9032  1.1583 -2.7560
  157SOL     hw  627   0.253   2.779   1.914  2.0677 -0.7219 -0.0350
  157SOL     vw  628   0.217   2.727   1.853  0.1670  0.4410  0.0088
  158SOL     ow  629   3.144   0.907   6.590 -0.2588  0.6855  0.6732
  158SOL     hw  630   3.185   0.833   6.546 -1.6286  0.0548  0.3943
  158SOL     hw  631   3.056   0.911   6.552 -0.8040  1.3683  1.9426
  158SOL     vw  632   3.138   0.898   6.579 -0.5115  0.6924  0.8039
  159SOL     ow  633   3.133   2.440   0.579 -0.0492  0.5308  0.6349
  159SOL     hw  634   3.204   2.379   0.559 -0.4708  0.1422  0.2966
  159SOL     hw  635   3.119   2.489   0.498 -0.4335  0.3302  0.5778
  159SOL     vw  636   3.141   2.439   0.566 -0.1556  0.4530  0.5828
  160SOL     ow  637   4.662   4.541   5.474 -0.6212  0.5748  0.0872
  160SOL     hw  638   4.688   4.602   5.543  1.6702  1.7391 -1.6644
  160SOL     hw  639   4.584   4.581   5.435  0.7568  2.4554 -0.9424
  160SOL     vw  640   4.655   4.554   5.478 -0.1371  0.9766 -0.2799
  161SOL     ow  641   2.962   0.182   0.269 -0.0006 -0.1501 -0.2627
  161SOL     hw  642   2.984   0.274   0.258 -1.1312  0.0767 -0.7924
  161SOL     hw  643   2.895   0.181   0.337  1.1624 -0.7647  0.9282
  161SOL     vw  644   2.956   0.194   0.276  0.0037 -0.2012 -0.1755
  162SOL     ow  645   3.616   0.542   1.967 -0.8256 -1.0858 -0.0806
  162SOL     hw  646   3.526   0.550   1.936 -0.9443 -1.7732  0.0775
  162SOL     hw  647   3.657   0.479   1.908 -0.6027 -1.1828  0.1740
  162SOL     vw  648   3.610   0.535   1.955 -0.8121 -1.1893 -0.0260
  163SOL     ow  649   4.650   3.839   0.132  0.6240 -0.1591  0.6422
  163SOL     hw  650   4.712   3.769   0.154 -0.7159 -2.7843 -3.0722
  163SOL     hw  651   4.696   3.892   0.066  0.3126  0.3400  0.8190
  163SOL     vw  652   4.665   3.837   0.126  0.4060 -0.4395  0.1755
  164SOL     ow  653   6.275   4.039   1.656  0.2899  0.1828 -0.3163
  164SOL     hw  654   6.211   4.048   1.585 -1.1560 -0.5093  0.8522
  164SOL     hw  655   6.260   4.115   1.712 -0.1444 -0.4412  0.4352
  164SOL     vw  656   6.264   4.050   1.654  0.0420  0.0091 -0.0630
  165SOL     ow  657   3.012   0.978   5.875  0.6436 -0.5966 -0.5432
  165SOL     hw  658   3.048   0.988   5.963 -1.8200 -1.3400  0.6446
  165SOL     hw  659   3.035   1.059   5.830  1.1222  0.2206  1.0960
  165SOL     vw  660   3.020   0.990   5.880  0.3817 -0.5869 -0.1705
  166SOL     ow  661   4.143   1.309   5.126  0.1972  0.1095 -0.0612
  166SOL     hw  662   4.066   1.365   5.131  0.3820  0.3221  0.5321
  166SOL     hw  663   4.107   1.220   5.123 -0.2201  0.2481 -3.8940
  166SOL     vw  664   4.128   1.304   5.127  0.1667  0.1559 -0.4888
  167SOL     ow  665   4.278   1.532   4.904 -0.1570 -0.5395 -0.2238
  167SOL     hw  666   4.332   1.539   4.825  0.1383 -0.3904 -0.0106
  167SOL     hw  667   4.199   1.581   4.883  1.0066  1.8219  0.5118
  167SOL     vw  668   4.275   1.539   4.890  0.0358 -0.2083 -0.0987
  168SOL     ow  669   5.026   3.742   3.576 -0.0367 -0.2031  0.4395
  168SOL     hw  670   5.006   3.736   3.669  1.7559  0.5538  0.9146
  168SOL     hw  671   4.970   3.812   3.543 -0.5981 -0.4006  0.9690
  168SOL     vw  672   5.016   3.751   3.584  0.1254 -0.1293  0.5720
  169SOL     ow  673   6.742   4.052   1.222 -0.6204 -0.4865 -0.1512
  169SOL     hw  674   6.731   4.131   1.169  1.4951 -1.0009 -1.4957
  169SOL     hw  675   6.788   4.083   1.301  2.5158 -0.5806 -1.7713
  169SOL     vw  676   6.747   4.067   1.226  0.0722 -0.5670 -0.5423
  170SOL     ow  677   4.638   0.944   1.656 -0.2257  0.3487  0.4548
  170SOL     hw  678   4.648   1.014   1.721 -1.8682 -0.2788  1.4338
  170SOL     hw  679   4.603   0.870   1.705 -2.1681  0.0650 -1.2228
  170SOL     vw  680   4.635   0.944   1.671 -0.6988  0.2285  0.3627
  171SOL     ow  681   5.853   6.608   0.354 -0.0027 -0.3812  0.1519
  171SOL     hw  682   5.830   6.685   0.302  2.6394  1.3781  1.3497
  171SOL     hw  683   5.819   6.627   0.442  0.9373 -0.4067  0.5308
  171SOL     vw  684   5.845   6.621   0.359  0.4699 -0.1526  0.3599
  172SOL     ow  685   4.295   0.155   6.405 -0.2902  0.1000 -1.6084
  172SOL     hw  686   4.354   0.224   6.437  0.1289 -2.2953  3.7546
  172SOL     hw  687   4.207   0.190   6.419 -0.0762 -0.0380  0.3554
  172SOL     vw  688   4.291   0.169   6.411 -0.2065 -0.2342 -0.6418
  173SOL     ow  689   3.692   3.169   2.182 -0.2931 -0.1629  0.0408
  173SOL     hw  690   3.647   3.198   2.102  1.7969 -2.2012 -2.0096
  173SOL     hw  691   3.648   3.088   2.207  0.6324 -0.8670 -0.5550
  173SOL     vw  692   3.680   3.162   2.175  0.1048 -0.5248 -0.3084
  174SOL     ow  693   0.199   4.267   3.706  0.3775  0.0385 -0.5134
  174SOL     hw  694   0.260   4.199   3.676 -0.8119 -2.1478  1.6327
  174SOL     hw  695   0.154   4.295   3.626 -1.7302 -4.5055 -1.2827
  174SOL     vw  696   0.201   4.262   3.692 -0.0575 -0.8495 -0.3319
  175SOL     ow  697   5.079   1.107   5.861  0.0738  0.1253 -1.0506
  175SOL     hw  698   5.002   1.125   5.915  0.4196 -0.6810 -0.2671
  175SOL     hw  699   5.147   1.080   5.924  0.7569  0.0602 -1.8001
  175SOL     vw  700   5.078   1.106   5.877  0.2096  0.0103 -1.0462
  176SOL     ow  701   6.174   5.522   2.120 -0.2684  1.0516  1.1002
  176SOL     hw  702   6.091   5.562   2.092  0.0785  1.0795  0.0594
  176SOL     hw  703   6.235   5.596   2.123 -0.2021  0.9758  1.5175
  176SOL     vw  704   6.171   5.537   2.116 -0.2139  1.0452  1.0179
  177SOL     ow  705   2.834   3.293   2.002 -0.0591  0.2096  0.0601
  177SOL     hw  706   2.811   3.219   2.058 -0.3828 -0.4228 -0.8899
  177SOL     hw  707   2.900   3.258   1.942 -0.6761  0.5091 -0.8107
  177SOL     vw  708   2.840   3.279   2.001 -0.1832  0.1657 -0.1801
  178SOL     ow  709   5.224   4.655   5.862 -0.1419  0.2413  0.5862
  178SOL     hw  710   5.176   4.580   5.827  0.4413 -0.7470  1.8287
  178SOL     hw  711   5.162   4.699   5.920 -0.4236  0.6077  0.0080
  178SOL     vw  712   5.210   4.651   5.865 -0.1018  0.1595  0.6735
  179SOL     ow  713   3.688   6.342   6.273  0.1402 -0.1875 -0.9956
  179SOL     hw  714   3.712   6.359   6.181  1.7723 -1.3362 -0.8278
  179SOL     hw  715   3.769   6.358   6.321 -0.8821  1.1336  0.3836
  179SOL     vw  716   3.702   6.347   6.267  0.2207 -0.1650 -0.7915
  180SOL     ow  717   2.164   0.864   6.291 -0.4847 -0.1044 -0.4573
  180SOL     hw  718   2.192   0.792   6.348 -0.2817 -1.4116 -2.1364
  180SOL     hw  719   2.069   0.858   6.289 -0.4603 -0.4222 -0.7087
  180SOL     vw  720   2.155   0.853   6.298 -0.4548 -0.3188 -0.7122
  181SOL     ow  721   4.210   2.595   0.361  0.1439  0.9827  0.4141
  181SOL     hw  722   4.152   2.661   0.323  1.4681 -0.8416 -5.9902
  181SOL     hw  723   4.298   2.626   0.340  0.9361 -1.2663  0.1940
  181SOL     vw  724   4.214   2.608   0.353  0.4234  0.4452 -0.4599
  182SOL     ow  725   4.258   0.848   6.708  0.6731  0.0617  0.0039
  182SOL     hw  726   4.184   0.827   6.651  2.5822  0.2966 -2.7490
  182SOL     hw  727   4.218   0.890   6.784 -1.9055  2.0756 -2.2599
  182SOL     vw  728   4.243   0.851   6.710  0.5848  0.3584 -0.6578
  183SOL     ow  729   1.975   5.444   5.822  0.1255 -0.0184 -0.0223
  183SOL     hw  730   2.063   5.440   5.786  0.2730  1.4066  0.1101
  183SOL     hw  731   1.986   5.477   5.911 -0.5571  0.8402 -0.2279
  183SOL     vw  732   1.988   5.448   5.829  0.0549  0.2828 -0.0319
  184SOL     ow  733   4.084   0.996   5.894 -0.2201  0.9738  0.3381
  184SOL     hw  734   4.152   0.938   5.859 -0.3119  0.9243  0.2402
  184SOL     hw  735   4.132   1.073   5.924 -0.1714  1.1876 -0.2607
  184SOL     vw  736   4.100   0.999   5.893 -0.2258  0.9955  0.2460
  185SOL     ow  737   4.383   2.317   4.660 -0.3923 -0.6890  0.2703
  185SOL     hw  738   4.293   2.294   4.635  0.0449 -0.6648 -1.3819
  185SOL     hw  739   4.433   2.237   4.646  0.0981 -0.3144 -0.1450
  185SOL     vw  740   4.378   2.304   4.655 -0.2701 -0.6363 -0.0024
  186SOL     ow  741   2.083   1.171   6.336  0.0206  0.1499 -0.3837
  186SOL     hw  742   2.113   1.253   6.375 -0.4429  1.1338 -2.0321
  186SOL     hw  743   2.003   1.150   6.385  0.8369 -0.0472  0.9204
  186SOL     vw  744   2.076   1.179   6.348  0.0671  0.2537 -0.4292
  187SOL     ow  745   6.115   3.202   6.019  0.4635  0.6684 -0.4528
  187SOL     hw  746   6.122   3.296   6.000  2.9357  0.6669  0.1388
  187SOL     hw  747   6.066   3.198   6.101  0.9131  1.4891 -0.1312
  187SOL     vw  748   6.109   3.214   6.027  0.8490  0.7765 -0.3326
  188SOL     ow  749   5.706   5.827   5.572  0.4841 -0.6683 -0.1266
  188SOL     hw  750   5.795   5.837   5.539  0.6418 -2.5418 -0.3718
  188SOL     hw  751   5.693   5.733   5.580 -2.3575 -0.6601 -2.5560
  188SOL     vw  752   5.716   5.816   5.569  0.1304 -0.9143 -0.4795
  189SOL     ow  753   4.097   1.435   1.599  0.3152  0.0311 -0.1200
  189SOL     hw  754   4.183   1.478   1.603  0.6073 -0.6189  1.7794
  189SOL     hw  755   4.057   1.469   1.520  1.1446  2.6376  0.4880
  189SOL     vw  756   4.103   1.445   1.589  0.4630  0.2893  0.2109
  190SOL     ow  757   3.014   4.379   4.522 -0.3804  0.0691  0.1715
  190SOL     hw  758   2.945   4.390   4.457  0.2618  0.4112 -0.4615
  190SOL     hw  759   3.081   4.327   4.478 -0.3394 -0.4959  0.8705
  190SOL     vw  760   3.013   4.374   4.508 -0.2902  0.0396  0.1802
  191SOL     ow  761   0.913   0.779   1.798 -0.2820  0.5723  0.6461
  191SOL     hw  762   0.857   0.767   1.875  0.7743  1.4642  1.6034
  191SOL     hw  763   0.889   0.865   1.764 -2.1479 -0.6347 -1.2800
  191SOL     vw  764   0.903   0.788   1.804 -0.3888  0.5307  0.5184
  192SOL     ow  765   3.758   0.483   1.560  0.1376  0.3784  0.9944
  192SOL     hw  766   3.680   0.539   1.561 -0.2585 -0.1244  2.8042
  192SOL     hw  767   3.827   0.538   1.597  0.4142  0.5046  0.3061
  192SOL     vw  768   3.757   0.497   1.565  0.1218  0.3287  1.1423
  193SOL     ow  769   4.260   6.105   6.999  0.1890 -0.6987  0.2311
  193SOL     hw  770   4.219   6.153   6.927  1.4635 -0.0998 -0.1219
  193SOL     hw  771   4.297   6.173   7.055  1.8210 -1.2383 -0.1497
  193SOL     vw  772   4.260   6.121   6.997  0.5727 -0.6907  0.1342
  194SOL     ow  773   2.707   3.916   3.176 -0.9822  0.1664  0.3271
  194SOL     hw  774   2.752   3.966   3.109  1.4531  0.3912  1.9814
  194SOL     hw  775   2.773   3.855   3.209 -2.1479 -0.1440  2.2760
  194SOL     vw  776   2.722   3.914   3.172 -0.8147  0.1550  0.8025
  195SOL     ow  777   6.397   3.122   5.896  0.0218  0.4914 -0.4715
  195SOL     hw  778   6.450   3.182   5.949  1.0230 -0.5427 -0.2482
  195SOL     hw  779   6.420   3.143   5.806 -0.8153  1.4786 -0.4709
  195SOL     vw  780   6.407   3.132   5.891  0.0432  0.4853 -0.4418
  196SOL     ow  781   6.853   6.088   2.544  0.4058 -0.5251 -0.3150
  196SOL     hw  782   6.865   6.135   2.461 -0.8361 -0.9190 -0.7412
  196SOL     hw  783   6.900   6.005   2.531  2.7273  0.5729  0.4921
  196SOL     vw  784   6.861   6.083   2.531  0.5484 -0.4325 -0.2646
  197SOL     ow  785   1.591   2.524   0.129 -0.4130 -0.8359 -0.4383
  197SOL     hw  786   1.527   2.523   0.057  0.0850 -0.5919 -0.8965
  197SOL     hw  787   1.670   2.561   0.089 -1.0506  2.4905  1.0658
  197SOL     vw  788   1.593   2.528   0.114 -0.4314 -0.3648 -0.3003
  198SOL     ow  789   0.549   2.229   6.829  0.4636  0.9294 -0.2190
  198SOL     hw  790   0.522   2.152   6.879  1.1776  1.3323  0.8221
  198SOL     hw  791   0.638   2.208   6.800  0.3524  1.0285 -0.6286
  198SOL     vw  792   0.557   2.216   6.832  0.5431  0.9956 -0.1357
  199SOL     ow  793   2.576   0.211   2.819  0.2365  0.3991 -0.6374
  199SOL     hw  794   2.662   0.252   2.833 -0.1599  1.5236 -1.3262
  199SOL     hw  795   2.554   0.235   2.729 -0.8803  0.2721 -0.4035
  199SOL     vw  796   2.585   0.220   2.809  0.0370  0.5307 -0.6975
  200SOL     ow  797   2.440   2.879   5.188 -0.4588 -0.4074 -0.4294
  200SOL     hw  798   2.526   2.845   5.214  0.3001  1.3593 -0.4751
  200SOL     hw  799   2.380   2.845   5.254  0.5989 -0.1950  0.6800
  200SOL     vw  800   2.443   2.870   5.201 -0.2191 -0.1463 -0.2892
  201SOL     ow  801   1.856   3.013   0.943 -0.3692 -0.3323  0.2448
  201SOL     hw  802   1.882   2.995   1.033 -0.1680  1.4807  0.5893
  201SOL     hw  803   1.776   2.962   0.930  0.2327 -1.5352  1.0400
  201SOL     vw  804   1.849   3.004   0.953 -0.2632 -0.2518  0.3952
  202SOL     ow  805   4.881   3.708   1.084  0.1372  1.2310  0.0435
  202SOL     hw  806   4.786   3.711   1.101 -0.0326  0.7958 -0.7774
  202SOL     hw  807   4.888   3.682   0.992  1.0632  1.2351  0.1048
  202SOL     vw  808   4.869   3.705   1.074  0.2370  1.1741 -0.0566
  203SOL     ow  809   6.124   0.927   1.780 -0.5265 -0.4951 -0.5827
  203SOL     hw  810   6.085   0.913   1.865  2.4208  0.9343  1.1811
  203SOL     hw  811   6.219   0.926   1.796  0.1509  1.8598 -3.3940
  203SOL     vw  812   6.131   0.925   1.793 -0.0482  0.0042 -0.7209
  204SOL     ow  813   6.282   0.970   6.148 -0.2291 -0.1975 -0.0663
  204SOL     hw  814   6.252   1.061   6.155 -0.3178 -0.1899 -0.5231
  204SOL     hw  815   6.363   0.975   6.098 -0.0113 -0.3300  0.2689
  204SOL     vw  816   6.289   0.983   6.143 -0.2122 -0.2140 -0.0825
  205SOL     ow  817   5.063   5.015   4.246 -0.1609 -0.7372 -0.4352
  205SOL     hw  818   5.019   4.955   4.306 -2.2372 -0.4416 -1.5518
  205SOL     hw  819   5.049   4.976   4.159 -1.7288  1.3709 -1.2136
  205SOL     vw  820   5.055   5.002   4.242 -0.6418 -0.4201 -0.6850
  206SOL     ow  821   3.584   3.988   2.828 -0.3577 -0.0719  0.6166
  206SOL     hw  822   3.587   3.917   2.892  4.0058 -0.0297  0.7462
  206SOL     hw  823   3.515   3.963   2.767 -0.9026 -2.9233  2.2545
  206SOL     vw  824   3.576   3.976   2.828  0.1460 -0.4426  0.8497
  207SOL     ow  825   3.889   4.437   5.805  0.1181 -0.1587  0.2484
  207SOL     hw  826   3.911   4.476   5.890  1.8088 -1.6952  0.5810
  207SOL     hw  827   3.953   4.475   5.744 -1.8788  1.9250 -0.7040
  207SOL     vw  828   3.901   4.447   5.808  0.0777 -0.0863  0.1667
  208SOL     ow  829   1.946   6.701   5.094 -0.3165 -0.2810 -0.5167
  208SOL     hw  830   1.907   6.679   5.179  0.1097 -0.6385 -0.4111
  208SOL     hw  831   1.872   6.732   5.041 -0.8572 -1.5423 -0.5253
  208SOL     vw  832   1.931   6.702   5.098 -0.3316 -0.4945 -0.5038
  209SOL     ow  833   4.765   2.317   1.100 -0.4801  0.0969 -0.1901
  209SOL     hw  834   4.700   2.361   1.046 -0.0700 -0.9811 -1.6199
  209SOL     hw  835   4.777   2.231   1.058  1.4016  0.0367  0.3845
  209SOL     vw  836   4.758   2.311   1.087 -0.1776 -0.0534 -0.3030
  210SOL     ow  837   1.715   2.789   5.548 -0.0172  0.3602 -0.0328
  210SOL     hw  838   1.688   2.835   5.628  1.9082 -1.4791  1.8189
  210SOL     hw  839   1.809   2.807   5.540  0.4241 -1.7215 -0.2304
  210SOL     vw  840   1.724   2.797   5.558  0.2950 -0.1571  0.1857
  211SOL     ow  841   1.533   1.677   1.531 -0.0754  0.0094  0.0281
  211SOL     hw  842   1.490   1.611   1.477  1.0222  0.3570 -1.3157
  211SOL     hw  843   1.615   1.636   1.558  0.6894  0.8527 -0.9477
  211SOL     vw  844   1.538   1.663   1.528  0.1704  0.1665 -0.2779
  212SOL     ow  845   0.428   1.503   5.647 -0.3488  0.2030  0.7790
  212SOL     hw  846   0.458   1.412   5.654 -1.4888 -0.2152  0.4435
  212SOL     hw  847   0.335   1.499   5.669 -0.0430  1.5848  2.5300
  212SOL     vw  848   0.420   1.490   5.651 -0.4589  0.3301  0.9656
  213SOL     ow  849   6.083   0.396   2.398 -1.1083  0.2001 -0.5076
  213SOL     hw  850   6.080   0.419   2.306 -0.7260  0.5897 -0.4270
  213SOL     hw  851   6.028   0.461   2.441 -1.1542  0.1186 -0.4422
  213SOL     vw  852   6.076   0.407   2.392 -1.0638  0.2408 -0.4884
  214SOL     ow  853   2.072   0.802   2.890 -0.3577  0.3767  0.1803
  214SOL     hw  854   2.104   0.714   2.867 -1.3143  0.0316  0.1331
  214SOL     hw  855   2.100   0.857   2.816 -0.2969 -0.0159 -0.0926
  214SOL     vw  856   2.080   0.798   2.877 -0.4760  0.2794  0.1380
  215SOL     ow  857   4.817   2.629   5.751 -0.7788  0.5729 -0.6776
  215SOL     hw  858   4.813   2.701   5.814 -0.1966  1.8978 -2.0711
  215SOL     hw  859   4.749   2.650   5.687  0.2012  0.5809 -1.7551
  215SOL     vw  860   4.808   2.641   5.751 -0.5727  0.7489 -1.0037
  216SOL     ow  861   1.516   2.489   5.606  0.8376 -0.0821 -0.2139
  216SOL     hw  862   1.421   2.492   5.594  1.0555 -0.1657 -2.4731
  216SOL     hw  863   1.535   2.396   5.620  0.5480  0.0007  0.7617
  216SOL     vw  864   1.506   2.477   5.606  0.8281 -0.0823 -0.3831
  217SOL     ow  865   5.439   5.925   6.114 -0.3204  0.5917 -0.0977
  217SOL     hw  866   5.465   6.006   6.070 -0.0779 -0.4149 -1.9055
  217SOL     hw  867   5.474   5.855   6.059 -0.8612 -0.7605  1.2004
  217SOL     vw  868   5.447   5.927   6.101 -0.3595  0.2806 -0.1652
  218SOL     ow  869   2.733   6.930   0.048  0.2146 -0.3142  0.1917
  218SOL     hw  870   2.672   6.880   0.102  0.5115  0.0237  0.8567
  218SOL     hw  871   2.702   7.021   0.054  0.1794 -0.2879 -0.3127
  218SOL     vw  872   2.721   6.936   0.056  0.2490 -0.2661  0.2129
  219SOL     ow  873   5.653   6.906   5.749  0.0960  0.0618 -0.5334
  219SOL     hw  874   5.713   6.853   5.802  1.1214  1.1234 -0.6144
  219SOL     hw  875   5.576   6.917   5.805 -0.3287 -1.8361 -0.6666
  219SOL     vw  876   5.650   6.900   5.763  0.1752 -0.0482 -0.5615
  220SOL     ow  877   4.160   5.816   3.107 -0.0416  0.5064 -0.3040
  220SOL     hw  878   4.169   5.781   3.018 -1.2144  1.9987 -1.0469
  220SOL     hw  879   4.082   5.871   3.104  0.8872  1.9954  1.1848
  220SOL     vw  880   4.151   5.818   3.095 -0.0737  0.8998 -0.2054
  221SOL     ow  881   5.954   0.712   3.978  0.2683  1.0384 -0.5798
  221SOL     hw  882   5.868   0.740   3.945 -0.0554 -0.8028 -1.4230
  221SOL     hw  883   6.002   0.794   3.992 -1.3135  2.0715 -0.9269
  221SOL     vw  884   5.949   0.726   3.975  0.0169  0.9317 -0.7368
  222SOL     ow  885   5.987   5.207   4.028  0.6233  0.1809 -0.9903
  222SOL     hw  886   6.061   5.254   4.066 -0.2694  2.2708 -1.6847
  222SOL     hw  887   5.910   5.247   4.067 -0.1925 -1.5208 -0.7686
  222SOL     vw  888   5.987   5.218   4.038  0.3977  0.2322 -1.0526
  223SOL     ow  889   5.585   2.157   3.324 -0.6738  0.6010  0.5877
  223SOL     hw  890   5.554   2.246   3.344 -0.6102  0.5941  0.7228
  223SOL     hw  891   5.602   2.119   3.410 -1.4675  0.1819  0.5698
  223SOL     vw  892   5.583   2.164   3.338 -0.7701  0.5449  0.6033
  224SOL     ow  893   0.108   2.853   3.651 -0.4396  0.2142 -0.3008
  224SOL     hw  894   0.016   2.848   3.628 -0.3921  0.0497 -0.4603
  224SOL     hw  895   0.114   2.926   3.713 -0.4682  1.1129 -1.3181
  224SOL     vw  896   0.097   2.862   3.657 -0.4371  0.3110 -0.4562
  225SOL     ow  897   0.893   1.030   1.708  0.8185  0.2852 -0.6012
  225SOL     hw  898   0.851   1.078   1.779  1.5334  1.1011 -0.7132
  225SOL     hw  899   0.944   1.096   1.660 -1.4756  0.2759 -3.3397
  225SOL     vw  900   0.894   1.045   1.711  0.6101  0.3916 -0.9772
  226SOL     ow  901   0.082   3.781   0.992 -0.1741 -0.6947 -0.7476
  226SOL     hw  902   0.063   3.689   1.012  0.4732 -0.6928 -0.0941
  226SOL     hw  903   0.174   3.792   1.014  0.4077 -0.4682 -3.0326
  226SOL     vw  904   0.091   3.770   0.998 -0.0119 -0.6646 -0.9628
  227SOL     ow  905   5.814   2.377   5.436  0.2561 -0.1394 -0.2275
  227SOL     hw  906   5.795   2.360   5.528 -1.2771 -0.6261 -0.6065
  227SOL     hw  907   5.783   2.467   5.421 -3.3488 -1.3770 -1.1714
  227SOL     vw  908   5.808   2.387   5.446 -0.4218 -0.3670 -0.4020
  228SOL     ow  909   1.029   3.622   1.782  0.3924  0.1473  0.3500
  228SOL     hw  910   1.018   3.661   1.695 -1.7933  0.1585  0.5788
  228SOL     hw  911   1.118   3.646   1.808  0.8471  0.7099 -1.5991
  228SOL     vw  912   1.039   3.630   1.774  0.1640  0.2229  0.1230
  229SOL     ow  913   5.785   2.800   1.522 -0.0843 -0.1087 -0.3023
  229SOL     hw  914   5.701   2.773   1.559  0.8248 -0.7055  1.4400
  229SOL     hw  915   5.769   2.888   1.487 -2.3637 -1.6301 -3.5311
  229SOL     vw  916   5.772   2.808   1.522 -0.2651 -0.3881 -0.4985
  230SOL     ow  917   5.013   5.072   6.681 -0.0019 -0.0984 -0.6659
  230SOL     hw  918   5.014   5.029   6.596  1.5759 -1.6499  0.0640
  230SOL     hw  919   4.960   5.014   6.737 -1.7101  1.3130 -0.7279
  230SOL     vw  920   5.006   5.059   6.677 -0.0193 -0.1171 -0.5779
  231SOL     ow  921   3.190   1.736   0.296  0.0125 -0.3753  0.8327
  231SOL     hw  922   3.267   1.733   0.352  0.7201 -1.8374 -0.1577
  231SOL     hw  923   3.191   1.653   0.249 -2.2267 -0.4700  0.8452
  231SOL     vw  924   3.200   1.725   0.297 -0.1898 -0.5808  0.7037
  232SOL     ow  925   3.108   1.780   3.281 -0.7574 -0.1120  0.3555
  232SOL     hw  926   3.023   1.822   3.295 -0.5147 -0.4824  3.5560
  232SOL     hw  927   3.170   1.835   3.328  0.0416 -2.2562  1.9546
  232SOL     vw  928   3.105   1.793   3.289 -0.6200 -0.4438  0.9888
  233SOL     ow  929   5.414   3.263   2.925  0.1528  0.1398  0.2725
  233SOL     hw  930   5.424   3.353   2.893 -0.2610  0.7884  1.8601
  233SOL     hw  931   5.319   3.250   2.928  0.2128 -0.7606 -0.9583
  233SOL     vw  932   5.402   3.273   2.921  0.1063  0.1066  0.3196
  234SOL     ow  933   4.634   1.184   2.626 -0.2735  0.5435 -0.0502
  234SOL     hw  934   4.660   1.238   2.700  5.3556 -1.4555 -0.1091
  234SOL     hw  935   4.591   1.108   2.665  0.3741  0.6787  0.9443
  234SOL     vw  936   4.632   1.181   2.641  0.5548  0.2975  0.0733
  235SOL     ow  937   2.085   1.483   3.741  0.5611 -0.1444 -0.8519
  235SOL     hw  938   2.164   1.483   3.686  1.9467  3.0380  0.8446
  235SOL     hw  939   2.039   1.564   3.716 -0.3941 -0.2441  0.5109
  235SOL     vw  940   2.090   1.494   3.730  0.6179  0.2623 -0.4485
  236SOL     ow  941   6.388   1.957   0.190  0.0994 -0.4200 -0.6479
  236SOL     hw  942   6.419   1.890   0.130 -0.1858 -0.1053 -1.1501
  236SOL     hw  943   6.308   1.991   0.150  1.2515  1.5649 -1.3995
  236SOL     vw  944   6.382   1.953   0.177  0.2136 -0.1166 -0.8133
  237SOL     ow  945   5.245   0.121   6.620  0.0282  0.3692  0.5346
  237SOL     hw  946   5.188   0.046   6.601  0.9628 -0.1259 -0.3821
  237SOL     hw  947   5.207   0.193   6.569  1.1770 -0.3840 -1.4926
  237SOL     vw  948   5.232   0.121   6.611  0.3033  0.2045  0.1462
  238SOL     ow  949   0.329   2.473   5.230 -0.2022 -0.2901  0.0217
  238SOL     hw  950   0.307   2.381   5.215 -1.0526  0.0876 -1.2167
  238SOL     hw  951   0.422   2.472   5.252 -0.7210 -1.6513  2.4546
  238SOL     vw  952   0.338   2.461   5.231 -0.3829 -0.4199  0.1795
  239SOL     ow  953   6.361   5.595   0.344  0.2256 -0.0255  0.6366
  239SOL     hw  954   6.391   5.541   0.418 -3.3066 -0.7757  1.6825
  239SOL     hw  955   6.298   5.655   0.383 -2.0633 -0.7204 -1.7779
  239SOL     vw  956   6.357   5.596   0.359 -0.5426 -0.2160  0.4560
  240SOL     ow  957   2.744   5.963   4.153  0.2180  0.2388 -0.2042
  240SOL     hw  958   2.742   5.876   4.193  0.2431  1.1049  1.7945
  240SOL     hw  959   2.721   5.948   4.061  0.4465 -1.8886  0.0411
  240SOL     vw  960   2.741   5.949   4.146  0.2515  0.0725  0.0920
  241SOL     ow  961   1.017   4.320   1.341 -0.3134  0.1168  0.6844
  241SOL     hw  962   0.975   4.404   1.324 -0.2049 -0.3716 -2.7790
  241SOL     hw  963   0.996   4.267   1.264  1.5992 -2.2332  1.6492
  241SOL     vw  964   1.008   4.324   1.329 -0.0467 -0.2577  0.3547
  242SOL     ow  965   2.618   2.757   2.901  0.4795  0.2498  0.5332
  242SOL     hw  966   2.542   2.768   2.958 -0.3071  3.8006 -0.9393
  242SOL     hw  967   2.685   2.815   2.938  1.7902 -1.2296  0.6053
  242SOL     vw  968   2.617   2.766   2.913  0.5485  0.5231  0.3484
  243SOL     ow  969   4.226   3.851   2.458 -0.1666  0.3968 -0.3291
  243SOL     hw  970   4.150   3.804   2.492 -0.2473  0.6343 -0.1722
  243SOL     hw  971   4.292   3.842   2.527 -0.1120  0.3350 -0.3901
  243SOL     vw  972   4.224   3.844   2.472 -0.1700  0.4200 -0.3164
  244SOL     ow  973   1.917   4.090   0.299 -0.1631  0.0428 -0.3262
  244SOL     hw  974   2.002   4.110   0.261 -0.8282  1.6080 -1.0748
  244SOL     hw  975   1.884   4.173   0.331 -0.3645 -0.9556  2.2688
  244SOL     vw  976   1.924   4.103   0.298 -0.2775  0.1175 -0.0826
  245SOL     ow  977   3.566   0.417   5.279 -0.0593  0.5547  0.0090
  245SOL     hw  978   3.598   0.453   5.362 -0.6776 -1.5354  1.2463
  245SOL     hw  979   3.505   0.483   5.247 -0.0153  1.3139  1.3840
  245SOL     vw  980   3.562   0.430   5.286 -0.1351  0.3792  0.3538
  246SOL     ow  981   1.797   4.775   2.866 -0.0657  0.0636  0.8879
  246SOL     hw  982   1.777   4.866   2.844  1.3311  0.6244  1.7766
  246SOL     hw  983   1.838   4.739   2.787  0.9711  0.7544  1.0921
  246SOL     vw  984   1.800   4.782   2.852  0.2553  0.2286  1.0321
  247SOL     ow  985   4.964   0.922   4.177 -0.4421 -0.0355 -0.5708
  247SOL     hw  986   5.040   0.884   4.221  0.4759  2.8249  0.5760
  247SOL     hw  987   4.970   0.891   4.087  2.2516  0.2499 -0.5771
  247SOL     vw  988   4.975   0.913   4.171  0.0346  0.3796 -0.4203
  248SOL     ow  989   0.894   0.511   4.786  0.0411  0.4564 -0.7967
  248SOL     hw  990   0.858   0.431   4.748 -0.1013 -1.8080  3.5683
  248SOL     hw  991   0.819   0.571   4.790 -0.8131 -0.6006 -0.6806
  248SOL     vw  992   0.879   0.508   4.781 -0.0905  0.0182 -0.2055
  249SOL     ow  993   6.180   2.394   2.021 -0.0151  0.1754 -0.3890
  249SOL     hw  994   6.156   2.425   1.934  0.6098  1.1288 -0.2384
  249SOL     hw  995   6.112   2.330   2.044  0.6532 -1.3051 -2.2131
  249SOL     vw  996   6.168   2.389   2.013  0.1554  0.1057 -0.6099
  250SOL     ow  997   0.549   5.691   0.102 -0.0104 -0.2895 -0.1985
  250SOL     hw  998   0.483   5.629   0.132  1.2679 -1.5920  0.0259
  250SOL     hw  999   0.499   5.766   0.070 -1.5550 -0.8033  0.8846
  250SOL     vw 1000   0.534   5.693   0.102 -0.0455 -0.5291 -0.0260
  251SOL     ow 1001   4.917   6.004   1.247  0.3663  0.2582 -0.2088
  251SOL     hw 1002   4.865   5.923   1.252  0.5852  0.1539  0.5816
  251SOL     hw 1003   5.006   5.974   1.229  0.0508  0.4858 -2.4816
  251SOL     vw 1004   4.922   5.989   1.245  0.3538  0.2744 -0.4044
  252SOL     ow 1005   2.966   4.081   4.663 -1.0374 -0.1299  0.1576
  252SOL     hw 1006   2.877   4.076   4.627 -2.1222  4.8495  1.3107
  252SOL     hw 1007   2.956   4.051   4.753 -1.7247  0.7563  0.3982
  252SOL     vw 1008   2.953   4.077   4.670 -1.2714  0.6440  0.3414
  253SOL     ow 1009   6.738   2.067   4.336 -0.5030 -0.4575 -0.1557
  253SOL     hw 1010   6.725   2.160   4.354  0.1318 -0.2820 -0.5501
  253SOL     hw 1011   6.754   2.027   4.421  2.2769  0.3211 -0.2091
  253SOL     vw 1012   6.739   2.074   4.349 -0.0525 -0.3315 -0.2148
  254SOL     ow 1013   2.720   6.008   0.671 -0.1845 -0.3444  0.0518
  254SOL     hw 1014   2.746   5.917   0.678 -2.7792 -1.1739 -0.0315
  254SOL     hw 1015   2.764   6.040   0.592  0.8058 -1.4609  0.1266
  254SOL     vw 1016   2.729   6.000   0.661 -0.3963 -0.6013  0.0506
  255SOL     ow 1017   6.531   4.937   0.288 -0.1481  0.6593 -0.0973
  255SOL     hw 1018   6.605   4.985   0.251  0.5324  0.9066  1.5243
  255SOL     hw 1019   6.502   4.990   0.362 -0.1190 -0.8251  1.0323
  255SOL     vw 1020   6.537   4.950   0.293 -0.0548  0.4959  0.2657
  256SOL     ow 1021   1.199   0.687   1.937  0.7809 -0.6902 -0.4941
  256SOL     hw 1022   1.152   0.632   2.001 -1.7712 -0.9513 -2.4218
  256SOL     hw 1023   1.274   0.721   1.985  0.1558 -2.5377  2.0070
  256SOL     vw 1024   1.203   0.684   1.952  0.3617 -0.9684 -0.4184
  257SOL     ow 1025   5.212   2.734   3.853  0.2532  0.7920 -0.1280
  257SOL     hw 1026   5.131   2.741   3.803  0.6361  1.4192 -0.6697
  257SOL     hw 1027   5.282   2.754   3.790  0.6356  3.8794  1.0894
  257SOL     vw 1028   5.211   2.737   3.838  0.3541  1.2821 -0.0387
  258SOL     ow 1029   2.880   3.493   0.264  0.1947 -0.5037 -0.4058
  258SOL     hw 1030   2.891   3.533   0.351 -0.6554 -3.0694  0.9704
  258SOL     hw 1031   2.937   3.546   0.207  0.5924  1.4348  1.6131
  258SOL     vw 1032   2.889   3.505   0.268  0.1351 -0.5863  0.0421
  259SOL     ow 1033   6.287   1.776   1.093  0.1008 -0.1068  0.2866
  259SOL     hw 1034   6.288   1.860   1.047  0.5981  0.2598  0.9500
  259SOL     hw 1035   6.295   1.799   1.186 -0.2923 -0.8631  0.5169
  259SOL     vw 1036   6.288   1.790   1.099  0.1142 -0.1582  0.4045
  260SOL     ow 1037   2.778   4.245   6.258 -0.1329  0.1870  0.4812
  260SOL     hw 1038   2.809   4.332   6.234  2.3384 -0.9487 -0.8458
  260SOL     hw 1039   2.838   4.216   6.326  2.0437 -2.1116 -2.1811
  260SOL     vw 1040   2.790   4.252   6.264  0.4804 -0.2663 -0.0453
  261SOL     ow 1041   4.365   5.693   3.896  0.5960  0.2585 -0.4284
  261SOL     hw 1042   4.281   5.664   3.861 -0.1363  1.7564 -0.0038
  261SOL     hw 1043   4.353   5.787   3.913  2.1842  0.3930  0.1470
  261SOL     vw 1044   4.353   5.702   3.893  0.7088  0.4740 -0.2965
  262SOL     ow 1045   5.241   6.834   3.044 -0.6059  0.0179 -0.2854
  262SOL     hw 1046   5.302   6.788   2.987  0.1320  1.5195 -0.7629
  262SOL     hw 1047   5.291   6.908   3.078 -1.1041 -0.6415  2.1252
  262SOL     vw 1048   5.256   6.838   3.041 -0.5741  0.1292 -0.0304
  263SOL     ow 1049   5.004   6.763   2.189 -0.2676 -0.1134  0.0104
  263SOL     hw 1050   5.050   6.846   2.175  1.1793 -1.0409 -0.9124
  263SOL     hw 1051   5.020   6.743   2.281 -2.4979  1.6837  0.8771
  263SOL     vw 1052   5.012   6.771   2.199 -0.3710  0.0012  0.0031
  264SOL     ow 1053   0.777   5.496   6.985  0.3227 -0.0465  0.2513
  264SOL     hw 1054   0.717   5.462   6.918  0.0742 -0.7354  0.8076
  264SOL     hw 1055   0.849   5.433   6.985  0.4630  0.1146  0.4295
  264SOL     vw 1056   0.779   5.483   6.976  0.3084 -0.1161  0.3481
  265SOL     ow 1057   4.155   0.608   4.398  0.0077  0.3493  0.1489
  265SOL     hw 1058   4.231   0.596   4.455  1.1782 -0.1463 -1.4332
  265SOL     hw 1059   4.192   0.614   4.310 -1.8525 -0.9924 -0.7993
  265SOL     vw 1060   4.170   0.607   4.394 -0.0832  0.1069 -0.1850
  266SOL     ow 1061   0.434   4.215   5.106  0.4275 -0.4562 -0.2729
  266SOL     hw 1062   0.417   4.304   5.137 -1.0747 -0.2063 -1.6591
  266SOL     hw 1063   0.478   4.172   5.179 -1.3613  0.5905  1.5164
  266SOL     vw 1064   0.437   4.221   5.120 -0.0067 -0.2854 -0.2196
  267SOL     ow 1065   6.576   1.720   5.540  0.5927 -0.0382  0.1510
  267SOL     hw 1066   6.633   1.795   5.555  1.0503  0.5302 -3.5253
  267SOL     hw 1067   6.618   1.648   5.587  0.9951  1.5932  2.4539
  267SOL     vw 1068   6.589   1.720   5.548  0.7062  0.2521 -0.0298
  268SOL     ow 1069   4.643   5.573   5.159  0.0214 -0.2043  0.2921
  268SOL     hw 1070   4.650   5.652   5.213  0.7272 -2.1419  3.2640
  268SOL     hw 1071   4.581   5.517   5.206  0.8196 -2.0961 -0.7865
  268SOL     vw 1072   4.636   5.576   5.173  0.2196 -0.7098  0.5419
  269SOL     ow 1073   0.152   5.363   3.433 -0.3993  0.4165  0.0870
  269SOL     hw 1074   0.130   5.404   3.350 -0.1091 -0.8728 -0.6620
  269SOL     hw 1075   0.152   5.435   3.497  0.8924  1.7014 -1.2913
  269SOL     vw 1076   0.149   5.378   3.431 -0.1906  0.4158 -0.1936
  270SOL     ow 1077   3.750   4.372   4.502  0.4673  0.1749  0.9134
  270SOL     hw 1078   3.783   4.343   4.588  1.1703  1.4811  1.0993
  270SOL     hw 1079   3.698   4.298   4.471  1.5679 -0.9876  1.7163
  270SOL     vw 1080   3.747   4.358   4.510  0.7052  0.1938  1.0438
  271SOL     ow 1081   2.623   4.808   5.132  0.5362  0.0521 -0.5407
  271SOL     hw 1082   2.718   4.816   5.130  0.5724  0.1703  0.7968
  271SOL     hw 1083   2.598   4.841   5.218 -0.8899  1.7885 -1.5388
  271SOL     vw 1084   2.632   4.814   5.143  0.3527  0.2971 -0.4959
  272SOL     ow 1085   3.800   4.054   2.970  0.3190  0.1286  0.4992
  272SOL     hw 1086   3.796   3.961   2.945 -0.2350  1.1582 -4.2585
  272SOL     hw 1087   3.886   4.083   2.939 -0.6665  1.7586 -0.8531
  272SOL     vw 1088   3.811   4.045   2.962  0.1160  0.4795 -0.3070
  273SOL     ow 1089   0.224   6.629   5.493 -0.5544 -0.2376 -0.0132
  273SOL     hw 1090   0.318   6.621   5.507 -0.7356 -1.6242  0.6748
  273SOL     hw 1091   0.201   6.715   5.528  0.6220  0.6554 -1.3450
  273SOL     vw 1092   0.233   6.639   5.500 -0.4231 -0.3028 -0.0982
  274SOL     ow 1093   5.452   6.054   0.764 -0.1610  0.6815  0.1084
  274SOL     hw 1094   5.495   6.026   0.683  2.8302 -0.1460  1.8051
  274SOL     hw 1095   5.369   6.007   0.765  1.3775 -2.3285 -0.7638
  274SOL     vw 1096   5.447   6.044   0.753  0.4363  0.1750  0.2172
  275SOL     ow 1097   1.964   5.749   0.814  0.5895 -0.4467  0.2594
  275SOL     hw 1098   1.971   5.653   0.811 -0.6816 -0.5938  1.1674
  275SOL     hw 1099   1.873   5.766   0.839  0.9655  0.9941  0.7655
  275SOL     vw 1100   1.952   5.738   0.817  0.4714 -0.2756  0.4460
  276SOL     ow 1101   6.716   3.189   1.519 -0.3077 -0.2940  0.5017
  276SOL     hw 1102   6.790   3.191   1.458 -0.4719 -0.7460  0.2827
  276SOL     hw 1103   6.749   3.233   1.597  0.5885 -1.5215  0.8360
  276SOL     vw 1104   6.730   3.195   1.521 -0.2110 -0.5156  0.5169
  277SOL     ow 1105   1.150   1.281   5.703  0.6508  0.5726 -0.4086
  277SOL     hw 1106   1.071   1.229   5.688  0.4685  1.4008 -2.6410
  277SOL     hw 1107   1.141   1.314   5.792 -1.4081  0.4782 -0.5447
  277SOL     vw 1108   1.138   1.278   5.713  0.3551  0.6695 -0.7215
  278SOL     ow 1109   5.550   0.550   6.080 -0.3261  0.1832  0.7544
  278SOL     hw 1110   5.551   0.496   6.000 -1.0649  1.4310 -0.1411
  278SOL     hw 1111   5.554   0.487   6.152  0.0325 -0.9969 -0.2568
  278SOL     vw 1112   5.551   0.535   6.079 -0.3765  0.1921  0.5031
  279SOL     ow 1113   2.988   1.327   3.880  0.1416 -0.5599  0.2336
  279SOL     hw 1114   2.928   1.363   3.946  0.7868 -2.5551  2.0157
  279SOL     hw 1115   2.985   1.233   3.895  2.7665 -0.8069 -0.4573
  279SOL     vw 1116   2.979   1.320   3.891  0.5730 -0.8557  0.3775
  280SOL     ow 1117   3.310   2.964   1.667 -0.1094  0.1669  0.5268
  280SOL     hw 1118   3.362   3.044   1.659  0.1503 -0.0299  0.1919
  280SOL     hw 1119   3.234   2.979   1.610  0.6065 -0.3390 -0.6131
  280SOL     vw 1120   3.307   2.977   1.658  0.0192  0.0743  0.3322
  281SOL     ow 1121   6.515   6.807   3.136  0.0309 -0.0406  0.0175
  281SOL     hw 1122   6.569   6.769   3.067 -0.6581 -0.8923 -0.0715
  281SOL     hw 1123   6.546   6.897   3.144 -0.3512  0.3105 -1.9039
  281SOL     vw 1124   6.526   6.813   3.128 -0.1101 -0.1063 -0.2478
  282SOL     ow 1125   6.240   5.311   6.130 -0.0427 -0.1602 -0.8425
  282SOL     hw 1126   6.221   5.405   6.132  0.2249 -0.0659 -2.0401
  282SOL     hw 1127   6.333   5.306   6.152 -0.2622 -0.2333  0.1264
  282SOL     vw 1128   6.250   5.323   6.133 -0.0365 -0.1576 -0.8726
  283SOL     ow 1129   0.608   2.535   6.811  0.1910 -0.6781 -0.5163
  283SOL     hw 1130   0.599   2.620   6.767 -0.1804 -0.5080 -0.1173
  283SOL     hw 1131   0.684   2.545   6.869 -1.0246  0.0512  1.0214
  283SOL     vw 1132   0.617   2.547   6.813 -0.0184 -0.5594 -0.2608
  284SOL     ow 1133   3.933   2.916   1.043 -0.2880 -0.3457 -0.8934
  284SOL     hw 1134   3.926   2.892   1.135 -1.7681  1.2809 -0.5459
  284SOL     hw 1135   3.953   2.833   0.998  0.1876 -1.2033  0.8324
  284SOL     vw 1136   3.935   2.902   1.049 -0.4205 -0.2443 -0.6199
  285SOL     ow 1137   1.125   0.983   1.927 -0.2124  0.0910 -0.3565
  285SOL     hw 1138   1.160   1.070   1.906 -0.1647  0.2233  0.2372
  285SOL     hw 1139   1.084   0.995   2.012  0.0393 -0.5344 -0.1441
  285SOL     vw 1140   1.125   0.996   1.935 -0.1729  0.0260 -0.2502
  286SOL     ow 1141   1.179   6.764   0.166  0.2381  0.8064  0.7178
  286SOL     hw 1142   1.230   6.757   0.247  0.2041 -1.2025  0.6039
  286SOL     hw 1143   1.242   6.798   0.102  0.7919  0.5845  1.1301
  286SOL     vw 1144   1.194   6.768   0.168  0.3067  0.5124  0.7572
  287SOL     ow 1145   2.505   1.770   4.532  0.0256  0.1125  0.0587
  287SOL     hw 1146   2.575   1.731   4.481 -0.2655 -0.6188  0.1982
  287SOL     hw 1147   2.432   1.778   4.470 -0.5267 -1.3424  0.4788
  287SOL     vw 1148   2.504   1.766   4.517 -0.0857 -0.1761  0.1323
  288SOL     ow 1149   5.813   0.274   1.661 -0.5270 -0.2428  0.6443
  288SOL     hw 1150   5.834   0.326   1.584 -1.0085  1.4787  1.6073
  288SOL     hw 1151   5.895   0.233   1.686  0.3819  1.6201  0.9285
  288SOL     vw 1152   5.826   0.276   1.654 -0.4706  0.2301  0.8089
  289SOL     ow 1153   6.106   5.493   4.509 -0.4018  0.1784  0.0220
  289SOL     hw 1154   6.036   5.546   4.469  0.5311  0.2347 -1.6136
  289SOL     hw 1155   6.185   5.516   4.460  0.2828 -1.8105  0.0915
  289SOL     vw 1156   6.107   5.503   4.497 -0.1886 -0.0765 -0.1843
  290SOL     ow 1157   4.790   6.591   2.097 -0.5617  0.2167  0.4318
  290SOL     hw 1158   4.753   6.630   2.018 -0.1177  0.7797  0.5001
  290SOL     hw 1159   4.778   6.497   2.085 -0.6963  0.3118 -0.2012
  290SOL     vw 1160   4.783   6.584   2.085 -0.5209  0.3035  0.3573
  291SOL     ow 1161   1.463   3.604   6.894  0.4083 -0.3191 -0.2031
  291SOL     hw 1162   1.440   3.697   6.885  1.4085  0.1580  1.7488
  291SOL     hw 1163   1.513   3.584   6.815 -0.0368  0.7219 -0.7658
  291SOL     vw 1164   1.466   3.614   6.882  0.4815 -0.1189 -0.0200
  292SOL     ow 1165   4.691   4.008   0.988  0.0979  0.2141  0.7410
  292SOL     hw 1166   4.677   4.000   0.894 -2.1415  3.5710  0.6090
  292SOL     hw 1167   4.714   4.100   1.002  1.7978 -0.4794  3.4033
  292SOL     vw 1168   4.692   4.019   0.978  0.0267  0.5655  1.0749
  293SOL     ow 1169   3.487   0.257   6.358  0.3950  0.2162 -0.3631
  293SOL     hw 1170   3.506   0.198   6.285 -0.0175 -0.5294  0.1139
  293SOL     hw 1171   3.572   0.283   6.392  0.5999 -1.0269  0.1311
  293SOL     vw 1172   3.501   0.252   6.353  0.3675 -0.0461 -0.2351
  294SOL     ow 1173   2.664   3.474   2.202 -0.5259 -0.3080 -0.1371
  294SOL     hw 1174   2.649   3.471   2.297  0.0911  0.9387  0.0127
  294SOL     hw 1175   2.605   3.542   2.170  2.5216  2.6704  0.0701
  294SOL     vw 1176   2.654   3.482   2.211 -0.0424  0.2494 -0.0900
  295SOL     ow 1177   3.703   0.275   4.519 -0.0903 -0.1996 -0.5051
  295SOL     hw 1178   3.677   0.265   4.427  0.6212  1.4481 -0.9251
  295SOL     hw 1179   3.683   0.190   4.559 -3.1588 -0.0536 -1.4744
  295SOL     vw 1180   3.697   0.263   4.512 -0.4013  0.0370 -0.6886
  296SOL     ow 1181   1.686   6.655   6.832 -0.0537 -0.0748 -0.3988
  296SOL     hw 1182   1.646   6.741   6.851  3.3768  1.5077  0.3741
  296SOL     hw 1183   1.651   6.598   6.900  0.3996  1.7313  1.4802
  296SOL     vw 1184   1.676   6.659   6.844  0.4587  0.3722 -0.0489
  297SOL     ow 1185   5.209   2.221   0.100  0.4275  0.2431 -0.8291
  297SOL     hw 1186   5.120   2.191   0.084  0.9220 -1.9468  0.1392
  297SOL     hw 1187   5.260   2.186   0.027  0.6772  0.5748 -0.8175
  297SOL     vw 1188   5.204   2.212   0.089  0.5257 -0.0020 -0.6998
  298SOL     ow 1189   4.700   3.366   6.639  0.3223 -0.2818  0.1091
  298SOL     hw 1190   4.728   3.286   6.594  0.6182  0.3221 -0.8097
  298SOL     hw 1191   4.661   3.335   6.721 -1.6906 -1.5667 -1.2321
  298SOL     vw 1192   4.699   3.351   6.644  0.0958 -0.3717 -0.1891
  299SOL     ow 1193   4.861   1.604   0.213 -0.6029  0.2323  0.3786
  299SOL     hw 1194   4.912   1.525   0.192 -0.3954  0.6639 -0.8423
  299SOL     hw 1195   4.919   1.676   0.188 -1.3619  0.7415  0.0730
  299SOL     vw 1196   4.876   1.603   0.207 -0.6759  0.3564  0.1772
  300SOL     ow 1197   3.782   5.642   4.895 -0.1682  0.1640  0.2032
  300SOL     hw 1198   3.792   5.731   4.861 -0.4170  0.3020  0.4840
  300SOL     hw 1199   3.867   5.600   4.879  0.1543  0.6471  0.6304
  300SOL     vw 1200   3.795   5.648   4.888 -0.1585  0.2458  0.2966
  301SOL     ow 1201   5.633   0.525   5.036 -0.8964  0.1483  0.5800
  301SOL     hw 1202   5.726   0.525   5.012 -0.6872  2.6051  1.1758
  301SOL     hw 1203   5.632   0.495   5.127 -0.7542 -0.2872  0.4439
  301SOL     vw 1204   5.645   0.521   5.045 -0.8502  0.4150  0.6409
  302SOL     ow 1205   6.008   2.141   4.149 -0.4840  0.2593 -0.3461
  302SOL     hw 1206   6.056   2.102   4.221 -0.1161  1.0435 -0.1546
  302SOL     hw 1207   6.053   2.109   4.070  0.1115  0.6675 -0.1790
  302SOL     vw 1208   6.021   2.132   4.148 -0.3567  0.4166 -0.2987
  303SOL     ow 1209   5.029   3.606   5.206  0.1123 -0.1423 -0.8140
  303SOL     hw 1210   5.059   3.674   5.146 -2.1649 -0.3275 -2.2719
  303SOL     hw 1211   5.000   3.534   5.150 -1.7381 -0.4846  0.4669
  303SOL     vw 1212   5.029   3.606   5.191 -0.4320 -0.2120 -0.8376
  304SOL     ow 1213   0.528   1.699   1.458 -0.4123 -0.2830  0.2153
  304SOL     hw 1214   0.560   1.760   1.391  0.7935  0.9180  1.8296
  304SOL     hw 1215   0.606   1.670   1.504 -1.1920 -1.3134  0.9338
  304SOL     vw 1216   0.542   1.703   1.455 -0.3560 -0.2605  0.5231
  305SOL     ow 1217   0.060   4.202   4.400 -0.1702 -0.3475 -0.3171
  305SOL     hw 1218   0.097   4.290   4.392  0.1796 -0.5968 -1.7551
  305SOL     hw 1219   0.128   4.151   4.445 -0.2880  0.0572  0.3311
  305SOL     vw 1220   0.074   4.207   4.405 -0.1396 -0.3269 -0.4210
  306SOL     ow 1221   2.084   4.880   4.439  0.5734  0.3062 -0.2734
  306SOL     hw 1222   2.169   4.910   4.408  0.1674  1.1182 -0.6323
  306SOL     hw 1223   2.059   4.811   4.377  0.9311  0.1313 -0.2207
  306SOL     vw 1224   2.092   4.875   4.426  0.5670  0.3901 -0.3138
  307SOL     ow 1225   0.337   5.605   5.669  0.0865  0.3041 -0.4806
  307SOL     hw 1226   0.367   5.526   5.625 -0.2648 -0.7128  1.0126
  307SOL     hw 1227   0.270   5.575   5.730  0.7586  1.5588  0.9687
  307SOL     vw 1228   0.332   5.591   5.672  0.1288  0.3352 -0.0923
  308SOL     ow 1229   6.422   3.122   0.627 -0.5959 -0.2029 -0.2926
  308SOL     hw 1230   6.507   3.080   0.636 -0.7225 -0.3663  0.1357
  308SOL     hw 1231   6.367   3.081   0.694  0.3061  3.2748  2.9144
  308SOL     vw 1232   6.426   3.111   0.637 -0.4935  0.2344  0.1870
  309SOL     ow 1233   2.195   0.475   1.449  0.1576  0.1589 -0.3203
  309SOL     hw 1234   2.128   0.492   1.514 -0.5157  2.3300 -1.4687
  309SOL     hw 1235   2.191   0.551   1.390  1.6786 -1.0252 -2.0699
  309SOL     vw 1236   2.186   0.487   1.450  0.2695  0.2891 -0.7026
  310SOL     ow 1237   4.132   5.649   1.078 -0.1334  0.1632  0.6015
  310SOL     hw 1238   4.148   5.738   1.108 -2.5090  0.8002  0.1831
  310SOL     hw 1239   4.197   5.634   1.010  0.4228  1.4894  0.8225
  310SOL     vw 1240   4.142   5.659   1.073 -0.3731  0.4225  0.5755
  311SOL     ow 1241   6.193   6.290   6.176 -0.2905  0.5052  0.2642
  311SOL     hw 1242   6.173   6.383   6.166 -1.2442  0.3625  0.8453
  311SOL     hw 1243   6.243   6.284   6.257  1.1282  0.6903 -0.5466
  311SOL     vw 1244   6.197   6.301   6.185 -0.2291  0.5107  0.2341
  312SOL     ow 1245   4.107   6.542   5.552  0.2372 -0.1883 -0.5701
  312SOL     hw 1246   4.016   6.562   5.574  1.0017  0.6587  2.2295
  312SOL     hw 1247   4.142   6.625   5.520  1.0100  0.6430  2.2302
  312SOL     vw 1248   4.099   6.555   5.550  0.4399  0.0331  0.1688
  313SOL     ow 1249   0.205   5.798   5.939 -0.0678  0.2516  0.0695
  313SOL     hw 1250   0.161   5.739   6.000  1.2753  1.2703  2.1584
  313SOL     hw 1251   0.237   5.869   5.994  2.1007  0.7302 -1.6816
  313SOL     vw 1252   0.204   5.799   5.954  0.3955  0.4492  0.1142
  314SOL     ow 1253   6.968   2.634   2.475 -0.5008  0.0245  0.1435
  314SOL     hw 1254   6.931   2.686   2.546  0.4672  1.2956 -0.2545
  314SOL     hw 1255   6.924   2.549   2.482 -1.3590  0.5520  1.4461
  314SOL     vw 1256   6.958   2.629   2.485 -0.4864  0.2618  0.2630
  315SOL     ow 1257   0.969   3.704   2.409  0.2022 -0.1554 -0.2072
  315SOL     hw 1258   0.998   3.788   2.444  0.3179  0.0577 -0.7931
  315SOL     hw 1259   0.900   3.726   2.347 -2.0444 -0.7343  1.9464
  315SOL     vw 1260   0.964   3.718   2.405 -0.0790 -0.2036 -0.0002
  316SOL     ow 1261   1.350   2.979   4.613  0.0768 -0.3587 -0.1881
  316SOL     hw 1262   1.379   2.927   4.538  0.9967  3.2904 -2.6384
  316SOL     hw 1263   1.401   2.946   4.687  2.1422 -1.5399 -2.0503
  316SOL     vw 1264   1.361   2.968   4.613  0.4706 -0.0330 -0.7570
  317SOL     ow 1265   2.440   2.391   6.250 -0.2988  0.1083 -0.5500
  317SOL     hw 1266   2.520   2.344   6.225 -0.0168 -0.8027  1.8115
  317SOL     hw 1267   2.412   2.350   6.332  0.3374  4.3883  2.1624
  317SOL     vw 1268   2.447   2.380   6.258 -0.1776  0.5528  0.1194
  318SOL     ow 1269   6.353   4.684   0.595 -0.1308  0.4874  0.2896
  318SOL     hw 1270   6.432   4.727   0.627  2.1843  0.2840 -4.2187
  318SOL     hw 1271   6.371   4.590   0.602  0.3380  0.4385 -1.1543
  318SOL     vw 1272   6.366   4.677   0.600  0.2367  0.4544 -0.4958
  319SOL     ow 1273   0.539   0.268   3.013 -0.5729  0.0528 -0.3192
  319SOL     hw 1274   0.473   0.336   3.029  0.1445  0.4913  0.9446
  319SOL     hw 1275   0.495   0.186   3.037 -1.4911  0.0118 -1.9930
  319SOL     vw 1276   0.524   0.266   3.019 -0.5994  0.1052 -0.3734
  320SOL     ow 1277   0.652   5.709   5.352 -0.3065  0.3080  1.3203
  320SOL     hw 1278   0.608   5.701   5.267 -3.0584  0.6161  2.5881
  320SOL     hw 1279   0.737   5.668   5.339 -0.8422 -0.1357 -1.4325
  320SOL     vw 1280   0.657   5.702   5.339 -0.7403  0.2902  1.1246
  321SOL     ow 1281   4.592   4.649   2.876 -0.4559 -0.8699 -0.1052
  321SOL     hw 1282   4.616   4.741   2.866 -0.2898 -0.7941  0.9040
  321SOL     hw 1283   4.508   4.651   2.922  0.8740 -1.2235  2.5311
  321SOL     vw 1284   4.584   4.661   2.880 -0.2584 -0.9062  0.3757
  322SOL     ow 1285   5.143   6.525   0.137  0.2153  0.0472 -0.2324
  322SOL     hw 1286   5.117   6.581   0.211 -0.5706 -0.7637  0.1235
  322SOL     hw 1287   5.239   6.527   0.138  0.2891  2.9409 -1.4368
  322SOL     vw 1288   5.152   6.533   0.147  0.1214  0.3223 -0.3443
  323SOL     ow 1289   3.660   3.753   0.281  0.5447 -0.3695 -0.4100
  323SOL     hw 1290   3.668   3.806   0.361  0.4855 -1.3775  0.2896
  323SOL     hw 1291   3.574   3.776   0.245 -1.4829 -3.0307  2.2258
  323SOL     vw 1292   3.650   3.763   0.287  0.2694 -0.8535  0.0300
  324SOL     ow 1293   0.503   3.594   5.386  0.1659  0.2190 -0.8916
  324SOL     hw 1294   0.495   3.689   5.376  1.4125  0.5310  0.7077
  324SOL     hw 1295   0.596   3.579   5.399  0.3710 -1.5568 -3.6975
  324SOL     vw 1296   0.514   3.605   5.387  0.3575  0.0259 -1.0509
  325SOL     ow 1297   0.468   1.873   2.868 -0.3450  0.1108 -0.0652
  325SOL     hw 1298   0.462   1.964   2.897 -3.1262  0.5268 -1.5370
  325SOL     hw 1299   0.523   1.830   2.933 -0.4514  2.4494  1.6884
  325SOL     vw 1300   0.474   1.880   2.880 -0.7260  0.4742 -0.0281
  326SOL     ow 1301   2.556   3.964   6.630  0.6982  0.1945  0.7847
  326SOL     hw 1302   2.477   3.917   6.605  0.5820  0.9073 -0.2460
  326SOL     hw 1303   2.626   3.899   6.623  0.3881 -0.1067  0.4631
  326SOL     vw 1304   2.555   3.950   6.626  0.6419  0.2487  0.6063
  327SOL     ow 1305   4.509   6.801   5.104  0.7886  0.0988 -0.8105
  327SOL     hw 1306   4.441   6.829   5.166  1.2777  0.8572 -0.6074
  327SOL     hw 1307   4.460   6.757   5.034  0.0535  0.8026 -0.7685
  327SOL     vw 1308   4.493   6.799   5.103  0.7563  0.2918 -0.7782
  328SOL     ow 1309   6.173   3.987   5.500 -0.0742 -0.3313  0.4875
  328SOL     hw 1310   6.190   4.069   5.454  0.2800 -0.2722  0.7133
  328SOL     hw 1311   6.217   3.920   5.447 -0.5923 -0.4137  0.1594
  328SOL     vw 1312   6.181   3.989   5.487 -0.0956 -0.3344  0.4740
  329SOL     ow 1313   6.062   2.793   5.013  0.6540  0.2911  0.3264
  329SOL     hw 1314   6.020   2.857   5.072 -0.1191  1.3881 -1.3295
  329SOL     hw 1315   6.036   2.821   4.925 -0.1905 -2.6634 -0.4815
  329SOL     vw 1316   6.053   2.805   5.009  0.4406  0.0461  0.0012
  330SOL     ow 1317   6.747   0.191   4.737  0.2011 -0.0162 -0.8056
  330SOL     hw 1318   6.817   0.128   4.718  0.0147 -0.1735 -0.9775
  330SOL     hw 1319   6.736   0.239   4.655  0.4578  0.3530 -0.6232
  330SOL     vw 1320   6.755   0.189   4.724  0.2103  0.0117 -0.8042
  331SOL     ow 1321   5.615   1.419   2.020  0.3535  0.0534 -0.0009
  331SOL     hw 1322   5.585   1.332   1.991 -1.4339  0.8835 -0.7945
  331SOL     hw 1323   5.711   1.411   2.023  0.4044 -1.2750 -2.3763
  331SOL     vw 1324   5.624   1.406   2.016  0.1242 -0.0123 -0.4190
  332SOL     ow 1325   2.383   5.262   6.426 -0.0476 -0.8595 -0.5191
  332SOL     hw 1326   2.298   5.271   6.468 -0.1850 -1.1387 -0.7377
  332SOL     hw 1327   2.424   5.187   6.468  0.7996  0.2746  0.7820
  332SOL     vw 1328   2.377   5.254   6.437  0.0461 -0.7465 -0.3765
  333SOL     ow 1329   5.133   0.134   1.659  1.0025 -0.0796 -0.0285
  333SOL     hw 1330   5.190   0.062   1.634  3.0526  0.8350  1.7000
  333SOL     hw 1331   5.112   0.118   1.751 -3.3191 -1.4214 -1.0158
  333SOL     vw 1332   5.138   0.123   1.668  0.7029 -0.1360  0.0692
  334SOL     ow 1333   3.493   6.645   2.536  0.0268 -0.3863  0.5114
  334SOL     hw 1334   3.536   6.609   2.459 -1.3088 -0.6487 -0.1429
  334SOL     hw 1335   3.412   6.594   2.544 -0.1683  0.0729  1.7122
  334SOL     vw 1336   3.488   6.633   2.527 -0.1750 -0.3603  0.5835
  335SOL     ow 1337   0.313   5.737   5.392  0.2875  0.2879  0.2603
  335SOL     hw 1338   0.368   5.741   5.314  1.4624  1.2210  1.1144
  335SOL     hw 1339   0.272   5.651   5.388  1.0811 -0.0526 -0.8850
  335SOL     vw 1340   0.315   5.726   5.381  0.5472  0.3662  0.2222
  336SOL     ow 1341   1.588   4.871   5.467  0.3980 -0.2441  0.2553
  336SOL     hw 1342   1.672   4.916   5.477  1.6601 -2.7439  1.7161
  336SOL     hw 1343   1.602   4.784   5.504 -2.9815 -0.6390  0.9540
  336SOL     vw 1344   1.601   4.866   5.473  0.1187 -0.6261  0.5400
  337SOL     ow 1345   2.070   2.037   2.566 -0.3486 -0.0916 -0.0440
  337SOL     hw 1346   2.116   2.104   2.618 -0.0827 -0.6509  0.4598
  337SOL     hw 1347   1.994   2.082   2.531 -0.0842  0.5241  0.1492
  337SOL     vw 1348   2.066   2.052   2.569 -0.2786 -0.0843  0.0480
  338SOL     ow 1349   6.174   6.854   1.155 -0.1605  0.3069  0.1878
  338SOL     hw 1350   6.121   6.880   1.230 -1.7358  0.2561 -0.8567
  338SOL     hw 1351   6.116   6.800   1.101  0.6564  0.9549 -1.4391
  338SOL     vw 1352   6.159   6.850   1.158 -0.2604  0.3855 -0.1647
  339SOL     ow 1353   6.333   4.203   3.571  0.2546 -0.1805 -0.0827
  339SOL     hw 1354   6.342   4.298   3.581 -0.4927 -0.2185  1.2425
  339SOL     hw 1355   6.423   4.170   3.572  0.5297  0.5123 -0.7401
  339SOL     vw 1356   6.346   4.211   3.572  0.1922 -0.0939  0.0055
  340SOL     ow 1357   6.172   1.344   2.515  0.0637  0.1030  0.2172
  340SOL     hw 1358   6.245   1.298   2.556  0.8028  0.3696 -0.7706
  340SOL     hw 1359   6.202   1.362   2.426 -0.6163  1.5802  0.2605
  340SOL     vw 1360   6.186   1.340   2.509  0.0715  0.3331  0.0925
  341SOL     ow 1361   1.767   0.525   4.429 -0.0227 -0.8186  0.4099
  341SOL     hw 1362   1.718   0.570   4.498 -1.0738 -0.5733 -0.4692
  341SOL     hw 1363   1.765   0.433   4.454  0.7240 -0.5972  1.3601
  341SOL     vw 1364   1.760   0.519   4.442 -0.0629 -0.7570  0.4194
  342SOL     ow 1365   4.523   2.467   1.101  0.0530 -0.1689 -0.2924
  342SOL     hw 1366   4.512   2.378   1.133  1.4657 -0.6123 -0.9465
  342SOL     hw 1367   4.587   2.507   1.160 -2.8458  1.5424  1.9720
  342SOL     vw 1368   4.530   2.461   1.113 -0.1431 -0.0017 -0.0799
  343SOL     ow 1369   6.089   6.258   2.500 -0.6353  0.0128 -0.2741
  343SOL     hw 1370   6.102   6.248   2.595  0.6196 -1.6051 -0.5666
  343SOL     hw 1371   6.111   6.172   2.464  0.9766  1.1512 -2.2139
  343SOL     vw 1372   6.094   6.245   2.508 -0.2570 -0.0505 -0.5685
  344SOL     ow 1373   0.287   2.343   4.319 -0.2368 -0.0204 -0.6234
  344SOL     hw 1374   0.371   2.326   4.278  0.1137 -0.1836  0.1328
  344SOL     hw 1375   0.243   2.404   4.261  0.6189  0.4776 -0.7587
  344SOL     vw 1376   0.292   2.349   4.306 -0.0777  0.0237 -0.5417
  345SOL     ow 1377   1.889   6.473   6.755  0.3077  0.3110  0.5525
  345SOL     hw 1378   1.904   6.459   6.848  0.2209 -0.0556  0.5123
  345SOL     hw 1379   1.976   6.467   6.715  0.5398  1.7992  0.7681
  345SOL     vw 1380   1.902   6.471   6.762  0.3269  0.4587  0.5758
  346SOL     ow 1381   4.915   3.843   5.323 -0.0579  0.6024 -0.1842
  346SOL     hw 1382   4.975   3.916   5.304 -1.8229  1.8663 -1.1975
  346SOL     hw 1383   4.864   3.833   5.243 -0.5022 -1.1555  0.2882
  346SOL     vw 1384   4.916   3.851   5.310 -0.3490  0.5372 -0.2556
  347SOL     ow 1385   4.952   0.916   1.582 -0.6107  0.2242 -0.4001
  347SOL     hw 1386   4.958   0.926   1.678 -1.5612 -0.6357 -0.2439
  347SOL     hw 1387   5.040   0.890   1.556 -0.4330  0.1040  0.2840
  347SOL     vw 1388   4.965   0.914   1.591 -0.7124  0.0949 -0.2891
  348SOL     ow 1389   1.340   0.019   4.632  0.0179  0.5768 -0.5166
  348SOL     hw 1390   1.307  -0.037   4.703  0.5700 -0.8625 -1.3547
  348SOL     hw 1391   1.411   0.069   4.673  0.0204  0.1160  0.0707
  348SOL     vw 1392   1.345   0.018   4.647  0.0911  0.3261 -0.5496
  349SOL     ow 1393   0.270   5.891   5.686  0.2524 -0.1409 -0.1322
  349SOL     hw 1394   0.238   5.978   5.662  0.6283  0.6579  2.0071
  349SOL     hw 1395   0.229   5.874   5.771 -0.3089 -2.3615 -0.7904
  349SOL     vw 1396   0.260   5.900   5.694  0.2279 -0.3285  0.0629
  350SOL     ow 1397   1.056   6.287   1.044 -0.3103 -0.2485  0.2974
  350SOL     hw 1398   0.975   6.251   1.010  0.3737  0.0804 -1.8246
  350SOL     hw 1399   1.087   6.347   0.976  1.2665  0.3219  1.4302
  350SOL     vw 1400   1.050   6.290   1.031 -0.0120 -0.1297  0.1669
  351SOL     ow 1401   5.412   2.136   0.298 -0.0909  0.4507 -0.4704
  351SOL     hw 1402   5.354   2.074   0.254  0.1358 -1.0296  1.1840
  351SOL     hw 1403   5.500   2.107   0.277  0.0237  0.4976 -0.0667
  351SOL     vw 1404   5.416   2.124   0.290 -0.0458  0.2617 -0.1988
  352SOL     ow 1405   2.366   6.123   2.501 -0.4559 -0.3725  0.5570
  352SOL     hw 1406   2.299   6.191   2.513 -0.2847 -0.4474  2.1088
  352SOL     hw 1407   2.401   6.108   2.589 -0.4816 -2.4597  0.2575
  352SOL     vw 1408   2.362   6.130   2.514 -0.4368 -0.6578  0.7224
  353SOL     ow 1409   5.543   6.045   5.547  0.4259 -0.1425  0.2329
  353SOL     hw 1410   5.483   6.067   5.618  0.7284  0.4312  0.3202
  353SOL     hw 1411   5.577   5.959   5.571 -1.1197 -0.9541 -0.3396
  353SOL     vw 1412   5.540   6.037   5.560  0.2618 -0.1740  0.1690
  354SOL     ow 1413   2.382   1.893   0.436 -0.2960 -0.4766  0.5073
  354SOL     hw 1414   2.311   1.944   0.475 -0.0859  1.7517 -1.7916
  354SOL     hw 1415   2.462   1.935   0.468 -0.0738 -0.7124  0.2693
  354SOL     vw 1416   2.384   1.905   0.446 -0.2390 -0.2137  0.1726
  355SOL     ow 1417   5.529   3.382   5.653 -0.1101 -0.0190  0.0723
  355SOL     hw 1418   5.614   3.426   5.654  0.9583 -1.8813 -1.4792
  355SOL     hw 1419   5.496   3.396   5.564 -0.2673 -1.3062 -0.1003
  355SOL     vw 1420   5.536   3.390   5.641  0.0100 -0.4345 -0.1547
  356SOL     ow 1421   5.168   0.390   1.529  0.3932  0.3654 -0.6770
  356SOL     hw 1422   5.187   0.361   1.440 -0.9132 -0.1389 -0.8136
  356SOL     hw 1423   5.253   0.389   1.573  0.8443 -0.8177 -1.5088
  356SOL     vw 1424   5.181   0.386   1.523  0.2806  0.1428 -0.8048
  357SOL     ow 1425   1.470   2.227   6.529 -0.4525 -0.0651  0.1225
  357SOL     hw 1426   1.531   2.230   6.603  0.1014 -1.0967 -0.2720
  357SOL     hw 1427   1.431   2.140   6.533  1.0186 -0.8780 -1.8994
  357SOL     vw 1428   1.473   2.216   6.539 -0.1853 -0.3085 -0.1965
  358SOL     ow 1429   5.530   5.291   0.896 -0.7700 -0.0754 -0.3914
  358SOL     hw 1430   5.548   5.375   0.937 -1.8214  0.8473 -1.7138
  358SOL     hw 1431   5.511   5.232   0.969  2.4789  0.0998  0.7439
  358SOL     vw 1432   5.530   5.294   0.911 -0.4802  0.0696 -0.4161
  359SOL     ow 1433   6.952   0.144   3.803  0.0312 -0.5661  0.1033
  359SOL     hw 1434   6.946   0.085   3.727  0.3891 -0.9257  0.3490
  359SOL     hw 1435   6.984   0.227   3.766 -0.2966 -0.5790 -0.2159
  359SOL     vw 1436   6.955   0.147   3.788  0.0353 -0.6153  0.0936
  360SOL     ow 1437   0.461   1.546   2.771  0.1670 -0.0974  0.0783
  360SOL     hw 1438   0.493   1.577   2.855 -0.5917 -1.0224  0.7369
  360SOL     hw 1439   0.464   1.450   2.779 -2.0950 -0.2187 -0.0625
  360SOL     vw 1440   0.466   1.537   2.783 -0.2316 -0.2354  0.1465
  361SOL     ow 1441   4.488   5.284   2.065  0.2692 -0.9238 -0.6439
  361SOL     hw 1442   4.512   5.366   2.022 -2.4560 -1.3187 -3.3050
  361SOL     hw 1443   4.550   5.220   2.030  1.0330 -0.4219 -0.2484
  361SOL     vw 1444   4.499   5.286   2.055  0.0105 -0.9096 -0.9428
  362SOL     ow 1445   2.955   4.039   4.931 -0.3984  0.0589  0.4189
  362SOL     hw 1446   2.974   3.980   5.004 -1.2154 -1.4592 -0.5350
  362SOL     hw 1447   2.904   4.109   4.970 -1.4799 -1.1188  1.2196
  362SOL     vw 1448   2.950   4.040   4.946 -0.6489 -0.2968  0.3986
  363SOL     ow 1449   3.891   2.124   1.621  0.3661  0.1865 -0.1965
  363SOL     hw 1450   3.899   2.216   1.594  1.3728 -0.2800 -1.5762
  363SOL     hw 1451   3.797   2.110   1.627  0.1943  1.4259  0.5207
  363SOL     vw 1452   3.880   2.134   1.618  0.4764  0.2884 -0.2838
  364SOL     ow 1453   6.846   5.144   4.616 -0.0598  0.3539 -0.0410
  364SOL     hw 1454   6.859   5.175   4.706 -2.3466  1.9407 -0.1647
  364SOL     hw 1455   6.815   5.054   4.626  0.7561  0.1436  0.6886
  364SOL     vw 1456   6.844   5.137   4.630 -0.2539  0.5355  0.0386
  365SOL     ow 1457   5.795   0.662   5.940 -0.6224  0.1030  0.8396
  365SOL     hw 1458   5.877   0.707   5.960 -0.5826 -0.4464  1.9903
  365SOL     hw 1459   5.798   0.648   5.845  0.7279 -0.1126  0.8855
  365SOL     vw 1460   5.806   0.666   5.930 -0.4392  0.0021  0.9975
  366SOL     ow 1461   2.424   6.955   1.148 -0.5090  0.0090  0.5359
  366SOL     hw 1462   2.373   6.940   1.227  0.6191 -3.2996  0.7914
  366SOL     hw 1463   2.514   6.934   1.174  0.5789  2.7452 -0.6679
  366SOL     vw 1464   2.429   6.950   1.162 -0.2166 -0.0665  0.4109
  367SOL     ow 1465   2.126   5.252   6.518  0.0844 -0.0477 -0.1101
  367SOL     hw 1466   2.139   5.335   6.565  1.8747 -0.6074  0.4669
  367SOL     hw 1467   2.033   5.231   6.531 -0.5420  2.0998 -0.7027
  367SOL     vw 1468   2.115   5.260   6.526  0.2379  0.1616 -0.1123
  368SOL     ow 1469   3.641   5.092   3.560 -0.0108 -0.0103  0.2446
  368SOL     hw 1470   3.721   5.043   3.575 -0.0482 -0.2556 -0.3415
  368SOL     hw 1471   3.670   5.182   3.542  0.2068 -0.2910 -0.9101
  368SOL     vw 1472   3.655   5.098   3.560  0.0130 -0.0794  0.0149
  369SOL     ow 1473   5.730   2.107   0.219  0.0111  0.3837 -0.6639
  369SOL     hw 1474   5.801   2.057   0.179  0.6997  1.1818 -0.4605
  369SOL     hw 1475   5.769   2.192   0.239 -0.4914  0.2105  1.1640
  369SOL     vw 1476   5.744   2.112   0.216  0.0355  0.4661 -0.3959
  370SOL     ow 1477   3.439   6.373   6.396  0.5953 -0.2506 -0.3785
  370SOL     hw 1478   3.429   6.281   6.373 -0.1178  0.4156 -2.9715
  370SOL     hw 1479   3.411   6.377   6.488 -0.4014 -2.4063 -0.5220
  370SOL     vw 1480   3.434   6.361   6.405  0.3697 -0.4473 -0.7396
  371SOL     ow 1481   4.994   6.951   5.813  0.0898 -0.2172  0.7904
  371SOL     hw 1482   4.917   6.901   5.840  0.0109 -0.6524 -0.2118
  371SOL     hw 1483   5.029   6.903   5.738  0.4255  0.8378  0.2503
  371SOL     vw 1484   4.989   6.938   5.807  0.1240 -0.1354  0.5870
  372SOL     ow 1485   0.810   3.459   1.000  0.2200 -0.1451 -0.3287
  372SOL     hw 1486   0.785   3.403   1.074 -0.4148 -1.3709 -1.4240
  372SOL     hw 1487   0.734   3.457   0.942 -0.0348  2.3448 -0.1714
  372SOL     vw 1488   0.797   3.451   1.002  0.1027  0.0216 -0.4525
  373SOL     ow 1489   3.573   3.106   6.465 -1.0304  0.4240 -0.3598
  373SOL     hw 1490   3.593   3.152   6.383 -0.4750 -1.9714 -1.6869
  373SOL     hw 1491   3.504   3.044   6.441  0.2754 -1.4737  0.4957
  373SOL     vw 1492   3.566   3.104   6.451 -0.7849 -0.1425 -0.4222
  374SOL     ow 1493   5.173   4.175   1.332  0.5591 -0.4296  1.1952
  374SOL     hw 1494   5.133   4.172   1.245  2.0472  1.2020  0.3916
  374SOL     hw 1495   5.099   4.177   1.392 -0.5064 -2.4706  0.0524
  374SOL     vw 1496   5.158   4.175   1.328  0.6149 -0.4838  0.9384
  375SOL     ow 1497   4.463   5.975   3.162  0.6097 -0.6710  0.2912
  375SOL     hw 1498   4.532   6.038   3.182 -0.4948  0.4789  0.6542
  375SOL     hw 1499   4.509   5.899   3.125  1.8715  1.0597 -2.0022
  375SOL     vw 1500   4.478   5.973   3.160  0.6304 -0.2913  0.0366
  376SOL     ow 1501   0.517   0.957   6.006  0.1986 -0.4862 -0.5243
  376SOL     hw 1502   0.512   0.969   5.911  2.5999  0.8788 -0.5617
  376SOL     hw 1503   0.527   0.862   6.018 -0.4631 -0.7086 -1.5839
  376SOL     vw 1504   0.518   0.946   5.995  0.4281 -0.3355 -0.6692
  377SOL     ow 1505   1.249   6.926   3.140  0.1766 -0.8741 -0.6121
  377SOL     hw 1506   1.232   6.870   3.216  0.2008 -2.3603 -1.6408
  377SOL     hw 1507   1.229   7.015   3.169  0.7711 -1.3336  1.2966
  377SOL     vw 1508   1.244   6.930   3.154  0.2582 -1.1308 -0.4960
  378SOL     ow 1509   1.492   5.061   5.229  0.1686  0.4225  0.2371
  378SOL     hw 1510   1.432   5.136   5.232  1.0876  1.1512  1.8486
  378SOL     hw 1511   1.548   5.078   5.154  0.8795  1.8067  1.0351
  378SOL     vw 1512   1.491   5.073   5.220  0.3837  0.7014  0.5548
  379SOL     ow 1513   6.909   1.615   1.216  0.3842 -0.0955 -0.4485
  379SOL     hw 1514   6.893   1.636   1.125 -0.4192  1.2605 -0.0178
  379SOL     hw 1515   6.988   1.561   1.214 -0.2627 -1.0478 -2.0169
  379SOL     vw 1516   6.918   1.611   1.204  0.1929 -0.0423 -0.5987
  380SOL     ow 1517   4.958   5.401   0.731 -0.3742 -0.2735  0.1344
  380SOL     hw 1518   5.018   5.371   0.799 -1.7734 -2.7586  0.3898
  380SOL     hw 1519   4.951   5.328   0.670 -1.9113  0.5247 -0.7382
  380SOL     vw 1520   4.965   5.388   0.732 -0.7615 -0.4959  0.0530
  381SOL     ow 1521   0.750   6.454   4.312 -0.6281 -0.2549  0.3986
  381SOL     hw 1522   0.795   6.497   4.385  1.0653 -0.5422 -0.4320
  381SOL     hw 1523   0.776   6.504   4.235 -1.9149 -0.3255 -0.0995
  381SOL     vw 1524   0.760   6.466   4.312 -0.5745 -0.3018  0.2234
  382SOL     ow 1525   0.658   0.302   3.391 -0.4345  0.4643  0.0772
  382SOL     hw 1526   0.751   0.286   3.403  0.1005  0.9027 -2.7147
  382SOL     hw 1527   0.625   0.223   3.347 -1.4483  0.2371  1.1855
  382SOL     vw 1528   0.666   0.289   3.387 -0.4977  0.4922 -0.1450
  383SOL     ow 1529   3.738   3.746   3.512 -0.2017 -0.2561  0.0372
  383SOL     hw 1530   3.716   3.729   3.421 -2.3259 -1.9751  0.8021
  383SOL     hw 1531   3.832   3.764   3.511  0.3403 -2.7191 -2.1784
  383SOL     vw 1532   3.748   3.746   3.500 -0.4104 -0.8080 -0.1543
  384SOL     ow 1533   1.202   2.282   0.795  0.2017 -0.2691  0.2176
  384SOL     hw 1534   1.281   2.228   0.789  1.6926  1.9700 -2.1622
  384SOL     hw 1535   1.233   2.372   0.791 -2.3615  0.7879  1.4511
  384SOL     vw 1536   1.216   2.287   0.794  0.0602  0.1658  0.0663
  385SOL     ow 1537   0.581   5.670   5.829 -0.5775 -0.0895 -0.8210
  385SOL     hw 1538   0.521   5.681   5.756  0.8805  0.1537 -2.0093
  385SOL     hw 1539   0.548   5.592   5.875 -2.6072  0.8394 -0.5936
  385SOL     vw 1540   0.569   5.661   5.826 -0.6529  0.0651 -0.9477
  386SOL     ow 1541   3.238   4.087   5.800  0.1171  0.8671 -0.0450
  386SOL     hw 1542   3.293   4.141   5.856  1.3367  2.6744 -2.7583
  386SOL     hw 1543   3.265   3.997   5.819  1.7334  1.5282  0.9724
  386SOL     vw 1544   3.249   4.082   5.810  0.4913  1.1928 -0.2687
  387SOL     ow 1545   0.301   2.945   5.679 -0.1345  0.2999  0.1900
  387SOL     hw 1546   0.233   3.002   5.643 -2.2894 -3.0097 -1.4701
  387SOL     hw 1547   0.261   2.906   5.757 -0.3551 -1.7601 -0.8608
  387SOL     vw 1548   0.287   2.947   5.685 -0.4479 -0.4085 -0.1674
  388SOL     ow 1549   1.412   3.475   5.593  0.4051  0.0784  0.2135
  388SOL     hw 1550   1.456   3.533   5.655  0.5835  1.9834 -1.5830
  388SOL     hw 1551   1.319   3.494   5.603  0.4218  0.2620  0.0309
  388SOL     vw 1552   1.406   3.485   5.603  0.4308  0.3538 -0.0477
  389SOL     ow 1553   0.318   1.265   0.983  0.1645  0.1509 -0.0801
  389SOL     hw 1554   0.230   1.227   0.989  0.1344 -0.2872 -2.3214
  389SOL     hw 1555   0.309   1.337   0.921  0.9608  1.6313  1.4327
  389SOL     vw 1556   0.305   1.270   0.976  0.2656  0.2884 -0.1762
  390SOL     ow 1557   5.749   2.186   5.192 -0.4304  0.0408  0.0734
  390SOL     hw 1558   5.781   2.126   5.125 -0.6050 -0.7382  0.6688
  390SOL     hw 1559   5.657   2.203   5.168  0.2335  1.9405 -1.3949
  390SOL     vw 1560   5.741   2.181   5.180 -0.3660  0.1887 -0.0417
  391SOL     ow 1561   6.772   5.278   4.354  1.1492  0.0109  0.2074
  391SOL     hw 1562   6.682   5.310   4.350  0.6442 -0.9830  2.1462
  391SOL     hw 1563   6.781   5.222   4.276 -0.9214 -2.1159  1.3476
  391SOL     vw 1564   6.761   5.275   4.343  0.8097 -0.4005  0.6137
  392SOL     ow 1565   3.329   3.118   5.624  0.0604  0.1518  0.1230
  392SOL     hw 1566   3.400   3.125   5.687 -0.5760 -1.0326  1.0311
  392SOL     hw 1567   3.331   3.200   5.575  1.7425  0.3266  0.4265
  392SOL     vw 1568   3.338   3.130   5.626  0.1984  0.0186  0.2828
  393SOL     ow 1569   3.758   5.099   2.252 -0.2152  0.7473  0.3791
  393SOL     hw 1570   3.761   5.168   2.318 -1.2317  1.0015  0.1723
  393SOL     hw 1571   3.747   5.145   2.169  2.3908  0.5231 -0.1848
  393SOL     vw 1572   3.757   5.114   2.250 -0.0055  0.7513  0.2774
  394SOL     ow 1573   4.133   6.585   0.791  0.1505  0.0502 -0.5401
  394SOL     hw 1574   4.081   6.574   0.712 -0.3793  2.3729 -0.5886
  394SOL     hw 1575   4.216   6.541   0.773 -0.5641 -0.8377 -1.7390
  394SOL     vw 1576   4.137   6.578   0.778 -0.0134  0.2394 -0.7047
  395SOL     ow 1577   4.925   1.998   1.904  0.6839  0.1460  0.1219
  395SOL     hw 1578   5.003   2.024   1.952  1.0893  0.4309 -0.6709
  395SOL     hw 1579   4.955   1.932   1.843  0.1131 -0.4386  0.4659
  395SOL     vw 1580   4.939   1.993   1.902  0.6621  0.1065  0.0626
  396SOL     ow 1581   6.981   1.735   1.482  0.6517 -0.6035  0.0906
  396SOL     hw 1582   7.027   1.796   1.539  0.3867 -0.0750 -0.2573
  396SOL     hw 1583   6.952   1.664   1.540  1.6677 -0.8154  0.3571
  396SOL     vw 1584   6.983   1.733   1.497  0.7508 -0.5618  0.0798
  397SOL     ow 1585   5.212   3.001   0.401  0.6446  0.6565 -0.3708
  397SOL     hw 1586   5.254   3.085   0.420 -0.9660  1.1678  1.2190
  397SOL     hw 1587   5.242   2.978   0.313  2.7170  1.8712 -0.0589
  397SOL     vw 1588   5.222   3.009   0.392  0.7055  0.8842 -0.1199
  398SOL     ow 1589   5.184   6.116   4.341  0.8933 -0.1072  0.5585
  398SOL     hw 1590   5.092   6.130   4.363  0.2027  3.1377 -3.2322
  398SOL     hw 1591   5.186   6.030   4.299 -0.5921  0.0536  0.1036
  398SOL     vw 1592   5.172   6.106   4.339  0.6061  0.3424 -0.0014
  399SOL     ow 1593   0.448   4.192   1.855  0.3694 -0.0133 -0.0686
  399SOL     hw 1594   0.511   4.132   1.815  0.0612 -0.4516  0.0958
  399SOL     hw 1595   0.379   4.136   1.889  0.0358  0.4414  0.0232
  399SOL     vw 1596   0.447   4.177   1.854  0.2847 -0.0110 -0.0348
  400SOL     ow 1597   6.718   6.538   4.671 -0.1358  0.7081  0.1851
  400SOL     hw 1598   6.684   6.512   4.585  1.3043 -0.7338 -0.0025
  400SOL     hw 1599   6.813   6.532   4.662  0.1302  2.3441  1.3613
  400SOL     vw 1600   6.726   6.534   4.659  0.0896  0.7334  0.3154
  401SOL     ow 1601   6.143   5.719   6.409  0.7698 -0.4814 -0.1266
  401SOL     hw 1602   6.221   5.760   6.445  1.4602 -2.5601  0.9138
  401SOL     hw 1603   6.167   5.627   6.399 -0.5128 -0.6016 -2.8629
  401SOL     vw 1604   6.156   5.712   6.413  0.6917 -0.7715 -0.3505
  402SOL     ow 1605   1.923   2.206   1.762 -0.2655 -0.3100  0.1667
  402SOL     hw 1606   1.839   2.228   1.723 -0.1984 -0.5950 -0.1415
  402SOL     hw 1607   1.981   2.192   1.687  0.4341  1.2937  0.3731
  402SOL     vw 1608   1.920   2.207   1.747 -0.1644 -0.1359  0.1534
  403SOL     ow 1609   1.715   0.200   5.750 -0.4843  0.1465 -0.1560
  403SOL     hw 1610   1.629   0.210   5.710 -0.7444  0.1981  0.4132
  403SOL     hw 1611   1.739   0.289   5.777 -0.0122  0.2217 -0.7913
  403SOL     vw 1612   1.707   0.213   5.748 -0.4563  0.1633 -0.1647
  404SOL     ow 1613   2.545   6.997   4.872  1.0594 -0.2895 -0.4565
  404SOL     hw 1614   2.587   7.004   4.786  0.2051 -1.8966 -1.0509
  404SOL     hw 1615   2.617   6.989   4.934  1.6586 -0.7512 -1.2022
  404SOL     vw 1616   2.560   6.997   4.869  1.0257 -0.5624 -0.6332
  405SOL     ow 1617   5.725   3.854   4.998 -0.7133 -0.2137 -0.0784
  405SOL     hw 1618   5.794   3.876   4.935  2.2638 -2.7898  1.9644
  405SOL     hw 1619   5.678   3.781   4.959  0.0157 -0.7039 -0.0560
  405SOL     vw 1620   5.728   3.847   4.985 -0.2246 -0.6183  0.1941
  406SOL     ow 1621   0.296   3.785   2.666  0.1431 -0.1555 -0.3897
  406SOL     hw 1622   0.285   3.812   2.757 -0.3616 -0.1270 -0.4523
  406SOL     hw 1623   0.390   3.784   2.652  0.2411 -0.5668  0.2549
  406SOL     vw 1624   0.307   3.789   2.676  0.0894 -0.2059 -0.3130
  407SOL     ow 1625   0.232   2.714   5.037  0.0280  0.4375 -0.5932
  407SOL     hw 1626   0.318   2.707   4.995  0.7181  3.5056  0.0592
  407SOL     hw 1627   0.173   2.740   4.966 -0.0241 -0.1006 -0.7466
  407SOL     vw 1628   0.236   2.717   5.022  0.1122  0.7714 -0.5274
  408SOL     ow 1629   4.525   3.273   3.289  0.0373  0.3108  0.6016
  408SOL     hw 1630   4.604   3.233   3.254  1.3835  1.4760  2.1657
  408SOL     hw 1631   4.506   3.224   3.369  1.2272  2.1148  2.0886
  408SOL     vw 1632   4.533   3.261   3.295  0.3722  0.7026  1.0042
  409SOL     ow 1633   5.666   2.875   2.633 -0.6494  0.3080 -0.1054
  409SOL     hw 1634   5.646   2.782   2.626 -0.0328  0.1944 -0.4301
  409SOL     hw 1635   5.762   2.879   2.641 -0.5796  0.9531 -1.0476
  409SOL     vw 1636   5.676   2.863   2.633 -0.5589  0.3780 -0.2724
  410SOL     ow 1637   1.620   2.185   0.244  0.0967 -0.0769  0.1840
  410SOL     hw 1638   1.588   2.137   0.320  0.5617  0.2809  0.6112
  410SOL     hw 1639   1.649   2.117   0.183  2.0747 -0.3523  1.3601
  410SOL     vw 1640   1.620   2.170   0.246  0.4190 -0.0660  0.3955
  411SOL     ow 1641   2.936   4.126   1.241  0.1165 -0.2745  0.0783
  411SOL     hw 1642   2.974   4.042   1.268 -0.3478 -0.2107  0.9387
  411SOL     hw 1643   3.002   4.191   1.265 -0.6993 -0.1129  2.0174
  411SOL     vw 1644   2.950   4.124   1.247 -0.0523 -0.2449  0.4476
  412SOL     ow 1645   6.099   2.966   2.201  0.0420 -0.4736  0.6031
  412SOL     hw 1646   6.041   2.970   2.126  2.8540 -0.5791 -1.7723
  412SOL     hw 1647   6.141   3.052   2.204  1.7421 -1.2466  0.4314
  412SOL     vw 1648   6.097   2.978   2.191  0.6373 -0.5896  0.2670
  413SOL     ow 1649   6.808   2.964   6.765  0.2161  0.3054  0.9938
  413SOL     hw 1650   6.867   2.920   6.825 -0.0104 -0.6904  0.5095
  413SOL     hw 1651   6.721   2.952   6.803 -0.2375 -2.3639 -0.6117
  413SOL     vw 1652   6.804   2.957   6.778  0.1261 -0.1782  0.7181
  414SOL     ow 1653   4.861   2.325   5.078 -0.8467 -0.0976  0.1417
  414SOL     hw 1654   4.926   2.262   5.108 -1.6064 -0.6961  0.6041
  414SOL     hw 1655   4.902   2.371   5.005  0.9207  1.0814  1.7809
  414SOL     vw 1656   4.875   2.323   5.073 -0.7136 -0.0210  0.4189
  415SOL     ow 1657   4.004   5.218   2.888  0.1007 -0.7295 -0.0455
  415SOL     hw 1658   4.005   5.136   2.839 -1.5631 -0.4365 -0.6464
  415SOL     hw 1659   3.973   5.283   2.825 -1.4988 -0.2282  1.1825
  415SOL     vw 1660   4.000   5.216   2.873 -0.3296 -0.6247  0.0372
  416SOL     ow 1661   2.739   4.823   4.049  0.2351  0.9367  0.4835
  416SOL     hw 1662   2.788   4.811   4.130  0.7551  3.0302  0.5579
  416SOL     hw 1663   2.651   4.850   4.078 -0.3588 -0.7091  0.3285
  416SOL     vw 1664   2.734   4.825   4.063  0.2254  0.9959  0.4728
  417SOL     ow 1665   4.372   0.558   4.969  0.2488 -0.2043 -0.5106
  417SOL     hw 1666   4.410   0.538   4.883  0.0096  0.1654 -0.7048
  417SOL     hw 1667   4.329   0.476   4.995  1.6284 -0.8105 -0.0329
  417SOL     vw 1668   4.372   0.544   4.961  0.3991 -0.2355 -0.4733
  418SOL     ow 1669   0.623   3.889   0.069  0.4001  0.1114  0.3124
  418SOL     hw 1670   0.576   3.969   0.048 -0.8842 -1.0470 -1.5814
  418SOL     hw 1671   0.619   3.882   0.164  0.9512  2.4833  0.5638
  418SOL     vw 1672   0.616   3.898   0.079  0.3034  0.2714  0.0957
  419SOL     ow 1673   1.853   3.475   4.348 -0.4234 -0.2456 -0.3479
  419SOL     hw 1674   1.933   3.441   4.308  1.5152  1.6082  1.7150
  419SOL     hw 1675   1.814   3.531   4.281  1.8890  1.5277 -0.3221
  419SOL     vw 1676   1.858   3.478   4.334  0.1376  0.2329 -0.0722
  420SOL     ow 1677   1.696   0.258   2.290  0.1581  0.3819  0.4279
  420SOL     hw 1678   1.660   0.343   2.315 -1.3132 -0.2068  0.4227
  420SOL     hw 1679   1.699   0.209   2.372 -0.9690 -0.2397  0.1134
  420SOL     vw 1680   1.691   0.263   2.304 -0.1847  0.2223  0.3858
  421SOL     ow 1681   5.125   3.436   3.540 -0.3308 -0.7182  0.4002
  421SOL     hw 1682   5.114   3.354   3.588  1.3255  0.0026  2.1539
  421SOL     hw 1683   5.173   3.412   3.461 -1.4801 -1.6693 -0.0369
  421SOL     vw 1684   5.130   3.422   3.536 -0.2637 -0.7486  0.5740
  422SOL     ow 1685   6.081   5.109   3.076  0.0093  0.0108  0.6665
  422SOL     hw 1686   6.114   5.027   3.111 -0.0928 -2.1322 -3.6471
  422SOL     hw 1687   6.158   5.151   3.036 -0.7451 -0.4485 -1.3609
  422SOL     vw 1688   6.096   5.104   3.075 -0.1037 -0.3324 -0.1700
  423SOL     ow 1689   1.257   0.667   2.729 -0.6430  0.3029 -0.4138
  423SOL     hw 1690   1.350   0.685   2.741 -0.2033 -0.6084 -2.1091
  423SOL     hw 1691   1.218   0.686   2.814  1.2190 -0.1488  0.6013
  423SOL     vw 1692   1.264   0.672   2.742 -0.3393  0.1231 -0.5035
  424SOL     ow 1693   6.939   1.088   1.863  0.1873 -0.3673  0.5516
  424SOL     hw 1694   6.989   1.073   1.943  1.5807  0.2485 -0.1595
  424SOL     hw 1695   7.000   1.065   1.793 -0.6490  0.1177 -0.3573
  424SOL     vw 1696   6.954   1.083   1.864  0.2608 -0.2220  0.3378
  425SOL     ow 1697   3.017   4.184   5.578  0.0897  0.0152 -1.2655
  425SOL     hw 1698   3.048   4.117   5.516 -1.5397  0.5607 -2.7544
  425SOL     hw 1699   2.922   4.184   5.568 -0.3251 -0.2747  1.7291
  425SOL     vw 1700   3.009   4.175   5.568 -0.1800  0.0489 -1.0667
  426SOL     ow 1701   4.798   2.219   1.746  0.4337 -0.3044 -0.8334
  426SOL     hw 1702   4.817   2.313   1.751 -0.1695 -0.2232  0.4652
  426SOL     hw 1703   4.884   2.178   1.736  0.5191  0.4975 -5.0163
  426SOL     vw 1704   4.812   2.226   1.746  0.3650 -0.1878 -1.2140
  427SOL     ow 1705   2.834   4.839   3.121 -0.0292  0.2325  0.1825
  427SOL     hw 1706   2.742   4.859   3.104  0.5029  2.2935 -0.5049
  427SOL     hw 1707   2.836   4.812   3.213 -1.3787 -0.3599  0.0563
  427SOL     vw 1708   2.822   4.838   3.131 -0.1371  0.4261  0.0752
  428SOL     ow 1709   3.768   0.632   0.842 -0.3312  0.2298  0.6748
  428SOL     hw 1710   3.789   0.581   0.920 -0.2749 -0.4714  0.2065
  428SOL     hw 1711   3.689   0.592   0.807  1.1390 -1.2728 -1.1715
  428SOL     vw 1712   3.761   0.620   0.848 -0.1297 -0.0610  0.3694
  429SOL     ow 1713   4.200   1.055   3.302 -0.0796 -0.7318 -0.4482
  429SOL     hw 1714   4.190   0.981   3.241 -1.4252 -1.9387  1.1524
  429SOL     hw 1715   4.115   1.098   3.301  0.3741  0.1885 -0.5549
  429SOL     vw 1716   4.188   1.051   3.294 -0.1972 -0.7696 -0.2511
  430SOL     ow 1717   1.957   1.699   3.857  0.3281 -0.1189  0.0035
  430SOL     hw 1718   2.022   1.764   3.882  2.1029 -1.2484 -1.4103
  430SOL     hw 1719   1.874   1.747   3.854  1.4414  1.8742 -0.2621
  430SOL     vw 1720   1.954   1.714   3.860  0.7092 -0.0050 -0.2179
  431SOL     ow 1721   6.870   1.194   6.109 -0.4492 -0.0085 -0.0144
  431SOL     hw 1722   6.811   1.203   6.184 -1.9220 -1.5042 -0.9278
  431SOL     hw 1723   6.844   1.264   6.049 -0.4920  0.0655  0.0906
  431SOL     vw 1724   6.859   1.204   6.111 -0.6492 -0.1960 -0.1211
  432SOL     ow 1725   6.218   4.555   5.595 -0.3034 -0.0197  0.8703
  432SOL     hw 1726   6.219   4.640   5.553 -2.1901 -0.4160 -0.0777
  432SOL     hw 1727   6.125   4.531   5.600  0.2180 -2.5066  0.0767
  432SOL     vw 1728   6.206   4.563   5.590 -0.4835 -0.4001  0.6406
  433SOL     ow 1729   4.628   5.506   4.025 -0.6575  0.4275  0.0009
  433SOL     hw 1730   4.648   5.534   4.114 -1.7936 -1.0512  0.7703
  433SOL     hw 1731   4.560   5.566   3.996 -0.5206  0.7110  0.2648
  433SOL     vw 1732   4.622   5.517   4.033 -0.7894  0.2699  0.1373
  434SOL     ow 1733   4.341   2.050   3.371 -0.2456  0.5322  0.7524
  434SOL     hw 1734   4.285   2.093   3.307 -1.3044 -0.1612  1.1854
  434SOL     hw 1735   4.386   1.981   3.322  0.8944  1.6147  0.2218
  434SOL     vw 1736   4.340   2.046   3.356 -0.2348  0.5835  0.7397
  435SOL     ow 1737   0.370   6.130   3.551  0.4852 -0.0243 -0.1326
  435SOL     hw 1738   0.442   6.121   3.613 -1.6780  2.0154  2.9626
  435SOL     hw 1739   0.330   6.043   3.548  1.3634 -0.4603  0.3366
  435SOL     vw 1740   0.375   6.118   3.559  0.3156  0.1872  0.3377
  436SOL     ow 1741   4.175   5.959   2.836 -0.4999  0.2990 -0.3134
  436SOL     hw 1742   4.092   5.944   2.790 -0.8166  0.0663  0.3277
  436SOL     hw 1743   4.238   5.905   2.789 -0.7643  0.2764 -0.6488
  436SOL     vw 1744   4.172   5.950   2.824 -0.5765  0.2656 -0.2730
  437SOL     ow 1745   4.820   5.328   5.183 -0.3588  0.8816  0.2407
  437SOL     hw 1746   4.849   5.239   5.163 -3.3412 -0.2884  0.5975
  437SOL     hw 1747   4.782   5.322   5.271 -1.7924  2.2053 -0.2477
  437SOL     vw 1748   4.819   5.316   5.192 -0.9418  0.9019  0.2232
  438SOL     ow 1749   6.848   3.518   3.875 -0.0932 -0.1814 -0.2376
  438SOL     hw 1750   6.925   3.464   3.860  1.6544  2.4688 -1.7353
  438SOL     hw 1751   6.884   3.602   3.905 -2.4805  0.8459 -0.0418
  438SOL     vw 1752   6.863   3.522   3.877 -0.1776  0.3039 -0.4094
  439SOL     ow 1753   5.438   3.097   5.672  0.0418 -0.0287 -0.0879
  439SOL     hw 1754   5.406   3.072   5.585 -1.4769  1.4250  0.0022
  439SOL     hw 1755   5.359   3.103   5.726  0.9044 -0.3340  1.2460
  439SOL     vw 1756   5.423   3.095   5.667 -0.0448  0.1227  0.1001
  440SOL     ow 1757   6.210   4.826   6.808 -0.2697 -0.0443 -0.7548
  440SOL     hw 1758   6.137   4.859   6.861  1.1874  1.5739  0.3425
  440SOL     hw 1759   6.234   4.899   6.752  0.1591 -0.7615 -1.5401
  440SOL     vw 1760   6.203   4.840   6.808 -0.0212  0.0746 -0.7136
  441SOL     ow 1761   2.881   1.242   2.103  0.4464 -0.0979 -0.0971
  441SOL     hw 1762   2.804   1.185   2.098  2.3515 -2.8291 -0.5391
  441SOL     hw 1763   2.894   1.257   2.197  0.0937 -0.6859  0.0471
  441SOL     vw 1764   2.873   1.236   2.115  0.6511 -0.5357 -0.1364
  442SOL     ow 1765   2.234   6.779   5.977  0.1496  1.1867  0.3683
  442SOL     hw 1766   2.245   6.787   5.883  1.0773 -0.6455  0.2848
  442SOL     hw 1767   2.320   6.798   6.014  0.0471  0.9058  0.7679
  442SOL     vw 1768   2.247   6.783   5.970  0.2584  0.9079  0.4101
  443SOL     ow 1769   4.368   2.335   0.464  0.4856 -0.0028 -0.1297
  443SOL     hw 1770   4.365   2.240   0.459  2.1209 -0.0565 -0.7440
  443SOL     hw 1771   4.444   2.359   0.411  0.7142  1.5701  0.8633
  443SOL     vw 1772   4.378   2.326   0.456  0.7315  0.1975 -0.0798
  444SOL     ow 1773   2.765   5.471   2.417 -0.5306  0.4256 -0.1289
  444SOL     hw 1774   2.755   5.563   2.394  2.3519  0.4679 -1.5896
  444SOL     hw 1775   2.764   5.425   2.333  3.9250 -0.1071 -0.1410
  444SOL     vw 1776   2.763   5.477   2.403  0.4376  0.3612 -0.3232
  445SOL     ow 1777   6.331   4.996   6.148  0.2721  0.2913  0.4754
  445SOL     hw 1778   6.426   5.003   6.137  0.5135 -1.6111  0.9447
  445SOL     hw 1779   6.319   4.919   6.203 -1.5659  0.3314  0.2011
  445SOL     vw 1780   6.342   4.986   6.154  0.0618  0.0458  0.5012
  446SOL     ow 1781   4.382   5.903   5.018 -0.7322  0.2183 -0.3234
  446SOL     hw 1782   4.438   5.943   5.084 -0.2251  1.2180 -1.3206
  446SOL     hw 1783   4.338   5.832   5.064  1.6161 -0.8619  0.4373
  446SOL     vw 1784   4.384   5.899   5.033 -0.3552  0.2077 -0.3548
  447SOL     ow 1785   0.831   2.757   6.623  0.0562  0.2431  0.0050
  447SOL     hw 1786   0.781   2.838   6.611  0.5931  0.4116 -1.2450
  447SOL     hw 1787   0.901   2.781   6.683 -0.8456  0.2161  1.1043
  447SOL     vw 1788   0.834   2.771   6.629  0.0080  0.2618 -0.0150
  448SOL     ow 1789   3.156   1.883   6.785 -1.1094  0.6288  0.3647
  448SOL     hw 1790   3.243   1.921   6.801 -1.1167  0.6613  0.3266
  448SOL     hw 1791   3.161   1.796   6.825  0.1298 -0.8232 -2.6393
  448SOL     vw 1792   3.168   1.877   6.793 -0.9469  0.4416 -0.0367
  449SOL     ow 1793   1.543   1.667   6.794  0.4795  0.7518 -0.7060
  449SOL     hw 1794   1.563   1.760   6.803  0.2524  0.8379 -1.0732
  449SOL     hw 1795   1.583   1.642   6.711  1.4821  0.2607 -0.0943
  449SOL     vw 1796   1.551   1.676   6.784  0.5819  0.6984 -0.6738
  450SOL     ow 1797   3.893   4.151   5.365 -0.1955 -0.2716 -0.1654
  450SOL     hw 1798   3.939   4.067   5.370 -1.3365 -0.9412 -0.3859
  450SOL     hw 1799   3.820   4.135   5.305  1.0636  1.6445 -2.3439
  450SOL     vw 1800   3.889   4.138   5.358 -0.1800 -0.1070 -0.4818
  451SOL     ow 1801   4.582   1.520   6.268 -0.6292  0.4532 -0.0980
  451SOL     hw 1802   4.626   1.605   6.263 -2.0351  1.1798 -0.4950
  451SOL     hw 1803   4.532   1.514   6.187  0.2394 -1.2314 -0.5682
  451SOL     vw 1804   4.581   1.531   6.257 -0.7002  0.3268 -0.2124
  452SOL     ow 1805   1.509   2.007   1.421  0.1145  0.5477  0.2861
  452SOL     hw 1806   1.471   2.090   1.449  0.1292  0.6864 -0.1007
  452SOL     hw 1807   1.602   2.014   1.443  0.1090  0.6210  0.2855
  452SOL     vw 1808   1.516   2.019   1.428  0.1157  0.5758  0.2351
  453SOL     ow 1809   3.556   4.227   2.311 -0.5995  0.7032  0.1138
  453SOL     hw 1810   3.553   4.134   2.332 -0.5409  1.0472  1.7947
  453SOL     hw 1811   3.649   4.250   2.314 -0.1455  0.1076 -3.9977
  453SOL     vw 1812   3.568   4.218   2.314 -0.5319  0.6700 -0.2068
  454SOL     ow 1813   6.122   2.671   2.408 -0.3258  0.4775 -0.4637
  454SOL     hw 1814   6.087   2.591   2.370  0.1860  0.2658 -0.4890
  454SOL     hw 1815   6.148   2.647   2.496  0.5517  0.4177 -0.7306
  454SOL     vw 1816   6.121   2.657   2.414 -0.1426  0.4414 -0.5023
  455SOL     ow 1817   0.850   1.371   4.211 -0.3865 -0.1424 -0.7629
  455SOL     hw 1818   0.874   1.463   4.213 -0.3917 -0.1395 -0.8220
  455SOL     hw 1819   0.788   1.364   4.138  0.4767 -0.4020 -1.4837
  455SOL     vw 1820   0.845   1.382   4.202 -0.2733 -0.1763 -0.8655
  456SOL     ow 1821   6.876   4.675   3.219 -0.3637  0.2725  0.5143
  456SOL     hw 1822   6.950   4.673   3.159  0.5594  1.0014  1.5934
  456SOL     hw 1823   6.894   4.607   3.283  0.8440  2.2247  2.3906
  456SOL     vw 1824   6.888   4.666   3.219 -0.0827  0.6263  0.9042
  457SOL     ow 1825   5.642   3.134   5.491  0.0813  0.3235 -0.3670
  457SOL     hw 1826   5.633   3.039   5.504 -1.3444  0.3927 -0.6925
  457SOL     hw 1827   5.705   3.143   5.420  0.2388 -0.3838 -0.3251
  457SOL     vw 1828   5.649   3.122   5.484 -0.0858  0.2394 -0.4044
  458SOL     ow 1829   2.837   5.254   1.697  0.0301  0.2488 -0.4034
  458SOL     hw 1830   2.909   5.317   1.709 -0.6989  1.3375 -1.5595
  458SOL     hw 1831   2.766   5.289   1.750  0.0043 -0.2610 -0.0989
  458SOL     vw 1832   2.837   5.267   1.706 -0.0695  0.3252 -0.5157
  459SOL     ow 1833   4.963   3.800   1.383  0.4614  0.1503  0.2656
  459SOL     hw 1834   5.031   3.818   1.448 -0.0568 -0.6504  1.0619
  459SOL     hw 1835   4.893   3.758   1.433 -0.5398  0.7626 -0.5729
  459SOL     vw 1836   4.963   3.797   1.398  0.2608  0.1254  0.2600
  460SOL     ow 1837   0.302   5.180   2.524 -0.3204 -0.1983 -0.1348
  460SOL     hw 1838   0.361   5.116   2.563  1.2674  0.3740 -1.4794
  460SOL     hw 1839   0.352   5.262   2.525 -1.1923  0.3696 -1.0821
  460SOL     vw 1840   0.316   5.182   2.529 -0.2260 -0.0477 -0.4371
  461SOL     ow 1841   3.289   6.578   5.647  0.2562 -0.2541 -0.2805
  461SOL     hw 1842   3.385   6.585   5.638  0.0495  0.8499 -2.4003
  461SOL     hw 1843   3.273   6.485   5.660  1.6915 -0.2746  2.0336
  461SOL     vw 1844   3.300   6.567   5.647  0.4182 -0.1111 -0.2549
  462SOL     ow 1845   1.080   3.542   6.137 -0.0933 -0.5060 -0.2420
  462SOL     hw 1846   1.084   3.472   6.072 -0.0964 -1.2703  0.5643
  462SOL     hw 1847   1.033   3.613   6.093 -2.1232 -1.8189 -0.3248
  462SOL     vw 1848   1.075   3.542   6.123 -0.3616 -0.7801 -0.1466
  463SOL     ow 1849   5.396   5.146   5.651  0.1467 -0.3934  0.1134
  463SOL     hw 1850   5.380   5.188   5.735 -1.3577 -0.5699 -0.0527
  463SOL     hw 1851   5.330   5.077   5.646 -1.2017  0.9353 -2.0913
  463SOL     vw 1852   5.385   5.142   5.661 -0.2296 -0.2413 -0.1993
  464SOL     ow 1853   4.202   1.298   0.380 -0.4201  0.1682  0.7079
  464SOL     hw 1854   4.184   1.247   0.459  3.2783 -1.0708  0.9446
  464SOL     hw 1855   4.292   1.328   0.391 -0.4062  1.5282 -2.2274
  464SOL     vw 1856   4.212   1.295   0.392  0.0699  0.1841  0.3519
  465SOL     ow 1857   2.461   6.367   3.628  0.4361 -0.9035 -0.1296
  465SOL     hw 1858   2.520   6.443   3.628  0.7000 -1.0444  1.8774
  465SOL     hw 1859   2.501   6.306   3.689 -0.8079 -1.8205 -0.1972
  465SOL     vw 1860   2.474   6.369   3.636  0.3067 -1.0431  0.1262
  466SOL     ow 1861   0.473   4.992   5.781 -0.1444  0.2402  0.7329
  466SOL     hw 1862   0.447   5.075   5.740 -0.3527  0.4230  1.2276
  466SOL     hw 1863   0.567   4.984   5.763 -0.3620 -0.0291 -0.3780
  466SOL     vw 1864   0.482   5.002   5.773 -0.2006  0.2286  0.6516
  467SOL     ow 1865   1.539   5.911   6.592 -0.2779  0.6070 -0.0109
  467SOL     hw 1866   1.478   5.888   6.662 -1.1812  0.0065 -0.9682
  467SOL     hw 1867   1.496   5.883   6.512  0.7063  1.3353 -0.8310
  467SOL     vw 1868   1.526   5.904   6.591 -0.2673  0.6239 -0.2456
  468SOL     ow 1869   5.226   6.700   1.091  0.3081  0.1210 -0.0057
  468SOL     hw 1870   5.136   6.677   1.066 -0.0226  0.2894  0.9933
  468SOL     hw 1871   5.242   6.652   1.172  0.4751  1.4478  0.7839
  468SOL     vw 1872   5.216   6.691   1.098  0.2866  0.3183  0.2303
  469SOL     ow 1873   2.276   5.626   3.680 -0.5542 -0.3655 -0.1809
  469SOL     hw 1874   2.238   5.690   3.740 -2.2844 -2.7343  1.4445
  469SOL     hw 1875   2.314   5.559   3.737 -1.6295 -2.3653 -1.6478
  469SOL     vw 1876   2.276   5.625   3.695 -0.9242 -0.9420 -0.1600
  470SOL     ow 1877   1.352   4.806   2.667 -0.2769  0.0385  0.0997
  470SOL     hw 1878   1.424   4.745   2.684  0.4468  0.3959 -1.5349
  470SOL     hw 1879   1.276   4.766   2.710  1.1687  0.4606  3.3100
  470SOL     vw 1880   1.351   4.792   2.675  0.0094  0.1414  0.3076
  471SOL     ow 1881   4.371   2.865   6.881  0.6972 -0.2506  0.2700
  471SOL     hw 1882   4.305   2.796   6.878  0.2384  0.1966 -0.1788
  471SOL     hw 1883   4.396   2.871   6.973 -0.1155 -0.2108  0.4949
  471SOL     vw 1884   4.366   2.857   6.893  0.5293 -0.1863  0.2401
  472SOL     ow 1885   4.447   2.238   1.174 -0.1447 -0.8353  0.5398
  472SOL     hw 1886   4.424   2.215   1.084  0.9810 -0.9826  0.2747
  472SOL     hw 1887   4.528   2.190   1.191  0.2243  0.0161  1.2553
  472SOL     vw 1888   4.455   2.229   1.164  0.0525 -0.7424  0.5991
  473SOL     ow 1889   5.618   3.488   4.288 -0.1009 -0.1343 -0.9461
  473SOL     hw 1890   5.551   3.544   4.249  0.1158  0.6064 -0.2973
  473SOL     hw 1891   5.701   3.524   4.255  0.1360  1.0368  0.7765
  473SOL     vw 1892   5.620   3.500   4.279 -0.0410  0.1180 -0.6332
  474SOL     ow 1893   2.789   1.584   1.314 -0.3281  0.7914  0.3260
  474SOL     hw 1894   2.867   1.600   1.261 -1.2661 -1.6260 -2.0847
  474SOL     hw 1895   2.766   1.493   1.294 -3.2584  1.1383  1.6137
  474SOL     vw 1896   2.796   1.574   1.304 -0.8385  0.5183  0.1779
  475SOL     ow 1897   4.836   4.908   6.793 -0.3061  0.3679 -0.2647
  475SOL     hw 1898   4.741   4.906   6.806 -0.0764  0.2039  1.7764
  475SOL     hw 1899   4.861   4.816   6.789 -0.0759  0.3657  0.8535
  475SOL     vw 1900   4.826   4.895   6.794 -0.2453  0.3459  0.1521
  476SOL     ow 1901   3.504   4.641   0.451  0.7531 -0.6107  0.1918
  476SOL     hw 1902   3.550   4.636   0.367  1.4675 -0.3421  0.5653
  476SOL     hw 1903   3.559   4.697   0.506  0.8027 -1.5832  1.1611
  476SOL     vw 1904   3.517   4.648   0.447  0.8539 -0.7038  0.3690
  477SOL     ow 1905   2.859   0.420   4.608 -0.2196  0.0337  0.1743
  477SOL     hw 1906   2.829   0.501   4.568  1.1362  0.6460  0.3355
  477SOL     hw 1907   2.795   0.403   4.678  0.3667  1.8888  1.2373
  477SOL     vw 1908   2.847   0.428   4.612  0.0366  0.3592  0.3357
  478SOL     ow 1909   1.578   5.720   5.857 -0.7508  0.2352  0.0557
  478SOL     hw 1910   1.629   5.697   5.935  0.3617  0.6553 -0.5164
  478SOL     hw 1911   1.523   5.643   5.841  0.4785 -0.7022  0.1130
  478SOL     vw 1912   1.578   5.707   5.865 -0.4417  0.1671 -0.0124
  479SOL     ow 1913   1.238   6.638   5.105 -0.1696  0.1697  0.1943
  479SOL     hw 1914   1.232   6.603   5.016  2.0023 -0.1837  0.1369
  479SOL     hw 1915   1.208   6.728   5.098 -1.0172 -0.1657 -0.6733
  479SOL     vw 1916   1.233   6.645   5.092  0.0051  0.0789  0.0722
  480SOL     ow 1917   0.315   1.925   1.482  0.4249  0.8968  0.5353
  480SOL     hw 1918   0.308   1.970   1.398 -2.1426  2.0967  1.3132
  480SOL     hw 1919   0.242   1.958   1.533 -0.0139 -2.2408  2.1245
  480SOL     vw 1920   0.305   1.936   1.477  0.0282  0.6412  0.8477
  481SOL     ow 1921   6.594   2.684   3.011  0.4941 -0.1728 -0.6111
  481SOL     hw 1922   6.565   2.593   3.014  0.6062 -0.1762  1.1883
  481SOL     hw 1923   6.670   2.683   2.952  0.4340 -1.2143 -0.6888
  481SOL     vw 1924   6.600   2.672   3.004  0.5009 -0.3107 -0.3840
  482SOL     ow 1925   2.159   6.409   1.604 -0.0424 -0.0770 -0.2005
  482SOL     hw 1926   2.249   6.434   1.584 -0.0189  0.4182  0.4877
  482SOL     hw 1927   2.166   6.319   1.636  0.6766  0.9737  2.9653
  482SOL     vw 1928   2.172   6.401   1.606  0.0557  0.1271  0.3080
  483SOL     ow 1929   3.378   2.884   6.411  0.3874 -0.3024  0.3967
  483SOL     hw 1930   3.292   2.869   6.450  0.4295  1.0411  1.0712
  483SOL     hw 1931   3.375   2.837   6.328 -0.7962 -0.7312  0.6569
  483SOL     vw 1932   3.366   2.876   6.405  0.2367 -0.1817  0.5202
  484SOL     ow 1933   6.900   4.066   6.854  0.0259  0.3461  0.1739
  484SOL     hw 1934   6.880   4.156   6.879  2.5975  1.5624 -1.7333
  484SOL     hw 1935   6.977   4.043   6.905  1.1421  0.3546 -1.4264
  484SOL     vw 1936   6.907   4.075   6.864  0.5126  0.5078 -0.2885
  485SOL     ow 1937   0.970   2.290   4.215  0.6749  0.8715 -0.9677
  485SOL     hw 1938   0.966   2.384   4.236 -0.1720  0.4240  1.1327
  485SOL     hw 1939   1.019   2.251   4.287 -1.3112 -0.6259 -0.3155
  485SOL     vw 1940   0.976   2.297   4.227  0.3012  0.6150 -0.6044
  486SOL     ow 1941   3.900   0.782   5.831 -0.6238 -0.2550 -0.5944
  486SOL     hw 1942   3.881   0.739   5.914 -1.0163  2.4053  0.7721
  486SOL     hw 1943   3.984   0.744   5.804  0.4117  0.0499  1.9262
  486SOL     vw 1944   3.909   0.771   5.838 -0.5391  0.1362 -0.0818
  487SOL     ow 1945   3.032   0.172   0.774 -0.6873  0.6131  0.2438
  487SOL     hw 1946   2.952   0.175   0.721 -0.1920 -2.1100 -0.8166
  487SOL     hw 1947   3.019   0.097   0.832  0.3090  1.3660  1.4936
  487SOL     vw 1948   3.019   0.162   0.774 -0.4905  0.3532  0.2688
  488SOL     ow 1949   5.533   1.687   1.836  0.1707 -0.2019 -0.3366
  488SOL     hw 1950   5.469   1.750   1.803 -1.1497 -1.2891  0.0675
  488SOL     hw 1951   5.566   1.642   1.758 -1.0858 -1.0450 -0.3959
  488SOL     vw 1952   5.529   1.689   1.822 -0.1693 -0.4565 -0.2912
  489SOL     ow 1953   4.430   6.137   4.844 -0.1466  0.0474  0.3443
  489SOL     hw 1954   4.517   6.134   4.884 -0.1162  1.2435  0.3977
  489SOL     hw 1955   4.446   6.161   4.753 -0.3560 -0.8271  0.0630
  489SOL     vw 1956   4.443   6.140   4.837 -0.1702  0.0896  0.3142
  490SOL     ow 1957   6.292   4.407   5.909  0.2774 -0.8849 -0.5224
  490SOL     hw 1958   6.375   4.378   5.948 -0.1286 -0.3558  0.7871
  490SOL     hw 1959   6.240   4.437   5.983 -0.6138 -0.0193 -1.4711
  490SOL     vw 1960   6.296   4.407   5.924  0.1063 -0.7007 -0.4747
  491SOL     ow 1961   2.057   3.913   2.601 -0.0042  0.5394  0.2309
  491SOL     hw 1962   2.087   3.963   2.525  1.8868 -1.8537 -0.7512
  491SOL     hw 1963   2.138   3.889   2.647 -0.8148 -1.4450  0.7316
  491SOL     vw 1964   2.072   3.917   2.597  0.1384 -0.0381  0.1674
  492SOL     ow 1965   6.188   6.645   1.966  0.5449  0.3814  0.9458
  492SOL     hw 1966   6.280   6.646   1.937  0.0139  2.7056 -0.9829
  492SOL     hw 1967   6.189   6.691   2.050  1.2273 -0.3984  1.3835
  492SOL     vw 1968   6.201   6.651   1.973  0.5648  0.5856  0.7491
  493SOL     ow 1969   2.361   3.400   1.647 -0.4381  0.7702  1.0343
  493SOL     hw 1970   2.385   3.467   1.711  0.7204 -1.0212  2.6091
  493SOL     hw 1971   2.310   3.336   1.697  1.5087 -1.2886  0.5801
  493SOL     vw 1972   2.358   3.400   1.662 -0.0284  0.2623  1.1822
  494SOL     ow 1973   0.403   3.358   5.497  0.1876 -0.3060 -0.1637
  494SOL     hw 1974   0.460   3.359   5.420 -0.2167 -0.5521 -0.4738
  494SOL     hw 1975   0.460   3.328   5.568  0.2898 -1.2073 -0.6016
  494SOL     vw 1976   0.418   3.354   5.496  0.1477 -0.4574 -0.2625
  495SOL     ow 1977   2.279   4.228   4.303  0.0215  0.2954 -0.4360
  495SOL     hw 1978   2.260   4.190   4.217 -0.1724  0.0179 -0.2727
  495SOL     hw 1979   2.357   4.281   4.289  1.7407 -2.0237 -0.1795
  495SOL     vw 1980   2.287   4.230   4.289  0.2228 -0.0474 -0.3805
  496SOL     ow 1981   0.389   6.558   2.423 -0.5705  0.4504 -0.0899
  496SOL     hw 1982   0.463   6.618   2.418  0.6351 -0.9770 -0.0028
  496SOL     hw 1983   0.425   6.477   2.459 -1.6803 -1.0212 -2.0331
  496SOL     vw 1984   0.403   6.555   2.427 -0.5579  0.0679 -0.3347
  497SOL     ow 1985   4.262   2.643   1.119  0.4199 -0.7242 -0.7527
  497SOL     hw 1986   4.213   2.613   1.195 -0.2822  2.4224  0.2047
  497SOL     hw 1987   4.196   2.681   1.061  1.3372  0.6219 -0.9658
  497SOL     vw 1988   4.247   2.644   1.122  0.4485 -0.1315 -0.6545
  498SOL     ow 1989   2.625   4.323   5.680 -0.7724 -0.3816  0.0305
  498SOL     hw 1990   2.688   4.279   5.623  0.3478 -0.8855  1.5654
  498SOL     hw 1991   2.550   4.264   5.684 -1.6154  0.4443 -2.1992
  498SOL     vw 1992   2.624   4.310   5.673 -0.7358 -0.3390 -0.0613
  499SOL     ow 1993   1.425   6.405   5.177  0.2256 -0.1279  0.4673
  499SOL     hw 1994   1.515   6.421   5.206  0.3387 -1.4075  0.9220
  499SOL     hw 1995   1.431   6.324   5.126 -0.8587 -0.9230  1.5515
  499SOL     vw 1996   1.438   6.396   5.174  0.0975 -0.4015  0.6704
  500SOL     ow 1997   5.865   2.081   6.110 -0.5287  0.1839  0.1668
  500SOL     hw 1998   5.937   2.135   6.079 -0.9201  0.9184  0.5166
  500SOL     hw 1999   5.803   2.143   6.149 -0.2303 -0.6714  2.0909
  500SOL     vw 2000   5.866   2.096   6.111 -0.5410  0.1680  0.4668
  501SOL     ow 2001   6.253   6.237   4.181  0.3071  0.2402 -0.5588
  501SOL     hw 2002   6.177   6.267   4.231  0.6160  0.6853 -0.3599
  501SOL     hw 2003   6.288   6.316   4.140  0.6442  0.0318 -0.6747
  501SOL     vw 2004   6.248   6.251   4.182  0.3924  0.2713 -0.5476
  502SOL     ow 2005   6.919   6.888   5.984  0.2405  0.6022 -0.1976
  502SOL     hw 2006   6.939   6.870   6.076  2.0002  2.0547 -0.2395
  502SOL     hw 2007   6.952   6.976   5.969 -0.7664  0.7136 -2.0321
  502SOL     vw 2008   6.926   6.897   5.994  0.3397  0.8082 -0.4454
  503SOL     ow 2009   4.887   0.359   3.751  0.1756 -0.4181 -0.9104
  503SOL     hw 2010   4.828   0.344   3.678  0.7995  0.3674 -1.5919
  503SOL     hw 2011   4.898   0.454   3.755  0.1191 -0.4412  0.2311
  503SOL     vw 2012   4.881   0.370   3.742  0.2503 -0.3176 -0.8497
  504SOL     ow 2013   1.740   6.680   6.538  0.5681 -0.1754 -0.0092
  504SOL     hw 2014   1.814   6.663   6.478 -0.5204 -1.8081 -0.9578
  504SOL     hw 2015   1.664   6.688   6.480 -0.7844 -3.2648  1.1189
  504SOL     vw 2016   1.740   6.679   6.522  0.2460 -0.7985  0.0145
  505SOL     ow 2017   6.948   5.426   4.571 -0.0638  0.1105 -0.3626
  505SOL     hw 2018   6.869   5.478   4.584 -0.2199  0.0533 -1.0745
  505SOL     hw 2019   7.013   5.468   4.627 -0.3659  0.6683 -0.4233
  505SOL     vw 2020   6.946   5.438   4.580 -0.1242  0.1767 -0.4644
  506SOL     ow 2021   3.488   5.296   4.190  0.5058 -0.2018  0.5063
  506SOL     hw 2022   3.406   5.339   4.166  1.8469  3.8779  2.4890
  506SOL     hw 2023   3.466   5.243   4.266 -0.3875  0.5056  0.7541
  506SOL     vw 2024   3.475   5.294   4.197  0.5649  0.4296  0.8006
  507SOL     ow 2025   6.165   1.650   6.880  0.2553 -0.0780 -0.3113
  507SOL     hw 2026   6.158   1.737   6.841 -1.3784  0.1431  0.3698
  507SOL     hw 2027   6.159   1.666   6.974  1.2830 -0.8301 -0.1018
  507SOL     vw 2028   6.163   1.664   6.887  0.1755 -0.1481 -0.1936
  508SOL     ow 2029   4.226   1.756   5.646 -0.1781  0.0337  0.4428
  508SOL     hw 2030   4.152   1.815   5.630  0.8125  0.6833 -2.3039
  508SOL     hw 2031   4.185   1.674   5.674 -1.9619  0.5042 -0.5772
  508SOL     vw 2032   4.211   1.753   5.647 -0.2825  0.1815 -0.0546
  509SOL     ow 2033   2.307   1.578   4.604 -0.5144  0.3681 -0.2113
  509SOL     hw 2034   2.340   1.495   4.569  0.5607 -0.9207  3.3708
  509SOL     hw 2035   2.218   1.559   4.633  0.3346 -0.2075  2.2660
  509SOL     vw 2036   2.300   1.565   4.603 -0.2606  0.1221  0.5884
  510SOL     ow 2037   5.705   4.325   2.075 -0.2421  0.4280  0.3610
  510SOL     hw 2038   5.741   4.309   2.163  0.1796 -0.0259  0.1133
  510SOL     hw 2039   5.762   4.274   2.017 -0.2898  1.0251 -0.2152
  510SOL     vw 2040   5.717   4.316   2.079 -0.1926  0.4468  0.2524
  511SOL     ow 2041   6.279   3.843   6.632 -0.1889 -1.4619 -0.3907
  511SOL     hw 2042   6.205   3.886   6.674  1.2335  0.0106  0.7347
  511SOL     hw 2043   6.294   3.893   6.552  1.6527  0.4761  1.0649
  511SOL     vw 2044   6.271   3.855   6.627  0.2418 -1.0118 -0.0503
  512SOL     ow 2045   2.523   5.943   0.352  0.2838  0.3766  0.0894
  512SOL     hw 2046   2.465   6.019   0.349 -0.3860 -0.1553 -0.5584
  512SOL     hw 2047   2.495   5.895   0.430 -0.5094 -0.1506 -0.5044
  512SOL     vw 2048   2.512   5.947   0.362  0.0907  0.2370 -0.0744
  513SOL     ow 2049   1.656   2.218   6.260  0.3178  0.6142  0.3858
  513SOL     hw 2050   1.743   2.187   6.287 -0.3899 -1.8013  0.1530
  513SOL     hw 2051   1.654   2.203   6.166 -0.6586 -0.2304  0.5259
  513SOL     vw 2052   1.668   2.212   6.251  0.0955  0.1841  0.3738
  514SOL     ow 2053   0.727   1.575   0.717  0.3666 -0.4295 -0.1686
  514SOL     hw 2054   0.649   1.557   0.665  0.4388  0.1981 -0.5019
  514SOL     hw 2055   0.774   1.642   0.668  1.1510 -0.8358 -0.0058
  514SOL     vw 2056   0.723   1.581   0.704  0.4796 -0.4003 -0.1911
  515SOL     ow 2057   5.422   4.488   5.996 -0.3072  0.0730  0.1992
  515SOL     hw 2058   5.452   4.399   5.978 -2.0740 -0.8545  1.4951
  515SOL     hw 2059   5.413   4.492   6.091 -2.1351  0.9402  0.0378
  515SOL     vw 2060   5.425   4.477   6.006 -0.7818  0.0651  0.3488
  516SOL     ow 2061   2.500   2.121   4.001 -0.1443  0.3923  0.5600
  516SOL     hw 2062   2.513   2.030   4.026 -0.3560  0.5377  1.2086
  516SOL     hw 2063   2.406   2.136   4.009 -0.0648  0.7736  0.8412
  516SOL     vw 2064   2.489   2.111   4.005 -0.1618  0.4618  0.6826
  517SOL     ow 2065   7.004   0.318   4.089  0.2690  0.1772 -0.3730
  517SOL     hw 2066   6.988   0.338   4.181  2.1046  0.9774 -0.1841
  517SOL     hw 2067   6.990   0.402   4.044 -3.0011 -0.7096 -1.2388
  517SOL     vw 2068   7.000   0.332   4.095  0.0796  0.1658 -0.4623
  518SOL     ow 2069   5.901   1.879   1.434  0.3285  0.1900 -0.0902
  518SOL     hw 2070   5.824   1.877   1.377 -1.2503 -2.7738  1.8673
  518SOL     hw 2071   5.947   1.797   1.415  1.9843  0.9995  0.1791
  518SOL     vw 2072   5.897   1.868   1.424  0.3388 -0.0942  0.2035
  519SOL     ow 2073   6.399   3.052   1.571  0.8064 -0.0176 -0.0906
  519SOL     hw 2074   6.412   2.969   1.616  1.5203 -0.9111 -1.8664
  519SOL     hw 2075   6.344   3.103   1.631  1.0925 -1.4053  1.4339
  519SOL     vw 2076   6.394   3.048   1.585  0.9382 -0.3185 -0.1238
  520SOL     ow 2077   4.437   1.245   5.099 -0.2486 -0.7537  0.1810
  520SOL     hw 2078   4.467   1.264   5.188 -0.5856  0.5083  0.0370
  520SOL     hw 2079   4.515   1.254   5.045 -0.3824  0.1900  0.1281
  520SOL     vw 2080   4.451   1.249   5.103 -0.3107 -0.4627  0.1547
  521SOL     ow 2081   0.357   4.514   6.642  0.3589  0.0178  0.6180
  521SOL     hw 2082   0.338   4.589   6.585  0.1942 -0.2444  0.3242
  521SOL     hw 2083   0.352   4.550   6.731  0.6340  0.4352  0.4720
  521SOL     vw 2084   0.354   4.529   6.646  0.3735  0.0381  0.5600
  522SOL     ow 2085   1.571   4.594   6.787 -0.8550 -0.2336 -0.5831
  522SOL     hw 2086   1.562   4.569   6.695  1.0728  0.8870 -1.1341
  522SOL     hw 2087   1.486   4.634   6.809 -1.4658 -0.8302 -1.7501
  522SOL     vw 2088   1.558   4.596   6.778 -0.6813 -0.1643 -0.8097
  523SOL     ow 2089   0.114   5.645   6.613 -0.2285  0.3287  0.1466
  523SOL     hw 2090   0.117   5.719   6.673  0.2290 -0.1590  0.7361
  523SOL     hw 2091   0.205   5.620   6.600 -0.0457  2.0571 -2.8491
  523SOL     vw 2092   0.126   5.651   6.619 -0.1440  0.4921 -0.1705
  524SOL     ow 2093   2.975   2.117   6.753 -0.0266  0.6495  0.6341
  524SOL     hw 2094   2.895   2.122   6.805  0.5738  1.1101  1.5479
  524SOL     hw 2095   2.989   2.206   6.721 -1.4705  0.0125 -2.0775
  524SOL     vw 2096   2.967   2.129   6.756 -0.1379  0.6263  0.3970
  525SOL     ow 2097   6.261   0.324   5.897  0.8065  0.2975  0.4740
  525SOL     hw 2098   6.202   0.255   5.928  2.3338 -1.1661  0.2066
  525SOL     hw 2099   6.202   0.391   5.861 -0.7292 -0.6326  1.1536
  525SOL     vw 2100   6.245   0.324   5.897  0.8056 -0.0183  0.5283
  526SOL     ow 2101   5.914   5.989   3.507 -0.0014  0.3540  0.5425
  526SOL     hw 2102   5.994   6.006   3.456  1.2440 -0.1691  2.2104
  526SOL     hw 2103   5.844   6.027   3.456  1.3142  0.7252 -1.0600
  526SOL     vw 2104   5.916   5.996   3.494  0.3369  0.3338  0.5510
  527SOL     ow 2105   3.211   0.416   0.650 -0.1001 -0.2037  0.1994
  527SOL     hw 2106   3.273   0.376   0.589  0.8981  1.6045 -0.0171
  527SOL     hw 2107   3.206   0.508   0.623 -0.7200  0.3222  1.9711
  527SOL     vw 2108   3.218   0.423   0.638 -0.0503  0.1042  0.4046
  528SOL     ow 2109   2.794   3.925   0.400 -0.2453 -0.0441 -0.3237
  528SOL     hw 2110   2.861   3.990   0.422 -0.8893  0.6223 -0.3061
  528SOL     hw 2111   2.729   3.933   0.470 -0.1779 -0.9352 -0.1464
  528SOL     vw 2112   2.794   3.935   0.412 -0.3214 -0.0737 -0.2980
  529SOL     ow 2113   2.384   5.846   3.509  0.2482 -0.5649  0.3020
  529SOL     hw 2114   2.395   5.910   3.579 -1.8737  0.7007 -0.4338
  529SOL     hw 2115   2.398   5.895   3.428  0.5844 -1.5110 -0.2345
  529SOL     vw 2116   2.387   5.861   3.507  0.0126 -0.5226  0.1341
  530SOL     ow 2117   1.820   3.849   5.308  0.7124  0.1923  0.2238
  530SOL     hw 2118   1.761   3.802   5.367 -1.4347  0.3313 -1.6587
  530SOL     hw 2119   1.842   3.930   5.355 -1.6555  0.7247  0.5516
  530SOL     vw 2120   1.815   3.853   5.322  0.1166  0.2810  0.0186
  531SOL     ow 2121   4.959   2.843   0.397  0.0537 -0.3424  0.7403
  531SOL     hw 2122   4.897   2.791   0.448 -1.8055  3.5317  2.9690
  531SOL     hw 2123   4.941   2.819   0.306 -1.6775 -2.4427  1.5436
  531SOL     vw 2124   4.948   2.833   0.392 -0.4199 -0.1085  1.1403
  532SOL     ow 2125   2.200   2.540   4.621  0.2145 -0.6300 -0.2990
  532SOL     hw 2126   2.258   2.611   4.650  1.3636 -2.1488  1.4037
  532SOL     hw 2127   2.112   2.570   4.644  0.4795  0.8983 -1.1276
  532SOL     vw 2128   2.196   2.553   4.628  0.4011 -0.6288 -0.1838
  533SOL     ow 2129   2.107   2.246   4.641 -0.3258 -0.0524 -0.1839
  533SOL     hw 2130   2.124   2.252   4.735 -3.2135  0.3639  0.3785
  533SOL     hw 2131   2.046   2.173   4.632 -0.2716  0.0563 -1.7238
  533SOL     vw 2132   2.101   2.237   4.652 -0.6998  0.0168 -0.3128
  534SOL     ow 2133   3.224   4.526   0.492  0.3303  0.2078  0.1128
  534SOL     hw 2134   3.142   4.539   0.540  0.4084 -0.9175  0.5855
  534SOL     hw 2135   3.230   4.432   0.480  2.0220  0.1769  0.9407
  534SOL     vw 2136   3.214   4.515   0.497  0.5639  0.0551  0.2844
  535SOL     ow 2137   0.062   2.912   2.324 -0.0360  1.1059  0.1741
  535SOL     hw 2138   0.049   2.975   2.395  0.4731  1.7305 -0.2617
  535SOL     hw 2139   0.143   2.942   2.281  0.1054  0.2648 -0.1678
  535SOL     vw 2140   0.071   2.925   2.328  0.0498  1.0774  0.0714
  536SOL     ow 2141   0.408   5.228   3.440  0.0859 -0.4174  0.1053
  536SOL     hw 2142   0.405   5.268   3.353 -1.9831  0.0442  0.3402
  536SOL     hw 2143   0.495   5.251   3.474  0.1482  1.1539 -1.0250
  536SOL     vw 2144   0.419   5.236   3.433 -0.1789 -0.1493 -0.0129
  537SOL     ow 2145   3.379   2.937   1.937 -0.1920 -0.6429 -0.1926
  537SOL     hw 2146   3.453   2.998   1.944  0.3879 -1.2480 -0.8652
  537SOL     hw 2147   3.343   2.933   2.026  1.9955 -2.0568  0.7090
  537SOL     vw 2148   3.384   2.945   1.950  0.1730 -0.9094 -0.1623
  538SOL     ow 2149   3.008   6.511   3.896 -0.2402  0.4116  0.8711
  538SOL     hw 2150   2.973   6.525   3.984 -0.7645 -1.2169  0.9583
  538SOL     hw 2151   2.997   6.417   3.881  2.1743  0.1881  0.0556
  538SOL     vw 2152   3.002   6.501   3.906  0.0093  0.1676  0.7750
  539SOL     ow 2153   2.161   1.432   5.744  0.0405  0.2839  0.4428
  539SOL     hw 2154   2.113   1.349   5.743 -0.7089  0.6362  2.6266
  539SOL     hw 2155   2.115   1.485   5.809 -0.1986  2.8685 -1.6869
  539SOL     vw 2156   2.149   1.428   5.752 -0.0900  0.6714  0.4499
  540SOL     ow 2157   5.496   3.071   2.726  0.2191 -0.0396  0.6582
  540SOL     hw 2158   5.566   3.016   2.692 -0.4351 -0.7711  0.4352
  540SOL     hw 2159   5.424   3.059   2.664  0.4533  2.0444 -0.0576
  540SOL     vw 2160   5.495   3.062   2.713  0.1638  0.1390  0.5344
  541SOL     ow 2161   2.465   6.336   3.311  0.0311 -0.0308 -0.2100
  541SOL     hw 2162   2.455   6.363   3.402 -0.2573 -0.6502 -0.0522
  541SOL     hw 2163   2.473   6.240   3.315  0.0416 -0.0592 -0.8315
  541SOL     vw 2164   2.465   6.327   3.324 -0.0055 -0.1161 -0.2711
  542SOL     ow 2165   0.536   5.823   5.569 -0.1678  0.1868 -0.3036
  542SOL     hw 2166   0.582   5.774   5.501  0.8708 -0.4596  0.8165
  542SOL     hw 2167   0.565   5.914   5.557  0.6208 -0.0482 -0.2460
  542SOL     vw 2168   0.546   5.829   5.558  0.0733  0.0706 -0.1483
  543SOL     ow 2169   1.661   5.149   0.772  0.1767 -0.4727 -0.0007
  543SOL     hw 2170   1.666   5.244   0.757 -0.9258 -0.2123  1.1170
  543SOL     hw 2171   1.752   5.120   0.769  0.6529  0.8331  0.9112
  543SOL     vw 2172   1.673   5.158   0.769  0.0941 -0.2661  0.2671
  544SOL     ow 2173   6.192   3.671   3.096 -0.2487  0.5586  0.1360
  544SOL     hw 2174   6.174   3.588   3.141 -1.8951  0.7922 -0.0308
  544SOL     hw 2175   6.147   3.737   3.148 -2.6791  0.7840 -2.0273
  544SOL     vw 2176   6.184   3.669   3.109 -0.7865  0.6193 -0.1715
  545SOL     ow 2177   5.564   0.893   0.841  0.7737  0.1919  0.3886
  545SOL     hw 2178   5.519   0.859   0.918  2.8122  0.2816  1.6706
  545SOL     hw 2179   5.556   0.823   0.776  0.0504 -0.3832  1.0762
  545SOL     vw 2180   5.557   0.879   0.842  0.9470  0.1278  0.6484
  546SOL     ow 2181   6.703   2.102   5.485  0.2456 -0.7869  0.0605
  546SOL     hw 2182   6.719   2.009   5.467 -1.8249 -1.3641  0.9167
  546SOL     hw 2183   6.681   2.139   5.400 -2.2545 -1.8759  0.1569
  546SOL     vw 2184   6.703   2.094   5.471 -0.3576 -1.0067  0.1860
  547SOL     ow 2185   3.433   3.647   6.298 -0.3067  0.2082 -0.0176
  547SOL     hw 2186   3.361   3.637   6.236 -0.8931  1.6045  0.3951
  547SOL     hw 2187   3.474   3.730   6.274  1.2549 -0.6153 -0.3122
  547SOL     vw 2188   3.429   3.657   6.287 -0.1779  0.2838 -0.0019
  548SOL     ow 2189   1.629   3.176   1.976 -0.3817 -0.3712 -0.2740
  548SOL     hw 2190   1.629   3.214   2.064  0.5057  0.4994 -0.6286
  548SOL     hw 2191   1.597   3.247   1.919 -2.9631 -1.5555 -0.4484
  548SOL     vw 2192   1.625   3.190   1.980 -0.6052 -0.4126 -0.3439
  549SOL     ow 2193   3.127   1.028   6.905  0.0732 -0.4571 -0.1180
  549SOL     hw 2194   3.060   1.073   6.956  0.2736 -0.2230 -0.0544
  549SOL     hw 2195   3.139   0.944   6.950  0.4175 -0.1564  0.3708
  549SOL     vw 2196   3.120   1.023   6.918  0.1450 -0.3864 -0.0451
  550SOL     ow 2197   3.104   0.657   3.646  0.8637  0.0138  0.8906
  550SOL     hw 2198   3.123   0.563   3.652  1.3746  0.1631  1.9655
  550SOL     hw 2199   3.072   0.670   3.557  3.7899 -0.6686 -0.3898
  550SOL     vw 2200   3.103   0.646   3.635  1.3171 -0.0565  0.8637
  551SOL     ow 2201   0.752   2.751   2.716  0.0775  0.4877  0.8735
  551SOL     hw 2202   0.847   2.749   2.706  0.1749  1.9010  1.2139
  551SOL     hw 2203   0.723   2.814   2.649 -0.2634  2.4657  2.7674
  551SOL     vw 2204   0.761   2.759   2.706  0.0453  0.9351  1.1683
  552SOL     ow 2205   1.960   4.190   2.664  0.5630 -0.4195  0.2540
  552SOL     hw 2206   1.889   4.254   2.674 -0.7449 -1.8833  0.7074
  552SOL     hw 2207   2.024   4.233   2.607 -1.1990  0.5393 -1.0815
  552SOL     vw 2208   1.959   4.204   2.658  0.1580 -0.4864  0.1376
  553SOL     ow 2209   6.794   4.085   4.361  0.0270  0.1392 -0.2073
  553SOL     hw 2210   6.874   4.137   4.355  0.4723 -0.4422  0.5850
  553SOL     hw 2211   6.820   3.998   4.329 -0.8019  0.4636 -1.8731
  553SOL     vw 2212   6.808   4.081   4.356 -0.0238  0.1056 -0.3223
  554SOL     ow 2213   6.273   6.946   3.168  0.1262 -0.2050  0.9065
  554SOL     hw 2214   6.206   7.011   3.193  0.1470 -0.0704  0.6107
  554SOL     hw 2215   6.353   6.977   3.210 -0.2004 -0.9018  2.0965
  554SOL     vw 2216   6.275   6.959   3.177  0.0861 -0.2794  1.0245
  555SOL     ow 2217   1.707   5.768   2.412 -0.2987 -0.2041  0.2914
  555SOL     hw 2218   1.752   5.698   2.364 -0.7298  0.3748 -0.9982
  555SOL     hw 2219   1.639   5.723   2.463 -0.8181 -0.6945 -0.8193
  555SOL     vw 2220   1.704   5.753   2.413 -0.4241 -0.1924 -0.0254
  556SOL     ow 2221   4.839   5.387   0.447 -0.1813 -0.0791 -0.2198
  556SOL     hw 2222   4.836   5.291   0.447  2.1002 -0.2156 -0.9284
  556SOL     hw 2223   4.758   5.414   0.405 -1.9984 -1.5766  2.0720
  556SOL     vw 2224   4.828   5.378   0.441 -0.1199 -0.2944 -0.0109
  557SOL     ow 2225   3.600   6.220   0.557  1.2960 -0.0649  0.6556
  557SOL     hw 2226   3.552   6.266   0.488  1.3751  1.3443  1.4947
  557SOL     hw 2227   3.540   6.220   0.631  1.4783 -0.9419  0.8090
  557SOL     vw 2228   3.586   6.226   0.557  1.3304  0.0050  0.7865
  558SOL     ow 2229   1.684   6.155   3.379 -0.6817 -0.0822 -0.2358
  558SOL     hw 2230   1.680   6.060   3.369 -1.2470  0.1831 -3.6342
  558SOL     hw 2231   1.758   6.170   3.439  0.8374 -2.5876 -1.3362
  558SOL     vw 2232   1.693   6.145   3.386 -0.5558 -0.3779 -0.8295
  559SOL     ow 2233   5.947   2.189   1.596 -0.1290  0.4762  0.0816
  559SOL     hw 2234   5.974   2.277   1.622 -2.6231  0.8785  1.7251
  559SOL     hw 2235   5.937   2.193   1.501  0.4446  1.7495  0.0602
  559SOL     vw 2236   5.949   2.201   1.587 -0.3822  0.6973  0.2956
  560SOL     ow 2237   3.930   0.478   0.072  0.1137 -0.1258  0.8138
  560SOL     hw 2238   3.909   0.459  -0.019  1.8518  0.4780  0.2405
  560SOL     hw 2239   3.928   0.573   0.078  1.5031 -0.0832  0.9788
  560SOL     vw 2240   3.927   0.488   0.061  0.5264 -0.0405  0.7598
  561SOL     ow 2241   2.103   2.391   1.887 -0.3924 -0.1890 -0.2689
  561SOL     hw 2242   2.048   2.439   1.950  0.3354 -0.2885  0.4600
  561SOL     hw 2243   2.184   2.440   1.883 -1.1330  0.9877 -2.7296
  561SOL     vw 2244   2.106   2.403   1.895 -0.3940 -0.0467 -0.4974
  562SOL     ow 2245   6.366   2.361   0.572  0.0175  0.4744 -0.1165
  562SOL     hw 2246   6.298   2.296   0.556  0.4135  0.4184 -1.7736
  562SOL     hw 2247   6.344   2.434   0.513  3.7966 -1.3940 -4.5097
  562SOL     vw 2248   6.355   2.362   0.562  0.5684  0.2205 -0.9148
  563SOL     ow 2249   6.683   1.153   6.703  0.4078  0.3596  0.2822
  563SOL     hw 2250   6.654   1.233   6.746 -0.7387 -0.4351  1.0437
  563SOL     hw 2251   6.603   1.103   6.689  1.0511 -0.4435 -0.6344
  563SOL     vw 2252   6.669   1.157   6.707  0.3414  0.1488  0.2615
  564SOL     ow 2253   1.018   4.481   0.721 -0.2197 -0.1391 -0.0581
  564SOL     hw 2254   1.049   4.569   0.699 -0.1830 -0.4658 -1.4072
  564SOL     hw 2255   0.990   4.487   0.813 -2.3380  1.8758 -0.7423
  564SOL     vw 2256   1.019   4.493   0.731 -0.4944  0.0839 -0.3264
  565SOL     ow 2257   0.794   1.673   6.070  0.0536  1.0844 -0.1974
  565SOL     hw 2258   0.776   1.767   6.064  0.0509  1.1842  1.1449
  565SOL     hw 2259   0.851   1.664   6.145 -0.3477 -0.0522 -0.0050
  565SOL     vw 2260   0.799   1.684   6.079  0.0003  0.9476  0.0050
  566SOL     ow 2261   5.915   2.179   1.345  0.6541  0.1435  0.3382
  566SOL     hw 2262   6.000   2.192   1.304  0.6106  2.7515  0.9071
  566SOL     hw 2263   5.853   2.180   1.272  0.8401  1.7183  0.1718
  566SOL     vw 2264   5.918   2.181   1.330  0.6728  0.6956  0.3912
  567SOL     ow 2265   3.769   6.660   4.481  0.5422 -0.5623 -0.5522
  567SOL     hw 2266   3.714   6.736   4.496  0.6268 -0.6688  0.3106
  567SOL     hw 2267   3.796   6.669   4.389  0.5490  0.4391 -0.4684
  567SOL     vw 2268   3.765   6.671   4.471  0.5543 -0.4442 -0.4275
  568SOL     ow 2269   2.467   4.104   3.234 -0.2065  0.2230 -0.0439
  568SOL     hw 2270   2.396   4.054   3.193  0.7489  0.6022 -2.2936
  568SOL     hw 2271   2.422   4.180   3.273 -1.2906 -0.7766  0.7435
  568SOL     vw 2272   2.452   4.107   3.234 -0.2233  0.1411 -0.2367
  569SOL     ow 2273   3.921   6.251   0.596 -0.1637  0.4426 -0.0179
  569SOL     hw 2274   3.952   6.236   0.686 -2.6852  1.4208  1.1076
  569SOL     hw 2275   3.937   6.344   0.580 -2.3788  0.9960  0.6253
  569SOL     vw 2276   3.927   6.262   0.606 -0.7886  0.6449  0.2155
  570SOL     ow 2277   3.364   6.139   1.734 -0.1192 -0.1846 -0.4629
  570SOL     hw 2278   3.296   6.135   1.668  0.8400 -0.2587 -1.4689
  570SOL     hw 2279   3.431   6.197   1.698  0.4279 -0.2230  0.4358
  570SOL     vw 2280   3.364   6.146   1.721  0.0796 -0.1996 -0.4770
  571SOL     ow 2281   5.100   4.452   4.224  0.7616 -0.1509 -0.0186
  571SOL     hw 2282   5.184   4.492   4.203  0.0615  0.7606 -1.1817
  571SOL     hw 2283   5.071   4.498   4.303  1.1435 -0.1419  0.1172
  571SOL     vw 2284   5.107   4.463   4.232  0.7195 -0.0296 -0.1540
  572SOL     ow 2285   6.345   4.751   0.279  0.4607 -0.4335 -0.0819
  572SOL     hw 2286   6.407   4.822   0.289  0.6239 -0.5235 -0.4174
  572SOL     hw 2287   6.399   4.673   0.264  0.2633 -0.3333 -1.4599
  572SOL     vw 2288   6.360   4.750   0.278  0.4563 -0.4320 -0.3080
  573SOL     ow 2289   2.222   1.580   0.434  0.2531 -0.4696 -0.5355
  573SOL     hw 2290   2.235   1.516   0.504  0.4451  0.9391  0.7771
  573SOL     hw 2291   2.128   1.598   0.434  0.5839  1.6590  1.4041
  573SOL     vw 2292   2.212   1.574   0.443  0.3221 -0.0029 -0.1064
  574SOL     ow 2293   5.011   5.661   6.647 -0.1052  0.4050 -0.8270
  574SOL     hw 2294   4.961   5.742   6.639 -1.1750 -0.1541  0.0130
  574SOL     hw 2295   4.984   5.624   6.731  1.7902  0.1161 -0.2902
  574SOL     vw 2296   5.001   5.667   6.657  0.0036  0.2930 -0.6452
  575SOL     ow 2297   5.587   0.045   1.732  0.0637 -0.0273 -0.3632
  575SOL     hw 2298   5.560   0.012   1.818  0.3625 -0.2427 -0.3466
  575SOL     hw 2299   5.553  -0.019   1.670 -0.1320  0.1158 -0.4035
  575SOL     vw 2300   5.579   0.032   1.735  0.0775 -0.0368 -0.3663
  576SOL     ow 2301   6.570   0.747   0.385  0.5908 -0.6103 -0.4441
  576SOL     hw 2302   6.488   0.797   0.384  0.7344 -0.1776  2.0568
  576SOL     hw 2303   6.555   0.679   0.451  2.2592 -0.4262  0.1700
  576SOL     vw 2304   6.557   0.745   0.394  0.8299 -0.5289 -0.0331
  577SOL     ow 2305   4.052   2.702   0.927 -0.7483 -0.2320  0.6906
  577SOL     hw 2306   4.005   2.619   0.924 -1.3820  0.1448 -0.6672
  577SOL     hw 2307   4.073   2.722   0.836  0.4457  0.5244  1.0947
  577SOL     vw 2308   4.049   2.694   0.915 -0.6745 -0.0825  0.5648
  578SOL     ow 2309   5.930   3.657   2.004  0.5453  0.6924 -0.9419
  578SOL     hw 2310   5.966   3.610   2.079 -2.1424  0.0536  0.0538
  578SOL     hw 2311   5.973   3.743   2.006  1.8332  0.0523  0.2273
  578SOL     vw 2312   5.940   3.662   2.014  0.3603  0.5237 -0.6562
  579SOL     ow 2313   5.875   3.003   2.018  0.4839 -0.2950 -0.6253
  579SOL     hw 2314   5.867   2.917   1.978  0.6308 -0.3062 -0.6304
  579SOL     hw 2315   5.803   3.006   2.081 -0.4472  0.1651 -1.6788
  579SOL     vw 2316   5.865   2.992   2.021  0.3805 -0.2358 -0.7652
  580SOL     ow 2317   2.907   6.083   4.322  0.1139  0.9162 -0.1439
  580SOL     hw 2318   2.877   6.023   4.391 -0.9664 -1.0821 -2.2340
  580SOL     hw 2319   2.856   6.058   4.245  2.5203  1.8383 -2.1614
  580SOL     vw 2320   2.897   6.071   4.321  0.2890  0.7741 -0.6862
  581SOL     ow 2321   6.062   6.126   4.882  0.5842  0.4022  0.2130
  581SOL     hw 2322   6.000   6.142   4.811 -2.7182  0.5669  2.8648
  581SOL     hw 2323   6.074   6.212   4.923 -0.9711 -0.2745  2.2686
  581SOL     vw 2324   6.055   6.139   4.878 -0.0565  0.3347  0.8340
  582SOL     ow 2325   3.620   5.474   5.124 -0.5661  0.2722  0.4915
  582SOL     hw 2326   3.562   5.485   5.199 -1.1576 -0.4749  0.1515
  582SOL     hw 2327   3.680   5.403   5.151 -2.7339 -2.2478 -0.8541
  582SOL     vw 2328   3.621   5.466   5.137 -0.9303 -0.1588  0.2692
  583SOL     ow 2329   2.731   3.590   4.668  0.1308  0.3502 -0.2974
  583SOL     hw 2330   2.680   3.621   4.742  1.1537 -3.2317  2.1533
  583SOL     hw 2331   2.788   3.664   4.646 -1.1920  2.0064  1.5000
  583SOL     vw 2332   2.732   3.604   4.675  0.0912  0.0962  0.2632
  584SOL     ow 2333   1.133   6.886   6.200 -0.5998 -0.1357 -0.1150
  584SOL     hw 2334   1.061   6.826   6.217 -0.1121 -0.0886  2.7281
  584SOL     hw 2335   1.212   6.835   6.221  0.4558 -0.5782 -4.2372
  584SOL     vw 2336   1.134   6.871   6.205 -0.3963 -0.1879 -0.2840
  585SOL     ow 2337   2.702   0.026   1.739 -0.4925 -0.7759  0.6389
  585SOL     hw 2338   2.681  -0.056   1.784  0.7796 -0.5763  1.6438
  585SOL     hw 2339   2.758  -0.001   1.666  0.1009 -0.8009  1.0932
  585SOL     vw 2340   2.707   0.012   1.735 -0.2464 -0.7528  0.8314
  586SOL     ow 2341   0.025   3.041   6.095 -0.3383 -0.0027  0.4106
  586SOL     hw 2342   0.108   3.057   6.140 -0.2795  2.9115 -0.4915
  586SOL     hw 2343   0.042   3.067   6.004 -1.4520 -2.2627 -0.5238
  586SOL     vw 2344   0.038   3.047   6.089 -0.4775  0.0836  0.1681
  587SOL     ow 2345   4.437   4.709   7.003 -0.1969  0.2714  0.0064
  587SOL     hw 2346   4.361   4.684   6.951  0.7890 -1.7763 -0.5577
  587SOL     hw 2347   4.419   4.674   7.090  0.2156 -0.4908 -0.2080
  587SOL     vw 2348   4.425   4.701   7.008 -0.0126 -0.0992 -0.0963
  588SOL     ow 2349   0.262   4.211   6.717 -0.4351  0.1593 -0.3669
  588SOL     hw 2350   0.329   4.177   6.777 -1.6744 -1.6254  0.1093
  588SOL     hw 2351   0.230   4.133   6.671 -0.0812  1.3909 -2.8109
  588SOL     vw 2352   0.267   4.196   6.719 -0.5519  0.0863 -0.6266
  589SOL     ow 2353   2.834   1.400   1.559 -0.2018 -0.2700  0.5399
  589SOL     hw 2354   2.926   1.399   1.532  0.8311  1.0367  3.5040
  589SOL     hw 2355   2.794   1.326   1.515  2.2322 -0.7749 -0.9773
  589SOL     vw 2356   2.841   1.390   1.550  0.2557 -0.1642  0.7308
  590SOL     ow 2357   6.215   5.356   1.140 -0.5189 -0.0009  0.0899
  590SOL     hw 2358   6.155   5.429   1.155  1.1290  1.7349 -1.2218
  590SOL     hw 2359   6.301   5.397   1.132  0.7087 -2.2643  0.7021
  590SOL     vw 2360   6.218   5.371   1.141 -0.1395 -0.0703 -0.0024
  591SOL     ow 2361   2.922   6.313   5.431 -0.5570  0.1605  0.3181
  591SOL     hw 2362   2.980   6.383   5.400  0.5350 -1.0014 -0.4267
  591SOL     hw 2363   2.936   6.309   5.525  0.1175  0.3128  0.2289
  591SOL     vw 2364   2.932   6.322   5.439 -0.3240  0.0272  0.2079
  592SOL     ow 2365   2.541   0.616   4.982  1.0195 -0.9889 -0.1643
  592SOL     hw 2366   2.456   0.593   5.021  0.7207  0.1930 -0.0698
  592SOL     hw 2367   2.603   0.554   5.020  0.8889  0.5685  2.8368
  592SOL     vw 2368   2.538   0.605   4.992  0.9629 -0.6275  0.2441
  593SOL     ow 2369   6.409   3.810   1.544 -0.0112  0.4249 -0.8243
  593SOL     hw 2370   6.341   3.748   1.570 -0.9845  1.8774  0.2446
  593SOL     hw 2371   6.431   3.785   1.454 -0.0544 -1.7056 -0.2911
  593SOL     vw 2372   6.403   3.798   1.536 -0.1454  0.3356 -0.6129
  594SOL     ow 2373   4.947   2.567   1.182  1.1612 -0.2900 -0.1122
  594SOL     hw 2374   4.978   2.602   1.099  0.4905  0.2709 -0.1327
  594SOL     hw 2375   4.861   2.607   1.195  0.0919 -2.3591 -0.4089
  594SOL     vw 2376   4.939   2.577   1.173  0.9315 -0.4890 -0.1541
  595SOL     ow 2377   5.700   2.895   0.014 -0.1878  0.0351  0.1942
  595SOL     hw 2378   5.624   2.846  -0.016 -1.0019  0.1393  1.9996
  595SOL     hw 2379   5.671   2.938   0.094  0.7140  2.9137 -0.9177
  595SOL     vw 2380   5.686   2.894   0.020 -0.1762  0.4287  0.2857
  596SOL     ow 2381   3.420   0.471   6.592 -0.8801 -0.1954  0.2579
  596SOL     hw 2382   3.469   0.546   6.557  2.2847 -1.2244  2.0159
  596SOL     hw 2383   3.353   0.510   6.648 -1.7182  1.3085 -1.6893
  596SOL     vw 2384   3.418   0.486   6.595 -0.5732 -0.1327  0.2329
  597SOL     ow 2385   0.031   0.234   6.372 -0.2678 -0.1438  0.1749
  597SOL     hw 2386   0.115   0.193   6.351 -0.3196  0.2453 -0.8186
  597SOL     hw 2387  -0.009   0.252   6.287 -0.5637  1.3317  0.6096
  597SOL     vw 2388   0.037   0.231   6.358 -0.3135  0.1022  0.1011
  598SOL     ow 2389   2.487   6.916   2.838  0.9180 -0.5744 -0.3919
  598SOL     hw 2390   2.551   6.847   2.854 -0.1739 -1.6565 -0.5446
  598SOL     hw 2391   2.416   6.872   2.789 -0.3158  0.3770  0.4843
  598SOL     vw 2392   2.486   6.901   2.833  0.6113 -0.5915 -0.2965
  599SOL     ow 2393   0.268   5.191   0.826 -0.3749 -0.0998  0.8573
  599SOL     hw 2394   0.332   5.211   0.758 -1.7513  0.8352 -0.2227
  599SOL     hw 2395   0.313   5.130   0.884  1.7229  1.0366  0.5276
  599SOL     vw 2396   0.282   5.185   0.825 -0.2797  0.1736  0.6713
  600SOL     ow 2397   1.879   1.461   3.943  0.2278 -0.1634 -0.5806
  600SOL     hw 2398   1.934   1.538   3.950  2.9551 -2.0937  1.4592
  600SOL     hw 2399   1.869   1.430   4.034 -0.8793 -2.1007 -1.2960
  600SOL     vw 2400   1.885   1.467   3.956  0.4415 -0.6737 -0.4059
  601SOL     ow 2401   1.489   1.817   4.510  0.5679  0.6496 -0.2140
  601SOL     hw 2402   1.462   1.908   4.521 -1.6312  0.0848 -0.4658
  601SOL     hw 2403   1.411   1.766   4.529  1.2997 -1.1329 -1.6110
  601SOL     vw 2404   1.475   1.822   4.514  0.3743  0.3398 -0.4315
  602SOL     ow 2405   6.532   0.341   6.925 -0.2243 -0.3640 -0.3764
  602SOL     hw 2406   6.485   0.307   6.849  1.9030 -0.6351 -1.6696
  602SOL     hw 2407   6.465   0.386   6.976 -1.8488 -0.6314 -2.1303
  602SOL     vw 2408   6.517   0.343   6.922 -0.1581 -0.4350 -0.7787
  603SOL     ow 2409   4.365   0.495   3.902  0.1291  0.0861 -0.3308
  603SOL     hw 2410   4.429   0.517   3.834  1.5504 -1.7709  0.3288
  603SOL     hw 2411   4.285   0.476   3.853  0.4788  0.9716 -1.3008
  603SOL     vw 2412   4.363   0.495   3.886  0.3626 -0.0421 -0.3718
  604SOL     ow 2413   6.411   6.764   0.947  0.4119 -0.7792  0.1667
  604SOL     hw 2414   6.499   6.727   0.950  0.5781 -0.5237 -0.9064
  604SOL     hw 2415   6.397   6.783   0.854 -1.4502 -2.4444  0.0446
  604SOL     vw 2416   6.421   6.762   0.935  0.1884 -0.9651  0.0090
  605SOL     ow 2417   4.542   4.147   3.734  0.5344  0.5338 -0.8429
  605SOL     hw 2418   4.547   4.053   3.749  0.2749  0.3341 -1.9134
  605SOL     hw 2419   4.622   4.168   3.685  1.7089  1.2857  1.2715
  605SOL     vw 2420   4.553   4.137   3.730  0.6547  0.6065 -0.7051
  606SOL     ow 2421   5.527   0.678   0.691 -0.1408  0.1454 -0.6535
  606SOL     hw 2422   5.442   0.646   0.661 -0.1026  0.8832 -1.5961
  606SOL     hw 2423   5.590   0.645   0.626  0.6765 -2.2731  1.1791
  606SOL     vw 2424   5.524   0.669   0.679 -0.0281 -0.0764 -0.5361
  607SOL     ow 2425   2.949   1.659   0.414  0.5865  0.4146  0.2225
  607SOL     hw 2426   2.936   1.582   0.359 -1.1900  0.7169  0.1699
  607SOL     hw 2427   2.929   1.629   0.503 -2.5644  1.3040 -0.0706
  607SOL     vw 2428   2.945   1.645   0.419 -0.0635  0.5718  0.1769
  608SOL     ow 2429   1.318   3.241   5.756  0.0041  0.8640 -0.0863
  608SOL     hw 2430   1.283   3.155   5.779 -1.4328  1.2270 -0.7771
  608SOL     hw 2431   1.326   3.287   5.839 -0.0135  0.3393  0.2100
  608SOL     vw 2432   1.314   3.235   5.770 -0.1878  0.8426 -0.1383
  609SOL     ow 2433   3.767   0.339   1.828 -0.2213  0.0759 -0.2422
  609SOL     hw 2434   3.715   0.266   1.863  1.0028 -1.4076 -1.3595
  609SOL     hw 2435   3.830   0.359   1.897 -1.5350  1.1625  0.6894
  609SOL     vw 2436   3.768   0.332   1.842 -0.2331  0.0235 -0.2667
  610SOL     ow 2437   1.047   3.065   3.913 -0.2194  0.6821 -0.3775
  610SOL     hw 2438   1.064   3.105   3.999 -0.3352  0.7481 -0.3860
  610SOL     hw 2439   1.101   2.986   3.913  1.3453  1.6970 -1.0175
  610SOL     vw 2440   1.057   3.060   3.924 -0.0282  0.8247 -0.4630
  611SOL     ow 2441   5.900   0.754   1.648 -1.2922  0.0940  1.0718
  611SOL     hw 2442   5.872   0.670   1.685  1.2756 -2.1513 -1.5587
  611SOL     hw 2443   5.860   0.757   1.561  0.5923  0.2861  0.1444
  611SOL     vw 2444   5.891   0.743   1.641 -0.7048 -0.1769  0.6023
  612SOL     ow 2445   2.525   0.546   1.500 -0.3711  0.5095  0.0052
  612SOL     hw 2446   2.573   0.616   1.457  1.6228 -0.6113  0.2751
  612SOL     hw 2447   2.552   0.552   1.592 -1.6350  0.5185  0.3979
  612SOL     vw 2448   2.535   0.556   1.507 -0.2749  0.3628  0.0926
  613SOL     ow 2449   4.124   5.285   5.443  0.2763  0.2344  0.7103
  613SOL     hw 2450   4.105   5.238   5.362  2.9765 -0.4421  0.3818
  613SOL     hw 2451   4.127   5.377   5.416  0.6069  0.0641  0.1308
  613SOL     vw 2452   4.122   5.291   5.428  0.6759  0.1228  0.5906
  614SOL     ow 2453   6.709   4.262   1.051  0.4312 -0.7622 -0.0396
  614SOL     hw 2454   6.722   4.352   1.081 -1.3359 -0.1630 -0.9170
  614SOL     hw 2455   6.726   4.266   0.956 -0.0444 -1.2645 -0.1506
  614SOL     vw 2456   6.713   4.275   1.042  0.1349 -0.7493 -0.1699
  615SOL     ow 2457   0.371   2.970   3.461  0.7815 -0.1388  0.4685
  615SOL     hw 2458   0.316   3.017   3.398 -1.5344 -2.6728  0.3700
  615SOL     hw 2459   0.413   3.038   3.513  0.6858  2.0055 -2.0743
  615SOL     vw 2460   0.369   2.985   3.459  0.4633 -0.1904  0.1200
  616SOL     ow 2461   1.081   0.089   1.090  0.7245  1.1426  0.2095
  616SOL     hw 2462   1.114   0.178   1.077 -0.5119  1.4685 -0.9280
  616SOL     hw 2463   0.995   0.089   1.049  0.1506 -0.2376  1.3115
  616SOL     vw 2464   1.074   0.101   1.083  0.4855  1.0035  0.2049
  617SOL     ow 2465   1.597   4.845   0.768  0.1526 -0.7641 -0.2665
  617SOL     hw 2466   1.688   4.845   0.737  0.1713 -0.6760 -0.2124
  617SOL     hw 2467   1.560   4.765   0.732  0.0034 -0.3617 -1.0259
  617SOL     vw 2468   1.604   4.835   0.759  0.1354 -0.6993 -0.3595
  618SOL     ow 2469   0.194   6.746   0.942  0.4226 -0.7191  0.6738
  618SOL     hw 2470   0.120   6.803   0.924  1.9627  0.9363 -0.8259
  618SOL     hw 2471   0.183   6.673   0.880  0.9550  0.4378 -0.8398
  618SOL     vw 2472   0.183   6.744   0.931  0.6960 -0.3481  0.2762
  619SOL     ow 2473   1.066   2.264   2.243  0.8238  0.0578  0.0227
  619SOL     hw 2474   1.028   2.343   2.281 -2.3534 -1.0447 -0.5832
  619SOL     hw 2475   1.100   2.215   2.317  2.2080  1.5928  0.4742
  619SOL     vw 2476   1.066   2.268   2.258  0.5872  0.1147  0.0023
  620SOL     ow 2477   5.093   5.908   6.205  0.6695  0.0966 -0.1493
  620SOL     hw 2478   5.036   5.946   6.271 -0.9636  0.8764 -1.9070
  620SOL     hw 2479   5.036   5.895   6.129  2.4801 -0.6540 -1.4499
  620SOL     vw 2480   5.078   5.911   6.203  0.6928  0.1004 -0.5529
  621SOL     ow 2481   3.316   4.248   2.099 -0.3218  0.0002  0.6530
  621SOL     hw 2482   3.280   4.318   2.044 -2.8631 -1.3703  0.4321
  621SOL     hw 2483   3.242   4.221   2.154  0.8655 -1.8647  1.4001
  621SOL     vw 2484   3.301   4.254   2.099 -0.5006 -0.4265  0.7224
  622SOL     ow 2485   2.323   3.311   2.521 -0.0226 -0.0113  0.6900
  622SOL     hw 2486   2.334   3.245   2.453 -0.8068  0.6857 -0.1399
  622SOL     hw 2487   2.411   3.343   2.538  0.1590 -0.0245 -0.1781
  622SOL     vw 2488   2.336   3.306   2.514 -0.1022  0.0790  0.4659
  623SOL     ow 2489   5.159   1.706   2.510 -0.5334 -0.1665  0.1420
  623SOL     hw 2490   5.224   1.636   2.501  0.2441  0.6901 -1.0695
  623SOL     hw 2491   5.082   1.673   2.464  0.0333  0.0162 -0.9494
  623SOL     vw 2492   5.157   1.692   2.503 -0.3557 -0.0293 -0.1619
  624SOL     ow 2493   5.708   1.803   4.267  0.1528 -0.0627  0.4164
  624SOL     hw 2494   5.616   1.825   4.280 -0.1259 -2.2336  2.9406
  624SOL     hw 2495   5.752   1.834   4.345  1.8652  1.8554 -1.1856
  624SOL     vw 2496   5.702   1.810   4.279  0.3419 -0.0960  0.5379
  625SOL     ow 2497   4.337   4.082   4.045 -0.1421 -0.0225  0.3742
  625SOL     hw 2498   4.353   4.110   4.136  3.9734  0.1788 -0.2185
  625SOL     hw 2499   4.333   3.986   4.050  1.6467 -0.1189  0.6835
  625SOL     vw 2500   4.339   4.073   4.058  0.6371 -0.0088  0.3371
  626SOL     ow 2501   1.357   0.646   6.273  0.5572 -0.5206  0.0951
  626SOL     hw 2502   1.361   0.625   6.366 -0.3268 -0.2680  0.1957
  626SOL     hw 2503   1.448   0.660   6.248  0.8212 -0.7980  0.8712
  626SOL     vw 2504   1.370   0.645   6.282  0.4754 -0.5239  0.2110
  627SOL     ow 2505   5.379   3.734   6.531  0.6060 -0.3824 -0.1292
  627SOL     hw 2506   5.441   3.663   6.515 -1.1755 -1.9062 -0.5016
  627SOL     hw 2507   5.306   3.693   6.576 -0.3159  1.3064 -0.0017
  627SOL     vw 2508   5.378   3.720   6.535  0.2494 -0.3607 -0.1616
  628SOL     ow 2509   3.265   4.848   0.477  0.2170 -0.0445  0.3558
  628SOL     hw 2510   3.172   4.872   0.475  0.6968  2.1188  1.1155
  628SOL     hw 2511   3.309   4.919   0.430  1.8486  1.2949  3.5871
  628SOL     vw 2512   3.258   4.861   0.471  0.4956  0.4179  0.8823
  629SOL     ow 2513   2.769   1.325   1.237 -0.1747  0.0969 -0.4707
  629SOL     hw 2514   2.746   1.236   1.264  2.2367 -0.7324 -0.9551
  629SOL     hw 2515   2.776   1.320   1.142  2.2166  0.1768 -0.3457
  629SOL     vw 2516   2.767   1.313   1.228  0.4590 -0.0019 -0.5180
  630SOL     ow 2517   6.882   3.426   5.298 -0.0288  0.5559  0.0701
  630SOL     hw 2518   6.901   3.398   5.387  2.0279  1.5206  0.0010
  630SOL     hw 2519   6.935   3.369   5.243  0.3979  1.3437 -0.3638
  630SOL     vw 2520   6.891   3.415   5.303  0.2987  0.7871  0.0036
  631SOL     ow 2521   1.419   3.920   5.044 -0.1443  0.5039  0.3760
  631SOL     hw 2522   1.473   3.975   4.987 -1.8052  0.9226 -0.8757
  631SOL     hw 2523   1.480   3.886   5.109  1.9672 -0.4578 -1.9564
  631SOL     vw 2524   1.434   3.923   5.045 -0.0848  0.4323 -0.0968
  632SOL     ow 2525   0.765   4.643   2.977 -0.3311  0.3844 -0.7975
  632SOL     hw 2526   0.835   4.583   3.003 -0.8398 -0.0675 -0.4307
  632SOL     hw 2527   0.685   4.602   3.011 -0.4978  2.3684  1.5322
  632SOL     vw 2528   0.763   4.630   2.985 -0.4202  0.5867 -0.4419
  633SOL     ow 2529   0.185   6.657   2.512  0.3449 -0.4642 -0.2780
  633SOL     hw 2530   0.262   6.625   2.466  0.2392 -1.0543 -0.0525
  633SOL     hw 2531   0.114   6.650   2.447  0.5422  0.4382 -0.6097
  633SOL     vw 2532   0.186   6.652   2.497  0.3570 -0.4230 -0.2918
  634SOL     ow 2533   4.587   3.750   1.124 -0.7648  0.3972 -0.6211
  634SOL     hw 2534   4.559   3.670   1.080  0.5888  0.4973 -1.7259
  634SOL     hw 2535   4.585   3.728   1.217  1.7384 -1.7079 -0.9682
  634SOL     vw 2536   4.583   3.736   1.130 -0.2558  0.1327 -0.8126
  635SOL     ow 2537   4.304   0.714   5.234 -0.1296 -0.1027  0.0409
  635SOL     hw 2538   4.286   0.665   5.314  0.8205 -0.2734  0.1693
  635SOL     hw 2539   4.320   0.803   5.263  0.5402 -0.2312  0.0940
  635SOL     vw 2540   4.304   0.719   5.248  0.0842 -0.1422  0.0648
  636SOL     ow 2541   0.591   1.783   2.636 -0.0990  0.0095  0.2464
  636SOL     hw 2542   0.547   1.820   2.713  2.8181  0.7543  1.7063
  636SOL     hw 2543   0.663   1.844   2.619  0.2067 -0.9496 -2.1961
  636SOL     vw 2544   0.595   1.796   2.644  0.3262 -0.0188  0.1168
  637SOL     ow 2545   5.729   4.151   5.122  0.3557 -0.4580 -0.7075
  637SOL     hw 2546   5.822   4.174   5.125  0.2723 -0.0074 -1.3478
  637SOL     hw 2547   5.685   4.227   5.160  0.1186  0.2377 -2.3000
  637SOL     vw 2548   5.736   4.164   5.127  0.3133 -0.3068 -1.0023
  638SOL     ow 2549   3.431   0.241   3.237 -0.3314  0.5327 -0.2112
  638SOL     hw 2550   3.381   0.162   3.215 -2.9921  2.3704 -1.3119
  638SOL     hw 2551   3.455   0.278   3.152  0.8951  0.9195  0.2915
  638SOL     vw 2552   3.427   0.235   3.223 -0.5206  0.8262 -0.2899
  639SOL     ow 2553   2.370   1.942   2.500  0.5988  0.6026  0.3175
  639SOL     hw 2554   2.456   1.924   2.536  0.6003  0.3564  0.1918
  639SOL     hw 2555   2.387   1.974   2.411  0.5108 -0.6509 -0.1752
  639SOL     vw 2556   2.383   1.944   2.493  0.5872  0.4047  0.2360
  640SOL     ow 2557   2.721   2.203   3.732 -0.2230  0.7010 -0.3867
  640SOL     hw 2558   2.743   2.268   3.666  0.5451 -0.7658 -1.6501
  640SOL     hw 2559   2.776   2.128   3.711 -2.4974 -1.1200 -0.2564
  640SOL     vw 2560   2.731   2.202   3.720 -0.4218  0.2673 -0.5362
  641SOL     ow 2561   1.263   0.826   1.085 -0.1158  0.0989  0.4892
  641SOL     hw 2562   1.270   0.740   1.128 -1.9279 -0.1679  0.2989
  641SOL     hw 2563   1.285   0.889   1.154 -1.0866 -0.4147  1.2888
  641SOL     vw 2564   1.267   0.823   1.100 -0.4830 -0.0041  0.5696
  642SOL     ow 2565   3.561   3.288   1.281 -0.3011  0.0393 -0.1660
  642SOL     hw 2566   3.618   3.246   1.345 -2.1717 -0.1170  1.5070
  642SOL     hw 2567   3.523   3.216   1.230 -0.1632  0.0306 -0.2560
  642SOL     vw 2568   3.563   3.273   1.283 -0.5298  0.0175  0.0428
  643SOL     ow 2569   2.716   1.308   2.720 -0.0818 -0.0157 -0.0777
  643SOL     hw 2570   2.706   1.301   2.815  0.6821  1.5838  0.1681
  643SOL     hw 2571   2.810   1.301   2.705 -0.1980 -0.2737 -0.7253
  643SOL     vw 2572   2.727   1.306   2.730  0.0036  0.1613 -0.1307
  644SOL     ow 2573   6.669   3.847   1.656 -0.1661  0.2880 -0.1481
  644SOL     hw 2574   6.678   3.752   1.647  0.5605  0.3369 -0.0084
  644SOL     hw 2575   6.746   3.874   1.706 -1.4863  0.6852  1.7494
  644SOL     vw 2576   6.680   3.838   1.661 -0.2446  0.3468  0.1207
  645SOL     ow 2577   0.154   0.675   0.926  0.1062  0.1462  0.2165
  645SOL     hw 2578   0.130   0.745   0.986  0.0387  0.2716  0.0449
  645SOL     hw 2579   0.077   0.663   0.870 -0.5019 -1.1954  1.2934
  645SOL     vw 2580   0.141   0.682   0.926  0.0171 -0.0142  0.3360
  646SOL     ow 2581   4.130   3.044   6.831  0.3084  0.3141  0.2360
  646SOL     hw 2582   4.114   3.127   6.877  0.7060  0.5498 -0.0448
  646SOL     hw 2583   4.103   2.976   6.893 -1.5548  0.6774 -0.1078
  646SOL     vw 2584   4.124   3.046   6.845  0.1149  0.3930  0.1533
  647SOL     ow 2585   0.418   5.773   4.642  0.0543 -0.2155  0.0318
  647SOL     hw 2586   0.499   5.743   4.601  0.9497  1.2480  0.6416
  647SOL     hw 2587   0.444   5.795   4.732 -0.7749  1.2512 -0.0593
  647SOL     vw 2588   0.432   5.771   4.648  0.0630  0.1712  0.0999
  648SOL     ow 2589   5.268   2.517   6.254 -0.0064  0.8667 -0.6587
  648SOL     hw 2590   5.330   2.444   6.246 -0.4250  0.6564 -2.2034
  648SOL     hw 2591   5.198   2.483   6.309  1.1109  1.0376  0.9451
  648SOL     vw 2592   5.267   2.503   6.260  0.0856  0.8614 -0.6506
  649SOL     ow 2593   0.214   6.341   3.636 -0.1732 -0.9007 -0.2498
  649SOL     hw 2594   0.137   6.323   3.582 -0.7700 -2.8001  1.1383
  649SOL     hw 2595   0.280   6.278   3.607 -0.6004 -2.1384  1.3875
  649SOL     vw 2596   0.213   6.330   3.625 -0.3083 -1.3151  0.1494
  650SOL     ow 2597   3.409   2.143   2.231  0.3700  0.0188  0.3477
  650SOL     hw 2598   3.476   2.138   2.162 -1.0351 -0.1188 -1.0524
  650SOL     hw 2599   3.366   2.227   2.216 -0.1946 -0.1746  0.8447
  650SOL     vw 2600   3.412   2.154   2.220  0.1101 -0.0249  0.2286
  651SOL     ow 2601   0.141   0.079   4.020  0.2188 -0.2129  0.0474
  651SOL     hw 2602   0.232   0.074   3.989  0.0790  1.2500 -0.6347
  651SOL     hw 2603   0.144   0.039   4.107  1.4372 -0.5385 -0.1239
  651SOL     vw 2604   0.154   0.073   4.027  0.3611 -0.0629 -0.0653
  652SOL     ow 2605   1.049   5.705   3.604  0.1768 -0.1428 -0.3199
  652SOL     hw 2606   1.000   5.714   3.686  2.7467  0.9138  1.2195
  652SOL     hw 2607   1.050   5.794   3.567  0.4649 -0.2647 -0.6119
  652SOL     vw 2608   1.043   5.718   3.610  0.5539 -0.0193 -0.1553
  653SOL     ow 2609   0.861   2.365   0.890  0.1015 -0.0901 -0.3178
  653SOL     hw 2610   0.869   2.459   0.906 -0.3099 -0.4246  2.2385
  653SOL     hw 2611   0.781   2.339   0.937 -0.0676 -1.6530 -1.3714
  653SOL     vw 2612   0.851   2.374   0.898  0.0249 -0.3403 -0.1195
  654SOL     ow 2613   4.751   2.232   6.972  0.2744 -0.3953 -0.4307
  654SOL     hw 2614   4.802   2.231   7.052 -0.1273  1.1443 -0.1220
  654SOL     hw 2615   4.723   2.141   6.960  1.1362 -0.8171  0.6457
  654SOL     vw 2616   4.754   2.220   6.981  0.3352 -0.2480 -0.2480
  655SOL     ow 2617   5.141   2.143   5.524 -0.3852  0.5501  0.1561
  655SOL     hw 2618   5.141   2.185   5.438 -1.1587 -1.1313 -0.7147
  655SOL     hw 2619   5.098   2.059   5.510 -0.5884  0.2495  2.2177
  655SOL     vw 2620   5.135   2.138   5.511 -0.5140  0.2886  0.3130
  656SOL     ow 2621   5.416   2.774   6.404  0.2274  0.3543 -0.7677
  656SOL     hw 2622   5.360   2.789   6.480 -0.7743 -0.0602 -1.3875
  656SOL     hw 2623   5.491   2.832   6.417  1.4587 -1.6554  1.8568
  656SOL     vw 2624   5.418   2.784   6.416  0.2580  0.0345 -0.5035
  657SOL     ow 2625   4.542   4.090   0.188 -0.6552  0.3163  0.1922
  657SOL     hw 2626   4.588   4.108   0.107 -1.1591  0.7686 -0.0037
  657SOL     hw 2627   4.528   4.177   0.228  0.6147  0.0200  1.3463
  657SOL     vw 2628   4.546   4.104   0.183 -0.5541  0.3369  0.3186
  658SOL     ow 2629   1.710   1.218   4.895 -0.5800 -0.3579  0.5089
  658SOL     hw 2630   1.621   1.198   4.867 -0.3601  1.3374 -1.5864
  658SOL     hw 2631   1.751   1.260   4.820  1.0380  1.7411  2.4302
  658SOL     vw 2632   1.704   1.221   4.881 -0.3375  0.1427  0.4861
  659SOL     ow 2633   4.752   5.612   0.664  0.0979 -0.5582 -0.0001
  659SOL     hw 2634   4.662   5.594   0.690  0.0716 -0.2165  0.1531
  659SOL     hw 2635   4.763   5.706   0.680  0.1590 -0.3859 -0.9934
  659SOL     vw 2636   4.742   5.622   0.669  0.1020 -0.4907 -0.1110
  660SOL     ow 2637   0.606   3.605   6.985  0.3358  0.2964 -0.4375
  660SOL     hw 2638   0.649   3.520   6.974  1.8274  0.7112  1.6063
  660SOL     hw 2639   0.515   3.590   6.959  1.1541 -1.2042 -2.6906
  660SOL     vw 2640   0.600   3.592   6.980  0.6405  0.1531 -0.4649
  661SOL     ow 2641   6.544   2.223   6.582 -0.4213 -0.0402  0.0835
  661SOL     hw 2642   6.492   2.180   6.650 -0.7015 -1.2856 -0.8722
  661SOL     hw 2643   6.484   2.233   6.509 -0.7431  3.2001  0.6422
  661SOL     vw 2644   6.529   2.218   6.582 -0.5009  0.2232  0.0312
  662SOL     ow 2645   5.489   5.541   0.481 -0.3634 -0.7546 -0.2930
  662SOL     hw 2646   5.419   5.484   0.512  0.1622 -2.0214 -1.3443
  662SOL     hw 2647   5.471   5.553   0.388  0.5650 -0.7198 -0.4741
  662SOL     vw 2648   5.477   5.535   0.473 -0.1714 -0.9170 -0.4556
  663SOL     ow 2649   5.008   5.609   2.446  0.2514 -0.1794  0.2573
  663SOL     hw 2650   5.064   5.538   2.478 -0.1524 -0.1225  1.1082
  663SOL     hw 2651   5.054   5.642   2.368  0.7985 -0.9039  0.2569
  663SOL     vw 2652   5.022   5.604   2.440  0.2704 -0.2675  0.3694
  664SOL     ow 2653   2.815   6.187   6.609 -0.3290 -0.1498 -0.3554
  664SOL     hw 2654   2.759   6.261   6.632 -0.3621  0.1657 -1.3904
  664SOL     hw 2655   2.901   6.209   6.644 -0.7050 -0.3612  0.7262
  664SOL     vw 2656   2.819   6.200   6.616 -0.3831 -0.1361 -0.3493
  665SOL     ow 2657   5.844   1.572   4.036 -0.2796 -0.2553  0.5751
  665SOL     hw 2658   5.825   1.480   4.016  1.7859 -0.0541 -3.2735
  665SOL     hw 2659   5.937   1.582   4.016 -0.5746  2.7958  0.3016
  665SOL     vw 2660   5.854   1.561   4.031 -0.0463  0.1738  0.0312
  666SOL     ow 2661   0.377   2.398   6.989  1.0491 -0.4495 -0.0512
  666SOL     hw 2662   0.328   2.479   7.001 -1.1913 -1.8829  1.2038
  666SOL     hw 2663   0.422   2.385   7.072  1.3712 -0.5102 -0.2353
  666SOL     vw 2664   0.376   2.407   7.002  0.7960 -0.6466  0.0901
  667SOL     ow 2665   2.932   2.787   4.328 -0.1504  0.3141  0.2886
  667SOL     hw 2666   2.907   2.853   4.263 -2.6576 -1.5249 -0.7833
  667SOL     hw 2667   2.873   2.802   4.402  0.0857  0.0231  0.5386
  667SOL     vw 2668   2.921   2.797   4.329 -0.4501  0.0331  0.1802
  668SOL     ow 2669   3.874   1.798   1.080 -0.0203 -0.6164 -0.3718
  668SOL     hw 2670   3.865   1.737   1.153 -0.8991 -0.7682 -0.5915
  668SOL     hw 2671   3.934   1.865   1.112 -1.4787  0.0756  1.0120
  668SOL     vw 2672   3.881   1.799   1.094 -0.3288 -0.5452 -0.2182
  669SOL     ow 2673   1.147   0.307   4.828  0.2718 -0.1304  0.3514
  669SOL     hw 2674   1.156   0.214   4.853 -0.6910 -0.3136  0.0605
  669SOL     hw 2675   1.228   0.348   4.859  0.1963 -0.8343  1.5637
  669SOL     vw 2676   1.159   0.300   4.835  0.1349 -0.2474  0.4730
  670SOL     ow 2677   0.699   5.390   1.861  0.6032  0.7930 -0.2695
  670SOL     hw 2678   0.744   5.456   1.809  0.4751  1.2991  0.2512
  670SOL     hw 2679   0.750   5.383   1.941  1.3597 -0.6953 -0.8467
  670SOL     vw 2680   0.712   5.398   1.865  0.6862  0.6638 -0.2769
  671SOL     ow 2681   0.715   2.139   0.447  0.5118 -1.1336  0.2591
  671SOL     hw 2682   0.657   2.099   0.512 -2.2294 -2.2201 -2.6172
  671SOL     hw 2683   0.725   2.073   0.379  2.0626  0.4569 -1.1791
  671SOL     vw 2684   0.709   2.125   0.446  0.3548 -1.0673 -0.3101
  672SOL     ow 2685   2.233   6.421   3.879 -0.7251 -1.3909 -0.1328
  672SOL     hw 2686   2.190   6.482   3.939 -0.8574 -2.1858  0.5889
  672SOL     hw 2687   2.173   6.347   3.872 -0.9435 -1.1036 -1.6421
  672SOL     vw 2688   2.219   6.419   3.886 -0.7714 -1.4579 -0.2367
  673SOL     ow 2689   4.977   2.803   2.646  0.4274 -0.0586 -1.2644
  673SOL     hw 2690   4.996   2.734   2.711 -0.9698 -1.1696 -1.9746
  673SOL     hw 2691   4.906   2.853   2.685 -1.0729 -1.3119 -2.2744
  673SOL     vw 2692   4.970   2.800   2.660  0.0453 -0.3706 -1.4914
  674SOL     ow 2693   3.068   2.059   2.007  0.0386 -0.0490 -0.1645
  674SOL     hw 2694   2.991   2.011   2.038 -0.5011  0.5252 -0.5999
  674SOL     hw 2695   3.123   1.992   1.967  0.0124 -0.5486  0.6058
  674SOL     vw 2696   3.065   2.044   2.006 -0.0360 -0.0390 -0.1204
  675SOL     ow 2697   0.747   1.441   0.254 -0.4252  0.4847  0.5042
  675SOL     hw 2698   0.818   1.412   0.197 -1.5352 -2.7604  0.5663
  675SOL     hw 2699   0.733   1.368   0.314 -0.8589  2.8289  3.4895
  675SOL     vw 2700   0.754   1.428   0.254 -0.6289  0.3658  0.9063
  676SOL     ow 2701   4.967   6.879   3.189  0.1229 -0.1820 -0.3050
  676SOL     hw 2702   4.884   6.855   3.147  0.3220  0.3636 -1.0338
  676SOL     hw 2703   4.946   6.957   3.241  0.3228  0.3993 -1.0731
  676SOL     vw 2704   4.953   6.886   3.190  0.1752 -0.0334 -0.5026
  677SOL     ow 2705   0.931   4.353   0.398 -0.1519 -0.1638 -0.2833
  677SOL     hw 2706   0.926   4.337   0.303 -2.6436 -0.8204 -0.1051
  677SOL     hw 2707   0.864   4.297   0.435  0.7652  0.1067  1.9132
  677SOL     vw 2708   0.921   4.343   0.390 -0.3597 -0.2146  0.0300
  678SOL     ow 2709   1.613   6.257   3.078  0.2634  0.3380  0.0113
  678SOL     hw 2710   1.577   6.169   3.075  2.8835 -0.8706  1.3107
  678SOL     hw 2711   1.708   6.245   3.076  0.7077  3.2147 -1.0350
  678SOL     vw 2712   1.621   6.244   3.077  0.6677  0.5581  0.0447
  679SOL     ow 2713   3.797   5.329   4.052 -0.7893  0.6325 -0.3300
  679SOL     hw 2714   3.838   5.342   3.967 -1.6640 -0.5993 -0.9704
  679SOL     hw 2715   3.837   5.249   4.086  0.1841  1.5766  0.8330
  679SOL     vw 2716   3.807   5.320   4.046 -0.7762  0.5944 -0.2608
  680SOL     ow 2717   1.951   3.756   0.215  0.2522  0.3864 -0.1748
  680SOL     hw 2718   1.949   3.694   0.287 -1.4936  0.8709  0.2279
  680SOL     hw 2719   1.981   3.705   0.140  0.6135 -0.4826  0.5530
  680SOL     vw 2720   1.955   3.741   0.214  0.0696  0.3357 -0.0257
  681SOL     ow 2721   1.903   4.974   3.024 -0.1652 -0.5272  0.5504
  681SOL     hw 2722   1.994   5.001   3.038 -0.3976 -0.1867  1.5509
  681SOL     hw 2723   1.852   5.039   3.073 -0.8511 -1.6910  1.4140
  681SOL     vw 2724   1.908   4.986   3.032 -0.2863 -0.6359  0.7964
  682SOL     ow 2725   1.688   3.841   3.289  0.0745 -0.2876 -0.2518
  682SOL     hw 2726   1.782   3.836   3.276 -0.1592 -1.9143 -1.7955
  682SOL     hw 2727   1.659   3.749   3.293 -1.2413  0.1601  2.0617
  682SOL     vw 2728   1.696   3.828   3.287 -0.1300 -0.4430 -0.1503
  683SOL     ow 2729   6.747   5.677   5.443 -0.9170 -0.0582 -0.1697
  683SOL     hw 2730   6.810   5.717   5.383 -1.5526  0.9039 -0.2203
  683SOL     hw 2731   6.671   5.658   5.389 -0.4472 -1.8327 -0.2505
  683SOL     vw 2732   6.746   5.680   5.428 -0.9387 -0.1652 -0.1872
  684SOL     ow 2733   2.488   2.022   5.502 -0.1504  0.4634 -0.5204
  684SOL     hw 2734   2.489   1.957   5.572  0.4641  0.3479 -0.6236
  684SOL     hw 2735   2.417   2.082   5.525 -0.0650  0.3313  0.1164
  684SOL     vw 2736   2.479   2.021   5.514 -0.0582  0.4308 -0.4501
  685SOL     ow 2737   1.134   5.095   1.541  0.6374  0.3163  0.0198
  685SOL     hw 2738   1.097   5.165   1.595 -2.5854 -1.5131  0.4160
  685SOL     hw 2739   1.218   5.074   1.583  0.8019  2.6308  0.9769
  685SOL     vw 2740   1.140   5.101   1.554  0.2338  0.3803  0.1984
  686SOL     ow 2741   5.885   4.537   4.884 -0.3125 -0.0672  0.2708
  686SOL     hw 2742   5.795   4.517   4.911 -0.5072  2.5598  2.0200
  686SOL     hw 2743   5.927   4.567   4.965  2.7199 -2.7268 -0.1390
  686SOL     vw 2744   5.878   4.538   4.898  0.0618 -0.0715  0.4478
  687SOL     ow 2745   3.365   6.655   1.901 -0.7958 -0.9243 -0.4183
  687SOL     hw 2746   3.415   6.735   1.886 -3.5482  0.9020 -0.6448
  687SOL     hw 2747   3.430   6.591   1.929  1.3937  1.7308  1.1151
  687SOL     vw 2748   3.380   6.657   1.902 -0.8701 -0.3331 -0.2459
  688SOL     ow 2749   0.674   4.676   5.661 -0.4968 -0.6540 -0.4586
  688SOL     hw 2750   0.617   4.625   5.719 -0.9073  0.9503  0.6170
  688SOL     hw 2751   0.613   4.730   5.610 -0.0182 -0.3006 -0.6585
  688SOL     vw 2752   0.658   4.676   5.661 -0.4878 -0.3958 -0.3428
  689SOL     ow 2753   0.764   0.567   1.636  0.2870  0.1654  0.2788
  689SOL     hw 2754   0.680   0.590   1.677 -0.2696  0.6511 -1.0726
  689SOL     hw 2755   0.816   0.647   1.642  0.2488  0.2006  0.1325
  689SOL     vw 2756   0.760   0.581   1.642  0.2085  0.2342  0.0813
  690SOL     ow 2757   3.475   0.308   2.983 -0.2489  0.4200  0.1337
  690SOL     hw 2758   3.538   0.340   2.918 -1.0758  1.2398 -0.3034
  690SOL     hw 2759   3.402   0.370   2.977 -1.1016 -0.5068  0.6129
  690SOL     vw 2760   3.474   0.321   2.973 -0.4705  0.4058  0.1392
  691SOL     ow 2761   5.082   2.286   1.158  0.4010 -0.6342  0.7961
  691SOL     hw 2762   5.144   2.285   1.085  0.5926 -3.0649  0.9129
  691SOL     hw 2763   5.118   2.224   1.221  0.4165  1.6179  3.2002
  691SOL     vw 2764   5.095   2.278   1.156  0.4284 -0.6577  1.1287
  692SOL     ow 2765   3.106   4.945   2.914  0.1282  0.5913 -0.0723
  692SOL     hw 2766   3.188   4.928   2.869  0.3190  3.3911 -0.9695
  692SOL     hw 2767   3.055   4.997   2.852 -0.5153  2.6552  2.0459
  692SOL     vw 2768   3.110   4.950   2.900  0.0685  1.2329  0.0889
  693SOL     ow 2769   0.279   4.395   1.762 -0.4477  0.2162  0.2206
  693SOL     hw 2770   0.223   4.352   1.827 -0.8975 -3.1995 -2.1736
  693SOL     hw 2771   0.220   4.413   1.689  1.1455 -2.2774 -1.8458
  693SOL     vw 2772   0.264   4.392   1.761 -0.2969 -0.5634 -0.3679
  694SOL     ow 2773   2.248   6.985   4.748  0.5331  0.0336 -0.1373
  694SOL     hw 2774   2.153   6.973   4.742  0.2847  0.5528  1.7804
  694SOL     hw 2775   2.280   6.978   4.658 -1.2769 -0.4856 -0.7774
  694SOL     vw 2776   2.240   6.982   4.736  0.2615  0.0336  0.0312
  695SOL     ow 2777   4.455   1.881   4.338  0.2820 -0.1339  0.5084
  695SOL     hw 2778   4.437   1.796   4.297  0.4436  0.2268 -0.3360
  695SOL     hw 2779   4.403   1.880   4.418 -0.9619 -0.4205 -0.2686
  695SOL     vw 2780   4.445   1.869   4.343  0.1392 -0.1242  0.2942
  696SOL     ow 2781   3.261   2.138   5.468 -0.3589 -0.1260  0.1931
  696SOL     hw 2782   3.208   2.203   5.421  0.8942  0.8426  0.0503
  696SOL     hw 2783   3.214   2.056   5.457 -0.6684  0.2736 -1.8500
  696SOL     vw 2784   3.248   2.136   5.460 -0.2344  0.0545 -0.0954
  697SOL     ow 2785   4.505   5.305   3.399 -0.4191 -0.2453  0.6530
  697SOL     hw 2786   4.415   5.314   3.427 -0.5592 -1.0360  0.4816
  697SOL     hw 2787   4.499   5.285   3.305 -0.0865 -0.6112  0.7065
  697SOL     vw 2788   4.493   5.304   3.390 -0.3936 -0.3979  0.6374
  698SOL     ow 2789   3.915   0.483   4.373  0.2187 -0.2025 -1.1329
  698SOL     hw 2790   4.001   0.521   4.359  0.6047 -1.3539 -2.0399
  698SOL     hw 2791   3.864   0.510   4.296 -0.1900  0.3437 -0.6772
  698SOL     vw 2792   3.919   0.492   4.361  0.2155 -0.2823 -1.1926
  699SOL     ow 2793   6.836   0.893   6.737 -0.6011  0.0369 -0.8829
  699SOL     hw 2794   6.885   0.827   6.787 -0.6406 -1.0621 -2.2324
  699SOL     hw 2795   6.746   0.862   6.739 -0.5352 -0.2607 -1.9715
  699SOL     vw 2796   6.831   0.880   6.744 -0.5977 -0.1473 -1.2047
  700SOL     ow 2797   1.810   4.050   6.130  0.1212 -0.4100 -0.0690
  700SOL     hw 2798   1.832   3.968   6.174  0.5680 -0.8545 -1.0708
  700SOL     hw 2799   1.892   4.100   6.130  0.3444 -0.7449 -1.0473
  700SOL     vw 2800   1.824   4.046   6.136  0.2096 -0.5128 -0.3304
  701SOL     ow 2801   4.962   0.381   0.411  0.3660  0.0445  0.5226
  701SOL     hw 2802   4.973   0.467   0.452 -0.2934 -1.0673  3.2875
  701SOL     hw 2803   5.035   0.374   0.349  1.3147  1.9797  1.3319
  701SOL     vw 2804   4.973   0.391   0.408  0.4041  0.1532  0.9942
  702SOL     ow 2805   4.294   4.278   3.865  0.4500 -0.2482 -0.3989
  702SOL     hw 2806   4.275   4.348   3.927  0.5986 -0.7173  0.1922
  702SOL     hw 2807   4.304   4.200   3.920  0.6052 -0.6678 -1.0139
  702SOL     vw 2808   4.293   4.277   3.881  0.4902 -0.3657 -0.4021
  703SOL     ow 2809   1.114   2.891   4.696 -0.3619 -0.5249 -0.2004
  703SOL     hw 2810   1.190   2.939   4.663 -0.9403  0.2625 -0.4162
  703SOL     hw 2811   1.095   2.930   4.781 -0.6630 -0.5722 -0.2460
  703SOL     vw 2812   1.121   2.902   4.703 -0.4780 -0.4272 -0.2348
  704SOL     ow 2813   5.035   4.149   4.774  0.0240  0.0208  0.0256
  704SOL     hw 2814   5.088   4.207   4.720  0.7718 -1.4044 -0.8416
  704SOL     hw 2815   4.950   4.147   4.730  0.6109 -1.0845 -1.1167
  704SOL     vw 2816   5.031   4.156   4.761  0.2003 -0.3133 -0.2394
  705SOL     ow 2817   5.269   0.998   6.951 -0.0744  0.1055 -0.6349
  705SOL     hw 2818   5.198   0.989   6.888 -0.2835  0.7835 -0.5037
  705SOL     hw 2819   5.243   1.071   7.007 -0.2009 -0.8849  0.6663
  705SOL     vw 2820   5.257   1.006   6.950 -0.1187  0.0643 -0.4458
  706SOL     ow 2821   2.906   0.132   4.655  0.1354 -0.6608 -0.1826
  706SOL     hw 2822   2.865   0.046   4.645  2.0946 -1.5948 -0.7099
  706SOL     hw 2823   2.961   0.123   4.733 -0.4766  0.4829  0.3994
  706SOL     vw 2824   2.908   0.119   4.664  0.3133 -0.6331 -0.1752
  707SOL     ow 2825   5.158   3.723   1.160 -0.1195 -0.7970  0.6249
  707SOL     hw 2826   5.198   3.754   1.079 -1.3715  0.2665  0.3774
  707SOL     hw 2827   5.231   3.690   1.212  1.2613  1.9808  0.6259
  707SOL     vw 2828   5.173   3.723   1.156 -0.1023 -0.2903  0.5924
  708SOL     ow 2829   0.154   0.473   6.508  0.3360 -0.4251 -0.6225
  708SOL     hw 2830   0.232   0.419   6.522  2.4252  2.2642 -1.0612
  708SOL     hw 2831   0.179   0.560   6.540 -1.2428  1.4209 -3.9220
  708SOL     vw 2832   0.167   0.477   6.514  0.4033  0.1733 -1.1158
  709SOL     ow 2833   2.357   3.476   6.626  0.0060 -0.0496 -0.1906
  709SOL     hw 2834   2.294   3.543   6.650  1.1324  1.0127 -0.0998
  709SOL     hw 2835   2.422   3.478   6.696  0.6013 -0.5096 -0.7188
  709SOL     vw 2836   2.357   3.485   6.639  0.2333  0.0298 -0.2482
  710SOL     ow 2837   2.009   5.671   4.155  1.0585 -0.3383 -0.3434
  710SOL     hw 2838   1.925   5.715   4.146  0.4953 -1.1517  0.7163
  710SOL     hw 2839   2.065   5.736   4.199  1.0586  0.2799 -1.2462
  710SOL     vw 2840   2.006   5.686   4.160  0.9842 -0.3641 -0.3226
  711SOL     ow 2841   0.674   3.668   3.536 -0.0899 -0.0723 -0.3009
  711SOL     hw 2842   0.623   3.588   3.524  0.6974 -0.4052 -1.6757
  711SOL     hw 2843   0.712   3.659   3.624 -1.2424 -0.4710  0.1696
  711SOL     vw 2844   0.673   3.656   3.546 -0.1381 -0.1689 -0.4202
  712SOL     ow 2845   6.825   0.720   0.251 -0.4402  0.5712 -0.5432
  712SOL     hw 2846   6.918   0.735   0.234 -0.3482  3.7453  1.9069
  712SOL     hw 2847   6.821   0.693   0.342 -1.9637  2.4840  0.0383
  712SOL     vw 2848   6.837   0.719   0.261 -0.6289  1.2423 -0.1432
  713SOL     ow 2849   2.044   0.512   5.935 -0.2601  0.6954  0.2125
  713SOL     hw 2850   1.990   0.468   5.869  0.9295 -2.5047  1.1821
  713SOL     hw 2851   1.981   0.542   6.001 -1.0778 -0.7338  0.1156
  713SOL     vw 2852   2.029   0.510   5.935 -0.2110  0.0846  0.3278
  714SOL     ow 2853   4.616   4.894   6.522  0.3087 -0.4297  0.2112
  714SOL     hw 2854   4.572   4.945   6.454  0.7189  1.2216  1.1401
  714SOL     hw 2855   4.687   4.849   6.476  1.6946  2.0380 -0.2288
  714SOL     vw 2856   4.619   4.895   6.507  0.5455  0.1140  0.2756
  715SOL     ow 2857   6.481   2.962   3.013  0.3373 -1.0682  0.4587
  715SOL     hw 2858   6.539   3.033   2.985 -0.3732 -0.2062  1.1035
  715SOL     hw 2859   6.419   2.950   2.940  0.6993 -1.3106  0.1856
  715SOL     vw 2860   6.480   2.970   3.000  0.2913 -0.9866  0.5078
  716SOL     ow 2861   6.882   1.041   0.096 -0.4597  0.9512 -1.0056
  716SOL     hw 2862   6.873   1.075   0.185  2.0035  0.3351 -0.4296
  716SOL     hw 2863   6.939   0.964   0.106 -1.8336 -0.4096 -2.8724
  716SOL     vw 2864   6.888   1.035   0.109 -0.3164  0.6903 -1.1759
  717SOL     ow 2865   4.567   4.847   6.777  0.2278  0.1490  0.0100
  717SOL     hw 2866   4.517   4.926   6.795 -0.6933 -0.5408  0.5509
  717SOL     hw 2867   4.591   4.855   6.685 -0.5801  0.6706 -0.1682
  717SOL     vw 2868   4.564   4.858   6.767 -0.0005  0.1268  0.0579
  718SOL     ow 2869   3.063   6.215   4.151 -0.0753  0.4987 -0.3480
  718SOL     hw 2870   3.138   6.205   4.092  0.5566  0.2722  0.4758
  718SOL     hw 2871   2.988   6.225   4.092  0.5461  0.3625 -1.1909
  718SOL     vw 2872   3.063   6.215   4.135  0.0900  0.4506 -0.3505
  719SOL     ow 2873   4.944   4.000   1.139 -0.6162 -0.1563 -0.0614
  719SOL     hw 2874   4.920   4.015   1.047  0.5413 -1.8281 -0.6735
  719SOL     hw 2875   4.898   4.070   1.187  0.5017  2.1465 -2.1209
  719SOL     vw 2876   4.935   4.011   1.133 -0.3159 -0.0732 -0.4139
  720SOL     ow 2877   6.654   4.476   2.226  0.8774 -0.0026  0.1952
  720SOL     hw 2878   6.677   4.548   2.285  2.3975  0.0400 -0.3920
  720SOL     hw 2879   6.734   4.461   2.175 -0.4231  0.0504 -1.9593
  720SOL     vw 2880   6.668   4.483   2.227  0.9065  0.0100 -0.1665
  721SOL     ow 2881   2.338   2.757   0.268 -0.0743  0.5941  0.0435
  721SOL     hw 2882   2.258   2.707   0.282  0.2572 -0.4121 -1.4425
  721SOL     hw 2883   2.371   2.774   0.356 -1.5684  0.4738  0.6537
  721SOL     vw 2884   2.332   2.753   0.282 -0.2276  0.4455 -0.0720
  722SOL     ow 2885   6.044   0.802   6.011 -0.3293 -0.2548  0.0056
  722SOL     hw 2886   6.103   0.752   5.955 -1.2297  0.4898 -1.6957
  722SOL     hw 2887   6.025   0.881   5.961 -0.3659  0.9541  1.8350
  722SOL     vw 2888   6.049   0.806   5.997 -0.4532  0.0029  0.0224
  723SOL     ow 2889   3.013   3.414   4.032  0.0027 -0.6961 -0.1419
  723SOL     hw 2890   3.103   3.382   4.020  0.5282  0.2153  1.1398
  723SOL     hw 2891   2.959   3.350   3.985  1.3669 -0.7683 -1.7142
  723SOL     vw 2892   3.018   3.401   4.024  0.2519 -0.5854 -0.1802
  724SOL     ow 2893   3.340   2.718   4.808  0.3638  0.7281 -0.7843
  724SOL     hw 2894   3.316   2.626   4.802  2.2742  0.1094  0.0261
  724SOL     hw 2895   3.261   2.766   4.783 -1.2243 -1.0886  0.4958
  724SOL     vw 2896   3.327   2.712   4.804  0.4064  0.4069 -0.5085
  725SOL     ow 2897   1.922   3.143   3.765  0.0612  0.4418  0.1642
  725SOL     hw 2898   1.883   3.230   3.776 -0.1743  0.1213  2.1724
  725SOL     hw 2899   1.859   3.096   3.710  1.0597  2.0195 -2.5021
  725SOL     vw 2900   1.908   3.148   3.759  0.1619  0.6077  0.0774
  726SOL     ow 2901   4.255   2.279   6.214  0.0717 -0.4201  0.0222
  726SOL     hw 2902   4.347   2.307   6.217 -0.2476  0.7169 -0.1943
  726SOL     hw 2903   4.221   2.297   6.301  0.0988 -1.0086  0.1551
  726SOL     vw 2904   4.263   2.285   6.226  0.0334 -0.3479  0.0110
  727SOL     ow 2905   1.766   4.105   1.433  0.2962  0.5182  0.9325
  727SOL     hw 2906   1.791   4.071   1.520  0.3295  0.6943  0.9915
  727SOL     hw 2907   1.744   4.197   1.449  0.8739  0.7060  0.6501
  727SOL     vw 2908   1.767   4.112   1.447  0.3769  0.5658  0.9031
  728SOL     ow 2909   0.648   1.335   0.919 -1.3252 -0.6900  0.0496
  728SOL     hw 2910   0.583   1.311   0.986 -0.6667  1.0516  1.3917
  728SOL     hw 2911   0.680   1.251   0.886 -1.4205 -1.6376  2.1743
  728SOL     vw 2912   0.643   1.321   0.924 -1.2509 -0.5853  0.5071
  729SOL     ow 2913   3.160   2.289   1.787  0.3348 -0.3941  0.4979
  729SOL     hw 2914   3.109   2.315   1.710  1.9107  3.6193  0.5568
  729SOL     hw 2915   3.245   2.263   1.753  0.6583  0.2651  0.7812
  729SOL     vw 2916   3.164   2.289   1.773  0.5854  0.2224  0.5431
  730SOL     ow 2917   1.758   5.024   4.473 -0.1117 -0.4251  0.6412
  730SOL     hw 2918   1.693   5.040   4.541  0.5369 -0.5160  1.2913
  730SOL     hw 2919   1.709   4.979   4.404 -0.2096 -3.0020  2.2492
  730SOL     vw 2920   1.743   5.020   4.473 -0.0391 -0.7770  0.9391
  731SOL     ow 2921   1.162   1.126   0.560  0.6127 -0.1720 -0.2237
  731SOL     hw 2922   1.076   1.087   0.571  0.8322 -1.2025 -1.8031
  731SOL     hw 2923   1.145   1.214   0.528  0.1483 -0.2221 -0.1196
  731SOL     vw 2924   1.149   1.132   0.558  0.5804 -0.3147 -0.4184
  732SOL     ow 2925   2.984   5.167   3.686  0.0886  0.4044  0.1631
  732SOL     hw 2926   3.026   5.252   3.701  0.4235  0.1052  1.0410
  732SOL     hw 2927   2.983   5.157   3.591 -2.3492  2.5430 -0.1401
  732SOL     vw 2928   2.990   5.177   3.675 -0.1889  0.6471  0.2391
  733SOL     ow 2929   0.242   1.603   4.964 -0.4587 -0.3235  0.0766
  733SOL     hw 2930   0.336   1.612   4.982 -0.2929  0.2827 -0.9718
  733SOL     hw 2931   0.239   1.575   4.873 -1.3186  2.3839 -0.8285
  733SOL     vw 2932   0.254   1.601   4.954 -0.5503  0.1137 -0.1812
  734SOL     ow 2933   3.838   3.132   4.463 -0.4752  0.2524 -0.3855
  734SOL     hw 2934   3.746   3.148   4.441 -0.4294 -0.6447 -1.3200
  734SOL     hw 2935   3.837   3.107   4.555 -1.1213  0.6349 -0.2829
  734SOL     vw 2936   3.826   3.130   4.472 -0.5543  0.1847 -0.4954
  735SOL     ow 2937   6.256   0.399   3.092 -0.3297  0.1778  0.3730
  735SOL     hw 2938   6.307   0.350   3.028  1.2869  1.8056  0.3315
  735SOL     hw 2939   6.254   0.342   3.169  1.2118 -0.1213  0.2259
  735SOL     vw 2940   6.262   0.385   3.094  0.0873  0.3531  0.3481
  736SOL     ow 2941   1.142   4.446   3.928  0.3206  0.0101  0.4714
  736SOL     hw 2942   1.192   4.508   3.980 -0.1383  0.1689  0.7318
  736SOL     hw 2943   1.158   4.361   3.970  1.1683 -0.0970 -0.0501
  736SOL     vw 2944   1.151   4.443   3.941  0.3719  0.0172  0.4369
  737SOL     ow 2945   2.617   2.608   6.405 -0.2297 -0.1148  0.3828
  737SOL     hw 2946   2.650   2.540   6.465 -1.1574  0.1263  1.1847
  737SOL     hw 2947   2.671   2.685   6.425  1.5062 -0.8267 -1.2146
  737SOL     vw 2948   2.629   2.609   6.415 -0.1230 -0.1769  0.2780
  738SOL     ow 2949   4.121   3.956   4.565  0.1241 -0.1294  0.9800
  738SOL     hw 2950   4.152   3.871   4.598  1.4372 -0.4762 -0.9835
  738SOL     hw 2951   4.199   3.997   4.527 -1.1920  0.2853 -1.4785
  738SOL     vw 2952   4.135   3.950   4.564  0.1237 -0.1205  0.3965
  739SOL     ow 2953   6.136   6.602   0.219 -1.2415 -0.3898 -0.2156
  739SOL     hw 2954   6.228   6.581   0.204 -1.2930  0.6535 -2.4111
  739SOL     hw 2955   6.137   6.694   0.248 -1.5341 -0.7570  1.0144
  739SOL     vw 2956   6.148   6.611   0.221 -1.2870 -0.3006 -0.3430
  740SOL     ow 2957   2.004   2.133   2.078  0.5601 -0.1430  0.1243
  740SOL     hw 2958   1.941   2.167   2.142 -1.6210  0.3095 -2.1042
  740SOL     hw 2959   2.007   2.039   2.095 -1.1038 -0.2467 -0.0103
  740SOL     vw 2960   1.996   2.125   2.089  0.0529 -0.0972 -0.1875
  741SOL     ow 2961   6.059   6.458   6.659 -0.5935 -0.3152  0.4677
  741SOL     hw 2962   6.114   6.446   6.582 -0.0428 -1.6983  1.0418
  741SOL     hw 2963   5.971   6.475   6.624 -0.4020 -1.1877 -0.4826
  741SOL     vw 2964   6.054   6.458   6.644 -0.4954 -0.6130  0.4182
  742SOL     ow 2965   3.851   4.627   4.392 -0.2078 -0.5232  0.5665
  742SOL     hw 2966   3.923   4.665   4.442  1.0685 -1.0052 -0.8325
  742SOL     hw 2967   3.881   4.628   4.301 -1.1021 -2.6208  0.1743
  742SOL     vw 2968   3.864   4.632   4.387 -0.1572 -0.8636  0.3300
  743SOL     ow 2969   6.511   3.841   1.276  0.6257 -0.2898 -0.2162
  743SOL     hw 2970   6.583   3.902   1.292 -0.3220  1.0628 -0.8643
  743SOL     hw 2971   6.544   3.781   1.209  1.1224  0.3950 -0.5939
  743SOL     vw 2972   6.525   3.841   1.269  0.5660 -0.0210 -0.3514
  744SOL     ow 2973   6.522   2.068   0.431  0.4623  0.0433  0.2874
  744SOL     hw 2974   6.448   2.107   0.477  0.3215 -1.2274  1.1932
  744SOL     hw 2975   6.599   2.113   0.468  0.2433  0.1636  0.6039
  744SOL     vw 2976   6.523   2.079   0.442  0.4148 -0.1085  0.4486
  745SOL     ow 2977   0.346   6.128   2.977 -0.4439  0.8639  0.2758
  745SOL     hw 2978   0.433   6.158   2.954 -0.8184  3.8220  2.1896
  745SOL     hw 2979   0.294   6.141   2.898  0.6502 -0.3750 -0.6940
  745SOL     vw 2980   0.350   6.134   2.964 -0.3490  1.0908  0.4004
  746SOL     ow 2981   1.628   1.565   4.587  0.3663 -0.0598 -0.2133
  746SOL     hw 2982   1.570   1.570   4.663  0.3620 -1.5069 -0.0988
  746SOL     hw 2983   1.714   1.543   4.624  0.3170 -0.9932 -0.6221
  746SOL     vw 2984   1.632   1.563   4.602  0.3592 -0.3738 -0.2520
  747SOL     ow 2985   5.869   0.885   3.500  0.5043  0.3980  0.2758
  747SOL     hw 2986   5.863   0.791   3.488  1.0397  0.1454  1.7397
  747SOL     hw 2987   5.949   0.898   3.551  0.3624  1.6357  0.2288
  747SOL     vw 2988   5.879   0.874   3.505  0.5562  0.5280  0.4627
  748SOL     ow 2989   4.840   6.709   5.025  0.4844 -0.5162 -0.5138
  748SOL     hw 2990   4.920   6.738   4.982  0.6991 -0.7970 -0.3084
  748SOL     hw 2991   4.865   6.629   5.071  0.4795  0.2446  0.8519
  748SOL     vw 2992   4.854   6.702   5.025  0.5124 -0.4530 -0.3066
  749SOL     ow 2993   5.755   3.070   1.389  0.4450 -0.2561  1.0001
  749SOL     hw 2994   5.802   3.097   1.310 -1.8705 -1.5992 -0.9417
  749SOL     hw 2995   5.700   3.145   1.411 -1.4179 -1.0128 -0.7617
  749SOL     vw 2996   5.754   3.083   1.382 -0.1063 -0.5332  0.5114
  750SOL     ow 2997   6.461   4.405   2.441  0.2697 -0.2285  0.2573
  750SOL     hw 2998   6.416   4.360   2.512  0.1846 -1.7634 -0.7416
  750SOL     hw 2999   6.447   4.498   2.459  0.6906 -0.5571  2.5135
  750SOL     vw 3000   6.453   4.412   2.453  0.3140 -0.4742  0.4232
  751SOL     ow 3001   1.005   0.789   1.250 -0.1304 -0.0862  0.4291
  751SOL     hw 3002   1.084   0.793   1.304 -0.3040  0.3152  0.6623
  751SOL     hw 3003   1.006   0.702   1.210  1.8732  0.8439 -1.7750
  751SOL     vw 3004   1.015   0.778   1.252  0.1110  0.0895  0.1691
  752SOL     ow 3005   0.376   1.377   3.696 -0.4272  0.1017  0.2995
  752SOL     hw 3006   0.315   1.440   3.656 -1.0654 -0.1595  0.8454
  752SOL     hw 3007   0.463   1.410   3.672 -0.7730  0.6160 -0.2898
  752SOL     vw 3008   0.379   1.390   3.687 -0.5570  0.1352  0.2937
  753SOL     ow 3009   0.508   2.400   0.306 -0.5573  0.3111  0.3271
  753SOL     hw 3010   0.434   2.343   0.288 -1.6047  1.1942  1.6546
  753SOL     hw 3011   0.482   2.485   0.268  1.5428 -0.3028 -2.8612
  753SOL     vw 3012   0.495   2.404   0.299 -0.4184  0.3467  0.0816
  754SOL     ow 3013   4.036   5.583   4.889  0.0871  0.0826 -0.1186
  754SOL     hw 3014   4.098   5.516   4.860  0.2534  0.3176 -0.3172
  754SOL     hw 3015   4.063   5.603   4.979  1.9037  1.9451 -0.9709
  754SOL     vw 3016   4.048   5.577   4.897  0.3488  0.3593 -0.2575
  755SOL     ow 3017   0.682   5.237   4.785  0.0887 -0.3087  0.0330
  755SOL     hw 3018   0.623   5.278   4.721 -2.3875 -0.2498  2.1650
  755SOL     hw 3019   0.732   5.310   4.822 -1.6961  0.4049  1.2208
  755SOL     vw 3020   0.681   5.252   4.782 -0.4735 -0.2067  0.4711
  756SOL     ow 3021   3.503   4.526   4.448  0.3079 -0.0453  0.2394
  756SOL     hw 3022   3.491   4.619   4.469  0.7696  0.3858 -1.2680
  756SOL     hw 3023   3.433   4.482   4.496 -1.5928  1.3709 -1.0510
  756SOL     vw 3024   3.492   4.533   4.458  0.1183  0.1986 -0.1295
  757SOL     ow 3025   3.601   4.811   5.951 -0.1854  0.0359 -0.3725
  757SOL     hw 3026   3.688   4.777   5.931 -0.0070 -0.6648  1.4168
  757SOL     hw 3027   3.618   4.892   5.999 -0.4809 -0.4619  0.5975
  757SOL     vw 3028   3.615   4.818   5.954 -0.2006 -0.1221 -0.0083
  758SOL     ow 3029   3.525   3.590   5.088 -0.4674 -0.1108 -0.2812
  758SOL     hw 3030   3.437   3.627   5.081  0.1822  1.8055  1.0401
  758SOL     hw 3031   3.547   3.595   5.181  1.1336 -0.3110 -0.6087
  758SOL     vw 3032   3.516   3.595   5.099 -0.1706  0.1155 -0.1500
  759SOL     ow 3033   2.165   5.045   2.090  0.3785  0.3207 -0.2749
  759SOL     hw 3034   2.167   5.094   2.008 -0.8649  0.4509 -0.2541
  759SOL     hw 3035   2.149   5.112   2.157 -0.4638  0.0112 -0.1483
  759SOL     vw 3036   2.163   5.061   2.088  0.1035  0.2966 -0.2555
  760SOL     ow 3037   5.274   2.760   4.996  0.1858 -0.1813 -0.5779
  760SOL     hw 3038   5.232   2.809   5.067 -0.3043 -0.6399 -0.5486
  760SOL     hw 3039   5.297   2.675   5.035 -0.7477 -0.7132 -1.1530
  760SOL     vw 3040   5.272   2.755   5.011 -0.0019 -0.3120 -0.6497
  761SOL     ow 3041   0.073   1.941   6.524  0.1292 -0.0058  0.3987
  761SOL     hw 3042   0.047   1.884   6.596 -0.2125 -0.1995  0.1236
  761SOL     hw 3043   0.116   2.015   6.566 -0.7170  0.2364  0.8553
  761SOL     vw 3044   0.076   1.943   6.539 -0.0275  0.0007  0.4227
  762SOL     ow 3045   4.259   3.441   3.246 -0.0496 -0.5666 -0.2787
  762SOL     hw 3046   4.213   3.522   3.266  0.2438  0.0091 -1.8390
  762SOL     hw 3047   4.190   3.378   3.225 -0.2236 -0.3375 -0.3950
  762SOL     vw 3048   4.244   3.443   3.246 -0.0339 -0.4605 -0.4998
  763SOL     ow 3049   4.245   2.177   2.764  0.4981 -0.1040 -0.4923
  763SOL     hw 3050   4.324   2.230   2.767 -0.2737  1.0353  1.4110
  763SOL     hw 3051   4.173   2.241   2.769 -0.5411 -1.1414 -1.5333
  763SOL     vw 3052   4.246   2.193   2.765  0.2592 -0.0906 -0.3786
  764SOL     ow 3053   6.862   6.544   6.925  0.3184 -0.3568 -0.3197
  764SOL     hw 3054   6.920   6.618   6.940 -0.3016 -0.0768  0.8026
  764SOL     hw 3055   6.788   6.560   6.983 -0.8845 -0.7060 -1.7068
  764SOL     vw 3056   6.860   6.556   6.935  0.0777 -0.3660 -0.3548
  765SOL     ow 3057   3.834   4.062   4.642 -0.3418 -0.6064 -0.0240
  765SOL     hw 3058   3.797   4.070   4.730 -1.4760 -2.4131 -0.2845
  765SOL     hw 3059   3.779   3.997   4.599  0.9825 -0.7061 -1.6631
  765SOL     vw 3060   3.822   4.055   4.648 -0.3166 -0.8578 -0.2749
  766SOL     ow 3061   6.975   6.687   2.763 -0.1366 -0.2679  0.2166
  766SOL     hw 3062   6.934   6.752   2.821  2.0515  1.2493  0.1968
  766SOL     hw 3063   6.933   6.604   2.787 -0.7669  0.6323  2.5440
  766SOL     vw 3064   6.964   6.685   2.774  0.0689  0.0513  0.5211
  767SOL     ow 3065   2.703   5.192   2.538 -0.3848  0.3418  0.4435
  767SOL     hw 3066   2.670   5.119   2.589 -1.8706  1.1374  0.6808
  767SOL     hw 3067   2.751   5.151   2.465 -1.1883 -0.8571  0.5650
  767SOL     vw 3068   2.705   5.177   2.535 -0.6870  0.2885  0.4908
  768SOL     ow 3069   6.225   1.030   4.843 -0.3647  0.1301  1.0667
  768SOL     hw 3070   6.210   0.984   4.761 -0.6258 -0.4941  1.4564
  768SOL     hw 3071   6.140   1.069   4.864 -0.8408 -1.3473  2.0229
  768SOL     vw 3072   6.212   1.029   4.835 -0.4621 -0.1471  1.2445
  769SOL     ow 3073   3.775   3.702   4.867 -0.1477  0.0874  0.1774
  769SOL     hw 3074   3.844   3.749   4.915  1.8561 -2.9462  0.5747
  769SOL     hw 3075   3.767   3.749   4.784  0.7022  1.8922  1.0559
  769SOL     vw 3076   3.783   3.715   4.863  0.2288 -0.0747  0.3457
  770SOL     ow 3077   5.252   5.843   3.443 -0.6073 -0.5536 -0.5948
  770SOL     hw 3078   5.251   5.779   3.372 -2.5346 -0.2913 -0.8369
  770SOL     hw 3079   5.310   5.804   3.509 -0.3421 -1.7004 -1.4713
  770SOL     vw 3080   5.260   5.829   3.442 -0.8266 -0.6704 -0.7423
  771SOL     ow 3081   1.561   6.489   6.625  0.5708  0.6917  0.5280
  771SOL     hw 3082   1.495   6.503   6.693 -0.5849 -0.6180 -0.2846
  771SOL     hw 3083   1.514   6.499   6.543  0.3256 -3.8485 -0.1592
  771SOL     vw 3084   1.546   6.492   6.623  0.3860 -0.0801  0.3302
  772SOL     ow 3085   5.414   1.286   3.761  0.5191  0.1859 -0.0476
  772SOL     hw 3086   5.405   1.207   3.814  0.9626  0.4324  0.4041
  772SOL     hw 3087   5.498   1.324   3.788  1.0948 -0.0358 -1.4101
  772SOL     vw 3088   5.424   1.280   3.771  0.6537  0.1891 -0.1678
  773SOL     ow 3089   6.998   5.954   6.969  0.1698 -0.5266  0.0321
  773SOL     hw 3090   7.056   6.005   6.914 -0.3563  2.1266  1.7333
  773SOL     hw 3091   7.055   5.896   7.019  1.2852  1.1690  0.8005
  773SOL     vw 3092   7.013   5.953   6.968  0.2477  0.0470  0.3580
  774SOL     ow 3093   5.884   2.803   2.312 -0.2791 -0.0488  0.3169
  774SOL     hw 3094   5.821   2.874   2.294  1.0266  0.8565 -0.8623
  774SOL     hw 3095   5.829   2.727   2.330 -1.7233  0.9918  0.5462
  774SOL     vw 3096   5.868   2.802   2.312 -0.2971  0.2079  0.1916
  775SOL     ow 3097   5.552   4.657   6.894 -0.1557  0.4110  0.3770
  775SOL     hw 3098   5.637   4.684   6.927 -0.7313  0.5672  1.8374
  775SOL     hw 3099   5.489   4.714   6.940 -1.0971 -0.3467  0.0670
  775SOL     vw 3100   5.555   4.668   6.905 -0.3557  0.3316  0.5288
  776SOL     ow 3101   3.457   5.964   2.733 -1.1028 -0.1833  1.2265
  776SOL     hw 3102   3.470   6.000   2.821 -1.7091  1.5422  0.6452
  776SOL     hw 3103   3.416   6.035   2.684  1.1012 -0.3558 -1.0554
  776SOL     vw 3104   3.453   5.978   2.738 -0.8920  0.0217  0.8488
  777SOL     ow 3105   2.761   5.061   0.136  0.2991  0.0915  0.3132
  777SOL     hw 3106   2.834   5.121   0.119  1.0266  0.5308  3.9942
  777SOL     hw 3107   2.797   4.996   0.197 -1.7864 -1.1088  0.3648
  777SOL     vw 3108   2.775   5.061   0.142  0.1198 -0.0086  0.8057
  778SOL     ow 3109   2.700   4.613   5.761 -0.5632  0.2651  0.2104
  778SOL     hw 3110   2.758   4.619   5.837  0.3973 -2.1624 -0.2291
  778SOL     hw 3111   2.743   4.664   5.693  0.1331  0.0005  0.4460
  778SOL     vw 3112   2.713   4.620   5.762 -0.3446 -0.0901  0.1836
  779SOL     ow 3113   4.056   0.697   0.868 -0.4742 -0.1144  0.0668
  779SOL     hw 3114   4.102   0.743   0.939 -0.7462  0.1364  0.0805
  779SOL     hw 3115   4.086   0.607   0.876  0.5106  0.1652 -0.3187
  779SOL     vw 3116   4.066   0.691   0.878 -0.3800 -0.0444  0.0178
  780SOL     ow 3117   5.730   6.004   5.293  0.3306  0.3117 -0.1447
  780SOL     hw 3118   5.737   5.908   5.287  0.6815  0.0876  2.4722
  780SOL     hw 3119   5.821   6.034   5.286  0.2726  0.4221 -0.4442
  780SOL     vw 3120   5.743   5.995   5.291  0.3693  0.2966  0.1609
  781SOL     ow 3121   2.909   6.092   0.915 -0.0246 -0.7536  0.0081
  781SOL     hw 3122   2.922   6.059   1.004  1.5625 -0.5356 -0.1152
  781SOL     hw 3123   2.989   6.068   0.868  1.1996  2.9672 -0.1605
  781SOL     vw 3124   2.921   6.084   0.921  0.3464 -0.2341 -0.0304
  782SOL     ow 3125   3.301   1.596   4.962  0.4458 -0.0051  0.4919
  782SOL     hw 3126   3.362   1.670   4.967 -3.1263  3.1748  1.8838
  782SOL     hw 3127   3.346   1.526   5.008  2.6620  2.4244  2.3933
  782SOL     vw 3128   3.315   1.597   4.969  0.2669  0.7350  0.9263
  783SOL     ow 3129   4.109   5.127   3.189 -0.1052 -0.2272 -0.6120
  783SOL     hw 3130   4.086   5.034   3.193  0.2216 -0.2918  2.0710
  783SOL     hw 3131   4.108   5.155   3.281 -1.1578  2.6822 -1.4199
  783SOL     vw 3132   4.106   5.118   3.202 -0.2010  0.1481 -0.3645
  784SOL     ow 3133   6.731   6.560   6.631 -0.0463 -0.0514 -0.1657
  784SOL     hw 3134   6.655   6.537   6.579 -1.0363 -0.2406  1.2963
  784SOL     hw 3135   6.741   6.655   6.619  0.1658 -0.1929 -1.2033
  784SOL     vw 3136   6.722   6.570   6.623 -0.1490 -0.0949 -0.1094
  785SOL     ow 3137   3.422   4.771   4.974 -0.1453  0.0452  0.4812
  785SOL     hw 3138   3.475   4.695   4.998 -0.0134  0.1377  0.4863
  785SOL     hw 3139   3.375   4.744   4.895  0.7040  0.3107 -0.1394
  785SOL     vw 3140   3.423   4.758   4.966 -0.0159  0.0925  0.4001
  786SOL     ow 3141   5.553   0.527   4.733 -0.3966  0.1648  0.3352
  786SOL     hw 3142   5.590   0.439   4.729 -1.2325 -0.1701 -0.3985
  786SOL     hw 3143   5.503   0.536   4.652 -1.2189  0.9026  0.8995
  786SOL     vw 3144   5.551   0.517   4.722 -0.6154  0.2180  0.3126
  787SOL     ow 3145   6.673   1.053   1.738  0.3724  0.1925  0.2637
  787SOL     hw 3146   6.596   1.099   1.704  1.0601  0.9616 -0.2938
  787SOL     hw 3147   6.713   1.013   1.661  2.2173  2.3476  0.0034
  787SOL     vw 3148   6.668   1.054   1.723  0.7064  0.5784  0.1558
  788SOL     ow 3149   4.981   2.641   4.023  0.4307 -0.1716 -0.1197
  788SOL     hw 3150   4.931   2.643   3.942  0.5130  0.8568 -0.1648
  788SOL     hw 3151   4.924   2.686   4.086  0.8891  0.1489  0.0693
  788SOL     vw 3152   4.967   2.647   4.021  0.5021  0.0064 -0.1006
  789SOL     ow 3153   0.223   2.242   3.581 -0.2746 -0.4461 -0.1395
  789SOL     hw 3154   0.278   2.170   3.550 -1.2686  0.0328 -3.3977
  789SOL     hw 3155   0.179   2.207   3.659  1.8291 -2.0891  0.4048
  789SOL     vw 3156   0.224   2.228   3.587 -0.1282 -0.5996 -0.4975
  790SOL     ow 3157   5.778   5.184   3.222  0.1744  0.3922 -0.2164
  790SOL     hw 3158   5.704   5.224   3.268  0.9721 -1.3867  2.9670
  790SOL     hw 3159   5.763   5.090   3.230  3.0910 -0.0748  1.3985
  790SOL     vw 3160   5.766   5.177   3.229  0.6645  0.0958  0.4168
  791SOL     ow 3161   0.707   3.194   1.088 -0.5666 -1.1670 -0.0869
  791SOL     hw 3162   0.644   3.217   1.157  0.4770 -0.0140  0.5399
  791SOL     hw 3163   0.785   3.165   1.136  0.5581  0.6583 -0.7095
  791SOL     vw 3164   0.709   3.193   1.104 -0.2805 -0.7740 -0.0864
  792SOL     ow 3165   3.466   4.501   2.240 -0.4817  0.9361  0.0852
  792SOL     hw 3166   3.516   4.527   2.318  0.5427  0.3420 -0.3581
  792SOL     hw 3167   3.390   4.560   2.240 -0.4803  0.9672  1.5046
  792SOL     vw 3168   3.462   4.512   2.250 -0.3463  0.8616  0.2141
  793SOL     ow 3169   4.671   3.605   6.680 -0.0418 -0.0610 -0.6702
  793SOL     hw 3170   4.759   3.641   6.672 -0.1116  0.6457  1.2529
  793SOL     hw 3171   4.683   3.510   6.674  1.2526 -0.1562  1.8910
  793SOL     vw 3172   4.684   3.597   6.678  0.1197  0.0198 -0.0784
  794SOL     ow 3173   6.486   2.339   2.017 -0.4167 -0.0418  0.6273
  794SOL     hw 3174   6.520   2.374   1.935  0.4106 -1.4583  0.3344
  794SOL     hw 3175   6.561   2.339   2.076 -1.2792  2.0880  1.8036
  794SOL     vw 3176   6.500   2.343   2.014 -0.4213  0.0522  0.7439
  795SOL     ow 3177   2.802   1.304   1.802  0.2492  0.8748  0.1474
  795SOL     hw 3178   2.712   1.271   1.803  0.3147  0.7046  0.6639
  795SOL     hw 3179   2.811   1.345   1.716  0.3098 -0.8089 -0.6861
  795SOL     vw 3180   2.791   1.305   1.791  0.2660  0.6301  0.1056
  796SOL     ow 3181   3.869   3.187   6.627  0.3980  0.2018 -1.0204
  796SOL     hw 3182   3.866   3.283   6.620  0.1593  0.2927  0.0985
  796SOL     hw 3183   3.950   3.168   6.674 -0.5606  0.0147  0.6394
  796SOL     vw 3184   3.879   3.197   6.632  0.2401  0.1889 -0.6540
  797SOL     ow 3185   6.935   1.212   6.575  0.8564 -0.2009 -0.6285
  797SOL     hw 3186   6.879   1.277   6.618  0.1458 -1.2904  0.1336
  797SOL     hw 3187   7.016   1.260   6.557 -0.2186  1.3633 -1.5875
  797SOL     vw 3188   6.938   1.227   6.579  0.6206 -0.1383 -0.6545
  798SOL     ow 3189   1.970   5.110   3.657 -0.1718  0.1477 -0.4692
  798SOL     hw 3190   1.880   5.135   3.676  0.2659  0.3849  1.5119
  798SOL     hw 3191   1.995   5.164   3.583 -1.2429  1.0548 -0.1949
  798SOL     vw 3192   1.961   5.120   3.650 -0.2555  0.2985 -0.1718
  799SOL     ow 3193   2.247   4.889   3.730  0.4948  0.2856 -0.3621
  799SOL     hw 3194   2.268   4.849   3.645  0.3381 -0.2235 -0.1648
  799SOL     hw 3195   2.275   4.823   3.794 -5.0240 -2.2934 -0.0305
  799SOL     vw 3196   2.254   4.875   3.727 -0.2540 -0.1216 -0.2923
  800SOL     ow 3197   0.157   1.682   5.235 -0.2991 -0.1337 -0.1769
  800SOL     hw 3198   0.111   1.735   5.170  1.1421 -0.1242 -1.2623
  800SOL     hw 3199   0.194   1.746   5.297  0.1038  0.0322 -0.5800
  800SOL     vw 3200   0.156   1.698   5.235 -0.0558 -0.1105 -0.3734
  801SOL     ow 3201   0.074   5.428   0.927 -0.0141 -0.0498  1.0402
  801SOL     hw 3202  -0.006   5.428   0.979 -1.4380 -1.7344 -0.9994
  801SOL     hw 3203   0.080   5.517   0.893 -2.2305 -0.3800 -0.4254
  801SOL     vw 3204   0.064   5.440   0.929 -0.4944 -0.3157  0.5777
  802SOL     ow 3205   6.869   4.116   1.459  0.1646  0.1687 -0.2425
  802SOL     hw 3206   6.929   4.179   1.498 -0.2130 -1.0326  2.5249
  802SOL     hw 3207   6.813   4.088   1.531 -2.1800 -0.5339 -2.2035
  802SOL     vw 3208   6.870   4.120   1.473 -0.1948 -0.0825 -0.1361
  803SOL     ow 3209   4.530   1.638   0.250 -0.0340 -0.1880 -0.7394
  803SOL     hw 3210   4.481   1.615   0.170  0.9576 -1.1972 -1.0709
  803SOL     hw 3211   4.463   1.641   0.318 -0.6360 -1.1566 -1.2597
  803SOL     vw 3212   4.515   1.636   0.248  0.0176 -0.4489 -0.8518
  804SOL     ow 3213   0.460   4.458   2.416 -0.6584 -0.0696 -0.3711
  804SOL     hw 3214   0.448   4.455   2.321  0.3678  0.7315 -0.5394
  804SOL     hw 3215   0.439   4.548   2.440  4.2816  1.4259 -0.6633
  804SOL     vw 3216   0.455   4.470   2.407  0.1288  0.2332 -0.4319
  805SOL     ow 3217   6.124   4.889   0.486 -0.2591 -0.0131 -0.1114
  805SOL     hw 3218   6.142   4.936   0.567  1.2056  0.3926 -0.6298
  805SOL     hw 3219   6.057   4.942   0.442 -0.2589  0.3586  0.3261
  805SOL     vw 3220   6.117   4.903   0.491 -0.0660  0.0894 -0.1221
  806SOL     ow 3221   0.906   2.009   4.204 -0.0355 -0.4999  0.0582
  806SOL     hw 3222   0.985   1.971   4.164 -1.2017 -0.9479 -1.9811
  806SOL     hw 3223   0.856   1.933   4.233 -0.5031 -0.3124 -0.2560
  806SOL     vw 3224   0.910   1.994   4.202 -0.2510 -0.5344 -0.2522
  807SOL     ow 3225   5.519   5.648   2.770  1.0579 -0.3963 -0.5659
  807SOL     hw 3226   5.578   5.575   2.750  1.2147  0.0191 -1.6676
  807SOL     hw 3227   5.443   5.607   2.812  0.6346 -1.3457 -2.1755
  807SOL     vw 3228   5.517   5.633   2.773  1.0226 -0.4668 -0.9236
  808SOL     ow 3229   1.139   5.428   6.268 -0.0887  0.4342 -0.0665
  808SOL     hw 3230   1.164   5.520   6.279 -0.5149  0.6614 -0.9342
  808SOL     hw 3231   1.192   5.398   6.194 -1.1914  0.4797 -0.9016
  808SOL     vw 3232   1.149   5.436   6.260 -0.2905  0.4702 -0.2911
  809SOL     ow 3233   1.325   1.224   3.688  0.2323  0.4999  0.1552
  809SOL     hw 3234   1.389   1.153   3.696  1.0886  1.2630  0.3535
  809SOL     hw 3235   1.292   1.237   3.777 -0.8917 -0.4917 -0.0968
  809SOL     vw 3236   1.329   1.216   3.701  0.1969  0.4697  0.1482
  810SOL     ow 3237   3.833   4.570   1.735 -0.3563  0.0788  0.1013
  810SOL     hw 3238   3.841   4.493   1.679  0.5423 -0.8177  1.3995
  810SOL     hw 3239   3.742   4.597   1.727 -0.9536 -1.7568  0.4276
  810SOL     vw 3240   3.822   4.564   1.726 -0.3166 -0.2818  0.3155
  811SOL     ow 3241   0.192   6.568   0.702 -0.0132 -0.1235  0.6987
  811SOL     hw 3242   0.190   6.484   0.748  0.1560  0.6775  2.2380
  811SOL     hw 3243   0.285   6.591   0.699  0.0857 -0.6172 -0.9666
  811SOL     vw 3244   0.204   6.560   0.707  0.0222 -0.0830  0.6821
  812SOL     ow 3245   0.621   3.291   4.333  0.2166  0.4864  0.5650
  812SOL     hw 3246   0.621   3.361   4.398 -0.3137  1.8662 -0.8551
  812SOL     hw 3247   0.530   3.283   4.304  0.7032  1.3001 -1.3917
  812SOL     vw 3248   0.609   3.299   4.337  0.2109  0.7758  0.1194
  813SOL     ow 3249   1.904   2.073   2.862 -0.0603 -0.1033 -0.7009
  813SOL     hw 3250   1.812   2.090   2.842 -0.5492  0.7822  1.8784
  813SOL     hw 3251   1.950   2.089   2.780 -2.2423 -1.2762 -2.2590
  813SOL     vw 3252   1.898   2.077   2.849 -0.4127 -0.1413 -0.5662
  814SOL     ow 3253   1.394   1.127   0.340  0.0042 -0.2822  0.2867
  814SOL     hw 3254   1.421   1.036   0.325  0.2623  0.0264 -1.2313
  814SOL     hw 3255   1.377   1.162   0.253 -1.6566  0.6700  0.9297
  814SOL     vw 3256   1.395   1.119   0.327 -0.1808 -0.1158  0.1712
  815SOL     ow 3257   1.300   2.830   2.877 -0.1741 -0.1142  0.1220
  815SOL     hw 3258   1.225   2.881   2.906 -0.6537 -0.4420 -0.5358
  815SOL     hw 3259   1.296   2.750   2.930 -0.0009  0.0760  0.4303
  815SOL     vw 3260   1.290   2.826   2.888 -0.2146 -0.1323  0.0759
  816SOL     ow 3261   5.037   4.097   2.587  0.2452 -0.5164  0.3952
  816SOL     hw 3262   5.041   4.137   2.500  0.6348 -0.7240  0.3150
  816SOL     hw 3263   5.082   4.160   2.643  3.6082 -2.1234 -0.2342
  816SOL     vw 3264   5.044   4.111   2.583  0.7401 -0.7555  0.3017
  817SOL     ow 3265   1.001   6.179   3.961  0.4092  0.4657 -0.0015
  817SOL     hw 3266   0.936   6.248   3.966  0.2960  0.3835 -0.3347
  817SOL     hw 3267   1.006   6.157   3.868 -0.4225 -0.7935  0.2245
  817SOL     vw 3268   0.993   6.185   3.950  0.2846  0.2885 -0.0156
  818SOL     ow 3269   6.486   6.009   0.895  0.2149  0.4161 -0.1770
  818SOL     hw 3270   6.485   5.935   0.955  3.0164  1.9833  2.0495
  818SOL     hw 3271   6.491   5.969   0.808 -1.6872 -1.9271  0.6864
  818SOL     vw 3272   6.487   5.994   0.891  0.3335  0.3135  0.2307
  819SOL     ow 3273   2.556   4.150   6.359  0.2905  0.2922 -0.6162
  819SOL     hw 3274   2.557   4.088   6.286  2.5885 -1.5816  0.8667
  819SOL     hw 3275   2.630   4.209   6.341  0.7828 -0.0955  0.1072
  819SOL     vw 3276   2.566   4.150   6.347  0.6586 -0.0060 -0.3252
  820SOL     ow 3277   4.986   1.373   5.747  0.2046 -0.2638 -0.9511
  820SOL     hw 3278   5.049   1.441   5.771  0.1844 -0.7648  0.6329
  820SOL     hw 3279   4.926   1.416   5.686  0.0416  1.2224  0.1869
  820SOL     vw 3280   4.987   1.388   5.742  0.1805 -0.1338 -0.5918
  821SOL     ow 3281   5.506   6.841   4.407 -1.0779  1.0168  0.0562
  821SOL     hw 3282   5.412   6.854   4.418 -1.0877  0.2941  0.8940
  821SOL     hw 3283   5.529   6.773   4.470 -0.1004  0.7518 -0.5605
  821SOL     vw 3284   5.497   6.834   4.417 -0.9501  0.8862  0.0856
  822SOL     ow 3285   2.446   4.891   4.831  0.1249  0.2420 -0.1439
  822SOL     hw 3286   2.371   4.945   4.805  1.3351  1.9385 -0.2772
  822SOL     hw 3287   2.470   4.843   4.752 -0.0166  0.7048 -0.4713
  822SOL     vw 3288   2.439   4.892   4.817  0.2660  0.5269 -0.2046
  823SOL     ow 3289   5.465   0.289   1.773  0.1539  0.0277 -0.0298
  823SOL     hw 3290   5.405   0.279   1.846  0.8006  1.2605  0.6982
  823SOL     hw 3291   5.456   0.380   1.746  2.0214  0.3863  0.4174
  823SOL     vw 3292   5.456   0.299   1.779  0.4859  0.2377  0.1252
  824SOL     ow 3293   6.023   5.376   2.353 -0.5386 -0.5666  0.0119
  824SOL     hw 3294   5.971   5.452   2.380  1.6485  0.4209  1.7107
  824SOL     hw 3295   5.982   5.302   2.397  0.4039  0.4379  2.7953
  824SOL     vw 3296   6.011   5.376   2.362 -0.1259 -0.3037  0.6032
  825SOL     ow 3297   4.306   3.805   2.126  0.0846 -0.2493 -0.0935
  825SOL     hw 3298   4.283   3.712   2.122 -1.3663  0.0839 -0.0536
  825SOL     hw 3299   4.398   3.808   2.102  1.2437 -2.0850  3.5212
  825SOL     vw 3300   4.315   3.793   2.122  0.0463 -0.4478  0.3887
  826SOL     ow 3301   7.010   0.833   2.857 -0.0601 -0.6529 -0.3384
  826SOL     hw 3302   7.055   0.918   2.853 -1.7060  0.2984  0.1805
  826SOL     hw 3303   7.000   0.816   2.950 -0.0597 -1.2540 -0.4446
  826SOL     vw 3304   7.015   0.842   2.869 -0.2773 -0.6067 -0.2840
  827SOL     ow 3305   1.744   1.950   3.094 -0.6070  0.6679  0.5356
  827SOL     hw 3306   1.696   1.895   3.032 -2.0108  2.4543 -0.0747
  827SOL     hw 3307   1.711   1.925   3.180 -0.6486  0.0192  0.3315
  827SOL     vw 3308   1.733   1.940   3.097 -0.7977  0.8180  0.4281
  828SOL     ow 3309   3.309   5.760   2.592  0.2656  0.9786  0.8016
  828SOL     hw 3310   3.375   5.769   2.522 -0.1275  0.1692  0.3197
  828SOL     hw 3311   3.225   5.766   2.547  0.0004  1.4479  1.3452
  828SOL     vw 3312   3.307   5.762   2.577  0.1788  0.9336  0.8098
  829SOL     ow 3313   4.657   0.936   0.888  0.4549  0.0855 -0.0828
  829SOL     hw 3314   4.615   0.850   0.894  0.2746  0.2549  2.2434
  829SOL     hw 3315   4.732   0.923   0.830 -0.5321 -1.2096 -1.1144
  829SOL     vw 3316   4.661   0.923   0.881  0.3006 -0.0631  0.0879
  830SOL     ow 3317   6.754   1.624   3.474 -0.3482  0.3543  0.1169
  830SOL     hw 3318   6.756   1.618   3.570 -1.4546 -0.3509  0.1176
  830SOL     hw 3319   6.844   1.645   3.449 -0.1353  0.9802  1.3353
  830SOL     vw 3320   6.766   1.626   3.484 -0.4661  0.3439  0.2778
  831SOL     ow 3321   2.174   3.059   0.879 -0.0641  0.3495  0.3681
  831SOL     hw 3322   2.261   3.070   0.839 -0.9965  1.0010 -1.6005
  831SOL     hw 3323   2.183   3.099   0.966  1.4050  1.0823 -0.0722
  831SOL     vw 3324   2.187   3.066   0.885  0.0068  0.5322  0.0502
  832SOL     ow 3325   1.446   4.157   2.214 -0.5421  0.4601  0.0013
  832SOL     hw 3326   1.433   4.063   2.211 -1.0168  0.3263  2.8918
  832SOL     hw 3327   1.466   4.175   2.306  1.5388  2.9534 -0.8053
  832SOL     vw 3328   1.447   4.147   2.226 -0.3302  0.7710  0.2763
  833SOL     ow 3329   6.448   4.760   7.010 -0.0604 -0.2520 -0.0007
  833SOL     hw 3330   6.543   4.750   6.997  0.6685  3.1589  1.5307
  833SOL     hw 3331   6.440   4.808   7.092 -3.0844  0.2820 -0.4954
  833SOL     vw 3332   6.460   4.765   7.019 -0.3631  0.2680  0.1361
  834SOL     ow 3333   6.990   3.663   2.578  0.1471  0.2484 -0.3675
  834SOL     hw 3334   6.940   3.593   2.536 -0.1553 -0.0357  0.4525
  834SOL     hw 3335   6.929   3.704   2.638  0.7990  0.0967  0.4242
  834SOL     vw 3336   6.976   3.659   2.581  0.1934  0.1909 -0.1550
  835SOL     ow 3337   1.109   5.779   2.153  0.0425  0.0688  0.6497
  835SOL     hw 3338   1.140   5.693   2.126 -2.1972 -0.7739  0.5575
  835SOL     hw 3339   1.137   5.787   2.244  0.2267 -0.7608  0.6688
  835SOL     vw 3340   1.117   5.769   2.161 -0.2287 -0.1519  0.6399
  836SOL     ow 3341   0.160   6.606   0.438 -0.0289 -0.3195 -0.2140
  836SOL     hw 3342   0.122   6.518   0.427 -0.2123 -0.2453 -0.1869
  836SOL     hw 3343   0.173   6.614   0.533 -1.1582  0.1455 -0.0756
  836SOL     vw 3344   0.156   6.595   0.449 -0.2021 -0.2482 -0.1921
  837SOL     ow 3345   4.379   5.596   6.293 -0.1157  0.5330 -0.6191
  837SOL     hw 3346   4.470   5.582   6.265 -0.3044 -1.6699 -0.3609
  837SOL     hw 3347   4.347   5.508   6.311 -1.9134  1.3893  0.5756
  837SOL     vw 3348   4.387   5.582   6.291 -0.3777  0.3552 -0.4275
  838SOL     ow 3349   1.145   3.372   1.708  0.2907  0.3229  0.6224
  838SOL     hw 3350   1.164   3.364   1.615  0.5043  1.3189  0.5641
  838SOL     hw 3351   1.230   3.366   1.751  0.5741  2.5464  0.5246
  838SOL     vw 3352   1.159   3.370   1.702  0.3563  0.7478  0.6018
  839SOL     ow 3353   2.651   0.068   6.405  1.0970  0.1768 -0.3466
  839SOL     hw 3354   2.570   0.105   6.370  0.5659  1.7622  2.2754
  839SOL     hw 3355   2.627   0.037   6.492  3.6037  2.2473  1.2170
  839SOL     vw 3356   2.637   0.068   6.412  1.3577  0.6591  0.2055
  840SOL     ow 3357   2.252   1.089   6.112 -0.0514  0.2706 -0.0857
  840SOL     hw 3358   2.321   1.133   6.062  1.2733 -3.1862 -1.6155
  840SOL     hw 3359   2.191   1.057   6.045 -1.8713  1.1381  1.0756
  840SOL     vw 3360   2.253   1.091   6.096 -0.1167 -0.0710 -0.1345
  841SOL     ow 3361   6.019   2.209   5.258 -0.1500 -0.3594 -0.2243
  841SOL     hw 3362   6.103   2.205   5.303  0.0672  0.1071 -0.5839
  841SOL     hw 3363   6.020   2.136   5.196  0.7951  0.7694 -1.5996
  841SOL     vw 3364   6.030   2.199   5.256  0.0033 -0.1488 -0.4530
  842SOL     ow 3365   5.043   5.924   3.246  0.1904 -0.1159  0.7464
  842SOL     hw 3366   4.967   5.952   3.195 -0.4825  1.0833  2.3184
  842SOL     hw 3367   5.116   5.926   3.184 -1.0163 -1.1256 -0.7547
  842SOL     vw 3368   5.043   5.928   3.231 -0.0575 -0.0908  0.7558
  843SOL     ow 3369   6.535   5.803   3.569  0.3510 -0.3870 -0.0711
  843SOL     hw 3370   6.491   5.735   3.620  0.8924 -1.4796 -1.0098
  843SOL     hw 3371   6.476   5.823   3.497  1.4026 -2.0426 -1.4809
  843SOL     vw 3372   6.522   5.797   3.567  0.5612 -0.7498 -0.3810
  844SOL     ow 3373   3.206   0.288   3.384  0.0821 -0.4506 -0.5332
  844SOL     hw 3374   3.148   0.253   3.451  0.6102 -0.1935  0.0692
  844SOL     hw 3375   3.150   0.297   3.306 -0.7374 -0.0306  0.0822
  844SOL     vw 3376   3.191   0.285   3.383  0.0437 -0.3613 -0.3725
  845SOL     ow 3377   6.688   1.837   4.193 -0.2806  0.3968 -0.4683
  845SOL     hw 3378   6.700   1.763   4.253 -0.5388  0.5967 -0.1626
  845SOL     hw 3379   6.764   1.834   4.135  0.4944  0.7796  0.4912
  845SOL     vw 3380   6.700   1.827   4.194 -0.2124  0.4737 -0.3014
  846SOL     ow 3381   5.507   0.792   4.965  0.2812 -0.3681  0.3696
  846SOL     hw 3382   5.465   0.861   4.913 -0.6396 -1.5583 -0.5357
  846SOL     hw 3383   5.475   0.807   5.054 -0.9887 -0.4118 -0.0584
  846SOL     vw 3384   5.497   0.803   4.970 -0.0079 -0.5309  0.1938
  847SOL     ow 3385   5.186   1.618   3.571 -0.8699  0.0714  0.0233
  847SOL     hw 3386   5.126   1.637   3.643 -1.0312  1.8137 -0.5094
  847SOL     hw 3387   5.163   1.682   3.503  1.9483  1.2354  0.0323
  847SOL     vw 3388   5.175   1.629   3.571 -0.5193  0.4550 -0.0457
  848SOL     ow 3389   1.089   4.662   4.528 -0.7129  0.0024  0.2826
  848SOL     hw 3390   1.162   4.718   4.552 -0.8815  0.5858 -0.5168
  848SOL     hw 3391   1.034   4.660   4.606  0.0805 -0.3389  0.8471
  848SOL     vw 3392   1.091   4.669   4.541 -0.6304  0.0343  0.2518
  849SOL     ow 3393   1.717   6.038   6.815 -0.0964 -0.5394 -0.1772
  849SOL     hw 3394   1.648   6.042   6.882 -1.1646  0.2850 -1.2945
  849SOL     hw 3395   1.796   6.012   6.864 -0.7054  0.6298  1.5173
  849SOL     vw 3396   1.719   6.035   6.831 -0.3176 -0.2763 -0.1009
  850SOL     ow 3397   1.263   2.230   3.426  0.7340  0.5921  0.6352
  850SOL     hw 3398   1.319   2.155   3.445  0.2206  0.1046  0.2620
  850SOL     hw 3399   1.323   2.302   3.409  1.2305  0.7227  2.7429
  850SOL     vw 3400   1.278   2.230   3.426  0.7318  0.5451  0.8640
  851SOL     ow 3401   6.042   6.972   3.498  0.2927 -0.8337 -0.4953
  851SOL     hw 3402   6.040   7.037   3.428 -0.3477 -2.6962 -2.3152
  851SOL     hw 3403   6.122   6.922   3.482 -0.2990 -1.8178 -0.4318
  851SOL     vw 3404   6.052   6.974   3.487  0.1302 -1.2095 -0.7269
  852SOL     ow 3405   3.540   5.764   5.051 -0.2148 -0.5890 -0.7003
  852SOL     hw 3406   3.521   5.839   4.995  1.4925  1.5184  1.3034
  852SOL     hw 3407   3.456   5.744   5.093 -0.7706 -0.0055 -1.5016
  852SOL     vw 3408   3.527   5.771   5.050 -0.0628 -0.2337 -0.5417
  853SOL     ow 3409   4.185   3.753   5.820 -0.2240 -0.3752  0.6092
  853SOL     hw 3410   4.216   3.788   5.737  1.0058  0.5264  1.4099
  853SOL     hw 3411   4.254   3.694   5.849 -1.0339 -1.3502  0.6064
  853SOL     vw 3412   4.198   3.750   5.813 -0.1686 -0.3848  0.7143
  854SOL     ow 3413   5.535   1.775   5.614  0.2662  0.4175 -0.1765
  854SOL     hw 3414   5.487   1.748   5.693  2.3560  0.1451  1.0781
  854SOL     hw 3415   5.510   1.710   5.548 -0.6485 -0.0482  0.5976
  854SOL     vw 3416   5.525   1.763   5.616  0.4210  0.3201  0.0916
  855SOL     ow 3417   2.118   3.264   6.566 -0.1222 -0.2482 -0.5649
  855SOL     hw 3418   2.076   3.299   6.645  0.0203 -1.9804  0.3340
  855SOL     hw 3419   2.052   3.207   6.528 -0.1435  0.4878 -1.6656
  855SOL     vw 3420   2.104   3.261   6.571 -0.1062 -0.3797 -0.5918
  856SOL     ow 3421   5.292   4.338   1.539  0.1457  0.7920 -0.1332
  856SOL     hw 3422   5.222   4.296   1.589 -1.3747  1.3791 -1.6721
  856SOL     hw 3423   5.261   4.427   1.522  2.3656  1.9068  1.2030
  856SOL     vw 3424   5.279   4.344   1.543  0.2377  1.0166 -0.1599
  857SOL     ow 3425   6.041   5.882   5.091  0.6858 -0.6163  0.6250
  857SOL     hw 3426   6.008   5.801   5.128 -0.6120 -1.0607 -1.3685
  857SOL     hw 3427   6.055   5.939   5.166 -1.1632 -1.6917  1.8353
  857SOL     vw 3428   6.039   5.879   5.106  0.2704 -0.8166  0.5217
  858SOL     ow 3429   4.336   2.623   2.406 -0.8210  0.5654  0.8358
  858SOL     hw 3430   4.360   2.674   2.483 -0.9792 -1.4627  2.3016
  858SOL     hw 3431   4.297   2.543   2.441  0.9551 -1.3697 -1.2604
  858SOL     vw 3432   4.334   2.619   2.421 -0.6075  0.0424  0.7527
  859SOL     ow 3433   7.012   4.647   0.812 -0.2139 -0.0978  0.2856
  859SOL     hw 3434   6.950   4.710   0.774 -0.6895 -0.2376  0.8023
  859SOL     hw 3435   6.957   4.588   0.864  0.1927 -1.1320 -0.4326
  859SOL     vw 3436   6.996   4.648   0.814 -0.2230 -0.2527  0.2590
  860SOL     ow 3437   2.762   4.128   5.524 -0.3220  0.2802  0.2004
  860SOL     hw 3438   2.731   4.175   5.447  1.0370 -2.2204 -2.0490
  860SOL     hw 3439   2.714   4.045   5.523  0.8931 -0.4673  1.0651
  860SOL     vw 3440   2.752   4.123   5.514  0.0176 -0.1483  0.0176
  861SOL     ow 3441   0.406   6.083   1.677  0.3942  0.0763  0.4451
  861SOL     hw 3442   0.379   6.009   1.732 -0.4588 -1.1815 -1.5634
  861SOL     hw 3443   0.453   6.043   1.604  1.7632  1.7301  0.3379
  861SOL     vw 3444   0.409   6.068   1.675  0.4623  0.1287  0.1659
  862SOL     ow 3445   1.217   6.890   1.333 -0.1690 -0.3647  0.0603
  862SOL     hw 3446   1.163   6.825   1.377  0.4054  1.1380  3.2688
  862SOL     hw 3447   1.305   6.853   1.334 -0.1073 -0.2135  0.4871
  862SOL     vw 3448   1.221   6.876   1.339 -0.0850 -0.1464  0.5399
  863SOL     ow 3449   2.025   6.550   4.371  0.4843  0.0912  0.4081
  863SOL     hw 3450   2.112   6.516   4.351  0.0660 -0.4972 -0.4499
  863SOL     hw 3451   2.017   6.629   4.317  0.6627  0.4242  0.8565
  863SOL     vw 3452   2.035   6.556   4.361  0.4526  0.0577  0.3541
  864SOL     ow 3453   1.336   1.419   5.479 -0.0435  0.2302  0.4417
  864SOL     hw 3454   1.393   1.481   5.524  1.9823 -0.3223 -1.2025
  864SOL     hw 3455   1.277   1.474   5.427  0.9737  0.8058 -0.1248
  864SOL     vw 3456   1.336   1.434   5.478  0.3580  0.2333  0.1502
  865SOL     ow 3457   2.127   4.998   6.670  0.4860 -0.1346  0.0159
  865SOL     hw 3458   2.142   5.063   6.602 -1.3659 -0.8109 -1.0976
  865SOL     hw 3459   2.206   4.943   6.669  1.7542  1.5721  0.4743
  865SOL     vw 3460   2.140   4.999   6.661  0.4089  0.0012 -0.0706
  866SOL     ow 3461   1.087   3.845   5.103 -0.4050 -0.2011  0.4279
  866SOL     hw 3462   1.062   3.758   5.069 -0.6496  0.7081 -1.9286
  866SOL     hw 3463   1.022   3.864   5.170 -2.1017 -0.6936 -0.9781
  866SOL     vw 3464   1.075   3.836   5.107 -0.6611 -0.1462 -0.0687
  867SOL     ow 3465   1.017   3.583   0.769 -0.0563 -0.3217 -0.1878
  867SOL     hw 3466   1.106   3.619   0.771  1.1338 -2.9647 -1.9011
  867SOL     hw 3467   0.988   3.593   0.679 -1.6074  0.5573  0.3516
  867SOL     vw 3468   1.025   3.589   0.758 -0.1040 -0.5546 -0.3427
  868SOL     ow 3469   0.595   3.257   0.725 -0.2256 -0.0358  0.2449
  868SOL     hw 3470   0.507   3.293   0.738 -0.1385 -0.5035  2.5592
  868SOL     hw 3471   0.650   3.334   0.711 -0.7338  0.4171  0.6838
  868SOL     vw 3472   0.590   3.272   0.725 -0.2812 -0.0377  0.6081
  869SOL     ow 3473   5.939   0.389   4.024  0.0876  0.3536 -0.1448
  869SOL     hw 3474   5.894   0.321   4.074 -0.0679  0.1581 -0.5403
  869SOL     hw 3475   6.031   0.378   4.046 -0.1527  1.5702  1.6520
  869SOL     vw 3476   5.945   0.378   4.034  0.0353  0.4883  0.0403
  870SOL     ow 3477   2.295   3.399   6.347  0.2063 -0.1178  0.3052
  870SOL     hw 3478   2.358   3.470   6.337  0.5433 -0.0535  2.4782
  870SOL     hw 3479   2.278   3.369   6.257  2.1521  0.8623 -0.4398
  870SOL     vw 3480   2.301   3.404   6.333  0.5076  0.0200  0.4935
  871SOL     ow 3481   0.167   6.305   5.352 -0.2316  0.3188  0.2171
  871SOL     hw 3482   0.108   6.243   5.310 -0.5568 -0.4812  1.7853
  871SOL     hw 3483   0.245   6.253   5.372  0.0744  0.7883  0.2489
  871SOL     vw 3484   0.170   6.290   5.349 -0.2342  0.2751  0.4280
  872SOL     ow 3485   3.426   3.763   3.667  0.3324 -0.8009  0.5273
  872SOL     hw 3486   3.365   3.705   3.622  0.4188 -0.7061  0.2849
  872SOL     hw 3487   3.415   3.848   3.625 -0.4050 -0.4214  1.4535
  872SOL     vw 3488   3.417   3.766   3.655  0.2465 -0.7384  0.6176
  873SOL     ow 3489   1.185   4.978   1.274  0.2566 -0.2523 -0.1600
  873SOL     hw 3490   1.120   4.926   1.321  0.4403 -1.3747 -1.0970
  873SOL     hw 3491   1.263   4.922   1.271  1.1068  0.8613  0.4883
  873SOL     vw 3492   1.187   4.964   1.280  0.3930 -0.2537 -0.1981
  874SOL     ow 3493   4.800   3.776   6.411  0.2288  0.4974 -0.1583
  874SOL     hw 3494   4.870   3.836   6.388 -0.6455  2.2922  1.4893
  874SOL     hw 3495   4.721   3.831   6.413 -0.7732 -0.8903  0.5248
  874SOL     vw 3496   4.799   3.791   6.408 -0.0186  0.5510  0.1493
  875SOL     ow 3497   3.162   3.357   4.434 -0.3065  0.0953  0.4430
  875SOL     hw 3498   3.175   3.283   4.375  0.9430  0.8934 -0.3205
  875SOL     hw 3499   3.248   3.372   4.473 -0.8792  0.2398  1.7119
  875SOL     vw 3500   3.175   3.349   4.431 -0.2172  0.2196  0.5097
  876SOL     ow 3501   4.425   3.109   6.731 -0.4052 -0.0101 -0.7589
  876SOL     hw 3502   4.508   3.105   6.685 -0.4962  1.2265 -1.0742
  876SOL     hw 3503   4.397   3.201   6.723 -2.1225 -0.5384 -1.2248
  876SOL     vw 3504   4.432   3.121   6.724 -0.6437  0.0833 -0.8621
  877SOL     ow 3505   5.440   4.787   5.988  0.0114  0.8658 -0.1986
  877SOL     hw 3506   5.402   4.875   5.993  0.5428  1.3654 -2.9597
  877SOL     hw 3507   5.514   4.789   6.048  0.4190  2.5884 -0.7021
  877SOL     vw 3508   5.445   4.799   5.996  0.1352  1.1590 -0.6294
  878SOL     ow 3509   5.478   4.550   2.179  0.2297 -0.0797  0.6897
  878SOL     hw 3510   5.411   4.600   2.226 -0.7285 -1.1248  0.4863
  878SOL     hw 3511   5.561   4.592   2.203 -0.4009  0.5793  1.8010
  878SOL     vw 3512   5.480   4.562   2.188  0.0203 -0.1304  0.8094
  879SOL     ow 3513   5.727   0.012   4.504 -0.1179 -0.1989 -0.3407
  879SOL     hw 3514   5.658   0.078   4.508  0.7317  0.7621 -1.0856
  879SOL     hw 3515   5.806   0.059   4.531  0.4855 -0.9429 -0.7878
  879SOL     vw 3516   5.728   0.027   4.508  0.0737 -0.1705 -0.4978
  880SOL     ow 3517   2.121   3.491   2.408 -0.2219  0.4085 -0.0561
  880SOL     hw 3518   2.114   3.571   2.356 -0.4423 -0.1026 -0.8259
  880SOL     hw 3519   2.076   3.424   2.356 -2.2209  0.2880  1.6801
  880SOL     vw 3520   2.114   3.492   2.394 -0.5147  0.3252  0.0714
  881SOL     ow 3521   0.905   0.679   0.252 -0.2809 -0.1631 -0.4629
  881SOL     hw 3522   0.830   0.733   0.277  0.5598  0.6839  0.3033
  881SOL     hw 3523   0.910   0.612   0.319  1.0723  1.2244  0.9073
  881SOL     vw 3524   0.896   0.678   0.264  0.0086  0.1318 -0.1810
  882SOL     ow 3525   5.776   3.196   0.768  0.0783  0.2378 -0.4542
  882SOL     hw 3526   5.856   3.158   0.730  2.1814  1.2787  2.5475
  882SOL     hw 3527   5.764   3.278   0.719  2.6100  1.4666  0.7741
  882SOL     vw 3528   5.785   3.202   0.756  0.6897  0.5373  0.1039
  883SOL     ow 3529   6.154   6.828   2.178  0.1961 -0.0572  0.9393
  883SOL     hw 3530   6.158   6.924   2.178 -0.3143 -0.0316  0.4777
  883SOL     hw 3531   6.187   6.803   2.265  1.1698  0.4909  0.7438
  883SOL     vw 3532   6.159   6.838   2.190  0.2573  0.0184  0.8525
  884SOL     ow 3533   2.008   5.120   4.591  0.0096 -0.1934 -0.7221
  884SOL     hw 3534   1.982   5.206   4.622 -0.2361  0.2794 -2.1375
  884SOL     hw 3535   2.086   5.098   4.641  0.5105  1.1889 -0.8495
  884SOL     vw 3536   2.015   5.128   4.601  0.0433  0.0515 -0.9258
  885SOL     ow 3537   1.605   6.066   2.489 -0.8895 -0.3121 -0.1751
  885SOL     hw 3538   1.525   6.052   2.438 -1.5119  2.1871 -0.0203
  885SOL     hw 3539   1.574   6.103   2.572  0.3903 -0.0581  0.2089
  885SOL     vw 3540   1.590   6.069   2.493 -0.8028  0.0513 -0.1041
  886SOL     ow 3541   4.523   2.567   4.575  0.2195 -0.0401  0.3101
  886SOL     hw 3542   4.474   2.490   4.604 -0.4549 -1.0071 -3.0347
  886SOL     hw 3543   4.608   2.533   4.549 -0.3824  0.1161 -2.0267
  886SOL     vw 3544   4.527   2.552   4.576  0.0510 -0.1470 -0.4394
  887SOL     ow 3545   0.405   6.093   3.270  0.0874  0.0255  0.2137
  887SOL     hw 3546   0.378   6.099   3.362  1.0973 -2.3260  0.7257
  887SOL     hw 3547   0.474   6.159   3.261  0.5185 -0.2426  1.3839
  887SOL     vw 3548   0.411   6.103   3.281  0.2775 -0.3200  0.4355
  888SOL     ow 3549   5.796   2.969   6.721 -0.2608  0.3027 -0.0343
  888SOL     hw 3550   5.838   2.964   6.636 -0.4722 -1.0866 -0.0930
  888SOL     hw 3551   5.728   2.902   6.718 -2.1340  2.1061  0.2570
  888SOL     vw 3552   5.793   2.959   6.710 -0.5357  0.3574 -0.0038
  889SOL     ow 3553   3.410   5.142   6.585  0.1304 -0.1108  0.6490
  889SOL     hw 3554   3.505   5.144   6.580  0.1842 -0.4899  1.3837
  889SOL     hw 3555   3.391   5.159   6.677 -0.5398  0.5881  0.3968
  889SOL     vw 3556   3.420   5.145   6.597  0.0490 -0.0689  0.7124
  890SOL     ow 3557   5.917   5.379   3.067  0.1469 -0.2010  0.1171
  890SOL     hw 3558   5.843   5.363   3.008  1.1209 -0.0403 -1.1856
  890SOL     hw 3559   5.882   5.439   3.133 -0.5016  1.1247 -1.3653
  890SOL     vw 3560   5.902   5.385   3.068  0.1900 -0.0048 -0.2503
  891SOL     ow 3561   3.347   4.663   5.993  0.1584 -0.0337 -0.1169
  891SOL     hw 3562   3.380   4.611   6.066  1.0457  1.7426  0.8167
  891SOL     hw 3563   3.257   4.632   5.980  1.2660 -3.3115 -1.1184
  891SOL     vw 3564   3.339   4.652   6.001  0.4215 -0.2320 -0.1261
  892SOL     ow 3565   4.841   0.197   5.868 -0.5458 -0.5751  0.0479
  892SOL     hw 3566   4.753   0.173   5.896  0.5591 -3.7282  1.2588
  892SOL     hw 3567   4.830   0.282   5.826 -4.1638 -0.9359 -0.0711
  892SOL     vw 3568   4.828   0.205   5.866 -0.8771 -1.0387  0.1919
  893SOL     ow 3569   4.296   5.060   2.111 -0.1208  0.4596  0.0262
  893SOL     hw 3570   4.202   5.078   2.122 -0.0155  0.1120  1.7874
  893SOL     hw 3571   4.305   4.967   2.133  0.5425  0.2924 -0.9002
  893SOL     vw 3572   4.285   5.050   2.115 -0.0196  0.3917  0.1365
  894SOL     ow 3573   5.855   2.490   5.131  0.0387  0.0169 -0.4461
  894SOL     hw 3574   5.784   2.551   5.118 -0.9958 -1.3054 -1.2975
  894SOL     hw 3575   5.880   2.462   5.043  2.1301  0.9810 -0.2268
  894SOL     vw 3576   5.849   2.494   5.118  0.1781 -0.0304 -0.5295
  895SOL     ow 3577   4.247   5.401   1.175  0.1848 -0.0890 -0.0567
  895SOL     hw 3578   4.263   5.413   1.082  1.2181  0.4963  0.1890
  895SOL     hw 3579   4.330   5.422   1.217 -0.2419 -0.4355  0.9957
  895SOL     vw 3580   4.260   5.405   1.168  0.2649 -0.0577  0.1146
  896SOL     ow 3581   4.203   6.204   1.873 -0.4061  0.8864 -0.1321
  896SOL     hw 3582   4.215   6.290   1.833 -1.8960  1.5784  0.8161
  896SOL     hw 3583   4.280   6.192   1.929  0.8216  0.6704 -1.7796
  896SOL     vw 3584   4.215   6.214   1.875 -0.4406  0.9494 -0.2244
  897SOL     ow 3585   3.040   6.840   6.906  0.3051  0.7691  0.0014
  897SOL     hw 3586   3.107   6.891   6.860  0.4642  1.7130  1.2583
  897SOL     hw 3587   3.074   6.750   6.903  0.2281  0.7557 -1.8462
  897SOL     vw 3588   3.053   6.835   6.899  0.3159  0.8917 -0.0763
  898SOL     ow 3589   1.849   5.229   5.713 -0.3081 -0.4013  0.4410
  898SOL     hw 3590   1.827   5.247   5.621  0.8877 -0.2736  0.1647
  898SOL     hw 3591   1.891   5.309   5.743  1.2993 -1.2118  0.4372
  898SOL     vw 3592   1.852   5.242   5.705  0.0618 -0.4914  0.4041
  899SOL     ow 3593   5.586   0.256   1.513  0.3110  0.2671 -0.2384
  899SOL     hw 3594   5.637   0.314   1.455  2.8341 -1.8452 -0.3260
  899SOL     hw 3595   5.547   0.191   1.454  2.3714 -1.5204  0.2283
  899SOL     vw 3596   5.588   0.255   1.497  0.9162 -0.2474 -0.1883
  900SOL     ow 3597   2.222   2.079   1.866  0.7130 -0.5917 -0.2993
  900SOL     hw 3598   2.215   1.984   1.875 -1.4720 -0.5086 -0.6449
  900SOL     hw 3599   2.275   2.092   1.787  2.4269 -1.4634  0.6560
  900SOL     vw 3600   2.228   2.068   1.857  0.6509 -0.6958 -0.2188
  901SOL     ow 3601   5.748   2.838   3.343 -0.1091 -0.1824  0.2000
  901SOL     hw 3602   5.665   2.795   3.359 -0.5669  1.1405  1.7405
  901SOL     hw 3603   5.801   2.773   3.297 -2.7553 -0.2661 -3.1658
  901SOL     vw 3604   5.744   2.824   3.339 -0.5188 -0.0190 -0.0408
  902SOL     ow 3605   5.511   1.986   5.380 -0.4392 -0.1248  0.2177
  902SOL     hw 3606   5.442   2.022   5.325  2.0754  3.7175 -0.8236
  902SOL     hw 3607   5.568   1.938   5.319 -1.0076 -1.5150  0.7264
  902SOL     vw 3608   5.510   1.984   5.364 -0.1826  0.1987  0.1476
  903SOL     ow 3609   1.051   0.757   0.932 -0.1317 -0.1563  0.0461
  903SOL     hw 3610   1.123   0.803   0.976  0.0268  2.3431 -2.5316
  903SOL     hw 3611   1.090   0.675   0.903  0.9317  0.0288  0.8827
  903SOL     vw 3612   1.066   0.752   0.934  0.0295  0.1979 -0.1836
  904SOL     ow 3613   6.672   4.904   3.173 -0.1046  0.0298  0.2920
  904SOL     hw 3614   6.694   4.907   3.266 -0.1209  0.2402  0.2899
  904SOL     hw 3615   6.731   4.968   3.132 -0.6998  0.5927  0.2845
  904SOL     vw 3616   6.683   4.913   3.180 -0.1850  0.1321  0.2909
  905SOL     ow 3617   6.390   2.755   3.280  0.2601 -0.0379  0.0706
  905SOL     hw 3618   6.405   2.745   3.374  0.7046 -0.7460 -0.0683
  905SOL     hw 3619   6.322   2.822   3.273  1.2695  1.1089  0.8499
  905SOL     vw 3620   6.383   2.763   3.291  0.4520  0.0199  0.1550
  906SOL     ow 3621   0.311   1.682   1.676 -0.7906 -0.1146  0.4248
  906SOL     hw 3622   0.278   1.682   1.766 -0.9116  1.0606  0.3931
  906SOL     hw 3623   0.315   1.589   1.653  0.3427 -0.5107  2.0313
  906SOL     vw 3624   0.307   1.670   1.685 -0.6570 -0.0119  0.6326
  907SOL     ow 3625   6.931   1.145   6.877 -0.4664 -1.2694  0.3716
  907SOL     hw 3626   7.026   1.132   6.879 -0.3457 -0.4585  1.3052
  907SOL     hw 3627   6.902   1.121   6.965 -0.8997 -0.1140  0.5685
  907SOL     vw 3628   6.940   1.140   6.889 -0.5074 -1.0100  0.5207
  908SOL     ow 3629   1.135   2.137   1.924 -0.0102  0.7610 -0.4541
  908SOL     hw 3630   1.069   2.120   1.857  0.5331 -0.8865 -0.6202
  908SOL     hw 3631   1.202   2.188   1.879 -0.8361  1.8814 -0.4569
  908SOL     vw 3632   1.135   2.141   1.909 -0.0474  0.6915 -0.4764
  909SOL     ow 3633   6.537   5.473   0.078 -0.2113 -0.2752 -0.1625
  909SOL     hw 3634   6.618   5.516   0.105  0.1197 -0.0587 -1.4029
  909SOL     hw 3635   6.555   5.379   0.089 -0.1314 -0.1929  0.4349
  909SOL     vw 3636   6.550   5.466   0.083 -0.1571 -0.2356 -0.2474
  910SOL     ow 3637   4.959   5.860   1.849  0.3654  0.2667 -0.7565
  910SOL     hw 3638   4.874   5.818   1.839 -0.9824  2.5098  0.4452
  910SOL     hw 3639   4.938   5.950   1.876  3.1282  0.0746  2.6570
  910SOL     vw 3640   4.945   5.867   1.851  0.5519  0.5372 -0.1476
  911SOL     ow 3641   3.050   1.712   4.839  0.1103  0.2870  0.0218
  911SOL     hw 3642   2.991   1.752   4.776 -0.1924 -0.6218 -0.2992
  911SOL     hw 3643   3.106   1.783   4.869 -2.5942  1.7390  2.0677
  911SOL     vw 3644   3.050   1.726   4.835 -0.2865  0.3586  0.2494
  912SOL     ow 3645   0.793   4.992   2.926  0.8446  0.0091 -0.3652
  912SOL     hw 3646   0.880   5.030   2.930  0.5530  0.7493 -0.9659
  912SOL     hw 3647   0.734   5.066   2.912  0.2577 -0.6387 -1.4338
  912SOL     vw 3648   0.797   5.007   2.925  0.7288  0.0215 -0.5854
  913SOL     ow 3649   4.915   6.442   6.919 -0.8838  0.1616  0.3841
  913SOL     hw 3650   4.934   6.525   6.874  0.4711 -0.5043 -0.3046
  913SOL     hw 3651   4.885   6.384   6.850  1.4012 -0.9333  0.2219
  913SOL     vw 3652   4.913   6.445   6.904 -0.4034 -0.0708  0.2720
  914SOL     ow 3653   4.049   6.235   5.438 -0.3250  0.0765 -0.2594
  914SOL     hw 3654   3.955   6.215   5.438 -0.2439 -0.6095 -3.0085
  914SOL     hw 3655   4.091   6.153   5.465 -0.4569  0.0152 -0.2384
  914SOL     vw 3656   4.042   6.222   5.442 -0.3319 -0.0224 -0.6194
  915SOL     ow 3657   1.008   6.179   6.349  0.0182  0.7963  0.2092
  915SOL     hw 3658   1.096   6.141   6.356 -0.7691 -1.1331  0.4125
  915SOL     hw 3659   1.014   6.240   6.276  1.5142  0.6616  0.1861
  915SOL     vw 3660   1.021   6.182   6.340  0.1117  0.5238  0.2329
  916SOL     ow 3661   4.303   3.910   6.045 -0.4823  0.0429  0.2369
  916SOL     hw 3662   4.395   3.890   6.062 -0.3995 -1.1403 -1.4007
  916SOL     hw 3663   4.298   4.006   6.045  0.0981  0.1753  3.3931
  916SOL     vw 3664   4.314   3.920   6.048 -0.3951 -0.0957  0.4373
  917SOL     ow 3665   0.817   6.116   0.998  0.3625 -0.2482  0.3722
  917SOL     hw 3666   0.734   6.150   0.963  0.6692  0.0379 -0.0858
  917SOL     hw 3667   0.802   6.022   1.007  0.6771 -0.5471 -1.7261
  917SOL     vw 3668   0.804   6.108   0.995  0.4445 -0.2499  0.0349
  918SOL     ow 3669   2.805   1.102   3.828  0.3330 -0.4161  0.2078
  918SOL     hw 3670   2.757   1.086   3.910 -0.1619  0.8293  0.1760
  918SOL     hw 3671   2.738   1.134   3.767  1.4197  3.3833  0.7545
  918SOL     vw 3672   2.790   1.104   3.831  0.4112  0.2494  0.2757
  919SOL     ow 3673   1.863   0.013   0.724 -0.4365 -0.4753  0.0870
  919SOL     hw 3674   1.810   0.081   0.767  0.6725 -0.0297  0.8037
  919SOL     hw 3675   1.864  -0.059   0.787  0.0281 -0.3715  0.2027
  919SOL     vw 3676   1.856   0.012   0.738 -0.2289 -0.4027  0.1968
  920SOL     ow 3677   1.624   5.037   5.806 -0.2320 -0.0114 -0.0847
  920SOL     hw 3678   1.583   4.951   5.798 -0.1742 -0.2442  1.7921
  920SOL     hw 3679   1.566   5.086   5.865 -1.6551  2.1676 -3.0035
  920SOL     vw 3680   1.611   5.032   5.813 -0.4122  0.2453 -0.2220
  921SOL     ow 3681   4.712   2.079   4.366 -0.1312  0.8803  0.5238
  921SOL     hw 3682   4.807   2.083   4.370 -0.0617  0.3113 -0.4177
  921SOL     hw 3683   4.685   2.068   4.458  0.7499  0.2408  0.7185
  921SOL     vw 3684   4.721   2.078   4.379 -0.0060  0.7207  0.4251
  922SOL     ow 3685   3.011   0.064   0.050  0.2695 -0.1476  0.3720
  922SOL     hw 3686   3.102   0.085   0.032  0.7500 -2.3927 -0.2084
  922SOL     hw 3687   2.991   0.111   0.131  1.5388  1.3249 -0.1133
  922SOL     vw 3688   3.020   0.073   0.058  0.5006 -0.2495  0.2314
  923SOL     ow 3689   5.085   4.059   5.273 -0.1175  0.0095  0.5664
  923SOL     hw 3690   5.060   4.141   5.229  0.1310  0.0172  0.4408
  923SOL     hw 3691   5.141   4.087   5.346  3.0397 -0.2404 -1.5809
  923SOL     vw 3692   5.089   4.074   5.277  0.3319 -0.0224  0.2666
  924SOL     ow 3693   1.102   5.999   0.911 -0.2400 -0.5900 -0.1759
  924SOL     hw 3694   1.049   5.919   0.905 -0.0974 -0.6325 -1.0509
  924SOL     hw 3695   1.087   6.044   0.828 -0.5763  0.4697  0.4395
  924SOL     vw 3696   1.093   5.994   0.899 -0.2655 -0.4556 -0.2101
  925SOL     ow 3697   5.168   6.911   0.897  0.2427  0.9458 -0.8423
  925SOL     hw 3698   5.173   6.926   0.803 -0.3296 -1.3814 -1.3088
  925SOL     hw 3699   5.075   6.906   0.916  0.2508  3.6080  0.3243
  925SOL     vw 3700   5.157   6.912   0.887  0.1683  0.9902 -0.7499
  926SOL     ow 3701   6.325   5.272   4.519  0.6101  0.3820  0.5729
  926SOL     hw 3702   6.392   5.337   4.539 -0.1141  1.6897 -1.0444
  926SOL     hw 3703   6.334   5.257   4.425 -1.7801  1.1315  0.1673
  926SOL     vw 3704   6.335   5.279   4.509  0.1993  0.6537  0.3061
  927SOL     ow 3705   6.937   3.876   4.246 -0.2214  0.0933  0.4278
  927SOL     hw 3706   7.025   3.911   4.259 -0.5213  3.0283 -3.6672
  927SOL     hw 3707   6.950   3.783   4.229  1.9939  0.3409  0.5157
  927SOL     vw 3708   6.950   3.868   4.246  0.0312  0.5132 -0.1011
  928SOL     ow 3709   6.842   4.911   5.263  0.1067  0.3590  0.6971
  928SOL     hw 3710   6.923   4.859   5.257  0.0874  0.4301 -0.4774
  928SOL     hw 3711   6.772   4.846   5.266  0.1448  0.2922  0.3031
  928SOL     vw 3712   6.843   4.896   5.262  0.1094  0.3595  0.4902
  929SOL     ow 3713   1.115   0.888   0.057 -0.3146  0.0618  0.1609
  929SOL     hw 3714   1.209   0.898   0.072 -0.6935  0.8703  2.3821
  929SOL     hw 3715   1.080   0.976   0.069 -1.4657 -0.4053  0.3286
  929SOL     vw 3716   1.123   0.901   0.061 -0.5164  0.1068  0.4761
  930SOL     ow 3717   0.084   2.973   1.647 -0.1850  0.2194  0.1989
  930SOL     hw 3718   0.047   3.011   1.568  1.1631 -0.8434 -1.0164
  930SOL     hw 3719   0.110   3.048   1.701  0.9098  1.0436 -1.3821
  930SOL     vw 3720   0.083   2.988   1.644  0.1373  0.1881 -0.1701
  931SOL     ow 3721   1.601   2.874   0.919 -0.1139  0.3842  0.3739
  931SOL     hw 3722   1.594   2.792   0.967 -1.1524  1.2673  1.8165
  931SOL     hw 3723   1.626   2.848   0.830 -1.9086 -1.5932  0.3716
  931SOL     vw 3724   1.604   2.860   0.914 -0.4876  0.2398  0.5639
  932SOL     ow 3725   3.030   3.095   5.570 -0.1989 -0.6713  0.5455
  932SOL     hw 3726   2.972   3.076   5.644 -2.6910 -0.3614 -1.1793
  932SOL     hw 3727   3.019   3.189   5.555 -2.7971 -1.2649 -2.4057
  932SOL     vw 3728   3.021   3.105   5.578 -0.8705 -0.7088 -0.0715
  933SOL     ow 3729   4.168   3.101   0.920 -0.5242 -0.2107 -0.4734
  933SOL     hw 3730   4.231   3.156   0.966 -0.9812 -1.1216  1.3124
  933SOL     hw 3731   4.216   3.069   0.843  0.9084 -0.1948  0.3850
  933SOL     vw 3732   4.183   3.104   0.916 -0.3953 -0.3288 -0.1246
  934SOL     ow 3733   5.626   6.747   5.464  0.0138  0.2392  0.2095
  934SOL     hw 3734   5.532   6.728   5.467 -0.3263  1.4746 -1.3578
  934SOL     hw 3735   5.653   6.721   5.376  1.0819  0.1867  0.5430
  934SOL     vw 3736   5.617   6.741   5.453  0.1101  0.3951  0.0467
  935SOL     ow 3737   1.736   0.841   1.069 -0.6312 -0.1540  0.1575
  935SOL     hw 3738   1.662   0.784   1.089 -1.7755  0.0243 -2.8866
  935SOL     hw 3739   1.761   0.817   0.980  1.0058  1.8513 -0.0061
  935SOL     vw 3740   1.729   0.830   1.060 -0.5662  0.1342 -0.2657
  936SOL     ow 3741   6.844   3.916   1.011  0.4069 -0.0426 -0.2261
  936SOL     hw 3742   6.804   3.833   0.986  2.3162 -1.7741  1.9405
  936SOL     hw 3743   6.790   3.948   1.083 -0.8202  1.1282 -1.5969
  936SOL     vw 3744   6.832   3.909   1.017  0.4971 -0.1166 -0.1211
  937SOL     ow 3745   2.688   3.267   0.360  0.4565 -0.1469 -0.3392
  937SOL     hw 3746   2.654   3.327   0.425  0.1659  0.5295 -1.1009
  937SOL     hw 3747   2.704   3.186   0.408 -2.9793 -0.8050 -0.0630
  937SOL     vw 3748   2.686   3.264   0.375 -0.0350 -0.1444 -0.4033
  938SOL     ow 3749   1.060   1.605   1.894 -0.3224  0.6034 -0.3944
  938SOL     hw 3750   1.008   1.569   1.822 -0.8092 -1.4445  0.8904
  938SOL     hw 3751   1.148   1.569   1.881 -0.6618 -0.6379  0.5584
  938SOL     vw 3752   1.065   1.596   1.883 -0.4314  0.1693 -0.0992
  939SOL     ow 3753   3.450   5.561   4.906  0.5595  0.5736  0.1544
  939SOL     hw 3754   3.387   5.630   4.886  1.3911  1.0647 -0.8886
  939SOL     hw 3755   3.398   5.492   4.947 -0.4966  1.3122  0.1068
  939SOL     vw 3756   3.435   5.561   4.909  0.5299  0.7360  0.0105
  940SOL     ow 3757   3.860   1.743   4.319  0.4462  0.3565  0.3244
  940SOL     hw 3758   3.927   1.677   4.302  0.8260  0.4109  1.5074
  940SOL     hw 3759   3.838   1.731   4.411  0.3429  1.7200  0.4909
  940SOL     vw 3760   3.866   1.733   4.329  0.4827  0.5436  0.5021
  941SOL     ow 3761   5.610   6.385   0.773 -0.8868 -0.2523 -0.2293
  941SOL     hw 3762   5.621   6.400   0.679 -0.6208  2.1326  0.1355
  941SOL     hw 3763   5.664   6.452   0.815 -0.7066 -1.5040  1.6513
  941SOL     vw 3764   5.618   6.395   0.766 -0.8280 -0.1028  0.0670
  942SOL     ow 3765   3.037   0.982   3.765 -0.1929 -0.6587  0.6289
  942SOL     hw 3766   2.954   1.030   3.773 -1.5343 -2.2069 -2.5033
  942SOL     hw 3767   3.095   1.027   3.827 -3.2426  0.6156  2.9013
  942SOL     vw 3768   3.033   0.995   3.774 -0.7722 -0.6948  0.5153
  943SOL     ow 3769   3.163   1.602   3.816  0.5723 -0.6461  0.0960
  943SOL     hw 3770   3.249   1.634   3.787  0.3938 -0.9120 -0.7540
  943SOL     hw 3771   3.144   1.652   3.895  0.5451  0.9602 -0.8729
  943SOL     vw 3772   3.172   1.613   3.822  0.5450 -0.4693 -0.1441
  944SOL     ow 3773   4.652   1.375   0.257  0.6356 -0.4091  0.1411
  944SOL     hw 3774   4.563   1.351   0.282  1.0519 -1.5455  0.6352
  944SOL     hw 3775   4.653   1.370   0.162  0.1491 -0.3059  0.1317
  944SOL     vw 3776   4.641   1.371   0.248  0.6263 -0.5454  0.2051
  945SOL     ow 3777   6.255   5.248   2.217  1.0263 -0.1729 -0.5184
  945SOL     hw 3778   6.298   5.169   2.248  0.9882 -0.3429 -0.8951
  945SOL     hw 3779   6.200   5.219   2.144 -0.6306 -0.1795  0.6612
  945SOL     vw 3780   6.253   5.234   2.212  0.8025 -0.1962 -0.4125
  946SOL     ow 3781   1.095   0.841   2.547  0.0709 -0.6518 -0.3682
  946SOL     hw 3782   1.087   0.922   2.497  1.6227  0.4145  1.0006
  946SOL     hw 3783   1.009   0.828   2.586  0.2752  1.4284  0.9269
  946SOL     vw 3784   1.083   0.850   2.545  0.3026 -0.2367 -0.0167
  947SOL     ow 3785   6.093   0.125   3.273 -0.0789 -0.1054  0.6169
  947SOL     hw 3786   6.033   0.185   3.228  0.4581  0.5318  0.7337
  947SOL     hw 3787   6.154   0.182   3.319  2.2623 -0.6246 -1.6229
  947SOL     vw 3788   6.093   0.140   3.273  0.3009 -0.0898  0.3368
  948SOL     ow 3789   6.279   1.432   0.953  0.7412 -0.2884  0.1865
  948SOL     hw 3790   6.210   1.403   1.013 -1.2170  0.6922 -1.4484
  948SOL     hw 3791   6.361   1.413   0.999 -0.5991  1.8734  3.8766
  948SOL     vw 3792   6.281   1.426   0.967  0.3059  0.1262  0.4576
  949SOL     ow 3793   1.287   2.951   0.957 -0.6104  0.7097 -0.4227
  949SOL     hw 3794   1.239   2.928   1.037 -0.6809 -0.6537 -0.8279
  949SOL     hw 3795   1.229   2.923   0.886 -0.7412  2.3085 -0.9835
  949SOL     vw 3796   1.273   2.944   0.958 -0.6369  0.7406 -0.5502
  950SOL     ow 3797   5.417   4.002   1.486  0.0353  0.0651 -0.2993
  950SOL     hw 3798   5.491   3.950   1.453  1.2349  1.8254 -0.5505
  950SOL     hw 3799   5.409   3.977   1.578 -0.4784 -1.6871 -0.7727
  950SOL     vw 3800   5.426   3.992   1.493  0.1261  0.0662 -0.3949
  951SOL     ow 3801   5.452   5.421   5.495  0.1602 -0.4116  0.0024
  951SOL     hw 3802   5.471   5.496   5.438  1.5845  0.7823  1.9042
  951SOL     hw 3803   5.363   5.436   5.525 -0.5723 -0.9981 -1.7502
  951SOL     vw 3804   5.443   5.433   5.491  0.2515 -0.3314  0.0222
  952SOL     ow 3805   0.445   5.186   1.840  0.1977  0.2874 -0.2513
  952SOL     hw 3806   0.389   5.262   1.821  0.0916  0.2623 -0.0410
  952SOL     hw 3807   0.384   5.118   1.869  0.2155 -0.1113 -1.1121
  952SOL     vw 3808   0.429   5.187   1.841  0.1861  0.2315 -0.3371
  953SOL     ow 3809   3.927   4.380   0.859  0.4071 -0.7359 -0.2436
  953SOL     hw 3810   3.966   4.437   0.925  0.3680 -1.5029  0.4684
  953SOL     hw 3811   3.976   4.398   0.779 -0.1455  0.8833 -0.2612
  953SOL     vw 3812   3.938   4.390   0.857  0.3291 -0.6235 -0.1520
  954SOL     ow 3813   6.524   0.072   0.122  0.1711 -0.2484 -0.3120
  954SOL     hw 3814   6.586   0.004   0.148 -1.1135 -0.7309  1.7195
  954SOL     hw 3815   6.438   0.036   0.146 -0.6144  1.7055 -0.0238
  954SOL     vw 3816   6.521   0.058   0.129 -0.1020 -0.0542 -0.0060
  955SOL     ow 3817   6.508   5.819   5.622  0.6277  0.1796  0.3668
  955SOL     hw 3818   6.493   5.905   5.583 -4.2477 -0.9003 -0.8535
  955SOL     hw 3819   6.482   5.830   5.714  0.1864  0.0525  0.2574
  955SOL     vw 3820   6.502   5.832   5.629 -0.0737  0.0203  0.1912
  956SOL     ow 3821   3.066   6.746   1.989  0.3108  0.0512  0.4626
  956SOL     hw 3822   3.101   6.774   2.073  0.3264  1.1639  0.0903
  956SOL     hw 3823   2.975   6.721   2.008  0.1252  0.8945  0.6956
  956SOL     vw 3824   3.058   6.746   2.003  0.2884  0.3092  0.4442
  957SOL     ow 3825   1.300   4.809   5.313  1.1367  0.6591  0.1841
  957SOL     hw 3826   1.240   4.739   5.287  1.1330  0.3694  0.9492
  957SOL     hw 3827   1.245   4.872   5.360  1.2792  0.8290  0.1279
  957SOL     vw 3828   1.285   4.808   5.315  1.1550  0.6433  0.2775
  958SOL     ow 3829   1.067   7.002   4.524  0.6296  0.2395  0.3035
  958SOL     hw 3830   1.075   6.937   4.594 -1.6390  0.2550  0.6489
  958SOL     hw 3831   1.024   6.956   4.453  0.6338  0.8917 -0.1288
  958SOL     vw 3832   1.062   6.987   4.524  0.3308  0.3278  0.2921
  959SOL     ow 3833   2.925   2.449   4.443 -0.1180 -0.1868  0.1442
  959SOL     hw 3834   2.887   2.443   4.530 -1.6206  2.2027 -0.2696
  959SOL     hw 3835   2.924   2.359   4.410 -2.1714 -0.7359  1.5272
  959SOL     vw 3836   2.920   2.436   4.450 -0.5872  0.0560  0.2720
  960SOL     ow 3837   1.298   1.078   2.643 -0.1324 -0.3221 -0.0279
  960SOL     hw 3838   1.281   1.028   2.723 -0.8484  1.9241  1.3397
  960SOL     hw 3839   1.224   1.058   2.586 -1.2232  0.3066  1.1162
  960SOL     vw 3840   1.286   1.069   2.646 -0.3707  0.0573  0.3035
  961SOL     ow 3841   5.820   5.787   1.667 -0.1412  0.4090 -0.3096
  961SOL     hw 3842   5.801   5.880   1.660  1.3020  0.7274 -0.1190
  961SOL     hw 3843   5.763   5.746   1.601 -0.0269  1.5254 -1.1252
  961SOL     vw 3844   5.810   5.794   1.657  0.0646  0.5980 -0.3920
  962SOL     ow 3845   4.163   2.016   1.802 -0.4959 -0.3593  0.8077
  962SOL     hw 3846   4.131   1.942   1.854 -1.4169 -0.0143  0.7440
  962SOL     hw 3847   4.144   2.092   1.856 -0.9429 -0.0412  0.2064
  962SOL     vw 3848   4.156   2.016   1.816 -0.6762 -0.2718  0.7200
  963SOL     ow 3849   0.168   5.922   0.729  0.3131  0.2473 -0.6139
  963SOL     hw 3850   0.132   5.858   0.668  0.3899 -0.9753  0.5767
  963SOL     hw 3851   0.259   5.895   0.742 -0.0247 -0.2275  0.9332
  963SOL     vw 3852   0.175   5.910   0.723  0.2787  0.0231 -0.2527
  964SOL     ow 3853   4.352   6.222   3.901 -0.4013  0.3493  0.1838
  964SOL     hw 3854   4.283   6.159   3.881  1.5690 -1.6194 -0.6970
  964SOL     hw 3855   4.326   6.301   3.854 -1.3625 -0.7627 -1.2366
  964SOL     vw 3856   4.339   6.224   3.892 -0.2682 -0.0572 -0.1198
  965SOL     ow 3857   2.836   6.835   6.344 -1.0457  0.1682 -0.2672
  965SOL     hw 3858   2.802   6.795   6.423 -1.9233  2.3031  0.5214
  965SOL     hw 3859   2.903   6.774   6.312 -1.8409 -1.5326  1.1599
  965SOL     vw 3860   2.840   6.822   6.350 -1.2665  0.2258  0.0253
  966SOL     ow 3861   0.014   2.152   4.373  0.2679  0.0799  0.4130
  966SOL     hw 3862  -0.065   2.140   4.427 -0.2847  1.4743 -0.0563
  966SOL     hw 3863  -0.016   2.138   4.283  0.7712 -0.3049  0.2979
  966SOL     vw 3864  -0.000   2.148   4.368  0.2613  0.2131  0.3359
  967SOL     ow 3865   2.928   4.231   2.635  0.0678  0.0499 -0.0675
  967SOL     hw 3866   2.967   4.307   2.678 -0.0248 -0.2820  0.6198
  967SOL     hw 3867   2.899   4.263   2.550  1.1499  0.4847 -0.2932
  967SOL     vw 3868   2.930   4.245   2.629  0.1984  0.0637 -0.0066
  968SOL     ow 3869   2.936   5.979   5.457 -0.3440  0.0518  0.3977
  968SOL     hw 3870   3.001   5.912   5.437 -0.6057 -0.1148  0.0933
  968SOL     hw 3871   2.917   5.968   5.550  2.4392  2.1808  1.3716
  968SOL     vw 3872   2.942   5.969   5.467 -0.0112  0.3107  0.4859
  969SOL     ow 3873   6.218   0.081   2.421 -0.5035 -0.3491 -0.1281
  969SOL     hw 3874   6.195  -0.012   2.415  0.4406 -0.7151  1.2913
  969SOL     hw 3875   6.312   0.081   2.440 -0.8087  0.8255  1.5504
  969SOL     vw 3876   6.227   0.069   2.423 -0.4189 -0.2424  0.2807
  970SOL     ow 3877   6.043   1.323   2.783 -0.1299 -0.1542  0.2262
  970SOL     hw 3878   5.976   1.308   2.849  0.3869 -2.6186  0.2966
  970SOL     hw 3879   6.116   1.362   2.831 -1.5386  2.9464  0.0727
  970SOL     vw 3880   6.044   1.326   2.798 -0.2475 -0.0703  0.2153
  971SOL     ow 3881   3.950   1.310   0.219  0.3803  0.2900 -0.0459
  971SOL     hw 3882   3.956   1.264   0.136 -3.6472 -0.8830  0.1070
  971SOL     hw 3883   4.026   1.280   0.269  0.6931 -2.1788 -1.8456
  971SOL     vw 3884   3.961   1.300   0.215 -0.1099 -0.1904 -0.2632
  972SOL     ow 3885   2.238   6.608   3.641 -0.4441 -0.3890 -0.0053
  972SOL     hw 3886   2.301   6.680   3.634  0.1318 -0.9346 -0.4773
  972SOL     hw 3887   2.153   6.651   3.649  0.0571  0.3951  1.7509
  972SOL     vw 3888   2.235   6.623   3.641 -0.3021 -0.3576  0.1639
  973SOL     ow 3889   1.107   6.635   2.632  0.3609 -0.4127  0.0324
  973SOL     hw 3890   1.089   6.727   2.649  0.5840 -0.3380 -0.1219
  973SOL     hw 3891   1.070   6.588   2.707  1.1400 -0.1147  0.6094
  973SOL     vw 3892   1.100   6.641   2.644  0.4930 -0.3636  0.0882
  974SOL     ow 3893   0.907   3.795   0.973 -0.5342  0.4136  0.3615
  974SOL     hw 3894   0.873   3.885   0.974 -0.2115  0.5426 -0.0651
  974SOL     hw 3895   1.001   3.805   0.989 -0.4525  0.1722  0.0447
  974SOL     vw 3896   0.915   3.808   0.975 -0.4808  0.3989  0.2634
  975SOL     ow 3897   6.065   5.255   4.739 -0.8161  0.6665 -0.1070
  975SOL     hw 3898   6.041   5.325   4.800  4.8134  2.9621  0.0450
  975SOL     hw 3899   6.103   5.187   4.794  3.4109  2.3379 -0.5941
  975SOL     vw 3900   6.067   5.255   4.754  0.4845  1.1897 -0.1509
  976SOL     ow 3901   5.179   4.574   1.484  0.1234 -0.4038 -0.5053
  976SOL     hw 3902   5.111   4.549   1.421  0.5260 -0.4015 -0.9465
  976SOL     hw 3903   5.227   4.644   1.440  0.3211 -0.3037 -0.1333
  976SOL     vw 3904   5.177   4.580   1.470  0.2027 -0.3903 -0.5144
  977SOL     ow 3905   5.484   6.273   4.420 -0.7515  0.3615 -0.1091
  977SOL     hw 3906   5.429   6.348   4.445 -0.0544  0.3770  1.4873
  977SOL     hw 3907   5.574   6.303   4.433 -0.4285 -1.4300  3.0757
  977SOL     vw 3908   5.488   6.287   4.425 -0.6168  0.1273  0.5214
  978SOL     ow 3909   5.014   4.677   1.685 -0.2994  0.3775 -0.2036
  978SOL     hw 3910   5.015   4.631   1.769  1.5206 -1.2172 -1.0044
  978SOL     hw 3911   5.073   4.625   1.629 -0.2596  2.2369 -2.0042
  978SOL     vw 3912   5.022   4.664   1.689 -0.0541  0.4125 -0.5469
  979SOL     ow 3913   7.014   5.632   6.305 -0.1823  0.1083  0.0535
  979SOL     hw 3914   7.046   5.580   6.232 -0.0473 -1.2959  1.0671
  979SOL     hw 3915   7.050   5.720   6.291  1.7808 -0.7197 -0.3229
  979SOL     vw 3916   7.023   5.637   6.294  0.0945 -0.1862  0.1378
  980SOL     ow 3917   1.641   5.485   0.284  0.2619 -0.6067 -0.3782
  980SOL     hw 3918   1.596   5.409   0.247 -0.0631 -0.6436  0.0785
  980SOL     hw 3919   1.653   5.545   0.211 -1.0523 -0.3408 -0.4015
  980SOL     vw 3920   1.637   5.483   0.270  0.0455 -0.5765 -0.3210
  981SOL     ow 3921   0.105   1.795   6.231  0.1611  0.0406  0.6471
  981SOL     hw 3922   0.197   1.817   6.247  0.3612 -0.6506  0.4689
  981SOL     hw 3923   0.103   1.699   6.231 -0.7291  0.0382  1.6340
  981SOL     vw 3924   0.117   1.785   6.233  0.0700 -0.0509  0.7539
  982SOL     ow 3925   6.484   2.036   4.147 -0.3783 -0.2164 -0.1384
  982SOL     hw 3926   6.460   1.980   4.073 -0.2192 -1.7722  0.9376
  982SOL     hw 3927   6.521   2.114   4.107  0.6865 -1.4581 -1.7059
  982SOL     vw 3928   6.486   2.039   4.132 -0.2167 -0.5856 -0.2034
  983SOL     ow 3929   4.195   2.832   6.620  0.4934  0.7534 -0.2288
  983SOL     hw 3930   4.224   2.744   6.643 -0.2184  0.7186  0.5778
  983SOL     hw 3931   4.230   2.847   6.532 -0.1268 -0.6863 -0.7495
  983SOL     vw 3932   4.203   2.822   6.611  0.3176  0.5589 -0.1910
  984SOL     ow 3933   4.204   5.057   0.687  0.2185 -0.2556  0.2728
  984SOL     hw 3934   4.188   5.010   0.769 -0.2405  0.5974  0.6926
  984SOL     hw 3935   4.184   5.148   0.708  1.2213  0.1541 -0.4782
  984SOL     vw 3936   4.199   5.063   0.701  0.2902 -0.0887  0.2291
  985SOL     ow 3937   6.092   3.696   6.419 -0.2815 -0.4234 -0.3095
  985SOL     hw 3938   6.109   3.709   6.325 -0.6299  0.3761 -0.2642
  985SOL     hw 3939   6.020   3.756   6.439  2.0245  2.0559  1.2326
  985SOL     vw 3940   6.085   3.706   6.409 -0.0234  0.0092 -0.0999
  986SOL     ow 3941   5.148   1.332   3.674  0.0914 -0.1705 -0.0491
  986SOL     hw 3942   5.234   1.311   3.709  0.8650  1.3772 -0.9353
  986SOL     hw 3943   5.100   1.249   3.678  2.0153 -1.3878 -0.6758
  986SOL     vw 3944   5.153   1.318   3.679  0.4473 -0.1268 -0.2486
  987SOL     ow 3945   4.984   5.395   6.559 -0.1597 -0.5657 -0.5378
  987SOL     hw 3946   4.999   5.488   6.578  0.7826 -0.6792 -0.6561
  987SOL     hw 3947   4.894   5.391   6.527 -0.4418  0.2042  0.1254
  987SOL     vw 3948   4.974   5.407   6.557 -0.0727 -0.4790 -0.4663
  988SOL     ow 3949   2.404   2.530   0.043  0.2015  0.5069 -0.0961
  988SOL     hw 3950   2.320   2.527  -0.002 -0.2080 -2.0423  0.6794
  988SOL     hw 3951   2.455   2.459   0.004  0.0937 -1.3225  2.7692
  988SOL     vw 3952   2.399   2.520   0.032  0.1333 -0.0707  0.3842
  989SOL     ow 3953   2.916   0.063   6.493 -0.3221  0.2543 -0.5719
  989SOL     hw 3954   2.985   0.018   6.541  0.4634 -0.2023 -2.0685
  989SOL     hw 3955   2.929   0.156   6.512 -0.3795  0.0496  0.5136
  989SOL     vw 3956   2.927   0.069   6.501 -0.2261  0.1670 -0.6261
  990SOL     ow 3957   4.753   1.263   0.951  0.2848  0.1403 -0.1344
  990SOL     hw 3958   4.757   1.313   0.870  1.0444 -0.0874 -0.2402
  990SOL     hw 3959   4.728   1.328   1.018 -0.8874  0.2222 -0.6203
  990SOL     vw 3960   4.750   1.278   0.949  0.2306  0.1211 -0.2125
  991SOL     ow 3961   6.067   0.921   1.463 -0.3872  0.2769 -0.5747
  991SOL     hw 3962   6.071   0.847   1.402  1.5674  1.3460 -1.8487
  991SOL     hw 3963   6.047   0.997   1.407 -0.6098  0.9794  0.4425
  991SOL     vw 3964   6.065   0.921   1.447 -0.1588  0.5107 -0.6086
  992SOL     ow 3965   5.065   0.126   3.617 -0.0811 -0.2756 -0.6547
  992SOL     hw 3966   5.002   0.074   3.567 -0.4499 -1.2838  0.8061
  992SOL     hw 3967   5.100   0.189   3.554 -1.3138 -0.8023 -1.8997
  992SOL     vw 3968   5.061   0.128   3.602 -0.2923 -0.4781 -0.6263
  993SOL     ow 3969   0.460   6.516   4.363  0.1745  0.1110 -0.1874
  993SOL     hw 3970   0.482   6.580   4.430 -0.0607  1.3605 -1.2589
  993SOL     hw 3971   0.366   6.529   4.347  0.1750 -0.3319 -0.5890
  993SOL     vw 3972   0.450   6.526   4.369  0.1436  0.2172 -0.3819
  994SOL     ow 3973   3.888   5.721   5.977  0.4966  0.5180  0.5109
  994SOL     hw 3974   3.859   5.735   6.067 -0.5430  1.4354  0.0490
  994SOL     hw 3975   3.924   5.805   5.950  0.7157  0.2729  0.0329
  994SOL     vw 3976   3.889   5.734   5.986  0.3884  0.6068  0.3870
  995SOL     ow 3977   2.134   5.395   4.289 -0.0903  0.3397 -0.0349
  995SOL     hw 3978   2.084   5.327   4.245 -0.7311  0.9617 -0.2914
  995SOL     hw 3979   2.199   5.348   4.341 -0.8274 -0.4812  0.1655
  995SOL     vw 3980   2.136   5.380   4.290 -0.2719  0.3135 -0.0424
  996SOL     ow 3981   5.706   3.710   1.775 -0.0117  0.3792  0.1593
  996SOL     hw 3982   5.726   3.795   1.735  1.5492  0.2118  0.5226
  996SOL     hw 3983   5.672   3.657   1.703 -0.0293  0.9992 -0.2993
  996SOL     vw 3984   5.704   3.714   1.760  0.1919  0.4389  0.1468
  997SOL     ow 3985   2.251   0.436   6.883 -0.4856 -0.0274 -0.1083
  997SOL     hw 3986   2.235   0.429   6.977  0.8815 -2.1989  0.0352
  997SOL     hw 3987   2.303   0.516   6.873 -1.0582  0.4818  0.9066
  997SOL     vw 3988   2.256   0.446   6.894 -0.3809 -0.2467  0.0446
  998SOL     ow 3989   1.959   3.330   6.177 -0.0811 -0.1510 -1.3175
  998SOL     hw 3990   1.986   3.317   6.268 -1.0813 -0.4631 -1.0461
  998SOL     hw 3991   2.007   3.407   6.148 -0.3571  0.4346 -0.2595
  998SOL     vw 3992   1.969   3.338   6.185 -0.2495 -0.1148 -1.1423
  999SOL     ow 3993   1.944   6.653   1.568 -0.2775  0.2910 -0.4194
  999SOL     hw 3994   1.977   6.724   1.624  2.3314 -0.6998 -0.5607
  999SOL     hw 3995   1.907   6.698   1.492 -1.4368  1.5636  0.8573
  999SOL     vw 3996   1.944   6.668   1.565 -0.0862  0.3281 -0.2696
 1000SOL     ow 3997   1.376   1.347   2.686  0.2323  0.1302 -0.5362
 1000SOL     hw 3998   1.317   1.407   2.640  1.6013  1.3860 -0.7267
 1000SOL     hw 3999   1.384   1.383   2.774 -2.1408 -2.1039  0.7154
 1000SOL     vw 4000   1.369   1.360   2.691  0.0999  0.0011 -0.3963
 1001SOL     ow 4001   4.107   0.395   0.319 -0.1474 -0.3279  0.1397
 1001SOL     hw 4002   4.155   0.468   0.358 -0.6435  1.0091 -1.6295
 1001SOL     hw 4003   4.174   0.336   0.286  0.2569 -0.5699  1.3570
 1001SOL     vw 4004   4.122   0.396   0.320 -0.1593 -0.1834  0.0669
 1002SOL     ow 4005   0.800   4.495   6.311 -0.4285  0.3416  0.2931
 1002SOL     hw 4006   0.768   4.526   6.226 -0.3995  0.3260  0.2762
 1002SOL     hw 4007   0.791   4.400   6.307  2.4602  0.0038 -0.9294
 1002SOL     vw 4008   0.795   4.487   6.299 -0.0436  0.2949  0.1295
 1003SOL     ow 4009   6.055   6.068   5.986 -0.0777  0.6403 -0.0971
 1003SOL     hw 4010   6.054   5.973   5.992 -0.3781  0.5591 -1.1227
 1003SOL     hw 4011   5.962   6.093   5.984 -0.0044  1.0203  0.9153
 1003SOL     vw 4012   6.042   6.059   5.986 -0.1075  0.6797 -0.0989
 1004SOL     ow 4013   3.638   6.052   1.704 -0.0205 -0.3600  0.7490
 1004SOL     hw 4014   3.729   6.068   1.731 -0.4496  1.1683  1.3667
 1004SOL     hw 4015   3.643   6.045   1.608  0.7232  0.0040  0.7512
 1004SOL     vw 4016   3.651   6.053   1.695  0.0210 -0.1104  0.8308
 1005SOL     ow 4017   6.765   3.777   6.768 -0.1832 -0.1206 -0.5508
 1005SOL     hw 4018   6.742   3.684   6.779 -1.0839  0.2190  0.6378
 1005SOL     hw 4019   6.830   3.777   6.698  1.6039 -1.9300  0.9700
 1005SOL     vw 4020   6.771   3.765   6.760 -0.0663 -0.3145 -0.1934
 1006SOL     ow 4021   1.923   3.279   5.891 -0.4204 -0.1624  0.8271
 1006SOL     hw 4022   1.874   3.345   5.843 -0.3688 -0.8905 -0.2895
 1006SOL     hw 4023   1.974   3.234   5.823  3.2021  1.6927  2.0862
 1006SOL     vw 4024   1.923   3.281   5.876  0.0644 -0.0137  0.8459
 1007SOL     ow 4025   2.966   3.530   3.121 -0.4308  0.0538  0.1192
 1007SOL     hw 4026   3.044   3.475   3.127 -0.6995 -0.9666 -3.5510
 1007SOL     hw 4027   2.961   3.572   3.207  3.7960 -0.2592  0.7700
 1007SOL     vw 4028   2.976   3.528   3.133  0.0914 -0.1221 -0.2792
 1008SOL     ow 4029   4.739   5.094   3.451  0.0425 -0.4392  0.0162
 1008SOL     hw 4030   4.801   5.073   3.521  0.9077  0.2420 -0.5317
 1008SOL     hw 4031   4.779   5.167   3.404 -0.6539 -0.6994 -1.0221
 1008SOL     vw 4032   4.752   5.101   3.454  0.0646 -0.3836 -0.1931
 1009SOL     ow 4033   3.849   5.580   5.659  0.1483 -0.2050 -0.5310
 1009SOL     hw 4034   3.938   5.613   5.650  0.5060 -1.1926 -0.7868
 1009SOL     hw 4035   3.847   5.503   5.602 -0.6300 -0.6474  0.0815
 1009SOL     vw 4036   3.861   5.574   5.650  0.0927 -0.3939 -0.4838
 1010SOL     ow 4037   2.964   3.400   4.624  0.0627 -0.4811 -0.7219
 1010SOL     hw 4038   3.029   3.410   4.554 -1.4923 -0.7683 -2.2924
 1010SOL     hw 4039   3.003   3.336   4.684  1.4954 -0.1394 -1.2344
 1010SOL     vw 4040   2.978   3.393   4.622  0.0464 -0.4739 -0.9966
 1011SOL     ow 4041   6.550   1.896   4.459 -0.1476  1.1048  0.3529
 1011SOL     hw 4042   6.567   1.808   4.493  0.7303  0.4684 -1.5607
 1011SOL     hw 4043   6.456   1.909   4.469 -0.7084 -1.0373 -1.3997
 1011SOL     vw 4044   6.540   1.886   4.465 -0.1056  0.7381 -0.1309
 1012SOL     ow 4045   3.129   0.702   5.912  0.4875  0.9215 -0.0357
 1012SOL     hw 4046   3.136   0.607   5.916 -2.3585  0.4634 -2.0500
 1012SOL     hw 4047   3.217   0.732   5.891  1.2932 -1.3535 -0.1669
 1012SOL     vw 4048   3.142   0.694   5.909  0.2183  0.5609 -0.3188
 1013SOL     ow 4049   1.434   6.271   3.349 -0.2547 -0.2872  0.3967
 1013SOL     hw 4050   1.370   6.201   3.334  0.5590 -0.8351 -0.7458
 1013SOL     hw 4051   1.410   6.309   3.433 -1.6543 -0.9271  0.3104
 1013SOL     vw 4052   1.423   6.267   3.358 -0.3320 -0.4437  0.2346
 1014SOL     ow 4053   2.718   5.920   1.580 -0.1215 -0.2021  0.5491
 1014SOL     hw 4054   2.795   5.967   1.549 -0.3669  0.9752  1.6480
 1014SOL     hw 4055   2.727   5.832   1.543  0.1131  0.7854 -1.9742
 1014SOL     vw 4056   2.729   5.914   1.571 -0.1229  0.0837  0.3610
 1015SOL     ow 4057   3.051   0.666   2.508  0.2851 -0.0057 -0.0459
 1015SOL     hw 4058   3.029   0.622   2.426 -0.9337 -1.5639  1.0506
 1015SOL     hw 4059   3.099   0.600   2.558  3.1987  1.6923 -0.3642
 1015SOL     vw 4060   3.054   0.652   2.504  0.5087  0.0127  0.0569
 1016SOL     ow 4061   0.104   6.710   5.773 -0.3749  0.3982 -0.3155
 1016SOL     hw 4062   0.108   6.616   5.755  1.4937  0.5811 -1.0825
 1016SOL     hw 4063   0.178   6.726   5.832 -0.4042  1.4699 -0.5514
 1016SOL     vw 4064   0.115   6.700   5.779 -0.1322  0.5636 -0.4480
 1017SOL     ow 4065   2.813   1.631   2.664  0.3050  0.1684 -0.6303
 1017SOL     hw 4066   2.793   1.719   2.698 -0.9984  1.3299 -4.0179
 1017SOL     hw 4067   2.893   1.643   2.612  2.1556 -1.5278  1.5580
 1017SOL     vw 4068   2.821   1.644   2.662  0.3773  0.0978 -0.7886
 1018SOL     ow 4069   0.989   6.063   2.122 -0.1878 -0.4016  0.4134
 1018SOL     hw 4070   0.989   6.113   2.204 -1.5953  1.0120 -0.3980
 1018SOL     hw 4071   1.069   6.090   2.077  1.8592 -2.9053  2.2118
 1018SOL     vw 4072   0.999   6.073   2.127 -0.1034 -0.5455  0.5437
 1019SOL     ow 4073   0.378   0.242   5.573  0.0480 -0.0911  0.1710
 1019SOL     hw 4074   0.444   0.175   5.557 -3.2401 -3.6471 -0.0073
 1019SOL     hw 4075   0.347   0.224   5.662 -1.5948  0.5189 -0.2451
 1019SOL     vw 4076   0.382   0.231   5.582 -0.6026 -0.4798  0.0927
 1020SOL     ow 4077   5.291   3.002   4.812  0.2723 -0.0157  0.6492
 1020SOL     hw 4078   5.248   3.087   4.800  1.6664  0.5607 -0.5821
 1020SOL     hw 4079   5.247   2.944   4.749 -0.3641 -0.1160  1.1671
 1020SOL     vw 4080   5.279   3.005   4.802  0.3722  0.0472  0.5553
 1021SOL     ow 4081   5.632   0.429   0.833 -0.2216 -0.2053 -0.5579
 1021SOL     hw 4082   5.561   0.391   0.885 -1.3571  1.5643 -0.7591
 1021SOL     hw 4083   5.598   0.513   0.803  1.7742  0.4557 -1.1111
 1021SOL     vw 4084   5.618   0.435   0.836 -0.1080  0.1154 -0.6574
 1022SOL     ow 4085   6.687   2.416   6.707 -0.7415 -0.3532  0.0076
 1022SOL     hw 4086   6.650   2.361   6.638 -0.2070 -2.7134  1.5047
 1022SOL     hw 4087   6.750   2.360   6.752  1.5482  2.1830  0.2570
 1022SOL     vw 4088   6.691   2.401   6.704 -0.3686 -0.3301  0.2382
 1023SOL     ow 4089   5.705   3.803   3.595 -1.0615  0.6026  0.2721
 1023SOL     hw 4090   5.700   3.829   3.503 -0.7981  0.1928  0.1363
 1023SOL     hw 4091   5.769   3.731   3.596  1.6942  2.8598  1.2512
 1023SOL     vw 4092   5.713   3.797   3.583 -0.6630  0.8464  0.3835
 1024SOL     ow 4093   1.691   3.239   6.062  0.1994 -0.3949 -0.0248
 1024SOL     hw 4094   1.678   3.239   6.157  1.8359  1.5121  0.2608
 1024SOL     hw 4095   1.643   3.316   6.032 -0.5506 -1.1532 -0.8117
 1024SOL     vw 4096   1.683   3.249   6.071  0.3164 -0.2434 -0.0911
 1025SOL     ow 4097   0.176   5.552   4.686  0.3895 -0.1344 -0.0304
 1025SOL     hw 4098   0.180   5.548   4.781 -1.8629 -1.4008  0.0753
 1025SOL     hw 4099   0.251   5.501   4.656  0.1806 -1.1341  1.0889
 1025SOL     vw 4100   0.186   5.545   4.695  0.0647 -0.4332  0.1314
 1026SOL     ow 4101   6.113   3.978   6.771  0.1801  0.2872 -0.4365
 1026SOL     hw 4102   6.134   3.970   6.864  1.2678 -1.6299 -0.7872
 1026SOL     hw 4103   6.017   3.968   6.767  0.3543 -3.1176  0.2899
 1026SOL     vw 4104   6.103   3.975   6.783  0.3467 -0.4150 -0.3870
 1027SOL     ow 4105   0.228   4.867   0.684 -0.2228 -0.5310 -1.3660
 1027SOL     hw 4106   0.323   4.871   0.674  0.1485  1.0970  1.6759
 1027SOL     hw 4107   0.199   4.958   0.677 -1.0775 -0.5739  0.8850
 1027SOL     vw 4108   0.237   4.879   0.682 -0.2866 -0.3216 -0.6677
 1028SOL     ow 4109   6.813   0.952   5.934  0.5022 -0.0307  0.0197
 1028SOL     hw 4110   6.821   0.943   5.839  1.5732  0.7272  0.0263
 1028SOL     hw 4111   6.720   0.971   5.949  0.2584 -0.5278 -0.8351
 1028SOL     vw 4112   6.802   0.953   5.924  0.6115  0.0038 -0.0923
 1029SOL     ow 4113   0.195   6.623   3.584 -0.2108 -0.1376 -0.1390
 1029SOL     hw 4114   0.250   6.701   3.591  1.5609 -1.4809  4.1804
 1029SOL     hw 4115   0.106   6.655   3.595  0.5226  1.3260  2.1347
 1029SOL     vw 4116   0.191   6.637   3.586  0.1197 -0.1216  0.7310
 1030SOL     ow 4117   4.609   2.566   3.453 -0.1961 -0.3632  0.8491
 1030SOL     hw 4118   4.534   2.510   3.476 -0.0436 -1.0219 -0.1509
 1030SOL     hw 4119   4.583   2.653   3.481 -1.2415 -0.6269  0.7698
 1030SOL     vw 4120   4.596   2.570   3.460 -0.3140 -0.4849  0.7067
 1031SOL     ow 4121   4.373   0.607   4.202 -0.0662 -0.0174 -0.2472
 1031SOL     hw 4122   4.389   0.698   4.179 -1.6512  0.4728  0.4396
 1031SOL     hw 4123   4.398   0.601   4.294 -1.9675  0.3235  0.3397
 1031SOL     vw 4124   4.379   0.618   4.211 -0.5262  0.0922 -0.0794
 1032SOL     ow 4125   2.763   0.339   1.773  0.0619  0.6740  0.1561
 1032SOL     hw 4126   2.825   0.326   1.701  0.8143  1.3610  0.6684
 1032SOL     hw 4127   2.715   0.418   1.750 -1.6032 -0.5706 -0.8990
 1032SOL     vw 4128   2.765   0.347   1.760 -0.0585  0.6004  0.0844
 1033SOL     ow 4129   2.494   2.126   5.227  0.7926  0.4941  0.1429
 1033SOL     hw 4130   2.464   2.114   5.318  0.8370  2.2432  0.4119
 1033SOL     hw 4131   2.413   2.141   5.178  0.7836 -0.2905 -0.0943
 1033SOL     vw 4132   2.479   2.126   5.233  0.7973  0.6213  0.1469
 1034SOL     ow 4133   4.737   1.438   2.442  0.4807  0.0309 -0.3989
 1034SOL     hw 4134   4.722   1.532   2.456 -0.3458 -0.4961  2.9963
 1034SOL     hw 4135   4.832   1.430   2.430  0.3611  1.4431 -2.8848
 1034SOL     vw 4136   4.748   1.449   2.442  0.3560  0.1476 -0.2788
 1035SOL     ow 4137   5.232   2.924   2.583 -0.6688  0.4217  0.4400
 1035SOL     hw 4138   5.306   2.947   2.526 -0.0412 -0.0317  1.0622
 1035SOL     hw 4139   5.262   2.848   2.633 -1.8173 -0.2156  0.1979
 1035SOL     vw 4140   5.245   2.917   2.582 -0.7377  0.2779  0.4902
 1036SOL     ow 4141   1.687   2.428   0.409 -0.2775  0.6216 -0.3494
 1036SOL     hw 4142   1.657   2.377   0.484 -1.6269  1.1005 -0.5368
 1036SOL     hw 4143   1.703   2.516   0.445  1.7299  0.2056 -0.0927
 1036SOL     vw 4144   1.686   2.433   0.424 -0.1907  0.6299 -0.3402
 1037SOL     ow 4145   4.456   5.281   4.094  0.4900 -0.0398  0.3255
 1037SOL     hw 4146   4.534   5.249   4.139  0.5391  2.6187  2.3206
 1037SOL     hw 4147   4.489   5.348   4.034 -0.3216  2.8258  2.8727
 1037SOL     vw 4148   4.470   5.285   4.092  0.3896  0.6890  0.9248
 1038SOL     ow 4149   0.417   0.297   5.278  0.7152  0.1711 -0.1581
 1038SOL     hw 4150   0.336   0.258   5.245  1.7271  0.6651 -3.6542
 1038SOL     hw 4151   0.438   0.366   5.215  2.4995  1.8660  2.1199
 1038SOL     vw 4152   0.409   0.301   5.265  1.0841  0.4599 -0.3188
 1039SOL     ow 4153   2.254   0.720   6.064  0.2633 -0.3598 -0.3378
 1039SOL     hw 4154   2.342   0.755   6.047  1.2705 -2.7203 -0.4472
 1039SOL     hw 4155   2.222   0.772   6.138  2.0988  0.0766  0.2270
 1039SOL     vw 4156   2.262   0.732   6.072  0.6381 -0.6137 -0.2778
 1040SOL     ow 4157   6.018   1.987   5.076 -0.2164 -0.0032 -0.3591
 1040SOL     hw 4158   6.015   1.918   5.142  0.3532 -0.3296 -0.6683
 1040SOL     hw 4159   6.104   1.977   5.035  0.5851  1.9381  0.7299
 1040SOL     vw 4160   6.029   1.977   5.079 -0.0355  0.2099 -0.2561
 1041SOL     ow 4161   5.297   5.806   1.866  0.0342 -0.2715 -0.0256
 1041SOL     hw 4162   5.370   5.866   1.874 -0.4478  0.0565  2.8569
 1041SOL     hw 4163   5.330   5.722   1.899 -0.6606 -0.3098  0.6037
 1041SOL     vw 4164   5.311   5.803   1.871 -0.1211 -0.2334  0.4377
 1042SOL     ow 4165   4.528   0.674   0.823  0.7809 -0.1345  0.2769
 1042SOL     hw 4166   4.458   0.678   0.758  0.0132  3.3775  1.1247
 1042SOL     hw 4167   4.488   0.632   0.899 -1.1833  3.2918  1.3607
 1042SOL     vw 4168   4.513   0.669   0.824  0.4203  0.7809  0.5318
 1043SOL     ow 4169   3.933   3.860   5.014 -1.3096  0.3159  0.6997
 1043SOL     hw 4170   3.939   3.891   5.104 -2.6929 -1.0862  1.3213
 1043SOL     hw 4171   4.022   3.871   4.979 -0.8797  1.3655  2.0562
 1043SOL     vw 4172   3.946   3.865   5.021 -1.4354  0.2693  0.9603
 1044SOL     ow 4173   1.188   6.998   1.734  0.4650 -0.5395 -0.0076
 1044SOL     hw 4174   1.209   6.918   1.687 -0.6372 -1.0156  0.2680
 1044SOL     hw 4175   1.128   6.970   1.803  0.4770  0.4472  0.4235
 1044SOL     vw 4176   1.183   6.984   1.737  0.3211 -0.4721  0.0856
 1045SOL     ow 4177   4.059   2.308   0.414  0.2315  0.2250 -0.1869
 1045SOL     hw 4178   3.981   2.306   0.359  1.1222 -1.3516 -1.4938
 1045SOL     hw 4179   4.025   2.313   0.503 -1.2431  3.2915 -0.7969
 1045SOL     vw 4180   4.045   2.308   0.419  0.1543  0.4216 -0.4398
 1046SOL     ow 4181   2.215   5.866   5.190  0.6189 -0.2650 -0.1264
 1046SOL     hw 4182   2.191   5.795   5.130  1.1318  0.3688 -1.1216
 1046SOL     hw 4183   2.273   5.922   5.138  1.1416  0.2747  1.0024
 1046SOL     vw 4184   2.220   5.864   5.175  0.7557 -0.1101 -0.1087
 1047SOL     ow 4185   2.814   0.648   2.695 -0.6885 -0.3975 -0.6322
 1047SOL     hw 4186   2.773   0.587   2.633 -3.1314 -0.3938  0.8254
 1047SOL     hw 4187   2.804   0.606   2.780  0.3803  0.6755  0.0473
 1047SOL     vw 4188   2.807   0.634   2.698 -0.8696 -0.2554 -0.3504
 1048SOL     ow 4189   3.507   3.114   5.804 -0.1952  0.4242  0.1512
 1048SOL     hw 4190   3.555   3.064   5.869 -1.4022  1.0740  1.5896
 1048SOL     hw 4191   3.513   3.205   5.834 -1.7280  0.5993  0.0218
 1048SOL     vw 4192   3.514   3.119   5.816 -0.5567  0.5331  0.3238
 1049SOL     ow 4193   6.154   2.581   5.194  0.2845 -0.7150 -0.2055
 1049SOL     hw 4194   6.096   2.544   5.260 -0.1757 -0.9219 -0.7257
 1049SOL     hw 4195   6.200   2.652   5.240 -0.3592 -0.5622  0.2131
 1049SOL     vw 4196   6.153   2.586   5.209  0.1388 -0.7222 -0.2191
 1050SOL     ow 4197   0.428   1.089   4.231  0.4302  0.6666  0.3574
 1050SOL     hw 4198   0.468   1.160   4.281  0.2859 -1.1508  3.2690
 1050SOL     hw 4199   0.502   1.039   4.196  0.5297  1.6271 -0.8948
 1050SOL     vw 4200   0.443   1.092   4.233  0.4243  0.5536  0.5763
 1051SOL     ow 4201   0.028   1.748   6.725  0.4237  0.5238  0.5771
 1051SOL     hw 4202  -0.032   1.680   6.758 -0.3615  0.9967  0.1702
 1051SOL     hw 4203   0.092   1.760   6.795  0.0140  0.0364  1.0462
 1051SOL     vw 4204   0.028   1.740   6.738  0.2660  0.5218  0.5853
 1052SOL     ow 4205   1.994   4.117   4.364  0.5270  0.0431  0.1744
 1052SOL     hw 4206   1.942   4.195   4.383 -0.5691 -0.3621 -0.9773
 1052SOL     hw 4207   1.932   4.045   4.369  1.8412 -1.0191  2.8195
 1052SOL     vw 4208   1.979   4.118   4.367  0.5557 -0.1507  0.3715
 1053SOL     ow 4209   6.833   5.712   3.556  0.4065 -0.5144 -0.1418
 1053SOL     hw 4210   6.827   5.673   3.468 -1.9153  1.4549 -0.9853
 1053SOL     hw 4211   6.927   5.717   3.574  0.9320 -1.3276 -2.3467
 1053SOL     vw 4212   6.844   5.708   3.547  0.1695 -0.3619 -0.5440
 1054SOL     ow 4213   2.487   5.149   0.195 -0.1112  0.5778  0.0450
 1054SOL     hw 4214   2.466   5.129   0.286  1.7656  0.5894  0.5312
 1054SOL     hw 4215   2.413   5.201   0.164  0.0175  2.1690  2.1450
 1054SOL     vw 4216   2.475   5.154   0.203  0.1534  0.7894  0.3862
 1055SOL     ow 4217   2.168   6.789   1.017  0.7436  0.8845 -0.0901
 1055SOL     hw 4218   2.090   6.838   1.042  1.5488  1.8675  0.6022
 1055SOL     hw 4219   2.174   6.718   1.080  0.0535  0.4101 -0.5506
 1055SOL     vw 4220   2.159   6.786   1.028  0.7589  0.9518 -0.0595
 1056SOL     ow 4221   6.028   6.641   6.929 -0.6177  0.5135 -0.5511
 1056SOL     hw 4222   5.942   6.598   6.924 -0.3982  0.0808 -0.6322
 1056SOL     hw 4223   6.039   6.660   7.022  0.9895 -3.1870  0.1921
 1056SOL     vw 4224   6.018   6.638   6.941 -0.3767 -0.0317 -0.4637
 1057SOL     ow 4225   6.685   3.097   6.132  0.4100 -0.4887 -0.5028
 1057SOL     hw 4226   6.590   3.107   6.134  0.2873 -1.6298 -0.0383
 1057SOL     hw 4227   6.699   3.007   6.101  1.2758 -1.1416  1.5874
 1057SOL     vw 4228   6.674   3.086   6.128  0.5081 -0.7254 -0.1657
 1058SOL     ow 4229   2.370   5.486   6.177 -0.6427  0.5556  0.1992
 1058SOL     hw 4230   2.275   5.488   6.174 -0.6274  0.2265 -0.7251
 1058SOL     hw 4231   2.397   5.563   6.126 -0.4161  0.1453 -0.3116
 1058SOL     vw 4232   2.361   5.496   6.170 -0.6107  0.4580  0.0098
 1059SOL     ow 4233   4.423   3.292   3.000  0.4520 -1.4134  0.7458
 1059SOL     hw 4234   4.498   3.288   2.940 -0.2159  0.5529 -0.3070
 1059SOL     hw 4235   4.349   3.258   2.949  0.0408 -0.4893  0.7091
 1059SOL     vw 4236   4.423   3.287   2.986  0.3095 -1.0321  0.6020
 1060SOL     ow 4237   6.139   4.121   3.789 -0.5401  0.1827  0.3140
 1060SOL     hw 4238   6.173   4.194   3.841 -0.3807  0.0214  0.4347
 1060SOL     hw 4239   6.136   4.047   3.849 -0.3474 -0.0079  0.0917
 1060SOL     vw 4240   6.143   4.121   3.804 -0.4938  0.1361  0.3006
 1061SOL     ow 4241   2.926   3.922   2.567 -0.1624  0.9016 -0.2891
 1061SOL     hw 4242   3.002   3.873   2.596 -0.2785  0.5929 -0.4938
 1061SOL     hw 4243   2.960   3.980   2.498  0.0853  1.5375  0.3617
 1061SOL     vw 4244   2.940   3.923   2.562 -0.1450  0.9449 -0.2302
 1062SOL     ow 4245   4.662   2.642   1.247  0.0500  0.3550  0.2185
 1062SOL     hw 4246   4.680   2.646   1.341  0.6841  1.6894  0.0652
 1062SOL     hw 4247   4.624   2.727   1.226  2.2534  1.0914 -1.1647
 1062SOL     vw 4248   4.660   2.654   1.256  0.4241  0.6282  0.0158
 1063SOL     ow 4249   0.305   0.721   0.636 -0.2784 -0.2909  0.6147
 1063SOL     hw 4250   0.273   0.803   0.600 -0.4445 -1.2927 -1.6769
 1063SOL     hw 4251   0.305   0.660   0.562  4.1467 -1.1819  1.0166
 1063SOL     vw 4252   0.301   0.723   0.622  0.2835 -0.5406  0.3654
 1064SOL     ow 4253   6.705   2.909   3.214 -0.0413  0.2593 -0.2394
 1064SOL     hw 4254   6.768   2.902   3.143  0.7841 -1.1673  0.5857
 1064SOL     hw 4255   6.748   2.867   3.289 -0.8702  1.7127  1.1286
 1064SOL     vw 4256   6.719   2.903   3.215 -0.0420  0.2629  0.0499
 1065SOL     ow 4257   1.870   5.939   5.292  0.4086 -0.2764 -0.0936
 1065SOL     hw 4258   1.802   6.001   5.318  2.0244  0.3734  3.0734
 1065SOL     hw 4259   1.823   5.856   5.281 -1.2859  0.7509 -1.0584
 1065SOL     vw 4260   1.854   5.936   5.294  0.3982 -0.0551  0.1972
 1066SOL     ow 4261   0.107   0.195   6.642 -0.9808  0.1125 -0.0849
 1066SOL     hw 4262   0.202   0.207   6.644 -0.9505  0.1945  3.2963
 1066SOL     hw 4263   0.079   0.210   6.732 -4.3250  0.7136 -1.0894
 1066SOL     vw 4264   0.116   0.198   6.654 -1.4180  0.2026  0.2284
 1067SOL     ow 4265   3.004   4.978   3.879 -0.0434  0.0328 -0.2528
 1067SOL     hw 4266   3.001   4.999   3.786  0.6282  0.2225 -0.2404
 1067SOL     hw 4267   3.022   5.062   3.922  2.4195 -0.4428 -0.1835
 1067SOL     vw 4268   3.006   4.992   3.873  0.3703 -0.0050 -0.2420
 1068SOL     ow 4269   2.583   2.455   5.216  0.3175 -0.4120 -0.0777
 1068SOL     hw 4270   2.493   2.488   5.207  1.0819  1.4657 -1.4614
 1068SOL     hw 4271   2.631   2.528   5.255  1.1223 -1.6799  1.4169
 1068SOL     vw 4272   2.577   2.469   5.220  0.5246 -0.3316 -0.0632
 1069SOL     ow 4273   2.143   0.710   3.213 -0.1690  0.1546  0.1357
 1069SOL     hw 4274   2.215   0.653   3.241  1.1925  1.4175 -0.6420
 1069SOL     hw 4275   2.066   0.653   3.212  0.8262 -1.2622  0.9151
 1069SOL     vw 4276   2.142   0.695   3.217  0.1421  0.1343  0.1360
 1070SOL     ow 4277   3.330   6.843   5.515  0.3884  0.4433 -0.6135
 1070SOL     hw 4278   3.273   6.890   5.454  1.5510 -0.4881 -2.5017
 1070SOL     hw 4279   3.371   6.775   5.462  0.0677 -1.6383  1.6405
 1070SOL     vw 4280   3.328   6.840   5.500  0.4995  0.0458 -0.5653
 1071SOL     ow 4281   0.414   4.740   5.578 -0.3635  0.3247  0.2144
 1071SOL     hw 4282   0.405   4.650   5.608 -0.4115  0.6924  1.3306
 1071SOL     hw 4283   0.402   4.734   5.483 -0.6524 -0.7979  0.3020
 1071SOL     vw 4284   0.411   4.727   5.569 -0.4079  0.2253  0.3729
 1072SOL     ow 4285   6.529   0.484   3.168  0.5313 -0.0329  0.0104
 1072SOL     hw 4286   6.612   0.436   3.163  1.1084  0.9175  0.1477
 1072SOL     hw 4287   6.529   0.522   3.256 -0.7120 -1.1656  0.5296
 1072SOL     vw 4288   6.540   0.483   3.179  0.4432 -0.0570  0.0970
 1073SOL     ow 4289   2.106   1.386   5.453 -0.3801  0.1455  0.7454
 1073SOL     hw 4290   2.064   1.305   5.481 -2.6099  1.2755  0.9165
 1073SOL     hw 4291   2.097   1.386   5.357 -1.2788  0.6273  0.8224
 1073SOL     vw 4292   2.099   1.376   5.444 -0.7929  0.3582  0.7782
 1074SOL     ow 4293   2.099   4.680   0.996 -0.5691 -0.3425  0.5914
 1074SOL     hw 4294   2.034   4.669   0.927  0.0778 -0.1529 -0.0484
 1074SOL     hw 4295   2.096   4.597   1.045 -0.1033 -0.9808 -0.4488
 1074SOL     vw 4296   2.090   4.668   0.994 -0.4222 -0.4015  0.3698
 1075SOL     ow 4297   2.056   0.559   4.259 -0.2892 -0.3661  0.1867
 1075SOL     hw 4298   2.134   0.611   4.239  1.6464 -1.5244  3.7454
 1075SOL     hw 4299   2.078   0.471   4.229 -0.7922 -0.4451  0.0397
 1075SOL     vw 4300   2.069   0.554   4.253 -0.1001 -0.5294  0.6368
 1076SOL     ow 4301   4.324   2.874   2.292 -0.2839  0.7459  0.4765
 1076SOL     hw 4302   4.336   2.954   2.344 -2.3764  2.6216 -1.7151
 1076SOL     hw 4303   4.369   2.892   2.210 -1.1140 -0.1845 -0.1932
 1076SOL     vw 4304   4.332   2.887   2.288 -0.6695  0.8706  0.0991
 1077SOL     ow 4305   5.718   6.959   3.607  0.4648  0.5416 -0.0994
 1077SOL     hw 4306   5.651   6.894   3.624  1.5987 -1.1444 -1.7418
 1077SOL     hw 4307   5.717   7.015   3.685 -1.9740 -0.1346  0.4455
 1077SOL     vw 4308   5.709   6.958   3.619  0.2928  0.2301 -0.2444
 1078SOL     ow 4309   0.640   2.108   4.183 -0.2299  0.8993 -0.6627
 1078SOL     hw 4310   0.669   2.025   4.145  1.7372  0.3279  1.8069
 1078SOL     hw 4311   0.622   2.087   4.274  0.4650  3.2353  0.0569
 1078SOL     vw 4312   0.641   2.094   4.190  0.1214  1.1321 -0.2420
 1079SOL     ow 4313   4.500   5.908   6.881  0.5493 -0.1594  0.0078
 1079SOL     hw 4314   4.578   5.870   6.920  0.8346  1.5931  1.2351
 1079SOL     hw 4315   4.531   5.985   6.834 -0.1556 -0.7460 -1.4837
 1079SOL     vw 4316   4.514   5.913   6.880  0.4938 -0.0057 -0.0269
 1080SOL     ow 4317   5.701   0.177   0.619  0.0117  0.5100 -0.0616
 1080SOL     hw 4318   5.749   0.128   0.552 -0.3292 -0.7151  0.5536
 1080SOL     hw 4319   5.623   0.210   0.573 -1.2966 -2.0682  0.1158
 1080SOL     vw 4320   5.697   0.175   0.604 -0.2060  0.0082  0.0430
 1081poe    c31 4321   1.542   2.390   3.642  0.6662 -0.2784 -0.2689
 1081poe     o2 4322   1.480   2.342   3.760  0.7946 -0.6068 -0.3334
 1081poe    c23 4323   1.342   2.364   3.742  0.8328  0.0510  0.1310
 1081poe    c23 4324   1.279   2.366   3.882 -0.1690 -0.2688 -0.3067
 1081poe     o2 4325   1.339   2.255   3.945 -0.2460 -0.3850 -0.4387
 1081poe    c23 4326   1.283   2.206   4.064 -0.2167  0.9035  0.1135
 1081poe    c23 4327   1.385   2.096   4.099 -0.3175  0.4582 -0.9822
 1081poe     o2 4328   1.518   2.138   4.076 -0.0923  0.2169 -0.1296
 1081poe    c23 4329   1.580   2.202   4.185 -0.5546  0.3700  0.0443
 1081poe    c23 4330   1.691   2.291   4.126 -0.4527  0.4381  0.3371
 1081poe     o2 4331   1.634   2.342   4.008 -0.3159 -0.1376  0.0181
 1081poe    c31 4332   1.699   2.453   3.951  0.1156 -0.4157 -0.0276
 1082poe    c31 4333   2.493   1.601   1.158 -0.1546  0.0775  0.3566
 1082poe     o2 4334   2.416   1.706   1.105  0.1801  0.3582  0.4277
 1082poe    c23 4335   2.492   1.820   1.071  0.3433  0.1117 -0.0254
 1082poe    c23 4336   2.407   1.933   1.010 -0.2907 -0.1589  0.3532
 1082poe     o2 4337   2.331   1.851   0.923  0.0085  0.1464 -0.2003
 1082poe    c23 4338   2.240   1.915   0.837  0.0942  0.6021  0.0461
 1082poe    c23 4339   2.107   1.920   0.915 -0.0752  0.2256 -0.2188
 1082poe     o2 4340   2.097   1.783   0.947  0.1108  0.4006  0.6125
 1082poe    c23 4341   1.979   1.757   1.020 -0.3995 -0.1250 -0.3685
 1082poe    c23 4342   2.004   1.630   1.103  0.3701 -0.2409 -0.7715
 1082poe     o2 4343   2.138   1.642   1.148  0.2391 -0.2645 -0.3670
 1082poe    c31 4344   2.145   1.664   1.287  0.3672 -0.5707 -0.3258
 1083poe    c31 4345   2.985   5.560   1.583  0.1625 -0.3913  0.1761
 1083poe     o2 4346   3.008   5.426   1.620  0.2092 -0.3626  0.2520
 1083poe    c23 4347   3.148   5.410   1.615  0.2828  0.3351 -0.0308
 1083poe    c23 4348   3.200   5.307   1.717 -0.4175 -0.0900 -0.0963
 1083poe     o2 4349   3.147   5.181   1.684  0.3361 -0.3413 -0.3545
 1083poe    c23 4350   3.209   5.081   1.762  0.2713  0.3802  0.6361
 1083poe    c23 4351   3.097   5.003   1.833  0.0636 -0.0376 -0.1372
 1083poe     o2 4352   3.009   4.974   1.727  0.0808 -0.2015 -0.1075
 1083poe    c23 4353   2.926   4.863   1.752 -0.0401 -0.0982 -0.0491
 1083poe    c23 4354   2.881   4.831   1.608  0.7461  0.2942 -0.3894
 1083poe     o2 4355   2.810   4.943   1.561 -0.6571 -0.5440 -0.3188
 1083poe    c31 4356   2.695   4.906   1.488 -0.8402 -0.0578 -0.2809
 1084poe    c31 4357   6.912   1.986   1.218  0.1342  0.1166  0.0977
 1084poe     o2 4358   6.832   1.897   1.293 -0.2529  0.2285 -0.1811
 1084poe    c23 4359   6.704   1.954   1.310 -0.2526  0.2513 -0.2577
 1084poe    c23 4360   6.650   1.902   1.445 -0.2422  0.1750 -0.2827
 1084poe     o2 4361   6.666   1.762   1.440 -0.3260  0.1684 -0.3759
 1084poe    c23 4362   6.633   1.711   1.566 -0.3955 -0.0713 -0.4911
 1084poe    c23 4363   6.678   1.565   1.587 -0.0399  0.1750  0.5443
 1084poe     o2 4364   6.816   1.556   1.561 -0.1230  0.1348  0.1050
 1084poe    c23 4365   6.848   1.421   1.587 -0.2528  0.0483 -0.1866
 1084poe    c23 4366   6.991   1.375   1.555 -0.0889  0.4602 -0.0494
 1084poe     o2 4367   7.029   1.386   1.420 -0.1527 -0.2714 -0.1311
 1084poe    c31 4368   7.167   1.407   1.403 -0.3279  0.9248 -0.1671
 1085poe    c31 4369   0.651   5.763   6.163 -0.0095 -0.7792 -0.2572
 1085poe     o2 4370   0.725   5.806   6.051  0.0603  0.2413  0.1747
 1085poe    c23 4371   0.722   5.947   6.047  0.3147  0.2477  0.1920
 1085poe    c23 4372   0.801   5.994   5.924  0.0476  0.0004 -0.0772
 1085poe     o2 4373   0.787   5.889   5.831  0.0618  0.0251 -0.1073
 1085poe    c23 4374   0.853   5.927   5.712  0.2759  0.7101  0.2254
 1085poe    c23 4375   0.877   5.807   5.618 -0.2137  0.5692  0.2781
 1085poe     o2 4376   0.925   5.701   5.698 -0.5512  0.1429 -0.0796
 1085poe    c23 4377   0.862   5.578   5.672 -0.4743  0.0485  0.1854
 1085poe    c23 4378   0.889   5.498   5.801 -0.4758 -0.2459  0.0042
 1085poe     o2 4379   0.846   5.581   5.906 -0.6747 -0.2987 -0.0350
 1085poe    c31 4380   0.901   5.531   6.026 -0.3312  0.2615  0.0482
 1086poe    c31 4381   5.715   6.402   6.655  0.2488 -0.2044 -0.1039
 1086poe     o2 4382   5.813   6.482   6.591  0.0316  0.2280  0.0987
 1086poe    c23 4383   5.757   6.598   6.534  0.3074  0.3023 -0.0180
 1086poe    c23 4384   5.870   6.700   6.507  0.2194  0.2397 -0.6225
 1086poe     o2 4385   5.946   6.732   6.621 -0.0921 -0.1929 -0.2928
 1086poe    c23 4386   6.008   6.858   6.610 -0.2854 -0.1028 -0.3581
 1086poe    c23 4387   6.095   6.891   6.732 -0.4126 -0.4679 -0.1679
 1086poe     o2 4388   6.184   6.781   6.741  0.1228 -0.0569 -0.4283
 1086poe    c23 4389   6.293   6.800   6.828 -0.0384  0.5022 -0.3442
 1086poe    c23 4390   6.375   6.670   6.835  0.2269  0.6588 -0.4683
 1086poe     o2 4391   6.277   6.568   6.827  0.8582  0.0630 -0.6499
 1086poe    c31 4392   6.327   6.436   6.834 -0.6383 -0.4934 -0.1668
 1087poe    c31 4393   2.290   6.550   5.238  0.3611 -0.0408 -0.3073
 1087poe     o2 4394   2.232   6.595   5.117 -0.1155  0.6535  0.1701
 1087poe    c23 4395   2.311   6.596   5.000  0.0113  0.4028  0.2519
 1087poe    c23 4396   2.238   6.672   4.888  0.1833 -0.1117 -0.2182
 1087poe     o2 4397   2.114   6.605   4.882 -0.1345  0.4222  0.2301
 1087poe    c23 4398   2.048   6.654   4.767 -0.4158  0.4114  0.3875
 1087poe    c23 4399   1.905   6.600   4.744  0.0720 -0.8530  0.2590
 1087poe     o2 4400   1.820   6.653   4.843 -0.3194 -0.1794 -0.4225
 1087poe    c23 4401   1.693   6.592   4.835 -0.1669 -0.5478 -0.0465
 1087poe    c23 4402   1.608   6.657   4.946 -0.2572 -0.2304 -0.3010
 1087poe     o2 4403   1.673   6.643   5.070 -0.3965 -0.3968 -0.2462
 1087poe    c31 4404   1.623   6.725   5.174  0.5044  0.3003 -0.3472
 1088poe    c31 4405   5.583   1.782   3.934 -0.7680 -0.0914 -0.1735
 1088poe     o2 4406   5.576   1.705   4.052 -0.8417  0.2220  0.0285
 1088poe    c23 4407   5.494   1.591   4.040  0.2098 -0.5714  0.2794
 1088poe    c23 4408   5.485   1.534   4.183 -0.1548 -1.3974 -0.0645
 1088poe     o2 4409   5.619   1.543   4.228 -0.2806 -0.0475  0.0814
 1088poe    c23 4410   5.603   1.465   4.345  0.2641 -0.5176 -0.1531
 1088poe    c23 4411   5.702   1.487   4.461 -0.0770 -0.0099  0.0448
 1088poe     o2 4412   5.831   1.445   4.425 -0.1277 -0.5852  0.5185
 1088poe    c23 4413   5.927   1.475   4.524  0.4196 -0.3024 -0.0961
 1088poe    c23 4414   6.069   1.463   4.464  0.3533 -0.0692 -0.3042
 1088poe     o2 4415   6.118   1.331   4.472  0.5748  0.0404  0.2418
 1088poe    c31 4416   6.074   1.226   4.388 -0.0487 -0.1217  0.7599
 1089poe    c31 4417   4.119   0.426   0.681 -0.1492  0.3843  0.1455
 1089poe     o2 4418   4.094   0.444   0.819  0.1731 -0.2138  0.2845
 1089poe    c23 4419   4.000   0.352   0.870 -0.2254  0.0914  0.1083
 1089poe    c23 4420   3.965   0.384   1.017 -0.4551  0.0565  0.0608
 1089poe     o2 4421   3.890   0.501   1.043 -0.4295 -0.0689  0.7062
 1089poe    c23 4422   3.892   0.539   1.179 -0.3120 -0.4406  0.8099
 1089poe    c23 4423   3.809   0.667   1.198  0.3017 -0.0475  0.8471
 1089poe     o2 4424   3.876   0.772   1.132  0.0062  0.0055  0.6282
 1089poe    c23 4425   3.807   0.894   1.132  0.1901  0.1227 -0.6003
 1089poe    c23 4426   3.852   0.999   1.029  0.4003  0.5131 -0.1175
 1089poe     o2 4427   3.863   0.941   0.901 -0.1476  0.2117 -0.0296
 1089poe    c31 4428   3.804   1.039   0.818 -0.7576 -0.2248 -0.1148
 1090poe    c31 4429   5.654   0.737   6.315 -0.8717  0.1907  0.0471
 1090poe     o2 4430   5.656   0.786   6.182 -0.5571  0.5346  0.1774
 1090poe    c23 4431   5.674   0.926   6.184  0.3682  0.4163  0.3548
 1090poe    c23 4432   5.673   0.980   6.040 -0.3885 -0.2854  0.0879
 1090poe     o2 4433   5.598   0.887   5.966 -0.5084 -0.4009  0.3568
 1090poe    c23 4434   5.528   0.945   5.858 -0.1660 -0.3743  0.1492
 1090poe    c23 4435   5.427   0.841   5.806 -0.6980  0.0694  0.2863
 1090poe     o2 4436   5.506   0.731   5.767 -0.4706  0.3863 -0.1650
 1090poe    c23 4437   5.437   0.611   5.735  0.1747 -0.0289 -0.0181
 1090poe    c23 4438   5.526   0.487   5.719  0.1000 -0.1014  0.1272
 1090poe     o2 4439   5.567   0.444   5.847  0.1542 -0.5009 -0.0236
 1090poe    c31 4440   5.626   0.316   5.845  0.9783 -0.1349  0.2583
 1091poe    c31 4441   3.340   5.667   4.564  0.3255  0.1518  0.1335
 1091poe     o2 4442   3.312   5.698   4.430 -0.2633 -0.4046  0.1222
 1091poe    c23 4443   3.177   5.736   4.419 -0.1956 -0.1129  0.2902
 1091poe    c23 4444   3.137   5.761   4.272  0.2867  0.7207  0.2954
 1091poe     o2 4445   3.220   5.865   4.226  0.4852  0.3012 -0.2949
 1091poe    c23 4446   3.216   5.886   4.087  0.4382 -0.8535 -0.4768
 1091poe    c23 4447   3.310   5.995   4.033 -0.4147 -0.0581 -0.3942
 1091poe     o2 4448   3.303   6.129   4.076 -0.4287  0.1571 -1.0598
 1091poe    c23 4449   3.408   6.210   4.030 -0.0256 -0.0696 -0.5485
 1091poe    c23 4450   3.559   6.184   4.047 -0.0712 -0.1847 -0.3253
 1091poe     o2 4451   3.606   6.216   4.177 -0.1094 -0.4622 -0.2434
 1091poe    c31 4452   3.736   6.162   4.191  0.5150  0.8762 -0.7533
 1092poe    c31 4453   0.205   5.236   3.775 -0.1592  0.1426 -0.0989
 1092poe     o2 4454   0.209   5.161   3.656 -0.2993  0.0908 -0.0707
 1092poe    c23 4455   0.118   5.054   3.670  0.4123 -0.3879  1.0011
 1092poe    c23 4456   0.164   4.955   3.561 -0.3550  0.1143  0.2097
 1092poe     o2 4457   0.171   5.025   3.439 -0.3035 -0.0583  0.1131
 1092poe    c23 4458   0.186   4.930   3.336  0.3280  0.5298 -0.3488
 1092poe    c23 4459   0.182   5.001   3.199  0.5047  0.6519 -0.2909
 1092poe     o2 4460   0.297   5.082   3.186  0.8898  0.1130 -0.2541
 1092poe    c23 4461   0.277   5.176   3.083  0.6572  0.4501  0.0989
 1092poe    c23 4462   0.382   5.285   3.111  0.6757  0.3348  0.4881
 1092poe     o2 4463   0.351   5.367   3.221  0.2672  0.2656  0.4241
 1092poe    c31 4464   0.453   5.463   3.209 -0.0771  0.4688 -1.0352
 1093poe    c31 4465   5.494   5.929   4.196  0.3543  0.2344  0.4777
 1093poe     o2 4466   5.435   5.965   4.319 -0.3959  0.1233  0.1572
 1093poe    c23 4467   5.511   5.895   4.415 -0.2717 -0.4162 -0.3275
 1093poe    c23 4468   5.418   5.882   4.537  0.5167  0.1315  0.3407
 1093poe     o2 4469   5.392   6.019   4.560  0.3624  0.2081 -0.2795
 1093poe    c23 4470   5.307   6.038   4.671  0.1588  0.8160 -0.5394
 1093poe    c23 4471   5.290   6.188   4.705 -0.4856  0.6835 -0.2689
 1093poe     o2 4472   5.259   6.268   4.593  0.1683  0.6085 -0.5102
 1093poe    c23 4473   5.246   6.398   4.646 -0.1779  0.2251  0.3700
 1093poe    c23 4474   5.221   6.500   4.533  0.3398 -0.0206  0.0300
 1093poe     o2 4475   5.332   6.486   4.447 -0.1460 -0.3534 -0.5522
 1093poe    c31 4476   5.331   6.586   4.348 -0.3892 -0.5550 -0.7549
 1094poe    c31 4477   5.844   4.457   6.776  0.0518  0.1390 -0.2059
 1094poe     o2 4478   5.775   4.562   6.712 -0.3668 -0.2522 -0.4009
 1094poe    c23 4479   5.874   4.658   6.682 -0.1264 -0.2738  0.3058
 1094poe    c23 4480   5.790   4.765   6.609 -0.3048 -0.5737  0.0672
 1094poe     o2 4481   5.656   4.774   6.652 -0.2253  0.1178  0.1730
 1094poe    c23 4482   5.588   4.853   6.558  0.0224  0.2570  0.1098
 1094poe    c23 4483   5.471   4.929   6.623 -0.2838 -0.1256  0.0057
 1094poe     o2 4484   5.383   4.831   6.675 -0.4382 -0.1698 -0.3360
 1094poe    c23 4485   5.291   4.910   6.745 -0.0522 -0.0129 -0.0042
 1094poe    c23 4486   5.247   4.837   6.873 -0.2406 -0.0410 -0.0845
 1094poe     o2 4487   5.344   4.811   6.973 -0.1406 -0.0928 -0.1950
 1094poe    c31 4488   5.369   4.914   7.066 -0.0362  0.0960 -0.4331
 1095poe    c31 4489   0.617   4.723   6.133  0.2131  0.0158 -0.1691
 1095poe     o2 4490   0.707   4.618   6.106  0.1492 -0.0144 -0.2642
 1095poe    c23 4491   0.781   4.671   5.998  0.9901  0.7314  0.6565
 1095poe    c23 4492   0.887   4.572   5.947 -0.1017 -0.0934 -0.0631
 1095poe     o2 4493   0.900   4.546   5.809  0.3778  0.0224 -0.0427
 1095poe    c23 4494   0.914   4.413   5.763 -0.2982 -0.1610  0.2677
 1095poe    c23 4495   0.982   4.422   5.625  0.0230  0.7605  0.4791
 1095poe     o2 4496   0.918   4.514   5.539  0.0344  0.4530  0.1409
 1095poe    c23 4497   0.993   4.543   5.423  0.0522 -0.2600 -0.0274
 1095poe    c23 4498   0.887   4.628   5.351  0.2088  0.0210  0.0758
 1095poe     o2 4499   0.831   4.735   5.423  0.0128 -0.2296  0.2947
 1095poe    c31 4500   0.732   4.798   5.345  0.4463  0.1714  0.0680
 1096poe    c31 4501   3.806   6.777   2.495 -0.2965  0.2494  0.0949
 1096poe     o2 4502   3.689   6.835   2.549 -0.3796  0.3106 -0.1494
 1096poe    c23 4503   3.631   6.922   2.455  0.3123  0.6541 -0.2692
 1096poe    c23 4504   3.552   7.030   2.532  0.1128  0.2863  0.0468
 1096poe     o2 4505   3.464   6.946   2.602  0.0492  0.3813  0.0814
 1096poe    c23 4506   3.391   7.024   2.694 -0.2146  0.1310  0.0862
 1096poe    c23 4507   3.365   6.924   2.809 -0.2073 -0.3303 -0.3083
 1096poe     o2 4508   3.480   6.843   2.820 -0.3533 -0.5737 -0.5683
 1096poe    c23 4509   3.483   6.757   2.932 -0.6946 -0.2705 -0.3232
 1096poe    c23 4510   3.540   6.620   2.892  0.1422 -0.1652  0.4854
 1096poe     o2 4511   3.668   6.645   2.837 -0.2844 -0.1798 -0.5386
 1096poe    c31 4512   3.722   6.523   2.792 -0.2114  0.2425 -1.6175
 1097poe    c31 4513   4.614   2.317   3.221 -0.2758  0.3107  0.3196
 1097poe     o2 4514   4.728   2.387   3.264  0.1873 -0.5600  0.5246
 1097poe    c23 4515   4.839   2.302   3.283 -0.1891 -0.9838  0.8514
 1097poe    c23 4516   4.960   2.397   3.294 -0.8071 -0.0854  0.0859
 1097poe     o2 4517   4.925   2.518   3.357 -0.4658  0.2612 -0.3870
 1097poe    c23 4518   4.985   2.631   3.298 -0.6986  0.3362 -0.4807
 1097poe    c23 4519   4.945   2.761   3.370 -0.2231  0.0329  0.3403
 1097poe     o2 4520   4.805   2.775   3.364 -0.2873 -0.6616  0.1377
 1097poe    c23 4521   4.766   2.900   3.417  0.1372 -0.7855  0.7544
 1097poe    c23 4522   4.614   2.913   3.437  0.1280  0.5673 -0.0458
 1097poe     o2 4523   4.563   2.831   3.539 -0.0475  0.6460 -0.0705
 1097poe    c31 4524   4.448   2.880   3.604 -0.3334  0.0713 -0.1386
 1098poe    c31 4525   1.994   4.960   4.009 -0.2367  0.0443  0.3015
 1098poe     o2 4526   1.993   4.907   3.878 -0.0286  0.7706  0.0000
 1098poe    c23 4527   1.970   4.769   3.892  0.6083  0.6253 -0.3549
 1098poe    c23 4528   1.890   4.720   3.770  0.0594 -0.2723  0.3503
 1098poe     o2 4529   1.956   4.786   3.665 -0.3704  0.4632  0.5348
 1098poe    c23 4530   1.906   4.758   3.536  0.4438 -0.6435  0.4461
 1098poe    c23 4531   2.019   4.791   3.437 -0.4157  0.1336 -0.2969
 1098poe     o2 4532   2.076   4.913   3.479 -0.0242 -0.0788 -0.2065
 1098poe    c23 4533   2.100   5.003   3.373 -0.0255 -0.6351 -0.6851
 1098poe    c23 4534   2.212   5.106   3.393 -0.4096 -0.1536 -0.9750
 1098poe     o2 4535   2.179   5.199   3.494 -0.1681 -0.5999 -0.4801
 1098poe    c31 4536   2.278   5.284   3.547 -0.8884 -0.0577  0.0120
 1099poe    c31 4537   4.059   6.709   3.421 -0.2106  0.4253  0.1310
 1099poe     o2 4538   4.061   6.848   3.400 -0.5330  0.3610 -0.3432
 1099poe    c23 4539   4.136   6.917   3.497 -0.2074 -0.2619 -0.1504
 1099poe    c23 4540   4.157   7.058   3.439  0.5065 -0.5197 -0.5216
 1099poe     o2 4541   4.176   7.045   3.299  0.0958 -0.4297 -0.5847
 1099poe    c23 4542   4.296   7.114   3.274 -0.0203 -0.1692 -0.4280
 1099poe    c23 4543   4.315   7.114   3.121  0.4004 -0.1782 -0.3767
 1099poe     o2 4544   4.183   7.146   3.083  0.2587  0.1565  0.3659
 1099poe    c23 4545   4.186   7.205   2.954  0.0219  0.0924  0.3306
 1099poe    c23 4546   4.051   7.252   2.897  0.2076 -0.0738 -0.2447
 1099poe     o2 4547   3.950   7.154   2.890  0.1160  0.0269 -0.3550
 1099poe    c31 4548   3.836   7.172   2.811  0.4030  1.2125 -0.5143
 1100poe    c31 4549   0.891   6.114   0.640 -0.1251 -0.1856 -0.1221
 1100poe     o2 4550   1.021   6.104   0.694  0.0167  0.1774 -0.3927
 1100poe    c23 4551   1.107   6.196   0.632  0.3378  0.3085  0.2372
 1100poe    c23 4552   1.248   6.219   0.689  0.3347  0.3423  0.2317
 1100poe     o2 4553   1.249   6.252   0.826 -0.1853  0.3373  0.2374
 1100poe    c23 4554   1.366   6.318   0.868 -0.2471  0.4438  0.2427
 1100poe    c23 4555   1.381   6.336   1.020  0.6035 -0.5219  0.2882
 1100poe     o2 4556   1.339   6.214   1.077  0.6539 -0.5581  0.2478
 1100poe    c23 4557   1.355   6.216   1.217  0.6017 -0.1048  0.2478
 1100poe    c23 4558   1.296   6.083   1.267 -0.4403  0.4915  0.6414
 1100poe     o2 4559   1.184   6.051   1.188  0.2943 -0.0596 -0.1975
 1100poe    c31 4560   1.082   5.994   1.267  0.2064  0.1224 -0.1789
 1101poe    c31 4561   4.925   2.412   1.471 -0.1908  0.1323 -0.2674
 1101poe     o2 4562   4.844   2.352   1.372  0.1657 -0.0509 -0.4493
 1101poe    c23 4563   4.723   2.302   1.425  0.4574 -0.3138 -0.0257
 1101poe    c23 4564   4.690   2.154   1.401  0.0715 -0.3249  0.5671
 1101poe     o2 4565   4.673   2.120   1.265 -0.0774 -0.0668  0.5204
 1101poe    c23 4566   4.706   1.988   1.228  0.1508  0.0475  0.3169
 1101poe    c23 4567   4.746   1.963   1.081 -0.4702  0.3591  0.0932
 1101poe     o2 4568   4.856   2.047   1.055 -0.3448  0.0783 -0.2892
 1101poe    c23 4569   4.921   2.051   0.930  0.1468 -0.3242 -0.0493
 1101poe    c23 4570   4.844   2.101   0.806  1.0950  0.6533 -0.2559
 1101poe     o2 4571   4.781   2.227   0.816  0.1679  0.1755  0.1018
 1101poe    c31 4572   4.710   2.251   0.696  0.1016  0.7254  0.2463
 1102poe    c31 4573   4.061   6.025   6.049  0.2039  0.1654 -0.1345
 1102poe     o2 4574   3.973   5.974   5.952 -0.8530  0.6986  0.5263
 1102poe    c23 4575   3.935   6.068   5.853  0.5903  0.4581 -0.2848
 1102poe    c23 4576   3.787   6.030   5.831  0.7012  0.2966 -0.7522
 1102poe     o2 4577   3.760   5.917   5.751  0.2948 -0.1196 -0.0382
 1102poe    c23 4578   3.625   5.886   5.777  0.1361  0.0362 -0.6510
 1102poe    c23 4579   3.556   5.750   5.753 -0.3086  0.0813  0.3451
 1102poe     o2 4580   3.606   5.654   5.844 -0.1113 -0.0895  0.0552
 1102poe    c23 4581   3.525   5.539   5.850  0.3381 -0.4543 -0.6792
 1102poe    c23 4582   3.607   5.453   5.948 -0.0819  0.3192  0.3736
 1102poe     o2 4583   3.743   5.455   5.911 -0.2694  0.0562 -0.3484
 1102poe    c31 4584   3.813   5.357   5.982 -0.2069  0.1585 -0.2682
 1103poe    c31 4585   4.306   0.775   0.016 -0.0937  0.6162 -0.2462
 1103poe     o2 4586   4.296   0.695  -0.099  0.3277  0.2287 -0.0170
 1103poe    c23 4587   4.232   0.572  -0.074  0.8928 -0.0292  0.1747
 1103poe    c23 4588   4.251   0.480  -0.196 -0.3240 -0.0059 -0.0436
 1103poe     o2 4589   4.236   0.563  -0.309 -0.3419 -0.0769 -0.0931
 1103poe    c23 4590   4.255   0.507  -0.437  0.5967 -1.1456  0.4917
 1103poe    c23 4591   4.407   0.522  -0.459  0.3676 -0.0433 -0.4822
 1103poe     o2 4592   4.435   0.656  -0.426 -0.3992 -0.0536  0.2646
 1103poe    c23 4593   4.569   0.677  -0.464 -0.5010 -0.2985 -0.2391
 1103poe    c23 4594   4.608   0.790  -0.366 -0.1521 -0.8394  0.2519
 1103poe     o2 4595   4.534   0.776  -0.247 -0.3956  0.2942  0.2389
 1103poe    c31 4596   4.578   0.878  -0.159  0.2143  0.1629  0.0892
 1104poe    c31 4597   4.876   3.851   4.951  0.1493  0.1584  0.2901
 1104poe     o2 4598   4.814   3.782   5.058  0.2583 -0.1792  0.1383
 1104poe    c23 4599   4.770   3.652   5.026  0.1634 -0.1373  0.0997
 1104poe    c23 4600   4.682   3.607   5.144 -0.3338 -0.1655 -0.2757
 1104poe     o2 4601   4.739   3.597   5.273 -0.5587  0.2209 -0.1442
 1104poe    c23 4602   4.654   3.528   5.362  0.0657 -0.0489  0.2493
 1104poe    c23 4603   4.733   3.469   5.480 -0.3182  0.9267  1.0028
 1104poe     o2 4604   4.851   3.545   5.477  0.1185  0.2242 -0.2172
 1104poe    c23 4605   4.901   3.540   5.609 -0.0649  0.7569 -0.1249
 1104poe    c23 4606   5.048   3.583   5.606  0.1631  0.0223  0.1681
 1104poe     o2 4607   5.073   3.668   5.496  0.0634 -0.2436 -0.0579
 1104poe    c31 4608   5.191   3.745   5.502 -0.2670  0.2459  0.1928
 1105poe    c31 4609   2.888   0.711   5.043  0.7020  0.3973  0.4405
 1105poe     o2 4610   2.808   0.803   4.972  0.9294 -0.0600 -0.4054
 1105poe    c23 4611   2.832   0.797   4.833 -0.1456 -0.9671 -0.5709
 1105poe    c23 4612   2.734   0.884   4.753  0.0889 -0.8753 -0.7618
 1105poe     o2 4613   2.609   0.865   4.817  0.2540 -0.2802 -0.2516
 1105poe    c23 4614   2.513   0.958   4.773  0.4674 -0.1601 -0.4668
 1105poe    c23 4615   2.379   0.886   4.752  0.1816  0.1446  0.3121
 1105poe     o2 4616   2.352   0.839   4.883 -0.0089  0.0272  0.2318
 1105poe    c23 4617   2.244   0.749   4.891  0.2147 -0.2467  0.1681
 1105poe    c23 4618   2.210   0.705   5.035 -0.1859 -0.1067  0.1175
 1105poe     o2 4619   2.303   0.616   5.092  0.3109  0.5449  0.3223
 1105poe    c31 4620   2.293   0.614   5.233 -0.4109 -0.4795  0.2631
 1106poe    c31 4621   6.687   6.217   6.771 -0.6863  0.5726  1.1052
 1106poe     o2 4622   6.806   6.292   6.767 -0.3512  0.0024  0.1722
 1106poe    c23 4623   6.908   6.205   6.725 -0.3875  0.1269 -0.1851
 1106poe    c23 4624   7.035   6.285   6.761 -0.0537 -0.3437 -0.2914
 1106poe     o2 4625   7.032   6.423   6.728  0.4911 -0.2550  0.0202
 1106poe    c23 4626   7.158   6.480   6.750  0.3551 -0.0932  0.3971
 1106poe    c23 4627   7.182   6.627   6.708  0.3050 -0.0906  0.3783
 1106poe     o2 4628   7.135   6.699   6.819  0.2393  0.0463  0.2620
 1106poe    c23 4629   7.115   6.836   6.792  0.2206  0.1021  0.5485
 1106poe    c23 4630   7.236   6.927   6.816  0.7702 -0.4927  0.0595
 1106poe     o2 4631   7.262   6.932   6.955  0.1086  0.3641  0.1609
 1106poe    c31 4632   7.344   7.042   6.986  0.0465  0.3177  0.4886
 1107poe    c31 4633   0.287   6.084   2.637 -0.0078 -0.0274  0.1767
 1107poe     o2 4634   0.229   6.181   2.720 -0.6357 -0.2817  0.0422
 1107poe    c23 4635   0.128   6.255   2.654 -0.0461 -0.0034 -0.5568
 1107poe    c23 4636   0.075   6.371   2.740 -0.3990 -0.0509 -0.7108
 1107poe     o2 4637   0.170   6.475   2.753 -0.6527  0.1371 -0.3432
 1107poe    c23 4638   0.247   6.467   2.870  0.6309 -0.2383 -1.1846
 1107poe    c23 4639   0.351   6.581   2.878  0.0889  0.2088 -0.2502
 1107poe     o2 4640   0.271   6.694   2.849 -0.2788 -0.0851 -0.3996
 1107poe    c23 4641   0.354   6.807   2.835 -0.3382  0.0628  0.4214
 1107poe    c23 4642   0.263   6.920   2.786  0.0047  0.1532 -0.0150
 1107poe     o2 4643   0.161   6.860   2.709 -0.0276  0.0667  0.0951
 1107poe    c31 4644   0.080   6.966   2.663  0.4591  0.4517  0.1218
 1108poe    c31 4645   6.704   3.073   0.879  0.9622 -0.7069 -0.0625
 1108poe     o2 4646   6.676   3.080   0.741  0.3867  0.3519  0.1035
 1108poe    c23 4647   6.776   3.013   0.667  0.6158  0.5494  0.2317
 1108poe    c23 4648   6.756   3.049   0.518 -0.0528  0.4085  0.2829
 1108poe     o2 4649   6.625   3.050   0.465 -0.0414  0.1899  0.2506
 1108poe    c23 4650   6.615   3.024   0.327 -0.4672  0.0985  0.2992
 1108poe    c23 4651   6.581   3.158   0.259 -0.2055 -0.0199 -0.0686
 1108poe     o2 4652   6.478   3.221   0.331  0.0360 -0.1083  0.3570
 1108poe    c23 4653   6.427   3.327   0.254  0.1040 -0.7684 -0.6127
 1108poe    c23 4654   6.299   3.360   0.333  0.5221  0.2331 -0.3412
 1108poe     o2 4655   6.327   3.394   0.467  0.0275 -0.3292 -0.0935
 1108poe    c31 4656   6.239   3.500   0.496  0.5332  0.2313 -0.5928
 1109poe    c31 4657   3.492   2.990   4.611 -0.7372  0.4442 -0.4208
 1109poe     o2 4658   3.523   2.859   4.653 -0.1348  0.6692 -0.1644
 1109poe    c23 4659   3.632   2.805   4.580 -0.5116 -0.1990 -0.0963
 1109poe    c23 4660   3.643   2.657   4.622 -0.0608 -0.3193 -0.6376
 1109poe     o2 4661   3.634   2.674   4.762  0.0477 -0.5609 -0.5998
 1109poe    c23 4662   3.631   2.547   4.822 -0.3970 -0.0659  0.4612
 1109poe    c23 4663   3.667   2.543   4.971  0.2806  0.0708  0.3064
 1109poe     o2 4664   3.580   2.631   5.041 -0.4386 -0.0356 -0.4382
 1109poe    c23 4665   3.551   2.566   5.163  0.2134 -0.1343 -0.3290
 1109poe    c23 4666   3.503   2.655   5.279  0.0763  0.1613 -0.6119
 1109poe     o2 4667   3.598   2.758   5.296  0.1391  0.1035 -0.6126
 1109poe    c31 4668   3.590   2.787   5.434 -0.4293  0.4227 -0.7113
 1110poe    c31 4669   3.023   0.323   6.704 -0.8176 -0.3388  0.0454
 1110poe     o2 4670   2.949   0.304   6.585  0.2539  0.6082 -0.7872
 1110poe    c23 4671   2.879   0.422   6.552 -0.4407  0.6897  0.9218
 1110poe    c23 4672   2.926   0.495   6.425 -0.3352 -0.4290  0.3056
 1110poe     o2 4673   3.058   0.542   6.433 -0.5045  0.0951  0.0796
 1110poe    c23 4674   3.082   0.653   6.349 -0.2988 -0.1557 -0.1916
 1110poe    c23 4675   3.227   0.686   6.307 -0.2101  0.1191  0.3244
 1110poe     o2 4676   3.317   0.722   6.409  0.0725  0.0130  0.1139
 1110poe    c23 4677   3.436   0.776   6.357 -0.1008 -0.0446 -0.3512
 1110poe    c23 4678   3.545   0.786   6.466 -0.7929 -0.1442  0.3601
 1110poe     o2 4679   3.608   0.669   6.513 -0.5112  0.0678  0.5164
 1110poe    c31 4680   3.743   0.674   6.553 -0.4622  0.2979  0.3207
 1111poe    c31 4681   3.609   2.312   5.515  0.3682  0.0040  0.6241
 1111poe     o2 4682   3.499   2.290   5.601  0.1604 -0.3027  0.2877
 1111poe    c23 4683   3.491   2.381   5.709  0.1969 -0.0044  0.0383
 1111poe    c23 4684   3.344   2.414   5.740  0.2127 -0.1062  0.2187
 1111poe     o2 4685   3.269   2.296   5.719  0.7635 -0.4171 -0.0301
 1111poe    c23 4686   3.201   2.268   5.839  0.1756 -0.0086 -0.2634
 1111poe    c23 4687   3.104   2.152   5.809 -0.1833  0.2874 -0.2681
 1111poe     o2 4688   3.160   2.044   5.738  0.2082  0.1849  0.1907
 1111poe    c23 4689   3.067   1.940   5.719 -0.0569  0.4117  0.2573
 1111poe    c23 4690   3.107   1.842   5.607  0.0183  0.9405 -0.1846
 1111poe     o2 4691   3.094   1.913   5.486 -0.5179  0.5177 -0.3790
 1111poe    c31 4692   3.126   1.835   5.374  0.1554  0.2771 -0.0228
 1112poe    c31 4693   6.617   6.198   1.914 -0.3753  0.4459 -0.4582
 1112poe     o2 4694   6.723   6.239   1.832  0.4196  0.2757  0.4700
 1112poe    c23 4695   6.770   6.371   1.850 -0.4229  0.6415  0.0277
 1112poe    c23 4696   6.862   6.411   1.733 -0.1075 -0.5893 -0.1553
 1112poe     o2 4697   6.948   6.304   1.701  0.6782  0.1371 -0.4909
 1112poe    c23 4698   7.050   6.334   1.609  0.4875  0.2262 -0.6723
 1112poe    c23 4699   7.109   6.195   1.580  0.0821 -0.1876  0.4353
 1112poe     o2 4700   7.002   6.109   1.549  0.2208 -0.0132 -0.5591
 1112poe    c23 4701   7.038   5.977   1.581 -0.0292  0.0957  0.1862
 1112poe    c23 4702   7.041   5.951   1.733  0.4412  0.0254  0.1660
 1112poe     o2 4703   6.906   5.983   1.759  0.5372  0.5065  0.0784
 1112poe    c31 4704   6.836   5.904   1.852  0.1405  0.0651 -0.5893
 1113poe    c31 4705   1.243   3.853   2.153 -0.3689 -0.2361 -0.0293
 1113poe     o2 4706   1.334   3.948   2.103 -0.4760 -0.5139 -0.7715
 1113poe    c23 4707   1.334   3.944   1.962 -0.9754  0.0597 -0.7931
 1113poe    c23 4708   1.442   4.032   1.897 -0.1944  0.3804  0.8747
 1113poe     o2 4709   1.409   4.169   1.886 -0.3176  0.2968  0.1533
 1113poe    c23 4710   1.521   4.239   1.836 -0.4821  0.3026 -0.2117
 1113poe    c23 4711   1.515   4.386   1.882  0.1742  0.2600  0.0248
 1113poe     o2 4712   1.487   4.390   2.020 -0.4209 -0.4094 -0.0656
 1113poe    c23 4713   1.518   4.515   2.078  0.5560 -0.5513 -0.2655
 1113poe    c23 4714   1.485   4.504   2.228 -0.2630  0.3466 -0.3671
 1113poe     o2 4715   1.352   4.458   2.223 -0.2235  0.1804  0.0301
 1113poe    c31 4716   1.290   4.429   2.346 -0.5966  0.2249 -0.1448
 1114poe    c31 4717   2.300   6.792   4.459  0.5450 -0.1896  0.1900
 1114poe     o2 4718   2.322   6.929   4.486 -0.3119  0.0879 -0.4667
 1114poe    c23 4719   2.455   6.970   4.460  0.0344 -0.4121  0.4415
 1114poe    c23 4720   2.467   7.122   4.484  0.3635 -0.4022  0.2221
 1114poe     o2 4721   2.452   7.157   4.620  0.4608 -0.5667  0.2761
 1114poe    c23 4722   2.468   7.295   4.642 -0.1273 -0.4469 -0.0245
 1114poe    c23 4723   2.366   7.344   4.747 -0.2983 -0.4642 -0.1825
 1114poe     o2 4724   2.380   7.259   4.859  0.7527 -0.1517 -0.0632
 1114poe    c23 4725   2.292   7.300   4.962 -0.0261  0.0652 -0.8009
 1114poe    c23 4726   2.335   7.200   5.071  0.0284  0.9021 -0.0515
 1114poe     o2 4727   2.327   7.068   5.022 -0.0031  0.6250  0.6896
 1114poe    c31 4728   2.317   6.978   5.130  0.2644 -0.0890  0.1189
 1115poe    c31 4729   6.487   0.439   5.605 -0.1691  0.4664 -0.1039
 1115poe     o2 4730   6.499   0.337   5.702 -0.3471  0.2724 -0.2858
 1115poe    c23 4731   6.637   0.314   5.713 -0.3483  0.5685  0.3513
 1115poe    c23 4732   6.665   0.269   5.858  0.1351  0.1101  0.1175
 1115poe     o2 4733   6.559   0.183   5.894  0.3258 -0.1606  0.0357
 1115poe    c23 4734   6.581   0.113   6.015  0.2689 -0.8740 -0.3597
 1115poe    c23 4735   6.479  -0.002   6.031  0.1258 -0.6863  0.1016
 1115poe     o2 4736   6.353   0.058   6.016  0.4091  0.0217  0.5039
 1115poe    c23 4737   6.247  -0.031   6.043  0.0789  0.3826  0.4166
 1115poe    c23 4738   6.123   0.055   6.072 -0.5113 -0.2525 -0.1782
 1115poe     o2 4739   6.093   0.141   5.965  0.4845  0.5407  0.1594
 1115poe    c31 4740   5.963   0.194   5.979  0.0305 -0.5735  0.2547
 1116poe    c31 4741   3.266   6.133   5.425  0.0109  0.8713 -0.0468
 1116poe     o2 4742   3.142   6.133   5.358 -0.0044 -0.1524 -0.0367
 1116poe    c23 4743   3.175   6.089   5.229 -0.0618  0.0411 -0.1169
 1116poe    c23 4744   3.067   6.153   5.139 -0.0796 -0.3079 -0.3490
 1116poe     o2 4745   2.938   6.124   5.189 -0.0595 -0.4369 -0.3735
 1116poe    c23 4746   2.836   6.175   5.106 -0.1692 -0.0534 -0.0061
 1116poe    c23 4747   2.710   6.106   5.160 -0.4792  0.6454  0.1725
 1116poe     o2 4748   2.705   6.120   5.300 -0.1088 -0.0131  0.2596
 1116poe    c23 4749   2.576   6.162   5.340  0.2618  0.9382  0.5040
 1116poe    c23 4750   2.563   6.195   5.490  0.5563 -0.5059  0.8694
 1116poe     o2 4751   2.539   6.071   5.552 -0.8960 -0.8038 -0.2503
 1116poe    c31 4752   2.569   6.072   5.689 -0.5351  0.4458 -0.3292
 1117poe    c31 4753   0.890   4.899   4.276 -0.2299 -0.3095  0.0979
 1117poe     o2 4754   0.967   4.795   4.221  0.1505  0.1048 -0.1574
 1117poe    c23 4755   1.100   4.838   4.201  0.3054 -0.2771  0.0303
 1117poe    c23 4756   1.194   4.755   4.113 -0.6239 -0.6589 -0.6221
 1117poe     o2 4757   1.229   4.629   4.165 -0.6879 -0.2460  0.4316
 1117poe    c23 4758   1.337   4.616   4.254  0.3667 -0.3156 -0.8411
 1117poe    c23 4759   1.342   4.467   4.293  0.4122 -0.1379 -0.1510
 1117poe     o2 4760   1.223   4.415   4.348  0.6069 -0.3621  0.0600
 1117poe    c23 4761   1.245   4.281   4.387  0.1492 -0.2753  0.6229
 1117poe    c23 4762   1.104   4.223   4.403  0.0238 -0.0861  0.2218
 1117poe     o2 4763   1.021   4.317   4.468 -0.2350  0.0896 -0.3640
 1117poe    c31 4764   0.908   4.246   4.514 -0.3625  0.7559  0.3593
 1118poe    c31 4765   0.947   2.589   2.921  0.1101  0.3167 -0.1452
 1118poe     o2 4766   0.844   2.675   2.964  0.0687 -0.0981  0.5955
 1118poe    c23 4767   0.872   2.741   3.085  0.5059 -0.5299  0.7325
 1118poe    c23 4768   0.738   2.793   3.139  0.6019  0.4715  0.0375
 1118poe     o2 4769   0.671   2.837   3.023 -0.0774 -0.8621 -0.0966
 1118poe    c23 4770   0.553   2.904   3.060  0.0373 -0.5719 -0.2526
 1118poe    c23 4771   0.458   2.945   2.946  0.1591  0.3080 -0.0498
 1118poe     o2 4772   0.438   2.822   2.881  0.0228  0.3627 -0.1118
 1118poe    c23 4773   0.338   2.820   2.781  0.0208 -0.2094 -0.1054
 1118poe    c23 4774   0.341   2.719   2.666  0.5161 -0.3490  0.0272
 1118poe     o2 4775   0.354   2.591   2.725 -0.1298 -0.2280  0.4396
 1118poe    c31 4776   0.284   2.494   2.650  0.0735  0.0579 -0.1287
 1119poe    c31 4777   1.850   6.691   5.963  0.6769  0.3252 -0.1451
 1119poe     o2 4778   1.967   6.632   6.015  0.4001  0.0123  0.1274
 1119poe    c23 4779   1.939   6.501   6.059 -0.0484 -0.0236 -0.2508
 1119poe    c23 4780   2.063   6.410   6.046  0.2462  0.3587 -0.1345
 1119poe     o2 4781   2.185   6.481   6.057  0.1305  0.5375 -0.0085
 1119poe    c23 4782   2.292   6.396   6.022 -0.1939  0.0937  0.0588
 1119poe    c23 4783   2.418   6.453   6.092 -0.8677  0.2589  1.1695
 1119poe     o2 4784   2.450   6.576   6.031  0.1243 -0.6387 -0.1931
 1119poe    c23 4785   2.569   6.623   6.090 -0.3992  0.4356  0.0468
 1119poe    c23 4786   2.605   6.762   6.034  0.3915  0.2532  0.0840
 1119poe     o2 4787   2.492   6.846   6.021  0.2130 -0.0337 -0.2612
 1119poe    c31 4788   2.494   6.944   6.122  0.3244  0.1530 -0.4450
 1120poe    c31 4789   0.506   5.829   1.473 -0.3177  0.1564  0.1531
 1120poe     o2 4790   0.581   5.929   1.538  0.0689 -0.2614  0.3524
 1120poe    c23 4791   0.721   5.918   1.518  0.1213 -0.0120  0.5813
 1120poe    c23 4792   0.779   6.059   1.540 -0.3675  0.4068 -0.7156
 1120poe     o2 4793   0.754   6.128   1.660  0.4895 -0.4320 -0.0407
 1120poe    c23 4794   0.848   6.220   1.712 -0.0654  0.1815 -0.1145
 1120poe    c23 4795   0.812   6.246   1.859  0.2260 -1.1097  0.1948
 1120poe     o2 4796   0.672   6.236   1.858  0.1986 -0.7240 -0.0219
 1120poe    c23 4797   0.627   6.303   1.973 -0.2726 -0.3634 -0.4082
 1120poe    c23 4798   0.486   6.364   1.963 -0.1510 -0.0702 -0.3445
 1120poe     o2 4799   0.405   6.270   1.896 -0.0573 -0.2715 -0.1770
 1120poe    c31 4800   0.271   6.314   1.908 -0.1031 -0.4326 -0.0901
 1121poe    c31 4801   5.094   5.368   1.037 -0.2348 -0.1450  0.3574
 1121poe     o2 4802   5.091   5.292   0.918  0.1453  0.0045  0.2494
 1121poe    c23 4803   5.211   5.219   0.914  0.5034  0.6279 -0.5568
 1121poe    c23 4804   5.181   5.085   0.843  0.0556  0.7174 -0.5356
 1121poe     o2 4805   5.278   5.024   0.762 -0.0437 -0.0945 -0.0562
 1121poe    c23 4806   5.392   4.985   0.835 -0.0584 -0.0822 -0.0264
 1121poe    c23 4807   5.478   4.904   0.736  0.2533 -0.2519  0.3788
 1121poe     o2 4808   5.405   4.803   0.670  0.1503  0.2960 -0.3555
 1121poe    c23 4809   5.477   4.768   0.554  0.5021 -0.1699 -0.0003
 1121poe    c23 4810   5.386   4.673   0.473  0.0972  0.3860 -0.2047
 1121poe     o2 4811   5.259   4.734   0.467  0.1461  0.4861 -0.2240
 1121poe    c31 4812   5.175   4.650   0.390 -0.5392  0.7707  0.2074
 1122poe    c31 4813   4.885   4.113   0.433  0.4145 -0.8192 -0.1361
 1122poe     o2 4814   4.767   4.047   0.473 -0.0314 -0.1337 -0.3056
 1122poe    c23 4815   4.801   3.911   0.467  0.3018 -0.0597 -0.0851
 1122poe    c23 4816   4.695   3.807   0.508 -0.0328  0.3856  0.1808
 1122poe     o2 4817   4.594   3.820   0.410 -0.0127  1.1701  0.2548
 1122poe    c23 4818   4.503   3.718   0.445  0.9124  0.1845 -0.1406
 1122poe    c23 4819   4.412   3.688   0.324  0.6757 -0.2038  0.1306
 1122poe     o2 4820   4.377   3.812   0.268 -0.0509 -0.4931 -0.0701
 1122poe    c23 4821   4.258   3.803   0.194 -0.0276 -0.4517 -0.1122
 1122poe    c23 4822   4.217   3.928   0.113 -0.2502 -0.2708  0.2762
 1122poe     o2 4823   4.301   3.956   0.003 -0.9204  0.2714 -0.1045
 1122poe    c31 4824   4.269   4.079  -0.058  0.3714  0.6031 -0.1448
 1123poe    c31 4825   6.942   1.642   5.001 -0.4403 -0.1976 -0.3556
 1123poe     o2 4826   7.014   1.529   5.044 -0.3322 -0.0825 -0.2358
 1123poe    c23 4827   6.934   1.435   5.111 -0.3687 -0.3752 -0.6847
 1123poe    c23 4828   7.024   1.318   5.157 -0.3782 -0.2318 -0.2917
 1123poe     o2 4829   7.147   1.372   5.200 -0.5191 -0.4125  0.3444
 1123poe    c23 4830   7.259   1.287   5.208 -0.4228 -0.2419  0.8092
 1123poe    c23 4831   7.376   1.369   5.266 -0.2330  0.1344 -0.0919
 1123poe     o2 4832   7.382   1.495   5.203  0.1978 -0.0483 -0.4210
 1123poe    c23 4833   7.500   1.563   5.238  0.0907 -0.0092 -0.1378
 1123poe    c23 4834   7.486   1.705   5.179 -0.1411 -0.0955 -0.2903
 1123poe     o2 4835   7.492   1.691   5.039  0.0974 -0.0239 -0.2889
 1123poe    c31 4836   7.606   1.741   4.974 -0.2319  0.2370 -0.6753
 1124poe    c31 4837   1.241   5.680   2.447  0.1143 -0.2157  0.4126
 1124poe     o2 4838   1.141   5.771   2.406 -0.2292 -0.4878  0.6334
 1124poe    c23 4839   1.033   5.785   2.495 -0.6276  0.2091  0.0559
 1124poe    c23 4840   0.949   5.910   2.465 -0.1622  0.7014  0.7696
 1124poe     o2 4841   0.891   5.879   2.340  0.0353  0.9367  0.6199
 1124poe    c23 4842   0.761   5.827   2.351  0.1116  0.7265  0.5387
 1124poe    c23 4843   0.676   5.884   2.237  0.0485 -0.3392  0.0405
 1124poe     o2 4844   0.752   5.861   2.120  0.0632  0.2344 -0.0676
 1124poe    c23 4845   0.683   5.889   2.000 -0.0146 -0.3594 -0.1669
 1124poe    c23 4846   0.784   5.845   1.893  0.1886  0.0459 -0.1427
 1124poe     o2 4847   0.914   5.880   1.934  0.1864  0.2344 -0.2882
 1124poe    c31 4848   1.005   5.872   1.827  0.4984 -0.5644  0.0276
 1125poe    c31 4849   3.464   4.817   3.312  0.2752 -0.8165  0.5494
 1125poe     o2 4850   3.451   4.867   3.443  0.0663 -0.3977  0.3686
 1125poe    c23 4851   3.488   4.771   3.539  1.1412 -0.0608  0.3044
 1125poe    c23 4852   3.418   4.804   3.671  0.2863  0.3579 -0.2467
 1125poe     o2 4853   3.423   4.944   3.691 -0.5881  0.2986  0.4651
 1125poe    c23 4854   3.396   4.972   3.827 -1.4891 -1.1190  0.5978
 1125poe    c23 4855   3.362   5.122   3.824  0.6006 -0.6193  0.2424
 1125poe     o2 4856   3.440   5.203   3.739  0.1485 -0.1216  0.2913
 1125poe    c23 4857   3.444   5.336   3.787  0.3431 -0.1357  0.3164
 1125poe    c23 4858   3.522   5.419   3.684 -0.0564  0.3003  0.3638
 1125poe     o2 4859   3.478   5.395   3.552  0.2385 -0.0419  0.3284
 1125poe    c31 4860   3.541   5.490   3.469 -0.2330 -0.0900 -0.0887
 1126poe    c31 4861   4.765   4.492   5.856 -0.9612 -0.8195  0.6960
 1126poe     o2 4862   4.749   4.417   5.737 -0.3956  0.1325  0.0055
 1126poe    c23 4863   4.678   4.304   5.784 -0.3685  0.0251 -0.2126
 1126poe    c23 4864   4.690   4.180   5.694 -0.0601 -0.0147 -0.1199
 1126poe     o2 4865   4.694   4.212   5.556  0.1536  0.0631 -0.0952
 1126poe    c23 4866   4.723   4.095   5.483  0.0973 -0.1543  0.2290
 1126poe    c23 4867   4.714   4.107   5.330 -0.5323  0.3553  0.3020
 1126poe     o2 4868   4.766   4.235   5.304  0.2081 -0.0052 -0.0129
 1126poe    c23 4869   4.766   4.250   5.164  0.6055  0.3997  0.0270
 1126poe    c23 4870   4.894   4.324   5.119  0.3421  0.2951 -0.8942
 1126poe     o2 4871   5.017   4.275   5.166 -0.1326 -0.2828 -0.2431
 1126poe    c31 4872   5.107   4.383   5.171 -0.2678 -0.1821  0.0383
 1127poe    c31 4873   0.123   5.333   4.324  0.0716  0.0916 -0.2483
 1127poe     o2 4874   0.037   5.225   4.352 -0.0219  0.2172 -0.0475
 1127poe    c23 4875   0.094   5.110   4.293 -0.3726  0.2044 -0.3697
 1127poe    c23 4876  -0.001   4.990   4.299 -0.0497 -0.0541 -0.4033
 1127poe     o2 4877  -0.051   4.972   4.430 -0.4183  0.4840 -0.4690
 1127poe    c23 4878  -0.155   4.877   4.420 -0.1489  0.1453 -0.0498
 1127poe    c23 4879  -0.219   4.819   4.548 -0.0086 -0.0045 -0.0466
 1127poe     o2 4880  -0.273   4.918   4.634  0.4169  0.1765  0.0138
 1127poe    c23 4881  -0.358   4.864   4.732  0.9167 -0.0808  0.3070
 1127poe    c23 4882  -0.318   4.786   4.859 -0.3369 -0.5839  0.3996
 1127poe     o2 4883  -0.240   4.673   4.827  0.3431  0.0823 -0.3268
 1127poe    c31 4884  -0.164   4.627   4.936 -0.6542  0.3446  0.4957
 1128poe    c31 4885   6.734   6.302   4.121 -0.0119  0.2789 -0.4425
 1128poe     o2 4886   6.695   6.168   4.103 -0.1659  0.2106  0.3804
 1128poe    c23 4887   6.575   6.164   4.177 -0.0791  0.0784  0.5148
 1128poe    c23 4888   6.500   6.033   4.146  0.6822 -0.2918  0.2057
 1128poe     o2 4889   6.400   6.049   4.049  0.5207 -0.1739  0.3916
 1128poe    c23 4890   6.429   6.037   3.911 -0.3681  0.5605  0.1272
 1128poe    c23 4891   6.300   5.983   3.846 -0.2076  0.4954 -0.1343
 1128poe     o2 4892   6.190   6.065   3.876 -0.6029 -0.2661  0.5571
 1128poe    c23 4893   6.142   6.142   3.768  0.1737  0.7100  0.8839
 1128poe    c23 4894   6.018   6.210   3.829 -0.6693 -0.6426  0.7147
 1128poe     o2 4895   6.043   6.250   3.962 -0.1658  0.0667  0.4131
 1128poe    c31 4896   5.918   6.298   4.008 -0.5173  0.1181 -0.5628
 1129poe    c31 4897   0.723   0.816   7.008 -0.0820 -0.3444  0.7261
 1129poe     o2 4898   0.847   0.749   6.995  0.2981  0.5026 -0.1789
 1129poe    c23 4899   0.839   0.654   6.891 -0.0329  0.5340 -0.1852
 1129poe    c23 4900   0.971   0.575   6.894 -0.3342  0.0494  0.6344
 1129poe     o2 4901   1.024   0.583   7.024  0.0219 -0.2613  0.5092
 1129poe    c23 4902   1.091   0.460   7.045 -0.2958 -0.5091  0.0845
 1129poe    c23 4903   1.190   0.460   7.163 -0.3292  0.0617  0.1173
 1129poe     o2 4904   1.138   0.464   7.294  0.1942  0.2766  0.3201
 1129poe    c23 4905   1.068   0.349   7.338  0.4097 -0.0501 -0.1890
 1129poe    c23 4906   0.993   0.382   7.468 -0.1436 -0.1590 -0.4765
 1129poe     o2 4907   0.881   0.466   7.448 -0.1269 -0.0694 -0.1974
 1129poe    c31 4908   0.818   0.479   7.574  0.2753  0.3606 -0.0397
 1130poe    c31 4909   1.480   2.652   2.643 -0.0710  0.4270 -0.3220
 1130poe     o2 4910   1.530   2.736   2.745 -0.0060 -0.2549  0.2184
 1130poe    c23 4911   1.648   2.705   2.815  0.5667 -0.0196 -0.6211
 1130poe    c23 4912   1.718   2.829   2.875  0.3618 -0.4671  0.5720
 1130poe     o2 4913   1.601   2.903   2.902  0.4378 -0.1098 -0.0608
 1130poe    c23 4914   1.639   3.018   2.976 -0.0291  0.2379 -0.3548
 1130poe    c23 4915   1.513   3.090   3.024  0.1599 -0.0248  0.5524
 1130poe     o2 4916   1.423   3.118   2.919  0.2198 -0.4459  0.3882
 1130poe    c23 4917   1.314   3.177   2.986  0.0543  0.1428 -0.3834
 1130poe    c23 4918   1.177   3.171   2.916 -0.2269  0.2227  0.1571
 1130poe     o2 4919   1.125   3.042   2.894  0.1270  0.1881 -0.5066
 1130poe    c31 4920   0.990   3.051   2.857 -0.2294  0.2515  0.7718
 1131poe    c31 4921   1.654   5.764   5.066  0.1498  0.0888 -0.4477
 1131poe     o2 4922   1.744   5.732   5.170 -0.2743  0.2745 -0.0166
 1131poe    c23 4923   1.860   5.672   5.116 -0.7000 -0.6497  0.0763
 1131poe    c23 4924   1.938   5.601   5.227 -0.3804 -0.0190  0.2627
 1131poe     o2 4925   1.989   5.686   5.328 -0.3273 -0.0010  0.2204
 1131poe    c23 4926   2.064   5.618   5.426 -0.2056  0.0736  0.1781
 1131poe    c23 4927   2.100   5.728   5.528  0.0948  0.1862 -0.0490
 1131poe     o2 4928   2.136   5.845   5.457  0.0464  0.0278 -0.3379
 1131poe    c23 4929   2.147   5.948   5.553 -0.1350 -0.3028  0.0386
 1131poe    c23 4930   2.167   6.079   5.475 -0.3181 -0.3527 -0.0915
 1131poe     o2 4931   2.092   6.073   5.356 -0.3829  0.2594 -0.0825
 1131poe    c31 4932   2.100   6.199   5.292 -0.1784  0.3178  0.0571
 1132poe    c31 4933   1.049   6.736   1.912  0.0732 -0.0496  0.5334
 1132poe     o2 4934   1.085   6.870   1.936 -0.2831  0.1277  0.0921
 1132poe    c23 4935   1.145   6.903   2.059  0.4431  0.3393 -0.3116
 1132poe    c23 4936   1.108   7.048   2.096 -0.0327  0.1067  0.1240
 1132poe     o2 4937   1.172   7.119   1.992 -0.0825 -0.6503 -0.4319
 1132poe    c23 4938   1.253   7.217   2.053 -0.4181 -0.5297 -0.1747
 1132poe    c23 4939   1.288   7.333   1.958  0.2847 -0.4865  0.1358
 1132poe     o2 4940   1.325   7.273   1.836 -0.1719  0.2177 -0.3568
 1132poe    c23 4941   1.387   7.360   1.744  0.2125 -0.4268 -0.7175
 1132poe    c23 4942   1.399   7.283   1.611 -0.2719 -1.0357 -0.4144
 1132poe     o2 4943   1.397   7.144   1.635 -0.3671 -0.9156  0.2892
 1132poe    c31 4944   1.439   7.074   1.520  0.4569 -0.5226  0.3446
 1133poe    c31 4945   5.320   4.037   6.692  0.4655 -0.2714 -0.1570
 1133poe     o2 4946   5.354   4.022   6.556  0.3700 -0.9239 -0.1102
 1133poe    c23 4947   5.330   4.145   6.491 -0.0301 -0.8734  0.1356
 1133poe    c23 4948   5.382   4.121   6.348  0.1055 -0.4089  0.1047
 1133poe     o2 4949   5.463   4.006   6.348 -0.0965 -0.5526 -0.2328
 1133poe    c23 4950   5.487   3.976   6.213  0.3838  0.1729 -0.3127
 1133poe    c23 4951   5.570   3.846   6.213 -0.3735 -0.3213 -0.8006
 1133poe     o2 4952   5.502   3.744   6.282  0.2276 -0.1574  0.0470
 1133poe    c23 4953   5.576   3.624   6.281 -0.6233 -0.6888 -0.0855
 1133poe    c23 4954   5.674   3.609   6.398 -0.2304  0.0005 -0.3202
 1133poe     o2 4955   5.612   3.585   6.523 -0.2664 -0.3315 -0.4000
 1133poe    c31 4956   5.697   3.532   6.622  0.1849  0.2282 -0.4772
 1134poe    c31 4957   6.320   5.103   3.426 -0.1348  0.5042  0.3396
 1134poe     o2 4958   6.336   5.199   3.324  0.4411 -0.0145 -0.0701
 1134poe    c23 4959   6.434   5.158   3.231  0.6098 -0.2509  0.2119
 1134poe    c23 4960   6.443   5.265   3.121  0.0294 -0.1945  0.2151
 1134poe     o2 4961   6.321   5.264   3.051  0.1958 -0.7461 -0.0709
 1134poe    c23 4962   6.295   5.369   2.960  0.0438 -0.8216 -0.1134
 1134poe    c23 4963   6.169   5.359   2.872  0.2497  0.4323 -0.5681
 1134poe     o2 4964   6.169   5.249   2.784 -0.1881  0.0031 -0.0390
 1134poe    c23 4965   6.048   5.260   2.711  0.2282  0.2544 -0.6946
 1134poe    c23 4966   6.022   5.124   2.644 -0.0768 -0.0399  0.0238
 1134poe     o2 4967   6.129   5.085   2.562 -0.1221 -0.3912  0.1272
 1134poe    c31 4968   6.082   5.027   2.442 -0.0860 -0.8974  0.3574
 1135poe    c31 4969   3.603   3.788   6.577  0.4027  0.2357 -0.5686
 1135poe     o2 4970   3.540   3.663   6.571  0.5511  0.1438 -0.1911
 1135poe    c23 4971   3.601   3.557   6.642 -0.3593  0.0753  0.5259
 1135poe    c23 4972   3.481   3.463   6.661 -0.4896  0.0890 -0.1716
 1135poe     o2 4973   3.420   3.434   6.538 -0.2435  0.5238 -0.4007
 1135poe    c23 4974   3.310   3.346   6.548  0.5373 -0.4693 -0.3617
 1135poe    c23 4975   3.255   3.331   6.405  0.1324  0.5522 -0.3220
 1135poe     o2 4976   3.212   3.453   6.350  0.1282  0.6352 -0.1361
 1135poe    c23 4977   3.127   3.439   6.238 -0.3269 -0.1752  0.3041
 1135poe    c23 4978   3.107   3.578   6.175  0.2826 -0.2974 -0.1581
 1135poe     o2 4979   3.235   3.625   6.137  0.3183  0.2205  0.5864
 1135poe    c31 4980   3.260   3.600   6.001 -0.7418  0.1276  0.3981
 1136poe    c31 4981   2.983   4.841   1.229 -0.7958 -0.1700  0.0051
 1136poe     o2 4982   2.919   4.966   1.217 -0.2197  0.1381  0.1409
 1136poe    c23 4983   2.873   4.997   1.088 -0.1336 -0.1450  0.0414
 1136poe    c23 4984   2.845   5.148   1.077  0.1384 -0.1308 -0.4802
 1136poe     o2 4985   2.968   5.211   1.050 -0.0494  0.2730 -0.3975
 1136poe    c23 4986   2.985   5.326   1.130 -0.5326  0.2702 -0.2870
 1136poe    c23 4987   3.062   5.445   1.068  0.0013  0.0894  0.0196
 1136poe     o2 4988   3.189   5.404   1.022 -0.0043  0.4129 -0.2841
 1136poe    c23 4989   3.259   5.525   1.001  0.1637  0.3227 -0.2455
 1136poe    c23 4990   3.398   5.491   0.944  0.1193  0.0624 -0.1992
 1136poe     o2 4991   3.427   5.354   0.966 -0.3286 -0.0598 -0.3607
 1136poe    c31 4992   3.558   5.324   0.925  0.0451  0.4739  0.4093
 1137poe    c31 4993   4.487   4.718   6.048 -0.0335 -0.5947 -0.3026
 1137poe     o2 4994   4.493   4.815   6.150  0.0612 -0.4390 -0.4570
 1137poe    c23 4995   4.615   4.884   6.162 -0.3080  0.1738 -0.1635
 1137poe    c23 4996   4.573   5.022   6.217  0.5697  0.2214  0.4116
 1137poe     o2 4997   4.499   5.021   6.337 -0.4388  0.4884 -0.1956
 1137poe    c23 4998   4.391   5.109   6.318 -0.8021  0.1421  0.2150
 1137poe    c23 4999   4.314   5.111   6.451 -0.4685  0.1074  0.4078
 1137poe     o2 5000   4.369   5.168   6.568 -0.0463  0.0435  0.2419
 1137poe    c23 5001   4.299   5.106   6.673 -0.0179 -0.1472  0.1487
 1137poe    c23 5002   4.354   5.137   6.813 -0.0534 -0.4285  0.2261
 1137poe     o2 5003   4.449   5.044   6.863  0.1041 -0.2838  0.1969
 1137poe    c31 5004   4.457   5.075   7.000  0.0707  0.0541  0.1237
 1138poe    c31 5005   2.841   3.927   6.990 -0.5911 -0.5845 -0.4703
 1138poe     o2 5006   2.760   3.865   7.088  0.2102  0.1158  0.6688
 1138poe    c23 5007   2.779   3.726   7.088  0.5130  0.1547  0.1865
 1138poe    c23 5008   2.654   3.663   7.152  0.6320 -0.7076 -0.4116
 1138poe     o2 5009   2.624   3.735   7.269  0.3160 -0.1979 -0.8036
 1138poe    c23 5010   2.499   3.685   7.314  0.5428 -0.2060 -0.1710
 1138poe    c23 5011   2.490   3.739   7.458  0.2970 -0.2596 -0.1663
 1138poe     o2 5012   2.518   3.877   7.460  0.2263 -0.2464 -0.0679
 1138poe    c23 5013   2.450   3.940   7.566  0.4439  0.0661 -0.1105
 1138poe    c23 5014   2.474   4.092   7.562 -0.1872  0.1620 -0.5428
 1138poe     o2 5015   2.613   4.119   7.570 -0.3124  0.4388  0.8814
 1138poe    c31 5016   2.640   4.256   7.550 -0.3116  0.3599  0.3494
 1139poe    c31 5017   0.800   4.994   4.619  0.6907 -0.1089  0.5998
 1139poe     o2 5018   0.702   4.976   4.719  0.0232 -0.0986 -0.0399
 1139poe    c23 5019   0.580   4.943   4.657  0.0993 -0.0914 -0.1932
 1139poe    c23 5020   0.477   4.917   4.768  0.4289 -0.1950  0.0907
 1139poe     o2 5021   0.507   5.027   4.852 -0.2987 -0.2483  0.4260
 1139poe    c23 5022   0.426   5.037   4.967 -0.2303  0.2363  0.4334
 1139poe    c23 5023   0.512   5.103   5.077 -0.1283 -0.2090  0.6199
 1139poe     o2 5024   0.646   5.063   5.060 -0.0514  0.3090 -0.0430
 1139poe    c23 5025   0.745   5.139   5.126  0.1953  0.2366 -0.3269
 1139poe    c23 5026   0.879   5.088   5.070  0.0908 -0.2115 -0.1726
 1139poe     o2 5027   0.888   5.125   4.934  0.1477 -0.1633 -0.1555
 1139poe    c31 5028   1.024   5.111   4.900  0.3203  0.0808  0.4152
 1140poe    c31 5029   0.622   5.476   2.221 -0.0227  0.0946 -0.1533
 1140poe     o2 5030   0.720   5.405   2.148 -0.3695 -0.0533 -0.4749
 1140poe    c23 5031   0.694   5.272   2.190 -0.0260  0.1378  0.3571
 1140poe    c23 5032   0.760   5.155   2.115  0.0566  0.3952  0.0218
 1140poe     o2 5033   0.740   5.138   1.977  0.0787  0.1555  0.0473
 1140poe    c23 5034   0.841   5.057   1.920 -0.1248 -0.2720  0.2889
 1140poe    c23 5035   0.784   4.998   1.790 -0.4271  0.0100  0.2921
 1140poe     o2 5036   0.734   5.108   1.717 -0.2576 -0.0030  0.1560
 1140poe    c23 5037   0.672   5.068   1.596  0.2890 -0.5335  0.0428
 1140poe    c23 5038   0.656   5.202   1.521  0.4936 -0.3287  0.3639
 1140poe     o2 5039   0.587   5.279   1.617 -0.1404 -0.0097 -0.3432
 1140poe    c31 5040   0.567   5.405   1.557 -0.2879  0.0542 -0.1626
 1141poe    c31 5041   4.255   0.215   4.122  0.1034 -0.1981 -0.7320
 1141poe     o2 5042   4.374   0.281   4.087  0.1453 -0.2118 -0.6157
 1141poe    c23 5043   4.479   0.195   4.124 -0.1245 -0.2958 -0.0419
 1141poe    c23 5044   4.602   0.262   4.062 -0.1522 -0.2043  0.0024
 1141poe     o2 5045   4.602   0.400   4.091 -0.4761 -0.1486 -0.2649
 1141poe    c23 5046   4.704   0.453   4.010 -0.1980 -0.2370  0.0279
 1141poe    c23 5047   4.708   0.607   3.999 -0.1333 -0.2721 -0.4718
 1141poe     o2 5048   4.579   0.646   3.957 -0.3091 -0.3499 -0.0178
 1141poe    c23 5049   4.577   0.786   3.943 -0.2410 -0.3240  0.2221
 1141poe    c23 5050   4.439   0.855   3.939 -0.2484 -0.3848 -1.0154
 1141poe     o2 5051   4.379   0.845   4.066  0.2429  0.1702 -0.7377
 1141poe    c31 5052   4.247   0.889   4.039  0.1122  0.4769  0.3335
 1142poe    c31 5053   1.941   4.987   0.653  0.1546 -0.0325  0.3680
 1142poe     o2 5054   1.885   5.023   0.777  0.2432  0.7570  0.1882
 1142poe    c23 5055   1.953   4.994   0.898 -0.1263  0.5046  0.3374
 1142poe    c23 5056   1.868   5.028   1.022 -0.4688  0.4287  0.1249
 1142poe     o2 5057   1.734   4.986   1.011 -0.2911 -0.0665 -0.1748
 1142poe    c23 5058   1.673   5.000   1.137  0.3074 -0.5852  0.1759
 1142poe    c23 5059   1.525   4.960   1.144  0.1345 -0.0065 -0.1306
 1142poe     o2 5060   1.468   4.982   1.017  0.2745  0.1441 -0.1680
 1142poe    c23 5061   1.342   4.925   0.987 -0.1488  0.9392  0.0804
 1142poe    c23 5062   1.286   5.004   0.868 -0.5352  0.3230 -0.1503
 1142poe     o2 5063   1.373   5.025   0.759 -0.2083 -0.1650  0.0163
 1142poe    c31 5064   1.296   5.086   0.658 -0.2714 -0.2064  0.0395
 1143poe    c31 5065   2.507   4.720   4.530  0.2827 -0.7055  0.2754
 1143poe     o2 5066   2.566   4.756   4.652 -0.3972  0.7762  0.1869
 1143poe    c23 5067   2.703   4.781   4.636 -0.1665 -0.4586  0.1434
 1143poe    c23 5068   2.778   4.822   4.764  0.1108  0.5522 -0.3343
 1143poe     o2 5069   2.724   4.917   4.853 -0.0113  0.0343  0.1481
 1143poe    c23 5070   2.744   5.050   4.811 -0.1005  0.1247  0.3865
 1143poe    c23 5071   2.689   5.142   4.921 -0.0151  0.3770  0.2200
 1143poe     o2 5072   2.569   5.098   4.982  0.2512  0.0641  0.5214
 1143poe    c23 5073   2.547   5.167   5.102 -0.2722  0.5432  0.1542
 1143poe    c23 5074   2.409   5.125   5.157 -0.3160 -0.0157 -0.3755
 1143poe     o2 5075   2.415   4.985   5.147  0.7502 -0.0605  0.6748
 1143poe    c31 5076   2.317   4.918   5.223 -0.6350  0.2017 -0.8170
 1144poe    c31 5077   1.249   0.765   5.909  0.0505 -0.4461  0.1853
 1144poe     o2 5078   1.314   0.798   6.030  0.5915 -0.4145 -0.1087
 1144poe    c23 5079   1.422   0.887   6.014  0.4411 -0.1967  0.0602
 1144poe    c23 5080   1.379   1.018   6.082  0.0250 -0.1439 -0.2984
 1144poe     o2 5081   1.324   0.979   6.206  0.0017  0.2682 -0.1786
 1144poe    c23 5082   1.302   1.072   6.310 -0.2248  0.0225 -0.0072
 1144poe    c23 5083   1.210   0.997   6.408  0.3600 -0.5271  0.1277
 1144poe     o2 5084   1.261   0.866   6.420 -0.3006 -0.8075 -0.0367
 1144poe    c23 5085   1.330   0.855   6.543 -0.3802  0.0944  0.0922
 1144poe    c23 5086   1.311   0.715   6.603  0.0602 -0.0569 -0.1208
 1144poe     o2 5087   1.359   0.608   6.524 -0.4868 -0.5442  0.2009
 1144poe    c31 5088   1.388   0.502   6.612 -0.2560 -0.7507 -0.1206
 1145poe    c31 5089   2.418   1.395   6.016 -0.1264  0.6047 -0.1315
 1145poe     o2 5090   2.536   1.449   6.071 -0.0218  0.1469  0.1008
 1145poe    c23 5091   2.531   1.479   6.209  0.2979 -0.2814  0.2096
 1145poe    c23 5092   2.680   1.492   6.246  0.1867 -0.2394  0.6372
 1145poe     o2 5093   2.770   1.556   6.159 -0.1736  0.0034  0.4407
 1145poe    c23 5094   2.902   1.514   6.186 -0.1278 -0.1142  0.0479
 1145poe    c23 5095   2.989   1.564   6.070 -0.3406 -0.7190 -0.3779
 1145poe     o2 5096   2.914   1.522   5.959 -0.8425 -0.0225 -0.3108
 1145poe    c23 5097   2.984   1.556   5.841  0.2300 -0.4292  0.1901
 1145poe    c23 5098   2.970   1.449   5.731 -0.1100 -0.1113 -0.0824
 1145poe     o2 5099   2.837   1.406   5.715 -0.0976 -0.1147 -0.1712
 1145poe    c31 5100   2.823   1.344   5.589 -0.0017 -0.4688 -0.0108
 1146poe    c31 5101   2.153   6.767   2.752 -0.4747 -0.2130 -0.1997
 1146poe     o2 5102   2.294   6.767   2.740 -0.5017  0.4088 -0.5638
 1146poe    c23 5103   2.340   6.653   2.671  0.4703 -0.0990  0.8680
 1146poe    c23 5104   2.413   6.543   2.749 -0.0784 -0.4950  0.8262
 1146poe     o2 5105   2.532   6.592   2.807  0.3359 -0.3449 -0.1401
 1146poe    c23 5106   2.609   6.500   2.881  0.9161  0.1965 -0.0624
 1146poe    c23 5107   2.652   6.530   3.026 -0.2676  0.4973  0.2404
 1146poe     o2 5108   2.534   6.544   3.101 -0.6273 -0.5436 -0.1090
 1146poe    c23 5109   2.466   6.668   3.092  0.0921 -0.1291  0.1351
 1146poe    c23 5110   2.336   6.668   3.174  0.1138  0.0474  0.1702
 1146poe     o2 5111   2.274   6.545   3.206 -0.2598  0.1947  0.0196
 1146poe    c31 5112   2.167   6.574   3.293 -0.5501  0.1730 -0.3335
 1147poe    c31 5113   0.767   1.297   6.017 -0.2175  0.0261  0.4989
 1147poe     o2 5114   0.722   1.195   6.104 -0.0225 -0.2986  0.2207
 1147poe    c23 5115   0.681   1.258   6.223 -0.4929  0.1776 -0.1865
 1147poe    c23 5116   0.638   1.154   6.329  0.6031 -0.0391  0.0601
 1147poe     o2 5117   0.590   1.039   6.263  0.8609 -0.3337  0.3836
 1147poe    c23 5118   0.556   0.931   6.347  0.1613 -0.3863  0.0432
 1147poe    c23 5119   0.485   0.810   6.284 -0.4768 -0.2277  0.4470
 1147poe     o2 5120   0.537   0.763   6.161 -0.3127  0.2935  0.3130
 1147poe    c23 5121   0.479   0.635   6.144  0.4877 -0.1320  0.7408
 1147poe    c23 5122   0.488   0.584   5.999  0.3963  0.2075  0.6150
 1147poe     o2 5123   0.430   0.674   5.907  0.9624 -0.5351 -0.4937
 1147poe    c31 5124   0.325   0.611   5.839 -0.0234 -0.0565  0.5562
 1148poe    c31 5125   0.230   5.085   1.571 -0.9194 -0.2866 -0.4405
 1148poe     o2 5126   0.327   5.044   1.477  0.0393  0.4612  0.1975
 1148poe    c23 5127   0.284   4.931   1.405  0.6503 -0.2596  0.9444
 1148poe    c23 5128   0.386   4.896   1.295 -0.2903 -0.1276  0.0092
 1148poe     o2 5129   0.391   4.977   1.179  0.4765  0.4528  0.4341
 1148poe    c23 5130   0.491   4.923   1.097  0.0887 -0.2295  0.4027
 1148poe    c23 5131   0.573   5.030   1.023 -0.1784 -0.3471 -0.0649
 1148poe     o2 5132   0.510   5.089   0.911  0.0852 -0.7726 -0.4391
 1148poe    c23 5133   0.598   5.176   0.844 -0.5897  0.2739 -0.0019
 1148poe    c23 5134   0.571   5.194   0.693  0.3793  0.1605 -0.1983
 1148poe     o2 5135   0.445   5.255   0.672  0.2904  0.2748  0.6146
 1148poe    c31 5136   0.462   5.395   0.673 -0.7187  0.4008  0.5411
 1149poe    c31 5137   4.154   2.487   2.803  0.2924 -0.5839  0.3604
 1149poe     o2 5138   4.069   2.375   2.799 -0.1282 -0.2596  0.0969
 1149poe    c23 5139   3.962   2.375   2.707 -0.1355 -0.1780  0.1050
 1149poe    c23 5140   3.880   2.247   2.733  0.2484 -0.3291  0.5852
 1149poe     o2 5141   3.961   2.132   2.721  1.1776  0.2927  0.7134
 1149poe    c23 5142   3.891   2.027   2.785  0.0431  0.5126 -0.1363
 1149poe    c23 5143   3.952   1.891   2.748  0.0166  0.4959 -0.1191
 1149poe     o2 5144   4.089   1.911   2.720  0.0840  0.1288 -0.0602
 1149poe    c23 5145   4.142   1.800   2.651 -0.2101  0.3440 -0.6417
 1149poe    c23 5146   4.291   1.838   2.659 -0.1953  0.1197  0.2079
 1149poe     o2 5147   4.295   1.952   2.577  0.0735 -0.1343 -0.1318
 1149poe    c31 5148   4.426   2.005   2.585  0.0782 -0.1229 -0.2788
 1150poe    c31 5149   6.422   5.471   3.563  0.6769 -0.1540 -0.1462
 1150poe     o2 5150   6.470   5.571   3.649 -0.0083 -0.0452  0.1149
 1150poe    c23 5151   6.573   5.538   3.740  0.3950  0.1938 -0.2489
 1150poe    c23 5152   6.611   5.637   3.851 -0.1813 -0.1415  0.2593
 1150poe     o2 5153   6.685   5.748   3.804 -0.6762 -0.0183 -0.2360
 1150poe    c23 5154   6.753   5.816   3.907  0.6409 -1.0099 -0.4319
 1150poe    c23 5155   6.745   5.968   3.880 -0.6960 -1.0581 -0.3761
 1150poe     o2 5156   6.788   5.976   3.746  0.0319 -0.8060 -0.1348
 1150poe    c23 5157   6.748   6.098   3.689  0.0538 -0.6146  0.2580
 1150poe    c23 5158   6.776   6.090   3.538 -0.0944 -0.1827  0.2061
 1150poe     o2 5159   6.740   5.963   3.488 -0.4283 -0.0412  0.0793
 1150poe    c31 5160   6.742   5.955   3.348 -0.2033 -0.1219  0.0865
 1151poe    c31 5161   5.721   6.815   6.952 -0.0362 -0.1374 -0.2602
 1151poe     o2 5162   5.757   6.679   6.962  0.0542 -0.0659  0.4081
 1151poe    c23 5163   5.691   6.629   7.076 -0.2331 -0.1221  0.2169
 1151poe    c23 5164   5.695   6.477   7.098  0.5342 -0.0275  0.7516
 1151poe     o2 5165   5.829   6.437   7.116  0.6340 -0.0881 -0.0732
 1151poe    c23 5166   5.843   6.301   7.080  0.5891 -0.1360  0.0904
 1151poe    c23 5167   5.911   6.242   7.205  0.1313 -1.2293 -0.1686
 1151poe     o2 5168   6.016   6.314   7.265 -0.4419  0.1222 -0.7582
 1151poe    c23 5169   6.069   6.243   7.375  0.1122  0.3473 -0.8757
 1151poe    c23 5170   6.151   6.349   7.449 -0.0410  0.0158 -0.2245
 1151poe     o2 5171   6.062   6.457   7.467  0.2144  0.1310  0.3680
 1151poe    c31 5172   6.110   6.541   7.570  0.5740  0.4373 -0.0396
 1152poe    c31 5173   2.614   5.237   6.835 -0.1325  0.2018 -0.2227
 1152poe     o2 5174   2.597   5.110   6.894  0.2060  0.0338 -0.4808
 1152poe    c23 5175   2.552   5.008   6.807 -0.0340 -0.1378 -0.1593
 1152poe    c23 5176   2.566   4.869   6.870  0.0122 -0.0250  0.0820
 1152poe     o2 5177   2.543   4.879   7.009 -0.3128  0.1599  0.0141
 1152poe    c23 5178   2.511   4.750   7.056  0.5260 -0.1848 -0.3334
 1152poe    c23 5179   2.490   4.745   7.208 -0.0173  0.0337 -0.3981
 1152poe     o2 5180   2.407   4.850   7.254 -0.7124 -0.5012 -0.4080
 1152poe    c23 5181   2.366   4.841   7.388  0.5111 -0.1458  0.0054
 1152poe    c23 5182   2.285   4.967   7.422 -0.1652 -0.2111 -1.3297
 1152poe     o2 5183   2.375   5.075   7.416 -0.1959 -0.1417 -0.6101
 1152poe    c31 5184   2.331   5.196   7.474  1.1433  0.1208 -0.0944
 1153poe    c31 5185   1.795   5.061   6.067  0.5017  0.7116  0.2834
 1153poe     o2 5186   1.852   5.023   5.943 -0.5587 -0.0922  0.0308
 1153poe    c23 5187   1.904   4.892   5.937 -0.0635  0.1173 -0.2127
 1153poe    c23 5188   1.992   4.873   5.812 -0.2281  0.4307 -0.3783
 1153poe     o2 5189   1.917   4.931   5.707 -0.7804  0.3299 -0.0416
 1153poe    c23 5190   1.940   4.898   5.572 -0.5028  0.3093  0.0098
 1153poe    c23 5191   1.920   5.011   5.469  0.7027 -0.0877 -0.6756
 1153poe     o2 5192   1.790   5.065   5.463  0.6239 -0.1342  0.4197
 1153poe    c23 5193   1.783   5.159   5.359 -0.8266 -1.0186 -0.3152
 1153poe    c23 5194   1.676   5.269   5.369  0.5395  0.3444 -0.2790
 1153poe     o2 5195   1.704   5.315   5.499  0.0852 -0.0664 -0.0327
 1153poe    c31 5196   1.593   5.387   5.546  0.4189  0.2316  0.3113
 1154poe    c31 5197   3.267   3.706   4.045 -0.4561 -0.1236 -0.3952
 1154poe     o2 5198   3.143   3.703   3.979 -0.8139 -0.9999  0.3113
 1154poe    c23 5199   3.079   3.823   4.017 -0.0419 -0.4385 -0.1406
 1154poe    c23 5200   2.940   3.815   3.951 -0.3531  0.4861  0.3929
 1154poe     o2 5201   2.876   3.696   3.990 -0.5399  0.4806  0.0701
 1154poe    c23 5202   2.751   3.685   3.926 -0.1478 -0.0919 -0.6157
 1154poe    c23 5203   2.682   3.554   3.967 -0.4434  0.0765 -0.5733
 1154poe     o2 5204   2.764   3.461   3.900 -0.1015  0.1403 -0.2475
 1154poe    c23 5205   2.713   3.332   3.926  0.4034  0.0120  0.1339
 1154poe    c23 5206   2.788   3.219   3.854 -0.0380 -0.1072 -0.1419
 1154poe     o2 5207   2.917   3.210   3.909 -0.4182 -0.3954  0.7236
 1154poe    c31 5208   2.979   3.091   3.866 -0.2915 -0.2601  0.5304
 1155poe    c31 5209   2.334   0.983   3.005  0.5717  0.1984 -0.0276
 1155poe     o2 5210   2.223   0.972   3.092  0.9980 -0.5245  0.4308
 1155poe    c23 5211   2.166   1.100   3.100  0.4577 -0.7368  0.0719
 1155poe    c23 5212   2.028   1.101   3.167  0.2568 -0.0149 -0.3342
 1155poe     o2 5213   1.968   0.985   3.113 -0.2337  0.0419  0.0818
 1155poe    c23 5214   1.854   0.946   3.187 -0.2891  0.2600  0.1131
 1155poe    c23 5215   1.795   0.820   3.120  0.2546 -0.3489  0.7647
 1155poe     o2 5216   1.901   0.731   3.091  0.4278 -0.0014  0.3101
 1155poe    c23 5217   1.844   0.603   3.075  0.2808  0.1215 -0.1624
 1155poe    c23 5218   1.936   0.481   3.093 -0.1717 -0.1797  0.1208
 1155poe     o2 5219   1.994   0.506   3.219 -0.1750  0.5122 -0.0124
 1155poe    c31 5220   2.068   0.395   3.266  0.2874  0.7227 -0.2305
 1156poe    c31 5221   0.195   2.523   4.060  0.3047  0.4547  0.3827
 1156poe     o2 5222   0.159   2.543   4.195 -0.0357 -0.6781  0.4719
 1156poe    c23 5223   0.022   2.515   4.209 -0.3078  0.3894  0.0130
 1156poe    c23 5224  -0.014   2.517   4.358 -0.3733 -0.3183  0.0111
 1156poe     o2 5225   0.060   2.428   4.439  0.3337  0.0774 -0.1874
 1156poe    c23 5226   0.022   2.426   4.575  0.2047  0.3347 -0.2187
 1156poe    c23 5227   0.137   2.375   4.663  0.6748  0.8404 -0.5389
 1156poe     o2 5228   0.179   2.253   4.606 -0.5236  0.2652 -0.2178
 1156poe    c23 5229   0.292   2.201   4.673 -0.6002  0.3783 -0.0013
 1156poe    c23 5230   0.318   2.070   4.597  0.0184  0.5415 -0.0794
 1156poe     o2 5231   0.308   2.103   4.461  0.2435 -0.2113 -0.2814
 1156poe    c31 5232   0.389   2.022   4.378  0.0578  0.0130 -0.6868
 1157poe    c31 5233   4.200   4.966   2.614  0.9187 -0.0747 -0.3785
 1157poe     o2 5234   4.097   4.969   2.711  0.5378 -0.7713 -0.7546
 1157poe    c23 5235   4.129   4.892   2.825  0.1461  0.0190 -0.1079
 1157poe    c23 5236   4.008   4.857   2.913  0.2693 -0.0357  0.0393
 1157poe     o2 5237   3.942   4.970   2.967 -0.3330 -0.1149 -0.5245
 1157poe    c23 5238   3.814   4.934   3.014 -0.0258 -0.3452  0.1408
 1157poe    c23 5239   3.738   5.057   3.066  0.2394 -0.3460  0.5314
 1157poe     o2 5240   3.824   5.143   3.138  0.3821 -0.1557  0.1328
 1157poe    c23 5241   3.773   5.250   3.214  0.2011 -0.0892 -0.0809
 1157poe    c23 5242   3.882   5.348   3.259  0.5867 -0.3307 -0.4837
 1157poe     o2 5243   3.976   5.376   3.157  0.5869 -0.7991 -0.6121
 1157poe    c31 5244   4.068   5.475   3.196 -0.2256 -0.2680  0.0020
 1158poe    c31 5245   6.959   0.834   3.207 -0.0720 -0.5435  0.0544
 1158poe     o2 5246   6.936   0.763   3.088 -0.5271  0.1298 -0.2649
 1158poe    c23 5247   6.825   0.677   3.097 -0.0283 -0.5314 -0.3649
 1158poe    c23 5248   6.857   0.551   3.014  0.1559 -0.5296 -0.2964
 1158poe     o2 5249   6.834   0.553   2.875 -0.4199 -0.5294 -0.2030
 1158poe    c23 5250   6.921   0.452   2.828  0.0319 -0.1708 -0.1380
 1158poe    c23 5251   6.969   0.478   2.684  0.1810 -0.4727 -0.1432
 1158poe     o2 5252   6.986   0.613   2.648 -0.9364 -0.4193 -0.4977
 1158poe    c23 5253   7.011   0.625   2.510 -0.4345 -0.8021 -0.4403
 1158poe    c23 5254   7.039   0.773   2.477  0.0806 -0.6825  0.4840
 1158poe     o2 5255   6.930   0.844   2.531  0.1078 -0.2481 -0.0285
 1158poe    c31 5256   6.938   0.983   2.506  0.2072 -0.1330  0.6197
 1159poe    c31 5257   4.900   6.781   1.792 -0.5040 -0.3467 -0.0277
 1159poe     o2 5258   4.953   6.677   1.870 -0.2980 -0.2719 -0.0678
 1159poe    c23 5259   5.087   6.649   1.834 -0.2025 -0.1705  0.2036
 1159poe    c23 5260   5.126   6.510   1.887 -0.0781 -0.2771 -0.1668
 1159poe     o2 5261   5.092   6.510   2.024 -0.5844 -0.0859 -0.2885
 1159poe    c23 5262   5.115   6.390   2.095  0.3364  0.0798 -0.2917
 1159poe    c23 5263   5.111   6.415   2.247  0.1642  0.2837 -0.3309
 1159poe     o2 5264   4.999   6.494   2.281 -0.1736 -0.5341  0.4868
 1159poe    c23 5265   4.996   6.513   2.421  0.4348  0.1099  0.4216
 1159poe    c23 5266   5.095   6.610   2.488  0.6404 -0.1020  0.4278
 1159poe     o2 5267   5.069   6.736   2.432  0.3399 -0.2969  0.1258
 1159poe    c31 5268   5.108   6.844   2.515 -0.2735  0.1035 -0.0985
 1160poe    c31 5269   6.406   1.521   3.523  0.0289  0.0125  0.2546
 1160poe     o2 5270   6.511   1.471   3.443 -0.2441  0.0639 -0.1405
 1160poe    c23 5271   6.478   1.346   3.385  0.5455 -0.1935 -0.0459
 1160poe    c23 5272   6.608   1.307   3.312  0.3074 -0.5568 -0.2750
 1160poe     o2 5273   6.628   1.427   3.240 -0.5057 -0.2632 -0.0199
 1160poe    c23 5274   6.744   1.422   3.160 -0.3703 -0.1407  0.1699
 1160poe    c23 5275   6.764   1.560   3.095  0.2652 -0.1359  0.3706
 1160poe     o2 5276   6.725   1.643   3.203 -0.8580 -0.2455  0.0588
 1160poe    c23 5277   6.695   1.776   3.166  0.3240 -0.0638 -0.2816
 1160poe    c23 5278   6.548   1.788   3.211  0.3432  0.0415 -0.2435
 1160poe     o2 5279   6.528   1.753   3.346  0.6545  0.3420 -0.1171
 1160poe    c31 5280   6.528   1.870   3.424 -0.0703  0.1314  0.2101
 1161poe    c31 5281   2.222   1.076   1.938  0.2827  0.1311  0.1642
 1161poe     o2 5282   2.083   1.089   1.957  0.2091 -0.5157  0.0735
 1161poe    c23 5283   2.027   1.180   1.865  0.4448 -0.0765  0.3611
 1161poe    c23 5284   1.910   1.241   1.944  0.0412 -0.5249  0.1153
 1161poe     o2 5285   1.827   1.139   1.996  0.2044 -0.3986  0.6323
 1161poe    c23 5286   1.732   1.180   2.091 -0.0050  0.5944  0.0145
 1161poe    c23 5287   1.699   1.043   2.155  0.4284  0.6355  0.3311
 1161poe     o2 5288   1.820   0.972   2.169  0.2743  0.4013  0.4710
 1161poe    c23 5289   1.831   0.880   2.275 -0.0938  0.1630  0.3041
 1161poe    c23 5290   1.957   0.797   2.244 -0.5519 -0.5042  0.2142
 1161poe     o2 5291   2.040   0.877   2.164 -0.7548 -0.5352 -0.0277
 1161poe    c31 5292   2.169   0.821   2.153 -0.4898  0.0518  0.0547
 1162poe    c31 5293   4.976   2.444   5.530 -0.6568 -0.6060 -0.7294
 1162poe     o2 5294   4.937   2.407   5.660  0.1216  0.0230 -0.3015
 1162poe    c23 5295   4.881   2.277   5.658 -0.0143  0.0687  0.1982
 1162poe    c23 5296   4.884   2.229   5.804 -0.3286  0.3070  0.2825
 1162poe     o2 5297   4.882   2.341   5.890  0.0527  0.3221  0.2725
 1162poe    c23 5298   4.909   2.301   6.022 -0.2538 -0.3426  0.1355
 1162poe    c23 5299   4.884   2.438   6.086 -0.0642  0.2878 -1.1145
 1162poe     o2 5300   4.957   2.536   6.016  0.8412  0.1221 -0.4124
 1162poe    c23 5301   4.964   2.660   6.084 -0.1846 -0.0432  0.0022
 1162poe    c23 5302   4.830   2.736   6.081 -0.2282 -0.1133  0.1912
 1162poe     o2 5303   4.805   2.764   5.945  0.0778  0.5707  0.2731
 1162poe    c31 5304   4.690   2.846   5.941 -0.2360  0.1426  0.4370
 1163poe    c31 5305   6.658   4.069   6.595  0.0287  0.4404  0.2054
 1163poe     o2 5306   6.639   4.034   6.730 -0.4286  0.2520  0.0936
 1163poe    c23 5307   6.509   4.072   6.768 -0.6588 -0.1862 -0.2398
 1163poe    c23 5308   6.485   4.020   6.912  0.1688 -0.7982 -0.3138
 1163poe     o2 5309   6.607   3.967   6.957  0.2392 -0.2978  0.0981
 1163poe    c23 5310   6.586   3.899   7.079 -0.5363 -0.4960 -0.1386
 1163poe    c23 5311   6.717   3.898   7.160 -0.5613 -0.1074 -0.0895
 1163poe     o2 5312   6.832   3.862   7.085 -0.3276  0.1273  0.1549
 1163poe    c23 5313   6.939   3.879   7.175 -0.0966  0.4029 -0.1713
 1163poe    c23 5314   7.076   3.881   7.103  0.0972  0.2737  0.1923
 1163poe     o2 5315   7.093   3.995   7.023 -0.1489  0.0887 -0.1254
 1163poe    c31 5316   7.203   3.967   6.938 -0.4493 -0.4350 -0.3418
 1164poe    c31 5317   3.118   1.163   1.429  0.4949  0.8205  0.6634
 1164poe     o2 5318   3.075   1.298   1.435  0.1209  0.7341  0.0019
 1164poe    c23 5319   3.187   1.380   1.409  0.2533  0.6088  0.1720
 1164poe    c23 5320   3.150   1.529   1.395  0.0684  0.5908  0.4588
 1164poe     o2 5321   3.064   1.554   1.503  0.3343  0.3088  0.7414
 1164poe    c23 5322   3.061   1.694   1.523  0.5137  0.3306  0.6119
 1164poe    c23 5323   2.952   1.745   1.619 -0.1701  0.4160 -0.1889
 1164poe     o2 5324   2.820   1.696   1.616 -0.1756  0.3880  0.3988
 1164poe    c23 5325   2.738   1.725   1.727  0.4226  0.4699  0.8286
 1164poe    c23 5326   2.595   1.682   1.690  0.8701 -0.0788 -0.3220
 1164poe     o2 5327   2.605   1.590   1.584  0.2641 -0.4738 -0.0472
 1164poe    c31 5328   2.499   1.499   1.602  0.0652 -0.2915 -0.2944
 1165poe    c31 5329   0.859   4.113   0.165 -1.2174  0.2159  0.3855
 1165poe     o2 5330   0.893   4.250   0.166  0.6671 -0.2178  0.0775
 1165poe    c23 5331   0.931   4.296   0.038  0.3714 -0.1699  0.0054
 1165poe    c23 5332   0.967   4.446   0.050  0.4257 -0.1883  0.0748
 1165poe     o2 5333   0.859   4.537   0.050  0.1656 -0.4927  0.0536
 1165poe    c23 5334   0.871   4.677   0.036 -0.4170 -0.3615  0.8021
 1165poe    c23 5335   0.735   4.747   0.015 -0.2652 -0.3597 -0.2570
 1165poe     o2 5336   0.660   4.737  -0.103  0.1816  0.1761 -0.5904
 1165poe    c23 5337   0.537   4.804  -0.093 -0.0480 -0.2910 -0.2491
 1165poe    c23 5338   0.427   4.724  -0.020  0.1989 -0.1053  0.3315
 1165poe     o2 5339   0.354   4.635  -0.101 -0.2567  0.4575  0.1181
 1165poe    c31 5340   0.240   4.599  -0.026 -0.0945 -0.0652  0.1154
 1166poe    c31 5341   5.300   2.133   6.746 -0.4275 -0.1325  0.0636
 1166poe     o2 5342   5.352   2.198   6.860  0.5858  0.6914 -0.8432
 1166poe    c23 5343   5.488   2.234   6.851  0.8669 -0.1606 -0.1744
 1166poe    c23 5344   5.549   2.251   6.991  0.2714  0.3376  0.0282
 1166poe     o2 5345   5.479   2.321   7.092  0.1601 -0.4369  0.5049
 1166poe    c23 5346   5.575   2.407   7.150 -0.1112  0.0450  0.2494
 1166poe    c23 5347   5.514   2.515   7.241  0.8035  0.3435  0.5212
 1166poe     o2 5348   5.410   2.445   7.306  0.2425  0.5419 -0.1485
 1166poe    c23 5349   5.364   2.515   7.420 -0.1173 -0.3237  0.2472
 1166poe    c23 5350   5.220   2.462   7.432 -0.2659 -0.0098 -0.1314
 1166poe     o2 5351   5.233   2.324   7.404 -0.2728 -0.1983  0.7504
 1166poe    c31 5352   5.110   2.265   7.439 -0.7678  0.6767  0.5142
 1167poe    c31 5353   5.874   3.256   4.349  0.3111 -0.3831  0.3690
 1167poe     o2 5354   5.740   3.253   4.394  0.1893  0.0342  0.0364
 1167poe    c23 5355   5.738   3.278   4.532 -0.8416  0.1963 -0.0057
 1167poe    c23 5356   5.614   3.209   4.594 -0.3243 -0.2602  0.5383
 1167poe     o2 5357   5.513   3.282   4.528 -0.0512 -0.1909  0.1935
 1167poe    c23 5358   5.379   3.243   4.543 -0.1688  0.0570 -0.1998
 1167poe    c23 5359   5.318   3.325   4.428 -0.1914  0.6241  0.2137
 1167poe     o2 5360   5.416   3.309   4.328 -0.7466 -0.0545 -0.2305
 1167poe    c23 5361   5.374   3.291   4.194 -0.0524 -0.1102 -0.4444
 1167poe    c23 5362   5.447   3.172   4.128  0.3342 -0.0835 -0.0762
 1167poe     o2 5363   5.581   3.181   4.170  0.0772  0.0311  0.7306
 1167poe    c31 5364   5.657   3.079   4.111 -0.4678  0.3090 -0.4823
 1168poe    c31 5365   1.393   6.680   1.678  0.0372 -0.0603  0.2008
 1168poe     o2 5366   1.268   6.726   1.632  0.3962  0.3407 -0.3954
 1168poe    c23 5367   1.200   6.620   1.568 -0.0351  0.1330  0.3947
 1168poe    c23 5368   1.059   6.642   1.509  0.2368  0.6794 -0.0632
 1168poe     o2 5369   1.063   6.707   1.384 -0.0918  0.3520 -0.2464
 1168poe    c23 5370   0.941   6.707   1.314  0.1455 -0.0633 -0.6653
 1168poe    c23 5371   0.950   6.702   1.160 -0.5518  0.3730 -0.7246
 1168poe     o2 5372   1.008   6.817   1.103  0.2529  0.1701 -0.3301
 1168poe    c23 5373   1.040   6.799   0.967 -0.3274 -0.3024 -0.4086
 1168poe    c23 5374   1.191   6.786   0.941 -0.1189 -0.1716  0.7094
 1168poe     o2 5375   1.255   6.882   1.023  0.1060 -0.1569  0.5206
 1168poe    c31 5376   1.389   6.910   0.993  0.0834 -0.4999  0.0854
 1169poe    c31 5377   6.826   2.078   0.547  0.2902  0.0568 -0.1235
 1169poe     o2 5378   6.750   2.190   0.505 -0.1831 -0.2261 -0.0232
 1169poe    c23 5379   6.814   2.303   0.559  0.1560 -0.4482  0.0457
 1169poe    c23 5380   6.733   2.434   0.555  0.0986 -0.4785  0.1890
 1169poe     o2 5381   6.641   2.449   0.661  0.1625 -0.4370  0.2387
 1169poe    c23 5382   6.697   2.493   0.782 -0.1364 -0.0802  0.2508
 1169poe    c23 5383   6.615   2.594   0.864 -0.1557  0.1646 -0.0671
 1169poe     o2 5384   6.483   2.546   0.871 -0.1089 -0.0093 -0.3536
 1169poe    c23 5385   6.400   2.637   0.940  0.0161 -0.3849  0.3089
 1169poe    c23 5386   6.254   2.590   0.935 -0.2805  0.5690 -0.3708
 1169poe     o2 5387   6.238   2.553   0.799 -0.1355 -0.5548 -0.0968
 1169poe    c31 5388   6.104   2.531   0.761 -0.2132 -0.1086 -0.0906
 1170poe    c31 5389   5.142   5.421   5.681 -0.2407 -0.4869  0.1091
 1170poe     o2 5390   5.208   5.400   5.559 -0.4815 -0.1847 -0.0745
 1170poe    c23 5391   5.141   5.297   5.489 -0.0790 -0.2410 -0.3795
 1170poe    c23 5392   5.199   5.260   5.351 -0.1868 -0.8212 -0.2740
 1170poe     o2 5393   5.319   5.188   5.366  0.4730  0.1158 -0.9006
 1170poe    c23 5394   5.378   5.138   5.248  0.6074 -0.3515 -0.6394
 1170poe    c23 5395   5.501   5.057   5.294  0.1532 -0.6663  0.0418
 1170poe     o2 5396   5.576   5.142   5.377 -0.7109  0.0542  0.0997
 1170poe    c23 5397   5.692   5.079   5.427 -0.4100  0.5120 -0.0094
 1170poe    c23 5398   5.776   5.188   5.497 -0.0519  0.3117 -0.1302
 1170poe     o2 5399   5.691   5.277   5.565 -0.1153 -0.2038  0.4761
 1170poe    c31 5400   5.745   5.362   5.663  0.2705  0.3552 -0.2134
 1171poe    c31 5401   6.136   3.998   1.158 -0.5186 -0.2932 -0.1193
 1171poe     o2 5402   6.115   3.934   1.033  0.2607 -0.1897 -0.3083
 1171poe    c23 5403   6.025   3.830   1.064 -0.0292  0.1645  0.0625
 1171poe    c23 5404   6.002   3.724   0.955  0.7844  0.0039  0.0408
 1171poe     o2 5405   5.949   3.789   0.842  0.1093 -0.2685  0.1977
 1171poe    c23 5406   5.978   3.728   0.719 -0.1362 -0.0261  0.0186
 1171poe    c23 5407   6.061   3.818   0.626 -0.1508 -0.4802 -0.4461
 1171poe     o2 5408   6.155   3.884   0.708 -0.0320 -0.2129 -0.7944
 1171poe    c23 5409   6.239   3.962   0.627  0.6383  0.2535  0.3202
 1171poe    c23 5410   6.361   4.002   0.712  0.7392  0.2710  0.1682
 1171poe     o2 5411   6.311   4.058   0.831  0.2761  0.0320  0.0885
 1171poe    c31 5412   6.412   4.089   0.924  0.2004  0.1576  0.1283
 1172poe    c31 5413   4.659   2.750   2.368  0.3555  0.8602  0.2959
 1172poe     o2 5414   4.619   2.843   2.270  1.1433  0.1726 -0.6916
 1172poe    c23 5415   4.615   2.790   2.140  0.5857 -0.1341 -0.5520
 1172poe    c23 5416   4.567   2.881   2.025 -0.0432 -0.2055 -0.3477
 1172poe     o2 5417   4.437   2.922   2.061  0.0986  0.1203 -0.2049
 1172poe    c23 5418   4.394   3.020   1.969  0.0579  0.1510 -0.1534
 1172poe    c23 5419   4.244   3.051   1.985  0.0071 -0.1684 -0.0084
 1172poe     o2 5420   4.157   2.947   1.949 -0.1053 -0.1308  0.1498
 1172poe    c23 5421   4.024   2.994   1.950  0.0271  0.2659 -0.4059
 1172poe    c23 5422   3.933   2.896   1.874 -0.1025  0.1209 -0.0670
 1172poe     o2 5423   3.903   2.779   1.946  1.0602 -0.1581 -0.0217
 1172poe    c31 5424   3.905   2.664   1.864  0.6316 -0.1141 -0.0957
 1173poe    c31 5425   6.979   1.131   0.996 -0.5229 -0.4636 -1.4521
 1173poe     o2 5426   7.114   1.117   0.954 -0.0391 -0.9348  0.1875
 1173poe    c23 5427   7.118   1.056   0.827 -0.4204 -0.3850 -0.0960
 1173poe    c23 5428   7.259   1.004   0.795  0.1196  0.4936  0.7745
 1173poe     o2 5429   7.300   0.905   0.887 -0.2461 -0.4142 -0.0172
 1173poe    c23 5430   7.423   0.928   0.951 -0.2072  0.3317 -0.3542
 1173poe    c23 5431   7.487   0.797   1.000  0.1109  0.3893 -0.6135
 1173poe     o2 5432   7.484   0.705   0.893 -0.4699  0.2285 -0.4621
 1173poe    c23 5433   7.546   0.586   0.934 -0.4689  0.1921 -0.5680
 1173poe    c23 5434   7.489   0.491   0.827 -0.1789 -0.6094 -0.0212
 1173poe     o2 5435   7.349   0.493   0.812 -0.1642 -0.4131 -0.1313
 1173poe    c31 5436   7.307   0.368   0.762  0.1565 -0.6283  0.1314
 1174poe    c31 5437   4.322   4.746   3.107 -0.5945  0.3526 -0.1797
 1174poe     o2 5438   4.361   4.651   3.011 -0.7456 -0.2648  0.3680
 1174poe    c23 5439   4.287   4.534   3.040 -0.1061 -0.7155  0.2297
 1174poe    c23 5440   4.290   4.451   2.911  0.0442  0.0103 -0.2383
 1174poe     o2 5441   4.418   4.408   2.869  0.1092  0.0800 -0.1116
 1174poe    c23 5442   4.415   4.267   2.869  0.0764  0.0773  0.5181
 1174poe    c23 5443   4.555   4.231   2.817  0.0394  0.1574  0.3629
 1174poe     o2 5444   4.600   4.323   2.719 -0.2588  0.4593  0.5048
 1174poe    c23 5445   4.738   4.298   2.702 -0.3603  0.0938  0.2006
 1174poe    c23 5446   4.793   4.403   2.602 -0.0293 -0.3796 -0.1207
 1174poe     o2 5447   4.764   4.527   2.663  0.4083 -0.2198 -0.2375
 1174poe    c31 5448   4.844   4.633   2.615  0.4435 -0.1141  0.0554
 1175poe    c31 5449   1.071   4.684   3.671  0.3287 -0.9396  0.5805
 1175poe     o2 5450   0.996   4.625   3.775  0.4164  0.2382  1.3180
 1175poe    c23 5451   0.895   4.705   3.833 -0.4938  0.3242 -0.3436
 1175poe    c23 5452   0.831   4.617   3.941  0.5236  0.1588  0.1378
 1175poe     o2 5453   0.824   4.485   3.893  0.2736  0.2950 -0.2046
 1175poe    c23 5454   0.762   4.397   3.985  0.1760  0.1122 -0.4435
 1175poe    c23 5455   0.767   4.247   3.950  0.2590  0.0559 -0.1953
 1175poe     o2 5456   0.904   4.215   3.936  0.3853  0.4527  0.1171
 1175poe    c23 5457   0.951   4.140   4.046  0.0527 -0.0623 -0.0929
 1175poe    c23 5458   1.093   4.087   4.020  0.2770  0.3163  0.3632
 1175poe     o2 5459   1.177   4.194   3.984 -0.0949  0.6961  0.6234
 1175poe    c31 5460   1.312   4.155   3.991 -0.3119 -0.1503  0.2230
 1176poe    c31 5461   3.310   2.782   5.682  0.0262  0.0897 -0.0023
 1176poe     o2 5462   3.188   2.852   5.695  0.2457  0.3870  0.4991
 1176poe    c23 5463   3.125   2.810   5.814  0.0705 -0.1953  0.2025
 1176poe    c23 5464   3.080   2.919   5.912  0.2638  0.2916 -0.2468
 1176poe     o2 5465   2.990   3.005   5.845 -0.0888 -0.0908 -0.2677
 1176poe    c23 5466   2.909   3.080   5.933  0.0245 -0.2211 -0.0502
 1176poe    c23 5467   2.774   3.103   5.863 -0.0941  0.4004  0.3695
 1176poe     o2 5468   2.787   3.160   5.734 -0.8983  0.2560  0.2163
 1176poe    c23 5469   2.789   3.300   5.745  0.0176  0.3001 -0.3575
 1176poe    c23 5470   2.816   3.366   5.609  0.3861  0.3238 -0.2748
 1176poe     o2 5471   2.949   3.343   5.570  0.2797 -0.5606 -0.1419
 1176poe    c31 5472   2.979   3.435   5.467 -0.5366 -0.1009  0.0208
 1177poe    c31 5473   0.114   3.539   4.168  0.2525 -0.8589  0.0642
 1177poe     o2 5474   0.057   3.652   4.106  0.9028 -0.6723 -0.2029
 1177poe    c23 5475   0.121   3.681   3.984  0.8293  0.5246  0.0315
 1177poe    c23 5476   0.034   3.793   3.921  0.0909  0.1100  0.3013
 1177poe     o2 5477  -0.100   3.754   3.900  0.0963  0.1212  0.2450
 1177poe    c23 5478  -0.178   3.871   3.886 -0.0657 -0.0019  0.1183
 1177poe    c23 5479  -0.327   3.832   3.887 -0.0582 -0.0270  0.2188
 1177poe     o2 5480  -0.364   3.725   3.803  0.3292 -0.3758  0.4803
 1177poe    c23 5481  -0.482   3.672   3.860  0.1554  0.0592  0.5345
 1177poe    c23 5482  -0.508   3.537   3.790  0.1529  0.1744  0.3105
 1177poe     o2 5483  -0.388   3.473   3.752 -0.2677  0.0780 -0.8815
 1177poe    c31 5484  -0.409   3.333   3.750 -0.2015  0.0155  0.8264
 1178poe    c31 5485   1.952   2.551   1.172 -0.0247  0.0998  0.6835
 1178poe     o2 5486   2.092   2.535   1.169 -0.0315  0.1473 -0.2189
 1178poe    c23 5487   2.134   2.570   1.040 -0.3704 -0.2442 -0.4391
 1178poe    c23 5488   2.285   2.538   1.033 -0.3721 -0.2547 -0.4232
 1178poe     o2 5489   2.335   2.578   1.158  0.4804  0.2664 -0.9266
 1178poe    c23 5490   2.465   2.535   1.191 -0.0835 -0.2024  0.7913
 1178poe    c23 5491   2.494   2.613   1.321  0.6201  0.3752  0.3006
 1178poe     o2 5492   2.387   2.569   1.402  0.4100  0.0340 -0.1593
 1178poe    c23 5493   2.376   2.619   1.533  0.1733 -0.1112 -0.1233
 1178poe    c23 5494   2.247   2.556   1.590 -0.0910  0.8793  0.3972
 1178poe     o2 5495   2.148   2.550   1.490  0.6496 -0.7171 -0.2764
 1178poe    c31 5496   2.020   2.529   1.546  0.4520 -0.3641 -0.5942
 1179poe    c31 5497   4.359   6.715   6.352 -0.2686  0.2584  0.5844
 1179poe     o2 5498   4.325   6.827   6.273  0.1850  0.4780  0.6979
 1179poe    c23 5499   4.190   6.825   6.233  0.4747  0.0458 -0.2735
 1179poe    c23 5500   4.158   6.925   6.120 -0.4026  0.2685  0.1638
 1179poe     o2 5501   4.221   7.049   6.147  0.4701 -0.1115 -0.0744
 1179poe    c23 5502   4.202   7.134   6.036  0.4556 -0.0338 -0.0132
 1179poe    c23 5503   4.272   7.268   6.068 -0.3313  0.3173  0.2543
 1179poe     o2 5504   4.387   7.236   6.142 -0.2038  0.6677  0.2109
 1179poe    c23 5505   4.463   7.353   6.161  0.2498  0.4588 -0.2989
 1179poe    c23 5506   4.581   7.353   6.260  0.2790 -0.3924 -0.3218
 1179poe     o2 5507   4.544   7.296   6.383  0.4207  0.7677  0.2799
 1179poe    c31 5508   4.653   7.236   6.449  0.2994  0.4039  0.1529
 1180poe    c31 5509   1.218   1.741   1.297  0.5138  0.1334 -0.1709
 1180poe     o2 5510   1.268   1.791   1.419 -0.1862 -0.2555  0.2845
 1180poe    c23 5511   1.162   1.858   1.482  0.0002  0.0620  0.2624
 1180poe    c23 5512   1.185   1.878   1.633  0.0770 -0.1975  0.2851
 1180poe     o2 5513   1.320   1.913   1.655  0.0361  0.1054  0.0690
 1180poe    c23 5514   1.341   1.899   1.794 -0.2576  0.2206  0.1252
 1180poe    c23 5515   1.486   1.950   1.798 -0.1698  0.0352 -0.5073
 1180poe     o2 5516   1.565   1.905   1.691  0.1932 -0.3746 -0.0710
 1180poe    c23 5517   1.701   1.927   1.718  0.2115 -1.0926  0.4580
 1180poe    c23 5518   1.793   1.893   1.599  0.0135  0.4968 -0.1791
 1180poe     o2 5519   1.762   1.949   1.474 -0.3682 -0.4914 -0.5346
 1180poe    c31 5520   1.823   1.878   1.368  0.4796 -0.1353 -0.2864
 1181poe    c31 5521   1.672   0.165   0.967  0.1396  0.6409  0.3762
 1181poe     o2 5522   1.690   0.175   0.827 -0.5413 -0.5226  0.1877
 1181poe    c23 5523   1.604   0.265   0.761  0.4764  0.2000 -0.1986
 1181poe    c23 5524   1.676   0.284   0.627  0.7310  0.1140 -0.0756
 1181poe     o2 5525   1.706   0.161   0.565 -0.2138  0.1867 -0.7045
 1181poe    c23 5526   1.653   0.154   0.435 -0.7361  0.1138 -0.4927
 1181poe    c23 5527   1.702   0.031   0.355  0.1876  0.5918 -0.6718
 1181poe     o2 5528   1.836   0.022   0.399  0.1377  0.5104 -0.5344
 1181poe    c23 5529   1.885  -0.081   0.316 -0.3695 -0.6189  0.5403
 1181poe    c23 5530   2.022  -0.136   0.360  0.0171 -0.1749 -0.0936
 1181poe     o2 5531   2.025  -0.112   0.499 -0.2291 -0.0711 -0.1064
 1181poe    c31 5532   2.143  -0.142   0.570 -0.2651  0.7457  0.3098
 1182poe    c31 5533   1.446   1.675   5.661 -0.1263 -0.2356 -0.1757
 1182poe     o2 5534   1.491   1.542   5.663  0.5507 -0.0043  0.1638
 1182poe    c23 5535   1.443   1.482   5.781  0.2344 -0.3771 -0.1517
 1182poe    c23 5536   1.489   1.334   5.782  0.1145 -0.4137 -0.1088
 1182poe     o2 5537   1.412   1.261   5.689  0.1001  0.0861 -0.4943
 1182poe    c23 5538   1.479   1.138   5.679  0.4687  0.2585 -0.1631
 1182poe    c23 5539   1.383   1.030   5.627  0.0332  0.8499 -0.5977
 1182poe     o2 5540   1.311   1.103   5.530 -0.6295  0.2207 -0.5861
 1182poe    c23 5541   1.206   1.029   5.471 -0.4810 -0.0752 -0.4798
 1182poe    c23 5542   1.118   1.111   5.376 -0.0473  0.1181 -0.7153
 1182poe     o2 5543   1.088   1.237   5.432  0.1289  0.0661 -0.5045
 1182poe    c31 5544   0.995   1.312   5.357 -0.2774  0.2630  0.1891
 1183poe    c31 5545   5.727   2.751   0.711 -0.6954  0.1154 -0.5215
 1183poe     o2 5546   5.646   2.835   0.790 -0.1174  0.5234 -0.3650
 1183poe    c23 5547   5.672   2.810   0.926 -0.8185 -0.0883 -0.3420
 1183poe    c23 5548   5.589   2.888   1.029 -0.7556 -0.0379 -0.3290
 1183poe     o2 5549   5.594   3.027   1.007 -0.1566  0.0144  0.1024
 1183poe    c23 5550   5.496   3.087   1.088  0.6966  0.0619  1.1089
 1183poe    c23 5551   5.513   3.240   1.082 -1.0761  0.2439  0.0700
 1183poe     o2 5552   5.534   3.272   0.947  0.4570 -0.1939  0.1909
 1183poe    c23 5553   5.543   3.412   0.927 -0.7613 -0.1271  0.0796
 1183poe    c23 5554   5.553   3.458   0.781 -0.5781  0.6796  0.3452
 1183poe     o2 5555   5.651   3.397   0.699 -0.3007  1.0310  0.4112
 1183poe    c31 5556   5.684   3.474   0.586  0.0097  0.0789 -0.1504
 1184poe    c31 5557   1.683   4.669   5.228  0.1296  0.2028 -0.3116
 1184poe     o2 5558   1.588   4.765   5.190 -0.2529 -0.2242 -0.4406
 1184poe    c23 5559   1.549   4.757   5.054  0.6714 -0.3593 -0.7084
 1184poe    c23 5560   1.617   4.859   4.961  0.1621  0.5733 -0.0782
 1184poe     o2 5561   1.589   4.995   4.986 -0.4085  0.4795 -0.1928
 1184poe    c23 5562   1.653   5.073   4.888 -0.3649 -0.0447 -0.5849
 1184poe    c23 5563   1.576   5.206   4.894  0.4327  0.3956 -0.0567
 1184poe     o2 5564   1.542   5.247   5.025  0.1079  0.3981 -0.1414
 1184poe    c23 5565   1.424   5.323   5.015  0.4405  0.9195 -0.1681
 1184poe    c23 5566   1.341   5.358   5.139 -0.4299 -0.3204 -0.3816
 1184poe     o2 5567   1.318   5.253   5.231  0.1631 -0.1959 -0.0862
 1184poe    c31 5568   1.237   5.291   5.340 -0.5921 -0.2403 -0.6237
 1185poe    c31 5569   0.746   2.304   5.467  0.2442  0.2226 -0.4555
 1185poe     o2 5570   0.869   2.267   5.525 -0.0742  0.0067  0.0963
 1185poe    c23 5571   0.887   2.316   5.656 -0.6399  0.0475  0.1579
 1185poe    c23 5572   1.006   2.258   5.733 -0.0246  0.9860 -0.0655
 1185poe     o2 5573   1.102   2.227   5.634 -0.1543  0.1616  0.0576
 1185poe    c23 5574   1.208   2.148   5.681 -0.4443 -0.3984 -0.2211
 1185poe    c23 5575   1.272   2.085   5.556  0.1219  0.2718 -0.2724
 1185poe     o2 5576   1.266   2.167   5.441 -0.6694  0.3388 -0.1881
 1185poe    c23 5577   1.355   2.118   5.344 -0.3761 -0.1360  0.3163
 1185poe    c23 5578   1.353   2.223   5.231 -0.6698  0.3501  0.7708
 1185poe     o2 5579   1.234   2.236   5.157 -0.5539 -1.0073  0.3228
 1185poe    c31 5580   1.215   2.145   5.051 -0.2991 -0.9485  0.2255
 1186poe    c31 5581   5.943   0.161   3.747 -0.3991 -0.3513  0.1782
 1186poe     o2 5582   5.885   0.042   3.796 -0.0642 -0.6037 -0.0254
 1186poe    c23 5583   5.993  -0.021   3.861  0.1293 -0.1292  0.1163
 1186poe    c23 5584   5.968  -0.173   3.863 -0.2025 -0.0752  0.1506
 1186poe     o2 5585   5.954  -0.211   3.728 -0.0689 -0.4810  0.2511
 1186poe    c23 5586   5.975  -0.350   3.740  0.6761 -0.4338 -0.4377
 1186poe    c23 5587   5.942  -0.396   3.597 -0.2013 -0.2064 -0.3136
 1186poe     o2 5588   5.849  -0.313   3.532 -0.3131 -0.0492  0.0450
 1186poe    c23 5589   5.792  -0.361   3.412  0.2372  0.1788 -0.3119
 1186poe    c23 5590   5.726  -0.242   3.341 -0.1418 -0.1267 -0.4748
 1186poe     o2 5591   5.824  -0.141   3.348 -0.8993  0.6278 -0.5958
 1186poe    c31 5592   5.834  -0.069   3.227 -0.0808 -0.1177 -0.9784
 1187poe    c31 5593   5.525   5.610   2.037  0.2134 -0.4394 -0.7048
 1187poe     o2 5594   5.390   5.605   1.996 -0.0327  0.1656  0.0191
 1187poe    c23 5595   5.350   5.470   1.998 -0.0683  0.1775  0.1305
 1187poe    c23 5596   5.197   5.459   1.985 -0.0758  0.2038  0.1885
 1187poe     o2 5597   5.132   5.527   1.880  0.0826  0.2464  0.1173
 1187poe    c23 5598   5.137   5.459   1.757 -0.1525 -0.0837  0.2884
 1187poe    c23 5599   5.077   5.535   1.637 -0.2898  0.2551  0.5708
 1187poe     o2 5600   5.130   5.665   1.649 -0.0342  0.1827  0.2302
 1187poe    c23 5601   5.102   5.719   1.522  0.0718 -0.0917  0.0887
 1187poe    c23 5602   5.157   5.863   1.509  0.6271 -0.2997  0.1196
 1187poe     o2 5603   5.138   5.921   1.636  0.4289 -0.0212 -0.0352
 1187poe    c31 5604   5.186   6.053   1.647 -0.0364  0.1385  0.1120
 1188poe    c31 5605   4.014   4.267   4.804 -0.1670 -0.2771 -0.2582
 1188poe     o2 5606   4.052   4.233   4.672 -0.4902  0.0316 -0.4305
 1188poe    c23 5607   4.091   4.350   4.603 -0.2437  0.1998 -0.0144
 1188poe    c23 5608   4.146   4.310   4.464 -0.2674  0.2040 -0.0247
 1188poe     o2 5609   4.070   4.208   4.404  0.0292 -0.0362  0.0103
 1188poe    c23 5610   4.071   4.214   4.263  0.8336 -0.5748 -0.0130
 1188poe    c23 5611   4.023   4.079   4.205 -0.5950 -0.2050  0.2732
 1188poe     o2 5612   4.101   3.972   4.253  0.2167  0.3149  0.1389
 1188poe    c23 5613   4.093   3.859   4.169 -0.2340  0.0770  0.4992
 1188poe    c23 5614   4.222   3.774   4.162 -0.3776 -0.0757 -0.3716
 1188poe     o2 5615   4.311   3.835   4.071  0.1798  0.2092  0.3550
 1188poe    c31 5616   4.402   3.740   4.020 -0.4534 -0.3163  0.1881
 1189poe    c31 5617   2.097   4.336   6.233 -0.4367  0.3213  0.0688
 1189poe     o2 5618   2.042   4.251   6.135  0.8257 -0.3856 -0.0522
 1189poe    c23 5619   2.097   4.281   6.008  0.5830  0.0112 -0.0670
 1189poe    c23 5620   2.064   4.184   5.893 -0.0109 -0.4158  0.4552
 1189poe     o2 5621   1.925   4.183   5.869  0.2113 -0.2344 -0.9256
 1189poe    c23 5622   1.896   4.069   5.792  0.0221 -0.4849 -0.4857
 1189poe    c23 5623   1.752   4.071   5.738 -0.1978 -0.3236  0.0969
 1189poe     o2 5624   1.670   4.081   5.852  0.0782  0.0474  0.2658
 1189poe    c23 5625   1.533   4.072   5.820  0.0103  0.5239  0.4133
 1189poe    c23 5626   1.453   4.020   5.941  0.0300  0.0880  0.2421
 1189poe     o2 5627   1.498   4.091   6.054  0.5713 -0.1590  0.1828
 1189poe    c31 5628   1.424   4.063   6.171 -0.3961  1.1002 -0.1087
 1190poe    c31 5629   3.867   6.618   0.994 -0.5042  0.8855 -0.2461
 1190poe     o2 5630   3.993   6.657   1.045 -0.1290  0.0740 -0.5235
 1190poe    c23 5631   3.987   6.774   1.124  0.2227 -0.5725  0.4879
 1190poe    c23 5632   4.135   6.813   1.140 -0.0860  0.6726  0.4155
 1190poe     o2 5633   4.185   6.797   1.009  0.4946  0.5979  0.6434
 1190poe    c23 5634   4.316   6.847   1.003  0.5336  0.4477  0.1788
 1190poe    c23 5635   4.401   6.810   0.880  0.5248  0.4104  0.1843
 1190poe     o2 5636   4.398   6.671   0.857  0.2800  0.5027 -0.3542
 1190poe    c23 5637   4.461   6.636   0.736 -0.2623  0.0727 -0.5171
 1190poe    c23 5638   4.489   6.485   0.725  0.4892  0.2481 -1.0652
 1190poe     o2 5639   4.363   6.422   0.731  0.5850  0.1141 -0.3209
 1190poe    c31 5640   4.377   6.288   0.687  0.2563  0.3123 -1.0473
 1191poe    c31 5641   1.311   1.454   4.634 -0.0172  0.0653 -0.1243
 1191poe     o2 5642   1.339   1.585   4.676  0.5021  0.0498 -0.4181
 1191poe    c23 5643   1.347   1.589   4.817 -0.2073  0.4113 -0.3811
 1191poe    c23 5644   1.420   1.716   4.863 -0.7241  0.5908 -0.0559
 1191poe     o2 5645   1.539   1.724   4.788 -0.0370 -0.4626  0.8958
 1191poe    c23 5646   1.624   1.825   4.840 -0.2200 -0.0127  0.3229
 1191poe    c23 5647   1.766   1.819   4.782 -0.3152 -1.2901  0.1799
 1191poe     o2 5648   1.769   1.837   4.642 -0.1304  0.0444  0.3385
 1191poe    c23 5649   1.902   1.855   4.602 -0.0422  0.1915  0.6905
 1191poe    c23 5650   1.882   1.859   4.449 -0.4649  0.1790  0.7447
 1191poe     o2 5651   1.792   1.756   4.415 -0.0335  0.1322 -0.3052
 1191poe    c31 5652   1.774   1.773   4.276  0.0660 -0.3000 -0.3706
 1192poe    c31 5653   6.483   4.317   5.594  0.5461  0.2301  0.0485
 1192poe     o2 5654   6.448   4.434   5.663 -0.0149  0.0934  0.0002
 1192poe    c23 5655   6.561   4.515   5.640 -0.0877  0.0383 -0.5620
 1192poe    c23 5656   6.572   4.613   5.758 -0.4050 -0.3614 -0.1979
 1192poe     o2 5657   6.445   4.672   5.761 -0.4088 -0.3934  0.4605
 1192poe    c23 5658   6.412   4.741   5.880 -0.6893 -0.6181  0.5147
 1192poe    c23 5659   6.263   4.781   5.889 -0.3111  0.8073  0.7105
 1192poe     o2 5660   6.190   4.666   5.853  0.3701  0.2852  0.9684
 1192poe    c23 5661   6.051   4.692   5.857  0.1791 -0.5708  0.2661
 1192poe    c23 5662   5.969   4.571   5.810  0.3009 -0.5505  0.0005
 1192poe     o2 5663   5.978   4.534   5.675  0.0510  0.5218 -0.3219
 1192poe    c31 5664   5.886   4.432   5.640  0.7864 -0.2464 -0.0609
 1193poe    c31 5665   5.875   6.698   5.982 -0.4473 -0.4985  0.2734
 1193poe     o2 5666   5.851   6.763   5.859 -0.4698 -0.3804  0.3404
 1193poe    c23 5667   5.959   6.747   5.770 -0.5693 -0.2106  0.1882
 1193poe    c23 5668   5.931   6.750   5.618  0.2990  0.3884  0.0354
 1193poe     o2 5669   5.881   6.873   5.574  0.8551  0.5909 -0.0399
 1193poe    c23 5670   5.964   6.923   5.471  0.4695  0.7230 -0.2932
 1193poe    c23 5671   5.874   7.029   5.405 -0.1832  0.9313  0.8943
 1193poe     o2 5672   5.740   6.988   5.399  0.1158 -0.0225  0.4082
 1193poe    c23 5673   5.659   7.081   5.330 -0.2244 -0.1190  0.6729
 1193poe    c23 5674   5.520   7.039   5.381 -0.6600  0.6314  0.1131
 1193poe     o2 5675   5.515   6.997   5.516 -0.2948 -0.1066 -0.1025
 1193poe    c31 5676   5.400   7.036   5.586 -0.1396 -0.3200  0.2781
 1194poe    c31 5677   5.998   3.052   1.607 -0.2173 -0.1215 -0.3741
 1194poe     o2 5678   6.020   2.946   1.517 -0.7003 -0.2759 -0.3166
 1194poe    c23 5679   6.101   2.980   1.406  0.2044 -0.0672  0.3958
 1194poe    c23 5680   6.148   2.865   1.316  0.1941  0.1642  0.0940
 1194poe     o2 5681   6.042   2.775   1.336  0.1987  0.2535  0.5195
 1194poe    c23 5682   6.060   2.656   1.263  0.0496  0.0541  0.8039
 1194poe    c23 5683   5.939   2.561   1.263  0.1111 -0.0264  0.4433
 1194poe     o2 5684   5.881   2.541   1.390 -0.5777 -0.1840  0.1114
 1194poe    c23 5685   5.765   2.461   1.379 -0.6393  0.0225 -0.8272
 1194poe    c23 5686   5.676   2.455   1.505  0.6456  0.3641  0.1278
 1194poe     o2 5687   5.608   2.573   1.542  0.2558  0.1178  0.2070
 1194poe    c31 5688   5.545   2.535   1.662 -0.6115 -0.3433 -0.3794
 1195poe    c31 5689   3.253   6.391   4.410 -0.0601  0.2107 -0.3594
 1195poe     o2 5690   3.131   6.323   4.433  0.0225  0.0730 -0.3223
 1195poe    c23 5691   3.064   6.381   4.543  0.1651  0.0940 -0.2451
 1195poe    c23 5692   2.923   6.321   4.559  0.1767  0.1526  0.0858
 1195poe     o2 5693   2.931   6.183   4.588  0.3960  0.2307  0.3926
 1195poe    c23 5694   2.815   6.125   4.644  0.8637 -0.1499  0.9854
 1195poe    c23 5695   2.798   5.973   4.631  0.4118 -0.0471  0.2730
 1195poe     o2 5696   2.801   5.914   4.503 -0.5092 -0.0090  0.2326
 1195poe    c23 5697   2.759   5.780   4.507 -0.1925 -0.1128  0.1025
 1195poe    c23 5698   2.792   5.688   4.388 -0.6691 -0.3007  0.1136
 1195poe     o2 5699   2.743   5.742   4.267  0.5751  0.4832 -0.0528
 1195poe    c31 5700   2.787   5.658   4.162 -0.2268 -0.2722  0.2121
 1196poe    c31 5701   6.308   2.991   3.891  0.1438 -0.5623  0.1852
 1196poe     o2 5702   6.324   3.002   4.030  0.3806 -0.4289  0.1489
 1196poe    c23 5703   6.365   3.134   4.057  0.0606 -0.1683 -0.6255
 1196poe    c23 5704   6.295   3.190   4.182  0.4430 -0.3613 -0.3237
 1196poe     o2 5705   6.384   3.179   4.291  0.0270 -0.3202  0.0205
 1196poe    c23 5706   6.386   3.053   4.353  0.0738 -0.1105  0.4531
 1196poe    c23 5707   6.446   3.079   4.493  0.6536 -0.5821  0.2997
 1196poe     o2 5708   6.575   3.133   4.475  0.3945 -0.1431 -0.2977
 1196poe    c23 5709   6.625   3.190   4.594  0.1677  0.2193 -0.3740
 1196poe    c23 5710   6.764   3.242   4.555  0.2887  0.2437  0.0796
 1196poe     o2 5711   6.758   3.341   4.455 -0.0835  0.1906  0.0481
 1196poe    c31 5712   6.881   3.398   4.414 -0.0887  0.2043  0.0519
 1197poe    c31 5713   4.464   3.196   2.418  0.3050  0.3975 -0.0213
 1197poe     o2 5714   4.380   3.085   2.440  0.5671  0.1585 -0.2197
 1197poe    c23 5715   4.396   3.043   2.574 -0.1688  0.6271  0.0208
 1197poe    c23 5716   4.270   2.975   2.630  0.3975 -0.1041  0.4119
 1197poe     o2 5717   4.254   2.840   2.592 -0.3632  0.2696 -0.6257
 1197poe    c23 5718   4.121   2.803   2.617 -0.1693 -0.1404 -0.1987
 1197poe    c23 5719   4.015   2.795   2.505 -0.1364  0.0105 -0.2399
 1197poe     o2 5720   4.058   2.711   2.401 -0.0001 -0.2344  0.0129
 1197poe    c23 5721   3.963   2.701   2.297 -0.5488  0.4474  0.4418
 1197poe    c23 5722   4.026   2.607   2.192 -0.4940  0.3467  0.5650
 1197poe     o2 5723   4.155   2.657   2.162 -0.1467 -0.3487  0.8831
 1197poe    c31 5724   4.193   2.606   2.037 -0.5721  0.3094  0.4806
 1198poe    c31 5725   6.746   1.879   0.199  0.0033  0.3653 -0.1247
 1198poe     o2 5726   6.700   2.011   0.216  0.0440  0.3091  0.4392
 1198poe    c23 5727   6.785   2.109   0.162  0.1954 -0.0018  0.1097
 1198poe    c23 5728   6.713   2.245   0.161 -0.3461 -0.2768 -1.1954
 1198poe     o2 5729   6.573   2.228   0.154 -0.4193  0.0409 -0.6399
 1198poe    c23 5730   6.509   2.348   0.193 -0.3615 -0.2176  0.2645
 1198poe    c23 5731   6.359   2.321   0.174 -0.3620  0.0434 -0.1215
 1198poe     o2 5732   6.323   2.237   0.282  0.4108  0.8213  0.7569
 1198poe    c23 5733   6.182   2.236   0.278  0.4309  0.3315 -0.3272
 1198poe    c23 5734   6.134   2.137   0.385  0.3267  0.1262 -0.5632
 1198poe     o2 5735   6.169   2.191   0.511  0.4601  0.1842 -0.6254
 1198poe    c31 5736   6.100   2.118   0.610  0.3367  0.4925 -0.4828
 1199poe    c31 5737   4.569   5.478   1.247 -0.1922 -0.3560 -0.1634
 1199poe     o2 5738   4.445   5.482   1.313 -0.1377  0.5598 -0.0905
 1199poe    c23 5739   4.412   5.590   1.397 -0.1031  0.5013 -0.0019
 1199poe    c23 5740   4.277   5.575   1.469 -0.3036 -0.3518 -0.5366
 1199poe     o2 5741   4.161   5.585   1.389 -0.3466  0.4133 -0.3925
 1199poe    c23 5742   4.061   5.612   1.485  0.3434 -0.2622  0.5398
 1199poe    c23 5743   3.932   5.660   1.417  0.1350 -0.7646  0.5728
 1199poe     o2 5744   3.937   5.580   1.301 -0.2575 -0.3556  0.2678
 1199poe    c23 5745   3.813   5.534   1.252 -0.2368  0.0031 -0.1317
 1199poe    c23 5746   3.855   5.466   1.121 -0.7212 -0.4563 -0.0547
 1199poe     o2 5747   3.981   5.402   1.133 -0.0948  0.6443 -0.5753
 1199poe    c31 5748   4.014   5.364   1.001  0.2016  0.6772 -0.5107
 1200poe    c31 5749   3.476   6.052   6.289  0.2836 -0.1214 -0.0135
 1200poe     o2 5750   3.386   6.161   6.287 -0.6801 -0.9032 -0.0363
 1200poe    c23 5751   3.320   6.181   6.164 -0.2396 -0.2651 -0.1698
 1200poe    c23 5752   3.399   6.274   6.069 -0.6092  0.0708 -0.1498
 1200poe     o2 5753   3.388   6.409   6.106  0.2213  0.1667 -0.2376
 1200poe    c23 5754   3.449   6.494   6.011  0.3777  0.0342 -0.2552
 1200poe    c23 5755   3.458   6.637   6.068  0.0720 -0.0937  0.1218
 1200poe     o2 5756   3.507   6.627   6.200 -0.3428 -0.1902  0.2674
 1200poe    c23 5757   3.484   6.752   6.260 -0.6541 -0.1478  0.0642
 1200poe    c23 5758   3.595   6.754   6.368 -0.7514 -0.0260  0.1621
 1200poe     o2 5759   3.601   6.626   6.426  0.2899 -0.0298  0.0590
 1200poe    c31 5760   3.696   6.654   6.527  0.1490  0.7110 -0.0052
 1201poe    c31 5761   3.325   4.080   3.586 -0.0512 -0.2311 -0.4820
 1201poe     o2 5762   3.449   4.012   3.587 -0.0503 -0.2290  0.2700
 1201poe    c23 5763   3.543   4.085   3.662 -0.0174  0.2599 -0.2352
 1201poe    c23 5764   3.684   4.023   3.670 -0.2714 -0.3476 -0.4439
 1201poe     o2 5765   3.667   3.893   3.722 -0.3186 -0.0935  0.1837
 1201poe    c23 5766   3.713   3.884   3.855 -0.0364 -0.8180  0.0407
 1201poe    c23 5767   3.650   3.760   3.922  0.1838 -0.6025  0.6475
 1201poe     o2 5768   3.643   3.666   3.818 -0.2708 -0.0795  0.1986
 1201poe    c23 5769   3.619   3.533   3.857  1.0114 -0.3282  0.1953
 1201poe    c23 5770   3.608   3.452   3.727  0.1426 -0.2008  0.1821
 1201poe     o2 5771   3.568   3.541   3.625 -0.7564 -0.1920  0.5330
 1201poe    c31 5772   3.538   3.460   3.514 -0.2811  0.2508  0.0737
 1202poe    c31 5773   2.035   5.497   6.287 -0.5766 -0.6141 -0.6474
 1202poe     o2 5774   2.125   5.433   6.200  0.4712 -0.4043  0.2611
 1202poe    c23 5775   2.073   5.302   6.187 -0.2350 -0.1443  0.4128
 1202poe    c23 5776   2.158   5.223   6.085 -0.4248 -0.5423  0.5626
 1202poe     o2 5777   2.290   5.216   6.134 -0.1641  0.0857 -0.0357
 1202poe    c23 5778   2.375   5.141   6.051 -0.3720 -0.2687  0.0718
 1202poe    c23 5779   2.502   5.086   6.119  0.0413  0.0464 -0.4331
 1202poe     o2 5780   2.544   5.203   6.185 -0.0259  0.1372 -0.5528
 1202poe    c23 5781   2.672   5.188   6.240 -0.2510 -0.5691 -0.2164
 1202poe    c23 5782   2.724   5.330   6.267 -0.3729 -0.4763 -0.4696
 1202poe     o2 5783   2.622   5.408   6.326  0.6316  0.4917  0.0316
 1202poe    c31 5784   2.659   5.542   6.350  0.3777  0.6064 -0.2119
 1203poe    c31 5785   4.572   3.285   4.725 -0.0385 -0.7407  0.2418
 1203poe     o2 5786   4.601   3.312   4.589  0.3804  0.7986  0.6161
 1203poe    c23 5787   4.562   3.443   4.554 -0.3083  0.4712  0.1174
 1203poe    c23 5788   4.446   3.435   4.453 -0.0950 -0.4300 -0.0616
 1203poe     o2 5789   4.332   3.369   4.504 -0.3024  0.0144  0.0544
 1203poe    c23 5790   4.227   3.391   4.412 -0.1193 -0.1013 -0.1858
 1203poe    c23 5791   4.101   3.303   4.411  0.1398 -0.4754  0.0605
 1203poe     o2 5792   4.089   3.183   4.337  0.2439 -0.1715 -0.4476
 1203poe    c23 5793   4.063   3.211   4.201 -0.4104  0.5378 -0.1793
 1203poe    c23 5794   4.009   3.090   4.122  0.2537  0.4527 -0.5040
 1203poe     o2 5795   3.921   3.009   4.196  0.2985  0.4757 -0.4246
 1203poe    c31 5796   3.847   2.922   4.112 -0.1330  0.4489 -0.0217
 1204poe    c31 5797   1.479   3.735   3.588  0.4656 -0.3933  0.2075
 1204poe     o2 5798   1.531   3.863   3.619  0.6096 -0.4669  0.2722
 1204poe    c23 5799   1.670   3.841   3.635  0.7080 -0.0873 -0.0550
 1204poe    c23 5800   1.757   3.968   3.630  0.5267  0.0215 -0.6108
 1204poe     o2 5801   1.771   4.010   3.497 -0.1956  0.6263 -0.5033
 1204poe    c23 5802   1.870   4.110   3.504  0.0344  0.3601  0.0292
 1204poe    c23 5803   1.890   4.170   3.364  0.2016  0.7677  0.2247
 1204poe     o2 5804   1.765   4.168   3.298  0.3877 -0.4815 -0.1114
 1204poe    c23 5805   1.763   4.224   3.169  0.0317  0.5510  0.3328
 1204poe    c23 5806   1.616   4.206   3.127  0.1720 -0.1694  0.1360
 1204poe     o2 5807   1.573   4.077   3.165  0.3509 -0.1873  0.2788
 1204poe    c31 5808   1.436   4.063   3.136  0.3536 -0.2929  0.3169
 1205poe    c31 5809   2.671   0.833   6.622  0.2416 -0.6911  0.4692
 1205poe     o2 5810   2.804   0.856   6.664  0.3194  0.3544 -0.2813
 1205poe    c23 5811   2.821   0.958   6.760  0.2902  0.0540  0.0502
 1205poe    c23 5812   2.854   1.101   6.713 -0.2744  0.0894 -0.2505
 1205poe     o2 5813   2.968   1.107   6.631 -0.3317  0.3576 -0.3130
 1205poe    c23 5814   2.993   1.243   6.605 -0.2516  0.3618 -0.2123
 1205poe    c23 5815   3.132   1.257   6.540 -0.1147  0.6409  0.1356
 1205poe     o2 5816   3.218   1.179   6.621  0.3597  0.8682 -0.1446
 1205poe    c23 5817   3.356   1.200   6.603  0.5251 -0.4731 -0.5772
 1205poe    c23 5818   3.429   1.124   6.715  0.5177 -0.0082 -0.2524
 1205poe     o2 5819   3.363   1.001   6.739  0.0931  0.3696  0.5505
 1205poe    c31 5820   3.446   0.915   6.813 -0.3101  0.2502  0.8691
 1206poe    c31 5821   5.049   3.874   4.574 -0.5359  0.8723  0.2292
 1206poe     o2 5822   5.106   3.930   4.458 -0.3256  0.4208  0.1128
 1206poe    c23 5823   5.016   4.023   4.403 -0.2007  0.3363 -0.2350
 1206poe    c23 5824   5.078   4.164   4.401  0.2432  0.1472  0.1133
 1206poe     o2 5825   5.216   4.142   4.420  0.2740  0.4685  0.2696
 1206poe    c23 5826   5.274   4.259   4.367 -0.3535  0.4906 -0.3848
 1206poe    c23 5827   5.422   4.219   4.383 -0.3743  0.3926 -0.4391
 1206poe     o2 5828   5.439   4.086   4.340 -0.2252  0.3460 -0.2351
 1206poe    c23 5829   5.578   4.059   4.335 -0.3387 -0.1737 -0.6816
 1206poe    c23 5830   5.626   3.914   4.352 -0.1288 -0.0501 -0.2135
 1206poe     o2 5831   5.612   3.867   4.485  0.8330  0.2171 -0.0073
 1206poe    c31 5832   5.670   3.741   4.510 -0.0830 -0.1251  0.4188
 1207poe    c31 5833   2.434   0.474   6.027 -0.0640  0.1581  0.4745
 1207poe     o2 5834   2.356   0.492   5.911 -0.3893 -0.8267  0.5370
 1207poe    c23 5835   2.393   0.398   5.812 -0.2827 -0.1745 -0.0464
 1207poe    c23 5836   2.269   0.330   5.751 -0.3316 -0.7062  0.6377
 1207poe     o2 5837   2.178   0.409   5.679 -0.1720 -0.3434  0.8314
 1207poe    c23 5838   2.077   0.327   5.624  0.2642 -0.5570  0.3348
 1207poe    c23 5839   1.956   0.413   5.582  1.1009  0.5605  0.1637
 1207poe     o2 5840   1.903   0.473   5.698 -0.4619 -0.3707 -0.0294
 1207poe    c23 5841   1.793   0.559   5.677 -0.2219 -0.0814 -0.1208
 1207poe    c23 5842   1.718   0.583   5.810  0.2974  0.2739  0.1114
 1207poe     o2 5843   1.675   0.457   5.856  0.1101  0.1810 -0.3075
 1207poe    c31 5844   1.576   0.479   5.955  0.8323  0.0910  0.4432
 1208poe    c31 5845   2.035   2.526   0.314 -0.1170  0.4406  0.6140
 1208poe     o2 5846   2.087   2.632   0.236 -0.4218  0.2339  0.1252
 1208poe    c23 5847   2.042   2.628   0.103  0.5451  0.2921 -0.2121
 1208poe    c23 5848   2.091   2.754   0.030  0.0844  0.7374  0.2366
 1208poe     o2 5849   2.222   2.732  -0.018 -0.0321  0.4969  0.0236
 1208poe    c23 5850   2.269   2.841  -0.094 -0.3521  0.6714  0.0742
 1208poe    c23 5851   2.418   2.830  -0.130 -0.2842  0.2632  0.4781
 1208poe     o2 5852   2.501   2.817  -0.016 -0.2434 -0.1394  0.4038
 1208poe    c23 5853   2.635   2.789  -0.048 -0.2366  0.1090  0.2116
 1208poe    c23 5854   2.703   2.780   0.090  0.6257 -0.1919 -0.2218
 1208poe     o2 5855   2.614   2.702   0.168  0.2205  0.1037 -0.3845
 1208poe    c31 5856   2.696   2.600   0.221 -0.3965 -0.4996 -0.5930
 1209poe    c31 5857   2.679   3.635   1.831 -0.9383 -0.3008  0.1424
 1209poe     o2 5858   2.753   3.580   1.938 -0.4463 -0.1137 -0.0972
 1209poe    c23 5859   2.867   3.664   1.945 -0.5271 -0.0347  0.2997
 1209poe    c23 5860   2.953   3.661   2.073  0.1873  0.3359 -0.1676
 1209poe     o2 5861   2.939   3.534   2.133  0.4154  0.3897 -0.0007
 1209poe    c23 5862   3.067   3.496   2.177  0.1591 -0.4962  0.0060
 1209poe    c23 5863   3.054   3.374   2.269 -0.1097 -0.4514  0.0268
 1209poe     o2 5864   3.010   3.258   2.200 -0.3755 -0.5416  0.3472
 1209poe    c23 5865   3.006   3.142   2.279  0.5133 -0.2856  0.7755
 1209poe    c23 5866   2.859   3.100   2.291  0.5395 -0.7730 -0.4447
 1209poe     o2 5867   2.791   3.093   2.168 -0.5690 -0.0854  0.1067
 1209poe    c31 5868   2.711   2.978   2.154 -0.5727 -0.0750  0.0414
 1210poe    c31 5869   3.869   3.506   5.296  0.0097  0.3496 -0.1100
 1210poe     o2 5870   3.848   3.499   5.157  0.0779 -0.0777 -0.1011
 1210poe    c23 5871   3.905   3.382   5.104 -0.2713 -0.3628  0.1534
 1210poe    c23 5872   3.884   3.394   4.952  0.6175 -0.3463  0.0290
 1210poe     o2 5873   3.751   3.424   4.917  0.4211 -0.8212  0.3711
 1210poe    c23 5874   3.736   3.392   4.780  0.3219  0.1795  0.1438
 1210poe    c23 5875   3.586   3.395   4.745  0.3590 -0.1853 -0.0437
 1210poe     o2 5876   3.543   3.520   4.794  0.6243 -0.0721 -0.0982
 1210poe    c23 5877   3.407   3.528   4.759  0.6763 -0.3196 -0.3663
 1210poe    c23 5878   3.323   3.649   4.805 -0.0080 -1.0795  0.4366
 1210poe     o2 5879   3.300   3.665   4.943 -0.5321  0.1210  0.2266
 1210poe    c31 5880   3.202   3.590   5.012  0.1780 -0.5101  0.5637
 1211poe    c31 5881   3.927   3.280   1.144  0.3840 -0.3583 -0.0768
 1211poe     o2 5882   3.896   3.225   1.018 -0.4586  0.2214 -0.1290
 1211poe    c23 5883   3.892   3.321   0.914 -0.2872  0.2555 -0.1043
 1211poe    c23 5884   3.819   3.240   0.805  0.0290 -0.2221  0.0323
 1211poe     o2 5885   3.882   3.115   0.807  0.6282  0.0741 -0.1135
 1211poe    c23 5886   3.863   3.064   0.677  0.0978  0.3576 -0.1478
 1211poe    c23 5887   3.880   2.912   0.660 -0.6819  0.1283  1.0033
 1211poe     o2 5888   4.003   2.859   0.705 -0.4576 -0.3826 -0.1843
 1211poe    c23 5889   4.093   2.866   0.596 -0.5853 -0.3868 -0.2912
 1211poe    c23 5890   4.236   2.862   0.652 -0.4507  0.8064 -0.5396
 1211poe     o2 5891   4.281   2.978   0.719  0.6068 -0.0503  0.2682
 1211poe    c31 5892   4.365   3.050   0.632  0.1128  0.2625  0.0433
 1212poe    c31 5893   5.173   5.794   2.168  0.5444  0.2225  0.6830
 1212poe     o2 5894   5.195   5.750   2.300  0.1600  0.1965  0.7394
 1212poe    c23 5895   5.286   5.846   2.349  0.4880  0.2085  0.1201
 1212poe    c23 5896   5.341   5.800   2.485  0.3660 -0.4015 -0.0317
 1212poe     o2 5897   5.451   5.871   2.538  0.1920  0.1205 -0.3664
 1212poe    c23 5898   5.406   5.980   2.614 -0.4420 -0.1943 -0.2856
 1212poe    c23 5899   5.522   6.060   2.678 -0.4341 -0.3307 -0.1275
 1212poe     o2 5900   5.570   5.976   2.781  0.3739  0.0680 -0.1739
 1212poe    c23 5901   5.669   6.042   2.856  0.1305  0.2191  0.0182
 1212poe    c23 5902   5.722   5.936   2.954  0.3838  0.1533 -0.1874
 1212poe     o2 5903   5.746   5.821   2.877 -0.2921 -0.1374  0.0322
 1212poe    c31 5904   5.808   5.714   2.945  0.6893  0.1486 -0.3993
 1213poe    c31 5905   5.391   5.686   0.174 -0.4794 -0.2620  0.5475
 1213poe     o2 5906   5.472   5.581   0.223 -0.2937 -0.4284 -0.1007
 1213poe    c23 5907   5.582   5.538   0.147  0.0322 -0.0857  0.1721
 1213poe    c23 5908   5.628   5.393   0.172 -0.0310 -0.1296  0.0344
 1213poe     o2 5909   5.677   5.391   0.304  0.4973 -0.8810 -0.1680
 1213poe    c23 5910   5.767   5.288   0.341  0.7854 -0.6843 -0.3166
 1213poe    c23 5911   5.747   5.263   0.491  0.0363  0.0783 -0.2838
 1213poe     o2 5912   5.753   5.388   0.557 -0.0101 -0.2687  0.3870
 1213poe    c23 5913   5.762   5.386   0.698 -0.1623  0.1311  0.4017
 1213poe    c23 5914   5.756   5.529   0.755  0.3178  0.1978  0.2907
 1213poe     o2 5915   5.660   5.595   0.675  0.8184  0.4916 -0.0725
 1213poe    c31 5916   5.595   5.703   0.738  0.6851  0.3779 -0.0137
 1214poe    c31 5917   3.213   0.394   5.638  0.2093  0.2257 -0.0000
 1214poe     o2 5918   3.189   0.288   5.548 -0.1419  0.3308 -0.0296
 1214poe    c23 5919   3.081   0.210   5.595  0.7108 -0.4810  0.6192
 1214poe    c23 5920   3.028   0.120   5.483  0.4473 -0.2557  0.5614
 1214poe     o2 5921   3.126   0.035   5.427  0.0715 -0.1605 -0.2537
 1214poe    c23 5922   3.052  -0.031   5.326 -0.4233  0.2617 -0.1740
 1214poe    c23 5923   3.135  -0.107   5.220  0.2175  0.0290  0.4879
 1214poe     o2 5924   3.223  -0.211   5.258 -0.1225 -0.5202 -0.2007
 1214poe    c23 5925   3.273  -0.277   5.144 -0.5094 -0.5763 -0.3415
 1214poe    c23 5926   3.343  -0.400   5.205 -0.2240  0.1518  0.8489
 1214poe     o2 5927   3.450  -0.365   5.289  0.5982 -0.0963 -0.0706
 1214poe    c31 5928   3.576  -0.381   5.227  0.6140 -0.4707  0.0570
 1215poe    c31 5929   2.575   2.397   2.896  0.3582 -0.5738 -0.7815
 1215poe     o2 5930   2.656   2.482   2.818  0.1615 -0.3614 -0.7551
 1215poe    c23 5931   2.793   2.452   2.837  0.1769 -0.2941 -0.7568
 1215poe    c23 5932   2.862   2.525   2.721 -0.5619  0.3102 -0.8216
 1215poe     o2 5933   2.795   2.645   2.689 -0.1343  0.7863  0.0561
 1215poe    c23 5934   2.893   2.711   2.612  0.4453 -0.3379 -0.1786
 1215poe    c23 5935   2.845   2.851   2.570  0.3812 -0.3860 -0.2676
 1215poe     o2 5936   2.745   2.837   2.472  0.8030  0.6164 -0.8568
 1215poe    c23 5937   2.621   2.896   2.503  0.5522 -0.4148  0.1781
 1215poe    c23 5938   2.525   2.776   2.483 -0.2877  0.2825 -0.0354
 1215poe     o2 5939   2.544   2.672   2.576 -0.0444 -0.1924 -0.6100
 1215poe    c31 5940   2.497   2.558   2.509 -0.1577  0.0235 -0.8989
 1216poe    c31 5941   4.509   6.307   2.935  0.3743 -0.8506 -0.0321
 1216poe     o2 5942   4.468   6.317   2.800  0.8378 -0.4578 -0.1445
 1216poe    c23 5943   4.476   6.189   2.742  0.5817 -0.6661  0.2724
 1216poe    c23 5944   4.383   6.180   2.620 -0.0967  1.3205  0.6051
 1216poe     o2 5945   4.399   6.247   2.496 -0.4553  0.7128  0.2252
 1216poe    c23 5946   4.285   6.240   2.414 -0.2040 -0.1418 -0.0615
 1216poe    c23 5947   4.292   6.337   2.295 -0.6371  0.3027  0.2726
 1216poe     o2 5948   4.356   6.460   2.322 -0.0071 -0.0966  0.6238
 1216poe    c23 5949   4.373   6.535   2.204 -0.2803 -0.5263  0.3069
 1216poe    c23 5950   4.469   6.637   2.267 -0.2730 -0.4916  0.2399
 1216poe     o2 5951   4.568   6.567   2.340  0.1636  0.2504  0.3766
 1216poe    c31 5952   4.659   6.661   2.390  0.7189  0.0903 -0.3187
 1217poe    c31 5953   1.589   1.760   6.325  0.3926 -0.5198 -0.4841
 1217poe     o2 5954   1.712   1.818   6.364 -0.1876  0.0406  0.5375
 1217poe    c23 5955   1.793   1.705   6.387  0.4313  0.2578 -0.5398
 1217poe    c23 5956   1.912   1.729   6.482 -0.1062 -0.0757  0.2246
 1217poe     o2 5957   1.976   1.841   6.425 -0.0095 -0.0262  0.4298
 1217poe    c23 5958   2.083   1.882   6.507 -0.1067  0.6070  0.2461
 1217poe    c23 5959   2.188   1.949   6.417  0.2741 -0.4723 -0.1379
 1217poe     o2 5960   2.110   2.035   6.336  0.5559 -0.1246 -0.0429
 1217poe    c23 5961   2.189   2.140   6.284 -0.1992  0.3387 -0.2581
 1217poe    c23 5962   2.108   2.207   6.171 -0.5401  0.4463  0.0458
 1217poe     o2 5963   1.993   2.274   6.215 -0.8116  0.5987 -0.8682
 1217poe    c31 5964   2.001   2.413   6.242  0.6262  0.4113 -0.2271
 1218poe    c31 5965   2.436   1.285   5.627 -0.3664 -0.3009 -0.0537
 1218poe     o2 5966   2.388   1.409   5.580 -0.0113  0.0488  0.4828
 1218poe    c23 5967   2.476   1.504   5.526  0.1227 -0.1611  0.3290
 1218poe    c23 5968   2.405   1.640   5.513 -0.5045 -0.5032  0.1898
 1218poe     o2 5969   2.278   1.608   5.459 -0.5104 -1.0261  0.5033
 1218poe    c23 5970   2.216   1.713   5.387 -0.3263 -0.7245  0.7799
 1218poe    c23 5971   2.133   1.804   5.479 -0.6183 -0.1645 -0.0261
 1218poe     o2 5972   2.060   1.731   5.575  0.2109 -0.0234  0.7311
 1218poe    c23 5973   2.017   1.797   5.692  0.3023  0.5304  0.4554
 1218poe    c23 5974   1.929   1.716   5.789  0.3616  0.2013  0.2360
 1218poe     o2 5975   1.978   1.602   5.857 -0.2516  0.0222  0.3840
 1218poe    c31 5976   1.881   1.559   5.949 -0.1949  0.0276  0.4458
 1219poe    c31 5977   0.534   5.399   6.737 -0.1791  0.0499 -0.3359
 1219poe     o2 5978   0.633   5.349   6.824 -0.2077 -0.0425 -0.3560
 1219poe    c23 5979   0.598   5.230   6.892  0.8141 -0.1052  0.0821
 1219poe    c23 5980   0.719   5.170   6.965  0.0230 -1.3518  0.4075
 1219poe     o2 5981   0.804   5.110   6.870  0.3600  0.2729 -0.3494
 1219poe    c23 5982   0.922   5.069   6.936  0.5084  0.5515 -0.4385
 1219poe    c23 5983   1.018   5.190   6.943  0.5664  0.4720  0.2024
 1219poe     o2 5984   0.982   5.299   7.024  0.0196  0.4955 -0.0640
 1219poe    c23 5985   1.099   5.376   7.039  0.0842  0.2636  0.6667
 1219poe    c23 5986   1.082   5.488   7.144  0.5931 -0.0159  1.0512
 1219poe     o2 5987   1.187   5.582   7.141  0.5826 -0.0270 -0.2107
 1219poe    c31 5988   1.158   5.716   7.171  0.2053 -0.1465 -0.0305
 1220poe    c31 5989   6.521   4.029   3.229  0.1369 -0.3063  0.6407
 1220poe     o2 5990   6.406   3.986   3.160  0.1031  0.6107  0.1134
 1220poe    c23 5991   6.335   4.102   3.121  0.1746  0.6202  0.0092
 1220poe    c23 5992   6.223   4.041   3.035  0.3612 -0.3503  0.4319
 1220poe     o2 5993   6.276   3.987   2.916  0.3673  0.3953  0.0883
 1220poe    c23 5994   6.171   3.927   2.844  0.6201  0.1491 -0.0782
 1220poe    c23 5995   6.223   3.820   2.747  0.1787 -0.0288 -0.1231
 1220poe     o2 5996   6.264   3.700   2.810 -0.2827 -0.0982  0.0473
 1220poe    c23 5997   6.249   3.583   2.733 -0.1767 -0.4096  0.4994
 1220poe    c23 5998   6.242   3.459   2.824  0.2350 -0.2800  0.7096
 1220poe     o2 5999   6.348   3.477   2.915  0.1758  0.1960  0.6860
 1220poe    c31 6000   6.362   3.360   2.993  0.1118 -0.1763  0.1412
 1221poe    c31 6001   5.863   5.489   6.411  0.0906  0.6214 -0.5430
 1221poe     o2 6002   5.872   5.626   6.379 -0.6002  0.9611  0.6697
 1221poe    c23 6003   5.804   5.651   6.258  0.4479  0.2875 -0.0797
 1221poe    c23 6004   5.755   5.797   6.255  0.1745  0.1877 -0.6166
 1221poe     o2 6005   5.845   5.868   6.338 -0.8456 -0.1787  0.8444
 1221poe    c23 6006   5.823   6.007   6.348 -0.0504  0.0442 -0.2809
 1221poe    c23 6007   5.962   6.069   6.369 -0.3186  0.2547  0.9486
 1221poe     o2 6008   6.045   5.999   6.459  0.2261 -0.2481  0.0663
 1221poe    c23 6009   6.117   6.096   6.531  0.7566 -0.1209 -0.6231
 1221poe    c23 6010   6.186   6.025   6.649  0.0924 -0.0478 -0.1890
 1221poe     o2 6011   6.262   5.924   6.588  0.2856 -0.2751  0.4245
 1221poe    c31 6012   6.367   5.887   6.675  0.3218 -1.0161  0.0724
 1222poe    c31 6013   2.138   0.113   6.705 -0.1013 -0.1771 -0.3871
 1222poe     o2 6014   2.066   0.231   6.732 -0.2490 -0.4554  0.4824
 1222poe    c23 6015   1.930   0.202   6.707 -0.3044 -0.3466  0.6617
 1222poe    c23 6016   1.838   0.320   6.742 -0.4018 -0.1809 -0.1287
 1222poe     o2 6017   1.905   0.441   6.711 -0.6225  0.0075  0.1190
 1222poe    c23 6018   1.838   0.558   6.752 -0.4125  0.0901  0.2235
 1222poe    c23 6019   1.935   0.675   6.723 -0.0563 -0.4207 -0.6990
 1222poe     o2 6020   2.065   0.643   6.768  0.0669  0.1906 -0.6121
 1222poe    c23 6021   2.140   0.762   6.760  0.5671 -0.1123 -0.4451
 1222poe    c23 6022   2.269   0.767   6.844 -0.2445 -0.1327  0.8306
 1222poe     o2 6023   2.360   0.662   6.818  0.1931  0.4966 -0.2416
 1222poe    c31 6024   2.480   0.708   6.878  0.1299 -0.5244  0.6959
 1223poe    c31 6025   1.306   6.644   5.439  0.5073 -0.4173 -0.2778
 1223poe     o2 6026   1.212   6.563   5.372 -0.7058  0.6377  0.1100
 1223poe    c23 6027   1.116   6.495   5.449 -0.4530 -0.0076 -0.1397
 1223poe    c23 6028   1.024   6.438   5.339 -0.5918  0.3292 -0.2005
 1223poe     o2 6029   1.100   6.372   5.240  0.0338  0.4950  0.1601
 1223poe    c23 6030   1.020   6.276   5.173  0.2919 -0.1386  0.7465
 1223poe    c23 6031   1.100   6.247   5.045  0.5139 -0.1519  0.8866
 1223poe     o2 6032   1.225   6.183   5.055  0.6503 -0.0719 -0.2234
 1223poe    c23 6033   1.290   6.194   4.929  0.2670  0.1644 -0.4014
 1223poe    c23 6034   1.434   6.141   4.939  0.1610  0.0199  0.4689
 1223poe     o2 6035   1.522   6.199   5.032  0.0844 -0.4177  0.8164
 1223poe    c31 6036   1.649   6.137   5.026  0.0206 -0.4606 -0.3330
 1224poe    c31 6037   3.762   1.122   4.056  0.6055  0.1430  0.5788
 1224poe     o2 6038   3.725   1.116   4.192 -0.2980 -0.4679  0.3115
 1224poe    c23 6039   3.758   0.988   4.241 -0.2981 -0.3647  0.5811
 1224poe    c23 6040   3.691   0.967   4.378  0.3517 -0.6637  0.8561
 1224poe     o2 6041   3.727   1.089   4.438  0.0639 -0.0946 -0.1049
 1224poe    c23 6042   3.649   1.106   4.554  0.2281 -0.2338  0.0269
 1224poe    c23 6043   3.675   1.252   4.593 -0.1421 -0.1093 -0.1874
 1224poe     o2 6044   3.680   1.324   4.472 -0.0953  0.0132 -0.1130
 1224poe    c23 6045   3.574   1.416   4.459  0.2889  0.4532 -0.1610
 1224poe    c23 6046   3.591   1.484   4.322  0.0285  0.0438 -0.3988
 1224poe     o2 6047   3.663   1.399   4.236  0.5764  0.1307 -0.0292
 1224poe    c31 6048   3.695   1.452   4.109  0.6743 -0.0964 -0.0995
 1225poe    c31 6049   4.996   0.940   0.989 -0.6794  0.7518  0.2544
 1225poe     o2 6050   4.963   0.948   0.852  0.3681  0.1753 -0.0379
 1225poe    c23 6051   5.010   1.073   0.807 -0.0042  0.2462 -0.2324
 1225poe    c23 6052   4.928   1.103   0.680 -0.0435  0.2628 -0.2027
 1225poe     o2 6053   4.791   1.112   0.716  0.0284  0.1826  0.0968
 1225poe    c23 6054   4.714   1.152   0.605 -0.4999 -0.4651  0.2289
 1225poe    c23 6055   4.565   1.155   0.645 -0.7090  0.0940 -0.5708
 1225poe     o2 6056   4.530   1.218   0.766 -0.3138  0.4137 -0.6202
 1225poe    c23 6057   4.390   1.217   0.783 -0.2181  0.1943  0.2218
 1225poe    c23 6058   4.367   1.192   0.933  0.0504  0.0467  0.2411
 1225poe     o2 6059   4.479   1.123   0.982  0.1463 -0.2093 -0.3324
 1225poe    c31 6060   4.454   1.072   1.111  0.5790 -0.3765 -0.3133
 1226poe    c31 6061   2.985   3.856   2.880 -0.1114 -0.1352 -0.6573
 1226poe     o2 6062   3.046   3.962   2.810  0.2999 -0.0369 -0.1562
 1226poe    c23 6063   3.168   4.007   2.864 -0.0453  0.2232  0.4098
 1226poe    c23 6064   3.249   4.120   2.797  0.4014 -0.3157  0.0408
 1226poe     o2 6065   3.190   4.247   2.808  0.2210 -0.3658 -0.3501
 1226poe    c23 6066   3.279   4.336   2.745  0.2825 -0.4988 -0.4505
 1226poe    c23 6067   3.217   4.476   2.736  0.6079 -0.3752 -0.8213
 1226poe     o2 6068   3.094   4.480   2.667 -0.2538 -0.1464  0.6696
 1226poe    c23 6069   3.024   4.591   2.717  0.2956  0.3132  0.4297
 1226poe    c23 6070   2.874   4.614   2.686  0.3555  0.5862  0.3393
 1226poe     o2 6071   2.798   4.520   2.758 -0.0304  0.6646  0.0304
 1226poe    c31 6072   2.662   4.525   2.719 -0.1004  0.8348  0.2923
 1227poe    c31 6073   2.436   0.792   0.992 -0.5200 -0.0570  0.3654
 1227poe     o2 6074   2.354   0.791   0.876 -0.2734  0.2431  0.1869
 1227poe    c23 6075   2.398   0.698   0.780 -0.7033  0.5512 -0.3076
 1227poe    c23 6076   2.498   0.750   0.676 -0.1776 -0.2571 -0.2097
 1227poe     o2 6077   2.447   0.842   0.582 -0.6531 -0.4578 -0.1509
 1227poe    c23 6078   2.440   0.973   0.633 -0.5335 -0.3212 -0.4791
 1227poe    c23 6079   2.350   1.074   0.561 -0.4314 -0.4531 -0.7937
 1227poe     o2 6080   2.373   1.084   0.422  0.4193 -0.0023 -0.6282
 1227poe    c23 6081   2.288   1.180   0.362  0.0989 -0.1384 -0.3932
 1227poe    c23 6082   2.346   1.204   0.222  0.3415  0.3942 -0.2018
 1227poe     o2 6083   2.405   1.091   0.161 -0.6826 -0.2245 -0.0712
 1227poe    c31 6084   2.452   1.134   0.035  0.0196 -0.1194  0.2220
 1228poe    c31 6085   2.716   1.177   0.349  0.2392  0.2438 -0.4006
 1228poe     o2 6086   2.635   1.062   0.350 -0.0354  0.4347 -0.3714
 1228poe    c23 6087   2.700   0.974   0.260  0.4807  0.4129  0.0200
 1228poe    c23 6088   2.654   0.828   0.272  0.4817  0.3681 -0.5367
 1228poe     o2 6089   2.514   0.841   0.275  0.4119 -0.5803  1.1960
 1228poe    c23 6090   2.462   0.710   0.260  0.0514 -0.4881  1.5941
 1228poe    c23 6091   2.311   0.705   0.285 -0.1638  0.0185  0.4744
 1228poe     o2 6092   2.233   0.796   0.210  0.3311 -0.0675 -0.1497
 1228poe    c23 6093   2.099   0.794   0.256  0.4036 -0.6087  0.0518
 1228poe    c23 6094   2.008   0.888   0.175 -0.2757 -0.3964  1.0403
 1228poe     o2 6095   2.036   1.025   0.197 -0.3049 -0.2646  0.2939
 1228poe    c31 6096   1.936   1.110   0.145  0.3233 -0.3243 -1.0427
 1229poe    c31 6097   2.564   4.499   6.029 -0.0552  0.2130 -0.1560
 1229poe     o2 6098   2.505   4.479   5.902 -0.3176 -0.0912  0.0124
 1229poe    c23 6099   2.365   4.493   5.911 -0.2626  0.4770  0.0450
 1229poe    c23 6100   2.313   4.459   5.771 -0.6263  0.4925  0.1766
 1229poe     o2 6101   2.397   4.519   5.675 -0.2352 -0.2023  0.0779
 1229poe    c23 6102   2.339   4.524   5.546 -0.0611 -0.4034 -0.0088
 1229poe    c23 6103   2.452   4.563   5.449  0.3652 -0.0859  0.6037
 1229poe     o2 6104   2.510   4.445   5.398  0.1583  0.0654  0.0122
 1229poe    c23 6105   2.591   4.450   5.282 -0.0377 -0.1674 -0.1360
 1229poe    c23 6106   2.588   4.306   5.227 -0.3596 -0.2198  0.0175
 1229poe     o2 6107   2.661   4.213   5.304 -0.0382 -0.0996 -0.1392
 1229poe    c31 6108   2.635   4.090   5.240 -0.1377  0.2539 -0.7982
 1230poe    c31 6109   5.087   2.317   6.485 -0.2706  0.4237  0.1128
 1230poe     o2 6110   5.080   2.448   6.433 -0.3927  0.1867 -0.4814
 1230poe    c23 6111   5.101   2.549   6.530  0.0253 -0.0086 -0.3662
 1230poe    c23 6112   5.069   2.696   6.499 -0.1292 -0.0176 -0.2494
 1230poe     o2 6113   5.149   2.757   6.400 -0.3693 -0.1484 -0.5269
 1230poe    c23 6114   5.099   2.881   6.357 -0.7647  0.0275  0.4177
 1230poe    c23 6115   5.198   2.943   6.256 -0.6551  0.0213  0.5199
 1230poe     o2 6116   5.247   2.838   6.175 -0.3910  0.4110  0.1713
 1230poe    c23 6117   5.331   2.896   6.078 -0.4024 -0.4984 -0.3896
 1230poe    c23 6118   5.429   2.788   6.028  0.2203 -0.2201  0.2182
 1230poe     o2 6119   5.444   2.692   6.130  0.1082 -0.1235  0.3259
 1230poe    c31 6120   5.550   2.607   6.093 -0.0421 -0.0262 -0.3406
 1231poe    c31 6121   5.465   1.400   3.446  0.1323  0.1515  0.3890
 1231poe     o2 6122   5.325   1.392   3.425  0.2211 -0.5506  0.0607
 1231poe    c23 6123   5.295   1.361   3.291 -0.2995 -0.1045  0.0703
 1231poe    c23 6124   5.148   1.325   3.266 -0.2330 -0.1848 -0.2149
 1231poe     o2 6125   5.074   1.403   3.357 -0.1196 -0.2775 -0.0414
 1231poe    c23 6126   4.936   1.372   3.353 -0.1910  0.0638 -0.2493
 1231poe    c23 6127   4.860   1.490   3.416 -0.2791 -0.2394  0.2163
 1231poe     o2 6128   4.923   1.517   3.539  0.8197  0.4809 -0.4841
 1231poe    c23 6129   4.831   1.571   3.630  0.5302 -0.2714 -0.3244
 1231poe    c23 6130   4.894   1.591   3.769  0.1338  0.2349 -0.2134
 1231poe     o2 6131   5.008   1.672   3.761  0.1604  0.2757  0.4519
 1231poe    c31 6132   5.052   1.727   3.883  0.8851 -0.0483  0.3403
 1232poe    c31 6133   0.785   2.486   0.558  0.0952  0.0921  0.4957
 1232poe     o2 6134   0.671   2.413   0.518 -0.0282  0.2669  0.5224
 1232poe    c23 6135   0.585   2.410   0.629 -0.0785 -0.7500  0.4730
 1232poe    c23 6136   0.468   2.310   0.626 -0.5217 -0.2175 -0.3891
 1232poe     o2 6137   0.525   2.181   0.626 -0.4043 -0.1677  0.2047
 1232poe    c23 6138   0.425   2.082   0.631 -0.4772 -0.1208 -0.2321
 1232poe    c23 6139   0.485   1.941   0.643  0.1581  0.1838  0.2209
 1232poe     o2 6140   0.607   1.935   0.571 -0.1297 -0.4804 -0.2149
 1232poe    c23 6141   0.622   1.813   0.500 -0.2919 -0.4404 -0.3188
 1232poe    c23 6142   0.766   1.799   0.450 -0.1395 -0.5492  0.1469
 1232poe     o2 6143   0.850   1.743   0.549  0.3932 -0.1724 -0.0872
 1232poe    c31 6144   0.988   1.745   0.519  0.4549  0.2888  0.2202
 1233poe    c31 6145   3.415   5.612   0.066 -0.6790 -0.5107 -0.8046
 1233poe     o2 6146   3.409   5.713  -0.032  0.0116  0.4020  0.0814
 1233poe    c23 6147   3.367   5.642  -0.146  0.2878  0.4168 -0.0287
 1233poe    c23 6148   3.380   5.734  -0.269  0.1733  0.2370 -0.1753
 1233poe     o2 6149   3.278   5.831  -0.262 -0.0162  0.0144  0.1396
 1233poe    c23 6150   3.310   5.959  -0.310 -0.1221 -0.0171 -0.0160
 1233poe    c23 6151   3.428   6.031  -0.243 -0.0844  0.6094 -0.7436
 1233poe     o2 6152   3.438   5.981  -0.112 -0.8858  0.7855 -0.6090
 1233poe    c23 6153   3.517   6.074  -0.041  0.2573 -0.5927 -0.0085
 1233poe    c23 6154   3.567   6.016   0.093  0.3963  0.5159  0.4298
 1233poe     o2 6155   3.463   5.941   0.151  0.4231  0.3426  0.2524
 1233poe    c31 6156   3.488   5.947   0.289 -0.0459  0.9093  0.3137
 1234poe    c31 6157   4.517   3.971   2.372  0.0934 -0.2727  0.0154
 1234poe     o2 6158   4.394   4.006   2.312  0.1930 -0.3259 -0.2204
 1234poe    c23 6159   4.407   4.112   2.221  0.1033  0.6057  0.8366
 1234poe    c23 6160   4.270   4.148   2.160  0.1373  0.2473  0.5446
 1234poe     o2 6161   4.188   4.034   2.170  0.2847  0.1047  0.1197
 1234poe    c23 6162   4.084   4.029   2.076  0.3586 -0.1314  0.0482
 1234poe    c23 6163   3.993   3.912   2.117 -0.2689  0.4569  0.3681
 1234poe     o2 6164   4.007   3.896   2.256  0.1832  0.8552  0.3697
 1234poe    c23 6165   3.914   3.795   2.289  0.7934  0.1438 -0.0375
 1234poe    c23 6166   3.891   3.771   2.439  0.4871  0.3466 -0.0501
 1234poe     o2 6167   4.005   3.746   2.519  0.0572  0.0655  0.4802
 1234poe    c31 6168   3.965   3.751   2.654  0.5159  0.0559  0.6192
 1235poe    c31 6169   6.290   4.157   6.470 -0.3438  0.0597 -0.6826
 1235poe     o2 6170   6.309   4.020   6.445  0.2541  0.0754 -0.3327
 1235poe    c23 6171   6.335   4.007   6.307 -0.0527 -0.0650 -0.3787
 1235poe    c23 6172   6.440   3.895   6.295 -0.0707 -0.1109 -0.1027
 1235poe     o2 6173   6.400   3.785   6.373  0.2799 -0.1142  0.0755
 1235poe    c23 6174   6.452   3.657   6.345 -1.3555 -0.7922 -0.0178
 1235poe    c23 6175   6.458   3.577   6.477 -0.2216 -0.0727  0.3829
 1235poe     o2 6176   6.333   3.543   6.532 -0.3592  0.6946  0.5601
 1235poe    c23 6177   6.352   3.477   6.655  0.3480  0.2725  0.2319
 1235poe    c23 6178   6.213   3.454   6.717  0.1520 -0.1895 -0.3732
 1235poe     o2 6179   6.141   3.572   6.686 -0.0414 -0.1906  0.0666
 1235poe    c31 6180   6.035   3.584   6.778  0.3596 -0.5690  0.5890
 1236poe    c31 6181   4.799   1.489   4.462 -0.3831 -0.1120 -0.0024
 1236poe     o2 6182   4.812   1.537   4.331  0.0643 -0.3097 -0.0293
 1236poe    c23 6183   4.781   1.674   4.328  0.2155 -0.2737  0.0128
 1236poe    c23 6184   4.738   1.707   4.183 -0.2547 -0.1092  0.1849
 1236poe     o2 6185   4.688   1.837   4.162 -0.0295 -0.0416  0.0583
 1236poe    c23 6186   4.677   1.877   4.027  0.0222  0.2554  0.1427
 1236poe    c23 6187   4.679   2.031   4.027 -0.1257  0.2589 -0.4669
 1236poe     o2 6188   4.567   2.073   4.102 -0.2781  0.1101 -0.6099
 1236poe    c23 6189   4.478   2.153   4.028  0.0273 -0.0829 -1.1915
 1236poe    c23 6190   4.348   2.181   4.105  0.3130 -0.0401 -0.7193
 1236poe     o2 6191   4.395   2.263   4.209 -0.5154 -0.0002 -0.3696
 1236poe    c31 6192   4.316   2.265   4.326  0.2410 -0.2654  0.1583
 1237poe    c31 6193   2.395   5.509   2.315 -0.0525  0.9694 -0.0913
 1237poe     o2 6194   2.448   5.539   2.442 -0.1238 -0.3868  0.2661
 1237poe    c23 6195   2.415   5.456   2.552 -0.6056  0.1301  0.5170
 1237poe    c23 6196   2.502   5.476   2.677  0.2438  0.1532 -0.0678
 1237poe     o2 6197   2.639   5.446   2.675  0.3274  0.5217 -0.0394
 1237poe    c23 6198   2.689   5.465   2.806 -0.0147  0.2675  0.1316
 1237poe    c23 6199   2.842   5.486   2.811  0.0445  0.0812 -0.6836
 1237poe     o2 6200   2.878   5.384   2.720  0.4587  0.3197 -0.7869
 1237poe    c23 6201   3.018   5.396   2.708  0.5880  0.3159  0.5105
 1237poe    c23 6202   3.075   5.265   2.651  0.1432  0.1773  0.3801
 1237poe     o2 6203   3.034   5.146   2.715 -0.1544  0.0392 -0.0558
 1237poe    c31 6204   3.048   5.053   2.611  0.3151 -0.3226  0.3264
 1238poe    c31 6205   1.736   4.151   5.371  0.6560  0.3802 -0.5010
 1238poe     o2 6206   1.842   4.076   5.425 -0.0601 -0.2333  0.0742
 1238poe    c23 6207   1.967   4.142   5.415 -0.1297 -0.0416  0.4445
 1238poe    c23 6208   2.099   4.062   5.411  0.2377  0.5980 -0.4995
 1238poe     o2 6209   2.098   3.969   5.305 -0.0870  0.3247 -0.2589
 1238poe    c23 6210   2.193   3.866   5.317 -0.2301  0.2485  0.2560
 1238poe    c23 6211   2.134   3.724   5.320  0.3826 -0.0119  0.1762
 1238poe     o2 6212   2.057   3.686   5.208  0.5444 -0.0580  0.0801
 1238poe    c23 6213   2.015   3.552   5.199  0.1256  0.0985 -0.3278
 1238poe    c23 6214   1.946   3.537   5.062 -0.0045 -0.3416 -0.2171
 1238poe     o2 6215   1.863   3.651   5.056 -0.3707 -0.5894  0.0646
 1238poe    c31 6216   1.802   3.676   4.931  0.4137  0.0276 -0.2062
 1239poe    c31 6217   2.998   0.824   3.327  0.2101  0.5853 -0.6544
 1239poe     o2 6218   2.955   0.767   3.449  0.3673  0.6080 -0.5886
 1239poe    c23 6219   2.821   0.808   3.464  0.3613  0.2944  0.2272
 1239poe    c23 6220   2.746   0.726   3.572  0.1229  0.1480 -0.0491
 1239poe     o2 6221   2.809   0.754   3.695  0.1933  0.1512 -0.0857
 1239poe    c23 6222   2.748   0.678   3.797 -0.5922 -0.1819 -0.7912
 1239poe    c23 6223   2.831   0.701   3.925 -0.9669 -0.4661 -0.4969
 1239poe     o2 6224   2.969   0.692   3.898 -0.7280 -0.0409  0.5657
 1239poe    c23 6225   3.032   0.722   4.021 -0.1172  0.5440  0.1184
 1239poe    c23 6226   3.182   0.719   3.987 -0.2334 -0.1869 -0.3600
 1239poe     o2 6227   3.205   0.817   3.888  0.0657  0.3862  0.2680
 1239poe    c31 6228   3.342   0.801   3.860  0.0408  0.5695  0.0440
 1240poe    c31 6229   4.721   2.817   3.890  0.0355  0.0110  0.1770
 1240poe     o2 6230   4.781   2.689   3.890 -0.4217 -0.2069 -0.1190
 1240poe    c23 6231   4.774   2.633   3.761 -0.2269 -0.3972 -0.0475
 1240poe    c23 6232   4.914   2.608   3.701 -0.3583 -0.0587 -0.5033
 1240poe     o2 6233   4.987   2.524   3.787  0.1944  0.3966 -0.5192
 1240poe    c23 6234   5.098   2.463   3.725  0.0927  0.0795 -0.3941
 1240poe    c23 6235   5.164   2.373   3.831 -0.6004 -0.3629 -0.3362
 1240poe     o2 6236   5.193   2.445   3.948 -0.2652 -0.5209 -0.3219
 1240poe    c23 6237   5.313   2.395   4.002 -0.2550 -0.1738 -0.0163
 1240poe    c23 6238   5.339   2.477   4.130  0.2045 -0.2015 -0.0902
 1240poe     o2 6239   5.318   2.610   4.088  0.8474  0.0555  0.3871
 1240poe    c31 6240   5.402   2.698   4.160  0.4444  0.0304  0.8933
 1241poe    c31 6241   6.816   4.341   0.053  0.5340  0.4115  0.0248
 1241poe     o2 6242   6.866   4.301  -0.072 -0.0431  0.1540 -0.1264
 1241poe    c23 6243   6.929   4.411  -0.133 -0.4772  0.2690 -0.3744
 1241poe    c23 6244   6.954   4.379  -0.281  0.4387 -0.2020 -0.1259
 1241poe     o2 6245   7.033   4.468  -0.357  0.0257 -0.6363 -1.0901
 1241poe    c23 6246   6.995   4.464  -0.492 -0.7800  0.2976 -0.9049
 1241poe    c23 6247   7.027   4.335  -0.570  0.1702  0.0146 -0.0642
 1241poe     o2 6248   7.168   4.323  -0.567  0.1563 -0.1255  0.0040
 1241poe    c23 6249   7.213   4.232  -0.665 -0.1860 -0.0891 -0.1887
 1241poe    c23 6250   7.366   4.247  -0.675 -0.2140  0.5018  0.2239
 1241poe     o2 6251   7.413   4.287  -0.548  0.0486 -0.6286  0.4953
 1241poe    c31 6252   7.553   4.286  -0.561 -0.0379  0.4656 -0.8559
 1242poe    c31 6253   1.750   6.177   6.497 -0.1486  0.0126 -0.1675
 1242poe     o2 6254   1.785   6.047   6.538  0.0892  0.0562 -0.2279
 1242poe    c23 6255   1.860   5.971   6.445 -0.0578 -0.0334 -0.2739
 1242poe    c23 6256   1.932   5.865   6.531 -0.1995 -0.0231 -0.1401
 1242poe     o2 6257   1.837   5.827   6.627  0.4215 -0.0080  0.4836
 1242poe    c23 6258   1.878   5.739   6.730  0.5011  0.2272  0.6554
 1242poe    c23 6259   1.754   5.657   6.770  0.8396 -0.4286  0.3782
 1242poe     o2 6260   1.654   5.736   6.830  0.2855 -0.2347 -0.7847
 1242poe    c23 6261   1.542   5.653   6.853  0.1936  0.2353  0.5485
 1242poe    c23 6262   1.415   5.735   6.884 -0.4326 -0.3832 -0.3318
 1242poe     o2 6263   1.375   5.839   6.797  0.2145  0.0373 -0.1325
 1242poe    c31 6264   1.258   5.900   6.847  0.7070  1.4866 -0.6908
 1243poe    c31 6265   0.645   1.835   3.927  0.0102 -0.5503 -0.0107
 1243poe     o2 6266   0.640   1.869   4.063 -0.1112 -0.6750  0.0167
 1243poe    c23 6267   0.673   1.759   4.144  0.2448 -0.4156  0.2287
 1243poe    c23 6268   0.642   1.748   4.295 -0.8809  0.1814  0.0532
 1243poe     o2 6269   0.714   1.854   4.353 -0.1382 -0.0040 -0.5135
 1243poe    c23 6270   0.697   1.849   4.493 -0.0081 -0.1269 -0.5033
 1243poe    c23 6271   0.722   1.993   4.542 -0.0478 -0.3004  0.0292
 1243poe     o2 6272   0.639   2.102   4.510 -0.0725 -0.1609  0.5684
 1243poe    c23 6273   0.677   2.211   4.592 -0.0727  0.3173 -0.0597
 1243poe    c23 6274   0.633   2.349   4.540  0.0339  0.3741  0.0008
 1243poe     o2 6275   0.696   2.387   4.419  0.2694  0.1948  0.0667
 1243poe    c31 6276   0.652   2.510   4.366  0.4356  0.3009  0.1732
 1244poe    c31 6277   2.028   5.684   3.455  0.2401  0.2377  0.4162
 1244poe     o2 6278   2.157   5.638   3.421 -0.1253 -0.7928  0.3907
 1244poe    c23 6279   2.172   5.612   3.283  0.2912  0.6335  0.1602
 1244poe    c23 6280   2.302   5.529   3.277 -0.1267 -0.0146  0.0487
 1244poe     o2 6281   2.395   5.584   3.367  0.0862 -0.0902 -0.1258
 1244poe    c23 6282   2.523   5.526   3.356 -0.1786 -0.7852  0.3569
 1244poe    c23 6283   2.607   5.562   3.480  0.1844 -0.0287 -0.0983
 1244poe     o2 6284   2.554   5.489   3.589  0.2873  0.5230  0.3250
 1244poe    c23 6285   2.604   5.541   3.710 -0.1285  0.4880  0.5130
 1244poe    c23 6286   2.550   5.479   3.840  0.4038  0.3148  0.6562
 1244poe     o2 6287   2.416   5.507   3.875  0.2591  0.1759  0.2216
 1244poe    c31 6288   2.407   5.545   4.010  0.3014 -0.2701  0.3538
 1245poe    c31 6289   5.318   0.163   3.088  0.1984  0.3058 -0.2728
 1245poe     o2 6290   5.309   0.038   3.153 -0.7433  0.4153 -0.1876
 1245poe    c23 6291   5.312   0.044   3.293  0.2904 -0.1519 -0.1756
 1245poe    c23 6292   5.332  -0.096   3.353  0.1971 -0.2145 -0.2905
 1245poe     o2 6293   5.220  -0.181   3.367 -0.0243  0.0240 -0.6044
 1245poe    c23 6294   5.264  -0.308   3.408  0.4102 -0.0121 -1.1728
 1245poe    c23 6295   5.161  -0.421   3.385  0.8934 -0.8772  0.7343
 1245poe     o2 6296   5.120  -0.412   3.250  0.4579 -0.6385  0.8785
 1245poe    c23 6297   4.999  -0.483   3.236  0.1335  0.1488 -0.3815
 1245poe    c23 6298   4.962  -0.481   3.086  0.4452 -0.1330 -0.4634
 1245poe     o2 6299   5.016  -0.358   3.044 -0.4835  0.5917  0.4144
 1245poe    c31 6300   4.997  -0.352   2.904 -0.4230  0.4960  0.4024
 1246poe    c31 6301   3.022   2.018   3.618  0.1938 -0.3599  0.0909
 1246poe     o2 6302   2.906   2.006   3.698  0.1637  0.5919  0.2008
 1246poe    c23 6303   2.911   1.892   3.781 -0.0568  0.2332 -0.2719
 1246poe    c23 6304   2.802   1.921   3.885 -0.2587 -0.3355 -0.3198
 1246poe     o2 6305   2.677   1.955   3.829 -0.2717 -0.0104 -0.0978
 1246poe    c23 6306   2.606   1.862   3.750 -0.1256 -0.1553 -0.0593
 1246poe    c23 6307   2.457   1.900   3.736 -0.2303 -0.4547  0.2407
 1246poe     o2 6308   2.454   2.037   3.704  0.0891 -0.6457 -0.6177
 1246poe    c23 6309   2.322   2.082   3.685  0.2905  0.1738 -0.1214
 1246poe    c23 6310   2.326   2.235   3.673  0.8743  0.1490 -0.2814
 1246poe     o2 6311   2.424   2.282   3.763 -0.1326  0.5177  0.6545
 1246poe    c31 6312   2.472   2.413   3.739  0.4479  0.1010 -0.5386
 1247poe    c31 6313   3.610   3.081   6.838  0.3099  0.3900 -0.5612
 1247poe     o2 6314   3.616   3.006   6.719 -0.2044  0.2527 -0.5011
 1247poe    c23 6315   3.662   2.875   6.743 -0.5436  0.3415  0.7104
 1247poe    c23 6316   3.688   2.808   6.607 -0.0307  0.2183  0.8639
 1247poe     o2 6317   3.786   2.881   6.537 -0.0670  0.0525  0.6396
 1247poe    c23 6318   3.777   2.831   6.405  0.1618  0.7132  0.3661
 1247poe    c23 6319   3.872   2.921   6.325  0.2614  0.1991 -0.1050
 1247poe     o2 6320   3.836   3.052   6.364 -0.3014 -0.0423  0.2038
 1247poe    c23 6321   3.867   3.166   6.286 -0.1706 -0.1101  0.1557
 1247poe    c23 6322   3.761   3.216   6.186 -0.4900 -0.6138  0.2392
 1247poe     o2 6323   3.665   3.267   6.275 -0.6424 -0.2200 -0.1528
 1247poe    c31 6324   3.570   3.333   6.193 -0.7660  0.0370  0.1967
 1248poe    c31 6325   0.131   4.598   1.528  0.3942  0.2604  0.0807
 1248poe     o2 6326   0.133   4.461   1.563  0.7185  0.2813  0.1494
 1248poe    c23 6327   0.133   4.360   1.465  0.0842  0.5157 -0.1034
 1248poe    c23 6328   0.269   4.360   1.393  0.4907 -0.0885  0.6370
 1248poe     o2 6329   0.367   4.307   1.478  0.7769  0.5489  0.7092
 1248poe    c23 6330   0.489   4.296   1.408  0.4152 -0.4127  0.2114
 1248poe    c23 6331   0.595   4.245   1.507  0.5101 -0.4644  0.0840
 1248poe     o2 6332   0.591   4.322   1.626  0.3794 -0.7670  0.2768
 1248poe    c23 6333   0.652   4.446   1.602  0.0011 -0.5868  0.2392
 1248poe    c23 6334   0.644   4.533   1.729  0.2895  0.0167 -0.1473
 1248poe     o2 6335   0.536   4.493   1.811 -0.2485  0.1574 -0.7752
 1248poe    c31 6336   0.510   4.610   1.884 -0.0005 -0.0596 -0.3348
 1249poe    c31 6337   0.570   6.276   4.115  1.5427  0.1274 -0.1328
 1249poe     o2 6338   0.573   6.236   4.250  0.2230 -0.9668 -0.3968
 1249poe    c23 6339   0.502   6.119   4.283 -1.0923 -0.1140 -0.1553
 1249poe    c23 6340   0.525   6.083   4.431 -0.9422  0.0495 -0.1388
 1249poe     o2 6341   0.552   6.212   4.481  0.4010 -0.3372  0.1787
 1249poe    c23 6342   0.566   6.208   4.621 -0.7213 -0.2739  0.3049
 1249poe    c23 6343   0.534   6.346   4.682 -0.4793  0.0956 -0.3955
 1249poe     o2 6344   0.600   6.456   4.623  0.8133 -0.0243  0.7678
 1249poe    c23 6345   0.559   6.577   4.682 -0.3300  0.0662 -0.1754
 1249poe    c23 6346   0.612   6.706   4.617  0.7095 -0.1321  0.2676
 1249poe     o2 6347   0.532   6.736   4.505  0.5424 -0.2823  0.3481
 1249poe    c31 6348   0.579   6.863   4.467 -0.4129 -0.2535 -0.8082
 1250poe    c31 6349   6.755   2.269   1.780  0.0737  0.3325 -0.3372
 1250poe     o2 6350   6.755   2.311   1.915 -0.8489 -0.2604 -0.1469
 1250poe    c23 6351   6.803   2.217   2.008 -0.4219 -0.0377 -0.1442
 1250poe    c23 6352   6.804   2.273   2.151  0.4844  0.2181 -0.2428
 1250poe     o2 6353   6.673   2.307   2.192  0.4635 -0.0577 -0.0805
 1250poe    c23 6354   6.679   2.418   2.279  0.4903  0.5398 -0.8332
 1250poe    c23 6355   6.725   2.396   2.424 -0.0162  0.6543 -0.6529
 1250poe     o2 6356   6.864   2.388   2.449 -0.2523  0.5275  0.6616
 1250poe    c23 6357   6.909   2.302   2.551 -0.6293 -0.0760  0.3230
 1250poe    c23 6358   6.899   2.354   2.696  0.0325 -0.1268  0.3871
 1250poe     o2 6359   6.961   2.478   2.723 -0.3118  0.1170  0.0624
 1250poe    c31 6360   6.921   2.535   2.845 -0.4238 -0.1740  0.1616
 1251poe    c31 6361   2.461   4.842   0.817  0.4120 -0.2732  0.1154
 1251poe     o2 6362   2.374   4.733   0.835 -0.1890  0.1958  0.1081
 1251poe    c23 6363   2.414   4.625   0.754 -0.0588  0.3843 -0.0777
 1251poe    c23 6364   2.317   4.509   0.781  0.8421 -0.2852  0.3486
 1251poe     o2 6365   2.279   4.478   0.913 -0.0340  0.1205  0.1990
 1251poe    c23 6366   2.215   4.353   0.926 -0.1819  0.1400 -0.3122
 1251poe    c23 6367   2.193   4.311   1.073  1.0693  0.3249 -0.0590
 1251poe     o2 6368   2.150   4.425   1.143 -0.2373 -0.0027 -0.3112
 1251poe    c23 6369   2.144   4.418   1.284 -0.2874  0.0173 -0.3119
 1251poe    c23 6370   2.076   4.547   1.331  0.4767  0.2010  0.3231
 1251poe     o2 6371   2.139   4.669   1.299  0.5158  0.0123 -0.3303
 1251poe    c31 6372   2.052   4.779   1.312  0.4689 -0.0642  0.0134
 1252poe    c31 6373   1.567   3.536   4.561 -0.0272 -0.4150  0.3335
 1252poe     o2 6374   1.636   3.421   4.517 -0.1329 -0.3622  0.0288
 1252poe    c23 6375   1.543   3.320   4.485  0.0485 -0.4027 -0.3810
 1252poe    c23 6376   1.613   3.184   4.504 -0.0182 -0.3999 -0.1014
 1252poe     o2 6377   1.746   3.209   4.464  0.1138  0.1080  0.6494
 1252poe    c23 6378   1.826   3.095   4.480  0.2978  0.1651  0.1572
 1252poe    c23 6379   1.978   3.101   4.453  0.3389  0.0977  0.3675
 1252poe     o2 6380   2.026   3.223   4.507  0.4102  0.3209 -0.1962
 1252poe    c23 6381   2.154   3.199   4.559  0.1437  0.2957  0.4567
 1252poe    c23 6382   2.225   3.324   4.616  0.5342  0.4407 -0.3248
 1252poe     o2 6383   2.158   3.380   4.727  0.3214  0.1500 -0.3041
 1252poe    c31 6384   2.262   3.427   4.811 -0.2022 -0.2608  0.5904
 1253poe    c31 6385   4.747   0.765   3.353  0.2526  0.0135 -0.8050
 1253poe     o2 6386   4.607   0.754   3.344  0.2257 -0.1005 -0.2748
 1253poe    c23 6387   4.545   0.710   3.463  0.3558  0.1308 -0.1226
 1253poe    c23 6388   4.395   0.680   3.477  0.4044 -0.1340 -0.1715
 1253poe     o2 6389   4.322   0.799   3.490  0.6449  0.0215 -0.2484
 1253poe    c23 6390   4.197   0.769   3.548  0.8097  0.0569  0.1233
 1253poe    c23 6391   4.094   0.883   3.556  0.4838 -0.2074 -0.2766
 1253poe     o2 6392   4.164   0.987   3.621 -0.0139  0.0124 -0.0790
 1253poe    c23 6393   4.101   1.113   3.623 -0.0047  0.0220 -0.3741
 1253poe    c23 6394   4.183   1.220   3.696  0.4065 -0.8408  0.4374
 1253poe     o2 6395   4.307   1.229   3.629  0.0820 -0.2633 -0.0794
 1253poe    c31 6396   4.373   1.351   3.654 -0.1582 -0.1517  0.0118
 1254poe    c31 6397   3.308   0.562   3.271  0.0811 -0.0705 -0.6044
 1254poe     o2 6398   3.388   0.492   3.363 -0.3266 -0.2708 -0.4028
 1254poe    c23 6399   3.482   0.574   3.429 -0.2054 -0.6166 -0.1412
 1254poe    c23 6400   3.524   0.491   3.552 -0.6638 -0.2922  0.2412
 1254poe     o2 6401   3.551   0.357   3.515 -0.1430 -0.0713 -0.1985
 1254poe    c23 6402   3.582   0.283   3.631  0.1093 -0.3757 -0.4576
 1254poe    c23 6403   3.574   0.135   3.591 -0.3548 -0.4161 -0.2259
 1254poe     o2 6404   3.455   0.121   3.517 -0.5951  0.0681  0.0640
 1254poe    c23 6405   3.447  -0.013   3.474 -0.3124  0.2090 -0.4351
 1254poe    c23 6406   3.318  -0.043   3.395 -0.4152 -0.3319 -0.0654
 1254poe     o2 6407   3.304   0.015   3.267 -0.0628  0.1608  0.1173
 1254poe    c31 6408   3.171  -0.007   3.228  0.0814  0.3376 -0.4727
 1255poe    c31 6409   4.395   2.927   1.217  0.9161 -0.3529 -0.1641
 1255poe     o2 6410   4.476   2.840   1.140  0.8571 -0.7347  0.2040
 1255poe    c23 6411   4.514   2.906   1.021 -0.1999  0.0036  0.2576
 1255poe    c23 6412   4.579   2.802   0.928  0.2395  0.2604  0.2717
 1255poe     o2 6413   4.483   2.710   0.880  0.3668  0.1481  0.2329
 1255poe    c23 6414   4.553   2.622   0.795 -0.0279  0.2745 -0.2250
 1255poe    c23 6415   4.443   2.530   0.738  0.2823 -0.1295 -0.1780
 1255poe     o2 6416   4.373   2.487   0.853 -0.1290  0.0953 -0.3398
 1255poe    c23 6417   4.278   2.392   0.811 -0.0418 -0.1836  0.0786
 1255poe    c23 6418   4.320   2.244   0.803 -0.1179 -0.1989 -0.0438
 1255poe     o2 6419   4.384   2.196   0.919  0.2111 -0.0243 -0.1527
 1255poe    c31 6420   4.432   2.066   0.895 -0.3591 -0.1944 -0.3869
 1256poe    c31 6421   5.569   2.748   4.782 -0.4377  0.5957 -0.8094
 1256poe     o2 6422   5.545   2.825   4.898  0.5288  0.0110 -0.2061
 1256poe    c23 6423   5.636   2.925   4.939 -0.0494  0.6399 -0.4380
 1256poe    c23 6424   5.585   2.974   5.076  0.4307  0.5072 -0.2120
 1256poe     o2 6425   5.446   2.991   5.061  0.2437 -0.6922  0.0807
 1256poe    c23 6426   5.383   3.029   5.181 -0.0515  0.5766 -0.4657
 1256poe    c23 6427   5.231   3.049   5.194 -0.1046 -0.3353  0.4373
 1256poe     o2 6428   5.158   2.932   5.167  0.2061 -0.2780 -0.6742
 1256poe    c23 6429   5.021   2.964   5.150  0.1633  0.1654  0.4074
 1256poe    c23 6430   4.976   3.043   5.026 -0.2691 -0.2698  0.2822
 1256poe     o2 6431   4.937   2.969   4.912 -0.3045 -0.6776  0.5565
 1256poe    c31 6432   4.861   3.050   4.825  0.3641  0.0146  0.5981
 1257poe    c31 6433   1.776   5.325   6.583 -0.1317  0.4277  0.2433
 1257poe     o2 6434   1.864   5.223   6.543 -0.1153  0.4098  0.3259
 1257poe    c23 6435   1.791   5.137   6.458 -0.5338  0.6434  0.4479
 1257poe    c23 6436   1.723   5.022   6.535 -0.0184 -0.1215 -0.2183
 1257poe     o2 6437   1.820   4.944   6.600 -0.5039 -0.2666  0.3424
 1257poe    c23 6438   1.774   4.812   6.622 -0.6785 -0.3091 -0.2630
 1257poe    c23 6439   1.883   4.723   6.686 -0.4583  0.1069 -0.0507
 1257poe     o2 6440   1.955   4.773   6.796 -0.2768 -0.0362 -0.1033
 1257poe    c23 6441   2.050   4.689   6.856 -0.2654 -0.3184 -0.5124
 1257poe    c23 6442   2.082   4.743   6.997 -0.5746 -0.1049 -0.5249
 1257poe     o2 6443   2.093   4.880   6.967 -0.4089 -0.0210 -0.0832
 1257poe    c31 6444   2.088   4.960   7.083 -0.4440 -0.6306  0.3407
 1258poe    c31 6445   2.043   3.639   0.486  0.0096  0.0636  0.0415
 1258poe     o2 6446   1.918   3.641   0.422  0.0265 -0.4082 -0.0071
 1258poe    c23 6447   1.823   3.686   0.515 -0.2653  0.1670 -0.5810
 1258poe    c23 6448   1.799   3.838   0.504 -0.3109  0.1967 -0.0659
 1258poe     o2 6449   1.740   3.878   0.383 -0.2058  0.7635  0.0682
 1258poe    c23 6450   1.600   3.892   0.396 -0.3057  0.0265 -0.1739
 1258poe    c23 6451   1.571   3.953   0.258 -0.0151 -0.3675 -0.4101
 1258poe     o2 6452   1.668   3.913   0.164  0.2260  0.7657 -0.6576
 1258poe    c23 6453   1.657   4.007   0.059  0.0783  0.9089 -0.5129
 1258poe    c23 6454   1.769   3.999  -0.046  0.0457 -0.1418 -0.4723
 1258poe     o2 6455   1.885   3.978   0.032 -0.0370 -0.5470 -0.4519
 1258poe    c31 6456   2.009   4.000  -0.030 -0.1157  0.6972 -0.1984
 1259poe    c31 6457   4.130   5.200   4.100  0.3818 -0.5432 -0.0269
 1259poe     o2 6458   4.176   5.332   4.118 -0.8572 -0.0887 -0.0972
 1259poe    c23 6459   4.080   5.435   4.125 -0.6180  0.1090  0.2904
 1259poe    c23 6460   4.156   5.568   4.135 -0.7589  0.2124 -0.0159
 1259poe     o2 6461   4.251   5.536   4.233 -0.3760  0.4336 -0.3108
 1259poe    c23 6462   4.343   5.639   4.260  0.3301 -0.3059  0.1855
 1259poe    c23 6463   4.440   5.575   4.361 -0.4074 -0.4785  0.7869
 1259poe     o2 6464   4.488   5.449   4.320  0.1304 -0.1178  0.2841
 1259poe    c23 6465   4.614   5.409   4.368  0.4100  0.2561 -0.1332
 1259poe    c23 6466   4.644   5.258   4.375  0.2631  0.2627  0.8012
 1259poe     o2 6467   4.656   5.227   4.238  0.3908 -0.2252  0.9209
 1259poe    c31 6468   4.685   5.089   4.247  0.7958 -0.1629  0.5701
 1260poe    c31 6469   4.533   4.493   3.685  0.6144 -0.1746 -0.2433
 1260poe     o2 6470   4.458   4.398   3.611  0.1305  0.1630 -0.1946
 1260poe    c23 6471   4.345   4.452   3.547  0.3075 -0.1247 -0.7611
 1260poe    c23 6472   4.282   4.332   3.474 -0.0441 -0.4109 -0.0013
 1260poe     o2 6473   4.264   4.236   3.575  0.1022 -0.6386 -0.1910
 1260poe    c23 6474   4.221   4.115   3.517 -0.3570 -0.4689 -0.2160
 1260poe    c23 6475   4.248   3.990   3.604 -0.3370 -0.2919  0.0331
 1260poe     o2 6476   4.388   3.970   3.597 -0.2659  0.3654 -0.5699
 1260poe    c23 6477   4.423   3.837   3.627  0.3722  0.6637  0.0151
 1260poe    c23 6478   4.574   3.812   3.642  0.2483  0.0337  0.2339
 1260poe     o2 6479   4.609   3.883   3.759 -0.1245  0.6647 -0.0342
 1260poe    c31 6480   4.748   3.864   3.778 -0.1960  0.4305  0.2661
 1261poe    c31 6481   4.766   5.748   1.106  0.0878 -0.1389  0.4113
 1261poe     o2 6482   4.740   5.835   1.214 -0.5155 -0.2748  0.3810
 1261poe    c23 6483   4.606   5.875   1.202 -0.2351  0.6120  0.0541
 1261poe    c23 6484   4.580   5.981   1.310 -0.1161  0.3529  0.3398
 1261poe     o2 6485   4.667   6.092   1.299  0.1555  0.1308  0.2179
 1261poe    c23 6486   4.630   6.194   1.389  0.1534  0.0738  0.2811
 1261poe    c23 6487   4.662   6.332   1.328 -0.2457 -0.1051 -0.3428
 1261poe     o2 6488   4.797   6.317   1.288 -0.1209  0.0755  0.0028
 1261poe    c23 6489   4.868   6.437   1.309  0.1745 -0.1523  0.3115
 1261poe    c23 6490   5.007   6.391   1.354  0.1532 -0.1889  0.3400
 1261poe     o2 6491   5.054   6.297   1.260 -0.5433 -0.0892 -0.1077
 1261poe    c31 6492   5.177   6.248   1.306 -0.3056  0.4258 -0.1906
 1262poe    c31 6493   2.932   4.979   4.313  0.1154  0.0566 -0.0346
 1262poe     o2 6494   2.921   4.882   4.211 -0.1829 -0.3920  0.4152
 1262poe    c23 6495   3.046   4.824   4.185  0.0158  0.3546 -0.3413
 1262poe    c23 6496   3.029   4.696   4.101  0.3430  0.2415 -0.2342
 1262poe     o2 6497   3.011   4.727   3.965 -0.4526  0.1705 -0.1483
 1262poe    c23 6498   3.018   4.619   3.874  0.3098  0.1749 -0.0997
 1262poe    c23 6499   2.876   4.610   3.816  0.0474  0.0638  0.5502
 1262poe     o2 6500   2.855   4.745   3.779  0.3585 -0.0074  0.0967
 1262poe    c23 6501   2.727   4.759   3.721  0.2272 -0.5914  0.2420
 1262poe    c23 6502   2.720   4.910   3.694  0.5966 -0.5160  0.5641
 1262poe     o2 6503   2.736   4.990   3.809 -0.4140 -0.3289  0.5769
 1262poe    c31 6504   2.669   5.114   3.800 -0.2605 -0.3083 -0.3818
 1263poe    c31 6505   1.456   2.186   2.103  0.4746  0.0831  0.2321
 1263poe     o2 6506   1.356   2.285   2.094  0.3692 -0.0662 -0.2589
 1263poe    c23 6507   1.402   2.417   2.077  0.4824  0.0306  0.7215
 1263poe    c23 6508   1.288   2.518   2.101 -0.0331 -0.4798  0.4478
 1263poe     o2 6509   1.180   2.453   2.039  0.1093 -0.3268  0.0340
 1263poe    c23 6510   1.077   2.550   2.034 -0.3173 -0.7473  0.6173
 1263poe    c23 6511   0.939   2.481   2.035 -0.5939 -0.1990  0.5704
 1263poe     o2 6512   0.951   2.370   1.949 -0.3849  0.4338 -0.2272
 1263poe    c23 6513   0.829   2.298   1.957 -0.5098  0.6740  0.0377
 1263poe    c23 6514   0.799   2.204   1.839 -0.0397  0.0763  0.3872
 1263poe     o2 6515   0.890   2.100   1.813 -0.2405 -0.1084  0.4269
 1263poe    c31 6516   0.828   1.993   1.745 -0.3403 -0.1253  0.5445
 1264poe    c31 6517   1.022   5.797   0.488 -0.0596  0.3516 -0.4927
 1264poe     o2 6518   0.923   5.760   0.395 -0.1740  0.1886 -0.3064
 1264poe    c23 6519   0.833   5.672   0.458  0.0487 -0.1497 -0.4610
 1264poe    c23 6520   0.723   5.641   0.355 -0.1666  0.0977 -0.3075
 1264poe     o2 6521   0.754   5.551   0.251 -0.0676  0.3119 -0.4649
 1264poe    c23 6522   0.737   5.412   0.271 -0.1466  0.4703  0.6359
 1264poe    c23 6523   0.588   5.379   0.287  0.0092 -0.4186  0.3060
 1264poe     o2 6524   0.507   5.420   0.180  0.2556 -0.1800  0.2118
 1264poe    c23 6525   0.371   5.388   0.195  0.0007  0.7593 -0.0170
 1264poe    c23 6526   0.279   5.447   0.086 -0.0172 -0.1477 -0.5049
 1264poe     o2 6527   0.300   5.586   0.078  0.4643 -0.2090 -0.3611
 1264poe    c31 6528   0.224   5.645  -0.025  0.1804  0.1860  0.0643
 1265poe    c31 6529   4.976   0.470   1.768 -0.0732 -0.2325 -0.8237
 1265poe     o2 6530   4.929   0.363   1.690  0.1766 -0.5494 -0.5429
 1265poe    c23 6531   4.809   0.322   1.752 -0.3325  0.7536 -0.6387
 1265poe    c23 6532   4.730   0.248   1.642 -0.3357 -0.0469 -0.1062
 1265poe     o2 6533   4.804   0.132   1.610 -0.6037 -0.3065  0.2045
 1265poe    c23 6534   4.767   0.061   1.494  0.2128  0.0140 -0.2564
 1265poe    c23 6535   4.818   0.136   1.369 -0.0969  0.9097  0.1466
 1265poe     o2 6536   4.952   0.180   1.368  0.2634 -0.1573  0.0963
 1265poe    c23 6537   4.985   0.219   1.237 -0.4145 -0.0773 -0.0573
 1265poe    c23 6538   5.138   0.222   1.220 -0.3516 -0.1823  0.4774
 1265poe     o2 6539   5.189   0.335   1.288  0.5272 -0.2834  0.0068
 1265poe    c31 6540   5.317   0.362   1.237  0.1470  0.0755 -0.7706
 1266poe    c31 6541   5.819   1.302   3.466 -0.3031  0.1033 -0.6896
 1266poe     o2 6542   5.855   1.180   3.405  0.4971  0.3201 -0.6615
 1266poe    c23 6543   5.994   1.176   3.381  0.5641  0.8302 -0.3535
 1266poe    c23 6544   6.008   1.100   3.248 -0.6152 -0.0639  0.0183
 1266poe     o2 6545   5.926   0.985   3.255  0.5807 -0.8984  0.5970
 1266poe    c23 6546   5.880   0.933   3.132  0.5154  0.3854  0.0663
 1266poe    c23 6547   5.745   0.862   3.150  0.7817 -0.0758  0.2495
 1266poe     o2 6548   5.687   0.932   3.258 -0.3041 -0.3486 -0.1419
 1266poe    c23 6549   5.553   0.897   3.284 -0.4340  0.0322 -0.2933
 1266poe    c23 6550   5.539   0.935   3.433  0.7159  0.6459 -0.3249
 1266poe     o2 6551   5.614   1.043   3.482  0.8200  0.4792 -0.1160
 1266poe    c31 6552   5.593   1.058   3.621  0.6882  0.5163 -0.1400
 1267poe    c31 6553   6.496   5.816   0.634  0.1111  0.1113 -0.0356
 1267poe     o2 6554   6.533   5.952   0.643 -0.3338  0.2037  0.4076
 1267poe    c23 6555   6.464   6.026   0.545 -0.4047 -0.0966  0.2293
 1267poe    c23 6556   6.498   6.176   0.560  1.1467 -0.3915 -0.2085
 1267poe     o2 6557   6.516   6.201   0.698  0.7511  0.4163 -0.2954
 1267poe    c23 6558   6.574   6.322   0.741  0.1676  0.6395 -0.1317
 1267poe    c23 6559   6.574   6.310   0.894  0.3309 -0.0991 -0.1841
 1267poe     o2 6560   6.449   6.310   0.959  0.5204 -0.1926  0.1820
 1267poe    c23 6561   6.451   6.296   1.099 -0.2302 -0.4191  0.1774
 1267poe    c23 6562   6.306   6.261   1.137 -0.3872  0.3078  0.2618
 1267poe     o2 6563   6.257   6.154   1.059  0.4958  0.3799 -0.4123
 1267poe    c31 6564   6.157   6.087   1.133  0.4778  0.3276 -0.4839
 1268poe    c31 6565   3.157   2.116   2.552 -0.1999  0.0243 -0.1607
 1268poe     o2 6566   3.292   2.104   2.513 -0.2379 -0.2209 -0.2171
 1268poe    c23 6567   3.372   2.201   2.576 -0.7910 -0.4839  0.9126
 1268poe    c23 6568   3.508   2.132   2.591 -0.1760  0.5721  0.3571
 1268poe     o2 6569   3.539   2.068   2.469 -0.1798  0.2023  0.5454
 1268poe    c23 6570   3.667   2.010   2.465 -0.2749  0.0164  0.1888
 1268poe    c23 6571   3.645   1.863   2.424  0.3932 -0.1304  0.3523
 1268poe     o2 6572   3.522   1.870   2.356  0.5738 -0.4930 -0.0164
 1268poe    c23 6573   3.450   1.756   2.396 -0.1805  0.0749  0.2739
 1268poe    c23 6574   3.313   1.762   2.326  0.0127  0.0891 -0.1039
 1268poe     o2 6575   3.275   1.897   2.322  0.3314  0.1821 -0.0268
 1268poe    c31 6576   3.138   1.908   2.290  0.2019 -0.0671  0.4366
 1269poe    c31 6577   3.175   4.191   4.291 -0.1292 -0.2702  0.2110
 1269poe     o2 6578   3.208   4.242   4.419 -0.0178  0.0610  0.0517
 1269poe    c23 6579   3.265   4.136   4.493 -0.2262  0.0742  0.2290
 1269poe    c23 6580   3.338   4.201   4.612  0.1282 -0.8117  0.5051
 1269poe     o2 6581   3.238   4.262   4.691  0.4116  0.3967 -0.0388
 1269poe    c23 6582   3.238   4.231   4.829 -0.1320 -0.1477 -0.1556
 1269poe    c23 6583   3.141   4.334   4.889  0.1046 -0.2815  0.4701
 1269poe     o2 6584   3.010   4.301   4.846 -0.0827  0.8368  0.1508
 1269poe    c23 6585   2.915   4.372   4.922 -0.3104  0.1441  0.5191
 1269poe    c23 6586   2.775   4.336   4.868 -0.0395 -0.2917  0.0943
 1269poe     o2 6587   2.797   4.356   4.730  0.4116  0.1625  0.2297
 1269poe    c31 6588   2.677   4.384   4.661  0.4373  0.0763  0.1518
 1270poe    c31 6589   2.701   1.438   2.434  0.0500 -0.6508  0.4980
 1270poe     o2 6590   2.624   1.509   2.528 -0.0347  0.4600 -0.3929
 1270poe    c23 6591   2.492   1.460   2.532  0.1940 -0.1231  0.1595
 1270poe    c23 6592   2.414   1.513   2.654 -0.1378  0.3411 -0.2511
 1270poe     o2 6593   2.501   1.508   2.764 -0.0046 -0.1071 -0.3751
 1270poe    c23 6594   2.454   1.485   2.895  0.3269  0.1822 -0.2037
 1270poe    c23 6595   2.566   1.483   3.001 -0.4273  0.0808  0.6048
 1270poe     o2 6596   2.662   1.386   2.964 -0.4952  0.0713  0.4519
 1270poe    c23 6597   2.735   1.353   3.080 -0.4244 -0.4133  0.2708
 1270poe    c23 6598   2.835   1.238   3.058 -0.1725 -0.0752 -0.3680
 1270poe     o2 6599   2.776   1.125   3.000  0.4130 -0.5364 -0.0756
 1270poe    c31 6600   2.741   1.032   3.100 -0.0949  0.3687  0.5978
 1271poe    c31 6601   4.563   5.965   4.096 -0.0392  0.7839  0.9033
 1271poe     o2 6602   4.591   6.090   4.038  0.1025  0.2329 -0.2429
 1271poe    c23 6603   4.728   6.116   4.061  0.0829  0.2035 -0.0939
 1271poe    c23 6604   4.777   6.223   3.961  0.0096  0.4436  0.1260
 1271poe     o2 6605   4.668   6.313   3.959 -0.1069  0.3186  0.5523
 1271poe    c23 6606   4.695   6.433   3.890  0.2045  0.3877  0.7940
 1271poe    c23 6607   4.596   6.550   3.902 -0.2179  0.1661 -0.4126
 1271poe     o2 6608   4.469   6.488   3.906 -0.1869  0.1541  0.5892
 1271poe    c23 6609   4.389   6.589   3.849  0.0051 -0.2678 -0.4520
 1271poe    c23 6610   4.240   6.549   3.844  0.0210 -0.4749  0.4786
 1271poe     o2 6611   4.219   6.419   3.794 -0.2110  0.0053 -0.7060
 1271poe    c31 6612   4.081   6.398   3.772 -0.4582  0.6059  0.2081
 1272poe    c31 6613   1.085   3.113   4.986 -0.1099 -0.0173 -0.9271
 1272poe     o2 6614   1.075   2.977   4.953  0.4104 -0.1237 -0.6509
 1272poe    c23 6615   1.140   2.900   5.052 -0.3595 -0.4469 -0.3901
 1272poe    c23 6616   1.101   2.751   5.050 -0.0945 -0.5331  0.5661
 1272poe     o2 6617   1.180   2.689   4.952 -0.3604  0.0092 -0.0003
 1272poe    c23 6618   1.141   2.556   4.923 -0.0853 -0.1001  0.1205
 1272poe    c23 6619   1.021   2.535   4.829 -0.0336 -0.3550  0.1128
 1272poe     o2 6620   1.052   2.568   4.696  0.1644  0.1174  0.2757
 1272poe    c23 6621   0.946   2.609   4.613  0.9098  0.6083 -0.4599
 1272poe    c23 6622   0.990   2.623   4.466  0.1856  0.3194 -0.7114
 1272poe     o2 6623   1.099   2.712   4.474  0.0458  0.4340  0.0023
 1272poe    c31 6624   1.143   2.738   4.342  0.2713 -0.1772 -0.0437
 1273poe    c31 6625   2.727   6.348   2.551 -0.4541  0.6405  0.3536
 1273poe     o2 6626   2.676   6.226   2.503  0.1085  0.3952  0.3758
 1273poe    c23 6627   2.781   6.135   2.525 -0.1237  0.1208  0.3530
 1273poe    c23 6628   2.719   5.994   2.537 -0.4848  0.2463 -0.0388
 1273poe     o2 6629   2.625   5.981   2.433 -0.2294 -0.1511 -0.2190
 1273poe    c23 6630   2.564   5.853   2.437 -0.1263 -0.1901  0.1129
 1273poe    c23 6631   2.495   5.844   2.300  0.4554  0.5566 -0.2376
 1273poe     o2 6632   2.444   5.968   2.256 -0.1541  0.4750  0.2343
 1273poe    c23 6633   2.360   5.956   2.144  0.3568  0.6538 -0.1732
 1273poe    c23 6634   2.260   6.070   2.119 -0.3109  0.0591 -0.2415
 1273poe     o2 6635   2.330   6.191   2.105  0.6146 -0.4514 -0.0770
 1273poe    c31 6636   2.326   6.235   1.971  0.0375 -0.6238 -0.1165
 1274poe    c31 6637   0.163   1.564   0.161  0.5821  0.2748 -0.5414
 1274poe     o2 6638   0.218   1.513   0.042  0.3187  0.2906 -0.6705
 1274poe    c23 6639   0.293   1.396   0.061 -0.0090  0.1543 -0.2170
 1274poe    c23 6640   0.326   1.320  -0.068 -0.2847  0.1301 -0.2721
 1274poe     o2 6641   0.426   1.385  -0.142 -0.1353  0.2041 -0.0049
 1274poe    c23 6642   0.550   1.378  -0.076  0.0962  0.1893 -0.4364
 1274poe    c23 6643   0.668   1.445  -0.148  0.4102  0.5381  0.3924
 1274poe     o2 6644   0.622   1.562  -0.213  0.3514  0.1406 -0.2833
 1274poe    c23 6645   0.700   1.614  -0.319  0.2352  0.4118 -0.2344
 1274poe    c23 6646   0.622   1.736  -0.373  0.0379  0.1103 -0.6376
 1274poe     o2 6647   0.483   1.714  -0.373  0.0748 -0.1797  0.0673
 1274poe    c31 6648   0.410   1.834  -0.386  0.5086  0.1228  0.4101
 1275poe    c31 6649   2.023   4.201   4.022 -0.2344  0.1517  0.2059
 1275poe     o2 6650   2.139   4.135   4.067 -0.1851 -0.1295 -0.3237
 1275poe    c23 6651   2.133   3.996   4.048 -0.6484 -0.1636  0.0610
 1275poe    c23 6652   2.241   3.926   4.134 -0.4065  0.2546  0.0998
 1275poe     o2 6653   2.209   3.931   4.272  0.2620  0.0865  0.2624
 1275poe    c23 6654   2.291   3.842   4.344  0.3322 -0.0444  0.0223
 1275poe    c23 6655   2.253   3.849   4.493 -0.3929 -0.0697 -0.1581
 1275poe     o2 6656   2.245   3.984   4.534  0.4016  0.0240 -0.2949
 1275poe    c23 6657   2.235   4.002   4.673 -0.0285  0.1473 -0.3402
 1275poe    c23 6658   2.241   4.154   4.697 -0.8660  0.0703  0.4214
 1275poe     o2 6659   2.175   4.225   4.595 -0.1260  0.3020  0.0910
 1275poe    c31 6660   2.162   4.364   4.618  0.6063  0.3843  0.0145
 1276poe    c31 6661   1.556   1.651   0.091  0.0497  0.8478  0.3547
 1276poe     o2 6662   1.421   1.649   0.052 -0.0687 -0.3096  0.7784
 1276poe    c23 6663   1.332   1.731   0.124 -0.2305 -0.1412  0.3939
 1276poe    c23 6664   1.204   1.732   0.039  0.0041  0.3714  0.0445
 1276poe     o2 6665   1.234   1.696  -0.093 -0.1019  0.0026  0.1218
 1276poe    c23 6666   1.118   1.650  -0.159 -0.5691  0.4957  0.5854
 1276poe    c23 6667   1.143   1.634  -0.311  0.3081  0.6153  0.7096
 1276poe     o2 6668   1.275   1.585  -0.322 -0.0174 -0.1060 -0.0386
 1276poe    c23 6669   1.318   1.597  -0.456 -0.3617 -0.7218 -0.2096
 1276poe    c23 6670   1.423   1.488  -0.485  0.5997  0.0928  0.1607
 1276poe     o2 6671   1.556   1.491  -0.437  0.4798  0.5765  0.4698
 1276poe    c31 6672   1.616   1.364  -0.421 -0.1355  0.2423  0.1485
 1277poe    c31 6673   4.022   0.362   3.266 -0.0153 -0.6834  0.0884
 1277poe     o2 6674   3.960   0.239   3.236 -0.5503 -0.2896 -0.4539
 1277poe    c23 6675   3.830   0.223   3.288 -0.5248  0.7766 -0.0401
 1277poe    c23 6676   3.757   0.111   3.210 -0.1621  0.2817  0.3272
 1277poe     o2 6677   3.864   0.020   3.192 -0.2154  0.3997 -0.6187
 1277poe    c23 6678   3.807  -0.093   3.131 -0.2823 -0.0096  0.1968
 1277poe    c23 6679   3.917  -0.200   3.125 -0.0048  0.3058 -0.3504
 1277poe     o2 6680   4.035  -0.135   3.082  0.4055  0.3099  0.7494
 1277poe    c23 6681   4.135  -0.214   3.023  0.0502 -0.0003  0.5576
 1277poe    c23 6682   4.106  -0.281   2.888  0.0835  0.1747  0.4632
 1277poe     o2 6683   4.075  -0.414   2.922  0.3772 -0.0640 -0.1777
 1277poe    c31 6684   4.110  -0.512   2.826  0.1459 -0.0059 -0.3196
 1278poe    c31 6685   0.711   3.419   2.349  0.4524  0.3506  0.0361
 1278poe     o2 6686   0.826   3.426   2.431  0.5642 -0.3778 -0.0532
 1278poe    c23 6687   0.860   3.304   2.493 -0.1010 -0.7488 -0.3994
 1278poe    c23 6688   1.009   3.314   2.531 -0.3276 -0.5800  0.4645
 1278poe     o2 6689   1.015   3.440   2.594  0.0019 -0.1648 -0.3897
 1278poe    c23 6690   1.143   3.462   2.648  0.0547  0.0104 -0.5801
 1278poe    c23 6691   1.137   3.594   2.727  0.4036 -0.3036 -0.0189
 1278poe     o2 6692   1.088   3.702   2.651  0.0864 -0.1177  0.4455
 1278poe    c23 6693   1.117   3.825   2.714 -0.9834  0.4111 -0.0813
 1278poe    c23 6694   1.141   3.935   2.608 -0.5053  0.2213 -0.1715
 1278poe     o2 6695   1.042   3.931   2.507 -0.0672 -0.8383 -0.5791
 1278poe    c31 6696   1.028   4.058   2.447  0.0146 -0.0674  0.9759
 1279poe    c31 6697   4.245   2.323   1.679  0.1000  0.0548 -0.2834
 1279poe     o2 6698   4.228   2.199   1.613 -0.0503 -0.0878  0.0178
 1279poe    c23 6699   4.315   2.180   1.504 -0.1668 -0.5145 -0.0012
 1279poe    c23 6700   4.309   2.027   1.490  0.2511 -0.5560  0.2377
 1279poe     o2 6701   4.175   1.987   1.468 -0.0061  0.2925  0.2179
 1279poe    c23 6702   4.168   1.846   1.456 -0.4695  0.3400 -0.0828
 1279poe    c23 6703   4.025   1.815   1.506 -0.4799 -0.0988 -0.3818
 1279poe     o2 6704   4.015   1.872   1.635  0.3808 -0.5842 -0.0947
 1279poe    c23 6705   3.926   1.797   1.715  0.1831  0.1508  0.3788
 1279poe    c23 6706   3.995   1.725   1.832  0.7012 -0.0470 -0.0458
 1279poe     o2 6707   4.033   1.811   1.937  0.4442 -0.2390  0.2042
 1279poe    c31 6708   4.048   1.735   2.055 -0.5985 -0.3057  0.3049
 1280poe    c31 6709   5.387   2.190   2.985 -0.5836  0.1883 -1.0072
 1280poe     o2 6710   5.520   2.150   3.010 -0.5918  0.6167 -0.2465
 1280poe    c23 6711   5.598   2.140   2.893 -0.6061 -0.6030 -0.1584
 1280poe    c23 6712   5.751   2.134   2.912 -0.5894 -0.1424 -0.1425
 1280poe     o2 6713   5.774   2.061   3.030  0.3808 -0.1762 -0.3434
 1280poe    c23 6714   5.911   2.062   3.062  0.2570 -0.2561  0.1988
 1280poe    c23 6715   5.939   2.099   3.209  0.3380 -0.1505  0.1576
 1280poe     o2 6716   5.901   1.998   3.301 -0.0727  0.1846  0.3609
 1280poe    c23 6717   5.892   2.045   3.434 -0.3469  0.3371  0.2893
 1280poe    c23 6718   5.816   1.948   3.526 -0.0484 -0.2523 -0.0727
 1280poe     o2 6719   5.685   1.972   3.479  0.0839  0.3314 -0.1447
 1280poe    c31 6720   5.590   1.880   3.527  0.5791 -0.0486  0.1201
 1281poe    c31 6721   5.355   4.232   2.167 -0.2487 -0.0487  0.3170
 1281poe     o2 6722   5.432   4.288   2.063 -0.4373 -0.8065 -0.2352
 1281poe    c23 6723   5.387   4.230   1.942 -0.1858  0.0278 -0.7354
 1281poe    c23 6724   5.502   4.260   1.844 -0.0989  0.5752 -0.4726
 1281poe     o2 6725   5.524   4.396   1.875 -0.5711  0.4801  0.3066
 1281poe    c23 6726   5.571   4.473   1.767  0.0279 -0.3697 -0.0507
 1281poe    c23 6727   5.590   4.613   1.827  0.4838 -0.2278 -0.5136
 1281poe     o2 6728   5.643   4.599   1.957  0.4175 -0.6503 -0.5292
 1281poe    c23 6729   5.730   4.706   1.987 -0.5283 -0.0526  0.1530
 1281poe    c23 6730   5.793   4.701   2.127 -0.3156 -0.1904  0.0533
 1281poe     o2 6731   5.699   4.681   2.230 -0.0055 -0.7071  0.2404
 1281poe    c31 6732   5.725   4.760   2.345 -0.2224  0.2430 -0.3500
 1282poe    c31 6733   1.723   7.004   6.134  1.5142 -0.3604 -0.8392
 1282poe     o2 6734   1.679   7.010   6.000  0.5108  0.0585 -0.5026
 1282poe    c23 6735   1.565   6.929   5.982  0.2340  0.3152  0.0966
 1282poe    c23 6736   1.504   6.944   5.842  0.2917  0.3341  0.0740
 1282poe     o2 6737   1.611   6.918   5.753  0.5009  0.2101  0.3605
 1282poe    c23 6738   1.594   6.950   5.617  0.6123 -0.6428  0.1369
 1282poe    c23 6739   1.731   6.925   5.553  0.5824  0.0689 -0.2143
 1282poe     o2 6740   1.822   6.974   5.649  0.1705  0.8251 -0.2027
 1282poe    c23 6741   1.953   6.922   5.653  0.0351  0.3806 -1.2072
 1282poe    c23 6742   2.031   7.006   5.756 -0.8572  0.1507 -0.3184
 1282poe     o2 6743   1.945   7.035   5.863 -0.0937 -0.3648  0.4460
 1282poe    c31 6744   2.002   7.107   5.970 -0.0722  1.0404 -0.4969
 1283poe    c31 6745   5.385   3.577   5.887  0.1549 -0.1738 -0.0429
 1283poe     o2 6746   5.456   3.505   5.985 -0.0988 -0.8091 -0.3223
 1283poe    c23 6747   5.413   3.371   5.995 -0.3238 -0.6725  0.6334
 1283poe    c23 6748   5.465   3.280   6.108  0.3232 -0.7130  0.3073
 1283poe     o2 6749   5.469   3.347   6.232  0.0858  0.1760 -0.1544
 1283poe    c23 6750   5.434   3.265   6.342  0.4175  0.4682  0.1697
 1283poe    c23 6751   5.437   3.320   6.486  0.2829  0.1429  0.2987
 1283poe     o2 6752   5.330   3.403   6.527  0.3501  0.2726  0.2149
 1283poe    c23 6753   5.287   3.398   6.662  0.1516 -0.5970  0.1239
 1283poe    c23 6754   5.167   3.486   6.700  0.0768 -0.3590 -0.6343
 1283poe     o2 6755   5.201   3.622   6.690 -0.7002 -0.0965  0.1583
 1283poe    c31 6756   5.123   3.712   6.766 -0.7559  0.0487 -0.0701
 1284poe    c31 6757   6.396   6.005   4.893  0.3952 -0.7667  0.3415
 1284poe     o2 6758   6.275   5.949   4.847  0.1711 -0.4514  0.5421
 1284poe    c23 6759   6.302   5.819   4.798  0.1800 -0.2337 -0.0350
 1284poe    c23 6760   6.184   5.786   4.706  0.1161 -0.1142  0.0036
 1284poe     o2 6761   6.068   5.826   4.776  0.2270  0.3334 -0.0651
 1284poe    c23 6762   5.955   5.782   4.706  0.4966 -0.1881 -0.1826
 1284poe    c23 6763   5.826   5.804   4.787  1.1397 -0.5761  0.9612
 1284poe     o2 6764   5.826   5.936   4.839  0.2499  0.0240 -0.5016
 1284poe    c23 6765   5.707   5.970   4.906  0.0871  0.1480 -0.8522
 1284poe    c23 6766   5.707   6.115   4.957 -0.3534 -0.0804 -0.2015
 1284poe     o2 6767   5.679   6.192   4.842 -0.2796 -0.2198 -0.3124
 1284poe    c31 6768   5.727   6.323   4.862 -0.5531 -0.1251 -0.2733
 1285poe    c31 6769   1.326   2.310   0.414  0.3134  0.0547  0.1029
 1285poe     o2 6770   1.388   2.323   0.288  0.5366 -0.6821  0.1363
 1285poe    c23 6771   1.294   2.291   0.188  0.2559  0.4246  0.0357
 1285poe    c23 6772   1.349   2.297   0.044 -0.2276  0.5106 -0.1470
 1285poe     o2 6773   1.376   2.432   0.013  0.5228  0.3811 -0.0633
 1285poe    c23 6774   1.332   2.465  -0.116 -0.5995  0.2902  0.2855
 1285poe    c23 6775   1.379   2.601  -0.171 -0.0577  0.0353  0.1108
 1285poe     o2 6776   1.518   2.608  -0.150 -0.0418  0.5065 -0.1364
 1285poe    c23 6777   1.581   2.726  -0.194  1.0287 -0.2407 -0.6452
 1285poe    c23 6778   1.729   2.737  -0.151  0.9127 -0.7312 -0.1109
 1285poe     o2 6779   1.748   2.721  -0.013  0.4579  0.1620  0.0629
 1285poe    c31 6780   1.698   2.815   0.080  0.2625 -0.3561  0.4833
 1286poe    c31 6781   4.937   4.516   1.977 -0.3190  0.3729  0.4638
 1286poe     o2 6782   5.053   4.556   1.908 -0.3639 -0.1662  0.0706
 1286poe    c23 6783   5.149   4.619   1.990  0.2579 -0.4228 -0.4472
 1286poe    c23 6784   5.242   4.729   1.937  0.1661 -0.0756  0.0996
 1286poe     o2 6785   5.173   4.837   1.876  0.0719 -0.5031 -0.5608
 1286poe    c23 6786   5.257   4.931   1.814  0.0580 -0.3416 -0.3329
 1286poe    c23 6787   5.184   5.042   1.736  0.5788 -0.0645 -0.4329
 1286poe     o2 6788   5.122   4.971   1.631  0.1592 -0.6118  0.1799
 1286poe    c23 6789   5.058   5.066   1.549  0.4101 -0.2432  0.4078
 1286poe    c23 6790   4.940   4.988   1.488  0.2673  0.0047  0.3630
 1286poe     o2 6791   4.882   4.892   1.573 -0.0884  0.1841  0.3240
 1286poe    c31 6792   4.765   4.837   1.516  0.2047  0.5768 -0.6717
 1287poe    c31 6793   3.530   0.208   1.575  0.5405 -0.7777  0.2346
 1287poe     o2 6794   3.671   0.210   1.582  0.5666  1.2673 -0.2070
 1287poe    c23 6795   3.729   0.108   1.503 -0.3463  0.2466  0.4091
 1287poe    c23 6796   3.853   0.049   1.574 -0.3534 -0.3631 -0.0826
 1287poe     o2 6797   3.927   0.167   1.597 -0.1253 -0.3628 -0.7730
 1287poe    c23 6798   4.053   0.155   1.660 -0.3183  0.6209 -0.1712
 1287poe    c23 6799   4.133   0.274   1.604 -0.2213  0.3363 -0.6507
 1287poe     o2 6800   4.081   0.398   1.646  0.0826  0.3065 -0.1708
 1287poe    c23 6801   4.131   0.507   1.572 -0.3444  0.5266 -0.1449
 1287poe    c23 6802   4.091   0.620   1.667 -0.0057  0.2281  0.3607
 1287poe     o2 6803   3.950   0.628   1.678 -0.0733  0.1693 -0.4269
 1287poe    c31 6804   3.915   0.745   1.748  0.5954 -0.1962  0.5343
 1288poe    c31 6805   5.650   4.581   3.084  0.6038 -0.0990  0.7034
 1288poe     o2 6806   5.524   4.578   3.149  0.1336 -0.0317 -0.1865
 1288poe    c23 6807   5.527   4.494   3.263  0.5145 -0.3632 -0.4369
 1288poe    c23 6808   5.381   4.447   3.271  0.2089  0.6002 -0.2602
 1288poe     o2 6809   5.274   4.539   3.284 -0.1199  0.2673 -0.5825
 1288poe    c23 6810   5.208   4.570   3.405  0.0070  0.3725 -0.5389
 1288poe    c23 6811   5.097   4.672   3.372 -0.6147 -0.1855 -0.2070
 1288poe     o2 6812   5.138   4.783   3.295 -0.2826 -0.3139 -0.2203
 1288poe    c23 6813   5.030   4.875   3.289 -0.0227  0.0281  0.2927
 1288poe    c23 6814   5.025   4.983   3.399  0.1502  0.4062 -0.0694
 1288poe     o2 6815   5.141   5.063   3.405  0.3332  0.1188  0.2886
 1288poe    c31 6816   5.143   5.168   3.499 -0.2331  0.4143 -0.0231
 1289poe    c31 6817   3.161   6.706   1.583 -0.2048  0.3364 -0.1765
 1289poe     o2 6818   3.133   6.626   1.696 -0.2357  0.3671 -0.1625
 1289poe    c23 6819   3.002   6.574   1.686  0.0937 -0.4330 -0.3889
 1289poe    c23 6820   3.017   6.442   1.764 -0.6671  0.0380  0.5700
 1289poe     o2 6821   3.103   6.470   1.872  0.1695  0.1498 -0.1116
 1289poe    c23 6822   3.124   6.354   1.950 -0.1308 -0.0653 -0.3514
 1289poe    c23 6823   3.145   6.411   2.091 -0.2929  0.5080 -0.5588
 1289poe     o2 6824   3.240   6.515   2.098 -0.2406  0.4257 -0.0090
 1289poe    c23 6825   3.251   6.572   2.226  0.1156  0.0671  0.1222
 1289poe    c23 6826   3.307   6.715   2.228  0.5332 -0.0947  0.2402
 1289poe     o2 6827   3.202   6.807   2.207  0.5147 -0.1891 -0.0803
 1289poe    c31 6828   3.235   6.930   2.267  0.1028  0.0384 -0.3177
 1290poe    c31 6829   3.952   5.048   0.430  0.0122  0.0708 -0.1485
 1290poe     o2 6830   4.064   4.970   0.465  0.1076  0.1685 -0.2344
 1290poe    c23 6831   4.029   4.838   0.501 -0.2733  0.5019  0.6474
 1290poe    c23 6832   4.137   4.732   0.471 -0.9077 -0.0766  0.3742
 1290poe     o2 6833   4.245   4.783   0.546 -0.4053 -0.0879 -0.3376
 1290poe    c23 6834   4.370   4.717   0.540 -0.1483  0.3702 -0.1000
 1290poe    c23 6835   4.476   4.817   0.588  0.4835 -0.1968 -0.3024
 1290poe     o2 6836   4.465   4.921   0.493  0.2120 -0.3320 -0.4194
 1290poe    c23 6837   4.503   5.051   0.531 -0.7258 -0.3539  0.6220
 1290poe    c23 6838   4.441   5.144   0.426 -0.1893 -1.2105 -0.4699
 1290poe     o2 6839   4.302   5.123   0.413 -0.4104 -0.0453 -0.1180
 1290poe    c31 6840   4.268   5.241   0.344  0.3238  0.8282  0.9730
 1291poe    c31 6841   2.905   2.101   1.631 -0.1251  0.0430  0.3151
 1291poe     o2 6842   2.908   2.156   1.760  0.1145 -0.1742  0.4011
 1291poe    c23 6843   2.776   2.183   1.801  0.0640 -0.1999  0.2529
 1291poe    c23 6844   2.788   2.320   1.871  0.2998  0.1321 -0.4270
 1291poe     o2 6845   2.890   2.327   1.968 -0.2561  0.2597  0.1524
 1291poe    c23 6846   2.845   2.406   2.076 -0.2257  0.2431  0.1773
 1291poe    c23 6847   2.941   2.401   2.196 -0.1859  0.6627  0.1627
 1291poe     o2 6848   3.076   2.439   2.177 -0.1823  0.4793 -0.1826
 1291poe    c23 6849   3.154   2.450   2.294  0.1845  0.1772 -0.3977
 1291poe    c23 6850   3.299   2.486   2.255  0.2980  0.0727 -0.0783
 1291poe     o2 6851   3.384   2.379   2.224  0.4812  0.2856 -0.3162
 1291poe    c31 6852   3.521   2.415   2.217  0.5871 -0.0084  0.2225
 1292poe    c31 6853   3.087   3.204   1.818 -0.0584  0.1381 -0.9065
 1292poe     o2 6854   2.951   3.168   1.811 -0.0625 -0.0448  0.0312
 1292poe    c23 6855   2.920   3.048   1.744 -0.4374  0.1323 -0.1213
 1292poe    c23 6856   2.905   2.924   1.835 -0.2181 -0.0112 -0.2780
 1292poe     o2 6857   3.024   2.863   1.878 -0.2764  0.4024  0.4811
 1292poe    c23 6858   3.015   2.723   1.867  0.5432  0.4040 -0.3004
 1292poe    c23 6859   3.147   2.651   1.897  0.2318 -0.0941 -0.1124
 1292poe     o2 6860   3.259   2.662   1.812  0.0591 -0.1500 -0.3482
 1292poe    c23 6861   3.368   2.587   1.861  0.3065  0.3710 -0.0875
 1292poe    c23 6862   3.485   2.595   1.761 -0.1980 -0.5074 -0.7715
 1292poe     o2 6863   3.504   2.731   1.728 -0.2125 -0.3150 -0.0101
 1292poe    c31 6864   3.574   2.744   1.606 -0.2685  0.3516  0.0281
 1293poe    c31 6865   6.642   1.444   5.333  0.2075  0.4976  0.2017
 1293poe     o2 6866   6.519   1.493   5.382 -0.0958 -0.0042 -0.0472
 1293poe    c23 6867   6.410   1.404   5.387 -0.5521  0.5523  0.1369
 1293poe    c23 6868   6.332   1.443   5.513  0.5106  0.6591  0.7706
 1293poe     o2 6869   6.313   1.580   5.489 -0.1705  0.3901 -0.2883
 1293poe    c23 6870   6.258   1.652   5.598 -0.2665  0.1391 -0.1718
 1293poe    c23 6871   6.216   1.797   5.572 -0.3744  0.0282 -0.6272
 1293poe     o2 6872   6.330   1.858   5.515  0.1038 -0.2495  0.0198
 1293poe    c23 6873   6.307   1.996   5.492 -0.2953 -0.3980 -0.4790
 1293poe    c23 6874   6.277   2.101   5.599 -0.2907 -0.2121 -0.6594
 1293poe     o2 6875   6.138   2.095   5.624 -0.1431 -0.2005  0.2145
 1293poe    c31 6876   6.092   2.196   5.712  0.3336 -0.0918  0.3403
 1294poe    c31 6877   4.336   0.219   2.046  0.3619  0.2069  0.0453
 1294poe     o2 6878   4.426   0.124   2.099 -0.0896 -0.1276  0.2265
 1294poe    c23 6879   4.448   0.002   2.033  0.0512  0.0600 -0.0746
 1294poe    c23 6880   4.582  -0.060   2.079 -0.3140 -0.4787  0.2664
 1294poe     o2 6881   4.600   0.002   2.204 -0.4224 -0.7685  0.4264
 1294poe    c23 6882   4.724  -0.027   2.265  0.4395  0.1249 -0.8538
 1294poe    c23 6883   4.760   0.091   2.357  0.0409 -0.4691  0.0802
 1294poe     o2 6884   4.645   0.141   2.422  0.0393 -0.1919 -0.1367
 1294poe    c23 6885   4.664   0.264   2.489  0.1620 -0.1954 -0.1637
 1294poe    c23 6886   4.530   0.338   2.473  0.2499 -0.0613 -0.2656
 1294poe     o2 6887   4.467   0.283   2.359 -0.3247 -0.5671  0.2923
 1294poe    c31 6888   4.350   0.361   2.357 -0.0719 -0.1916  0.0929
 1295poe    c31 6889   6.928   1.841   4.530 -0.1419  0.2241  0.5570
 1295poe     o2 6890   6.841   1.951   4.539 -0.2932  0.1674 -0.1664
 1295poe    c23 6891   6.854   2.001   4.670  0.3098 -0.0399 -0.1462
 1295poe    c23 6892   6.735   2.092   4.703  0.4154 -0.0498  0.2686
 1295poe     o2 6893   6.726   2.202   4.615 -0.6044 -0.1480  0.2318
 1295poe    c23 6894   6.593   2.242   4.594 -0.3532  0.5419 -0.0923
 1295poe    c23 6895   6.586   2.355   4.489 -0.1397  0.6907  0.0528
 1295poe     o2 6896   6.624   2.304   4.363 -0.4174 -0.3503  0.3733
 1295poe    c23 6897   6.555   2.390   4.275 -0.1317 -0.5599 -0.0565
 1295poe    c23 6898   6.611   2.378   4.132 -0.3945 -0.1523 -0.1967
 1295poe     o2 6899   6.605   2.247   4.078  0.9488 -0.6507  0.8103
 1295poe    c31 6900   6.683   2.243   3.961  0.0110  0.4720  0.1207
 1296poe    c31 6901   2.546   1.077   2.169  0.1481 -0.0534 -0.4736
 1296poe     o2 6902   2.663   1.086   2.090  0.4996 -0.7701 -0.0339
 1296poe    c23 6903   2.657   1.052   1.954  0.6232  0.4638 -0.3557
 1296poe    c23 6904   2.784   0.978   1.908  0.3544  0.1105 -0.5437
 1296poe     o2 6905   2.901   1.057   1.911  0.2504  0.2445  0.4328
 1296poe    c23 6906   3.008   0.965   1.898  0.2249  0.1535  0.8457
 1296poe    c23 6907   3.116   1.043   1.822  0.0261 -0.2822  0.1078
 1296poe     o2 6908   3.108   1.176   1.867 -0.2992 -0.4364  0.5053
 1296poe    c23 6909   3.198   1.273   1.818 -0.8121 -0.1514  0.1172
 1296poe    c23 6910   3.162   1.399   1.898  0.3409  0.5878 -0.4927
 1296poe     o2 6911   3.024   1.416   1.922  0.3777  0.2591 -0.0479
 1296poe    c31 6912   3.000   1.526   2.006  0.1887 -0.0547  0.3150
 1297poe    c31 6913   0.402   3.855   5.047  0.1040 -0.3486  0.2373
 1297poe     o2 6914   0.325   3.961   4.996  0.1796 -0.0570  0.7240
 1297poe    c23 6915   0.186   3.946   5.008  0.1512  0.3405  0.9199
 1297poe    c23 6916   0.112   4.047   4.920 -0.0215 -0.4978  0.0844
 1297poe     o2 6917   0.159   4.178   4.943 -0.1003 -0.4552  0.0069
 1297poe    c23 6918   0.103   4.274   4.856 -0.0960 -0.1478  0.3436
 1297poe    c23 6919   0.191   4.398   4.882 -0.0283 -0.1316  0.0342
 1297poe     o2 6920   0.326   4.358   4.879 -0.0790 -0.2899 -0.1819
 1297poe    c23 6921   0.406   4.382   4.766 -0.1574  0.1228 -0.1502
 1297poe    c23 6922   0.523   4.284   4.788 -0.3478  0.0105  0.3879
 1297poe     o2 6923   0.468   4.157   4.816  0.5101 -0.3733  0.3731
 1297poe    c31 6924   0.534   4.052   4.750  0.4059 -0.1319 -0.1255
 1298poe    c31 6925   6.573   2.806   4.144 -0.1515 -0.1042 -0.1302
 1298poe     o2 6926   6.667   2.756   4.237 -0.9650 -0.4141  0.5332
 1298poe    c23 6927   6.725   2.846   4.328 -0.3150  0.0001 -0.2853
 1298poe    c23 6928   6.803   2.973   4.286 -0.2505  0.0947  0.1186
 1298poe     o2 6929   6.728   3.050   4.195 -0.4385 -0.1039  0.1033
 1298poe    c23 6930   6.817   3.149   4.148 -0.3934 -0.0274  0.3482
 1298poe    c23 6931   6.748   3.277   4.099 -0.8015 -0.2959  0.2196
 1298poe     o2 6932   6.647   3.322   4.188 -0.5131 -0.1129  0.4575
 1298poe    c23 6933   6.608   3.447   4.136  0.3683  0.0376  0.1366
 1298poe    c23 6934   6.474   3.475   4.207  0.1109 -0.0261 -0.3212
 1298poe     o2 6935   6.484   3.437   4.342  0.2001  0.1183 -0.2866
 1298poe    c31 6936   6.371   3.486   4.410  0.3285  0.0839 -0.0459
 1299poe    c31 6937   5.118   4.273   3.903  0.3703  0.2731  0.6021
 1299poe     o2 6938   4.988   4.309   3.943  0.2555 -0.1745  0.6305
 1299poe    c23 6939   4.899   4.199   3.951 -0.5514  0.3567 -0.7031
 1299poe    c23 6940   4.758   4.247   3.989 -0.5725 -0.0891 -0.2043
 1299poe     o2 6941   4.778   4.335   4.098  0.0285  0.1044 -0.4684
 1299poe    c23 6942   4.655   4.400   4.120 -0.0701 -0.1206 -0.3507
 1299poe    c23 6943   4.680   4.453   4.262  0.2415  0.1723 -0.5117
 1299poe     o2 6944   4.790   4.541   4.264  0.4851 -0.1381  0.1360
 1299poe    c23 6945   4.819   4.582   4.396 -0.3280  0.5219  0.1189
 1299poe    c23 6946   4.936   4.679   4.422  0.0100  0.3009 -0.5484
 1299poe     o2 6947   5.064   4.621   4.410  0.0803  0.4064 -0.3126
 1299poe    c31 6948   5.163   4.698   4.474  0.4881 -0.0396 -0.3978
 1300poe    c31 6949   1.901   3.329   0.860  0.0371  0.9129 -0.6536
 1300poe     o2 6950   1.940   3.208   0.798 -0.1933  0.5103 -0.0226
 1300poe    c23 6951   1.975   3.233   0.663  0.2049 -0.1467 -0.0476
 1300poe    c23 6952   1.922   3.112   0.585  0.0899 -0.2236  0.1471
 1300poe     o2 6953   1.994   3.008   0.648  0.2811 -0.0766  0.1717
 1300poe    c23 6954   1.962   2.885   0.587  0.1713 -0.2572  0.5926
 1300poe    c23 6955   2.097   2.821   0.550  0.0338 -0.1785 -0.0433
 1300poe     o2 6956   2.166   2.796   0.670  0.2197 -0.0222 -0.1180
 1300poe    c23 6957   2.298   2.746   0.661  0.1227 -0.4204  0.6451
 1300poe    c23 6958   2.417   2.831   0.616 -0.1679 -0.6920 -0.6739
 1300poe     o2 6959   2.427   2.868   0.480 -0.3284  0.0554 -0.4907
 1300poe    c31 6960   2.499   2.987   0.462 -0.3917  0.1613 -0.0582
 1301poe    c31 6961   1.864   4.086   1.780 -0.3576 -0.0859 -0.1695
 1301poe     o2 6962   1.857   4.024   1.653  0.5499  0.0831 -0.3148
 1301poe    c23 6963   1.843   3.884   1.669 -0.5170  0.2017 -0.1384
 1301poe    c23 6964   1.917   3.817   1.552 -0.7772 -0.7299  0.2227
 1301poe     o2 6965   1.851   3.823   1.427 -0.0008  0.2687 -0.1503
 1301poe    c23 6966   1.742   3.736   1.408  0.3876 -0.2484 -0.0357
 1301poe    c23 6967   1.707   3.727   1.258 -0.1139 -0.0348  0.0691
 1301poe     o2 6968   1.694   3.862   1.218  0.0483 -0.0114  0.0965
 1301poe    c23 6969   1.706   3.855   1.078  0.7466  0.5652  0.1229
 1301poe    c23 6970   1.704   4.004   1.039 -0.7129  0.4606 -0.2288
 1301poe     o2 6971   1.790   4.070   1.128 -0.2444 -0.4827  0.0323
 1301poe    c31 6972   1.790   4.211   1.116  0.5259 -0.4964 -0.1786
 1302poe    c31 6973   1.230   3.738   5.856 -0.2355 -0.3356 -0.0498
 1302poe     o2 6974   1.233   3.714   5.717 -0.3557  0.4128 -0.1872
 1302poe    c23 6975   1.104   3.681   5.673 -0.4459  0.0624  0.3289
 1302poe    c23 6976   1.095   3.594   5.546  0.5173 -0.2998  0.5061
 1302poe     o2 6977   1.134   3.460   5.567  0.9082 -0.2658  0.0440
 1302poe    c23 6978   1.100   3.394   5.447 -0.1449 -0.3104  0.3528
 1302poe    c23 6979   1.130   3.244   5.464 -0.2913 -0.3504  0.2581
 1302poe     o2 6980   1.268   3.223   5.482 -0.1811  0.3787  0.3124
 1302poe    c23 6981   1.347   3.156   5.386 -0.0065  0.1098  0.6369
 1302poe    c23 6982   1.481   3.107   5.441  0.0222 -0.1398  0.3506
 1302poe     o2 6983   1.528   3.199   5.538 -0.1415  0.5091 -0.1785
 1302poe    c31 6984   1.664   3.173   5.562 -0.2987 -0.2606 -0.0947
 1303poe    c31 6985   1.214   0.810   0.418 -0.2753  0.6450 -0.0058
 1303poe     o2 6986   1.299   0.892   0.495 -0.2795  0.5052  0.1489
 1303poe    c23 6987   1.299   0.836   0.624  0.2513 -0.2276 -0.1606
 1303poe    c23 6988   1.420   0.895   0.698  0.2961 -0.3713 -0.1182
 1303poe     o2 6989   1.423   1.032   0.664  0.0513 -0.3570 -0.0800
 1303poe    c23 6990   1.520   1.099   0.742 -0.5852  0.3513  0.1196
 1303poe    c23 6991   1.488   1.247   0.715 -0.7615  0.3470  0.2988
 1303poe     o2 6992   1.409   1.272   0.601 -0.0233  0.9287 -0.0939
 1303poe    c23 6993   1.381   1.411   0.602 -0.2804  0.8774  0.1302
 1303poe    c23 6994   1.299   1.442   0.476 -0.6070  0.2383  0.1829
 1303poe     o2 6995   1.169   1.386   0.474 -0.3800 -0.2815 -0.6240
 1303poe    c31 6996   1.108   1.413   0.350 -0.7546 -0.4730 -0.4838
 1304poe    c31 6997   6.932   1.055   4.527 -0.1384  0.4246 -0.3247
 1304poe     o2 6998   7.026   0.958   4.565 -0.2616  0.3892 -0.1071
 1304poe    c23 6999   7.076   0.976   4.695  0.0198  0.3181 -0.2048
 1304poe    c23 7000   7.182   0.871   4.735 -0.5244 -0.3485 -0.5126
 1304poe     o2 7001   7.263   0.872   4.620  0.3765  0.2476  0.1141
 1304poe    c23 7002   7.373   0.785   4.609 -0.4544 -0.8701  0.4578
 1304poe    c23 7003   7.404   0.779   4.458 -0.2317  0.7808  0.4273
 1304poe     o2 7004   7.278   0.756   4.401  0.1954 -0.0128 -0.2185
 1304poe    c23 7005   7.288   0.728   4.263 -0.2099 -0.8557 -0.0795
 1304poe    c23 7006   7.139   0.732   4.224 -0.2326  0.1702  0.0929
 1304poe     o2 7007   7.054   0.817   4.298  0.2002  0.5072  0.2096
 1304poe    c31 7008   6.918   0.780   4.288  0.3666 -0.2083  0.5312
 1305poe    c31 7009   3.086   6.692   6.083 -0.9853 -0.1943  0.1301
 1305poe     o2 7010   3.061   6.679   6.222 -0.6159 -0.4166  0.1759
 1305poe    c23 7011   3.086   6.544   6.255 -0.4555 -0.3306  0.4011
 1305poe    c23 7012   3.087   6.524   6.408 -0.0701 -0.7506  0.3476
 1305poe     o2 7013   2.963   6.569   6.457  0.1065  0.3219 -0.1540
 1305poe    c23 7014   2.960   6.621   6.589 -0.0719  0.0777 -0.0613
 1305poe    c23 7015   2.821   6.638   6.654 -0.0861 -1.2035  0.2733
 1305poe     o2 7016   2.750   6.728   6.571  0.4169 -0.9227  0.1389
 1305poe    c23 7017   2.627   6.770   6.626  0.2926  0.0300 -0.8356
 1305poe    c23 7018   2.631   6.897   6.713  0.2603 -0.2675 -0.3918
 1305poe     o2 7019   2.603   7.012   6.636 -0.1764  0.0222  0.1972
 1305poe    c31 7020   2.615   7.125   6.720  0.6489  0.1162 -0.0378
 1306poe    c31 7021   3.351   1.276   1.102  0.2028  0.2259 -0.2736
 1306poe     o2 7022   3.287   1.278   0.976 -1.1202  0.3870  0.3746
 1306poe    c23 7023   3.331   1.390   0.902  0.3469 -0.4154 -0.0257
 1306poe    c23 7024   3.344   1.369   0.750  0.0380  0.2440 -0.1479
 1306poe     o2 7025   3.246   1.287   0.691 -0.0545 -0.0981  0.4695
 1306poe    c23 7026   3.181   1.334   0.575 -0.5048  0.1888  0.8356
 1306poe    c23 7027   3.123   1.236   0.472  0.7713  0.2903 -0.0001
 1306poe     o2 7028   3.237   1.168   0.422  0.3448 -0.6900  0.3240
 1306poe    c23 7029   3.214   1.097   0.303  0.0886 -0.7247  0.3932
 1306poe    c23 7030   3.338   1.056   0.222  0.2947  0.1616  0.2455
 1306poe     o2 7031   3.393   0.936   0.274 -0.0706 -0.0457  0.1540
 1306poe    c31 7032   3.478   0.861   0.191  0.4577  0.3957  0.2881
 1307poe    c31 7033   4.111   3.320   5.825 -0.0892 -0.5055  0.8964
 1307poe     o2 7034   4.143   3.285   5.692  0.0552  0.4406  0.6748
 1307poe    c23 7035   4.154   3.404   5.619 -0.6818 -0.0846 -0.3187
 1307poe    c23 7036   4.251   3.373   5.503 -0.5682  0.2777 -0.3243
 1307poe     o2 7037   4.199   3.255   5.445 -0.3118 -0.0099  0.0327
 1307poe    c23 7038   4.222   3.243   5.307 -0.3388 -0.6802  0.0826
 1307poe    c23 7039   4.162   3.109   5.261 -0.3240 -0.5994 -0.1745
 1307poe     o2 7040   4.196   3.009   5.355  0.2538 -0.1179  0.1335
 1307poe    c23 7041   4.200   2.880   5.299  0.5407 -0.2182  0.3842
 1307poe    c23 7042   4.067   2.806   5.324  0.1156  0.3643 -0.1174
 1307poe     o2 7043   4.035   2.770   5.456  0.3642 -0.3418 -0.2420
 1307poe    c31 7044   3.932   2.679   5.486 -0.2789  0.4642  0.0317
 1308poe    c31 7045   6.859   5.601   0.061 -0.1993  0.4750 -0.4344
 1308poe     o2 7046   6.734   5.633   0.118  0.2567  0.2832  0.6982
 1308poe    c23 7047   6.724   5.773   0.126  0.2284  0.3508 -0.3461
 1308poe    c23 7048   6.584   5.830   0.154  0.1976  0.4919 -0.7889
 1308poe     o2 7049   6.479   5.802   0.063 -0.0754  0.0892 -0.3561
 1308poe    c23 7050   6.367   5.877   0.104 -0.3425 -0.3025 -0.3685
 1308poe    c23 7051   6.250   5.801   0.039 -0.4653 -0.4062 -0.0303
 1308poe     o2 7052   6.260   5.670   0.090  0.3396 -0.2626  0.1888
 1308poe    c23 7053   6.161   5.584   0.039  0.2754 -0.1291  0.0874
 1308poe    c23 7054   6.131   5.450   0.108 -0.0596 -0.2331 -0.2529
 1308poe     o2 7055   6.254   5.407   0.164 -0.1429 -0.6619 -0.3963
 1308poe    c31 7056   6.243   5.293   0.246  0.5279 -0.3734  0.1066
 1309poe    c31 7057   2.765   6.981   0.516 -0.0978 -0.8949 -0.6657
 1309poe     o2 7058   2.850   6.873   0.550  0.3593 -0.2237  0.3543
 1309poe    c23 7059   2.862   6.847   0.688  0.5882  0.6006  0.4936
 1309poe    c23 7060   2.928   6.711   0.719 -0.3334  0.0376  0.0130
 1309poe     o2 7061   2.850   6.602   0.675  0.0726 -0.4054  0.3828
 1309poe    c23 7062   2.916   6.480   0.698  0.2800 -0.2912  0.3939
 1309poe    c23 7063   2.842   6.345   0.686  0.8471 -0.5812  0.0896
 1309poe     o2 7064   2.766   6.291   0.792  0.0170  0.2448 -0.0704
 1309poe    c23 7065   2.646   6.356   0.828  0.3207  0.8250 -0.0935
 1309poe    c23 7066   2.623   6.316   0.975  0.1997  0.1811 -0.2861
 1309poe     o2 7067   2.643   6.177   0.976  0.1252  0.1704 -0.2856
 1309poe    c31 7068   2.645   6.130   1.109  0.3049 -0.2011 -0.4168
 1310poe    c31 7069   0.432   0.280   6.452  0.1507 -0.9270  0.4993
 1310poe     o2 7070   0.370   0.308   6.576 -0.2874  0.5638 -0.0358
 1310poe    c23 7071   0.482   0.315   6.661 -0.0038 -0.4375 -0.3177
 1310poe    c23 7072   0.430   0.389   6.785  0.0180 -0.4823 -0.2812
 1310poe     o2 7073   0.308   0.325   6.818 -0.1718 -0.0675 -0.1714
 1310poe    c23 7074   0.227   0.384   6.917  0.4887  0.7871 -0.1257
 1310poe    c23 7075   0.091   0.317   6.941  0.8127  0.2094  0.1081
 1310poe     o2 7076   0.005   0.326   6.830  0.3363  0.0638  0.4615
 1310poe    c23 7077  -0.056   0.453   6.821 -0.0017 -0.1533 -0.4390
 1310poe    c23 7078  -0.165   0.461   6.712  0.1898  0.7967 -0.5696
 1310poe     o2 7079  -0.115   0.442   6.581 -0.2149 -1.1742 -0.4739
 1310poe    c31 7080  -0.221   0.484   6.498  0.0582 -0.2623 -0.3704
 1311poe    c31 7081   6.033   1.025   6.344  0.1943 -0.3206  0.5566
 1311poe     o2 7082   6.045   0.889   6.308 -0.4377 -0.2021 -0.1244
 1311poe    c23 7083   6.039   0.804   6.420 -0.4446  0.0537  0.0720
 1311poe    c23 7084   6.071   0.667   6.357 -0.1968 -0.1692  0.6757
 1311poe     o2 7085   6.178   0.689   6.268 -0.7545 -0.1683 -0.0038
 1311poe    c23 7086   6.216   0.577   6.191 -0.1154 -0.1345  0.2572
 1311poe    c23 7087   6.348   0.612   6.118 -0.1744  0.3786  0.3926
 1311poe     o2 7088   6.328   0.690   6.003 -0.0845 -0.2448 -0.0516
 1311poe    c23 7089   6.456   0.705   5.945 -0.4410 -0.4025 -0.8956
 1311poe    c23 7090   6.454   0.837   5.866  0.2459  0.0706 -0.1458
 1311poe     o2 7091   6.456   0.965   5.925  0.3995  0.1800 -0.3841
 1311poe    c31 7092   6.446   1.060   5.822  0.0209  0.1572 -0.3724
 1312poe    c31 7093   3.771   5.960   0.771  0.3781 -0.1034 -0.1537
 1312poe     o2 7094   3.770   5.990   0.633 -0.2536  0.5640 -0.0122
 1312poe    c23 7095   3.798   5.880   0.549 -0.0208  0.1926  0.5444
 1312poe    c23 7096   3.898   5.916   0.437 -0.1434 -0.5282  0.1966
 1312poe     o2 7097   3.856   6.045   0.399  0.1572 -0.5674 -0.2777
 1312poe    c23 7098   3.923   6.090   0.284 -0.2589  0.5494 -0.0991
 1312poe    c23 7099   3.880   6.233   0.246  0.5995  0.9094  0.2697
 1312poe     o2 7100   3.744   6.253   0.275  0.2105 -0.6400 -0.4229
 1312poe    c23 7101   3.707   6.389   0.276  0.0774 -0.6769 -0.3469
 1312poe    c23 7102   3.554   6.412   0.271  0.0855 -0.4746  0.2631
 1312poe     o2 7103   3.484   6.349   0.375 -0.4706  0.2625  0.3456
 1312poe    c31 7104   3.355   6.404   0.385 -0.6129  0.0576 -0.3340
 1313poe    c31 7105   1.050   1.300   4.482  0.0096 -0.1463  0.2651
 1313poe     o2 7106   1.064   1.238   4.357  0.0476 -0.0659  0.2295
 1313poe    c23 7107   1.187   1.168   4.350  0.0455 -0.0216 -0.2712
 1313poe    c23 7108   1.154   1.050   4.257  0.2049 -0.4486  0.2125
 1313poe     o2 7109   1.085   1.104   4.146  0.4856 -0.3336  0.0923
 1313poe    c23 7110   1.060   1.000   4.054 -0.6205  0.1282 -0.1488
 1313poe    c23 7111   1.003   1.077   3.934 -0.6920  0.2028 -0.0682
 1313poe     o2 7112   0.897   1.154   3.985 -0.3024  0.5190  0.2591
 1313poe    c23 7113   0.818   1.180   3.872  0.0065 -0.1412 -0.1117
 1313poe    c23 7114   0.685   1.235   3.925  0.1763 -0.1312  0.3070
 1313poe     o2 7115   0.688   1.329   4.030 -0.7575  0.2078  0.0413
 1313poe    c31 7116   0.552   1.361   4.050 -0.7261  0.4845 -0.1794
 1314poe    c31 7117   4.735   5.018   5.168  0.3577 -0.4379 -0.0423
 1314poe     o2 7118   4.665   4.981   5.051 -0.0475 -0.0720  0.0839
 1314poe    c23 7119   4.530   5.019   5.053 -0.0456 -0.0583 -0.0281
 1314poe    c23 7120   4.480   5.003   4.908  0.0489 -0.1470 -0.0507
 1314poe     o2 7121   4.526   4.872   4.886  0.5510 -0.1010  0.6882
 1314poe    c23 7122   4.493   4.828   4.757  0.5544 -0.1783  0.7135
 1314poe    c23 7123   4.547   4.685   4.737  0.0320 -0.3244  0.3407
 1314poe     o2 7124   4.683   4.703   4.766  0.0299  0.7265 -0.2466
 1314poe    c23 7125   4.762   4.593   4.805 -0.4685  0.4586  0.0146
 1314poe    c23 7126   4.881   4.651   4.884  0.2322 -0.4490 -0.3428
 1314poe     o2 7127   4.838   4.734   4.990  0.4631 -0.8208  0.0433
 1314poe    c31 7128   4.945   4.752   5.079  0.2979  0.0773  0.0688
 1315poe    c31 7129   4.849   6.574   0.380  0.1095  0.1167 -0.3017
 1315poe     o2 7130   4.857   6.482   0.274 -0.6750 -0.3847  0.0707
 1315poe    c23 7131   4.844   6.345   0.307  0.0633 -0.4034  0.2793
 1315poe    c23 7132   4.870   6.252   0.188  0.0205  0.5988 -0.5282
 1315poe     o2 7133   4.999   6.271   0.134  0.3332  0.1509  0.0505
 1315poe    c23 7134   5.073   6.153   0.112  0.1204 -0.0936  0.6339
 1315poe    c23 7135   5.205   6.179   0.039 -0.1051  0.0502  0.2746
 1315poe     o2 7136   5.176   6.287  -0.048  0.1970 -0.0047  0.1032
 1315poe    c23 7137   5.292   6.300  -0.127  0.1590 -0.7544 -0.0830
 1315poe    c23 7138   5.319   6.448  -0.161 -0.0152 -0.4938  0.8783
 1315poe     o2 7139   5.342   6.533  -0.051 -0.6539  0.2045  0.4745
 1315poe    c31 7140   5.367   6.665  -0.093  0.5630  0.1067  0.8784
 1316poe    c31 7141   1.085   6.331   5.811  0.0182  0.3996  0.0110
 1316poe     o2 7142   1.089   6.283   5.944 -0.1653 -0.2128 -0.1979
 1316poe    c23 7143   1.069   6.389   6.035 -0.1671 -0.3322 -0.0587
 1316poe    c23 7144   0.925   6.439   6.057 -0.4153 -0.5578 -1.1201
 1316poe     o2 7145   0.848   6.363   6.147  0.0649  0.0669 -0.1686
 1316poe    c23 7146   0.736   6.423   6.208 -0.3006 -0.1569 -0.6218
 1316poe    c23 7147   0.653   6.359   6.321  0.4590 -0.3736 -0.1811
 1316poe     o2 7148   0.715   6.320   6.442 -0.4083 -0.4381  0.2463
 1316poe    c23 7149   0.759   6.425   6.525  0.3099 -0.4177 -0.1555
 1316poe    c23 7150   0.810   6.358   6.653  0.3934  0.5699  0.3345
 1316poe     o2 7151   0.907   6.262   6.615  0.1672  0.6228 -0.3887
 1316poe    c31 7152   0.962   6.205   6.732 -0.8215  0.0002 -0.2106
 1317poe    c31 7153   5.261   0.725   0.889 -0.0536  0.2898  0.6625
 1317poe     o2 7154   5.359   0.738   0.990  0.4681  0.0640  0.1943
 1317poe    c23 7155   5.327   0.792   1.117  0.0681  0.6744 -0.1616
 1317poe    c23 7156   5.458   0.828   1.190  0.4553  0.2681 -0.6481
 1317poe     o2 7157   5.552   0.904   1.117  0.2921  0.2272 -0.9038
 1317poe    c23 7158   5.655   0.963   1.192 -0.1391  0.0496 -0.1535
 1317poe    c23 7159   5.794   0.949   1.126 -0.4687 -0.4346 -0.7496
 1317poe     o2 7160   5.810   1.016   1.003  0.3577  0.0063 -0.4070
 1317poe    c23 7161   5.946   1.028   0.965  0.4864  0.0076  0.0494
 1317poe    c23 7162   5.949   1.096   0.827 -0.6498  0.3483  0.1802
 1317poe     o2 7163   5.851   1.034   0.747 -0.3287 -0.0989  0.1329
 1317poe    c31 7164   5.882   1.053   0.611  0.4492  0.2268  0.3532
 1318poe    c31 7165   2.854   4.077   6.584  0.4356 -0.0559 -0.1052
 1318poe     o2 7166   2.812   4.195   6.520  0.1904  0.0472  0.2412
 1318poe    c23 7167   2.815   4.301   6.613 -0.4020  0.3878 -0.1157
 1318poe    c23 7168   2.690   4.385   6.580 -0.4578  0.2242 -0.3178
 1318poe     o2 7169   2.573   4.308   6.597 -0.3235  0.2319  0.7395
 1318poe    c23 7170   2.461   4.393   6.596  0.0570  0.7384 -0.3630
 1318poe    c23 7171   2.360   4.309   6.676  0.6360  0.1046 -0.2930
 1318poe     o2 7172   2.358   4.175   6.633 -0.5198  0.0989 -0.2566
 1318poe    c23 7173   2.234   4.114   6.659 -0.2892 -0.1235  0.3201
 1318poe    c23 7174   2.206   4.014   6.546  0.5282  0.1356 -0.1176
 1318poe     o2 7175   2.313   3.926   6.517  0.2717 -0.1634 -0.1572
 1318poe    c31 7176   2.291   3.873   6.388  0.2677  0.1426 -0.2832
 1319poe    c31 7177   1.778   3.431   3.586 -0.3358  0.2605 -0.2836
 1319poe     o2 7178   1.833   3.422   3.716 -0.8294  0.3566 -0.0661
 1319poe    c23 7179   1.764   3.496   3.815 -0.8105 -0.5861  0.6629
 1319poe    c23 7180   1.802   3.435   3.951  0.1879  0.2490  0.7674
 1319poe     o2 7181   1.779   3.296   3.950 -0.1585  0.3063  0.5523
 1319poe    c23 7182   1.788   3.247   4.082 -0.3690  0.2825  0.5574
 1319poe    c23 7183   1.827   3.098   4.091 -0.0344  0.3524  0.2473
 1319poe     o2 7184   1.966   3.079   4.072 -0.0933  0.2285 -0.0625
 1319poe    c23 7185   2.001   2.942   4.067 -0.1912  0.2322 -0.9606
 1319poe    c23 7186   2.152   2.920   4.045 -0.0221  0.1874  0.2153
 1319poe     o2 7187   2.200   3.002   3.941  0.4361  0.1859  0.4246
 1319poe    c31 7188   2.292   2.937   3.856  0.2193 -0.6360  0.8074
 1320poe    c31 7189   6.041   3.820   4.843  0.0410 -0.1867  0.7321
 1320poe     o2 7190   5.961   3.926   4.890 -0.0988  0.4502 -0.9054
 1320poe    c23 7191   5.986   4.029   4.796  0.5174  0.3953 -0.8052
 1320poe    c23 7192   5.876   4.136   4.809 -0.0236 -0.2313 -0.1610
 1320poe     o2 7193   5.751   4.080   4.775 -0.2342  0.0627  0.1197
 1320poe    c23 7194   5.669   4.191   4.746 -0.5592 -0.2533 -0.1828
 1320poe    c23 7195   5.520   4.156   4.762 -0.6605  0.4197  0.3962
 1320poe     o2 7196   5.496   4.109   4.893  0.1127 -0.3056  0.2884
 1320poe    c23 7197   5.363   4.068   4.918  0.0439 -0.2816 -0.0294
 1320poe    c23 7198   5.343   4.059   5.070 -0.1043  0.3694 -0.0067
 1320poe     o2 7199   5.463   3.999   5.111 -0.2428  0.0035 -0.1343
 1320poe    c31 7200   5.435   3.953   5.242  0.6842 -0.7092 -0.1731
 1321poe    c31 7201   6.628   2.905   1.356  0.1124  0.2407 -0.7910
 1321poe     o2 7202   6.576   3.034   1.337 -0.6233  0.0728  0.0547
 1321poe    c23 7203   6.560   3.079   1.205 -0.1704  0.2258  0.0496
 1321poe    c23 7204   6.454   3.190   1.203 -0.4680 -0.0495  0.4203
 1321poe     o2 7205   6.487   3.260   1.321  0.2520  0.5234 -0.1098
 1321poe    c23 7206   6.412   3.376   1.352 -0.2372  0.2299 -0.1890
 1321poe    c23 7207   6.462   3.429   1.488 -0.6589  0.1453  0.0021
 1321poe     o2 7208   6.449   3.325   1.583 -0.0442  0.0170 -0.0503
 1321poe    c23 7209   6.412   3.376   1.709  0.3792  0.2967 -0.0354
 1321poe    c23 7210   6.390   3.260   1.808 -0.2241  0.3063 -0.1568
 1321poe     o2 7211   6.279   3.183   1.767  0.2978 -0.5785  0.0785
 1321poe    c31 7212   6.205   3.149   1.882  0.4635 -0.0630  0.3387
 1322poe    c31 7213   2.280   5.722   1.053  0.2030 -0.5323 -0.7619
 1322poe     o2 7214   2.199   5.819   0.991 -0.1191 -0.3768 -0.1111
 1322poe    c23 7215   2.152   5.900   1.096  0.1433  0.5029 -0.6559
 1322poe    c23 7216   2.084   6.028   1.043  0.0640  0.5513 -0.4387
 1322poe     o2 7217   2.004   5.995   0.933 -0.4653  0.4387 -0.0238
 1322poe    c23 7218   1.937   6.109   0.884  0.2085  0.4570 -0.9291
 1322poe    c23 7219   1.848   6.077   0.762 -0.7575 -0.2683 -0.0538
 1322poe     o2 7220   1.917   6.005   0.663  0.0742  0.1619  0.2055
 1322poe    c23 7221   2.010   6.083   0.590 -0.2361 -0.3137 -0.7168
 1322poe    c23 7222   2.151   6.021   0.597  0.1019  0.4637 -0.5312
 1322poe     o2 7223   2.195   5.987   0.726  0.1447 -0.1277 -0.6999
 1322poe    c31 7224   2.316   6.056   0.741 -0.0083  0.0097 -0.0600
 1323poe    c31 7225   1.714   6.644   4.441 -1.4765 -0.2103  0.6106
 1323poe     o2 7226   1.746   6.515   4.396  0.2042  0.4469 -0.1714
 1323poe    c23 7227   1.665   6.420   4.462  0.5358 -0.0076 -0.4092
 1323poe    c23 7228   1.680   6.280   4.400  0.0426 -0.1308 -0.2564
 1323poe     o2 7229   1.820   6.269   4.386  0.0087 -0.5380 -0.2964
 1323poe    c23 7230   1.842   6.160   4.300 -0.7467 -0.4201 -0.6518
 1323poe    c23 7231   1.995   6.148   4.292 -0.6205  0.4578  0.2354
 1323poe     o2 7232   2.043   6.276   4.259  0.3267  0.1033  0.1992
 1323poe    c23 7233   2.179   6.275   4.220  0.1083  0.2170 -0.5828
 1323poe    c23 7234   2.283   6.288   4.333 -0.2599  0.1762 -0.2354
 1323poe     o2 7235   2.254   6.404   4.408  0.8192  0.0944  0.3196
 1323poe    c31 7236   2.350   6.415   4.511 -0.0461  0.3825  1.1114
 1324poe    c31 7237   3.410   5.076   5.182  0.1575 -1.1300  0.2922
 1324poe     o2 7238   3.469   5.047   5.057 -0.0525 -0.3584  0.0103
 1324poe    c23 7239   3.430   5.144   4.963  0.4179 -0.1732  0.0008
 1324poe    c23 7240   3.516   5.147   4.835 -0.1167 -0.7075 -0.3765
 1324poe     o2 7241   3.649   5.138   4.880 -0.1995  0.4161  0.1243
 1324poe    c23 7242   3.747   5.074   4.801 -0.7805 -0.1139 -0.1780
 1324poe    c23 7243   3.710   4.927   4.779  0.1596 -0.3151 -0.4415
 1324poe     o2 7244   3.697   4.859   4.902 -0.2020  0.2086 -0.1893
 1324poe    c23 7245   3.814   4.799   4.953 -0.0899  0.2607 -0.3826
 1324poe    c23 7246   3.823   4.843   5.101  0.3524  0.1777 -0.3850
 1324poe     o2 7247   3.691   4.828   5.146  0.3242 -0.5443 -0.6928
 1324poe    c31 7248   3.688   4.826   5.286  0.2435  0.2686 -0.6791
 1325poe    c31 7249   2.959   1.903   0.029 -0.3641  0.0052  0.2880
 1325poe     o2 7250   2.965   1.919   0.169  0.7994  0.3068  0.2196
 1325poe    c23 7251   2.852   1.988   0.218 -0.1328 -0.9577 -0.0801
 1325poe    c23 7252   2.883   2.073   0.342 -0.4236 -0.8674 -0.0702
 1325poe     o2 7253   2.941   1.975   0.425 -0.2549 -0.6477  0.0751
 1325poe    c23 7254   2.968   2.008   0.559  0.9324  0.0807 -0.3312
 1325poe    c23 7255   3.034   1.890   0.633  0.3386 -0.1425 -0.1574
 1325poe     o2 7256   3.150   1.858   0.561  0.2811  0.1726 -0.3895
 1325poe    c23 7257   3.222   1.762   0.634 -0.2838  0.0792  0.0518
 1325poe    c23 7258   3.371   1.761   0.592 -0.0867 -0.8353  0.7423
 1325poe     o2 7259   3.400   1.726   0.459 -0.4686  0.0690  0.4194
 1325poe    c31 7260   3.538   1.751   0.444 -0.5736  0.3239 -0.1560
 1326poe    c31 7261   4.856   5.288   3.213  0.0438  0.5089 -0.4968
 1326poe     o2 7262   4.834   5.292   3.352 -0.1289 -0.1803 -0.5005
 1326poe    c23 7263   4.808   5.426   3.388 -0.3993 -0.2906 -0.2708
 1326poe    c23 7264   4.828   5.411   3.539  0.0718  0.1513 -0.2862
 1326poe     o2 7265   4.726   5.329   3.591  0.0217  0.4025  0.0143
 1326poe    c23 7266   4.747   5.332   3.731 -0.1615 -0.4215  0.0645
 1326poe    c23 7267   4.624   5.257   3.785 -0.6992  0.0316 -0.5060
 1326poe     o2 7268   4.575   5.162   3.693 -0.8003 -0.4256  0.0094
 1326poe    c23 7269   4.483   5.073   3.752 -0.6560 -0.2606  0.4835
 1326poe    c23 7270   4.434   4.981   3.640  0.0380 -0.2368  0.1565
 1326poe     o2 7271   4.458   5.039   3.513  0.1731 -0.3298  0.1391
 1326poe    c31 7272   4.401   4.957   3.413  0.5092  0.3140 -0.5859
 1327poe    c31 7273   2.101   2.791   5.012 -0.6953  1.0605 -0.7442
 1327poe     o2 7274   2.141   2.917   5.060 -0.1178  0.4689  0.3729
 1327poe    c23 7275   2.060   2.966   5.164 -0.4357  0.1265  0.2877
 1327poe    c23 7276   2.031   3.117   5.157 -0.2143  0.1332 -0.5580
 1327poe     o2 7277   2.140   3.199   5.195 -0.3327  0.2051 -0.3705
 1327poe    c23 7278   2.160   3.195   5.334 -0.0274  0.1354 -0.4170
 1327poe    c23 7279   2.293   3.264   5.373  0.0894 -0.4297  0.1969
 1327poe     o2 7280   2.391   3.205   5.291 -0.1438 -0.5738  0.0195
 1327poe    c23 7281   2.506   3.283   5.314 -0.4115 -0.0083 -0.5192
 1327poe    c23 7282   2.624   3.184   5.315 -0.3500  0.0656 -0.2723
 1327poe     o2 7283   2.613   3.107   5.197 -0.1987 -0.2481 -0.0828
 1327poe    c31 7284   2.727   3.026   5.184  0.1534  0.3033 -0.4648
 1328poe    c31 7285   2.365   1.393   4.367  0.8699 -0.1329  0.3696
 1328poe     o2 7286   2.429   1.401   4.492  0.3353  0.2189  0.6248
 1328poe    c23 7287   2.532   1.306   4.507  0.1769 -0.0815 -0.1322
 1328poe    c23 7288   2.594   1.302   4.648 -0.1635 -0.1024  0.0167
 1328poe     o2 7289   2.658   1.422   4.684  0.1320 -0.4528  0.6749
 1328poe    c23 7290   2.666   1.434   4.824  0.3336 -0.0094  0.6276
 1328poe    c23 7291   2.700   1.582   4.851  0.1872  0.2961 -0.7977
 1328poe     o2 7292   2.584   1.653   4.811  0.0624  0.5366 -0.0241
 1328poe    c23 7293   2.578   1.780   4.871  0.4788  0.3290  0.4767
 1328poe    c23 7294   2.431   1.811   4.905  0.0788 -0.5516 -0.4206
 1328poe     o2 7295   2.364   1.804   4.780 -0.2964 -0.1484 -0.2446
 1328poe    c31 7296   2.255   1.891   4.764  0.1529  0.5957  0.6578
 1329poe    c31 7297   2.007   0.844   4.429 -0.2844  0.1729 -0.1380
 1329poe     o2 7298   1.903   0.784   4.354 -0.2104  0.0573 -0.1474
 1329poe    c23 7299   1.839   0.867   4.261 -0.7461 -0.5902 -0.3644
 1329poe    c23 7300   1.726   0.791   4.188 -0.3546 -0.7280 -0.8327
 1329poe     o2 7301   1.790   0.675   4.138 -0.0468 -0.9985  0.1553
 1329poe    c23 7302   1.705   0.619   4.040 -0.6174 -0.1260  0.1410
 1329poe    c23 7303   1.797   0.524   3.962 -0.5652  0.2544 -0.2677
 1329poe     o2 7304   1.829   0.427   4.059  0.3564  0.8539  0.0394
 1329poe    c23 7305   1.939   0.348   4.019 -0.3584 -0.1160 -0.0389
 1329poe    c23 7306   1.999   0.248   4.119 -0.7548  0.2157  0.5358
 1329poe     o2 7307   2.075   0.316   4.216 -0.4921  0.0932  0.4191
 1329poe    c31 7308   2.186   0.245   4.266 -0.1396 -0.0961 -0.6052
 1330poe    c31 7309   5.776   3.274   6.937 -0.6223 -0.1011  0.4007
 1330poe     o2 7310   5.833   3.153   6.982  0.3904  0.3537  0.3479
 1330poe    c23 7311   5.937   3.163   7.077  0.2177 -0.0813  0.5836
 1330poe    c23 7312   6.050   3.076   7.019  0.5084  0.5375  0.2197
 1330poe     o2 7313   5.986   2.954   6.990  0.5434  0.4975  0.3107
 1330poe    c23 7314   6.085   2.863   6.947 -0.0490  0.1074 -0.2602
 1330poe    c23 7315   6.012   2.728   6.938 -0.1892  0.1954 -0.4344
 1330poe     o2 7316   5.886   2.744   6.877 -0.2476  0.0543 -0.3520
 1330poe    c23 7317   5.826   2.617   6.862 -0.0355 -0.0663 -0.1759
 1330poe    c23 7318   5.677   2.632   6.825  0.1064  0.3185 -0.6075
 1330poe     o2 7319   5.640   2.709   6.713  0.4240  0.5677 -0.5468
 1330poe    c31 7320   5.632   2.645   6.587 -0.4085  0.1401 -0.2882
 1331poe    c31 7321   4.375   6.232   5.507 -0.0447  0.3328  0.9649
 1331poe     o2 7322   4.315   6.340   5.439 -0.1741 -0.4215 -0.1497
 1331poe    c23 7323   4.380   6.367   5.317 -0.2653 -0.4767 -0.2106
 1331poe    c23 7324   4.313   6.492   5.257 -0.3122 -0.4992 -0.2066
 1331poe     o2 7325   4.174   6.483   5.283 -0.3021 -0.0765  0.0045
 1331poe    c23 7326   4.078   6.525   5.189  0.0194  0.0976 -0.2500
 1331poe    c23 7327   3.931   6.492   5.223  0.1562 -0.1314  0.1252
 1331poe     o2 7328   3.902   6.359   5.186  0.4604 -0.0109 -0.5680
 1331poe    c23 7329   3.763   6.339   5.177  0.4182  0.1720 -0.3306
 1331poe    c23 7330   3.721   6.191   5.187 -0.6749  0.5052  0.2111
 1331poe     o2 7331   3.750   6.143   5.317  0.1119  0.2688 -0.0446
 1331poe    c31 7332   3.688   6.018   5.339 -0.0804  0.1763 -1.0664
 1332poe    c31 7333   1.220   5.560   3.264 -0.1756  0.5792  0.0089
 1332poe     o2 7334   1.080   5.567   3.277 -0.2819 -0.2449 -0.5880
 1332poe    c23 7335   1.014   5.635   3.172  0.2783  0.7393 -0.3126
 1332poe    c23 7336   0.865   5.623   3.207  0.3921  0.7437  0.1755
 1332poe     o2 7337   0.847   5.649   3.345  0.2235  0.4941  0.2019
 1332poe    c23 7338   0.707   5.657   3.356  0.1937  0.3549 -0.0568
 1332poe    c23 7339   0.656   5.750   3.468 -0.2403  0.2365 -0.1545
 1332poe     o2 7340   0.737   5.740   3.582 -0.6848 -0.4083  0.1102
 1332poe    c23 7341   0.697   5.810   3.697  0.1249 -0.1456  0.2382
 1332poe    c23 7342   0.761   5.732   3.814  0.0500 -0.4611  0.0683
 1332poe     o2 7343   0.899   5.707   3.795 -0.0430 -0.7560 -0.2369
 1332poe    c31 7344   0.926   5.591   3.870  0.2320 -0.4101  0.2064
 1333poe    c31 7345   0.082   0.367   5.503 -0.2272 -0.0098  0.4862
 1333poe     o2 7346   0.200   0.435   5.464 -0.3866 -0.0745 -0.1211
 1333poe    c23 7347   0.174   0.573   5.478  0.8039  0.1198  0.2535
 1333poe    c23 7348   0.312   0.633   5.447  0.6165  0.4645  0.0817
 1333poe     o2 7349   0.398   0.536   5.503 -0.0836 -0.0808  0.2252
 1333poe    c23 7350   0.524   0.593   5.474 -0.0628  0.0921  0.6489
 1333poe    c23 7351   0.624   0.497   5.541 -0.3590  0.0257  1.0000
 1333poe     o2 7352   0.612   0.366   5.491 -0.2422  0.3863  0.0124
 1333poe    c23 7353   0.721   0.288   5.535 -0.5522  0.1010  0.2802
 1333poe    c23 7354   0.703   0.144   5.484 -0.0607 -0.0478  0.5234
 1333poe     o2 7355   0.592   0.087   5.549 -0.1559 -0.4087  0.0469
 1333poe    c31 7356   0.611  -0.052   5.568 -0.0232 -0.4748 -0.5635
 1334poe    c31 7357   0.361   6.829   5.973  0.2260 -0.3100 -0.3169
 1334poe     o2 7358   0.241   6.756   5.969  0.2786 -0.4051 -0.1889
 1334poe    c23 7359   0.227   6.668   6.079 -0.4091  0.6710  0.6125
 1334poe    c23 7360   0.108   6.571   6.072  0.3700 -0.2525 -0.0036
 1334poe     o2 7361  -0.012   6.622   6.018  0.2898 -0.6332 -0.1892
 1334poe    c23 7362  -0.112   6.522   6.025  0.0272 -0.3690 -0.1804
 1334poe    c23 7363  -0.235   6.566   5.943  0.0399  0.5585  0.2765
 1334poe     o2 7364  -0.194   6.653   5.841  0.0370  0.0696 -0.1485
 1334poe    c23 7365  -0.304   6.708   5.772 -0.0004  0.0241 -0.1251
 1334poe    c23 7366  -0.266   6.810   5.663  0.0323  0.2440  0.0915
 1334poe     o2 7367  -0.158   6.879   5.723  0.3603 -0.0162 -0.1965
 1334poe    c31 7368  -0.149   7.011   5.676 -0.1169  0.0143 -0.2051
 1335poe    c31 7369   5.774   2.366   4.844 -0.7243  0.1868 -0.1559
 1335poe     o2 7370   5.895   2.375   4.915 -0.4035 -0.0717 -0.6613
 1335poe    c23 7371   6.010   2.363   4.835 -0.1574 -1.2250 -0.1590
 1335poe    c23 7372   6.138   2.394   4.915 -0.2864  0.0016 -0.4021
 1335poe     o2 7373   6.189   2.525   4.900 -0.4683  0.1984  0.6507
 1335poe    c23 7374   6.325   2.506   4.870 -0.5145  0.0452  0.5330
 1335poe    c23 7375   6.392   2.645   4.878 -0.4079  0.0054  0.3297
 1335poe     o2 7376   6.338   2.699   4.996 -0.2268 -0.0351  0.4323
 1335poe    c23 7377   6.441   2.739   5.084  0.4906  0.2813 -0.5336
 1335poe    c23 7378   6.392   2.836   5.192  0.3360 -0.4859  0.0937
 1335poe     o2 7379   6.290   2.781   5.273  0.1924 -0.7392 -0.2611
 1335poe    c31 7380   6.269   2.855   5.391  0.0808 -0.4212 -0.4778
 1336poe    c31 7381   4.904   6.414   5.711 -0.2520  0.4002 -0.1400
 1336poe     o2 7382   4.871   6.383   5.845  0.2099 -0.1472 -0.1530
 1336poe    c23 7383   4.985   6.339   5.916  0.1803  0.3297  0.1904
 1336poe    c23 7384   4.972   6.392   6.060  0.5957  0.5379  0.1518
 1336poe     o2 7385   4.848   6.333   6.091  0.4928  0.4368 -0.4445
 1336poe    c23 7386   4.817   6.323   6.228 -0.1564  0.4531 -0.5869
 1336poe    c23 7387   4.676   6.261   6.222 -0.2122  0.5362 -0.1775
 1336poe     o2 7388   4.585   6.340   6.150 -0.5930  0.3767  0.1238
 1336poe    c23 7389   4.454   6.292   6.168 -0.2228 -0.5578  0.4036
 1336poe    c23 7390   4.341   6.370   6.097  0.2332 -0.0614  0.2185
 1336poe     o2 7391   4.356   6.356   5.957  0.0146  0.1396  0.1751
 1336poe    c31 7392   4.270   6.430   5.874  0.2950  0.2965  0.0232
 1337poe    c31 7393   3.483   1.455   5.271  0.2362 -0.6143  0.5281
 1337poe     o2 7394   3.406   1.432   5.155  0.8263  0.3149 -0.0647
 1337poe    c23 7395   3.368   1.297   5.153  0.2077  0.4818 -0.0534
 1337poe    c23 7396   3.215   1.289   5.142  0.2312  0.0360 -0.0784
 1337poe     o2 7397   3.180   1.335   5.014  0.0994  0.5249  0.1294
 1337poe    c23 7398   3.041   1.322   4.997  0.1391  0.1285  0.0961
 1337poe    c23 7399   3.019   1.295   4.847  0.3449 -0.0922  0.1060
 1337poe     o2 7400   3.055   1.411   4.775 -0.4042 -0.1781 -0.4116
 1337poe    c23 7401   3.079   1.391   4.637 -0.4407  0.0140 -0.4462
 1337poe    c23 7402   3.138   1.518   4.573  0.8278 -0.1996  0.2601
 1337poe     o2 7403   3.221   1.574   4.672  0.2485  0.7568  0.2175
 1337poe    c31 7404   3.294   1.683   4.623  0.1983  0.4860 -0.4758
 1338poe    c31 7405   4.193   4.535   5.629 -0.2679  0.0795  0.0841
 1338poe     o2 7406   4.058   4.497   5.613 -0.3491  0.2452  0.3779
 1338poe    c23 7407   4.034   4.471   5.477  0.1085  0.4912  0.2482
 1338poe    c23 7408   3.893   4.519   5.437  0.1496 -0.1412 -0.6948
 1338poe     o2 7409   3.784   4.432   5.456 -0.1492  0.4134  0.1629
 1338poe    c23 7410   3.669   4.460   5.380 -0.4980  0.3852  0.6792
 1338poe    c23 7411   3.549   4.386   5.442 -0.3864 -0.4011 -0.0292
 1338poe     o2 7412   3.603   4.262   5.483  0.1886  0.0694  0.6494
 1338poe    c23 7413   3.514   4.198   5.572  0.0863 -0.0596  0.4562
 1338poe    c23 7414   3.553   4.050   5.559  0.6043  0.1187 -0.0583
 1338poe     o2 7415   3.686   4.024   5.597  0.6892 -0.4479 -0.7005
 1338poe    c31 7416   3.709   3.893   5.642  0.4820 -0.0287  0.6709
 1339poe    c31 7417   3.475   3.395   2.303 -0.5646  0.1568  0.4868
 1339poe     o2 7418   3.587   3.330   2.360 -0.4246  0.0381  0.0776
 1339poe    c23 7419   3.563   3.313   2.498  0.2370 -0.0562  0.1838
 1339poe    c23 7420   3.666   3.214   2.554  0.4711  0.3027  0.3891
 1339poe     o2 7421   3.781   3.281   2.507  0.0303  0.1283 -0.9883
 1339poe    c23 7422   3.899   3.216   2.549 -0.0502  0.2927 -0.4954
 1339poe    c23 7423   4.020   3.292   2.491  0.0947  0.3963 -0.0577
 1339poe     o2 7424   4.009   3.279   2.351 -0.0168 -0.5014  0.0314
 1339poe    c23 7425   4.133   3.299   2.286  0.2851  0.1211  0.7783
 1339poe    c23 7426   4.113   3.358   2.145  0.4463 -0.4578  0.5082
 1339poe     o2 7427   4.032   3.474   2.152  0.3539 -0.4248 -0.8715
 1339poe    c31 7428   4.014   3.526   2.022 -0.5178  0.0988 -0.5527
 1340poe    c31 7429   4.069   3.581   6.073 -0.0666  0.0528 -0.6656
 1340poe     o2 7430   4.033   3.717   6.079  0.1038  0.0653  0.2739
 1340poe    c23 7431   3.895   3.735   6.055  0.2892  0.3935 -0.6150
 1340poe    c23 7432   3.874   3.888   6.050 -0.8315  0.2806  0.2133
 1340poe     o2 7433   3.964   3.946   5.958 -0.1342  0.0877  0.7636
 1340poe    c23 7434   3.983   4.081   5.994  0.3260  0.2746 -0.1407
 1340poe    c23 7435   4.093   4.176   5.944 -0.1325  0.5244 -0.6741
 1340poe     o2 7436   4.217   4.166   6.010 -0.2839 -0.0172 -0.4684
 1340poe    c23 7437   4.287   4.287   6.028  0.0984 -0.3253  0.1527
 1340poe    c23 7438   4.405   4.281   6.127  0.0790  0.0373  0.2012
 1340poe     o2 7439   4.519   4.227   6.065 -0.1593  0.3438 -0.5039
 1340poe    c31 7440   4.622   4.204   6.158 -0.4102  0.1000 -0.2850
 1341poe    c31 7441   3.315   2.352   4.615  0.2749  0.1302  0.1975
 1341poe     o2 7442   3.339   2.451   4.519 -0.0551 -0.3525 -0.3902
 1341poe    c23 7443   3.257   2.564   4.539  0.2200 -0.1782 -0.2458
 1341poe    c23 7444   3.264   2.659   4.418 -0.1215 -0.1608 -0.2530
 1341poe     o2 7445   3.172   2.609   4.323 -0.3129 -0.0736 -0.1136
 1341poe    c23 7446   3.208   2.652   4.194  0.1488  0.3102  0.1390
 1341poe    c23 7447   3.119   2.567   4.101  0.6822 -0.0791 -0.0213
 1341poe     o2 7448   2.989   2.551   4.152  0.4664  0.2816 -0.4537
 1341poe    c23 7449   2.905   2.481   4.062  0.1203 -0.2004  0.2365
 1341poe    c23 7450   2.906   2.327   4.074 -0.9164 -0.2666 -0.4239
 1341poe     o2 7451   2.857   2.306   4.204 -0.0521 -0.1857 -0.0774
 1341poe    c31 7452   2.803   2.176   4.207 -0.0053 -0.2029  0.0036
 1342poe    c31 7453   0.467   1.806   6.296 -0.3568 -0.3267  0.9358
 1342poe     o2 7454   0.341   1.867   6.278  0.0039  0.1580  0.0091
 1342poe    c23 7455   0.349   2.006   6.304 -0.6024  0.0128  1.0271
 1342poe    c23 7456   0.244   2.079   6.219 -0.1504 -0.0961  0.3669
 1342poe     o2 7457   0.119   2.055   6.280 -0.2229 -0.4403  0.0883
 1342poe    c23 7458   0.024   2.150   6.239 -0.3911 -0.7173 -0.1633
 1342poe    c23 7459  -0.100   2.138   6.330 -0.2731  0.1666  0.1254
 1342poe     o2 7460  -0.121   1.999   6.347  0.0293  0.0925 -0.0889
 1342poe    c23 7461  -0.230   1.975   6.434 -0.0256  0.3633 -0.0808
 1342poe    c23 7462  -0.251   1.823   6.442 -0.0005  0.3810  0.3040
 1342poe     o2 7463  -0.125   1.761   6.428 -0.1785  0.0873 -0.0091
 1342poe    c31 7464  -0.146   1.622   6.415  0.1922 -0.0370  0.6734
 1343poe    c31 7465   2.752   5.726   5.639 -0.0738 -0.0372  0.1907
 1343poe     o2 7466   2.654   5.664   5.558 -0.6149 -0.0784  0.8673
 1343poe    c23 7467   2.536   5.740   5.549 -0.1049  0.6405  0.0965
 1343poe    c23 7468   2.494   5.787   5.409  0.1708  0.0873 -0.1738
 1343poe     o2 7469   2.535   5.669   5.344 -1.0980 -0.3493 -0.2172
 1343poe    c23 7470   2.533   5.667   5.203 -0.1780  0.9351 -0.2723
 1343poe    c23 7471   2.635   5.564   5.153 -0.5081  0.6250 -0.3135
 1343poe     o2 7472   2.663   5.473   5.257 -0.2452 -0.0704 -0.9799
 1343poe    c23 7473   2.791   5.418   5.234 -0.0125  0.0313  0.0177
 1343poe    c23 7474   2.831   5.347   5.364  0.2866  0.1912  0.0114
 1343poe     o2 7475   2.799   5.416   5.483  0.0376 -0.4778  0.3391
 1343poe    c31 7476   2.894   5.379   5.580  0.2100 -0.6019  0.1232
 1344poe    c31 7477   6.780   5.756   6.575 -0.2331 -0.4395 -0.1510
 1344poe     o2 7478   6.842   5.629   6.574  0.0404 -0.3138  0.6378
 1344poe    c23 7479   6.751   5.537   6.630 -0.1907 -0.4423  0.0606
 1344poe    c23 7480   6.835   5.413   6.664  0.1607 -0.0518  0.6313
 1344poe     o2 7481   6.944   5.402   6.576 -0.3959  0.0500 -0.0758
 1344poe    c23 7482   7.012   5.280   6.594 -0.2009  0.1587 -0.0663
 1344poe    c23 7483   7.120   5.279   6.484 -0.7321  0.2268 -0.5928
 1344poe     o2 7484   7.168   5.408   6.453 -0.3936  0.3525  0.4246
 1344poe    c23 7485   7.300   5.387   6.407 -0.6276 -0.3099  0.0531
 1344poe    c23 7486   7.373   5.522   6.402 -1.2154  0.0147  0.1224
 1344poe     o2 7487   7.375   5.582   6.530 -0.5531  0.2730 -0.0061
 1344poe    c31 7488   7.446   5.704   6.534  0.4745 -0.3437  0.9084
 1345poe    c31 7489   5.791   4.404   0.205  0.7479 -0.2770 -0.5880
 1345poe     o2 7490   5.667   4.337   0.195  0.2889  0.5170 -0.2757
 1345poe    c23 7491   5.585   4.389   0.092  0.0027 -0.2250 -0.4251
 1345poe    c23 7492   5.443   4.333   0.112 -0.1669  0.4327  0.2476
 1345poe     o2 7493   5.457   4.197   0.147 -0.0574  0.2670 -0.4335
 1345poe    c23 7494   5.345   4.142   0.211  0.5978  0.1882  0.6666
 1345poe    c23 7495   5.373   3.999   0.263 -0.7473  0.0913  1.1740
 1345poe     o2 7496   5.483   4.009   0.351  0.3008  0.2258 -0.1255
 1345poe    c23 7497   5.494   3.900   0.440  0.5229  0.3513  0.0017
 1345poe    c23 7498   5.639   3.903   0.490  0.4898 -0.1480  0.1248
 1345poe     o2 7499   5.659   4.028   0.551 -0.4206  0.1816 -0.2303
 1345poe    c31 7500   5.636   4.036   0.690  0.6318  0.5028 -0.0640
 1346poe    c31 7501   1.521   0.167   3.129  0.9561 -0.0863 -0.1621
 1346poe     o2 7502   1.522   0.033   3.085 -0.3587 -0.1237 -0.1052
 1346poe    c23 7503   1.601   0.011   2.970 -0.2635 -0.4167  0.0148
 1346poe    c23 7504   1.551  -0.098   2.874 -0.0433 -0.5705  0.0768
 1346poe     o2 7505   1.523  -0.207   2.959  0.6903 -0.3762  0.5836
 1346poe    c23 7506   1.458  -0.316   2.897  0.2445  0.2470 -0.0677
 1346poe    c23 7507   1.418  -0.418   3.006  0.2533  0.4657  0.1416
 1346poe     o2 7508   1.341  -0.358   3.107 -0.3222  0.5828 -0.3616
 1346poe    c23 7509   1.298  -0.448   3.207  0.1313  0.4514 -0.2822
 1346poe    c23 7510   1.169  -0.395   3.273  0.1293  0.1817 -0.0668
 1346poe     o2 7511   1.054  -0.419   3.196  0.4604 -0.9045 -0.2434
 1346poe    c31 7512   0.939  -0.414   3.278  0.3368 -0.3591 -0.4448
 1347poe    c31 7513   6.288   1.515   2.239  0.0882 -0.2955  0.3100
 1347poe     o2 7514   6.233   1.387   2.259  0.0399 -0.2196  0.6774
 1347poe    c23 7515   6.278   1.304   2.154 -0.0110 -0.0010  0.4822
 1347poe    c23 7516   6.286   1.150   2.153  0.3089  0.0171  0.2839
 1347poe     o2 7517   6.330   1.103   2.028  0.0066 -0.0839  0.2148
 1347poe    c23 7518   6.305   0.964   2.037  0.5141 -0.1646  0.4427
 1347poe    c23 7519   6.391   0.877   1.944 -0.5198 -0.5311 -0.1932
 1347poe     o2 7520   6.373   0.886   1.805 -0.3141 -0.2308 -0.2018
 1347poe    c23 7521   6.425   0.775   1.735  0.3860  0.0908 -0.2005
 1347poe    c23 7522   6.334   0.742   1.616  0.1873  0.6015 -0.1885
 1347poe     o2 7523   6.200   0.707   1.642  0.3420  0.2644  0.1461
 1347poe    c31 7524   6.202   0.581   1.706  0.7897  0.1358 -0.1141
 1348poe    c31 7525   0.822   6.990   0.408 -0.1706  0.1735  0.0319
 1348poe     o2 7526   0.885   6.879   0.348 -0.2059  0.0666  0.1928
 1348poe    c23 7527   0.855   6.772   0.434  0.1734 -0.4607 -0.3219
 1348poe    c23 7528   0.963   6.663   0.427  0.2083 -0.4876  0.5362
 1348poe     o2 7529   0.977   6.622   0.293 -0.2417  0.5992  0.1417
 1348poe    c23 7530   0.889   6.525   0.242 -0.4992  0.3627  1.0103
 1348poe    c23 7531   0.897   6.525   0.088 -0.3326  0.3133  1.0187
 1348poe     o2 7532   0.869   6.656   0.045  0.4233  0.0212 -0.4200
 1348poe    c23 7533   0.823   6.679  -0.087 -0.3149 -0.0954 -0.1887
 1348poe    c23 7534   0.718   6.791  -0.081 -0.0836  0.1189 -0.1290
 1348poe     o2 7535   0.760   6.911  -0.019 -0.4815  0.1349  0.1133
 1348poe    c31 7536   0.654   7.004  -0.005  0.4593  1.1169  0.8662
 1349poe    c31 7537   1.858   5.860   2.713 -0.2719 -0.5199 -0.4150
 1349poe     o2 7538   1.874   5.919   2.585 -0.6543  0.0322 -0.2116
 1349poe    c23 7539   2.001   5.875   2.541 -0.4758 -0.2663  0.5666
 1349poe    c23 7540   2.018   5.939   2.402 -0.5630 -0.5507  0.4230
 1349poe     o2 7541   1.894   5.939   2.336 -0.4282  0.1584  0.1565
 1349poe    c23 7542   1.907   5.963   2.198 -0.3214 -0.0481  0.1299
 1349poe    c23 7543   1.781   5.920   2.119 -0.1979 -0.4903  0.1728
 1349poe     o2 7544   1.673   6.009   2.134 -0.0128 -0.2707  0.1975
 1349poe    c23 7545   1.550   5.943   2.116 -0.1125 -0.0626  0.1097
 1349poe    c23 7546   1.424   6.004   2.181 -0.0606  0.0730  0.0846
 1349poe     o2 7547   1.418   6.008   2.322 -1.2383 -0.5695  0.0649
 1349poe    c31 7548   1.304   6.086   2.347 -0.7172  0.1802  0.1150
 1350poe    c31 7549   5.561   1.115   0.050  0.0190 -0.2793 -0.1208
 1350poe     o2 7550   5.510   0.988   0.082  0.7320 -0.6079 -0.2843
 1350poe    c23 7551   5.525   0.965   0.220 -0.0354  0.2605 -0.0504
 1350poe    c23 7552   5.522   0.812   0.237  0.0163  0.2143 -0.4530
 1350poe     o2 7553   5.406   0.788   0.160  0.0061 -0.0721 -0.3519
 1350poe    c23 7554   5.357   0.657   0.170 -0.2238  0.0726  0.5241
 1350poe    c23 7555   5.212   0.667   0.118  0.0609  0.4467 -0.2191
 1350poe     o2 7556   5.202   0.721  -0.011  0.3993  0.0513 -0.4141
 1350poe    c23 7557   5.068   0.701  -0.051  0.2419 -0.2185  0.2473
 1350poe    c23 7558   5.051   0.711  -0.203  0.0271 -0.2147  0.2703
 1350poe     o2 7559   5.123   0.827  -0.239 -0.9653  0.4262  0.3219
 1350poe    c31 7560   5.088   0.878  -0.366 -0.5239 -0.2311 -0.0694
 1351poe    c31 7561   1.315   6.273   3.959  0.0150  0.1122  0.6997
 1351poe     o2 7562   1.271   6.141   3.980  0.0278  0.0254  0.1942
 1351poe    c23 7563   1.339   6.040   3.909 -0.4189 -0.1221 -0.0268
 1351poe    c23 7564   1.221   5.941   3.913  0.0294 -0.6598 -0.0387
 1351poe     o2 7565   1.177   5.925   4.046 -0.3080  0.0636 -0.0620
 1351poe    c23 7566   1.055   5.857   4.033  0.0503 -0.6798  0.3581
 1351poe    c23 7567   0.981   5.893   4.163 -0.0253 -0.1439  0.1702
 1351poe     o2 7568   0.984   6.032   4.190 -0.5201  0.0730 -0.8349
 1351poe    c23 7569   0.970   6.050   4.329  1.1374 -0.0097 -0.6322
 1351poe    c23 7570   1.000   6.201   4.340  0.2096  0.1705 -0.4788
 1351poe     o2 7571   1.117   6.224   4.266  0.2517  0.5899 -0.2820
 1351poe    c31 7572   1.174   6.346   4.308  0.5806  0.1168  0.6755
 1352poe    c31 7573   5.885   3.376   1.824 -0.0641  0.0594 -0.2437
 1352poe     o2 7574   5.769   3.448   1.862  0.0438  0.3476 -0.4552
 1352poe    c23 7575   5.671   3.366   1.922 -0.0354  0.5877 -0.2548
 1352poe    c23 7576   5.552   3.458   1.954 -0.3158  0.0490  0.2748
 1352poe     o2 7577   5.611   3.567   2.023  0.0008 -0.3761  0.6840
 1352poe    c23 7578   5.522   3.664   2.073 -0.1634 -0.1254 -0.0763
 1352poe    c23 7579   5.623   3.753   2.147  0.2656 -0.4812 -0.2328
 1352poe     o2 7580   5.713   3.818   2.060 -0.0954  0.1050 -0.1700
 1352poe    c23 7581   5.775   3.919   2.135 -0.5002  0.1559  0.1030
 1352poe    c23 7582   5.896   3.991   2.071 -0.1066 -0.1988  0.4481
 1352poe     o2 7583   6.007   3.904   2.063  0.2118  0.2018  0.4534
 1352poe    c31 7584   6.118   3.986   2.036  0.3543 -0.1448 -0.0148
 1353poe    c31 7585   0.953   2.090   0.683 -0.5691  0.9023 -0.0346
 1353poe     o2 7586   0.968   2.088   0.823  0.0371 -0.0700 -0.0989
 1353poe    c23 7587   1.048   1.981   0.869 -0.2612 -0.1403  0.2641
 1353poe    c23 7588   1.088   2.007   1.015  1.3144  0.2107 -0.2081
 1353poe     o2 7589   1.118   2.145   1.018 -0.0200  0.5173 -0.3411
 1353poe    c23 7590   1.168   2.189   1.142  0.0050  0.1804 -0.2313
 1353poe    c23 7591   1.187   2.341   1.141 -0.5750  0.2675  0.6074
 1353poe     o2 7592   1.086   2.405   1.066 -0.2907  0.0306  0.0180
 1353poe    c23 7593   1.110   2.544   1.071  0.4264 -0.0801 -0.2376
 1353poe    c23 7594   0.972   2.612   1.075  0.5256  0.1506 -0.6170
 1353poe     o2 7595   0.905   2.607   0.951  0.8660  0.2419 -0.8063
 1353poe    c31 7596   0.800   2.700   0.940  0.4468 -0.0362  0.5935
 1354poe    c31 7597   5.356   5.137   4.018  0.6056 -0.9464 -0.4775
 1354poe     o2 7598   5.331   5.120   4.156  0.6044  0.1409 -0.3335
 1354poe    c23 7599   5.442   5.049   4.204  0.3847  0.0431  0.0318
 1354poe    c23 7600   5.451   5.045   4.358 -0.1020  0.7734  0.0843
 1354poe     o2 7601   5.324   5.006   4.407 -0.1671  0.0366 -0.6530
 1354poe    c23 7602   5.318   5.048   4.541  0.5227  0.2350 -0.6810
 1354poe    c23 7603   5.295   5.199   4.558  0.2804  0.0930  0.3418
 1354poe     o2 7604   5.194   5.228   4.464  0.8822 -0.1254 -0.3815
 1354poe    c23 7605   5.159   5.364   4.447  0.1814 -0.2635 -0.0588
 1354poe    c23 7606   5.046   5.364   4.342  0.0407  0.1990  0.0903
 1354poe     o2 7607   5.097   5.315   4.220 -0.1753 -0.0711  0.1060
 1354poe    c31 7608   5.024   5.377   4.116 -0.6299 -0.7073  0.0416
 1355poe    c31 7609   6.600   4.637   5.212 -0.6743  0.3907 -0.1769
 1355poe     o2 7610   6.634   4.745   5.295  0.6931  0.3973 -0.7166
 1355poe    c23 7611   6.509   4.807   5.318  0.4381 -0.7565  1.2492
 1355poe    c23 7612   6.525   4.880   5.453 -0.5538  0.0551  0.9347
 1355poe     o2 7613   6.609   4.992   5.446  0.2376 -0.5793  0.0208
 1355poe    c23 7614   6.665   5.042   5.566 -0.8176  0.4435  0.1044
 1355poe    c23 7615   6.733   5.177   5.539 -0.5612  0.3105  0.0896
 1355poe     o2 7616   6.828   5.171   5.434 -0.2843  0.4137  0.3331
 1355poe    c23 7617   6.880   5.297   5.400  0.4139  0.0420  0.0036
 1355poe    c23 7618   6.957   5.290   5.267  0.4342 -0.1022  0.0232
 1355poe     o2 7619   6.901   5.181   5.198  0.2934  0.1237 -0.2232
 1355poe    c31 7620   6.974   5.142   5.084  1.0988  0.3571  0.2077
 1356poe    c31 7621   5.898   1.940   6.468 -0.2743 -0.5812  0.2408
 1356poe     o2 7622   5.986   1.942   6.358 -0.5243 -0.4278  0.0401
 1356poe    c23 7623   6.112   2.002   6.381 -0.3159 -0.9165  0.1818
 1356poe    c23 7624   6.214   1.941   6.283 -0.1501 -0.3222 -0.0175
 1356poe     o2 7625   6.138   1.950   6.164  0.0790 -0.3025 -0.1639
 1356poe    c23 7626   6.205   1.884   6.059  0.1917  0.9004 -0.8671
 1356poe    c23 7627   6.118   1.883   5.932 -0.3574  0.0131 -0.4975
 1356poe     o2 7628   5.991   1.826   5.956 -0.1842 -0.1277  0.0924
 1356poe    c23 7629   5.916   1.770   5.851  0.1160  0.0289 -0.2078
 1356poe    c23 7630   5.817   1.658   5.890  0.3857  0.3080  1.3213
 1356poe     o2 7631   5.721   1.687   5.988 -0.8758  0.0922  0.1740
 1356poe    c31 7632   5.622   1.586   5.991 -0.2309 -0.5562 -0.1616
 1357poe    c31 7633   0.433   3.050   1.008 -0.4233  0.3436 -0.0283
 1357poe     o2 7634   0.440   3.023   0.870  0.3698 -0.5826  0.1803
 1357poe    c23 7635   0.396   2.895   0.829  0.5096 -0.4714 -0.3254
 1357poe    c23 7636   0.414   2.883   0.677 -0.0407 -0.1014 -0.4250
 1357poe     o2 7637   0.540   2.936   0.639 -0.2580  0.3468 -0.5264
 1357poe    c23 7638   0.582   2.884   0.516  0.7985  0.0932 -0.0664
 1357poe    c23 7639   0.695   2.978   0.470  0.5619 -0.0801 -1.0294
 1357poe     o2 7640   0.812   2.971   0.548  0.5666 -0.9657 -1.1020
 1357poe    c23 7641   0.923   3.053   0.519  0.8682 -0.9156  0.1049
 1357poe    c23 7642   1.004   3.112   0.635  0.3037  0.0258  0.0316
 1357poe     o2 7643   0.937   3.164   0.749  0.4681  0.2608  0.0228
 1357poe    c31 7644   1.009   3.215   0.858  0.3892 -0.3767  0.3771
 1358poe    c31 7645   6.156   2.535   3.866 -0.2146  0.2844  0.8615
 1358poe     o2 7646   6.032   2.468   3.876 -0.0486 -0.2865 -0.6149
 1358poe    c23 7647   6.047   2.333   3.839  0.0289 -0.4963  0.1718
 1358poe    c23 7648   5.907   2.274   3.811  0.0002 -0.4443  0.2021
 1358poe     o2 7649   5.829   2.250   3.926 -0.0347  0.3446  0.3433
 1358poe    c23 7650   5.690   2.233   3.913 -0.0189  0.2946  0.2337
 1358poe    c23 7651   5.635   2.168   4.042 -0.4257 -0.2811 -0.2276
 1358poe     o2 7652   5.690   2.231   4.155 -0.1860 -0.3680 -0.2937
 1358poe    c23 7653   5.657   2.161   4.274 -0.3364  0.3771  0.1133
 1358poe    c23 7654   5.722   2.228   4.396  0.0273 -0.5099  0.4150
 1358poe     o2 7655   5.853   2.247   4.348 -0.3488  0.3556 -0.2990
 1358poe    c31 7656   5.924   2.318   4.447  0.3404 -0.7495  0.0186
 1359poe    c31 7657   2.315   6.825   1.487 -0.2423  0.0973  0.8926
 1359poe     o2 7658   2.272   6.901   1.377  0.0214 -0.6535  0.2613
 1359poe    c23 7659   2.137   6.942   1.390  0.2857  0.2653  0.2179
 1359poe    c23 7660   2.109   7.060   1.296 -0.0125 -0.0604 -0.1052
 1359poe     o2 7661   2.138   7.035   1.160  0.4595  0.2685 -0.0653
 1359poe    c23 7662   2.094   7.139   1.076 -0.2200 -0.2123 -0.3112
 1359poe    c23 7663   2.147   7.135   0.932 -0.3811  1.0540 -0.4215
 1359poe     o2 7664   2.287   7.112   0.934 -0.5139  0.1991 -0.4399
 1359poe    c23 7665   2.331   7.097   0.802 -0.0691 -0.8996 -0.1713
 1359poe    c23 7666   2.443   6.992   0.787  0.6065 -0.1918 -0.1321
 1359poe     o2 7667   2.395   6.872   0.844  0.4414 -0.2126 -0.3142
 1359poe    c31 7668   2.446   6.757   0.781 -0.0954 -0.1002 -0.9636
 1360poe    c31 7669   2.859   5.746   0.345  0.0960 -0.1239  0.5900
 1360poe     o2 7670   2.746   5.746   0.262  0.2055 -0.3666  0.4408
 1360poe    c23 7671   2.680   5.621   0.259 -0.3016 -0.1002  0.4440
 1360poe    c23 7672   2.573   5.615   0.149  0.5262  0.0056 -0.3785
 1360poe     o2 7673   2.505   5.738   0.149  0.4050 -0.0574  0.2349
 1360poe    c23 7674   2.384   5.731   0.075  0.2485  0.0974  0.4745
 1360poe    c23 7675   2.313   5.867   0.073  0.1388  0.0381  0.3353
 1360poe     o2 7676   2.403   5.966   0.027  0.7104 -0.4632  0.3652
 1360poe    c23 7677   2.343   6.073  -0.042  0.8716 -0.4606  0.2259
 1360poe    c23 7678   2.424   6.202  -0.022  0.2585 -0.0580  0.1424
 1360poe     o2 7679   2.552   6.189  -0.079  0.0924  0.0894 -0.2670
 1360poe    c31 7680   2.625   6.309  -0.091  0.3994 -0.0746 -0.0507
 1361poe    c31 7681   4.419   1.290   1.789  0.1762  0.0087  0.1453
 1361poe     o2 7682   4.284   1.276   1.828  0.0782 -0.4551 -0.3466
 1361poe    c23 7683   4.242   1.374   1.921 -0.1372 -0.4300 -0.4679
 1361poe    c23 7684   4.099   1.336   1.962 -0.1495 -0.0533 -0.1590
 1361poe     o2 7685   4.024   1.328   1.842 -0.1519  0.4068 -0.1922
 1361poe    c23 7686   3.893   1.278   1.857  0.2671 -0.5945  0.2861
 1361poe    c23 7687   3.848   1.207   1.728 -0.3270  0.0337  0.1424
 1361poe     o2 7688   3.958   1.140   1.672 -0.2254  0.1348  0.2210
 1361poe    c23 7689   3.944   1.105   1.536 -0.2343 -0.2956  0.3302
 1361poe    c23 7690   4.086   1.089   1.479  0.1196  0.5751  0.9537
 1361poe     o2 7691   4.163   1.203   1.513  0.3489  0.5981  0.3598
 1361poe    c31 7692   4.292   1.190   1.458  0.2617 -0.5733  0.4051
 1362poe    c31 7693   5.292   6.238   6.212  0.2550 -0.0160  0.0946
 1362poe     o2 7694   5.253   6.117   6.272  0.0272 -0.0144 -0.0515
 1362poe    c23 7695   5.303   6.115   6.403  0.1538  0.0298 -0.0989
 1362poe    c23 7696   5.271   5.982   6.473  0.0598  0.1085  0.0102
 1362poe     o2 7697   5.293   5.878   6.380 -1.0757 -0.1843  0.0591
 1362poe    c23 7698   5.281   5.747   6.431 -0.2592 -0.3466 -0.1580
 1362poe    c23 7699   5.266   5.660   6.305 -0.9011  0.2386 -0.4883
 1362poe     o2 7700   5.343   5.696   6.192 -0.3772  0.3286 -0.1021
 1362poe    c23 7701   5.306   5.616   6.083 -0.1363  0.4049 -0.2419
 1362poe    c23 7702   5.431   5.591   5.997 -0.2510  0.4023 -0.4084
 1362poe     o2 7703   5.476   5.716   5.949  0.3068  0.4220  0.1468
 1362poe    c31 7704   5.559   5.681   5.840  0.1804  0.0951  0.1546
 1363poe    c31 7705   2.732   1.476   4.104  0.0461  0.9166 -0.5029
 1363poe     o2 7706   2.773   1.444   3.973  0.1354 -0.3140 -0.1908
 1363poe    c23 7707   2.685   1.504   3.880  0.4253  0.5695  0.0967
 1363poe    c23 7708   2.731   1.505   3.733  0.1639  0.3374  0.0126
 1363poe     o2 7709   2.853   1.565   3.695  0.1450  0.4030  0.0542
 1363poe    c23 7710   2.867   1.555   3.555  0.4548 -0.2970  0.1319
 1363poe    c23 7711   2.925   1.415   3.526 -0.1423 -0.5440  0.0950
 1363poe     o2 7712   3.048   1.416   3.595  0.1247 -0.2186 -0.3797
 1363poe    c23 7713   3.105   1.291   3.561 -0.0865 -0.3417 -0.2796
 1363poe    c23 7714   3.246   1.289   3.623 -0.2258 -0.3679  0.0384
 1363poe     o2 7715   3.248   1.356   3.747 -0.1088  0.1371 -0.2342
 1363poe    c31 7716   3.375   1.344   3.808 -0.2036  0.2688 -0.0079
 1364poe    c31 7717   6.245   5.521   6.650  0.3223  0.2183 -0.2707
 1364poe     o2 7718   6.306   5.466   6.535  0.2778 -0.0814 -0.1513
 1364poe    c23 7719   6.370   5.342   6.553  0.3102 -0.0504 -0.0542
 1364poe    c23 7720   6.267   5.228   6.555 -0.1836  0.4014  0.4366
 1364poe     o2 7721   6.202   5.205   6.432 -0.6504  0.6217  0.6387
 1364poe    c23 7722   6.106   5.103   6.448 -0.2758  0.2821  0.7254
 1364poe    c23 7723   6.009   5.132   6.332 -0.4610 -0.8330  0.5873
 1364poe     o2 7724   6.049   5.074   6.210 -0.0471  0.4617  0.0930
 1364poe    c23 7725   5.951   5.092   6.111 -0.3201  0.0226  0.2823
 1364poe    c23 7726   5.996   5.043   5.973  0.0616 -0.0265  0.4226
 1364poe     o2 7727   6.123   5.105   5.966 -0.2691  0.6603  0.3911
 1364poe    c31 7728   6.157   5.134   5.832 -0.1669  0.3544  0.3498
 1365poe    c31 7729   2.866   0.722   4.402 -0.2357  0.3641 -1.0082
 1365poe     o2 7730   2.767   0.643   4.465  0.2047 -0.0991 -0.8866
 1365poe    c23 7731   2.649   0.633   4.389  0.0837  0.1579 -0.7367
 1365poe    c23 7732   2.635   0.538   4.268 -0.9090  0.1565 -0.6239
 1365poe     o2 7733   2.626   0.402   4.303  0.7311  0.0643 -0.5133
 1365poe    c23 7734   2.682   0.323   4.200  0.9860  0.1593 -0.4478
 1365poe    c23 7735   2.763   0.203   4.252  0.1821 -0.3206 -0.2911
 1365poe     o2 7736   2.871   0.237   4.336 -0.1475 -0.5589  0.2304
 1365poe    c23 7737   2.980   0.290   4.264  0.1929 -1.0709  0.3625
 1365poe    c23 7738   3.108   0.233   4.327  0.9363 -0.0048 -0.1518
 1365poe     o2 7739   3.092   0.241   4.467 -0.5240  0.0119 -0.3033
 1365poe    c31 7740   3.220   0.230   4.526 -1.1420 -0.6641  0.9466
 1366poe    c31 7741   0.293   3.804   3.311 -0.2201 -0.3455 -0.2784
 1366poe     o2 7742   0.423   3.825   3.262 -0.1340  0.0851  0.1200
 1366poe    c23 7743   0.450   3.750   3.145  0.2181  0.4596 -0.0418
 1366poe    c23 7744   0.574   3.664   3.172 -0.2148  0.0142  0.5524
 1366poe     o2 7745   0.692   3.736   3.204 -0.0337  0.0835 -0.2614
 1366poe    c23 7746   0.805   3.652   3.198 -0.1119 -0.1110  0.8022
 1366poe    c23 7747   0.930   3.728   3.246  0.1342  0.0702 -0.1149
 1366poe     o2 7748   0.900   3.767   3.378 -0.3609 -0.1317 -0.1651
 1366poe    c23 7749   1.000   3.819   3.462 -0.2358 -0.7064  0.0452
 1366poe    c23 7750   0.950   3.868   3.600 -0.3889 -0.5070 -0.0803
 1366poe     o2 7751   0.820   3.908   3.563 -0.4644 -0.2989  0.4146
 1366poe    c31 7752   0.768   3.984   3.670  0.4171  0.5170  0.2785
 1367poe    c31 7753   4.889   4.051   2.178  0.0538 -0.8898  0.9226
 1367poe     o2 7754   4.942   4.132   2.280 -0.1153 -0.0583  0.3621
 1367poe    c23 7755   4.967   4.259   2.226 -0.6261 -0.0830  0.0621
 1367poe    c23 7756   5.025   4.369   2.318 -0.0424 -0.0100 -0.3873
 1367poe     o2 7757   5.121   4.314   2.405 -0.6008  0.5179  0.5783
 1367poe    c23 7758   5.172   4.413   2.492  0.6073  0.2236  0.2269
 1367poe    c23 7759   5.258   4.353   2.605  0.6795  0.9016  0.5323
 1367poe     o2 7760   5.186   4.298   2.712  0.4293  0.1952  0.0071
 1367poe    c23 7761   5.275   4.274   2.818 -0.1745  0.2595  0.5396
 1367poe    c23 7762   5.225   4.221   2.954  0.0219  0.1057  0.5535
 1367poe     o2 7763   5.205   4.083   2.934 -0.7414  0.2959 -0.0626
 1367poe    c31 7764   5.158   4.028   3.055  1.0277  0.1051  0.5703
 1368poe    c31 7765   5.731   1.622   1.569 -0.6410 -0.0865 -1.0316
 1368poe     o2 7766   5.623   1.574   1.647  0.2089 -0.4132 -0.0262
 1368poe    c23 7767   5.558   1.459   1.599 -0.2356  0.1887 -0.9110
 1368poe    c23 7768   5.423   1.444   1.673 -0.0106  0.0130 -0.5321
 1368poe     o2 7769   5.414   1.431   1.813  0.0126  0.0715 -0.5248
 1368poe    c23 7770   5.278   1.411   1.843  0.2776 -0.4105  0.3844
 1368poe    c23 7771   5.249   1.448   1.990  0.1538 -0.4071  0.3593
 1368poe     o2 7772   5.323   1.564   2.021 -0.0195  0.0079 -0.7465
 1368poe    c23 7773   5.321   1.603   2.156  0.0058  0.3066 -0.8301
 1368poe    c23 7774   5.425   1.712   2.187  0.0589  0.0538 -0.1058
 1368poe     o2 7775   5.544   1.687   2.115 -0.0804  0.4502 -0.4719
 1368poe    c31 7776   5.649   1.776   2.147  0.3156 -0.1475 -0.1081
 1369poe    c31 7777   2.852   1.739   6.656  0.1911 -0.7511 -0.0697
 1369poe     o2 7778   2.942   1.834   6.604 -0.4235 -0.0580  0.1073
 1369poe    c23 7779   2.994   1.801   6.477 -0.5433 -0.7970  0.2446
 1369poe    c23 7780   3.057   1.932   6.426  0.0492 -1.0166  0.4028
 1369poe     o2 7781   3.131   1.998   6.526 -0.0493 -0.5258  0.1577
 1369poe    c23 7782   3.224   2.083   6.462  0.4077 -0.8157  0.4299
 1369poe    c23 7783   3.268   2.199   6.553 -0.1112 -0.1434 -0.1701
 1369poe     o2 7784   3.175   2.302   6.524  0.0402 -0.1398 -0.6480
 1369poe    c23 7785   3.213   2.422   6.587 -0.1206 -0.1753 -0.4816
 1369poe    c23 7786   3.098   2.525   6.592  0.1962  0.1699 -0.3102
 1369poe     o2 7787   3.015   2.460   6.686  0.2135 -0.2269 -0.5704
 1369poe    c31 7788   2.929   2.541   6.762  0.3742 -0.6900  0.1213
 1370poe    c31 7789   6.488   0.399   4.860  0.6652 -0.1023 -0.2912
 1370poe     o2 7790   6.629   0.411   4.863  0.6959 -0.4770 -0.1693
 1370poe    c23 7791   6.675   0.543   4.847  0.2802 -0.2924  0.1373
 1370poe    c23 7792   6.810   0.564   4.919  0.2058 -0.4253  0.3152
 1370poe     o2 7793   6.876   0.443   4.888  0.0372 -0.5387  0.3918
 1370poe    c23 7794   7.005   0.434   4.946  0.1864  0.0160  0.1578
 1370poe    c23 7795   7.095   0.350   4.853 -0.1067 -0.0905 -0.0321
 1370poe     o2 7796   7.062   0.213   4.856 -0.1593 -0.0818 -0.2088
 1370poe    c23 7797   7.138   0.121   4.780  0.0650  0.0901 -0.1913
 1370poe    c23 7798   7.044   0.007   4.739  0.3263  0.0796 -0.7724
 1370poe     o2 7799   6.938   0.041   4.652 -1.1941 -0.5039  0.7875
 1370poe    c31 7800   6.924  -0.061   4.557  0.4548 -0.3945  0.4038
 1371poe    c31 7801   2.277   5.901   4.171 -0.7672 -0.1979  0.3752
 1371poe     o2 7802   2.203   5.817   4.258 -0.4372 -0.2758  0.5834
 1371poe    c23 7803   2.251   5.800   4.389  0.2070  0.5974  0.4717
 1371poe    c23 7804   2.139   5.767   4.489  0.0259 -0.2472 -0.0026
 1371poe     o2 7805   2.066   5.649   4.460 -0.0679 -0.1031 -0.3584
 1371poe    c23 7806   1.945   5.646   4.533  0.3058  0.2020  0.2819
 1371poe    c23 7807   1.866   5.515   4.515  0.0154  0.3953  0.1538
 1371poe     o2 7808   1.862   5.496   4.375  0.0515 -0.2467  0.2389
 1371poe    c23 7809   1.800   5.376   4.335  0.1285 -0.2681  0.1852
 1371poe    c23 7810   1.772   5.353   4.185  0.2505  0.0024  0.1215
 1371poe     o2 7811   1.896   5.331   4.120  0.4259  0.0683  0.4303
 1371poe    c31 7812   1.869   5.306   3.984 -0.5804 -0.4599  0.7094
 1372poe    c31 7813   6.423   4.169   2.669 -0.6255 -0.4463 -0.2235
 1372poe     o2 7814   6.370   4.298   2.652  0.3617  0.0157  0.1597
 1372poe    c23 7815   6.331   4.345   2.779 -0.2145  0.1337 -0.0583
 1372poe    c23 7816   6.238   4.465   2.754 -0.7008 -0.2560 -0.1323
 1372poe     o2 7817   6.287   4.596   2.733  0.0588 -0.6185 -0.6538
 1372poe    c23 7818   6.197   4.705   2.737  0.6708 -0.1118 -0.6926
 1372poe    c23 7819   6.225   4.827   2.827  0.2077 -0.3328 -0.2464
 1372poe     o2 7820   6.306   4.923   2.763  0.1704 -0.1755 -0.0607
 1372poe    c23 7821   6.419   4.960   2.838 -0.3065  0.2543  0.4530
 1372poe    c23 7822   6.455   5.100   2.787 -0.0629 -0.0009 -0.0793
 1372poe     o2 7823   6.436   5.118   2.648 -0.6246  0.1699  0.0186
 1372poe    c31 7824   6.498   5.235   2.599 -0.3887 -0.0978 -0.3194
 1373poe    c31 7825   1.498   5.848   3.481  0.0575 -0.6306  0.0519
 1373poe     o2 7826   1.624   5.863   3.419  0.0891  0.5496  0.3641
 1373poe    c23 7827   1.627   5.808   3.289 -0.2863  0.4199  0.4074
 1373poe    c23 7828   1.753   5.841   3.206 -0.2902 -0.0323  0.2141
 1373poe     o2 7829   1.764   5.981   3.190  0.6511 -0.0599  0.5609
 1373poe    c23 7830   1.872   6.011   3.105  0.2866  0.5309  0.2996
 1373poe    c23 7831   1.946   6.146   3.120  0.1529  0.5772  0.5471
 1373poe     o2 7832   1.869   6.263   3.105 -0.0576  0.3830  0.1007
 1373poe    c23 7833   1.921   6.378   3.168  0.5731  0.1943 -0.0712
 1373poe    c23 7834   1.809   6.480   3.194 -0.0273 -0.4289 -0.1816
 1373poe     o2 7835   1.716   6.436   3.290  0.5101 -0.2168  0.4473
 1373poe    c31 7836   1.684   6.539   3.380  0.0277  0.0631 -0.0334
 1374poe    c31 7837   1.297   6.694   4.183  0.3244 -0.0273 -0.1153
 1374poe     o2 7838   1.373   6.812   4.204  0.3005 -0.0557  0.1327
 1374poe    c23 7839   1.492   6.797   4.130 -0.0482 -0.1232 -0.4199
 1374poe    c23 7840   1.602   6.902   4.150  0.0908 -0.3110 -0.1904
 1374poe     o2 7841   1.551   7.033   4.147  0.4112 -0.1907 -0.5191
 1374poe    c23 7842   1.649   7.130   4.176  0.0538 -0.1555  0.5954
 1374poe    c23 7843   1.592   7.270   4.205 -0.6088 -0.1894 -0.5075
 1374poe     o2 7844   1.504   7.267   4.316  0.2394  0.5486  0.2010
 1374poe    c23 7845   1.421   7.380   4.327 -0.0358  0.4487 -0.7460
 1374poe    c23 7846   1.328   7.367   4.449 -0.0995  0.3385 -0.8069
 1374poe     o2 7847   1.215   7.287   4.422 -0.4088  0.5584 -0.1803
 1374poe    c31 7848   1.102   7.329   4.494  0.1250  0.2535  0.8488
 1375poe    c31 7849   2.202   2.194   5.438  0.0573  0.3847  0.5886
 1375poe     o2 7850   2.320   2.208   5.514  0.1303  0.1863  0.5139
 1375poe    c23 7851   2.364   2.341   5.529  0.3964  0.0300  1.1434
 1375poe    c23 7852   2.515   2.368   5.548  0.5274 -0.0743  0.2868
 1375poe     o2 7853   2.590   2.292   5.456 -0.0635  0.2220 -0.4524
 1375poe    c23 7854   2.727   2.279   5.486 -0.2745 -0.3048  0.3010
 1375poe    c23 7855   2.787   2.161   5.407 -0.0377 -0.1569  0.2581
 1375poe     o2 7856   2.771   2.194   5.271  0.1422  0.3435  0.3564
 1375poe    c23 7857   2.820   2.105   5.174 -0.8103  0.0653  0.1211
 1375poe    c23 7858   2.809   2.184   5.042  0.1989  0.2610  0.1450
 1375poe     o2 7859   2.684   2.250   5.050  0.0006 -0.1778  0.7246
 1375poe    c31 7860   2.641   2.299   4.925  0.2824 -1.0636  0.2686
 1376poe    c31 7861   5.505   6.007   0.400 -0.3308 -0.0237 -0.3213
 1376poe     o2 7862   5.576   6.002   0.522 -0.3685  0.0146 -0.2973
 1376poe    c23 7863   5.683   6.094   0.518 -0.3164 -0.0202  0.2106
 1376poe    c23 7864   5.786   6.076   0.631  0.0232 -0.4012 -0.1572
 1376poe     o2 7865   5.728   6.102   0.756  0.0638 -0.4012 -0.1383
 1376poe    c23 7866   5.781   6.041   0.872 -0.0435 -0.1167  0.0610
 1376poe    c23 7867   5.758   6.132   0.994 -0.0369  0.0145 -0.0350
 1376poe     o2 7868   5.623   6.170   0.977 -0.0884  0.0517  0.4428
 1376poe    c23 7869   5.562   6.239   1.084 -0.3872  0.2037  0.1749
 1376poe    c23 7870   5.414   6.266   1.050 -0.3545 -0.1369 -0.2484
 1376poe     o2 7871   5.401   6.291   0.912 -0.2960  0.1830 -0.1982
 1376poe    c31 7872   5.281   6.362   0.893 -0.8653 -0.5712  0.4931
 1377poe    c31 7873   0.696   2.764   5.735 -0.3007 -1.3137  0.0833
 1377poe     o2 7874   0.595   2.791   5.641 -0.1134 -0.5517  0.0903
 1377poe    c23 7875   0.638   2.728   5.522 -0.1913 -0.3881 -0.0259
 1377poe    c23 7876   0.561   2.779   5.400  0.4648  0.9347  0.1010
 1377poe     o2 7877   0.431   2.821   5.433  0.1269 -0.1980  0.2314
 1377poe    c23 7878   0.389   2.898   5.322  0.2223 -1.0993 -0.4387
 1377poe    c23 7879   0.235   2.902   5.331  0.2935 -0.0933  0.4769
 1377poe     o2 7880   0.194   2.767   5.325  0.3309 -0.0967  0.2844
 1377poe    c23 7881   0.062   2.771   5.375  0.1783 -0.4310 -0.0872
 1377poe    c23 7882  -0.006   2.634   5.361 -1.1537  0.2518 -0.5023
 1377poe     o2 7883   0.054   2.584   5.243 -0.4768 -0.7627  0.2493
 1377poe    c31 7884  -0.020   2.484   5.176 -1.1948 -0.1462  0.1127
 1378poe    c31 7885   2.475   2.200   4.643  0.8767  0.2522  0.1294
 1378poe     o2 7886   2.386   2.255   4.548 -0.3909 -1.2627  0.3969
 1378poe    c23 7887   2.446   2.271   4.421 -0.1362  1.3382  0.7918
 1378poe    c23 7888   2.337   2.303   4.317 -0.2808 -0.4366  0.3664
 1378poe     o2 7889   2.244   2.401   4.358 -0.5154 -0.3180 -0.4349
 1378poe    c23 7890   2.161   2.449   4.254 -0.3383  0.1682 -0.3495
 1378poe    c23 7891   2.080   2.572   4.301 -0.0343  0.1479  0.2456
 1378poe     o2 7892   1.998   2.531   4.408  0.0397 -0.0314  0.2345
 1378poe    c23 7893   1.908   2.633   4.443  0.7925  0.5429  0.5303
 1378poe    c23 7894   1.852   2.580   4.576  0.5084 -0.6422 -0.0502
 1378poe     o2 7895   1.953   2.565   4.674  0.2119 -0.0275  0.3573
 1378poe    c31 7896   1.894   2.472   4.762  0.1599 -0.1292  0.2149
 1379poe    c31 7897   1.117   1.104   0.954  0.2108 -0.0580  0.0510
 1379poe     o2 7898   0.992   1.114   1.019  0.1623  0.3808 -0.1045
 1379poe    c23 7899   1.001   1.131   1.159 -0.3801 -0.5228  0.0531
 1379poe    c23 7900   0.859   1.130   1.218 -0.3847  0.4588  0.0879
 1379poe     o2 7901   0.799   1.003   1.229 -0.5178  0.5026 -0.1314
 1379poe    c23 7902   0.665   1.016   1.273 -0.2236  0.6087  0.7481
 1379poe    c23 7903   0.635   0.891   1.357  0.0371 -0.4770 -0.7248
 1379poe     o2 7904   0.688   0.786   1.280  0.3505 -0.2229 -0.8552
 1379poe    c23 7905   0.662   0.668   1.353 -0.1226  0.2178 -0.3038
 1379poe    c23 7906   0.708   0.541   1.279  0.1179  0.0496  0.1330
 1379poe     o2 7907   0.843   0.536   1.237 -0.0003 -0.0034 -0.2454
 1379poe    c31 7908   0.880   0.421   1.164 -0.6950 -0.2816 -0.1671
 1380poe    c31 7909   3.901   5.177   2.568 -0.4282  0.0679  0.0153
 1380poe     o2 7910   3.825   5.249   2.474 -0.4837 -0.2498 -0.1855
 1380poe    c23 7911   3.718   5.310   2.542 -0.4824 -0.0009 -0.4065
 1380poe    c23 7912   3.599   5.326   2.445 -0.2218 -0.3789 -0.7905
 1380poe     o2 7913   3.540   5.203   2.410 -0.2021 -0.8443  0.7491
 1380poe    c23 7914   3.431   5.230   2.324  1.1365 -0.3492 -0.8392
 1380poe    c23 7915   3.369   5.096   2.281 -0.2115  0.1225 -0.4204
 1380poe     o2 7916   3.468   5.030   2.204 -0.0855  0.0276 -0.1804
 1380poe    c23 7917   3.408   4.952   2.104 -0.2238 -0.0574 -0.0318
 1380poe    c23 7918   3.498   4.828   2.091 -0.2264 -0.0891  0.2540
 1380poe     o2 7919   3.624   4.868   2.139 -0.1555 -0.0429  0.0283
 1380poe    c31 7920   3.712   4.774   2.082 -0.0805 -0.0239  0.1120
 1381poe    c31 7921   3.594   6.459   0.776 -0.0866  0.1696 -0.4945
 1381poe     o2 7922   3.495   6.360   0.761  0.2471 -0.2183 -0.1481
 1381poe    c23 7923   3.415   6.332   0.873  0.4148  0.0900  0.0489
 1381poe    c23 7924   3.343   6.433   0.964  0.3084 -0.0500  0.1219
 1381poe     o2 7925   3.406   6.530   1.046 -0.3248  0.3416  0.1530
 1381poe    c23 7926   3.306   6.612   1.101 -0.2495  0.5638 -0.0379
 1381poe    c23 7927   3.365   6.731   1.180  0.0606  0.3827  0.0041
 1381poe     o2 7928   3.437   6.690   1.295  0.1940 -0.5999 -0.4148
 1381poe    c23 7929   3.476   6.805   1.366 -0.3025 -0.4633 -0.3555
 1381poe    c23 7930   3.574   6.773   1.481  0.0280  0.1673 -0.4539
 1381poe     o2 7931   3.517   6.691   1.581  0.1456 -0.2551 -0.7278
 1381poe    c31 7932   3.605   6.659   1.687 -0.4524 -0.5462 -0.3163
 1382poe    c31 7933   6.318   1.631   6.532 -0.1395  0.1313  0.2045
 1382poe     o2 7934   6.259   1.550   6.631  0.2143 -0.2233  0.1244
 1382poe    c23 7935   6.199   1.437   6.572 -0.7431  0.3889 -0.0907
 1382poe    c23 7936   6.126   1.355   6.680 -0.4057 -0.1013 -0.2277
 1382poe     o2 7937   6.204   1.343   6.796 -0.4799  0.2959 -0.1357
 1382poe    c23 7938   6.130   1.291   6.904  0.4763 -0.4084  0.1961
 1382poe    c23 7939   6.218   1.301   7.030  0.0138  0.0037  0.4924
 1382poe     o2 7940   6.287   1.421   7.006 -0.1582 -0.0268 -0.1760
 1382poe    c23 7941   6.336   1.480   7.125 -0.1452 -0.6283  0.1249
 1382poe    c23 7942   6.230   1.553   7.210  0.2465 -0.1344  0.1997
 1382poe     o2 7943   6.176   1.668   7.149 -0.2490 -0.2844  0.3483
 1382poe    c31 7944   6.083   1.718   7.243 -0.7563 -0.5880  0.0136
 1383poe    c31 7945   2.793   6.612   4.232  0.2597  0.3021  0.2083
 1383poe     o2 7946   2.898   6.646   4.145  0.2647 -0.1509  0.0328
 1383poe    c23 7947   2.931   6.783   4.146  0.2453 -0.1446 -0.1457
 1383poe    c23 7948   2.943   6.841   4.004 -0.1178 -0.1219 -0.1679
 1383poe     o2 7949   3.039   6.792   3.913  0.6041  0.1698  0.4271
 1383poe    c23 7950   3.154   6.872   3.892  0.3732  0.4045  0.0381
 1383poe    c23 7951   3.250   6.781   3.812  0.3125  0.2387  0.1530
 1383poe     o2 7952   3.171   6.714   3.717  0.8891 -0.8918  0.4573
 1383poe    c23 7953   3.246   6.628   3.634  0.4661 -0.5125 -0.3273
 1383poe    c23 7954   3.150   6.562   3.533  0.4643 -0.4767 -0.3488
 1383poe     o2 7955   3.039   6.540   3.618  0.6749 -0.1098  0.0238
 1383poe    c31 7956   2.986   6.417   3.575  0.3472  0.2040 -0.4815
 1384poe    c31 7957   5.296   3.379   5.372 -0.4322 -0.9377  0.0535
 1384poe     o2 7958   5.425   3.407   5.421 -0.2869  0.0326 -0.8531
 1384poe    c23 7959   5.470   3.519   5.348  0.6697  0.5143  0.4488
 1384poe    c23 7960   5.621   3.512   5.320  0.5416 -0.0311 -0.1215
 1384poe     o2 7961   5.692   3.529   5.440 -0.1022 -0.7313  0.3705
 1384poe    c23 7962   5.816   3.463   5.426  0.2987  0.2066 -0.7221
 1384poe    c23 7963   5.876   3.455   5.568  0.1590 -0.0287 -0.6761
 1384poe     o2 7964   5.785   3.404   5.663  0.4264 -0.0600 -0.4351
 1384poe    c23 7965   5.856   3.363   5.778 -0.1943 -0.0816 -0.0542
 1384poe    c23 7966   5.749   3.310   5.875  0.2967 -0.5519  0.2350
 1384poe     o2 7967   5.689   3.196   5.819  0.5741 -0.5393 -0.0912
 1384poe    c31 7968   5.764   3.084   5.857  0.1261 -0.6491  0.4942
 1385poe    c31 7969   1.288   1.966   6.673  0.0054 -0.8763 -0.5501
 1385poe     o2 7970   1.311   2.023   6.546  0.0849  0.5928  0.1065
 1385poe    c23 7971   1.196   1.997   6.469  0.5531 -0.0659 -0.3803
 1385poe    c23 7972   1.240   2.031   6.326 -0.0279 -0.0876 -0.5642
 1385poe     o2 7973   1.271   2.168   6.317  0.5432 -0.1958 -0.2361
 1385poe    c23 7974   1.259   2.210   6.183  0.2254 -0.3264 -0.2469
 1385poe    c23 7975   1.287   2.361   6.172 -0.2639 -0.1869  0.3771
 1385poe     o2 7976   1.409   2.392   6.234 -0.2461  0.4991  0.0092
 1385poe    c23 7977   1.488   2.500   6.188 -0.3235  0.5570  0.0116
 1385poe    c23 7978   1.544   2.585   6.303  0.0341 -0.0541  0.2966
 1385poe     o2 7979   1.601   2.492   6.392  0.6157 -0.1574 -0.1784
 1385poe    c31 7980   1.670   2.557   6.497  0.7601  0.1860 -0.4858
 1386poe    c31 7981   0.079   4.100   0.798 -0.5802  0.1137  0.2625
 1386poe     o2 7982   0.083   4.064   0.935  0.0675 -0.4186  0.1102
 1386poe    c23 7983   0.129   4.170   1.016 -0.2837  0.1433 -0.4123
 1386poe    c23 7984   0.182   4.107   1.146 -0.6219  0.7057  0.0074
 1386poe     o2 7985   0.081   4.018   1.188 -0.2195  0.2604  0.0430
 1386poe    c23 7986   0.108   3.970   1.318 -0.3981  0.2284  0.0689
 1386poe    c23 7987   0.009   3.862   1.364 -0.1249  0.0172  0.1614
 1386poe     o2 7988   0.030   3.749   1.283 -0.0096 -0.0355  0.2637
 1386poe    c23 7989  -0.028   3.625   1.318 -0.0590  0.1090  0.6879
 1386poe    c23 7990   0.031   3.507   1.239  0.2889  0.5929  0.2133
 1386poe     o2 7991   0.017   3.523   1.100  0.0046 -0.8186  0.0583
 1386poe    c31 7992  -0.093   3.446   1.057 -0.0956 -0.2466 -0.7455
 1387poe    c31 7993   6.831   0.044   6.983 -0.1682  0.0106  0.1813
 1387poe     o2 7994   6.774   0.159   7.040 -0.4152  0.0216 -0.0824
 1387poe    c23 7995   6.834   0.204   7.160 -0.1335  0.3385 -0.3399
 1387poe    c23 7996   6.776   0.343   7.192  0.1566  0.4831 -0.4372
 1387poe     o2 7997   6.637   0.322   7.184  0.1697  0.1151  0.2567
 1387poe    c23 7998   6.572   0.416   7.267 -0.0599  0.1859 -0.0027
 1387poe    c23 7999   6.418   0.417   7.264 -0.0841 -0.0209  0.9873
 1387poe     o2 8000   6.382   0.477   7.142 -0.5456 -0.9300  0.6664
 1387poe    c23 8001   6.244   0.499   7.122 -0.2931  0.0156 -0.1303
 1387poe    c23 8002   6.211   0.504   6.972  0.5657  0.3694 -0.3160
 1387poe     o2 8003   6.243   0.391   6.893  0.0738  0.0279 -0.0406
 1387poe    c31 8004   6.168   0.383   6.774  0.1411 -0.2713 -0.0635
 1388poe    c31 8005   5.588   0.111   0.943 -0.4625  0.0778  0.1042
 1388poe     o2 8006   5.705   0.190   0.931 -0.4103 -0.0009  0.0984
 1388poe    c23 8007   5.813   0.134   1.002 -0.3007 -0.0844 -0.1350
 1388poe    c23 8008   5.931   0.231   0.984  0.1544 -0.6447 -0.2148
 1388poe     o2 8009   5.909   0.274   0.852 -0.2460 -0.4911 -0.0970
 1388poe    c23 8010   6.015   0.358   0.812  0.2600 -0.6806  0.8249
 1388poe    c23 8011   6.019   0.380   0.660  0.1182  0.2351  0.9498
 1388poe     o2 8012   5.890   0.418   0.618  0.3481 -0.0116  0.0017
 1388poe    c23 8013   5.882   0.440   0.479 -0.4547 -0.0142  0.0390
 1388poe    c23 8014   5.742   0.483   0.433 -0.1374  0.1834 -0.7712
 1388poe     o2 8015   5.715   0.608   0.493  0.3225 -0.2837  0.4359
 1388poe    c31 8016   5.769   0.729   0.445 -0.0904 -0.4063 -0.3603
 1389poe    c31 8017   4.168   5.443   5.810  0.7137 -0.2812 -0.3074
 1389poe     o2 8018   4.177   5.313   5.758 -0.6594 -0.4172 -0.2153
 1389poe    c23 8019   4.265   5.243   5.843  0.0554  0.1997 -0.4444
 1389poe    c23 8020   4.313   5.118   5.767  0.7114  0.2480 -0.1153
 1389poe     o2 8021   4.219   5.075   5.671  0.4453  0.3098  0.1163
 1389poe    c23 8022   4.260   4.947   5.630 -0.1363  0.0280  0.4068
 1389poe    c23 8023   4.177   4.920   5.504 -0.4619  0.2567  0.5703
 1389poe     o2 8024   4.195   5.015   5.402 -0.3093 -0.5173 -0.1386
 1389poe    c23 8025   4.135   4.970   5.282 -0.4714 -0.3499 -0.1202
 1389poe    c23 8026   4.124   5.083   5.178 -0.4130  0.1759  0.4378
 1389poe     o2 8027   4.059   5.203   5.213 -0.7703  0.1224 -0.0400
 1389poe    c31 8028   4.035   5.281   5.097  0.2495  0.5956  0.0600
 1390poe    c31 8029   6.269   0.454   3.915  0.2021 -0.4928 -0.8556
 1390poe     o2 8030   6.204   0.444   4.040  0.5406  0.4713 -0.5947
 1390poe    c23 8031   6.232   0.558   4.117  0.0403  0.3150 -0.1829
 1390poe    c23 8032   6.159   0.554   4.253  0.2392  0.5280 -0.0687
 1390poe     o2 8033   6.019   0.559   4.239  0.1321 -0.0575  0.6860
 1390poe    c23 8034   5.947   0.557   4.360 -0.3265 -0.2415  0.4141
 1390poe    c23 8035   5.800   0.593   4.333 -0.0903  0.4666  0.0507
 1390poe     o2 8036   5.768   0.529   4.212 -0.7190 -0.5029  0.7218
 1390poe    c23 8037   5.633   0.556   4.182 -0.3441  0.4071 -0.1983
 1390poe    c23 8038   5.611   0.519   4.035 -0.2385  0.5185 -0.2420
 1390poe     o2 8039   5.711   0.572   3.949  0.2651 -0.9178 -0.5716
 1390poe    c31 8040   5.659   0.597   3.821 -0.8631 -0.1143  0.0214
 1391poe    c31 8041   0.522   5.860   0.671  0.1459  1.1816 -0.2041
 1391poe     o2 8042   0.415   5.851   0.762  0.1912 -0.0107 -0.2572
 1391poe    c23 8043   0.465   5.847   0.894  0.2978 -0.3107 -0.3055
 1391poe    c23 8044   0.351   5.799   0.985  0.0301  0.6613 -0.1107
 1391poe     o2 8045   0.249   5.896   0.994 -0.3660  0.2850 -0.4905
 1391poe    c23 8046   0.261   5.965   1.116 -0.0260 -0.1784 -0.2604
 1391poe    c23 8047   0.218   6.109   1.083 -0.2303 -0.1905 -0.0473
 1391poe     o2 8048   0.094   6.070   1.027 -0.3490 -0.2770  0.2751
 1391poe    c23 8049   0.014   6.181   0.996  0.0910 -0.1309 -0.3670
 1391poe    c23 8050  -0.108   6.126   0.920 -0.2099 -0.2800  0.2153
 1391poe     o2 8051  -0.060   6.012   0.853 -0.1221 -0.4844  0.6203
 1391poe    c31 8052  -0.147   5.990   0.744  0.7844 -0.0754 -0.1962
 1392poe    c31 8053   0.181   2.275   2.281 -0.0146 -0.0968 -0.5548
 1392poe     o2 8054   0.115   2.151   2.300 -0.0962 -0.0004 -0.1853
 1392poe    c23 8055   0.211   2.069   2.363 -0.0136  0.0102 -0.2944
 1392poe    c23 8056   0.152   1.927   2.376  0.1988 -0.0964 -0.5032
 1392poe     o2 8057   0.051   1.907   2.472  0.5306  0.6458  0.0090
 1392poe    c23 8058   0.095   1.906   2.606  0.2022  0.5240  0.1152
 1392poe    c23 8059  -0.028   1.894   2.699  0.1298  0.5979  0.0283
 1392poe     o2 8060  -0.130   1.809   2.653  0.2431  0.2574  0.4019
 1392poe    c23 8061  -0.247   1.814   2.733  0.0442  0.3256  0.1074
 1392poe    c23 8062  -0.351   1.711   2.686  0.7889 -0.3690 -0.0430
 1392poe     o2 8063  -0.354   1.717   2.545  0.4065  0.3344 -0.0099
 1392poe    c31 8064  -0.419   1.604   2.490  0.1009  0.4556  0.1015
 1393poe    c31 8065   0.781   3.698   4.397  0.8472  0.0381 -0.0318
 1393poe     o2 8066   0.771   3.583   4.478 -0.2199  0.2777  0.1820
 1393poe    c23 8067   0.687   3.585   4.592  0.0202 -0.4022  0.3756
 1393poe    c23 8068   0.726   3.465   4.680 -0.0511 -0.3410  0.4923
 1393poe     o2 8069   0.671   3.343   4.635 -0.5061 -0.0285  0.2022
 1393poe    c23 8070   0.730   3.235   4.702 -0.1205  0.0028 -0.0808
 1393poe    c23 8071   0.674   3.099   4.656  0.4993 -0.2788 -0.0181
 1393poe     o2 8072   0.699   3.078   4.518 -0.1205  0.0411 -0.1840
 1393poe    c23 8073   0.660   2.946   4.487  0.6569 -0.2611  0.0875
 1393poe    c23 8074   0.631   2.924   4.337  0.0964  0.0186  0.1502
 1393poe     o2 8075   0.733   2.991   4.267 -0.1037 -0.3049 -0.4573
 1393poe    c31 8076   0.720   2.949   4.133  0.5729 -0.2424 -0.5462
 1394poe    c31 8077   6.786   2.027   2.361  0.1782  0.0371  0.1892
 1394poe     o2 8078   6.797   1.886   2.362  0.3800  0.0511  0.0076
 1394poe    c23 8079   6.822   1.836   2.233 -0.4364  0.0168 -0.1406
 1394poe    c23 8080   6.905   1.709   2.261 -0.1684  0.3180  0.4602
 1394poe     o2 8081   6.885   1.648   2.386  0.2605 -0.0976  0.3281
 1394poe    c23 8082   6.961   1.529   2.389  0.2580 -0.1025  0.1898
 1394poe    c23 8083   6.956   1.458   2.526  0.2830 -0.3097  0.0837
 1394poe     o2 8084   7.012   1.535   2.630  0.4061 -0.2895  0.0032
 1394poe    c23 8085   7.072   1.465   2.737  0.2854  0.1014  0.3281
 1394poe    c23 8086   7.150   1.550   2.839 -0.1520  0.0543  0.7040
 1394poe     o2 8087   7.065   1.641   2.907 -0.4850  0.5172 -0.3086
 1394poe    c31 8088   7.138   1.701   3.011 -0.0408 -0.5208 -0.0017
 1395poe    c31 8089   6.344   1.385   2.937 -0.0393 -0.0053  0.3409
 1395poe     o2 8090   6.235   1.458   2.884  0.0669 -0.3499 -0.3563
 1395poe    c23 8091   6.288   1.585   2.852 -0.0493 -0.3334 -0.4824
 1395poe    c23 8092   6.176   1.682   2.809  0.0966 -0.2994 -0.7911
 1395poe     o2 8093   6.131   1.648   2.680 -0.3587 -0.4137 -0.6038
 1395poe    c23 8094   6.010   1.717   2.656 -0.7390 -0.8027  0.1758
 1395poe    c23 8095   5.936   1.647   2.541 -0.2606 -0.0992 -0.5685
 1395poe     o2 8096   5.900   1.513   2.565 -0.6895  0.2356  0.7028
 1395poe    c23 8097   5.774   1.482   2.511 -0.1694 -0.0409 -0.3832
 1395poe    c23 8098   5.768   1.331   2.543  0.3381  0.2252  1.0462
 1395poe     o2 8099   5.894   1.275   2.511 -0.2279 -0.6045  0.2344
 1395poe    c31 8100   5.885   1.182   2.406  0.1439 -0.2609 -0.1029
 1396poe    c31 8101   0.503   0.032   3.911 -0.4937  1.0229 -0.3767
 1396poe     o2 8102   0.391   0.004   3.992  0.2376  0.2527  0.3819
 1396poe    c23 8103   0.430  -0.039   4.121 -0.1666 -0.2323  0.3475
 1396poe    c23 8104   0.328  -0.131   4.190 -0.0316 -0.2923  0.4665
 1396poe     o2 8105   0.209  -0.070   4.232 -0.3087 -0.1913 -0.4697
 1396poe    c23 8106   0.113  -0.151   4.295  0.4546 -0.2133  0.6831
 1396poe    c23 8107   0.001  -0.194   4.198  0.7019  0.2320  0.1989
 1396poe     o2 8108  -0.045  -0.064   4.165  0.3562  0.2611  0.7824
 1396poe    c23 8109  -0.148  -0.091   4.073  0.0755  0.5305  1.0150
 1396poe    c23 8110  -0.266   0.008   4.070 -0.0143  0.4113 -0.8153
 1396poe     o2 8111  -0.224   0.131   4.017  0.0859  0.2719 -1.0590
 1396poe    c31 8112  -0.339   0.193   3.964 -0.7057 -0.2981 -0.0418
 1397poe    c31 8113   5.600   2.938   0.391  0.4370 -0.6993  0.0769
 1397poe     o2 8114   5.624   2.994   0.264  0.2152  0.0918  0.3786
 1397poe    c23 8115   5.674   3.125   0.278  0.4333 -0.0117  0.5693
 1397poe    c23 8116   5.567   3.236   0.269  0.2304 -0.2707 -0.2804
 1397poe     o2 8117   5.466   3.254   0.366 -0.0709  0.0191 -0.6459
 1397poe    c23 8118   5.371   3.352   0.330  0.0433  0.4924  0.3130
 1397poe    c23 8119   5.272   3.378   0.445  0.1662 -0.0371  0.5407
 1397poe     o2 8120   5.216   3.255   0.486  0.2661 -0.1972  0.2057
 1397poe    c23 8121   5.113   3.301   0.570  0.2149  0.1482 -0.0457
 1397poe    c23 8122   4.975   3.280   0.506  0.5797  0.4583 -0.9478
 1397poe     o2 8123   4.946   3.141   0.508  0.3328  0.5191 -0.1848
 1397poe    c31 8124   4.809   3.110   0.510  0.4957 -0.2087 -0.2900
 1398poe    c31 8125   2.765   5.705   1.337  0.4404  0.4020  0.7520
 1398poe     o2 8126   2.707   5.692   1.465 -0.0743  0.2419  0.5046
 1398poe    c23 8127   2.605   5.594   1.454 -0.0367  0.2250  0.3149
 1398poe    c23 8128   2.560   5.553   1.595 -0.4214 -0.7008 -0.0737
 1398poe     o2 8129   2.525   5.672   1.660  0.8097 -0.1850 -0.3268
 1398poe    c23 8130   2.484   5.651   1.794 -0.0680  0.5026 -0.4784
 1398poe    c23 8131   2.601   5.689   1.886 -0.4546 -0.0330  0.2367
 1398poe     o2 8132   2.638   5.825   1.885  0.3083 -0.2353  0.0799
 1398poe    c23 8133   2.739   5.851   1.979  0.4348 -0.2525 -0.0501
 1398poe    c23 8134   2.750   6.003   1.961 -1.0666 -0.0428  0.6229
 1398poe     o2 8135   2.717   6.052   1.834  0.0979 -0.7413  0.0358
 1398poe    c31 8136   2.748   6.189   1.819 -0.1488 -0.6545  0.3164
 1399poe    c31 8137   3.852   4.962   3.927 -0.0349 -0.2997 -0.2505
 1399poe     o2 8138   3.816   5.047   4.033  0.1350 -0.0516 -0.3920
 1399poe    c23 8139   3.829   4.970   4.150  0.1481  0.0987 -0.2938
 1399poe    c23 8140   3.791   5.033   4.285  0.6093 -0.8042  0.2737
 1399poe     o2 8141   3.871   5.148   4.304  0.3170 -0.5395 -0.0722
 1399poe    c23 8142   3.826   5.207   4.424  0.2617 -0.4938 -0.1156
 1399poe    c23 8143   3.808   5.360   4.423  0.0708 -0.5167 -0.4539
 1399poe     o2 8144   3.704   5.412   4.342  0.5462  0.4109 -0.4907
 1399poe    c23 8145   3.679   5.549   4.364 -0.5391  0.1387  0.0069
 1399poe    c23 8146   3.576   5.601   4.262 -0.5397 -0.5270 -0.3423
 1399poe     o2 8147   3.609   5.560   4.132  0.4559  0.2495 -0.3482
 1399poe    c31 8148   3.534   5.628   4.034  0.5585 -0.1651 -0.7168
 1400poe    c31 8149   6.916   3.388   2.347  1.1495 -0.5495  0.4271
 1400poe     o2 8150   6.869   3.430   2.474 -0.4271 -0.0009 -0.3087
 1400poe    c23 8151   6.738   3.390   2.506 -0.3796  0.0319 -0.0714
 1400poe    c23 8152   6.677   3.441   2.638 -0.5118 -0.1556 -0.0600
 1400poe     o2 8153   6.687   3.581   2.626  0.4797 -0.2489 -0.4306
 1400poe    c23 8154   6.675   3.648   2.750  0.7526 -0.0345 -0.5178
 1400poe    c23 8155   6.689   3.800   2.736 -0.0176  0.0651 -0.3008
 1400poe     o2 8156   6.823   3.834   2.708  0.1501  0.2521  0.6929
 1400poe    c23 8157   6.860   3.960   2.654  0.3127 -0.2580 -0.4190
 1400poe    c23 8158   6.841   4.065   2.765  0.6127 -0.4128 -0.2149
 1400poe     o2 8159   6.708   4.083   2.810  0.6879 -0.2232 -0.0692
 1400poe    c31 8160   6.714   4.153   2.932  0.1124  0.1996 -0.2771
 1401poe    c31 8161   2.307   4.343   2.010  0.5846 -0.3095  0.3276
 1401poe     o2 8162   2.328   4.233   1.923  0.0302 -0.0796 -0.1046
 1401poe    c23 8163   2.226   4.236   1.826 -0.0510  0.0559 -0.0169
 1401poe    c23 8164   2.247   4.110   1.739  0.5593 -0.2888  0.6142
 1401poe     o2 8165   2.380   4.099   1.695  0.3569  0.0005 -0.0931
 1401poe    c23 8166   2.367   3.981   1.618  0.6531 -0.3426  0.3751
 1401poe    c23 8167   2.488   3.987   1.524  0.0757 -0.1285 -0.3660
 1401poe     o2 8168   2.607   4.025   1.590  0.0384 -0.5143 -0.0716
 1401poe    c23 8169   2.710   4.052   1.497  0.2805 -0.0131  0.3393
 1401poe    c23 8170   2.830   4.103   1.578 -0.1060 -0.1447  1.0042
 1401poe     o2 8171   2.781   4.192   1.677 -0.6433  0.4605  0.2081
 1401poe    c31 8172   2.879   4.260   1.752 -0.3425  0.0004  0.2439
 1402poe    c31 8173   3.134   0.795   0.539  0.7567 -0.0612 -0.6446
 1402poe     o2 8174   3.175   0.834   0.668  0.6433  0.1118 -0.6600
 1402poe    c23 8175   3.261   0.743   0.732 -0.0810 -0.1109  0.0181
 1402poe    c23 8176   3.302   0.793   0.872  0.1040 -0.0998 -0.0400
 1402poe     o2 8177   3.181   0.783   0.943  0.4078 -0.5841  0.4142
 1402poe    c23 8178   3.195   0.818   1.079 -0.4583  0.3289  0.2723
 1402poe    c23 8179   3.057   0.870   1.123 -0.5274  0.0639  0.3720
 1402poe     o2 8180   3.016   0.967   1.029  0.0203 -0.3865 -0.3382
 1402poe    c23 8181   2.878   0.966   1.003  0.0219  0.1908 -0.3909
 1402poe    c23 8182   2.843   1.033   0.869 -0.8222 -0.0187 -0.2816
 1402poe     o2 8183   2.922   0.970   0.771  0.5143  0.8361  0.2273
 1402poe    c31 8184   2.885   1.016   0.644 -0.0327 -0.5110 -0.1204
 1403poe    c31 8185   3.990   6.168   2.174 -0.0058 -0.4077  0.4677
 1403poe     o2 8186   4.025   6.071   2.078  0.8563  0.5955 -0.2561
 1403poe    c23 8187   4.123   5.988   2.137  0.1269 -0.0927 -0.0029
 1403poe    c23 8188   4.152   5.871   2.042  0.2726  0.1521 -0.2597
 1403poe     o2 8189   4.128   5.926   1.914 -0.2064  0.5180 -0.0112
 1403poe    c23 8190   4.164   5.838   1.810  0.5834 -0.0715  0.7476
 1403poe    c23 8191   4.194   5.931   1.692  0.0288 -0.1746  0.5204
 1403poe     o2 8192   4.087   6.017   1.663  0.3266 -0.1522 -0.6002
 1403poe    c23 8193   4.034   5.990   1.536 -0.6657  0.0587 -0.2413
 1403poe    c23 8194   3.984   6.120   1.470  0.1042  0.5078  0.0482
 1403poe     o2 8195   3.900   6.199   1.551 -0.3658 -0.2318  0.2918
 1403poe    c31 8196   3.880   6.329   1.500  0.1966  0.1206  0.9456
 1404poe    c31 8197   0.396   2.793   3.816  0.6105  0.0225 -0.0059
 1404poe     o2 8198   0.383   2.762   3.680 -0.0244  0.0526  0.0463
 1404poe    c23 8199   0.393   2.622   3.668 -0.0378  0.0657 -0.1259
 1404poe    c23 8200   0.367   2.575   3.524 -0.0690  0.6685 -0.3182
 1404poe     o2 8201   0.286   2.675   3.466 -0.4430  0.6076  0.1010
 1404poe    c23 8202   0.260   2.647   3.331 -0.2761  0.1486  0.1641
 1404poe    c23 8203   0.130   2.714   3.281 -0.2111  0.0231 -0.1773
 1404poe     o2 8204   0.145   2.845   3.331  0.2276  0.1485 -0.6237
 1404poe    c23 8205   0.056   2.924   3.255 -0.1954  0.3211  0.0357
 1404poe    c23 8206   0.060   3.071   3.300  0.0550  0.2199  0.3475
 1404poe     o2 8207   0.192   3.118   3.286  0.0955  0.0081  0.0035
 1404poe    c31 8208   0.210   3.258   3.284 -0.4205  0.0754 -0.3299
 1405poe    c31 8209   4.104   5.335   6.221 -0.0270  0.0082  0.0434
 1405poe     o2 8210   4.181   5.383   6.329  0.0142 -0.8328  0.3959
 1405poe    c23 8211   4.101   5.441   6.429 -0.2706 -0.4149 -0.0739
 1405poe    c23 8212   4.178   5.435   6.561 -0.6236 -0.0351  0.1537
 1405poe     o2 8213   4.277   5.536   6.568  0.3030 -0.9131  0.0442
 1405poe    c23 8214   4.373   5.501   6.665  0.7160  0.0988  0.0091
 1405poe    c23 8215   4.440   5.638   6.686  0.2135  0.2248  0.8390
 1405poe     o2 8216   4.470   5.681   6.555  0.1957  0.1329  0.8043
 1405poe    c23 8217   4.562   5.788   6.546  0.4566 -0.1340  0.2402
 1405poe    c23 8218   4.572   5.834   6.400  0.1266 -0.4780  0.1054
 1405poe     o2 8219   4.444   5.850   6.343  0.0667 -0.4543  0.2502
 1405poe    c31 8220   4.449   5.905   6.214  0.0273 -0.5674  0.2011
 1406poe    c31 8221   2.642   3.970   2.670 -0.6509 -0.5795  0.7382
 1406poe     o2 8222   2.739   4.036   2.748  0.3020 -0.8505 -0.2041
 1406poe    c23 8223   2.678   4.115   2.847  0.4995 -0.3440 -0.4798
 1406poe    c23 8224   2.763   4.202   2.941  0.0049  0.1864 -0.5215
 1406poe     o2 8225   2.845   4.120   3.020  0.0183  0.4773 -0.2300
 1406poe    c23 8226   2.899   4.198   3.124 -0.0926  0.3575 -0.0811
 1406poe    c23 8227   2.811   4.257   3.236 -0.1384  0.3431 -0.1098
 1406poe     o2 8228   2.741   4.160   3.310 -0.0292  0.0797 -0.3518
 1406poe    c23 8229   2.799   4.150   3.437  0.4171 -0.2352 -0.5790
 1406poe    c23 8230   2.690   4.099   3.533  0.0255  0.9577 -0.3791
 1406poe     o2 8231   2.625   3.989   3.474  0.4142  0.1758  0.6141
 1406poe    c31 8232   2.536   3.918   3.557  0.4094 -0.7290 -0.1450
 1407poe    c31 8233   4.654   5.735   3.018 -0.7453 -0.1073 -0.5666
 1407poe     o2 8234   4.519   5.759   3.050 -0.5990  0.3204 -0.2713
 1407poe    c23 8235   4.458   5.639   3.093 -0.1635  0.3015  0.3011
 1407poe    c23 8236   4.458   5.632   3.247  0.3327 -0.5308  0.2694
 1407poe     o2 8237   4.358   5.719   3.296  0.3378 -0.5766  0.3619
 1407poe    c23 8238   4.375   5.751   3.432  0.2965  0.4627  0.1341
 1407poe    c23 8239   4.252   5.836   3.468 -0.0508 -0.0620  0.2052
 1407poe     o2 8240   4.258   5.955   3.393 -0.1618  0.2567  0.6906
 1407poe    c23 8241   4.160   6.052   3.419 -0.2675  0.4337 -0.2995
 1407poe    c23 8242   4.189   6.163   3.316  0.1767  0.2926 -0.3284
 1407poe     o2 8243   4.203   6.086   3.198  0.1370  0.1332 -0.2304
 1407poe    c31 8244   4.198   6.176   3.090 -0.2961 -0.1238 -0.4244
 1408poe    c31 8245   4.148   4.011   2.922 -0.0725  0.0763 -0.1272
 1408poe     o2 8246   4.078   4.129   2.888 -0.1204  0.1431  0.2019
 1408poe    c23 8247   4.088   4.148   2.748  0.1785  0.7945  0.3052
 1408poe    c23 8248   3.979   4.239   2.689  0.3420  0.7367 -0.0847
 1408poe     o2 8249   3.846   4.202   2.720  0.4769  0.4804  0.1946
 1408poe    c23 8250   3.760   4.272   2.633 -0.4198 -0.3532  0.3982
 1408poe    c23 8251   3.681   4.367   2.725  0.3020  0.0379  0.6210
 1408poe     o2 8252   3.623   4.301   2.835 -0.4224 -0.4175 -0.0246
 1408poe    c23 8253   3.582   4.388   2.938  0.1614 -0.5378  0.3141
 1408poe    c23 8254   3.591   4.326   3.079  1.0363 -0.2157  0.4102
 1408poe     o2 8255   3.568   4.188   3.069 -0.1538 -0.0150  0.2246
 1408poe    c31 8256   3.566   4.127   3.196 -0.5566  0.2617  0.3521
 1409poe    c31 8257   4.207   1.821   1.059 -0.8972  0.0937  0.0092
 1409poe     o2 8258   4.101   1.897   1.111 -0.8606 -0.1242  0.4062
 1409poe    c23 8259   4.088   2.028   1.062  0.2342  0.0126  0.4506
 1409poe    c23 8260   3.988   2.112   1.144  0.0516  0.0204  0.2207
 1409poe     o2 8261   3.865   2.047   1.171  0.1465 -0.2501  0.0056
 1409poe    c23 8262   3.795   2.143   1.245  0.0598 -0.3865  0.0995
 1409poe    c23 8263   3.694   2.049   1.313  0.1341 -0.3724  0.2294
 1409poe     o2 8264   3.614   2.010   1.204 -0.5721  0.9222  0.2699
 1409poe    c23 8265   3.523   1.909   1.242  0.6465 -0.2512  0.1242
 1409poe    c23 8266   3.477   1.827   1.120  0.4526  0.0937 -0.0337
 1409poe     o2 8267   3.603   1.802   1.061  0.6392 -0.2124  0.4869
 1409poe    c31 8268   3.581   1.689   0.980  0.3750 -0.1676  0.4942
 1410poe    c31 8269   2.735   2.119   6.308  0.1763 -0.6372  0.8295
 1410poe     o2 8270   2.727   2.258   6.287 -0.0530 -0.8854 -0.9039
 1410poe    c23 8271   2.829   2.300   6.199  0.2027 -0.5962 -0.4742
 1410poe    c23 8272   2.814   2.437   6.128 -0.5874 -0.3292  0.1899
 1410poe     o2 8273   2.693   2.477   6.068 -0.0568 -0.1899 -0.8098
 1410poe    c23 8274   2.726   2.608   6.025 -0.0879  0.0457 -0.1333
 1410poe    c23 8275   2.588   2.672   5.998 -0.0443  0.3802  0.4077
 1410poe     o2 8276   2.500   2.669   6.107 -0.2309 -0.1584  0.2491
 1410poe    c23 8277   2.372   2.660   6.048 -0.1268 -0.0290 -0.0003
 1410poe    c23 8278   2.269   2.686   6.160  0.0619  0.5847  0.0342
 1410poe     o2 8279   2.332   2.631   6.273 -0.5692 -0.3252 -0.0497
 1410poe    c31 8280   2.249   2.638   6.387  0.2929 -0.7153  0.6121
 1411poe    c31 8281   4.756   0.573   1.498 -0.2152  0.3354 -0.5990
 1411poe     o2 8282   4.759   0.706   1.453  0.2572  0.4372 -0.2729
 1411poe    c23 8283   4.690   0.713   1.330 -0.1701 -0.0838 -0.0620
 1411poe    c23 8284   4.732   0.844   1.262  0.6021 -0.0359  0.4991
 1411poe     o2 8285   4.726   0.950   1.355  0.3120  0.1202  0.3013
 1411poe    c23 8286   4.794   1.062   1.302  0.4354  0.0863  0.3895
 1411poe    c23 8287   4.766   1.181   1.395  0.3352 -0.1938  0.7212
 1411poe     o2 8288   4.783   1.153   1.532  0.3645 -0.1391  0.7291
 1411poe    c23 8289   4.764   1.265   1.615  0.6494  0.4415  0.0182
 1411poe    c23 8290   4.828   1.228   1.751  0.1689  0.6460  0.3011
 1411poe     o2 8291   4.762   1.124   1.819  0.7249  0.0762 -0.0218
 1411poe    c31 8292   4.760   1.130   1.960  0.4690  1.0211 -0.0590
 1412poe    c31 8293   4.867   5.616   4.833  0.1829  0.1969  0.1985
 1412poe     o2 8294   4.898   5.596   4.969  0.0701  0.9679  0.3393
 1412poe    c23 8295   5.032   5.629   4.999  0.2793  0.5306 -0.0992
 1412poe    c23 8296   5.060   5.575   5.140 -0.0182  0.2517 -0.1448
 1412poe     o2 8297   4.948   5.589   5.224 -0.5668  0.2726 -0.8758
 1412poe    c23 8298   5.003   5.639   5.344 -0.0294  0.5766 -1.2476
 1412poe    c23 8299   4.877   5.642   5.432  0.6333 -0.3885 -0.2357
 1412poe     o2 8300   4.808   5.519   5.423 -0.1427  0.0151  0.1054
 1412poe    c23 8301   4.706   5.511   5.520 -0.6458 -0.0333 -0.4218
 1412poe    c23 8302   4.606   5.400   5.485  0.2883 -0.8228 -0.6265
 1412poe     o2 8303   4.562   5.406   5.351  0.5885 -0.4030 -0.7070
 1412poe    c31 8304   4.478   5.299   5.314  0.0894 -0.0749 -0.5338
 1413poe    c31 8305   1.306   3.621   0.214 -0.0706  0.3592  0.3140
 1413poe     o2 8306   1.338   3.518   0.124  0.0977  0.3451  0.3901
 1413poe    c23 8307   1.271   3.402   0.168  0.3288  0.3702  0.8080
 1413poe    c23 8308   1.291   3.289   0.066  0.4873  0.3491  0.8611
 1413poe     o2 8309   1.426   3.284   0.025  0.1812  0.1831 -0.1536
 1413poe    c23 8310   1.451   3.213  -0.094  0.0603  0.0507 -0.0999
 1413poe    c23 8311   1.596   3.248  -0.133 -0.1961  0.3019 -0.8322
 1413poe     o2 8312   1.625   3.386  -0.126  0.0646  0.1880  0.5334
 1413poe    c23 8313   1.756   3.423  -0.089  0.3102 -0.0591 -0.0883
 1413poe    c23 8314   1.748   3.531   0.020  0.2885 -0.2399  0.0904
 1413poe     o2 8315   1.632   3.491   0.089  0.0029  0.0752 -0.2002
 1413poe    c31 8316   1.672   3.459   0.221  0.1007  0.4054 -0.1476
 1414poe    c31 8317   6.473   2.482   2.675 -0.1542  0.1992  0.3076
 1414poe     o2 8318   6.429   2.497   2.542  0.4951 -0.0251  0.0617
 1414poe    c23 8319   6.421   2.636   2.518 -0.5417 -0.1186 -0.1879
 1414poe    c23 8320   6.440   2.677   2.371 -0.1309  0.5892  0.0561
 1414poe     o2 8321   6.575   2.698   2.336 -0.0257 -0.5341 -0.2479
 1414poe    c23 8322   6.586   2.756   2.208 -0.3772  0.4931  0.1839
 1414poe    c23 8323   6.722   2.828   2.208 -0.2920  0.3356 -0.4827
 1414poe     o2 8324   6.831   2.739   2.212 -0.5752  0.0221  0.3988
 1414poe    c23 8325   6.882   2.711   2.084 -0.6955 -0.0839  0.3743
 1414poe    c23 8326   7.002   2.619   2.112 -0.3702  0.3670  0.4724
 1414poe     o2 8327   7.089   2.651   2.218  0.0768  0.2212  0.1574
 1414poe    c31 8328   7.218   2.596   2.213  0.0290  0.1478 -0.3240
 1415poe    c31 8329   2.979   1.678   2.938  0.3342  0.4141  0.5167
 1415poe     o2 8330   3.092   1.626   3.003  0.0483 -0.2453  0.4884
 1415poe    c23 8331   3.087   1.486   3.025 -0.1345 -0.3680 -0.2786
 1415poe    c23 8332   3.227   1.443   3.072  0.2633  0.6694 -0.4809
 1415poe     o2 8333   3.252   1.527   3.183  0.0315  0.2608 -0.1162
 1415poe    c23 8334   3.377   1.513   3.247 -0.1625 -0.1250  0.1851
 1415poe    c23 8335   3.414   1.609   3.362 -0.2377 -0.1651  0.2424
 1415poe     o2 8336   3.416   1.745   3.325 -0.4733 -0.0881  0.5102
 1415poe    c23 8337   3.403   1.817   3.445  0.7723  0.4072  0.3616
 1415poe    c23 8338   3.384   1.969   3.429 -0.4028  0.3229  0.8423
 1415poe     o2 8339   3.261   2.019   3.381 -0.3755 -0.4394 -0.0449
 1415poe    c31 8340   3.251   2.159   3.364 -0.2386 -0.4182  0.0396
 1416poe    c31 8341   5.002   0.159   2.676  0.0939 -0.1792 -0.3746
 1416poe     o2 8342   5.114   0.244   2.663  0.1399 -0.0035  1.0044
 1416poe    c23 8343   5.073   0.377   2.687 -0.6419 -0.0206 -0.1424
 1416poe    c23 8344   5.053   0.459   2.559  0.3042  0.6199  0.1132
 1416poe     o2 8345   5.173   0.529   2.535  0.4074  0.2425 -0.4691
 1416poe    c23 8346   5.154   0.646   2.458 -0.5680  0.3760 -0.0378
 1416poe    c23 8347   5.189   0.774   2.536 -0.6037 -0.2449  1.0269
 1416poe     o2 8348   5.322   0.764   2.582 -0.0639 -0.2730 -0.4659
 1416poe    c23 8349   5.353   0.868   2.673 -0.2341 -0.6220 -0.0043
 1416poe    c23 8350   5.506   0.869   2.684 -0.1987  0.2509 -0.5637
 1416poe     o2 8351   5.560   0.741   2.705  0.4972  0.6361  0.0456
 1416poe    c31 8352   5.701   0.738   2.707  0.5010  0.1248 -0.6367
 1417poe    c31 8353   3.990   1.921   4.027  0.0977  0.1582 -0.0013
 1417poe     o2 8354   3.893   1.949   4.126  0.1289  0.4047 -0.0399
 1417poe    c23 8355   3.842   2.076   4.094  0.1834  0.3486 -0.3538
 1417poe    c23 8356   3.698   2.088   4.147  0.2922 -0.1417  0.0656
 1417poe     o2 8357   3.685   2.047   4.281  0.0372  0.2955  0.1768
 1417poe    c23 8358   3.551   2.033   4.325 -0.0609  0.4618 -0.0667
 1417poe    c23 8359   3.570   1.995   4.473 -0.0964  0.0889 -0.1573
 1417poe     o2 8360   3.631   1.872   4.503  0.6661  0.5020  0.0351
 1417poe    c23 8361   3.704   1.886   4.622  0.3185  0.3518  0.2680
 1417poe    c23 8362   3.753   1.747   4.665 -0.2492  0.1772  0.3638
 1417poe     o2 8363   3.839   1.690   4.568 -0.9160 -0.3154  0.0534
 1417poe    c31 8364   3.929   1.587   4.604 -0.0642  0.4458  0.1342
 1418poe    c31 8365   1.408   4.953   1.796 -0.6166  0.1071 -0.6315
 1418poe     o2 8366   1.385   5.029   1.679 -0.5334  0.1785 -0.6028
 1418poe    c23 8367   1.477   4.982   1.583  0.6449  0.4045  0.3855
 1418poe    c23 8368   1.507   5.095   1.482 -0.9762  0.1862 -0.3872
 1418poe     o2 8369   1.401   5.160   1.417 -1.0269  0.2124 -0.2783
 1418poe    c23 8370   1.449   5.280   1.360  0.3400 -0.0782  0.2338
 1418poe    c23 8371   1.326   5.371   1.356  0.1748 -0.3140 -0.0573
 1418poe     o2 8372   1.221   5.298   1.295 -0.0238  0.4012 -0.5875
 1418poe    c23 8373   1.113   5.387   1.279 -0.4112  0.1540  0.5660
 1418poe    c23 8374   0.994   5.310   1.218  0.3746 -0.2990 -0.4316
 1418poe     o2 8375   1.011   5.181   1.272  0.0888 -0.4171 -0.6202
 1418poe    c31 8376   0.897   5.104   1.243  0.0231 -0.3668 -0.4978
 1419poe    c31 8377   2.178   2.344   2.700 -0.3783 -0.2073 -0.2351
 1419poe     o2 8378   2.178   2.207   2.735  0.1964 -0.1661 -0.0522
 1419poe    c23 8379   2.302   2.144   2.753  0.0236 -0.3488  0.4993
 1419poe    c23 8380   2.283   2.012   2.830  0.4869 -0.3303  0.6535
 1419poe     o2 8381   2.216   1.912   2.756  0.5598  0.1776 -0.1073
 1419poe    c23 8382   2.161   1.807   2.833  0.2715 -0.1435 -0.7389
 1419poe    c23 8383   2.072   1.724   2.740 -0.3828 -0.9401  0.5715
 1419poe     o2 8384   2.147   1.707   2.622 -0.3116  0.9012  0.3234
 1419poe    c23 8385   2.079   1.647   2.514 -0.6733  1.1897  0.3888
 1419poe    c23 8386   2.141   1.686   2.378 -0.2821 -0.3076  0.1173
 1419poe     o2 8387   2.137   1.827   2.376  0.5619 -0.2892 -0.8472
 1419poe    c31 8388   2.160   1.879   2.247  0.3015 -0.2182 -0.8662
 1420poe    c31 8389   1.196   4.334   6.105  0.2398 -0.2067 -0.3451
 1420poe     o2 8390   1.143   4.371   6.231  0.3554 -0.7398 -0.1344
 1420poe    c23 8391   1.178   4.289   6.340 -0.3575 -0.5264  0.2551
 1420poe    c23 8392   1.073   4.268   6.451  0.0925 -0.4009  0.7102
 1420poe     o2 8393   1.024   4.394   6.491  0.0902 -0.1520 -0.0510
 1420poe    c23 8394   1.028   4.402   6.632  0.1418 -0.2550 -0.0465
 1420poe    c23 8395   0.900   4.475   6.675  0.1353 -0.2584 -0.0591
 1420poe     o2 8396   0.900   4.598   6.605  0.6159 -0.0175  0.3573
 1420poe    c23 8397   0.801   4.694   6.630  0.0117 -0.6020  0.2430
 1420poe    c23 8398   0.842   4.816   6.544 -0.2147 -0.3330  0.5151
 1420poe     o2 8399   0.852   4.765   6.413  0.2807  0.2347  0.3277
 1420poe    c31 8400   0.902   4.864   6.326 -0.0697  0.2318  0.1234
 1421poe    c31 8401   0.766   0.216   3.742  0.2636  0.5333  0.5701
 1421poe     o2 8402   0.743   0.329   3.660  0.5403  0.2652  0.1145
 1421poe    c23 8403   0.769   0.453   3.721  0.1183 -0.0721  0.9930
 1421poe    c23 8404   0.735   0.568   3.625 -0.0369 -0.2459  0.8387
 1421poe     o2 8405   0.615   0.537   3.558  0.1142  0.3468  0.2838
 1421poe    c23 8406   0.549   0.654   3.516 -0.2887  0.0394  0.0530
 1421poe    c23 8407   0.415   0.614   3.451 -0.4550 -0.4118  0.6580
 1421poe     o2 8408   0.426   0.518   3.348 -0.8337  0.7362 -0.4741
 1421poe    c23 8409   0.296   0.485   3.304 -0.6990 -1.0428  0.3860
 1421poe    c23 8410   0.309   0.381   3.191 -0.6809 -0.5739 -0.0467
 1421poe     o2 8411   0.345   0.429   3.063 -0.1889  0.5442  0.4987
 1421poe    c31 8412   0.255   0.522   3.007  0.3385  0.1697 -0.9971
 1422poe    c31 8413   4.806   5.468   2.148  0.3939 -0.3288 -0.3545
 1422poe     o2 8414   4.790   5.521   2.278 -0.5212 -0.2859 -0.4796
 1422poe    c23 8415   4.653   5.549   2.298 -0.3866  0.3871 -0.5025
 1422poe    c23 8416   4.630   5.629   2.428 -0.2531  0.2379 -0.3863
 1422poe     o2 8417   4.676   5.536   2.523 -0.5717  0.4620 -0.0093
 1422poe    c23 8418   4.678   5.587   2.654  0.2011  0.3450  0.0304
 1422poe    c23 8419   4.776   5.503   2.737  0.3086 -0.0749 -0.5168
 1422poe     o2 8420   4.909   5.523   2.692  0.3477 -0.1229 -0.4247
 1422poe    c23 8421   5.010   5.466   2.772  0.2612  0.2640 -0.0350
 1422poe    c23 8422   5.135   5.470   2.681  0.3091  0.6526  0.0434
 1422poe     o2 8423   5.147   5.385   2.569 -0.3114  0.3232  0.2231
 1422poe    c31 8424   5.202   5.258   2.599 -0.4708  0.1771 -0.0961
 1423poe    c31 8425   6.221   1.928   1.604 -0.1304 -0.4553 -0.0163
 1423poe     o2 8426   6.086   1.918   1.645 -0.1109 -0.0743  0.1434
 1423poe    c23 8427   6.079   1.851   1.769 -0.0659  0.4840  0.4531
 1423poe    c23 8428   5.956   1.910   1.839 -0.3266  0.1443  0.2855
 1423poe     o2 8429   5.860   1.929   1.738 -0.3767 -0.1368  0.2805
 1423poe    c23 8430   5.739   1.986   1.784  0.0307  0.3790  0.7273
 1423poe    c23 8431   5.631   1.992   1.674  0.5508 -0.8404  0.1231
 1423poe     o2 8432   5.694   2.050   1.562 -0.1459 -0.5278 -0.1125
 1423poe    c23 8433   5.612   2.092   1.456 -0.0233 -0.1262 -0.0503
 1423poe    c23 8434   5.575   1.975   1.362  0.2050 -0.6334  0.4841
 1423poe     o2 8435   5.690   1.918   1.304  0.2990  0.0812 -0.0504
 1423poe    c31 8436   5.656   1.830   1.199  0.3792 -0.3345  0.2703
 1424poe    c31 8437   3.575   4.521   5.760  0.0192 -0.3544  0.8377
 1424poe     o2 8438   3.510   4.646   5.748 -0.1688 -0.5261 -0.0271
 1424poe    c23 8439   3.447   4.676   5.626 -0.0962  0.6233  0.2131
 1424poe    c23 8440   3.435   4.830   5.622  0.9463  0.6970 -0.1841
 1424poe     o2 8441   3.394   4.872   5.750 -0.1755  0.0662 -0.3279
 1424poe    c23 8442   3.391   5.013   5.751  0.6167  0.0915 -0.6197
 1424poe    c23 8443   3.330   5.054   5.886  0.0759 -0.2986 -0.7373
 1424poe     o2 8444   3.398   5.005   6.000 -0.3304  0.2267 -0.2618
 1424poe    c23 8445   3.333   5.053   6.116 -0.6799 -0.1247 -0.3099
 1424poe    c23 8446   3.421   5.063   6.242 -1.2150 -0.3184  0.0843
 1424poe     o2 8447   3.405   4.971   6.347  0.2494 -0.2345  0.4018
 1424poe    c31 8448   3.459   4.844   6.319  0.1084 -0.2063 -0.0064
 1425poe    c31 8449   4.156   5.386   2.009 -0.8300  0.5762  0.2475
 1425poe     o2 8450   4.172   5.315   2.130 -0.2848  0.9136  0.3779
 1425poe    c23 8451   4.154   5.379   2.255  0.2163  0.4728  0.6807
 1425poe    c23 8452   4.199   5.279   2.363  0.3175 -0.3344 -0.0989
 1425poe     o2 8453   4.338   5.261   2.348  0.2877 -0.5587 -0.1109
 1425poe    c23 8454   4.389   5.207   2.468  0.0043 -0.0503  0.2415
 1425poe    c23 8455   4.539   5.180   2.441  0.0039 -0.2500  0.4356
 1425poe     o2 8456   4.533   5.102   2.324  0.0863  0.4402 -0.0341
 1425poe    c23 8457   4.658   5.038   2.310 -0.1927 -0.0696 -0.2099
 1425poe    c23 8458   4.647   4.952   2.183  1.2335  0.0538 -0.4323
 1425poe     o2 8459   4.602   5.020   2.068 -0.2569  0.1629  0.1957
 1425poe    c31 8460   4.571   4.934   1.960  0.3101  0.2329 -0.0264
 1426poe    c31 8461   2.826   6.112   6.241 -0.1450 -0.3313  0.5199
 1426poe     o2 8462   2.836   6.041   6.362  0.0167 -0.5090  0.4023
 1426poe    c23 8463   2.922   5.933   6.332 -0.0033 -0.5520  0.4985
 1426poe    c23 8464   2.995   5.895   6.462  0.1706 -0.0362  0.5535
 1426poe     o2 8465   2.899   5.871   6.562 -0.2134 -0.8041 -0.0001
 1426poe    c23 8466   2.953   5.872   6.692  0.0439 -0.4903 -0.1107
 1426poe    c23 8467   2.846   5.863   6.802 -0.1300 -0.0837 -0.2440
 1426poe     o2 8468   2.760   5.958   6.743  0.0247 -0.0633 -0.4374
 1426poe    c23 8469   2.627   5.920   6.769  0.0938 -0.1859 -0.2599
 1426poe    c23 8470   2.537   6.001   6.673  0.1009  0.2778  0.1202
 1426poe     o2 8471   2.588   5.988   6.542  0.0836  0.2478  0.1165
 1426poe    c31 8472   2.489   5.967   6.444 -0.2309  0.4416  0.3847
 1427poe    c31 8473   4.746   2.616   6.784  0.2733 -0.4986 -0.4616
 1427poe     o2 8474   4.672   2.501   6.821 -0.2373 -0.0457 -0.0662
 1427poe    c23 8475   4.538   2.546   6.808 -0.1715  0.2085  0.1073
 1427poe    c23 8476   4.459   2.432   6.875 -0.2190  0.1477 -0.0507
 1427poe     o2 8477   4.508   2.305   6.838 -0.3509  0.0268  0.1922
 1427poe    c23 8478   4.432   2.195   6.884  0.0646 -0.1955  0.3546
 1427poe    c23 8479   4.480   2.063   6.821  0.3063  0.5171 -0.9921
 1427poe     o2 8480   4.618   2.037   6.833  0.0697 -0.1551  0.4190
 1427poe    c23 8481   4.648   1.907   6.787  0.2725 -0.0368  0.2178
 1427poe    c23 8482   4.801   1.888   6.789  0.3037  0.1595 -0.0857
 1427poe     o2 8483   4.849   2.004   6.726  0.3864 -0.0381 -0.3911
 1427poe    c31 8484   4.990   2.006   6.727  0.3837  0.3036  0.3424
 1428poe    c31 8485   5.733   6.154   3.245 -0.3155 -0.2770  0.0951
 1428poe     o2 8486   5.709   6.110   3.377  0.1543  0.3803  0.4065
 1428poe    c23 8487   5.583   6.149   3.429  0.0023  0.4032  0.0254
 1428poe    c23 8488   5.552   6.086   3.565 -0.4014  0.4302 -0.0520
 1428poe     o2 8489   5.655   6.046   3.654  0.0989  0.0919 -0.7792
 1428poe    c23 8490   5.609   5.944   3.739  0.8651  0.4837  0.1122
 1428poe    c23 8491   5.722   5.887   3.827  0.4797  0.0027  0.2989
 1428poe     o2 8492   5.823   5.827   3.749  0.2313  0.3747 -0.3114
 1428poe    c23 8493   5.886   5.749   3.848 -0.1164 -0.0865 -0.4516
 1428poe    c23 8494   6.000   5.672   3.778 -0.4114 -0.5476 -0.4321
 1428poe     o2 8495   6.046   5.768   3.685 -0.1999 -0.3699 -0.1498
 1428poe    c31 8496   6.162   5.734   3.613  0.2394 -0.0275  0.3993
 1429poe    c31 8497   0.982   3.360   5.868  0.6229 -0.1884 -0.3444
 1429poe     o2 8498   1.031   3.339   5.998 -0.1311 -0.1039 -0.0394
 1429poe    c23 8499   0.964   3.232   6.062 -0.2271 -0.1373 -0.1950
 1429poe    c23 8500   1.048   3.158   6.168 -0.1144  0.2417 -0.0164
 1429poe     o2 8501   1.071   3.246   6.275 -0.3856  0.1775  0.0949
 1429poe    c23 8502   1.022   3.205   6.400  0.3077 -0.3239  0.2073
 1429poe    c23 8503   1.106   3.285   6.502  0.4417 -0.1918 -0.0061
 1429poe     o2 8504   1.091   3.415   6.450 -0.6091 -0.1170  0.4686
 1429poe    c23 8505   1.161   3.512   6.523 -0.6748  0.6601 -0.4720
 1429poe    c23 8506   1.304   3.558   6.487 -0.3250 -0.1094 -0.0961
 1429poe     o2 8507   1.294   3.620   6.361 -0.4732  0.2246  0.0805
 1429poe    c31 8508   1.382   3.729   6.344 -0.3963  0.2944  0.9211
 1430poe    c31 8509   4.649   1.588   5.714  0.5382 -0.3045 -0.1929
 1430poe     o2 8510   4.565   1.701   5.702  0.9640 -0.0038 -0.3677
 1430poe    c23 8511   4.648   1.814   5.695  0.0463  0.6449 -0.9516
 1430poe    c23 8512   4.569   1.945   5.673 -0.3547  0.5797  0.0233
 1430poe     o2 8513   4.479   1.913   5.568 -0.1700  0.3736 -0.0739
 1430poe    c23 8514   4.427   2.028   5.505 -0.2115  0.2665 -0.2347
 1430poe    c23 8515   4.325   1.985   5.398 -0.0925  0.2459 -0.3412
 1430poe     o2 8516   4.204   1.932   5.448  0.1807 -0.3967 -0.3513
 1430poe    c23 8517   4.114   2.038   5.475 -0.0549 -0.5706 -0.4503
 1430poe    c23 8518   3.987   1.975   5.535 -0.2113  0.2067  0.0406
 1430poe     o2 8519   4.026   1.910   5.653  0.1076 -0.1768 -0.2737
 1430poe    c31 8520   3.914   1.858   5.721  0.3080 -0.2082  0.0374
 1431poe    c31 8521   6.058   5.772   5.499  0.0878  0.3787 -0.4097
 1431poe     o2 8522   5.959   5.868   5.528  0.2482  0.5756 -0.5233
 1431poe    c23 8523   6.004   5.943   5.639  0.1549 -0.3641  0.1575
 1431poe    c23 8524   5.924   6.070   5.673  0.7327 -0.1202  0.6269
 1431poe     o2 8525   5.942   6.169   5.574 -0.8677 -0.1147  0.3156
 1431poe    c23 8526   5.844   6.268   5.592 -0.4003  0.3933  0.0833
 1431poe    c23 8527   5.794   6.334   5.462  0.3156  0.1131 -0.3397
 1431poe     o2 8528   5.690   6.264   5.397  0.7340 -0.2056 -0.6756
 1431poe    c23 8529   5.625   6.367   5.326 -0.2694 -0.0113  0.4838
 1431poe    c23 8530   5.481   6.328   5.288 -0.1350  0.0365 -0.0873
 1431poe     o2 8531   5.486   6.187   5.279  0.3227  0.0162  0.4520
 1431poe    c31 8532   5.394   6.141   5.183  0.4134  0.2683  0.2408
 1432poe    c31 8533   6.123   4.571   0.078 -0.4974  0.8353  0.0379
 1432poe     o2 8534   6.203   4.568  -0.038 -0.0036 -0.6611  0.3890
 1432poe    c23 8535   6.244   4.438  -0.076 -0.1305 -0.6352  0.1593
 1432poe    c23 8536   6.300   4.452  -0.219 -0.2020  0.1462  0.2016
 1432poe     o2 8537   6.404   4.547  -0.222  0.6865 -0.8082  0.3796
 1432poe    c23 8538   6.469   4.535  -0.346  0.1044  0.5147 -0.0675
 1432poe    c23 8539   6.579   4.642  -0.362  0.6251  0.0116  0.1172
 1432poe     o2 8540   6.518   4.754  -0.301 -0.7829 -0.4178 -0.4724
 1432poe    c23 8541   6.525   4.863  -0.390 -0.0142  0.1265  0.2477
 1432poe    c23 8542   6.566   4.998  -0.328  0.1370  0.4106 -0.4678
 1432poe     o2 8543   6.452   5.061  -0.272  0.3657 -0.1992  0.7127
 1432poe    c31 8544   6.445   5.076  -0.132 -0.1681 -0.5275  0.7243
 1433poe    c31 8545   6.863   3.944   2.231 -0.0794  0.0391  0.6440
 1433poe     o2 8546   6.725   3.916   2.242 -0.0966 -0.0176  0.2958
 1433poe    c23 8547   6.708   3.818   2.342 -0.7203 -0.1473  0.0653
 1433poe    c23 8548   6.565   3.762   2.343 -0.8118  0.0776 -0.2258
 1433poe     o2 8549   6.493   3.882   2.360 -0.3185  0.2377  0.7654
 1433poe    c23 8550   6.354   3.886   2.337 -0.2308 -0.3227  0.1282
 1433poe    c23 8551   6.287   4.020   2.374  0.1505 -0.0092 -0.3005
 1433poe     o2 8552   6.311   4.127   2.286  0.0563  0.2623  0.0030
 1433poe    c23 8553   6.235   4.242   2.318 -0.5401 -0.3040  0.6467
 1433poe    c23 8554   6.209   4.325   2.191 -0.6100 -0.5686  0.4870
 1433poe     o2 8555   6.338   4.371   2.160 -0.6309 -0.4279  0.6069
 1433poe    c31 8556   6.342   4.413   2.025  0.7327  0.5371  0.9244
 1434poe    c31 8557   5.563   4.146   1.237 -0.4503  0.1696  0.8859
 1434poe     o2 8558   5.486   4.245   1.301 -0.6802  0.4028  0.2559
 1434poe    c23 8559   5.555   4.367   1.316  0.4893 -0.1995 -0.1060
 1434poe    c23 8560   5.503   4.451   1.197 -0.6963 -0.9926 -0.1607
 1434poe     o2 8561   5.366   4.484   1.196 -0.4449  0.0961  0.0039
 1434poe    c23 8562   5.336   4.576   1.094 -0.1732 -0.0419 -0.2016
 1434poe    c23 8563   5.195   4.634   1.115 -0.5014 -0.8103 -0.2729
 1434poe     o2 8564   5.167   4.730   1.017  0.2416 -0.4419 -0.1296
 1434poe    c23 8565   5.057   4.809   1.057  0.0790 -0.4840 -0.4858
 1434poe    c23 8566   4.921   4.797   0.986 -0.3531  0.6165  0.1264
 1434poe     o2 8567   4.955   4.829   0.853  0.4910  0.8673  0.4002
 1434poe    c31 8568   4.866   4.926   0.805 -0.4732 -0.0926  0.2113
 1435poe    c31 8569   0.059   5.864   2.332 -0.4420 -0.4414  0.0408
 1435poe     o2 8570   0.004   5.883   2.461  0.1362  0.1102  0.2138
 1435poe    c23 8571  -0.055   5.764   2.506  0.5304 -0.2060 -0.1018
 1435poe    c23 8572  -0.088   5.766   2.657 -0.6188 -0.0829 -0.3454
 1435poe     o2 8573  -0.205   5.837   2.690 -0.0460  0.6839  0.0538
 1435poe    c23 8574  -0.218   5.853   2.830  0.6221  0.7842  0.1092
 1435poe    c23 8575  -0.356   5.913   2.864  0.3497 -0.1698  0.7183
 1435poe     o2 8576  -0.387   6.031   2.793  0.1281 -0.3285  0.5476
 1435poe    c23 8577  -0.524   6.039   2.762  0.2158 -0.2773  0.1742
 1435poe    c23 8578  -0.556   6.057   2.612  0.7638 -0.6374  0.0131
 1435poe     o2 8579  -0.468   6.157   2.565 -0.1429  0.4127  0.4903
 1435poe    c31 8580  -0.508   6.203   2.439 -0.4081 -0.4478  0.2529
 1436poe    c31 8581   5.502   6.883   6.060 -0.7571 -0.2854  0.5359
 1436poe     o2 8582   5.410   6.962   5.987 -0.0034 -0.5451 -0.7242
 1436poe    c23 8583   5.279   6.926   6.023  0.2334 -0.5553  0.1439
 1436poe    c23 8584   5.189   7.042   6.070  0.2658 -0.3592 -0.2740
 1436poe     o2 8585   5.132   7.125   5.972  0.7492  0.3260  0.0164
 1436poe    c23 8586   5.210   7.242   5.971  0.7020  0.3588  0.1634
 1436poe    c23 8587   5.138   7.378   5.969 -0.1255 -0.0708  0.3879
 1436poe     o2 8588   5.057   7.374   5.854 -0.0404 -0.2231  0.3331
 1436poe    c23 8589   5.013   7.508   5.852 -0.5260 -0.3885 -0.3487
 1436poe    c23 8590   4.899   7.528   5.750 -0.4319  0.8307 -0.2328
 1436poe     o2 8591   4.800   7.429   5.769  0.2705  0.0734 -0.4647
 1436poe    c31 8592   4.702   7.448   5.669 -0.5017 -0.6619  0.1333
 1437poe    c31 8593   1.014   3.078   4.402 -0.2300  0.3634 -0.0481
 1437poe     o2 8594   0.933   3.184   4.357  0.0380  0.4385 -0.3574
 1437poe    c23 8595   1.020   3.292   4.331  0.7076 -0.1241 -0.4773
 1437poe    c23 8596   1.029   3.347   4.187 -0.3683  0.1188 -0.4606
 1437poe     o2 8597   1.126   3.279   4.111  0.0603  0.1915  0.0141
 1437poe    c23 8598   1.207   3.384   4.061  0.1818 -0.0104 -0.2171
 1437poe    c23 8599   1.318   3.328   3.970 -0.2917 -0.7130 -0.3794
 1437poe     o2 8600   1.269   3.282   3.846  0.3870  0.4205 -1.0875
 1437poe    c23 8601   1.362   3.227   3.755  0.3256 -0.2946 -0.7266
 1437poe    c23 8602   1.284   3.253   3.624 -0.1499 -0.2183 -0.4317
 1437poe     o2 8603   1.159   3.195   3.653 -0.3296  0.4556  0.1802
 1437poe    c31 8604   1.099   3.156   3.531 -0.1315 -0.2066  0.2903
 1438poe    c31 8605   2.207   0.124   2.896  0.0595  0.5633  0.0802
 1438poe     o2 8606   2.331   0.112   2.963  0.2388 -0.3965 -0.3895
 1438poe    c23 8607   2.313   0.111   3.103  0.2231  0.4439 -0.3788
 1438poe    c23 8608   2.455   0.129   3.161  0.0640  0.1230  0.1162
 1438poe     o2 8609   2.527   0.022   3.105 -0.1953 -0.0805  0.1734
 1438poe    c23 8610   2.653   0.015   3.167 -0.2584 -0.1403  0.2960
 1438poe    c23 8611   2.742  -0.082   3.086  0.2659  0.4762  0.1282
 1438poe     o2 8612   2.735  -0.026   2.957 -0.3837 -0.3488 -0.2055
 1438poe    c23 8613   2.849  -0.055   2.879 -0.0931  0.2508 -0.0163
 1438poe    c23 8614   2.809  -0.046   2.730  0.1576 -0.0358 -0.1012
 1438poe     o2 8615   2.732  -0.151   2.676 -0.2398  0.2091 -0.0112
 1438poe    c31 8616   2.742  -0.144   2.535 -0.7825  0.1315 -0.0549
 1439poe    c31 8617   4.908   1.888   2.665  0.0871  0.4043 -0.2904
 1439poe     o2 8618   5.022   1.928   2.594  0.1637 -0.0146 -0.4089
 1439poe    c23 8619   5.000   2.052   2.530 -0.1556 -0.3609 -0.9693
 1439poe    c23 8620   5.095   2.042   2.409  0.4818 -0.0292 -0.5026
 1439poe     o2 8621   5.217   2.005   2.469  0.4352  0.5180 -0.0631
 1439poe    c23 8622   5.325   2.021   2.379  0.2165 -0.3546 -0.4903
 1439poe    c23 8623   5.443   1.992   2.472 -0.2090  0.2338  0.2491
 1439poe     o2 8624   5.406   1.873   2.538  0.5032  0.0034  0.2435
 1439poe    c23 8625   5.508   1.832   2.627  0.9130 -0.2089 -0.3174
 1439poe    c23 8626   5.474   1.733   2.739  0.5970  0.2159 -0.0359
 1439poe     o2 8627   5.424   1.775   2.865 -0.0301  0.2735 -0.3022
 1439poe    c31 8628   5.402   1.660   2.943  0.4480  0.1413 -0.3627
 1440poe    c31 8629   6.315   3.868   3.608 -0.5743 -0.0134  0.7868
 1440poe     o2 8630   6.201   3.943   3.575 -0.3655  0.0442  0.1938
 1440poe    c23 8631   6.159   3.901   3.447 -0.3443  0.2734  0.1096
 1440poe    c23 8632   6.024   3.973   3.437 -0.4247  0.1404  0.2416
 1440poe     o2 8633   6.037   4.103   3.491  0.0388  0.2259 -0.0782
 1440poe    c23 8634   5.946   4.199   3.442 -0.4996  0.1060  0.6841
 1440poe    c23 8635   5.935   4.310   3.549 -0.2888  0.7095  0.0859
 1440poe     o2 8636   6.066   4.361   3.555 -0.0202 -0.0049  0.5195
 1440poe    c23 8637   6.079   4.460   3.654  0.1848 -0.1114  0.5981
 1440poe    c23 8638   6.204   4.548   3.636 -0.0396  0.0380 -0.2638
 1440poe     o2 8639   6.330   4.487   3.652  0.2373  0.6236 -0.1689
 1440poe    c31 8640   6.406   4.553   3.750  0.4485  0.4591 -0.2181
 1441poe    c31 8641   5.111   3.507   2.844  0.5030  0.2003 -0.1683
 1441poe     o2 8642   5.249   3.488   2.823  0.3710 -0.1129 -0.7893
 1441poe    c23 8643   5.297   3.549   2.705  0.0049  0.3123 -0.7234
 1441poe    c23 8644   5.422   3.477   2.652  0.1308  0.2557 -0.3530
 1441poe     o2 8645   5.512   3.458   2.759 -0.3662  0.4156  0.0912
 1441poe    c23 8646   5.644   3.457   2.710 -0.4374  0.0877 -0.0932
 1441poe    c23 8647   5.732   3.419   2.830  0.1449  0.0835 -0.5218
 1441poe     o2 8648   5.703   3.288   2.872  0.3618  0.0055 -0.6094
 1441poe    c23 8649   5.782   3.246   2.981 -0.2604 -0.0200 -0.1635
 1441poe    c23 8650   5.779   3.093   2.995 -0.2150  0.0201  0.3126
 1441poe     o2 8651   5.646   3.047   2.980 -0.0995 -0.1783 -0.1063
 1441poe    c31 8652   5.621   2.915   3.024  0.2924 -0.3680 -0.4417
 1442poe    c31 8653   6.736   1.463   3.859 -0.5808  0.1473 -0.0600
 1442poe     o2 8654   6.670   1.350   3.911 -0.3816  0.0585 -0.0017
 1442poe    c23 8655   6.736   1.228   3.883 -0.0936  0.1415  0.3055
 1442poe    c23 8656   6.660   1.111   3.949  0.2501 -0.3750 -0.2081
 1442poe     o2 8657   6.624   1.155   4.078  0.0387 -0.0269 -0.3846
 1442poe    c23 8658   6.539   1.066   4.146 -0.4354  0.3565 -0.4670
 1442poe    c23 8659   6.480   1.143   4.265  0.0787  0.2592 -0.1443
 1442poe     o2 8660   6.458   1.272   4.211  0.1707  0.3499  0.0346
 1442poe    c23 8661   6.402   1.372   4.294  0.1406  0.5564 -0.2335
 1442poe    c23 8662   6.376   1.503   4.217  0.0475  0.4135 -0.4454
 1442poe     o2 8663   6.471   1.502   4.113  0.0892  0.1833 -0.4058
 1442poe    c31 8664   6.495   1.632   4.064  0.3956  0.3388  0.1520
 1443poe    c31 8665   1.189   0.642   3.915 -0.1619 -0.2926  0.3423
 1443poe     o2 8666   1.191   0.501   3.906  0.5666 -0.2370 -0.4408
 1443poe    c23 8667   1.148   0.454   4.032  1.1604 -0.7466 -0.4184
 1443poe    c23 8668   1.133   0.303   4.010 -0.2773 -0.6057 -0.5310
 1443poe     o2 8669   1.257   0.266   3.954  0.1617  0.1048 -0.0441
 1443poe    c23 8670   1.310   0.144   3.999  0.3242  0.1319 -0.1613
 1443poe    c23 8671   1.380   0.074   3.881  0.0075  0.1286 -0.3476
 1443poe     o2 8672   1.460   0.174   3.823  0.0377  0.1086 -0.3407
 1443poe    c23 8673   1.531   0.134   3.708  0.1558  0.1698 -0.2896
 1443poe    c23 8674   1.641   0.234   3.667 -0.2500  0.6932 -0.1144
 1443poe     o2 8675   1.598   0.360   3.620  0.1205  1.0120  0.3864
 1443poe    c31 8676   1.694   0.414   3.532  0.1694 -0.0989 -0.2677
 1444poe    c31 8677   0.286   3.505   0.065  0.2322 -0.5457 -0.0835
 1444poe     o2 8678   0.330   3.544  -0.062 -0.4252  0.4174 -0.0250
 1444poe    c23 8679   0.322   3.443  -0.160 -0.3213  0.3456  0.0407
 1444poe    c23 8680   0.401   3.480  -0.287 -0.2237 -0.2028 -0.0605
 1444poe     o2 8681   0.538   3.512  -0.267 -0.2656  0.0468 -0.1690
 1444poe    c23 8682   0.614   3.478  -0.381 -0.1932  0.8331 -0.3562
 1444poe    c23 8683   0.765   3.467  -0.352 -0.4144 -0.1141  0.4994
 1444poe     o2 8684   0.816   3.587  -0.299 -0.0953  0.0675 -0.1998
 1444poe    c23 8685   0.939   3.573  -0.231 -0.5172  0.2727  0.6195
 1444poe    c23 8686   0.978   3.705  -0.163 -0.0523  0.3667  0.1764
 1444poe     o2 8687   0.876   3.735  -0.070  0.0156  0.6658  0.1559
 1444poe    c31 8688   0.943   3.772   0.049 -0.3779  0.0404  0.5792
 1445poe    c31 8689   1.794   3.875   2.904 -0.2231 -0.3184  0.5347
 1445poe     o2 8690   1.814   3.869   2.764 -0.2278 -0.2330  0.5301
 1445poe    c23 8691   1.714   3.800   2.692 -0.1592  0.1455  0.0643
 1445poe    c23 8692   1.758   3.805   2.545 -0.1381 -0.0827  0.0631
 1445poe     o2 8693   1.813   3.927   2.501  0.0209 -0.1590  0.0520
 1445poe    c23 8694   1.834   3.916   2.362  0.1840 -0.0291  0.0649
 1445poe    c23 8695   1.892   4.051   2.316  0.3216 -0.4136 -0.9288
 1445poe     o2 8696   2.021   4.063   2.372  0.1351  0.2298 -0.6347
 1445poe    c23 8697   2.111   4.151   2.308 -0.1007  0.7726 -0.2228
 1445poe    c23 8698   2.215   4.202   2.410  0.2533  0.3175 -0.3588
 1445poe     o2 8699   2.154   4.280   2.509  0.4431 -0.0157  0.0229
 1445poe    c31 8700   2.233   4.320   2.619 -0.1538 -0.4175  0.6126
 1446poe    c31 8701   0.047   5.919   3.193  0.0848 -0.0677  0.1821
 1446poe     o2 8702   0.180   5.911   3.146  0.0854  0.1203  0.1503
 1446poe    c23 8703   0.212   5.777   3.118 -0.6619  0.0661 -0.4699
 1446poe    c23 8704   0.335   5.766   3.026 -0.3345  0.7128 -0.1100
 1446poe     o2 8705   0.446   5.825   3.089 -0.0264  0.3298 -0.2919
 1446poe    c23 8706   0.547   5.854   2.995 -0.2416  0.0102 -0.6213
 1446poe    c23 8707   0.646   5.961   3.045 -0.1234 -0.1642 -0.4846
 1446poe     o2 8708   0.601   6.094   3.033 -0.5067 -0.2272  0.1805
 1446poe    c23 8709   0.694   6.190   3.078 -0.3422  0.0226 -0.6637
 1446poe    c23 8710   0.639   6.331   3.108 -0.0129 -0.0449  0.3061
 1446poe     o2 8711   0.562   6.312   3.224 -0.3521  0.2281  0.1238
 1446poe    c31 8712   0.504   6.432   3.272 -0.0174  0.5538 -0.2810
 1447poe    c31 8713   0.538   6.691   5.211  0.6990  0.0599 -0.7736
 1447poe     o2 8714   0.413   6.628   5.198  0.7696 -0.3017  0.2252
 1447poe    c23 8715   0.306   6.713   5.164  0.0844 -0.9380  0.7603
 1447poe    c23 8716   0.178   6.641   5.118 -0.2268  0.0847 -0.0279
 1447poe     o2 8717   0.103   6.590   5.226 -0.2116  0.1527  0.0147
 1447poe    c23 8718  -0.032   6.565   5.192 -0.1444  0.2590 -0.3309
 1447poe    c23 8719  -0.106   6.549   5.326  0.3107 -0.4387 -0.1533
 1447poe     o2 8720  -0.015   6.493   5.418  0.6423  0.2574 -0.0440
 1447poe    c23 8721  -0.084   6.451   5.533  0.4025  0.1902 -0.2107
 1447poe    c23 8722   0.001   6.372   5.634  0.0554 -0.2495 -0.2583
 1447poe     o2 8723   0.076   6.434   5.736  0.1806  0.3690 -0.7249
 1447poe    c31 8724   0.194   6.362   5.759  0.2156  0.5169 -0.4373
 1448poe    c31 8725   6.675   5.471   1.686 -0.0651  0.6596 -0.0937
 1448poe     o2 8726   6.617   5.365   1.758 -0.2352  0.6602 -0.2307
 1448poe    c23 8727   6.512   5.423   1.832 -0.2791  0.4134 -0.0988
 1448poe    c23 8728   6.467   5.301   1.915  0.7810  0.4405  0.5404
 1448poe     o2 8729   6.441   5.196   1.825 -0.2127  0.3703  0.8960
 1448poe    c23 8730   6.372   5.083   1.876 -0.0586  0.0724  0.4519
 1448poe    c23 8731   6.367   4.952   1.795  0.4641  0.0911  0.3808
 1448poe     o2 8732   6.488   4.926   1.727  0.1973 -0.5349  0.1394
 1448poe    c23 8733   6.473   4.789   1.698  1.0909 -0.4042 -0.9948
 1448poe    c23 8734   6.608   4.721   1.670  1.1237 -0.7136 -0.1112
 1448poe     o2 8735   6.677   4.714   1.793  0.2130  0.0117  0.4592
 1448poe    c31 8736   6.818   4.704   1.781  0.1615  0.0261 -0.2041
 1449poe    c31 8737   6.117   2.961   5.738 -0.0978  0.2666  0.1662
 1449poe     o2 8738   6.200   2.922   5.844 -0.0884  0.1014  0.0974
 1449poe    c23 8739   6.168   2.794   5.896 -0.2376  0.1291  0.0729
 1449poe    c23 8740   6.249   2.783   6.026  0.3719  0.7021 -0.2467
 1449poe     o2 8741   6.260   2.910   6.086 -0.5198  0.5702  0.2221
 1449poe    c23 8742   6.359   2.896   6.185 -0.4526  0.8937  0.2004
 1449poe    c23 8743   6.390   3.020   6.272  0.2089  0.5182  0.5068
 1449poe     o2 8744   6.433   3.122   6.186  0.3925 -0.3916 -0.5059
 1449poe    c23 8745   6.387   3.254   6.207  0.8761 -0.3019  0.0184
 1449poe    c23 8746   6.479   3.352   6.131  0.0212 -0.0826 -0.7419
 1449poe     o2 8747   6.435   3.346   5.996 -0.2255 -0.3260 -0.6518
 1449poe    c31 8748   6.466   3.462   5.923 -0.3570  0.2535  0.2036
 1450poe    c31 8749   0.497   2.514   1.841 -0.0066 -0.0381  0.3503
 1450poe     o2 8750   0.435   2.612   1.761 -0.2464 -0.7009 -0.2836
 1450poe    c23 8751   0.463   2.602   1.623  0.4206  0.3616 -0.2380
 1450poe    c23 8752   0.370   2.700   1.550  0.0829 -0.0817 -0.4043
 1450poe     o2 8753   0.231   2.685   1.572  0.3443 -0.8257  0.8191
 1450poe    c23 8754   0.159   2.639   1.460 -0.1382 -0.1129  0.8326
 1450poe    c23 8755   0.017   2.610   1.514 -0.6230 -0.4389 -0.5808
 1450poe     o2 8756  -0.020   2.707   1.609  0.1591 -0.9514  0.2651
 1450poe    c23 8757  -0.126   2.665   1.692 -0.3771 -0.2567 -0.0566
 1450poe    c23 8758  -0.223   2.775   1.740 -0.0090  0.1825 -0.3079
 1450poe     o2 8759  -0.149   2.865   1.820 -0.7422 -0.0453  0.6427
 1450poe    c31 8760  -0.211   2.989   1.845 -0.4542  0.2645 -0.1585
 1451poe    c31 8761   5.135   2.699   5.780 -0.1807 -0.0218 -0.2193
 1451poe     o2 8762   5.118   2.560   5.800  0.4923 -0.1389 -0.4146
 1451poe    c23 8763   5.248   2.506   5.801  0.4503 -0.2411 -0.4395
 1451poe    c23 8764   5.260   2.353   5.794 -0.8957 -0.3630 -0.3002
 1451poe     o2 8765   5.219   2.296   5.917  0.1669  0.1911  0.3271
 1451poe    c23 8766   5.265   2.165   5.943 -0.1635  0.1213  0.5584
 1451poe    c23 8767   5.416   2.143   5.964  0.0321  0.3640 -0.5142
 1451poe     o2 8768   5.492   2.132   5.846 -0.1428  0.0242 -0.5966
 1451poe    c23 8769   5.629   2.107   5.866 -0.3004 -0.0346  0.5173
 1451poe    c23 8770   5.701   2.135   5.733 -0.6219  0.0747  0.3653
 1451poe     o2 8771   5.674   2.062   5.615  0.7863  0.1218 -0.0130
 1451poe    c31 8772   5.776   2.073   5.518  0.6812 -0.1627 -0.1544
 1452poe    c31 8773   0.469   3.310   0.340 -0.5375 -0.0671 -0.3513
 1452poe     o2 8774   0.356   3.328   0.423 -0.4483 -0.5035 -0.1317
 1452poe    c23 8775   0.317   3.228   0.514 -0.6476 -0.2340  0.0789
 1452poe    c23 8776   0.266   3.282   0.649  0.0889  0.5241  0.0619
 1452poe     o2 8777   0.347   3.349   0.744  0.0697  0.1484  0.3489
 1452poe    c23 8778   0.258   3.380   0.848  0.2117 -1.0367  0.8369
 1452poe    c23 8779   0.317   3.450   0.972 -0.1056 -0.0540  0.4482
 1452poe     o2 8780   0.396   3.363   1.051  0.2468  0.1287  0.3005
 1452poe    c23 8781   0.397   3.411   1.183 -0.6899  0.4458  0.2031
 1452poe    c23 8782   0.440   3.310   1.291  0.3820  0.1083 -0.5239
 1452poe     o2 8783   0.575   3.267   1.290  0.3152 -0.0906 -0.8636
 1452poe    c31 8784   0.597   3.165   1.384  0.8938  0.3906 -0.4720
 1453poe    c31 8785   1.998   1.049   4.948  0.2564 -0.3898  0.5007
 1453poe     o2 8786   1.894   1.059   5.042  0.1457 -0.3852  0.3783
 1453poe    c23 8787   1.844   0.928   5.054 -0.2476 -0.2639  0.0885
 1453poe    c23 8788   1.722   0.922   5.148  0.0687  0.2479  0.5304
 1453poe     o2 8789   1.654   1.042   5.116  0.1052  0.1176 -0.0487
 1453poe    c23 8790   1.541   1.054   5.199 -0.0003 -0.3449 -0.1230
 1453poe    c23 8791   1.472   1.190   5.178 -0.0676 -0.5015 -0.9806
 1453poe     o2 8792   1.573   1.289   5.189 -0.1781 -0.4957  0.0846
 1453poe    c23 8793   1.526   1.420   5.211  0.2444 -0.3688  0.2522
 1453poe    c23 8794   1.634   1.529   5.218 -0.8283  0.7020  0.3088
 1453poe     o2 8795   1.717   1.510   5.330 -0.9246  0.4702  0.3406
 1453poe    c31 8796   1.807   1.618   5.340 -0.5076  0.1845 -0.2328
 1454poe    c31 8797   4.961   1.292   4.157  0.7688 -0.4228  0.3841
 1454poe     o2 8798   4.866   1.198   4.203  0.0965  0.1646  0.2221
 1454poe    c23 8799   4.744   1.193   4.133  0.1698  0.0775  0.0982
 1454poe    c23 8800   4.641   1.115   4.217 -0.0491 -0.0473 -0.2840
 1454poe     o2 8801   4.713   1.010   4.279 -0.0815  0.3556  0.4428
 1454poe    c23 8802   4.633   0.934   4.366 -0.1502 -0.4776 -0.3341
 1454poe    c23 8803   4.729   0.821   4.408  0.1920 -0.0681 -0.0039
 1454poe     o2 8804   4.858   0.876   4.426  0.2294 -0.2250  0.2151
 1454poe    c23 8805   4.876   0.922   4.558 -0.1099  0.1917  0.1189
 1454poe    c23 8806   5.023   0.967   4.549 -0.1463  0.3065  0.0921
 1454poe     o2 8807   5.037   1.047   4.433 -0.3284  0.2543  0.0326
 1454poe    c31 8808   5.152   1.122   4.466  0.0408 -0.3983  0.2394
 1455poe    c31 8809   0.255   5.258   2.171  0.1627  0.1252  0.4771
 1455poe     o2 8810   0.179   5.192   2.270 -0.6317  0.1015 -0.1401
 1455poe    c23 8811   0.048   5.244   2.267 -0.7461 -0.1449  0.5121
 1455poe    c23 8812  -0.061   5.175   2.352 -1.0109  0.1766  0.4380
 1455poe     o2 8813  -0.003   5.150   2.478 -0.1957  0.5532  0.1441
 1455poe    c23 8814  -0.097   5.074   2.550  0.0091  0.0193 -0.1517
 1455poe    c23 8815  -0.021   5.029   2.676 -0.2923  0.1964  0.0918
 1455poe     o2 8816   0.090   4.952   2.636 -0.0043  0.5009  0.3042
 1455poe    c23 8817   0.184   4.919   2.736  0.0332  0.6978  0.3347
 1455poe    c23 8818   0.324   4.877   2.688 -0.2081  0.3054 -0.0312
 1455poe     o2 8819   0.402   4.976   2.624  0.0701 -0.2178 -0.5128
 1455poe    c31 8820   0.528   4.917   2.602  0.6751  0.8479  0.0053
 1456poe    c31 8821   3.539   2.687   2.986 -0.0883 -0.1160 -0.0301
 1456poe     o2 8822   3.635   2.657   3.086 -0.0830 -0.0262 -0.0088
 1456poe    c23 8823   3.767   2.683   3.044 -0.0464 -0.3086 -0.0679
 1456poe    c23 8824   3.870   2.587   3.106  0.0258 -0.3842 -0.3047
 1456poe     o2 8825   3.904   2.635   3.234 -0.4677 -0.2925 -0.2032
 1456poe    c23 8826   4.025   2.579   3.280 -0.2304  0.5993  0.2751
 1456poe    c23 8827   4.049   2.649   3.415  0.5444  0.7731  0.0535
 1456poe     o2 8828   3.934   2.632   3.494  0.5057  0.3456 -0.0949
 1456poe    c23 8829   3.943   2.694   3.620  0.2037  0.8759 -0.3316
 1456poe    c23 8830   3.849   2.661   3.738  0.5950  0.2779 -0.1825
 1456poe     o2 8831   3.717   2.701   3.709  0.5262  0.2503  0.0934
 1456poe    c31 8832   3.618   2.627   3.777  0.0588  0.7582 -0.0304
 1457poe    c31 8833   2.266   0.238   1.627  0.3855 -0.0405  0.3974
 1457poe     o2 8834   2.391   0.272   1.570  0.1896  0.0386  0.0134
 1457poe    c23 8835   2.447   0.165   1.497  0.5292 -0.0302  0.3728
 1457poe    c23 8836   2.574   0.204   1.420  0.6058 -0.5193  0.2474
 1457poe     o2 8837   2.532   0.310   1.336  0.3042 -0.6188  0.2736
 1457poe    c23 8838   2.523   0.288   1.197  0.3781  0.3835  0.1022
 1457poe    c23 8839   2.430   0.384   1.121 -0.2292  0.0211  0.3796
 1457poe     o2 8840   2.296   0.394   1.162 -0.3251 -0.1022  0.1006
 1457poe    c23 8841   2.235   0.500   1.092  0.6939  0.6938  0.3998
 1457poe    c23 8842   2.089   0.529   1.131  0.5293  0.3255  0.0655
 1457poe     o2 8843   2.089   0.612   1.245 -0.4752 -0.0011  0.3152
 1457poe    c31 8844   1.965   0.651   1.298 -0.5043 -0.4665  0.6007
 1458poe    c31 8845   2.086   4.603   3.062  0.1384  1.2750 -0.3887
 1458poe     o2 8846   1.957   4.654   3.085 -0.2164  0.1299  0.2439
 1458poe    c23 8847   1.881   4.550   3.143 -0.0133 -0.2830 -0.2229
 1458poe    c23 8848   1.730   4.577   3.129  0.0143  0.0301  0.0680
 1458poe     o2 8849   1.720   4.713   3.165 -0.0651  0.0366  0.0204
 1458poe    c23 8850   1.586   4.748   3.190 -0.0476  0.1068  0.0148
 1458poe    c23 8851   1.508   4.792   3.064 -0.3391 -0.2115  0.0838
 1458poe     o2 8852   1.582   4.899   3.010 -0.0469 -0.1617  0.5724
 1458poe    c23 8853   1.511   4.981   2.920  0.5404  0.5054  0.7140
 1458poe    c23 8854   1.597   5.073   2.831  0.3352  0.0284  0.0224
 1458poe     o2 8855   1.683   5.009   2.739  0.0820  0.3588 -0.4515
 1458poe    c31 8856   1.760   5.113   2.682  0.2584  0.1988 -0.5041
 1459poe    c31 8857   5.480   1.202   2.222  0.4059  0.2726  0.0927
 1459poe     o2 8858   5.531   1.166   2.096  0.1038 -0.0806  0.0698
 1459poe    c23 8859   5.590   1.038   2.108 -0.0490 -0.1913 -0.3416
 1459poe    c23 8860   5.625   0.965   1.977  1.1514 -0.2966  0.0315
 1459poe     o2 8861   5.725   1.031   1.902  0.2590  0.4757 -0.5025
 1459poe    c23 8862   5.675   1.088   1.784 -0.1495  0.3066 -0.4142
 1459poe    c23 8863   5.779   1.165   1.699  0.4572 -0.0538 -0.0069
 1459poe     o2 8864   5.828   1.286   1.750 -0.1691  0.2383 -0.0879
 1459poe    c23 8865   5.939   1.272   1.835  0.0138 -0.0105 -0.3663
 1459poe    c23 8866   5.984   1.401   1.906 -0.2639 -0.1342  0.0417
 1459poe     o2 8867   5.874   1.456   1.974  0.3680  0.1704  0.8363
 1459poe    c31 8868   5.907   1.591   1.998  0.3077  0.3390  0.0133
 1460poe    c31 8869   2.446   0.171   1.999 -0.0004 -0.1176 -0.7706
 1460poe     o2 8870   2.583   0.176   1.964  0.1815 -0.0476 -0.0754
 1460poe    c23 8871   2.640   0.127   2.083  0.1348 -0.2401 -0.1316
 1460poe    c23 8872   2.787   0.171   2.097  0.1894 -0.5162  0.1761
 1460poe     o2 8873   2.850   0.129   1.978  0.0887 -0.5688  0.1411
 1460poe    c23 8874   2.987   0.100   1.994  0.2884  0.0772 -0.3524
 1460poe    c23 8875   3.045   0.047   1.861 -0.2036 -0.2772 -0.4259
 1460poe     o2 8876   3.026   0.152   1.769 -0.0403  0.1170 -0.0085
 1460poe    c23 8877   3.039   0.115   1.634 -0.3807 -0.2036  0.0475
 1460poe    c23 8878   3.049   0.232   1.535  0.2680 -0.0531  0.2905
 1460poe     o2 8879   2.928   0.303   1.548  0.0234 -0.3930 -0.1289
 1460poe    c31 8880   2.910   0.413   1.462  0.2215 -0.3042 -0.0561
 1461poe    c31 8881   1.742   1.539   3.610 -0.1025  0.3438  0.2821
 1461poe     o2 8882   1.827   1.428   3.627 -0.4245 -0.0015 -0.3331
 1461poe    c23 8883   1.876   1.369   3.508  0.4775  0.0584 -0.0010
 1461poe    c23 8884   1.908   1.228   3.561  0.1884  0.0437  0.1392
 1461poe     o2 8885   1.991   1.235   3.674 -0.1444 -0.0274  0.3880
 1461poe    c23 8886   2.036   1.111   3.722 -0.3526 -0.1981  0.1432
 1461poe    c23 8887   2.048   1.091   3.875 -0.1181 -0.4948  0.0865
 1461poe     o2 8888   2.053   1.226   3.915  0.2915 -0.5362  0.1847
 1461poe    c23 8889   2.143   1.246   4.021  0.2121  0.3458  0.0962
 1461poe    c23 8890   2.066   1.251   4.154  0.0917 -0.0085  0.0413
 1461poe     o2 8891   1.980   1.361   4.175 -0.0804 -0.1431  0.0447
 1461poe    c31 8892   1.925   1.349   4.304 -0.1862  0.1953  0.0301
 1462poe    c31 8893   5.993   1.611   0.983 -0.2920 -0.0922 -0.4013
 1462poe     o2 8894   6.113   1.638   0.914 -0.4752  0.0509 -0.6691
 1462poe    c23 8895   6.078   1.677   0.783 -1.0730  0.3054 -0.4351
 1462poe    c23 8896   6.204   1.750   0.733 -0.5163 -0.1580  0.2691
 1462poe     o2 8897   6.322   1.686   0.777 -0.3400 -0.0828 -0.0897
 1462poe    c23 8898   6.440   1.747   0.729 -0.1608 -0.4311 -0.0925
 1462poe    c23 8899   6.556   1.678   0.803  0.0033  0.1737  0.2251
 1462poe     o2 8900   6.511   1.655   0.935 -0.7371 -0.1115 -0.0723
 1462poe    c23 8901   6.595   1.590   1.028 -0.5914 -0.0304 -0.1469
 1462poe    c23 8902   6.609   1.439   1.000  0.0694  0.0602 -0.3033
 1462poe     o2 8903   6.496   1.365   1.039  0.2213  0.1802  0.3826
 1462poe    c31 8904   6.523   1.233   1.079 -0.5146  0.0107  0.3291
 1463poe    c31 8905   5.771   1.948   0.563 -0.0414 -0.3164  0.5015
 1463poe     o2 8906   5.853   1.881   0.470 -0.4133 -0.5208  0.3204
 1463poe    c23 8907   5.783   1.775   0.409 -0.0002 -0.8139  0.3543
 1463poe    c23 8908   5.740   1.648   0.486 -0.3263 -0.7111  0.3427
 1463poe     o2 8909   5.852   1.568   0.514  0.1555 -0.1949 -0.0899
 1463poe    c23 8910   5.882   1.452   0.440  0.2256 -0.0660 -0.2637
 1463poe    c23 8911   6.000   1.361   0.475  0.2587  0.0921  0.0372
 1463poe     o2 8912   6.124   1.421   0.442  0.0021  0.0114 -1.1162
 1463poe    c23 8913   6.229   1.339   0.488 -0.3626 -0.2001 -0.6422
 1463poe    c23 8914   6.369   1.400   0.505 -0.1080 -0.7594 -0.7299
 1463poe     o2 8915   6.443   1.420   0.386 -0.0358  0.1996 -0.5324
 1463poe    c31 8916   6.563   1.484   0.421  0.1287 -0.4160  0.0684
 1464poe    c31 8917   1.967   4.849   4.794  0.7386 -0.3282  0.2207
 1464poe     o2 8918   1.894   4.832   4.675  0.7324 -0.1743  0.2023
 1464poe    c23 8919   1.854   4.699   4.653  0.1327  0.0483 -0.0802
 1464poe    c23 8920   1.779   4.691   4.519  0.3315  0.2413 -0.2041
 1464poe     o2 8921   1.854   4.736   4.409  0.1839  0.2367 -0.3073
 1464poe    c23 8922   1.829   4.673   4.286 -0.2809  0.3539 -0.2758
 1464poe    c23 8923   1.943   4.577   4.247 -0.3320  0.1341  0.1115
 1464poe     o2 8924   2.062   4.652   4.240 -0.2932  0.0887  0.2994
 1464poe    c23 8925   2.170   4.563   4.224 -0.2597  0.0723  0.6029
 1464poe    c23 8926   2.292   4.625   4.153 -0.4150  0.0008  0.2721
 1464poe     o2 8927   2.287   4.648   4.014  0.2347 -1.1884  0.0352
 1464poe    c31 8928   2.415   4.671   3.958 -0.0319 -0.1474 -0.1744
 1465poe    c31 8929   1.618   1.260   2.449  0.1152 -0.8318 -0.0903
 1465poe     o2 8930   1.586   1.165   2.548  0.1163 -0.1392  0.5840
 1465poe    c23 8931   1.696   1.157   2.637  0.5754 -0.6726 -0.0270
 1465poe    c23 8932   1.668   1.075   2.764  0.1556 -0.8446 -0.2294
 1465poe     o2 8933   1.540   1.118   2.806  0.1703 -1.1332  0.1188
 1465poe    c23 8934   1.518   1.030   2.913  0.1381 -0.3575  0.7620
 1465poe    c23 8935   1.382   1.024   2.986 -0.2023  0.0820  0.1739
 1465poe     o2 8936   1.277   0.973   2.907 -0.2120 -0.1473  0.3347
 1465poe    c23 8937   1.161   0.932   2.975 -0.7210  0.0830 -0.3872
 1465poe    c23 8938   1.159   0.808   3.067  0.1252 -0.0909 -0.5998
 1465poe     o2 8939   1.189   0.696   2.986  1.0604  0.0370 -0.4452
 1465poe    c31 8940   1.163   0.583   3.066  0.1284  1.1924  0.9577
 1466poe    c31 8941   2.069   2.011   3.209 -0.8838  0.1674  0.6595
 1466poe     o2 8942   2.004   2.108   3.130  0.1451  0.2934 -0.0493
 1466poe    c23 8943   2.026   2.228   3.200  0.0232  0.4063 -0.2036
 1466poe    c23 8944   1.970   2.335   3.105 -0.1119  0.3467 -0.1909
 1466poe     o2 8945   1.842   2.282   3.074  0.1841 -0.3662 -0.2208
 1466poe    c23 8946   1.774   2.354   2.973  0.0824 -0.5864 -0.3097
 1466poe    c23 8947   1.638   2.298   2.929 -0.1956 -0.1087 -0.0653
 1466poe     o2 8948   1.665   2.175   2.865  0.2965 -0.1705  0.2568
 1466poe    c23 8949   1.549   2.105   2.828  0.2973  0.3700 -0.8195
 1466poe    c23 8950   1.573   1.964   2.770  0.7128  0.3311 -0.5548
 1466poe     o2 8951   1.587   1.872   2.876 -0.3925 -0.4165 -1.0408
 1466poe    c31 8952   1.600   1.739   2.833  0.2534 -0.8156  0.3304
 1467poe    c31 8953   1.796   5.728   1.691 -0.4240 -0.0255 -0.3370
 1467poe     o2 8954   1.724   5.617   1.738 -0.0641  0.0468  0.4090
 1467poe    c23 8955   1.611   5.658   1.812  0.0322 -0.2773  0.7396
 1467poe    c23 8956   1.533   5.529   1.844 -0.2871 -0.3952 -0.4553
 1467poe     o2 8957   1.630   5.434   1.881 -0.3419 -0.1265  0.4144
 1467poe    c23 8958   1.566   5.310   1.901 -0.6344 -0.1108 -0.3755
 1467poe    c23 8959   1.680   5.208   1.881 -0.5472 -0.0913  0.0173
 1467poe     o2 8960   1.741   5.267   1.768 -0.5197  0.1385  0.1519
 1467poe    c23 8961   1.852   5.184   1.747 -0.7477 -0.0610 -0.2716
 1467poe    c23 8962   1.903   5.232   1.610  0.5239 -0.0556  0.1951
 1467poe     o2 8963   1.897   5.373   1.618  0.2145 -0.0547 -0.0612
 1467poe    c31 8964   1.899   5.419   1.485  0.2097  0.4304  0.1036
 1468poe    c31 8965   4.796   1.174   6.061  0.3087  0.9480 -0.1862
 1468poe     o2 8966   4.845   1.130   5.937  0.2089  0.8886 -0.2045
 1468poe    c23 8967   4.751   1.145   5.833  0.0531 -0.1852 -0.2340
 1468poe    c23 8968   4.788   1.070   5.704  0.0326  0.0217 -0.3614
 1468poe     o2 8969   4.898   1.122   5.633 -0.0620 -0.2529 -0.7166
 1468poe    c23 8970   4.897   1.073   5.501 -0.3833  0.2010 -0.8870
 1468poe    c23 8971   5.003   1.158   5.428  0.3666  0.3927  0.3836
 1468poe     o2 8972   5.123   1.162   5.502  0.7717 -0.0212 -0.2418
 1468poe    c23 8973   5.209   1.272   5.480 -0.1889  0.6892 -0.5095
 1468poe    c23 8974   5.324   1.249   5.581 -0.1937  0.3895 -0.5716
 1468poe     o2 8975   5.267   1.286   5.704  0.0631 -0.0110 -0.3306
 1468poe    c31 8976   5.362   1.270   5.806  0.1770  0.2099 -0.3998
 1469poe    c31 8977   3.940   3.304   3.481  0.5375 -0.9027  0.2418
 1469poe     o2 8978   3.819   3.233   3.486  0.4325 -0.7675 -0.2757
 1469poe    c23 8979   3.833   3.127   3.579  0.1728 -0.3178  0.2821
 1469poe    c23 8980   3.700   3.060   3.620 -0.1540  0.4336  0.4740
 1469poe     o2 8981   3.646   2.985   3.514 -0.5110  0.4098  0.6727
 1469poe    c23 8982   3.514   2.945   3.544 -0.5162  0.0268  0.1577
 1469poe    c23 8983   3.470   2.838   3.443 -0.2699 -0.2519  0.3434
 1469poe     o2 8984   3.535   2.715   3.465 -0.1077 -0.4058 -0.8911
 1469poe    c23 8985   3.499   2.615   3.374 -0.9516 -0.3142 -0.6696
 1469poe    c23 8986   3.578   2.486   3.405  0.1638  0.5625  0.2211
 1469poe     o2 8987   3.716   2.503   3.380  0.3200 -0.0394  0.6410
 1469poe    c31 8988   3.764   2.372   3.364  0.0744 -0.0381 -0.1907
 1470poe    c31 8989   4.360   1.728   6.534 -0.6077 -0.5004 -0.0069
 1470poe     o2 8990   4.377   1.592   6.500  0.0006 -0.4382  0.0323
 1470poe    c23 8991   4.261   1.512   6.508  0.0639 -0.5273  0.0502
 1470poe    c23 8992   4.284   1.393   6.412  0.0054 -0.0139 -0.6054
 1470poe     o2 8993   4.418   1.349   6.410 -0.0171 -0.0921 -0.4022
 1470poe    c23 8994   4.434   1.211   6.390  0.3500 -0.0623 -0.3268
 1470poe    c23 8995   4.580   1.169   6.368  0.3053 -0.1561 -0.4443
 1470poe     o2 8996   4.657   1.185   6.485  0.1840 -0.0798 -0.3750
 1470poe    c23 8997   4.796   1.181   6.460  0.2623  0.4844 -0.0321
 1470poe    c23 8998   4.874   1.181   6.593 -0.6405 -0.3463  0.5113
 1470poe     o2 8999   4.843   1.287   6.681 -0.4705 -0.2956  0.5091
 1470poe    c31 9000   4.930   1.290   6.793  0.1832  0.1623 -0.0006
 1471poe    c31 9001   6.097   6.094   2.791  0.3974  0.0541  0.9468
 1471poe     o2 9002   6.041   6.215   2.746 -0.0345 -0.3207  0.4630
 1471poe    c23 9003   5.935   6.274   2.817  0.1683  0.3695  0.2001
 1471poe    c23 9004   5.898   6.413   2.761  0.1114  0.3737  0.2472
 1471poe     o2 9005   5.869   6.429   2.624  0.5276 -0.1760  0.0931
 1471poe    c23 9006   5.819   6.560   2.613 -0.4139 -0.5341  0.0453
 1471poe    c23 9007   5.763   6.579   2.471  0.0916  0.0748 -0.0758
 1471poe     o2 9008   5.867   6.539   2.385 -0.0529  0.0046 -0.2182
 1471poe    c23 9009   5.826   6.529   2.250 -0.6180  0.2298 -0.0645
 1471poe    c23 9010   5.946   6.467   2.176 -0.6308  0.0897  0.0325
 1471poe     o2 9011   6.054   6.442   2.263 -0.5176 -0.4618 -0.2637
 1471poe    c31 9012   6.169   6.400   2.193  0.0316  0.2134  0.2228
 1472poe    c31 9013   0.699   1.624   1.991 -0.1641  0.5418 -0.3296
 1472poe     o2 9014   0.818   1.646   2.064 -0.2386 -0.1601  0.0083
 1472poe    c23 9015   0.789   1.739   2.166 -0.2696 -0.1787  0.0164
 1472poe    c23 9016   0.899   1.730   2.274 -0.3718 -0.2823  0.1131
 1472poe     o2 9017   1.018   1.753   2.203 -0.4025 -0.8739 -0.1340
 1472poe    c23 9018   1.127   1.741   2.291 -0.1828 -0.6958 -0.3777
 1472poe    c23 9019   1.261   1.723   2.218  0.0297  0.2068 -0.2293
 1472poe     o2 9020   1.242   1.623   2.120  0.1356  0.5419 -0.5932
 1472poe    c23 9021   1.364   1.621   2.049  0.4531  0.6310 -0.0541
 1472poe    c23 9022   1.386   1.507   1.949 -0.1662  0.2408  0.2481
 1472poe     o2 9023   1.325   1.539   1.826  0.0257  0.1873  0.1381
 1472poe    c31 9024   1.338   1.430   1.737 -0.8883 -0.2981  0.5903
 1473poe    c31 9025   1.075   4.796   0.555 -0.0581  0.2166  0.3318
 1473poe     o2 9026   1.133   4.668   0.563 -0.2271  0.0902 -0.3656
 1473poe    c23 9027   1.200   4.629   0.446  0.2878  0.3940 -0.1783
 1473poe    c23 9028   1.291   4.509   0.475 -0.4660  0.0279  0.7220
 1473poe     o2 9029   1.212   4.398   0.512 -0.6308  0.1700  0.7934
 1473poe    c23 9030   1.274   4.301   0.594 -0.0088 -0.5123 -0.4691
 1473poe    c23 9031   1.190   4.174   0.570  0.0348 -0.6240 -0.0394
 1473poe     o2 9032   1.058   4.204   0.609  0.1097  0.0117 -0.2681
 1473poe    c23 9033   0.977   4.089   0.600  0.1528 -0.0872  0.5272
 1473poe    c23 9034   0.831   4.136   0.622  0.2670  0.4675  0.1415
 1473poe     o2 9035   0.768   4.194   0.511  0.0638  0.6730  0.3644
 1473poe    c31 9036   0.634   4.208   0.554 -0.0710  0.2261  0.0926
 1474poe    c31 9037   2.041   3.664   6.134 -0.0937  0.1739  0.1808
 1474poe     o2 9038   2.082   3.533   6.099 -0.1592  0.2914 -0.3491
 1474poe    c23 9039   2.213   3.545   6.050  0.2313 -0.1334  0.5667
 1474poe    c23 9040   2.283   3.418   5.998  0.1794  0.0458  0.0563
 1474poe     o2 9041   2.321   3.339   6.108  0.1329  0.0134  0.0495
 1474poe    c23 9042   2.428   3.262   6.057  0.0002 -0.5678  0.6388
 1474poe    c23 9043   2.511   3.203   6.173  0.2968  0.2993  0.8810
 1474poe     o2 9044   2.420   3.115   6.235 -0.7017  0.4422 -0.3319
 1474poe    c23 9045   2.482   3.040   6.337 -0.5128  0.1774 -0.6402
 1474poe    c23 9046   2.407   3.060   6.470  0.5807 -0.4647  0.0867
 1474poe     o2 9047   2.430   3.185   6.533 -0.4516 -0.2631  0.0872
 1474poe    c31 9048   2.562   3.207   6.579 -0.0608 -0.2268 -1.0081
 1475poe    c31 9049   4.969   4.062   6.259  0.2715  0.4274  0.6922
 1475poe     o2 9050   5.000   3.939   6.320 -0.1815 -0.2259 -0.3638
 1475poe    c23 9051   5.105   3.875   6.251  0.1350 -0.5994  0.4649
 1475poe    c23 9052   5.128   3.730   6.299  0.5839 -0.4337  0.7605
 1475poe     o2 9053   5.018   3.648   6.266  0.3915  0.0102  0.2916
 1475poe    c23 9054   5.058   3.517   6.299  0.4597 -0.0395  0.0202
 1475poe    c23 9055   4.951   3.407   6.283  0.4514 -0.0187 -0.0630
 1475poe     o2 9056   4.828   3.459   6.325  0.4950  0.3194 -0.3572
 1475poe    c23 9057   4.720   3.378   6.284  0.5514 -0.2882  0.6697
 1475poe    c23 9058   4.584   3.441   6.318  0.1181 -0.5596 -0.5094
 1475poe     o2 9059   4.590   3.575   6.274 -0.3557 -0.3529  0.0334
 1475poe    c31 9060   4.468   3.644   6.284 -0.1029  0.0839  0.1091
 1476poe    c31 9061   1.225   2.858   6.537 -0.6369  0.1938 -0.5785
 1476poe     o2 9062   1.143   2.749   6.572 -0.3939  0.1582 -0.1165
 1476poe    c23 9063   1.151   2.641   6.481  0.1587 -0.1078  0.2449
 1476poe    c23 9064   1.066   2.648   6.353  0.2307 -0.2289  0.1902
 1476poe     o2 9065   0.930   2.624   6.379  0.2161 -0.5265 -0.1566
 1476poe    c23 9066   0.847   2.620   6.265  0.1338 -0.5057 -0.0973
 1476poe    c23 9067   0.710   2.553   6.286  0.2347 -0.3960  0.9682
 1476poe     o2 9068   0.670   2.597   6.414 -0.3209 -0.0144  0.6648
 1476poe    c23 9069   0.532   2.623   6.426 -0.3874 -0.3817  0.6816
 1476poe    c23 9070   0.492   2.747   6.508 -0.5181 -0.3985  0.6436
 1476poe     o2 9071   0.554   2.747   6.635  0.3316  0.3556  0.2399
 1476poe    c31 9072   0.510   2.864   6.700 -0.8129  0.2323 -0.2759
 1477poe    c31 9073   3.646   3.632   1.135 -0.2473  0.1085 -0.2734
 1477poe     o2 9074   3.525   3.560   1.126 -0.4655  0.3944  0.3565
 1477poe    c23 9075   3.418   3.648   1.100  0.0724  1.0065  0.1952
 1477poe    c23 9076   3.288   3.567   1.083  0.4036  0.4394  0.3439
 1477poe     o2 9077   3.294   3.469   1.184 -0.2910 -0.2954 -0.3110
 1477poe    c23 9078   3.163   3.419   1.196 -0.2533 -0.3839 -0.2712
 1477poe    c23 9079   3.165   3.306   1.301  0.2523  0.1736  0.3262
 1477poe     o2 9080   3.245   3.207   1.240  0.5089  0.2371  0.5590
 1477poe    c23 9081   3.275   3.107   1.335 -0.2930 -0.1527  0.4047
 1477poe    c23 9082   3.375   3.006   1.277  0.2025  0.6790 -0.2122
 1477poe     o2 9083   3.502   3.057   1.244  0.2757  0.2929 -0.5315
 1477poe    c31 9084   3.588   2.951   1.205 -0.3451 -0.3412 -0.1834
 1478poe    c31 9085   2.517   3.350   0.631 -0.4464 -0.0937 -0.3098
 1478poe     o2 9086   2.629   3.416   0.574 -0.1860  0.1623  0.4812
 1478poe    c23 9087   2.693   3.501   0.666  0.3641 -0.1524  0.3926
 1478poe    c23 9088   2.800   3.592   0.601 -0.0697 -0.5314 -0.8855
 1478poe     o2 9089   2.903   3.535   0.523  0.0085 -0.7861 -0.6003
 1478poe    c23 9090   2.986   3.441   0.587  0.1595 -0.1666  0.1375
 1478poe    c23 9091   3.088   3.365   0.500  0.2130 -0.3213  0.3338
 1478poe     o2 9092   3.017   3.304   0.395  0.3381  0.2830 -0.1119
 1478poe    c23 9093   3.101   3.225   0.313 -0.3611 -0.7001  0.0896
 1478poe    c23 9094   3.058   3.225   0.165  0.8328 -1.2441 -0.2669
 1478poe     o2 9095   2.920   3.203   0.183  0.5544  0.4280 -0.1610
 1478poe    c31 9096   2.858   3.187   0.058  0.2854  0.2150 -0.0005
 1479poe    c31 9097   1.491   5.329   3.958 -0.2717 -0.0358 -0.1293
 1479poe     o2 9098   1.350   5.330   3.965 -0.2500  0.5208  0.2529
 1479poe    c23 9099   1.295   5.252   3.862  0.2603  0.5158 -0.0158
 1479poe    c23 9100   1.143   5.276   3.863  0.0458 -0.7803  0.0005
 1479poe     o2 9101   1.105   5.282   3.998 -0.4561  0.4232 -0.1877
 1479poe    c23 9102   0.982   5.226   4.039 -0.2716 -0.2358 -0.5266
 1479poe    c23 9103   0.939   5.295   4.170 -0.0196 -0.9727 -0.0472
 1479poe     o2 9104   1.041   5.291   4.267 -0.0544 -0.1107  0.0299
 1479poe    c23 9105   0.982   5.358   4.376 -0.6695 -0.4643 -0.0809
 1479poe    c23 9106   1.086   5.391   4.485 -0.9025  0.1241 -0.0374
 1479poe     o2 9107   1.175   5.493   4.446 -0.1998 -0.3360  0.3461
 1479poe    c31 9108   1.283   5.520   4.534 -0.1086 -0.2088  0.1965
 1480poe    c31 9109   0.510   4.406   5.696  0.1757 -0.3553  0.4293
 1480poe     o2 9110   0.460   4.526   5.750 -0.0320 -0.3332  0.1899
 1480poe    c23 9111   0.371   4.508   5.857 -0.1521  0.0651  0.1592
 1480poe    c23 9112   0.328   4.642   5.920  0.1776  0.3089 -0.1299
 1480poe     o2 9113   0.273   4.726   5.821 -0.2271 -0.0770 -0.2369
 1480poe    c23 9114   0.144   4.767   5.859  0.1123  0.5561  0.2464
 1480poe    c23 9115   0.084   4.865   5.756 -0.1021 -0.7930 -0.9539
 1480poe     o2 9116   0.177   4.946   5.688 -0.1209 -0.4873 -0.6207
 1480poe    c23 9117   0.115   5.044   5.608  0.1642  0.1956 -0.0210
 1480poe    c23 9118   0.231   5.118   5.541  0.1463 -0.3956 -0.7093
 1480poe     o2 9119   0.340   5.028   5.539  0.2150 -0.3172 -0.5068
 1480poe    c31 9120   0.453   5.053   5.458  0.5366 -0.0740  0.0119
 1481poe    c31 9121   6.154   3.586   1.533  0.0233  0.4180 -0.5604
 1481poe     o2 9122   6.245   3.639   1.627  0.3394 -0.8410 -0.1464
 1481poe    c23 9123   6.184   3.691   1.742  0.1600  0.4853 -0.8225
 1481poe    c23 9124   6.293   3.721   1.846 -0.0664  0.0135 -0.4446
 1481poe     o2 9125   6.382   3.828   1.825 -0.0277  0.1231  0.2270
 1481poe    c23 9126   6.451   3.863   1.942  0.1729 -0.4141  0.2685
 1481poe    c23 9127   6.482   4.014   1.950 -0.3071 -0.3208  0.3670
 1481poe     o2 9128   6.526   4.057   1.824  0.0592 -0.1026  0.5676
 1481poe    c23 9129   6.546   4.197   1.821  0.8126 -0.2191 -0.1519
 1481poe    c23 9130   6.597   4.232   1.679 -0.0397 -0.1427 -0.4418
 1481poe     o2 9131   6.501   4.177   1.592 -0.1713 -0.1709 -0.2808
 1481poe    c31 9132   6.539   4.195   1.457  0.8865 -0.2950 -0.0006
 1482poe    c31 9133   0.485   4.863   3.080  0.3871  0.2301 -0.5109
 1482poe     o2 9134   0.619   4.858   3.123  0.1133 -0.5362  0.2928
 1482poe    c23 9135   0.643   4.802   3.251 -0.6732 -0.4634  0.4758
 1482poe    c23 9136   0.782   4.852   3.293 -0.3880 -0.7646 -0.0898
 1482poe     o2 9137   0.876   4.825   3.192 -0.0062  0.2941 -0.0350
 1482poe    c23 9138   0.998   4.884   3.230 -0.4206  1.2540 -0.1641
 1482poe    c23 9139   1.096   4.910   3.115 -0.0037 -0.2588 -0.1822
 1482poe     o2 9140   1.080   5.028   3.038 -0.1404 -0.1158  0.0653
 1482poe    c23 9141   1.175   5.122   3.082  0.2964 -0.5514  0.0644
 1482poe    c23 9142   1.204   5.239   2.985  0.0785  0.0060  0.6635
 1482poe     o2 9143   1.090   5.296   2.925  0.3741  0.0368  0.1344
 1482poe    c31 9144   1.133   5.404   2.844  0.2035 -0.2675 -0.3635
 1483poe    c31 9145   3.933   1.876   6.749 -0.4947 -0.5817  0.2307
 1483poe     o2 9146   3.922   1.875   6.608  0.3863 -0.3082  0.1543
 1483poe    c23 9147   4.008   1.965   6.541 -0.4919  0.4036 -0.0317
 1483poe    c23 9148   3.942   2.018   6.412  0.0304  0.4105 -0.2981
 1483poe     o2 9149   3.904   1.896   6.353 -0.1986  0.3676 -0.0679
 1483poe    c23 9150   3.840   1.918   6.230  0.6438  0.1892 -0.5506
 1483poe    c23 9151   3.844   1.791   6.143 -0.3927 -0.1044 -0.1810
 1483poe     o2 9152   3.758   1.706   6.217 -0.3521  0.0210  0.0120
 1483poe    c23 9153   3.744   1.587   6.143 -0.0607  0.0374 -0.0704
 1483poe    c23 9154   3.660   1.485   6.221 -0.0105  0.0689  0.0248
 1483poe     o2 9155   3.728   1.468   6.343  0.0276  0.0733  0.0039
 1483poe    c31 9156   3.687   1.344   6.395  0.5560 -0.2808 -0.4146
 1484poe    c31 9157   6.546   1.311   6.348 -0.0220 -0.6413  0.2435
 1484poe     o2 9158   6.623   1.212   6.284 -0.2116 -0.1042 -0.8457
 1484poe    c23 9159   6.565   1.088   6.317 -0.5961  0.2308 -0.2432
 1484poe    c23 9160   6.635   0.983   6.229  0.1729 -0.0166  0.6435
 1484poe     o2 9161   6.776   0.976   6.235  0.2205 -0.4374 -0.6178
 1484poe    c23 9162   6.854   0.970   6.352 -0.1680 -0.5068 -0.3602
 1484poe    c23 9163   6.983   0.898   6.308  0.1708 -0.0764 -0.0735
 1484poe     o2 9164   7.033   0.972   6.199  0.5371  0.5668  0.5147
 1484poe    c23 9165   7.150   0.910   6.151  0.1746  0.2093  0.0790
 1484poe    c23 9166   7.187   0.983   6.021  0.6112 -0.0282  0.0675
 1484poe     o2 9167   7.074   1.005   5.939  0.1018  0.3375  0.8535
 1484poe    c31 9168   7.131   1.027   5.812 -0.9638 -0.7279  0.1631
 1485poe    c31 9169   3.242   4.009   5.371  0.4113 -0.5195  0.8679
 1485poe     o2 9170   3.134   3.983   5.459 -0.3630 -0.1744  0.0358
 1485poe    c23 9171   3.129   3.849   5.501  0.4830 -0.0704  0.5065
 1485poe    c23 9172   3.011   3.826   5.597  0.1051 -0.5904 -0.0722
 1485poe     o2 9173   3.016   3.910   5.710  0.0494 -0.3890 -0.2203
 1485poe    c23 9174   2.928   3.852   5.803  0.2569 -0.1238  0.1450
 1485poe    c23 9175   2.922   3.948   5.923 -0.2724 -0.1025  0.1070
 1485poe     o2 9176   2.949   4.080   5.881 -0.0308 -0.0043  0.5637
 1485poe    c23 9177   2.903   4.176   5.973 -0.4341  0.3976 -0.0570
 1485poe    c23 9178   2.934   4.316   5.914  0.1757  0.2087 -0.1972
 1485poe     o2 9179   3.054   4.313   5.840 -0.2502 -0.1879 -0.8810
 1485poe    c31 9180   3.090   4.442   5.796  0.2153  0.0710  0.2185
 1486poe    c31 9181   5.974   6.896   4.328 -0.1510  0.0658 -0.3186
 1486poe     o2 9182   5.844   6.841   4.325 -0.0915 -0.1346  0.5935
 1486poe    c23 9183   5.837   6.705   4.362  0.5673 -0.4251 -0.3257
 1486poe    c23 9184   5.814   6.659   4.507 -0.5041  0.0985 -0.3218
 1486poe     o2 9185   5.698   6.717   4.561 -0.4242  0.1139 -0.1661
 1486poe    c23 9186   5.649   6.662   4.681  0.2965  0.2428  0.1867
 1486poe    c23 9187   5.531   6.743   4.738  0.0250  0.1018 -0.1749
 1486poe     o2 9188   5.410   6.722   4.669 -0.4167 -0.0823  0.6355
 1486poe    c23 9189   5.323   6.831   4.687  0.2353  0.5614 -0.0084
 1486poe    c23 9190   5.215   6.848   4.578  0.0570 -0.0385  0.0700
 1486poe     o2 9191   5.264   6.900   4.456 -0.1568  0.0550  0.0251
 1486poe    c31 9192   5.142   6.939   4.396  0.2037  0.7338 -0.2766
 1487poe    c31 9193   4.733   2.135   5.366 -0.0698  0.0182 -0.0325
 1487poe     o2 9194   4.662   2.202   5.264 -0.1600 -0.2658 -0.1570
 1487poe    c23 9195   4.617   2.117   5.162  0.1490  0.0222 -0.5341
 1487poe    c23 9196   4.496   2.184   5.093 -0.3496 -0.1801  0.1337
 1487poe     o2 9197   4.552   2.305   5.046 -0.3834 -0.1203  0.2471
 1487poe    c23 9198   4.454   2.389   4.988  0.0754 -0.0342 -0.4112
 1487poe    c23 9199   4.538   2.497   4.918 -0.2628  0.2189 -0.4249
 1487poe     o2 9200   4.651   2.528   4.996 -0.1157 -0.2612 -0.4452
 1487poe    c23 9201   4.715   2.648   4.959 -0.6959 -0.0519 -0.7850
 1487poe    c23 9202   4.830   2.620   4.860  0.2478 -0.2801  0.3591
 1487poe     o2 9203   4.906   2.515   4.916 -0.1472 -0.6408  0.2264
 1487poe    c31 9204   5.034   2.518   4.858 -0.2639  0.4324  0.0065
 1488poe    c31 9205   6.797   5.026   1.890  0.7148 -0.0882 -0.1577
 1488poe     o2 9206   6.759   5.017   1.754 -0.2307 -0.7901  0.1463
 1488poe    c23 9207   6.851   5.102   1.689 -0.6217 -0.3839  0.1231
 1488poe    c23 9208   6.811   5.125   1.542 -0.0311 -0.5954 -0.0710
 1488poe     o2 9209   6.671   5.139   1.545  0.0099 -0.1313 -0.2929
 1488poe    c23 9210   6.624   5.167   1.415  0.1841  0.3916 -0.2464
 1488poe    c23 9211   6.476   5.204   1.436  0.1469  0.1044  0.0177
 1488poe     o2 9212   6.403   5.101   1.498  0.5244  0.0475  0.3680
 1488poe    c23 9213   6.269   5.106   1.453  0.6450 -0.3754 -0.0441
 1488poe    c23 9214   6.184   4.983   1.491 -0.0918 -0.0038 -0.4660
 1488poe     o2 9215   6.225   4.866   1.423 -0.0474 -0.6760  0.6972
 1488poe    c31 9216   6.125   4.767   1.418 -0.2626 -0.4224 -0.1598
 1489poe    c31 9217   6.756   4.490   4.291  0.3498 -0.1783 -0.1753
 1489poe     o2 9218   6.698   4.443   4.410 -0.2076 -0.0187 -0.3815
 1489poe    c23 9219   6.786   4.408   4.515 -0.4422  0.4714 -0.0195
 1489poe    c23 9220   6.703   4.361   4.636 -0.0271 -0.3237 -0.0392
 1489poe     o2 9221   6.651   4.236   4.599 -0.3409 -0.2658  0.2071
 1489poe    c23 9222   6.570   4.189   4.705 -0.4740 -0.2764  0.1016
 1489poe    c23 9223   6.535   4.043   4.674 -0.3839 -0.2622 -0.0673
 1489poe     o2 9224   6.522   4.026   4.534  0.3843 -0.0121 -0.1704
 1489poe    c23 9225   6.509   3.894   4.487  0.0294 -0.0346 -0.0127
 1489poe    c23 9226   6.454   3.904   4.343 -0.1205 -0.1713  0.0352
 1489poe     o2 9227   6.551   3.966   4.262 -0.0408 -0.1646  0.1344
 1489poe    c31 9228   6.508   3.986   4.129 -0.4982  0.1118  0.3219
 1490poe    c31 9229   6.994   0.260   2.104  0.5103  0.6000 -0.2704
 1490poe     o2 9230   7.042   0.130   2.130 -0.9663  0.0866  0.0010
 1490poe    c23 9231   6.943   0.030   2.130 -0.5912 -0.2945  0.4987
 1490poe    c23 9232   6.998  -0.107   2.172  0.3709  0.0430  0.3537
 1490poe     o2 9233   7.123  -0.132   2.112  0.1519  0.6620 -0.3669
 1490poe    c23 9234   7.159  -0.258   2.163  0.0991  0.7930 -0.0027
 1490poe    c23 9235   7.311  -0.270   2.141  0.0398  0.5144 -0.2631
 1490poe     o2 9236   7.395  -0.185   2.215  0.3020  0.3246 -0.3435
 1490poe    c23 9237   7.534  -0.194   2.191  0.2702 -0.5138 -0.2236
 1490poe    c23 9238   7.617  -0.179   2.319 -0.2137 -0.1779  0.0526
 1490poe     o2 9239   7.575  -0.290   2.397 -0.6552 -0.1421 -0.1350
 1490poe    c31 9240   7.659  -0.281   2.509 -0.1509  0.0882 -0.5281
 1491poe    c31 9241   5.047   3.391   1.197  0.2680 -0.3464  0.3805
 1491poe     o2 9242   4.951   3.354   1.293 -0.0091  0.2305  0.3366
 1491poe    c23 9243   4.848   3.270   1.246 -0.2726  0.8240 -0.1522
 1491poe    c23 9244   4.740   3.269   1.357  0.1812  0.3420  0.2871
 1491poe     o2 9245   4.794   3.227   1.481 -0.0084  0.3622  0.3759
 1491poe    c23 9246   4.694   3.177   1.567  0.0518 -0.1754  0.1358
 1491poe    c23 9247   4.768   3.094   1.674 -0.4529 -0.1867  0.4784
 1491poe     o2 9248   4.883   3.170   1.701 -0.3704  0.0912 -0.5867
 1491poe    c23 9249   4.952   3.121   1.814  0.3966  1.0639 -0.6198
 1491poe    c23 9250   4.966   3.210   1.939  0.8876 -0.0810  0.1543
 1491poe     o2 9251   5.051   3.319   1.908  0.1167  0.3962 -0.3168
 1491poe    c31 9252   5.096   3.397   2.016  0.0735  0.1252 -0.1031
 1492poe    c31 9253   6.406   6.556   4.468 -0.1622 -0.8381 -0.4655
 1492poe     o2 9254   6.481   6.484   4.563  0.0915  0.0153 -0.0045
 1492poe    c23 9255   6.401   6.375   4.604  0.2997 -0.2674 -0.3459
 1492poe    c23 9256   6.465   6.299   4.722 -0.2729 -0.2867 -0.0462
 1492poe     o2 9257   6.508   6.391   4.820 -0.3636 -0.4449  0.1424
 1492poe    c23 9258   6.575   6.337   4.932  0.0913  0.0647  0.1150
 1492poe    c23 9259   6.611   6.458   5.021  0.2241 -0.0140  0.1678
 1492poe     o2 9260   6.647   6.571   4.946 -0.0086  0.0274  0.1163
 1492poe    c23 9261   6.597   6.692   4.999  0.4392  0.1034  0.3743
 1492poe    c23 9262   6.568   6.798   4.892 -0.7126 -0.2097  0.3623
 1492poe     o2 9263   6.513   6.725   4.785  0.2132 -0.4771  0.0637
 1492poe    c31 9264   6.469   6.809   4.680 -0.5129 -0.1292  0.6360
 1493poe    c31 9265   4.109   0.410   5.130 -0.0909  0.5772  0.3210
 1493poe     o2 9266   4.245   0.376   5.114 -0.1016  0.3448  0.7069
 1493poe    c23 9267   4.301   0.317   5.230  0.5009  0.0204  0.2605
 1493poe    c23 9268   4.454   0.318   5.242  0.5066  0.2979  0.1852
 1493poe     o2 9269   4.494   0.451   5.264 -0.5485  0.5607  0.5894
 1493poe    c23 9270   4.634   0.469   5.261 -0.4623 -0.2444 -0.6727
 1493poe    c23 9271   4.660   0.621   5.264 -0.1492 -0.2986 -0.5331
 1493poe     o2 9272   4.620   0.692   5.149 -0.2064  0.1364 -0.2463
 1493poe    c23 9273   4.672   0.823   5.157  0.5544 -0.1825  0.1141
 1493poe    c23 9274   4.601   0.888   5.038 -0.0557  0.3718  0.7696
 1493poe     o2 9275   4.472   0.832   5.025  0.0661  0.1689  0.4022
 1493poe    c31 9276   4.409   0.909   4.926 -0.2735 -0.0369  0.4583
 1494poe    c31 9277   2.783   3.326   4.930  0.3617  0.2169 -0.2044
 1494poe     o2 9278   2.745   3.320   4.794 -0.6213  0.2455  0.0631
 1494poe    c23 9279   2.608   3.287   4.785 -0.5736 -0.0484  0.3928
 1494poe    c23 9280   2.595   3.220   4.647  0.0492 -0.1178  0.3610
 1494poe     o2 9281   2.656   3.314   4.560 -0.0468 -0.7595 -0.4146
 1494poe    c23 9282   2.684   3.264   4.431  1.3013 -0.6656 -0.1721
 1494poe    c23 9283   2.713   3.385   4.340  0.6413 -0.5012 -0.1692
 1494poe     o2 9284   2.805   3.473   4.400 -0.0091  0.0402  0.0503
 1494poe    c23 9285   2.822   3.600   4.341 -0.0128  0.0509  0.0718
 1494poe    c23 9286   2.961   3.663   4.363  0.2721 -0.3985 -0.4222
 1494poe     o2 9287   2.958   3.696   4.500 -0.5170 -0.2333 -0.4720
 1494poe    c31 9288   3.067   3.782   4.525 -0.4006 -0.4165 -0.3512
 1495poe    c31 9289   6.808   2.902   5.893 -0.4580  0.1333 -0.4089
 1495poe     o2 9290   6.734   2.894   6.013  0.1462  0.2892 -0.0215
 1495poe    c23 9291   6.730   2.762   6.064  0.5272  0.2530 -0.0830
 1495poe    c23 9292   6.833   2.740   6.177  0.3215  0.1479  0.0838
 1495poe     o2 9293   6.829   2.843   6.273  0.6446  0.2613 -0.0231
 1495poe    c23 9294   6.934   2.842   6.367  0.2769 -0.0446  0.3887
 1495poe    c23 9295   6.899   2.966   6.452  0.2820  0.4872 -0.3726
 1495poe     o2 9296   6.891   3.075   6.363 -0.5357  0.4956 -0.2938
 1495poe    c23 9297   6.847   3.198   6.416 -0.9375  0.1245  0.2575
 1495poe    c23 9298   6.901   3.313   6.328 -0.2651 -0.4835 -0.1336
 1495poe     o2 9299   6.926   3.273   6.195  0.7319  0.0939 -0.1322
 1495poe    c31 9300   6.980   3.381   6.123 -0.4234  0.9673  0.2800
 1496poe    c31 9301   4.646   1.836   1.696  0.3344 -0.4273 -0.4702
 1496poe     o2 9302   4.637   1.947   1.784 -0.1374 -0.7191 -0.1452
 1496poe    c23 9303   4.541   1.921   1.884  0.0777  0.2187  0.3126
 1496poe    c23 9304   4.507   2.058   1.944  0.1387  0.1887  0.4148
 1496poe     o2 9305   4.633   2.104   1.989  0.2727  0.4457 -0.2126
 1496poe    c23 9306   4.632   2.236   2.041 -0.0927  0.1431  0.5641
 1496poe    c23 9307   4.763   2.232   2.122 -0.1440  0.1874  0.6489
 1496poe     o2 9308   4.875   2.237   2.037 -0.5878  0.3382  0.0725
 1496poe    c23 9309   4.979   2.288   2.116  0.1655 -0.2649 -0.5195
 1496poe    c23 9310   5.122   2.250   2.072  0.3224 -0.4596  0.1367
 1496poe     o2 9311   5.139   2.117   2.029 -0.6664 -0.0641 -1.5883
 1496poe    c31 9312   5.274   2.082   2.009 -0.3540  0.3417 -0.3168
 1497poe    c31 9313   6.667   2.448   5.463 -0.6431  0.0945 -0.0773
 1497poe     o2 9314   6.762   2.406   5.558 -0.1824 -0.2012 -0.6545
 1497poe    c23 9315   6.725   2.453   5.686  0.5392 -0.5605 -0.3126
 1497poe    c23 9316   6.856   2.424   5.762  0.6574  0.4265 -0.1218
 1497poe     o2 9317   6.896   2.291   5.736  0.2798  0.2371  0.2509
 1497poe    c23 9318   7.014   2.245   5.799  0.6561 -0.2520 -0.7774
 1497poe    c23 9319   7.000   2.092   5.798  0.7633 -0.2787  0.4618
 1497poe     o2 9320   6.992   2.039   5.667  0.2327 -0.2529  0.4825
 1497poe    c23 9321   6.997   1.898   5.662  0.5967 -0.2309  0.1720
 1497poe    c23 9322   6.966   1.861   5.516  0.7813  0.2058  0.0215
 1497poe     o2 9323   6.831   1.880   5.478  0.7078 -0.1080  0.1298
 1497poe    c31 9324   6.808   1.838   5.346  0.0759  0.2121  0.1330
 1498poe    c31 9325   3.972   1.629   5.134  0.2172 -0.0176  0.4950
 1498poe     o2 9326   3.945   1.493   5.106  0.0264  0.0654  0.2684
 1498poe    c23 9327   3.810   1.495   5.066 -0.0222  0.0556  0.4291
 1498poe    c23 9328   3.769   1.366   4.992 -0.9818  0.3556  0.4240
 1498poe     o2 9329   3.797   1.258   5.078  0.2298  0.2336 -0.0961
 1498poe    c23 9330   3.837   1.136   5.020 -0.5139 -0.3765  0.6527
 1498poe    c23 9331   3.913   1.041   5.114  0.1118 -0.4694  0.0575
 1498poe     o2 9332   4.043   1.078   5.155  0.2717 -0.2264 -0.6573
 1498poe    c23 9333   4.110   0.977   5.227 -0.1772  0.0073  0.1094
 1498poe    c23 9334   4.240   1.035   5.287 -0.5876  0.6100  0.4239
 1498poe     o2 9335   4.344   0.946   5.320 -0.1468  0.7201 -0.6207
 1498poe    c31 9336   4.428   1.026   5.400  0.1117 -0.1578 -0.0047
 1499poe    c31 9337   6.397   5.143   1.025  0.1929  0.4253 -0.0442
 1499poe     o2 9338   6.265   5.095   1.019  0.2465  0.1320  0.9186
 1499poe    c23 9339   6.238   4.973   1.083 -0.1099 -0.5464 -0.4805
 1499poe    c23 9340   6.091   4.940   1.054 -0.4765  0.4127  0.2251
 1499poe     o2 9341   6.030   5.056   1.105 -0.4885  0.5821 -0.1676
 1499poe    c23 9342   5.890   5.062   1.093 -0.5216  0.1798 -0.0191
 1499poe    c23 9343   5.837   5.194   1.154 -0.1191  0.4676 -0.2887
 1499poe     o2 9344   5.913   5.299   1.099  0.3707  0.4204  0.2989
 1499poe    c23 9345   5.861   5.420   1.151  0.0223  0.2965  0.2407
 1499poe    c23 9346   5.948   5.542   1.115  0.0717  0.2097  0.0674
 1499poe     o2 9347   6.042   5.583   1.212  0.0087  0.2598  0.1074
 1499poe    c31 9348   6.095   5.711   1.189  0.6021  0.0428  0.2436
 1500poe    c31 9349   4.260   4.050   4.973  0.1365 -0.2479 -0.5188
 1500poe     o2 9350   4.223   3.919   4.938 -0.7708 -0.1478  0.0289
 1500poe    c23 9351   4.323   3.845   4.872 -0.6893 -0.1310  0.1346
 1500poe    c23 9352   4.261   3.714   4.820 -0.0987 -0.2075 -0.3830
 1500poe     o2 9353   4.180   3.730   4.705 -0.2970 -0.2704 -0.2518
 1500poe    c23 9354   4.091   3.623   4.684 -0.0961 -0.3884 -0.5120
 1500poe    c23 9355   4.012   3.645   4.554 -0.2446  0.7403 -0.2365
 1500poe     o2 9356   3.877   3.683   4.569 -0.3634  0.2688 -0.0934
 1500poe    c23 9357   3.821   3.722   4.444 -0.1948 -0.4731 -0.4018
 1500poe    c23 9358   3.673   3.758   4.460 -0.0304  0.1934 -0.3815
 1500poe     o2 9359   3.654   3.878   4.533 -0.2562 -0.0034 -0.1113
 1500poe    c31 9360   3.519   3.888   4.570 -0.2156 -0.3102  0.1204
 1501poe    c31 9361   0.088   1.396   5.628 -0.0933 -0.4033 -0.0856
 1501poe     o2 9362   0.158   1.474   5.723 -0.1081  0.3806 -0.7095
 1501poe    c23 9363   0.076   1.529   5.823 -0.1057 -0.7980 -0.0377
 1501poe    c23 9364   0.150   1.612   5.929  0.6753 -0.7813 -0.5914
 1501poe     o2 9365   0.216   1.707   5.848 -0.2844  0.5276  0.1258
 1501poe    c23 9366   0.278   1.806   5.927  0.1292  0.1309  0.3028
 1501poe    c23 9367   0.385   1.875   5.840 -0.5570  0.0607 -0.6162
 1501poe     o2 9368   0.487   1.788   5.796 -0.0357  0.2016  0.2983
 1501poe    c23 9369   0.581   1.857   5.717  0.2527  0.0685  0.5221
 1501poe    c23 9370   0.705   1.766   5.714  0.2076  0.0222 -0.5355
 1501poe     o2 9371   0.664   1.632   5.696 -0.1023 -0.0471  0.6341
 1501poe    c31 9372   0.773   1.545   5.679  0.3552  0.5612  0.4368
 1502poe    c31 9373   2.721   3.831   1.166 -0.2633 -0.0066 -0.7063
 1502poe     o2 9374   2.728   3.962   1.114 -0.5940  0.3857  0.2152
 1502poe    c23 9375   2.594   3.996   1.082 -0.7517  0.1517  0.6223
 1502poe    c23 9376   2.591   4.147   1.051 -0.3524  0.0055 -0.1531
 1502poe     o2 9377   2.715   4.175   0.990 -0.2893  0.4582  0.1831
 1502poe    c23 9378   2.719   4.309   0.946 -0.3421  0.2192 -0.5486
 1502poe    c23 9379   2.863   4.351   0.912 -0.1893  0.2400  0.1191
 1502poe     o2 9380   2.935   4.326   1.030  0.2376 -0.2916 -0.2512
 1502poe    c23 9381   3.064   4.382   1.015  0.3056 -0.3142  0.2208
 1502poe    c23 9382   3.136   4.428   1.143  0.3893 -0.3038  0.1698
 1502poe     o2 9383   3.143   4.316   1.228 -0.1078 -0.2184  0.3256
 1502poe    c31 9384   3.248   4.317   1.323 -0.0663  0.2035  0.2767
 1503poe    c31 9385   3.502   6.309   1.464  0.5920 -0.0808 -0.1410
 1503poe     o2 9386   3.499   6.168   1.468 -0.0118 -0.0654  0.0143
 1503poe    c23 9387   3.571   6.103   1.366  0.2207 -0.2008  0.2618
 1503poe    c23 9388   3.541   5.952   1.360 -0.1176 -0.1284  0.0480
 1503poe     o2 9389   3.563   5.899   1.489  0.0140 -0.2253 -0.0133
 1503poe    c23 9390   3.469   5.795   1.509  0.0850 -0.3143 -0.1429
 1503poe    c23 9391   3.460   5.725   1.646 -0.0020 -0.2959 -0.1395
 1503poe     o2 9392   3.463   5.812   1.757 -0.2407 -0.3437 -0.0950
 1503poe    c23 9393   3.420   5.753   1.877  0.1179 -0.0431  0.1837
 1503poe    c23 9394   3.452   5.846   1.995 -0.4014  0.1373  0.1828
 1503poe     o2 9395   3.475   5.976   1.945 -0.4704  0.1304  0.1345
 1503poe    c31 9396   3.458   6.077   2.042 -0.0468  0.3771 -0.0499
 1504poe    c31 9397   3.743   0.593   5.537  0.3155  0.1607 -1.0716
 1504poe     o2 9398   3.647   0.490   5.521 -0.5327  0.8246 -0.3667
 1504poe    c23 9399   3.666   0.404   5.631 -0.5773  1.0948 -0.1459
 1504poe    c23 9400   3.591   0.270   5.625  0.4044  0.5353 -0.1924
 1504poe     o2 9401   3.637   0.193   5.516 -0.4958 -0.0688 -0.1629
 1504poe    c23 9402   3.627   0.054   5.538  0.4436 -0.1024  0.0798
 1504poe    c23 9403   3.675  -0.004   5.404  0.3230  0.5015 -0.2318
 1504poe     o2 9404   3.591   0.053   5.307  0.2195  0.7100 -0.0206
 1504poe    c23 9405   3.573  -0.021   5.188 -0.2351  0.0796  0.4334
 1504poe    c23 9406   3.482   0.056   5.090  0.4781 -0.3781 -0.5994
 1504poe     o2 9407   3.525   0.190   5.090  0.0691 -0.2467 -0.2575
 1504poe    c31 9408   3.514   0.246   4.961 -0.4202 -0.1216 -0.1628
 1505poe    c31 9409   3.737   4.075   0.086  1.3518 -0.3260  0.1143
 1505poe     o2 9410   3.791   4.104  -0.041 -0.2308 -0.1237 -0.5248
 1505poe    c23 9411   3.908   4.182  -0.031 -0.4459  0.1900 -0.4466
 1505poe    c23 9412   3.950   4.219  -0.175  0.0976  0.3875 -0.2381
 1505poe     o2 9413   3.863   4.296  -0.255 -0.0773  0.1612 -0.2661
 1505poe    c23 9414   3.922   4.346  -0.373  0.0775 -0.1998 -0.3434
 1505poe    c23 9415   3.814   4.440  -0.430 -0.0847 -0.6882 -0.8514
 1505poe     o2 9416   3.689   4.377  -0.414 -0.3733  0.0328 -0.2201
 1505poe    c23 9417   3.590   4.435  -0.496 -0.2482  0.4914 -0.0501
 1505poe    c23 9418   3.457   4.360  -0.479  0.1762 -0.2848 -0.0906
 1505poe     o2 9419   3.403   4.363  -0.348  0.3723  0.3165 -0.0172
 1505poe    c31 9420   3.272   4.315  -0.328  0.4080  0.0454 -0.4057
 1506poe    c31 9421   0.908   6.695   2.927 -0.2388 -0.3413  0.2345
 1506poe     o2 9422   0.968   6.588   2.857  0.1740  0.1009 -0.0940
 1506poe    c23 9423   1.027   6.495   2.945 -0.1356 -0.0326 -0.0294
 1506poe    c23 9424   1.085   6.377   2.865 -0.7611  0.0765 -0.6454
 1506poe     o2 9425   1.195   6.397   2.779 -0.0563 -0.0653  0.2127
 1506poe    c23 9426   1.280   6.288   2.752 -0.9655 -0.5464 -0.8144
 1506poe    c23 9427   1.405   6.334   2.673 -0.5255  1.0532  0.7443
 1506poe     o2 9428   1.358   6.396   2.555 -0.4500 -0.3012 -0.0185
 1506poe    c23 9429   1.466   6.432   2.472 -0.5405  0.1088  0.0439
 1506poe    c23 9430   1.430   6.530   2.358 -0.1508  0.3640  0.1380
 1506poe     o2 9431   1.325   6.610   2.407 -0.5618 -0.1064  0.0426
 1506poe    c31 9432   1.281   6.709   2.317  0.2908  0.2866  0.0414
 1507poe    c31 9433   5.925   0.998   5.553 -0.0989  0.3941  0.4046
 1507poe     o2 9434   5.883   0.948   5.429 -0.0412 -0.0872  0.5783
 1507poe    c23 9435   5.753   0.893   5.427  0.2755 -0.8436  0.0368
 1507poe    c23 9436   5.692   0.916   5.287  0.0819 -0.0295  0.2501
 1507poe     o2 9437   5.797   0.858   5.214 -0.2246 -0.4374  0.1272
 1507poe    c23 9438   5.781   0.852   5.074  0.2900  0.0773  0.0398
 1507poe    c23 9439   5.922   0.825   5.016  0.1090 -0.0707 -0.3339
 1507poe     o2 9440   6.004   0.907   5.096  0.0100 -0.3220  0.0302
 1507poe    c23 9441   6.134   0.854   5.104  0.1674  0.0168 -0.2329
 1507poe    c23 9442   6.211   0.973   5.164  0.3952  0.0402 -0.5691
 1507poe     o2 9443   6.154   0.997   5.291 -0.3337  0.5141 -0.9815
 1507poe    c31 9444   6.248   1.068   5.368 -0.5514 -0.2553  0.0091
 1508poe    c31 9445   6.996   2.939   0.038  1.1495 -0.0803  0.3212
 1508poe     o2 9446   6.968   2.845  -0.063  0.3494  0.2421  0.2368
 1508poe    c23 9447   6.954   2.708  -0.033 -0.1519  0.3049  0.3036
 1508poe    c23 9448   6.819   2.661   0.023 -0.1443 -0.2249 -0.1118
 1508poe     o2 9449   6.721   2.687  -0.076  0.2796  0.1534 -0.4364
 1508poe    c23 9450   6.597   2.663  -0.014  0.2944 -0.2369 -0.5552
 1508poe    c23 9451   6.481   2.713  -0.102 -0.0208  0.2930  0.1480
 1508poe     o2 9452   6.485   2.643  -0.225  0.2659  0.4398  0.0709
 1508poe    c23 9453   6.375   2.677  -0.306 -0.4532 -0.7046  0.5359
 1508poe    c23 9454   6.397   2.599  -0.436  0.0305 -0.3417  0.3968
 1508poe     o2 9455   6.533   2.614  -0.467 -0.1778 -0.2183 -0.5006
 1508poe    c31 9456   6.535   2.617  -0.608 -0.2705 -0.4748 -0.5070
 1509poe    c31 9457   3.757   5.181   6.549  0.4682 -0.3543 -0.3309
 1509poe     o2 9458   3.655   5.084   6.547  0.1577 -0.0360 -0.1437
 1509poe    c23 9459   3.714   4.957   6.565  0.0231 -0.0780  0.0090
 1509poe    c23 9460   3.648   4.882   6.682  0.1998  0.1469  0.2523
 1509poe     o2 9461   3.515   4.857   6.641  0.0986 -0.1908  0.7738
 1509poe    c23 9462   3.440   4.768   6.721 -0.2320 -0.3292  0.3142
 1509poe    c23 9463   3.302   4.743   6.659 -0.4797  0.6213  0.4709
 1509poe     o2 9464   3.253   4.871   6.623  0.5566  0.8808 -0.0363
 1509poe    c23 9465   3.113   4.867   6.612  0.6235  0.0591 -0.6853
 1509poe    c23 9466   3.072   5.012   6.581  0.0757  0.2044  0.6256
 1509poe     o2 9467   3.161   5.057   6.480  0.1192 -0.2873  0.4452
 1509poe    c31 9468   3.104   5.172   6.423  0.1998 -0.3833  0.1683
 1510poe    c31 9469   5.349   1.500   6.622 -0.0006 -0.2790 -0.0348
 1510poe     o2 9470   5.463   1.500   6.704  0.0742  0.0059 -0.1389
 1510poe    c23 9471   5.418   1.503   6.838  0.5265 -0.7483  0.0403
 1510poe    c23 9472   5.537   1.542   6.928  0.3523  0.2731 -0.1541
 1510poe     o2 9473   5.643   1.461   6.882  0.1035 -0.0865 -0.1028
 1510poe    c23 9474   5.772   1.514   6.900  0.0268  0.2610 -0.5691
 1510poe    c23 9475   5.811   1.613   6.788  0.4084  0.2163 -0.4789
 1510poe     o2 9476   5.814   1.534   6.671  0.2504 -0.5193  0.0091
 1510poe    c23 9477   5.830   1.617   6.559 -0.0886  0.3338  0.5792
 1510poe    c23 9478   5.774   1.543   6.436  0.3737 -0.0288  0.5809
 1510poe     o2 9479   5.663   1.463   6.469  0.0355  0.2321  0.0985
 1510poe    c31 9480   5.615   1.391   6.358  0.2494  0.0073  0.1499
 1511poe    c31 9481   4.440   4.792   1.024 -0.5232 -0.5442 -0.4267
 1511poe     o2 9482   4.499   4.813   1.150 -0.5051 -0.1589 -0.4961
 1511poe    c23 9483   4.442   4.714   1.233  0.0688  0.0195  0.1247
 1511poe    c23 9484   4.434   4.764   1.378  1.4187  0.1577  0.1645
 1511poe     o2 9485   4.364   4.883   1.405  0.7749 -0.0751 -0.4343
 1511poe    c23 9486   4.442   4.997   1.377 -0.1990  0.8098  0.3750
 1511poe    c23 9487   4.355   5.109   1.317 -0.0513  0.6114 -0.2077
 1511poe     o2 9488   4.228   5.096   1.376  0.1220 -0.1707  0.0072
 1511poe    c23 9489   4.136   5.149   1.283  0.1754 -0.5883 -0.2843
 1511poe    c23 9490   3.998   5.148   1.352  0.3323  0.0401  0.0437
 1511poe     o2 9491   3.974   5.017   1.399 -0.2213  0.2224  0.2751
 1511poe    c31 9492   3.840   5.011   1.441 -0.2395  0.3242  0.2340
 1512poe    c31 9493   2.186   3.597   2.785 -0.1111  0.7504 -0.1435
 1512poe     o2 9494   2.140   3.477   2.727 -0.0319  0.5116  0.2863
 1512poe    c23 9495   2.027   3.437   2.801 -0.0930  0.0124 -0.0751
 1512poe    c23 9496   2.011   3.284   2.796  0.5631 -0.0568 -0.1242
 1512poe     o2 9497   2.021   3.244   2.661  0.0392  0.2950 -0.2705
 1512poe    c23 9498   2.046   3.105   2.666  0.5804  0.4027  0.0758
 1512poe    c23 9499   2.029   3.047   2.525  0.5118 -0.2461  0.3454
 1512poe     o2 9500   2.131   3.106   2.447 -0.0292 -0.3064 -0.4240
 1512poe    c23 9501   2.164   3.022   2.339 -0.6609 -0.4989 -0.4708
 1512poe    c23 9502   2.258   3.090   2.238 -0.0772 -0.2369  0.2440
 1512poe     o2 9503   2.363   3.134   2.321 -0.2977  0.4006  0.1959
 1512poe    c31 9504   2.470   3.184   2.245 -0.0006 -0.1890  0.2142
 1513poe    c31 9505   1.864   2.870   1.815 -0.1386  0.3742 -0.4680
 1513poe     o2 9506   1.792   2.895   1.933 -0.1391 -0.3875 -0.3020
 1513poe    c23 9507   1.832   2.814   2.041  0.1934  0.2965  0.1013
 1513poe    c23 9508   1.767   2.884   2.161 -0.1118 -0.1904  0.2248
 1513poe     o2 9509   1.641   2.915   2.104 -0.0261  0.1841  0.2330
 1513poe    c23 9510   1.526   2.919   2.185  0.0628  0.4162  0.3467
 1513poe    c23 9511   1.402   2.986   2.124 -0.2512 -0.3837  0.0985
 1513poe     o2 9512   1.389   2.923   1.998 -0.1698 -0.1695 -0.0174
 1513poe    c23 9513   1.328   3.003   1.899 -0.1809 -0.3950 -0.1940
 1513poe    c23 9514   1.401   2.987   1.764  0.2855  0.4701 -0.0551
 1513poe     o2 9515   1.541   2.989   1.780  0.2719  0.4839  0.0694
 1513poe    c31 9516   1.601   3.005   1.653 -0.1496  0.1325 -0.1799
 1514poe    c31 9517   4.642   3.698   1.531 -0.3251  0.0012 -0.2733
 1514poe     o2 9518   4.637   3.797   1.430 -0.3856 -0.0833 -0.3529
 1514poe    c23 9519   4.584   3.917   1.480  0.8168  0.1773  0.3260
 1514poe    c23 9520   4.607   4.026   1.374 -0.2028  0.2639  0.1779
 1514poe     o2 9521   4.531   4.030   1.255 -0.1117  0.1631  0.1158
 1514poe    c23 9522   4.396   4.059   1.282 -0.1423  0.4692 -0.3693
 1514poe    c23 9523   4.329   4.082   1.145 -0.5516 -0.6642 -0.3661
 1514poe     o2 9524   4.396   4.002   1.051  0.3740  0.1327 -0.3896
 1514poe    c23 9525   4.326   3.999   0.929  0.5453  0.0816 -0.4871
 1514poe    c23 9526   4.411   3.918   0.829 -0.1649 -0.5364 -0.5950
 1514poe     o2 9527   4.515   3.987   0.763 -0.4091  0.3203 -0.0975
 1514poe    c31 9528   4.480   4.103   0.691 -0.3237  0.1527 -0.4091
 1515poe    c31 9529   0.240   4.758   3.944  0.2461 -0.8033 -0.0650
 1515poe     o2 9530   0.281   4.721   3.815  0.7190  0.1344 -0.1904
 1515poe    c23 9531   0.412   4.760   3.781  0.8000 -0.0722 -0.1128
 1515poe    c23 9532   0.473   4.686   3.661 -0.3797 -0.2182 -0.6267
 1515poe     o2 9533   0.451   4.548   3.683  0.1359 -0.3407 -0.8707
 1515poe    c23 9534   0.470   4.470   3.567 -0.1667 -1.1297 -0.3946
 1515poe    c23 9535   0.553   4.346   3.603  0.4344 -0.3828  0.8720
 1515poe     o2 9536   0.686   4.376   3.640  0.3016  0.7140  0.4764
 1515poe    c23 9537   0.770   4.410   3.532 -0.3419 -0.6344 -0.4766
 1515poe    c23 9538   0.912   4.351   3.540 -0.1731 -0.1711  0.0025
 1515poe     o2 9539   0.995   4.376   3.652  0.5603 -0.0773 -0.5559
 1515poe    c31 9540   1.109   4.297   3.628  0.7665  0.0429  0.0228
 1516poe    c31 9541   5.850   6.778   1.988 -0.0992  0.5446  0.2765
 1516poe     o2 9542   5.910   6.713   1.879 -0.1005 -0.3369  0.7851
 1516poe    c23 9543   5.825   6.695   1.768  0.4030 -0.0986  0.3546
 1516poe    c23 9544   5.890   6.602   1.664  0.1447 -0.3954  0.4577
 1516poe     o2 9545   6.025   6.644   1.669  0.1228 -0.2584 -0.0555
 1516poe    c23 9546   6.096   6.544   1.600  0.1734 -0.2988  0.0555
 1516poe    c23 9547   6.247   6.574   1.598  0.1844 -0.3652 -0.1825
 1516poe     o2 9548   6.282   6.631   1.722 -0.1686 -0.1609 -0.1758
 1516poe    c23 9549   6.420   6.657   1.707 -0.2791  0.4898 -0.1338
 1516poe    c23 9550   6.497   6.656   1.840  0.0238  0.9051 -0.3054
 1516poe     o2 9551   6.423   6.699   1.951  0.2143  0.1463  0.1279
 1516poe    c31 9552   6.521   6.742   2.043  0.7190 -0.0039 -0.3342
 1517poe    c31 9553   5.053   0.171   6.335 -0.2827 -0.0857  0.5454
 1517poe     o2 9554   5.113   0.241   6.442  0.0934 -0.3359  0.4999
 1517poe    c23 9555   5.126   0.379   6.413  0.4712 -0.4355  0.1829
 1517poe    c23 9556   5.184   0.444   6.540 -0.1218 -0.3306  0.4028
 1517poe     o2 9557   5.313   0.394   6.570  0.0738 -0.0745  0.0067
 1517poe    c23 9558   5.384   0.473   6.663 -0.4186 -0.0084  0.3299
 1517poe    c23 9559   5.509   0.390   6.701 -0.1287  0.4502  0.3771
 1517poe     o2 9560   5.480   0.254   6.724  0.1246  0.3356  0.0295
 1517poe    c23 9561   5.556   0.227   6.839  0.2411 -0.1914 -0.1715
 1517poe    c23 9562   5.476   0.175   6.960  0.0396  0.2832 -0.0993
 1517poe     o2 9563   5.452   0.037   6.942  0.4104  0.1719  0.2571
 1517poe    c31 9564   5.383  -0.030   7.045 -0.5389 -0.7871 -0.9756
 1518poe    c31 9565   4.942   4.511   3.035  0.5812 -0.0356  0.1456
 1518poe     o2 9566   5.080   4.536   3.039  0.6502 -0.3223 -0.2778
 1518poe    c23 9567   5.120   4.595   2.917 -0.0479 -0.2669 -0.4804
 1518poe    c23 9568   5.260   4.657   2.912 -0.1409  0.0047  0.1516
 1518poe     o2 9569   5.271   4.755   3.013 -0.1242 -0.1801  0.3291
 1518poe    c23 9570   5.395   4.821   3.000 -0.7537  0.9054 -0.3149
 1518poe    c23 9571   5.411   4.902   3.131  0.9766  0.3853 -0.1822
 1518poe     o2 9572   5.389   4.826   3.247 -0.0733  0.5711 -0.2464
 1518poe    c23 9573   5.440   4.907   3.351  0.0963 -0.1056  0.2044
 1518poe    c23 9574   5.416   4.845   3.490  0.1543 -0.3798  0.0938
 1518poe     o2 9575   5.488   4.726   3.516  0.0516 -0.5051 -0.1995
 1518poe    c31 9576   5.486   4.702   3.654  0.9982 -0.0506 -0.0984
 1519poe    c31 9577   4.741   1.052   2.342 -0.4772  0.4599  0.1698
 1519poe     o2 9578   4.669   1.172   2.330  0.1075  0.7707 -0.3010
 1519poe    c23 9579   4.545   1.158   2.263  0.3405  0.6484 -0.7100
 1519poe    c23 9580   4.449   1.274   2.293 -0.4150 -0.0744 -0.2901
 1519poe     o2 9581   4.460   1.312   2.428  0.3121  0.3656 -0.4691
 1519poe    c23 9582   4.389   1.431   2.456 -0.2554  0.1205 -0.8553
 1519poe    c23 9583   4.378   1.448   2.609 -0.4530  0.0972 -0.8665
 1519poe     o2 9584   4.503   1.426   2.669 -0.8151 -0.0547 -0.1663
 1519poe    c23 9585   4.500   1.465   2.805 -0.1202  0.0900 -0.1859
 1519poe    c23 9586   4.635   1.457   2.879  0.1577  0.0614 -0.6922
 1519poe     o2 9587   4.678   1.325   2.854 -0.0977 -0.0334 -0.6343
 1519poe    c31 9588   4.814   1.330   2.889 -0.3453 -0.3144  0.4225
 1520poe    c31 9589   4.993   0.307   4.325  0.2063  0.0562  0.3357
 1520poe     o2 9590   5.065   0.419   4.277 -0.2760  0.2730  0.1099
 1520poe    c23 9591   5.050   0.526   4.369  0.3350  0.2777  0.2050
 1520poe    c23 9592   5.137   0.648   4.335  0.8858  0.0141  0.6537
 1520poe     o2 9593   5.165   0.750   4.428 -0.2298  0.3910  0.5936
 1520poe    c23 9594   5.299   0.755   4.472  0.0691  0.7445 -0.3424
 1520poe    c23 9595   5.321   0.802   4.617  0.9852  0.0203 -0.2314
 1520poe     o2 9596   5.291   0.676   4.673  0.0483  0.1445 -0.4382
 1520poe    c23 9597   5.228   0.681   4.799  0.2785 -0.0690 -0.3147
 1520poe    c23 9598   5.214   0.552   4.883  0.0731 -0.0153 -0.2657
 1520poe     o2 9599   5.340   0.514   4.932  0.0441  0.2307 -0.0000
 1520poe    c31 9600   5.339   0.382   4.981 -1.4249  0.1789 -0.1444
 1521poe    c31 9601   3.728   6.109   3.490  0.2920 -0.4698 -0.4375
 1521poe     o2 9602   3.606   6.071   3.550  0.1706  0.7410  0.1089
 1521poe    c23 9603   3.595   5.953   3.628 -0.1692  0.2154 -0.7240
 1521poe    c23 9604   3.458   5.929   3.692  0.0224  0.2828 -0.2876
 1521poe     o2 9605   3.366   5.945   3.587  0.3717  0.0029 -0.6367
 1521poe    c23 9606   3.298   5.825   3.556  0.3173 -0.0395 -0.3575
 1521poe    c23 9607   3.172   5.864   3.477 -0.1195 -0.1823  0.2621
 1521poe     o2 9608   3.202   5.972   3.392 -0.1888  0.0917  0.5868
 1521poe    c23 9609   3.093   6.011   3.311 -0.4634  0.2054  1.0076
 1521poe    c23 9610   3.133   6.128   3.218 -0.0294 -0.4525  0.3587
 1521poe     o2 9611   3.207   6.215   3.301  0.3703 -0.6507  0.2101
 1521poe    c31 9612   3.274   6.316   3.229 -0.5618 -0.6653 -0.6912
 1522poe    c31 9613   0.819   5.913   4.757  0.7081 -0.3572  0.3029
 1522poe     o2 9614   0.696   5.978   4.780  0.2107 -1.2278  0.1328
 1522poe    c23 9615   0.632   5.957   4.903  0.3174  0.1241  0.4330
 1522poe    c23 9616   0.492   6.020   4.915  0.0279 -0.5398  0.6309
 1522poe     o2 9617   0.392   5.962   4.835 -0.0733  0.2596  0.1640
 1522poe    c23 9618   0.262   5.998   4.875  0.0082  0.0940  0.5838
 1522poe    c23 9619   0.165   5.886   4.833  0.3171  0.0960 -0.1445
 1522poe     o2 9620   0.160   5.880   4.692  0.6848 -0.2727 -0.1413
 1522poe    c23 9621   0.031   5.870   4.636  0.2929  0.6934  0.5602
 1522poe    c23 9622   0.045   5.857   4.483  0.0300 -0.5048  0.6302
 1522poe     o2 9623   0.132   5.747   4.469  0.5410 -0.0909  0.5406
 1522poe    c31 9624   0.172   5.722   4.336  0.1401 -0.1919  0.4389
 1523poe    c31 9625   5.957   0.947   4.609 -0.1027  0.4503  0.3985
 1523poe     o2 9626   5.997   1.054   4.692  0.4874  0.5160  0.0296
 1523poe    c23 9627   5.884   1.122   4.739 -0.2476  0.0617 -1.0193
 1523poe    c23 9628   5.923   1.251   4.815 -0.6441 -0.5444  0.2479
 1523poe     o2 9629   6.026   1.228   4.908  0.3135 -0.2325 -0.7162
 1523poe    c23 9630   6.079   1.350   4.955  0.0912 -0.3613 -0.1237
 1523poe    c23 9631   6.204   1.336   5.044  0.3130  0.4956 -0.2909
 1523poe     o2 9632   6.305   1.282   4.962  0.4070  0.0289  0.1301
 1523poe    c23 9633   6.425   1.265   5.035  0.3784  0.0002  0.1701
 1523poe    c23 9634   6.540   1.207   4.951  0.0248 -0.0653 -0.2748
 1523poe     o2 9635   6.483   1.110   4.867 -0.5620 -0.3988  0.4969
 1523poe    c31 9636   6.585   1.031   4.808 -0.1975  0.1287  0.4152
 1524poe    c31 9637   3.989   0.550   6.055  0.0692 -0.6742 -0.0281
 1524poe     o2 9638   3.950   0.685   6.069  0.0684 -0.6810  0.0354
 1524poe    c23 9639   3.898   0.699   6.199  0.5249  0.3065  0.1176
 1524poe    c23 9640   3.857   0.847   6.204 -0.1098  0.1325  0.0848
 1524poe     o2 9641   3.776   0.875   6.092 -0.0076  0.0185 -0.0167
 1524poe    c23 9642   3.694   0.987   6.114  0.0976 -0.0666  0.8274
 1524poe    c23 9643   3.759   1.118   6.065  0.0287 -0.3122  0.0726
 1524poe     o2 9644   3.782   1.087   5.929 -0.8294  0.6702 -0.3023
 1524poe    c23 9645   3.734   1.179   5.834  0.1679  1.1665 -0.3324
 1524poe    c23 9646   3.825   1.176   5.709 -0.2668 -0.1967 -0.6320
 1524poe     o2 9647   3.849   1.042   5.674 -0.9716 -0.5020  0.0124
 1524poe    c31 9648   3.944   1.033   5.570 -0.9924 -0.2992 -0.0247
 1525poe    c31 9649   6.977   4.382   2.483 -0.2387  0.0158 -0.6031
 1525poe     o2 9650   7.045   4.263   2.450  0.2665  0.2566 -0.4383
 1525poe    c23 9651   7.129   4.288   2.340  0.0965 -0.4152 -0.7207
 1525poe    c23 9652   7.226   4.172   2.312  0.1362 -0.4817 -0.3113
 1525poe     o2 9653   7.336   4.162   2.399 -0.4363 -0.1215  0.4610
 1525poe    c23 9654   7.421   4.055   2.364  0.7226  0.7699  0.4503
 1525poe    c23 9655   7.545   4.043   2.454  0.7397 -0.3488  0.2926
 1525poe     o2 9656   7.598   4.168   2.492 -0.0531  0.0416  0.1263
 1525poe    c23 9657   7.687   4.147   2.600 -0.2913 -0.1397  0.2910
 1525poe    c23 9658   7.756   4.281   2.632 -0.1702 -0.2029  0.2922
 1525poe     o2 9659   7.668   4.391   2.629  0.3839  0.2435  0.2322
 1525poe    c31 9660   7.714   4.510   2.689  0.0954  0.3153  0.3091
 1526poe    c31 9661   4.131   6.151   5.095 -0.4498 -0.2772  0.0698
 1526poe     o2 9662   4.148   6.063   4.986  0.0538 -0.1308  0.0291
 1526poe    c23 9663   4.021   6.040   4.930  0.1938  0.0332 -0.3599
 1526poe    c23 9664   4.049   5.944   4.813 -0.2728 -0.4172 -0.1058
 1526poe     o2 9665   4.166   5.976   4.742 -0.3879 -0.3255 -0.2533
 1526poe    c23 9666   4.190   5.902   4.624 -0.6501 -0.1858 -0.3960
 1526poe    c23 9667   4.323   5.942   4.556 -0.3702 -0.0979  0.1915
 1526poe     o2 9668   4.428   5.938   4.650  0.0021  0.2481 -0.2092
 1526poe    c23 9669   4.557   5.981   4.613  0.2231 -0.1635  0.0750
 1526poe    c23 9670   4.571   6.105   4.522  0.1832  0.1029  0.4319
 1526poe     o2 9671   4.520   6.209   4.602  0.0929  0.2908  0.1308
 1526poe    c31 9672   4.584   6.328   4.563  0.1678  0.2018 -0.0162
 1527poe    c31 9673   2.016   4.922   2.460  0.3605  1.0047  0.0647
 1527poe     o2 9674   2.105   4.890   2.355  0.0206 -0.5427  0.2211
 1527poe    c23 9675   2.214   4.817   2.405  0.4542  0.0669  0.1745
 1527poe    c23 9676   2.329   4.817   2.303  0.0492  0.3306 -0.2862
 1527poe     o2 9677   2.289   4.762   2.179 -0.2726 -0.2214  0.0564
 1527poe    c23 9678   2.398   4.760   2.089 -0.3592 -0.7467 -0.0391
 1527poe    c23 9679   2.343   4.735   1.947 -0.0422  0.3438 -0.3584
 1527poe     o2 9680   2.233   4.822   1.932  0.0018  0.4740  0.0558
 1527poe    c23 9681   2.204   4.858   1.799  0.3715 -0.3733 -0.2598
 1527poe    c23 9682   2.284   4.983   1.756 -0.3141  0.4268  0.7402
 1527poe     o2 9683   2.247   5.106   1.814  0.0767  0.5267  0.7727
 1527poe    c31 9684   2.334   5.211   1.778  0.0501  0.3905  0.3080
 1528poe    c31 9685   2.815   0.553   5.776  0.3624 -0.1142  0.4231
 1528poe     o2 9686   2.879   0.674   5.742 -0.3612  0.2180  0.2200
 1528poe    c23 9687   2.896   0.676   5.602  0.0740  0.0144  0.2687
 1528poe    c23 9688   2.900   0.825   5.564 -0.2258 -0.0297  0.0639
 1528poe     o2 9689   3.010   0.880   5.633 -0.1158 -0.3263  0.1250
 1528poe    c23 9690   3.133   0.876   5.565 -0.2537 -0.5129 -0.1151
 1528poe    c23 9691   3.259   0.909   5.648 -0.5893 -0.2324  0.2832
 1528poe     o2 9692   3.306   0.804   5.728 -0.0451  0.1348  0.4503
 1528poe    c23 9693   3.430   0.847   5.779  0.1620  0.2283 -0.1299
 1528poe    c23 9694   3.502   0.733   5.853  0.9202  0.9513  0.2759
 1528poe     o2 9695   3.462   0.702   5.985 -0.4934  0.0256 -0.3436
 1528poe    c31 9696   3.444   0.562   5.996 -0.5930  0.0361 -0.3687
 1529poe    c31 9697   4.071   4.193   0.527  0.1661  0.4092 -0.5912
 1529poe     o2 9698   3.993   4.291   0.591 -0.0473  0.0500 -0.2972
 1529poe    c23 9699   3.886   4.317   0.503 -0.6758  0.1770  0.4940
 1529poe    c23 9700   3.771   4.411   0.543 -1.0980 -0.0199 -0.2298
 1529poe     o2 9701   3.704   4.352   0.652 -0.2420 -0.2775  0.1594
 1529poe    c23 9702   3.590   4.428   0.684  0.0354  0.1550  0.1285
 1529poe    c23 9703   3.514   4.334   0.780  0.1569 -0.3129 -0.2264
 1529poe     o2 9704   3.597   4.326   0.894 -0.3063  0.7087  0.1940
 1529poe    c23 9705   3.550   4.253   1.005  0.6427  0.8704  0.7104
 1529poe    c23 9706   3.670   4.192   1.080  0.0743 -0.2151  0.7449
 1529poe     o2 9707   3.779   4.177   0.992 -0.1750 -0.0497  0.4041
 1529poe    c31 9708   3.892   4.112   1.047  0.0530 -0.2254 -0.2671
 1530poe    c31 9709   3.858   3.143   5.515 -0.3323 -0.3147 -0.0097
 1530poe     o2 9710   3.985   3.093   5.549  0.0421  0.8134  0.2776
 1530poe    c23 9711   3.976   3.038   5.679  0.4614  0.0271 -0.0186
 1530poe    c23 9712   4.086   2.935   5.712  0.1740 -0.2168  0.1744
 1530poe     o2 9713   4.213   2.991   5.686  0.0336 -0.2533 -0.6134
 1530poe    c23 9714   4.328   2.922   5.729 -0.6650 -0.6193  0.7161
 1530poe    c23 9715   4.451   3.008   5.694 -1.1457 -0.1216  0.2282
 1530poe     o2 9716   4.443   3.055   5.562  0.5068 -0.5076 -0.0309
 1530poe    c23 9717   4.550   3.138   5.524  0.0336 -0.1225 -0.5500
 1530poe    c23 9718   4.604   3.128   5.380  0.2837  0.2221 -0.4824
 1530poe     o2 9719   4.538   3.209   5.286 -0.3074  0.5387  0.2000
 1530poe    c31 9720   4.551   3.160   5.155 -0.0389  0.7993  0.1280
 1531poe    c31 9721   3.906   3.729   0.047  0.2006  0.1858  0.0532
 1531poe     o2 9722   3.852   3.607   0.094  0.3395  0.2055  0.2678
 1531poe    c23 9723   3.770   3.542  -0.001  0.7869 -0.1931  0.1513
 1531poe    c23 9724   3.727   3.412   0.068  0.5820 -0.1542  0.0972
 1531poe     o2 9725   3.664   3.445   0.190  0.5129  0.1339 -0.0155
 1531poe    c23 9726   3.579   3.349   0.250 -0.3617  0.4050 -0.8017
 1531poe    c23 9727   3.499   3.416   0.363  0.4951 -0.2688  0.2257
 1531poe     o2 9728   3.566   3.513   0.440  0.0726  0.3717 -0.2038
 1531poe    c23 9729   3.484   3.539   0.552  0.4334 -0.0764  0.1667
 1531poe    c23 9730   3.499   3.453   0.679  0.4983 -0.3662 -0.0381
 1531poe     o2 9731   3.422   3.336   0.661  0.2579 -0.2143  0.0001
 1531poe    c31 9732   3.408   3.254   0.774  0.6176 -0.0139  0.1928
 1532poe    c31 9733   3.889   1.357   0.572 -0.8134  0.0579  0.1136
 1532poe     o2 9734   3.807   1.392   0.463 -0.0073 -0.2376 -0.5969
 1532poe    c23 9735   3.673   1.364   0.498  0.0143  0.4955  0.1009
 1532poe    c23 9736   3.606   1.313   0.369 -0.8739  0.0335  0.7296
 1532poe     o2 9737   3.637   1.426   0.289 -0.4706 -0.6858 -0.1516
 1532poe    c23 9738   3.569   1.415   0.167 -0.3015  0.3248 -0.3413
 1532poe    c23 9739   3.636   1.516   0.071  0.3549 -0.0126 -0.2426
 1532poe     o2 9740   3.769   1.524   0.116  0.1479 -0.2932  0.4437
 1532poe    c23 9741   3.835   1.645   0.085  0.6051 -0.5742  0.3083
 1532poe    c23 9742   3.821   1.728   0.214  0.6662 -0.2551  0.1114
 1532poe     o2 9743   3.852   1.646   0.325  0.3027 -0.3335  0.1581
 1532poe    c31 9744   3.952   1.710   0.401  0.3119 -0.1471 -0.0098
 1533poe    c31 9745   4.074   1.128   2.325  0.0825 -0.3597  0.0452
 1533poe     o2 9746   4.069   1.077   2.456 -0.3483 -0.3881  0.0197
 1533poe    c23 9747   4.166   0.978   2.482 -0.5978 -0.7011 -0.2438
 1533poe    c23 9748   4.203   1.013   2.627 -0.1343 -0.7623 -0.3447
 1533poe     o2 9749   4.078   1.041   2.687  0.0315 -0.1204 -0.2863
 1533poe    c23 9750   4.080   1.056   2.828 -0.1472 -1.2030 -0.1580
 1533poe    c23 9751   3.946   1.019   2.893 -0.1580 -0.0397  0.5030
 1533poe     o2 9752   3.847   1.050   2.798  0.1587 -0.6610 -0.0367
 1533poe    c23 9753   3.722   0.999   2.839 -0.2185  0.3969  0.1533
 1533poe    c23 9754   3.598   1.063   2.773 -0.2782  0.2361  0.1110
 1533poe     o2 9755   3.591   1.045   2.633  0.4360 -0.1050  0.1136
 1533poe    c31 9756   3.466   1.083   2.581  0.6300  0.2217 -0.1178
 1534poe    c31 9757   2.862   2.698   0.659 -0.1914 -0.1948  0.3526
 1534poe     o2 9758   2.978   2.658   0.727  0.2166  0.2924 -0.0477
 1534poe    c23 9759   3.038   2.762   0.801  0.8920  0.5460 -0.9268
 1534poe    c23 9760   3.188   2.727   0.804  0.7393 -0.0876 -0.3409
 1534poe     o2 9761   3.215   2.594   0.844  0.7257 -0.0018 -0.0440
 1534poe    c23 9762   3.334   2.573   0.917  0.6208 -0.0510  0.1120
 1534poe    c23 9763   3.323   2.613   1.066  0.7318  0.3419  0.0171
 1534poe     o2 9764   3.266   2.514   1.149  0.4658  0.4978  0.0204
 1534poe    c23 9765   3.317   2.500   1.280  0.5717 -0.0962 -0.0827
 1534poe    c23 9766   3.274   2.361   1.331 -0.6200  0.2976  0.0057
 1534poe     o2 9767   3.324   2.252   1.256  0.0032  0.4051  0.2618
 1534poe    c31 9768   3.227   2.150   1.256 -0.2106  0.6050  0.0980
 1535poe    c31 9769   1.263   6.548   6.781 -0.2850 -0.5216 -0.8828
 1535poe     o2 9770   1.386   6.489   6.815 -0.2704  0.1835  0.3072
 1535poe    c23 9771   1.378   6.432   6.944  0.4816 -0.5307  0.0421
 1535poe    c23 9772   1.521   6.392   6.985  0.2869 -0.9440  0.3279
 1535poe     o2 9773   1.618   6.488   7.021 -0.7303  0.0153  0.5501
 1535poe    c23 9774   1.714   6.433   7.108  0.1078 -0.0887 -0.4221
 1535poe    c23 9775   1.851   6.504   7.104 -0.3218  0.7628 -0.2572
 1535poe     o2 9776   1.948   6.476   7.005  0.3849 -0.2013  0.6837
 1535poe    c23 9777   2.074   6.520   7.049  0.3325  0.0737  0.5598
 1535poe    c23 9778   2.175   6.509   6.932 -0.2367  0.1058  0.0603
 1535poe     o2 9779   2.300   6.563   6.967 -0.1715 -0.2064  0.3164
 1535poe    c31 9780   2.378   6.600   6.856  0.2615 -0.5205  0.5139
 1536poe    c31 9781   1.604   2.968   5.838  0.1267  0.0392  0.4049
 1536poe     o2 9782   1.670   2.848   5.808  0.4440  0.2753  0.1550
 1536poe    c23 9783   1.626   2.731   5.874  0.0791  0.1343 -0.3322
 1536poe    c23 9784   1.733   2.621   5.868 -0.3887 -0.3293 -0.1875
 1536poe     o2 9785   1.738   2.591   5.730 -0.3469 -0.5544 -0.1385
 1536poe    c23 9786   1.825   2.481   5.726 -0.2634 -0.4896 -0.1120
 1536poe    c23 9787   1.903   2.479   5.592  0.1552 -0.5495  0.1306
 1536poe     o2 9788   1.800   2.485   5.496  0.1625  0.0623  0.1567
 1536poe    c23 9789   1.839   2.460   5.363  0.0890 -0.6221  0.2569
 1536poe    c23 9790   1.729   2.490   5.260  0.5720  0.2915 -0.0072
 1536poe     o2 9791   1.645   2.585   5.322 -0.8241 -1.0919  0.2831
 1536poe    c31 9792   1.534   2.629   5.246  0.0449  0.1045 -0.3358
 1537poe    c31 9793   1.872   0.428   2.086 -0.5992 -0.5557 -0.8968
 1537poe     o2 9794   1.902   0.294   2.117  0.3608 -0.1180  0.1209
 1537poe    c23 9795   2.042   0.277   2.113  0.3705 -0.0824  0.2735
 1537poe    c23 9796   2.063   0.126   2.134  0.1547 -0.1178  0.2344
 1537poe     o2 9797   1.958   0.068   2.209 -0.3177 -0.0344 -0.3523
 1537poe    c23 9798   1.963  -0.073   2.205 -0.6622 -0.0460 -0.3696
 1537poe    c23 9799   1.868  -0.135   2.309 -0.2690  0.1467  0.1065
 1537poe     o2 9800   1.741  -0.076   2.302  0.2161  1.1719 -0.2692
 1537poe    c23 9801   1.660  -0.118   2.410  0.7129  0.2438 -0.2513
 1537poe    c23 9802   1.680  -0.034   2.537 -0.0907  0.1000 -0.0266
 1537poe     o2 9803   1.695   0.103   2.509  0.2886  0.0421 -0.1024
 1537poe    c31 9804   1.683   0.180   2.627 -0.7522  0.0133 -0.1815
 1538poe    c31 9805   1.948   1.803   0.568  0.4983  0.0900  0.1566
 1538poe     o2 9806   2.028   1.768   0.458  0.0907 -0.0402 -0.1022
 1538poe    c23 9807   2.001   1.853   0.348 -0.0627  0.3466  0.2336
 1538poe    c23 9808   2.053   1.786   0.220  0.3899  0.2236  0.4776
 1538poe     o2 9809   2.192   1.761   0.224  0.4891  0.6680  0.0175
 1538poe    c23 9810   2.257   1.812   0.110  0.6147  0.3810 -0.0398
 1538poe    c23 9811   2.381   1.721   0.098  0.1535 -0.3056  0.2913
 1538poe     o2 9812   2.450   1.720   0.221  0.3148 -0.2354  0.2024
 1538poe    c23 9813   2.550   1.621   0.234  0.1567 -0.4090  0.1193
 1538poe    c23 9814   2.592   1.649   0.379  0.6981 -0.5927 -0.0010
 1538poe     o2 9815   2.489   1.622   0.471  0.3128 -0.4096 -0.3768
 1538poe    c31 9816   2.545   1.628   0.600  0.4350  0.3429 -0.4631
 1539poe    c31 9817   1.130   3.467   2.075  0.5636 -0.0373 -0.2206
 1539poe     o2 9818   1.050   3.419   1.970  0.3024 -0.0419 -0.0211
 1539poe    c23 9819   0.970   3.309   2.007 -0.4454  0.8004  0.8993
 1539poe    c23 9820   0.834   3.315   1.934  0.1167 -0.0891 -0.2352
 1539poe     o2 9821   0.868   3.326   1.797  0.1708  0.3135 -0.1902
 1539poe    c23 9822   0.754   3.285   1.726 -0.0686 -0.2091  0.4835
 1539poe    c23 9823   0.703   3.409   1.650  0.3386 -0.1296  0.3413
 1539poe     o2 9824   0.807   3.486   1.595 -0.1147  0.3897  0.2067
 1539poe    c23 9825   0.761   3.592   1.515 -0.7338 -0.8749 -1.1579
 1539poe    c23 9826   0.887   3.643   1.444 -0.6741  0.4686 -0.1289
 1539poe     o2 9827   0.993   3.684   1.528 -0.3503  0.5451 -0.5671
 1539poe    c31 9828   1.102   3.728   1.451  0.6894 -1.1850 -0.1483
 1540poe    c31 9829   0.361   4.497   0.769 -0.0071 -0.0980  0.3728
 1540poe     o2 9830   0.273   4.560   0.679  0.9980  0.7836 -0.0133
 1540poe    c23 9831   0.304   4.527   0.545  0.0696 -0.4925  0.0635
 1540poe    c23 9832   0.184   4.554   0.453  0.3681 -0.6177 -0.3661
 1540poe     o2 9833   0.111   4.657   0.517 -0.2224 -0.7848 -0.7730
 1540poe    c23 9834   0.008   4.709   0.435 -0.4226  0.1590  0.0689
 1540poe    c23 9835  -0.062   4.815   0.522 -0.2872  0.2405  0.0795
 1540poe     o2 9836  -0.137   4.776   0.635 -0.1920  0.2744  0.1543
 1540poe    c23 9837  -0.277   4.777   0.628 -0.1712  0.1268 -0.3148
 1540poe    c23 9838  -0.354   4.674   0.713  0.0241 -0.1187 -0.4380
 1540poe     o2 9839  -0.472   4.710   0.781 -0.0040  0.1739 -0.6399
 1540poe    c31 9840  -0.442   4.786   0.895 -0.2533  0.1116 -0.5336
 1541poe    c31 9841   6.097   4.097   5.827  0.2626 -0.0693 -0.5171
 1541poe     o2 9842   6.027   4.020   5.731 -0.0289  0.1040 -0.4424
 1541poe    c23 9843   5.892   4.062   5.742 -0.1276 -0.3861  0.2943
 1541poe    c23 9844   5.784   3.970   5.682 -0.1028 -0.4215  0.3037
 1541poe     o2 9845   5.845   3.932   5.561  0.5056 -0.1655  0.5223
 1541poe    c23 9846   5.752   3.880   5.469 -0.0993  0.8649  0.5325
 1541poe    c23 9847   5.834   3.857   5.341 -0.9619 -0.0709  0.1316
 1541poe     o2 9848   5.957   3.796   5.374 -0.5359  0.8230  0.2138
 1541poe    c23 9849   6.031   3.770   5.257  0.1136  0.8092  0.6231
 1541poe    c23 9850   6.175   3.719   5.270  0.0564  0.3627 -0.4351
 1541poe     o2 9851   6.254   3.825   5.319 -0.3466  0.5170 -0.1196
 1541poe    c31 9852   6.345   3.876   5.224 -0.0763  0.3515  0.0511
 1542poe    c31 9853   1.067   4.240   0.977 -0.1182 -0.6470  0.4613
 1542poe     o2 9854   1.133   4.243   1.101  0.3070  0.4143  0.2168
 1542poe    c23 9855   1.218   4.131   1.102  0.1011  0.2513 -0.2515
 1542poe    c23 9856   1.337   4.148   1.199  0.2567  0.0764 -0.4117
 1542poe     o2 9857   1.286   4.160   1.330 -0.2170 -0.4316 -0.5441
 1542poe    c23 9858   1.387   4.116   1.419 -0.1030  0.2446 -0.3297
 1542poe    c23 9859   1.316   4.123   1.555  0.0597  0.1579 -0.2409
 1542poe     o2 9860   1.226   4.231   1.560 -0.3081 -0.1625  0.0524
 1542poe    c23 9861   1.152   4.245   1.680 -0.4951 -0.1913 -0.0599
 1542poe    c23 9862   1.056   4.364   1.663 -0.1444  0.0961 -0.0432
 1542poe     o2 9863   1.104   4.495   1.644 -0.8840  0.3411 -0.3051
 1542poe    c31 9864   1.118   4.579   1.757 -0.2044 -0.4876  0.2433
 1543poe    c31 9865   6.120   6.649   3.239  0.1292  0.2350 -0.0058
 1543poe     o2 9866   6.224   6.639   3.145 -0.3084  0.2100 -0.4955
 1543poe    c23 9867   6.233   6.500   3.121 -0.4854  0.0863  0.1535
 1543poe    c23 9868   6.378   6.452   3.102 -0.5436  0.0095 -0.0872
 1543poe     o2 9869   6.415   6.546   3.004 -0.0676  0.2460  0.3175
 1543poe    c23 9870   6.542   6.515   2.950 -0.4419 -0.4615 -0.1843
 1543poe    c23 9871   6.602   6.627   2.864  0.1105 -0.4736  0.1781
 1543poe     o2 9872   6.635   6.747   2.929 -0.3224  0.0632 -0.5699
 1543poe    c23 9873   6.665   6.849   2.836  1.2311  0.0998 -0.0627
 1543poe    c23 9874   6.756   6.954   2.902  0.4589  0.4579  0.4454
 1543poe     o2 9875   6.883   6.899   2.930  0.3842 -0.0722 -0.2294
 1543poe    c31 9876   6.930   6.989   3.028  0.1037 -0.3672  0.1756
 1544poe    c31 9877   5.589   3.963   2.759 -0.3970 -0.1361  0.2440
 1544poe     o2 9878   5.481   3.920   2.679 -0.6148  0.3373  0.2802
 1544poe    c23 9879   5.487   3.978   2.551  0.0795  0.1702  0.2334
 1544poe    c23 9880   5.430   3.881   2.446  0.1588 -0.3729  0.6830
 1544poe     o2 9881   5.291   3.870   2.464  0.0045  0.2621 -0.0341
 1544poe    c23 9882   5.246   3.768   2.379  0.4114 -0.2633  0.3723
 1544poe    c23 9883   5.092   3.768   2.390  0.3774 -0.1300 -0.0835
 1544poe     o2 9884   5.048   3.769   2.524  0.0931  0.5319 -0.1758
 1544poe    c23 9885   4.910   3.743   2.523  0.1051  0.4657 -0.2959
 1544poe    c23 9886   4.865   3.765   2.669 -0.1245  0.2887 -0.3392
 1544poe     o2 9887   4.936   3.873   2.725 -0.0756  0.1842 -0.1984
 1544poe    c31 9888   4.890   3.890   2.857  0.1062  0.5832 -0.1840
 1545poe    c31 9889   0.760   0.236   4.559 -0.0458 -1.1125  0.2615
 1545poe     o2 9890   0.804   0.288   4.682  0.0131 -0.4272 -0.0459
 1545poe    c23 9891   0.804   0.177   4.769  0.1353 -0.1794  0.2743
 1545poe    c23 9892   0.796   0.224   4.916  0.3722  0.2031  0.1666
 1545poe     o2 9893   0.908   0.292   4.966  0.1634  0.4652  0.2845
 1545poe    c23 9894   0.887   0.334   5.098 -0.1528 -0.0968  0.4123
 1545poe    c23 9895   1.029   0.372   5.144  0.0320  0.1222 -0.3408
 1545poe     o2 9896   1.097   0.449   5.047  0.4232  0.0403 -0.1308
 1545poe    c23 9897   1.212   0.502   5.109  0.4540  0.2501 -0.3707
 1545poe    c23 9898   1.296   0.565   4.996  0.0898  0.2953 -0.6169
 1545poe     o2 9899   1.320   0.476   4.889 -0.0020  0.0612 -0.4419
 1545poe    c31 9900   1.432   0.522   4.816  0.5907 -0.2080  0.2793
 1546poe    c31 9901   0.087   1.350   3.915 -0.2744 -0.5856  1.1278
 1546poe     o2 9902   0.154   1.233   3.870 -0.5613 -0.2650 -0.1652
 1546poe    c23 9903   0.133   1.124   3.956 -0.1649 -0.3131 -0.1279
 1546poe    c23 9904   0.250   1.034   3.912  0.7349  0.6335  0.2869
 1546poe     o2 9905   0.280   1.044   3.774 -0.2959  0.4556  0.0365
 1546poe    c23 9906   0.391   0.960   3.750 -0.3686  0.3572  0.0421
 1546poe    c23 9907   0.408   0.984   3.599 -0.3944 -0.6009 -0.1194
 1546poe     o2 9908   0.374   1.112   3.549  0.0516 -0.6026 -0.4272
 1546poe    c23 9909   0.466   1.160   3.454 -0.0189 -0.2591 -0.3236
 1546poe    c23 9910   0.440   1.090   3.319  0.1055 -0.3898 -0.2816
 1546poe     o2 9911   0.491   0.959   3.321 -0.4914 -0.6216  0.2588
 1546poe    c31 9912   0.440   0.903   3.202 -0.6304  0.4225 -0.1904
 1547poe    c31 9913   6.788   4.688   2.856 -0.1626  0.0612 -0.3202
 1547poe     o2 9914   6.713   4.677   2.975 -0.0834  0.8693 -0.1908
 1547poe    c23 9915   6.613   4.580   2.958  0.4245  0.3656 -0.3291
 1547poe    c23 9916   6.510   4.593   3.072  0.3869 -0.0289 -0.3167
 1547poe     o2 9917   6.586   4.609   3.189  0.3336  0.0695 -0.2951
 1547poe    c23 9918   6.509   4.564   3.298 -0.5092  0.8665 -0.5546
 1547poe    c23 9919   6.581   4.592   3.430 -0.6142 -0.2230 -0.2518
 1547poe     o2 9920   6.611   4.730   3.425 -0.1278 -0.2973  0.3555
 1547poe    c23 9921   6.725   4.771   3.497  0.0848  0.1437 -0.2260
 1547poe    c23 9922   6.745   4.920   3.529 -0.1753  0.0353  0.4470
 1547poe     o2 9923   6.770   4.995   3.412 -0.6666  0.0576  0.3570
 1547poe    c31 9924   6.794   5.133   3.430  0.1300 -0.0156 -0.1311
 1548poe    c31 9925   3.182   0.868   2.784 -0.1235 -0.5140 -0.2262
 1548poe     o2 9926   3.055   0.886   2.727 -0.1017  0.3355 -0.0179
 1548poe    c23 9927   3.003   1.016   2.745  0.3311  0.6146 -0.7478
 1548poe    c23 9928   2.854   1.014   2.706 -0.0636  0.0210  0.7201
 1548poe     o2 9929   2.858   0.938   2.588 -0.0684  0.5436  0.3796
 1548poe    c23 9930   2.735   0.920   2.521  0.0516 -0.4978  0.4275
 1548poe    c23 9931   2.765   0.869   2.379 -0.3541 -0.1217  0.2044
 1548poe     o2 9932   2.814   0.737   2.378  0.3813  0.1485 -0.2187
 1548poe    c23 9933   2.803   0.697   2.243  0.3385  0.0104 -0.1739
 1548poe    c23 9934   2.830   0.551   2.201  0.1595  0.0645 -0.4769
 1548poe     o2 9935   2.958   0.496   2.222 -0.0975 -0.5089 -0.3770
 1548poe    c31 9936   3.054   0.518   2.121  1.1851  0.1751  0.9402
 1549poe    c31 9937   3.522   5.052   0.465 -0.3005 -0.0160  0.5490
 1549poe     o2 9938   3.439   5.020   0.355  0.3293 -0.1975  0.1248
 1549poe    c23 9939   3.506   5.017   0.231  0.1442  0.1843  0.0160
 1549poe    c23 9940   3.393   5.037   0.128 -0.0897 -0.2335  0.1909
 1549poe     o2 9941   3.311   4.924   0.105 -0.2240 -0.0871 -0.0620
 1549poe    c23 9942   3.243   4.947  -0.016 -0.0676 -0.6009 -0.2533
 1549poe    c23 9943   3.110   4.871  -0.030 -0.5078 -0.0683  0.8843
 1549poe     o2 9944   3.137   4.733  -0.041 -0.3550  0.0801 -0.8784
 1549poe    c23 9945   3.019   4.660  -0.069 -0.7900  0.3463  0.2022
 1549poe    c23 9946   3.032   4.511  -0.108 -0.3205  0.3230  0.4316
 1549poe     o2 9947   2.906   4.448  -0.112  0.1291 -0.5622  0.0381
 1549poe    c31 9948   2.843   4.429   0.013 -0.3736  0.6320 -0.0142
 1550poe    c31 9949   4.552   1.291   3.364 -0.1659  0.0348  0.7722
 1550poe     o2 9950   4.490   1.213   3.264  0.5522  0.0494  0.3060
 1550poe    c23 9951   4.593   1.153   3.189 -0.0559  0.0831 -0.5730
 1550poe    c23 9952   4.512   1.054   3.104 -0.2042 -0.0260 -0.3054
 1550poe     o2 9953   4.431   0.974   3.187  0.1423 -0.4118 -0.3333
 1550poe    c23 9954   4.413   0.861   3.104  0.1673 -0.4374 -0.3036
 1550poe    c23 9955   4.295   0.768   3.136 -0.1351  0.0323 -0.0354
 1550poe     o2 9956   4.169   0.827   3.111 -0.0423  0.1846 -0.1450
 1550poe    c23 9957   4.074   0.725   3.091 -0.1364  0.3220 -0.3919
 1550poe    c23 9958   3.935   0.755   3.150  0.0081  0.2026  0.0083
 1550poe     o2 9959   3.935   0.742   3.290 -0.0370  0.6235  0.0480
 1550poe    c31 9960   3.809   0.772   3.347 -0.3207  0.0934 -0.2870
 1551poe    c31 9961   1.556   2.513   0.921  0.1063 -0.2261 -0.1998
 1551poe     o2 9962   1.600   2.611   1.013 -0.2392  0.2315 -0.5219
 1551poe    c23 9963   1.565   2.587   1.147 -0.0992 -0.0350 -0.5324
 1551poe    c23 9964   1.622   2.685   1.251 -0.1211 -0.1763 -0.3862
 1551poe     o2 9965   1.580   2.806   1.192 -0.2211 -0.1512 -0.2638
 1551poe    c23 9966   1.601   2.930   1.254  0.2249 -0.4755  0.2373
 1551poe    c23 9967   1.516   3.051   1.210 -0.1009 -0.6927  0.2618
 1551poe     o2 9968   1.539   3.085   1.075  0.2535 -0.7483  0.3071
 1551poe    c23 9969   1.545   3.225   1.056  1.0333 -0.8937 -0.6020
 1551poe    c23 9970   1.548   3.257   0.905 -1.0270  1.2420 -0.2400
 1551poe     o2 9971   1.479   3.153   0.838  0.1771  0.1181  0.2247
 1551poe    c31 9972   1.430   3.196   0.713 -0.4198  0.5178  0.5906
 1552poe    c31 9973   5.637   4.766   4.566 -0.0066  0.2161  0.1580
 1552poe     o2 9974   5.710   4.776   4.685 -0.2650 -0.4014  0.3695
 1552poe    c23 9975   5.685   4.899   4.748  0.5921 -0.0086 -0.0423
 1552poe    c23 9976   5.776   4.897   4.872  0.0706  0.1921  0.3488
 1552poe     o2 9977   5.881   4.803   4.865 -0.1440 -0.0132 -0.1134
 1552poe    c23 9978   5.992   4.843   4.943  0.2326 -0.3388 -0.4711
 1552poe    c23 9979   6.124   4.858   4.865  0.2819 -0.5119 -0.4203
 1552poe     o2 9980   6.115   4.959   4.767  0.4332 -0.5082 -0.4291
 1552poe    c23 9981   6.224   4.972   4.678  0.4473  0.3446 -0.2993
 1552poe    c23 9982   6.197   4.933   4.532 -0.7496 -0.0218  0.0058
 1552poe     o2 9983   6.182   4.794   4.512 -0.6730  0.0434 -0.5310
 1552poe    c31 9984   6.284   4.733   4.437 -0.0183  0.3851  0.0697
 1553poe    c31 9985   4.824   2.366   4.598 -0.2884 -0.4251  0.0560
 1553poe     o2 9986   4.722   2.425   4.521 -0.4333 -0.2551  0.3751
 1553poe    c23 9987   4.763   2.410   4.387 -0.3218  0.4461  0.3292
 1553poe    c23 9988   4.642   2.443   4.297  0.2834  0.4921 -0.4812
 1553poe     o2 9989   4.606   2.580   4.302 -0.0063  0.3979  0.1148
 1553poe    c23 9990   4.512   2.605   4.201 -0.3520  0.2640  0.4010
 1553poe    c23 9991   4.515   2.759   4.185 -0.8226  0.2298 -0.0810
 1553poe     o2 9992   4.501   2.803   4.318  0.2256 -0.4619  0.2764
 1553poe    c23 9993   4.476   2.940   4.340  0.1995 -0.3774 -0.2866
 1553poe    c23 9994   4.451   2.941   4.492  0.1651  0.3241 -0.2958
 1553poe     o2 9995   4.547   2.862   4.557 -0.7453 -0.3129  0.2879
 1553poe    c31 9996   4.558   2.882   4.696 -0.9470  0.0662  0.2509
 1554poe    c31 9997   3.662   6.533   4.785  0.5753  0.5614 -0.0915
 1554poe     o2 9998   3.787   6.497   4.731  0.5104  0.3830 -0.1237
 1554poe    c23 9999   3.874   6.503   4.843  0.6095  0.0520 -0.1822
 1554poe    c2310000   4.020   6.499   4.795  0.6112  0.2359 -0.1943
 1554poe     o210001   4.025   6.539   4.660 -0.4082 -0.1882 -0.3683
 1554poe    c2310002   4.145   6.508   4.592 -0.6649 -0.6567 -0.6102
 1554poe    c2310003   4.164   6.590   4.463  0.1434 -0.1006 -0.1461
 1554poe     o210004   4.048   6.599   4.384  0.1588 -0.1830 -0.1783
 1554poe    c2310005   4.081   6.646   4.255  0.3023  0.1714 -0.0121
 1554poe    c2310006   3.961   6.688   4.168 -0.1354 -0.8533  0.0854
 1554poe     o210007   3.880   6.579   4.131 -0.8412 -0.5376  0.6701
 1554poe    c3110008   3.769   6.624   4.057 -0.3347  0.3289  0.4280
 1555poe    c3110009   5.007   1.773   4.676 -0.0294 -0.5723  0.2883
 1555poe     o210010   5.126   1.698   4.679  0.0506 -0.4348  0.6276
 1555poe    c2310011   5.189   1.708   4.553 -0.3410  0.7484  0.5105
 1555poe    c2310012   5.323   1.782   4.576  0.0978 -0.0408  0.5141
 1555poe     o210013   5.379   1.742   4.699 -0.5098 -0.2263  0.7378
 1555poe    c2310014   5.479   1.825   4.752  0.1783 -0.2217 -0.5174
 1555poe    c2310015   5.494   1.774   4.897 -0.7094 -0.0227 -0.3477
 1555poe     o210016   5.367   1.738   4.946 -0.6624 -0.2109 -0.3632
 1555poe    c2310017   5.372   1.655   5.060  0.3585  0.2133 -0.0914
 1555poe    c2310018   5.226   1.625   5.097  0.2801  0.4070 -0.2416
 1555poe     o210019   5.156   1.610   4.975  0.0080 -0.3515 -0.0006
 1555poe    c3110020   5.018   1.594   4.996 -0.0973  0.1339 -0.3203
 1556poe    c3110021   6.219   5.130   3.812  0.2344  0.5682 -0.0728
 1556poe     o210022   6.083   5.159   3.788  0.1155  0.2082  0.1613
 1556poe    c2310023   6.070   5.243   3.675  0.0166  0.5956  0.4594
 1556poe    c2310024   5.944   5.329   3.693 -0.1788  0.4492 -0.1914
 1556poe     o210025   5.835   5.240   3.702 -0.1327  0.3957 -0.1557
 1556poe    c2310026   5.727   5.280   3.783 -0.2310 -0.1424 -0.0166
 1556poe    c2310027   5.649   5.155   3.830 -0.9612  0.3821  0.1928
 1556poe     o210028   5.750   5.082   3.895 -0.2834  0.4694 -0.7362
 1556poe    c2310029   5.715   4.946   3.906 -0.7262  0.6400  0.1046
 1556poe    c2310030   5.831   4.865   3.968 -0.7286  0.1416 -0.5284
 1556poe     o210031   5.941   4.923   3.900 -0.1275 -0.2078  0.1311
 1556poe    c3110032   6.061   4.856   3.933  0.1556  0.2400  0.0148
 1557poe    c3110033   4.546   2.006   3.617 -0.2971 -0.7583 -0.6166
 1557poe     o210034   4.413   1.965   3.639 -0.3785 -0.1817 -0.0249
 1557poe    c2310035   4.402   1.858   3.730  0.4138 -0.6164 -0.4376
 1557poe    c2310036   4.301   1.759   3.669 -0.1495  0.0022 -0.5242
 1557poe     o210037   4.206   1.843   3.608 -0.6315 -0.0297  0.1759
 1557poe    c2310038   4.099   1.764   3.560 -0.6429  0.3548 -0.4387
 1557poe    c2310039   4.008   1.867   3.492 -0.7001  0.4603 -0.2005
 1557poe     o210040   4.084   1.926   3.389 -0.0900  0.5726  0.3037
 1557poe    c2310041   4.013   1.993   3.286  0.0120 -0.4671 -0.4651
 1557poe    c2310042   4.106   2.033   3.170 -0.2275 -0.1210 -0.5357
 1557poe     o210043   4.193   2.141   3.195  0.0795 -0.4445 -0.1847
 1557poe    c3110044   4.193   2.214   3.074 -0.7663  0.2592  0.2257
 1558poe    c3110045   5.089   0.714   0.519 -0.1353 -0.0887  0.2828
 1558poe     o210046   5.008   0.605   0.552  0.1614 -0.2980  0.3266
 1558poe    c2310047   4.879   0.647   0.593  0.3388  0.0908  0.4859
 1558poe    c2310048   4.837   0.544   0.700  0.1699  0.0639  0.3930
 1558poe     o210049   4.795   0.422   0.642 -0.1787  0.3247  0.0902
 1558poe    c2310050   4.716   0.377   0.750  0.2819 -0.0168  0.2912
 1558poe    c2310051   4.643   0.247   0.713  0.2284  0.1086 -0.0488
 1558poe     o210052   4.740   0.182   0.632  0.0661  0.2420 -0.3496
 1558poe    c2310053   4.728   0.042   0.621  0.0337  0.2219 -0.0778
 1558poe    c2310054   4.830  -0.011   0.519  0.1624 -0.4264  0.3884
 1558poe     o210055   4.940   0.077   0.528  0.0302 -0.2546  0.3326
 1558poe    c3110056   5.017   0.077   0.410  0.2224 -0.3218  0.4566
 1559poe    c3110057   1.076   4.597   2.724  0.7470 -0.4740 -0.1739
 1559poe     o210058   1.095   4.736   2.737 -0.0614 -0.3167 -0.6379
 1559poe    c2310059   0.992   4.797   2.662 -0.3482 -0.3876 -0.3088
 1559poe    c2310060   1.022   4.946   2.637  0.1162 -0.4847 -0.3478
 1559poe     o210061   1.141   4.983   2.572  0.0649  0.3788  0.0383
 1559poe    c2310062   1.152   5.123   2.585  0.2764  0.2830  0.9555
 1559poe    c2310063   1.245   5.175   2.474 -0.3637 -0.1358  0.2189
 1559poe     o210064   1.352   5.084   2.470 -0.3005 -0.0436 -0.3011
 1559poe    c2310065   1.437   5.102   2.359  0.0539  0.1875  0.0051
 1559poe    c2310066   1.557   5.009   2.385 -0.1604  0.0289  0.4390
 1559poe     o210067   1.480   4.898   2.424 -0.1594 -0.4816 -0.9426
 1559poe    c3110068   1.560   4.783   2.416  0.1700 -0.3359  0.1134
 1560poe    c3110069   0.529   1.651   3.146  0.1297  0.1507 -0.1331
 1560poe     o210070   0.588   1.650   3.018  0.2718  0.2382 -0.0685
 1560poe    c2310071   0.711   1.581   3.027 -0.0522 -0.2656  0.5865
 1560poe    c2310072   0.805   1.607   2.908 -0.0517 -0.1084  0.6209
 1560poe     o210073   0.750   1.569   2.784  0.6465  0.6146  0.0767
 1560poe    c2310074   0.852   1.532   2.694  0.0993 -0.6856 -0.0250
 1560poe    c2310075   0.806   1.438   2.582 -0.2963 -0.5256  0.0013
 1560poe     o210076   0.684   1.484   2.527 -0.1440 -0.1226  0.0038
 1560poe    c2310077   0.650   1.446   2.396  0.1174  0.5375 -0.2580
 1560poe    c2310078   0.496   1.444   2.397  0.1166  0.5381 -0.3492
 1560poe     o210079   0.443   1.541   2.484 -0.2625 -0.1170  0.1643
 1560poe    c3110080   0.302   1.551   2.487 -0.3157 -0.7443 -0.1970
 1561poe    c3110081   2.123   0.531   2.706 -0.0180 -0.2241 -0.5155
 1561poe     o210082   2.204   0.563   2.818 -0.4459 -0.1726 -0.2177
 1561poe    c2310083   2.339   0.541   2.787 -0.3526  0.2763 -0.1362
 1561poe    c2310084   2.449   0.581   2.887 -0.2858  0.0172 -0.1043
 1561poe     o210085   2.451   0.522   3.015 -0.6726  0.3465  0.0568
 1561poe    c2310086   2.510   0.617   3.100 -0.6292  0.1585  0.2377
 1561poe    c2310087   2.491   0.606   3.253  0.2051  0.6272  0.3860
 1561poe     o210088   2.359   0.586   3.299 -0.0579  0.1075 -0.5581
 1561poe    c2310089   2.354   0.600   3.439 -1.1276 -0.5204 -0.5225
 1561poe    c2310090   2.382   0.477   3.526  0.1097 -0.1746 -0.4150
 1561poe     o210091   2.520   0.445   3.525  0.0501 -0.5099  0.7118
 1561poe    c3110092   2.541   0.337   3.613 -0.5978 -0.2879  1.1549
 1562poe    c3110093   1.029   6.847   5.885 -0.4366  0.3368 -0.2724
 1562poe     o210094   1.000   6.951   5.976 -0.0833  0.2498 -0.0589
 1562poe    c2310095   0.924   7.054   5.916  0.1129  0.6571  0.3910
 1562poe    c2310096   0.856   7.131   6.031 -0.2843  0.3311  0.3762
 1562poe     o210097   0.963   7.167   6.115 -0.0130 -0.0427  0.1952
 1562poe    c2310098   0.910   7.222   6.234  0.2068 -0.8424  0.6656
 1562poe    c2310099   1.025   7.293   6.308  0.3281 -0.3099 -0.0319
 1562poe     o210100   1.136   7.206   6.313  0.4286 -0.1900 -0.1652
 1562poe    c2310101   1.229   7.233   6.415 -0.0933 -0.3938  0.3662
 1562poe    c2310102   1.368   7.172   6.387  0.3413  0.5420  0.4407
 1562poe     o210103   1.426   7.204   6.263  0.1754 -0.3274  0.1247
 1562poe    c3110104   1.482   7.333   6.250  0.2197 -0.2975  0.5868
 1563poe    c3110105   3.733   0.223   4.173 -0.7799  0.6858 -0.2372
 1563poe     o210106   3.661   0.279   4.280  0.3600  0.1316  0.8522
 1563poe    c2310107   3.597   0.396   4.234 -0.2453 -0.4285  0.2469
 1563poe    c2310108   3.514   0.477   4.336  0.3628  0.0414  0.3713
 1563poe     o210109   3.614   0.531   4.421  0.2115 -0.1076  0.6433
 1563poe    c2310110   3.574   0.582   4.546 -0.2051 -0.0670  0.4949
 1563poe    c2310111   3.693   0.653   4.612 -0.0536  0.2903 -0.1531
 1563poe     o210112   3.781   0.550   4.652 -0.0796  0.3052 -0.0565
 1563poe    c2310113   3.904   0.583   4.713 -0.3216  0.0743  0.5539
 1563poe    c2310114   3.982   0.454   4.746  0.4078  0.3578 -0.0462
 1563poe     o210115   3.995   0.386   4.623  0.1632 -0.4234  0.3582
 1563poe    c3110116   4.065   0.265   4.637 -0.0736 -0.6225 -0.1409
 1564poe    c3110117   2.409   2.716   3.463  0.2320  0.3003  0.1958
 1564poe     o210118   2.367   2.851   3.463 -0.4480  0.0924  0.1871
 1564poe    c2310119   2.472   2.945   3.458 -0.5671  0.2036 -0.2420
 1564poe    c2310120   2.418   3.074   3.522 -0.1950 -0.0863  0.6776
 1564poe     o210121   2.297   3.106   3.455 -0.3960 -0.6635  0.7552
 1564poe    c2310122   2.248   3.230   3.502 -0.2448 -0.2851 -0.0741
 1564poe    c2310123   2.109   3.246   3.437 -0.1722  0.1319 -0.1319
 1564poe     o210124   2.030   3.132   3.464  0.3072 -0.1498  0.0907
 1564poe    c2310125   1.900   3.136   3.410  0.5856 -0.4816 -0.6182
 1564poe    c2310126   1.821   3.009   3.451 -0.9559  0.5330 -0.3414
 1564poe     o210127   1.802   3.008   3.590 -0.0064 -0.3319 -0.2091
 1564poe    c3110128   1.699   2.920   3.630 -0.3361  0.5255  0.8769
 1565poe    c3110129   0.059   4.580   3.641 -0.6073 -0.0753  0.1436
 1565poe     o210130   0.059   4.494   3.753  0.3517 -0.4390 -0.1294
 1565poe    c2310131  -0.008   4.553   3.862  0.2361 -0.0641 -0.4005
 1565poe    c2310132  -0.040   4.445   3.967  0.2104  0.2350 -0.1012
 1565poe     o210133   0.083   4.388   4.005 -0.0648  0.0012  0.4451
 1565poe    c2310134   0.075   4.275   4.090  0.1092 -0.2516  0.1291
 1565poe    c2310135   0.204   4.192   4.092  0.2049 -0.1007  0.2768
 1565poe     o210136   0.251   4.185   3.959 -0.4410  0.2719  0.0245
 1565poe    c2310137   0.370   4.111   3.946 -0.3739  0.4926 -0.6387
 1565poe    c2310138   0.365   3.989   3.852  0.2200 -0.0573  0.0256
 1565poe     o210139   0.363   4.024   3.715  0.1142  0.0755  0.0611
 1565poe    c3110140   0.367   3.915   3.626  0.4515 -0.3544  0.5980
 1566poe    c3110141   6.738   3.613   5.541  0.4915 -0.2129  0.0808
 1566poe     o210142   6.669   3.539   5.443 -0.0234  0.4649 -0.0824
 1566poe    c2310143   6.542   3.492   5.484 -0.1014  0.9019  0.1745
 1566poe    c2310144   6.450   3.465   5.364  0.3553 -0.0137  0.0230
 1566poe     o210145   6.518   3.397   5.260 -0.0167  0.1637 -0.3410
 1566poe    c2310146   6.459   3.285   5.197 -0.2607  0.2091 -0.1953
 1566poe    c2310147   6.530   3.270   5.062 -0.3026 -0.4684 -0.1435
 1566poe     o210148   6.665   3.273   5.102 -0.3401 -0.0170 -0.0438
 1566poe    c2310149   6.758   3.237   5.002 -0.4214  0.2516 -0.2150
 1566poe    c2310150   6.898   3.180   5.028 -0.5694  0.0717  0.1974
 1566poe     o210151   6.970   3.245   5.131  0.0613  0.3197 -0.3876
 1566poe    c3110152   7.108   3.220   5.128 -0.0691 -0.5170  0.2433
 1567poe    c3110153   0.888   0.260   3.149 -0.8342  0.4022  0.2108
 1567poe     o210154   0.819   0.222   3.033  0.6953  0.0647 -0.6146
 1567poe    c2310155   0.795   0.083   3.035  0.2269  0.1511  0.0371
 1567poe    c2310156   0.798   0.036   2.888 -0.3355  0.1366  0.0292
 1567poe     o210157   0.700   0.116   2.826 -0.1396  0.4154  0.0793
 1567poe    c2310158   0.724   0.115   2.687 -0.3381 -0.6461  0.0455
 1567poe    c2310159   0.647   0.232   2.623 -0.7776 -0.7903  0.3120
 1567poe     o210160   0.660   0.331   2.723  0.0690 -0.2704 -0.3016
 1567poe    c2310161   0.639   0.460   2.671  0.2207 -0.1122  0.0277
 1567poe    c2310162   0.627   0.553   2.793 -0.3762  0.2037 -0.2714
 1567poe     o210163   0.716   0.506   2.891  0.0023  0.2893 -0.5752
 1567poe    c3110164   0.741   0.607   2.986 -0.1014 -0.2993  0.0921
 1568poe    c3110165   2.255   6.465   1.089  0.0255 -0.4086  0.0708
 1568poe     o210166   2.176   6.561   1.154  0.4931 -0.2097  0.3464
 1568poe    c2310167   2.118   6.522   1.276  0.0020 -0.2876  0.0878
 1568poe    c2310168   1.998   6.426   1.267 -0.1900  0.0203 -0.7531
 1568poe     o210169   1.960   6.388   1.398 -0.4113  0.1544 -0.7772
 1568poe    c2310170   1.876   6.275   1.401 -0.3600  0.1361  0.4034
 1568poe    c2310171   1.867   6.218   1.544  0.2930  0.0454  0.4092
 1568poe     o210172   1.867   6.324   1.637  0.1655 -0.0289  0.4936
 1568poe    c2310173   1.825   6.301   1.769 -0.2659 -0.2562  0.3186
 1568poe    c2310174   1.819   6.443   1.829 -0.0248 -0.0408 -0.1641
 1568poe     o210175   1.941   6.503   1.792  0.0160  0.1371  0.2577
 1568poe    c3110176   2.002   6.576   1.895  1.2137 -0.8212  0.2499
 1569poe    c3110177   0.107   1.003   0.339 -0.4372  0.1341 -0.2624
 1569poe     o210178  -0.009   1.078   0.368 -0.5142 -0.0104 -0.1988
 1569poe    c2310179  -0.076   1.027   0.481 -0.1904  0.2232  0.1028
 1569poe    c2310180  -0.221   1.078   0.469 -0.0742  0.5610  0.1444
 1569poe     o210181  -0.293   1.033   0.356 -0.3876  0.5055  0.3645
 1569poe    c2310182  -0.414   1.104   0.348 -0.0137  1.0277 -0.8615
 1569poe    c2310183  -0.473   1.077   0.208 -0.4912 -0.1972 -0.4439
 1569poe     o210184  -0.455   0.945   0.162  0.0983 -0.3835  0.3006
 1569poe    c2310185  -0.503   0.941   0.029  0.1258  0.2327  0.2705
 1569poe    c2310186  -0.514   0.789   0.005  0.1274  0.2904 -0.0922
 1569poe     o210187  -0.395   0.729   0.051 -0.2931 -0.6640 -0.2383
 1569poe    c3110188  -0.364   0.633  -0.048  0.4084 -0.1663 -0.5016
 1570poe    c3110189   0.130   0.286   1.236 -0.6835 -0.6957  0.5374
 1570poe     o210190   0.026   0.380   1.219 -0.4737 -0.5595 -0.0288
 1570poe    c2310191   0.007   0.415   1.084  0.1691 -0.1191 -0.0076
 1570poe    c2310192  -0.108   0.517   1.090  0.0068 -0.2774 -0.3916
 1570poe     o210193  -0.218   0.457   1.154 -0.0629  0.2044 -0.0511
 1570poe    c2310194  -0.328   0.545   1.162  0.2985  0.6107  0.5264
 1570poe    c2310195  -0.443   0.471   1.235  0.2081  0.4209  0.1912
 1570poe     o210196  -0.384   0.414   1.349  0.1097  0.6675  0.3664
 1570poe    c2310197  -0.487   0.424   1.445 -0.3722 -0.3371 -0.0222
 1570poe    c2310198  -0.452   0.385   1.590  0.4158 -0.0091 -0.1188
 1570poe     o210199  -0.331   0.437   1.643  0.6292  0.1547 -0.7576
 1570poe    c3110200  -0.285   0.393   1.768  0.2042  0.8326 -0.3584
 1571poe    c3110201   5.511   0.699   2.332 -0.3317 -0.4481 -0.2056
 1571poe     o210202   5.462   0.607   2.427  0.0822 -0.0068  0.4491
 1571poe    c2310203   5.543   0.492   2.412 -0.6254 -0.4062 -0.4623
 1571poe    c2310204   5.482   0.389   2.510 -0.0844 -0.1038  0.2032
 1571poe     o210205   5.478   0.456   2.634 -0.1383 -0.1376  0.2195
 1571poe    c2310206   5.457   0.370   2.744  0.6794 -0.2961  0.2554
 1571poe    c2310207   5.468   0.440   2.880 -0.3454 -0.1886  0.2924
 1571poe     o210208   5.376   0.547   2.885 -0.0386  0.0790  0.3048
 1571poe    c2310209   5.365   0.588   3.019  0.1517  0.1345  0.3029
 1571poe    c2310210   5.242   0.677   3.042 -0.0064  0.0331 -0.1663
 1571poe     o210211   5.262   0.800   2.977 -0.0059  0.4405  0.5976
 1571poe    c3110212   5.240   0.908   3.065 -0.1108  1.0163 -0.1177
 1572poe    c3110213   5.011   2.903   1.201  0.6418  0.1433  0.1297
 1572poe     o210214   5.106   2.909   1.305  0.5745  0.4312  0.1761
 1572poe    c2310215   5.239   2.870   1.278  0.3908 -0.5213  0.6119
 1572poe    c2310216   5.325   2.878   1.406  0.3716  0.3144  0.5755
 1572poe     o210217   5.318   3.016   1.437  0.7086  0.5165 -0.2228
 1572poe    c2310218   5.335   3.042   1.574 -0.6713  0.2466  0.0159
 1572poe    c2310219   5.369   3.186   1.615  0.3568  0.0837 -0.2394
 1572poe     o210220   5.262   3.271   1.578  0.3077  0.1186 -0.0188
 1572poe    c2310221   5.261   3.400   1.634 -0.2934  0.2561 -0.3414
 1572poe    c2310222   5.144   3.481   1.575 -0.2903  0.3702 -0.1904
 1572poe     o210223   5.013   3.429   1.583 -0.0279 -0.2910 -0.1565
 1572poe    c3110224   4.941   3.492   1.686 -0.4130 -0.2413 -0.4529
 1573poe    c3110225   4.804   3.528   3.865  0.0147 -0.2421  0.2693
 1573poe     o210226   4.819   3.556   3.727 -0.0656  0.0363  0.3161
 1573poe    c2310227   4.749   3.455   3.658  0.1129  0.0845  0.0655
 1573poe    c2310228   4.719   3.486   3.510  0.2062  0.0148  0.0322
 1573poe     o210229   4.827   3.544   3.439  0.1072  0.0362 -0.1010
 1573poe    c2310230   4.792   3.586   3.309 -0.0630  0.1389 -0.0231
 1573poe    c2310231   4.893   3.688   3.253  0.0335 -0.3332 -0.7272
 1573poe     o210232   5.012   3.628   3.302  0.0702 -0.2576 -0.7252
 1573poe    c2310233   5.129   3.691   3.255  0.0669  0.4765  0.2135
 1573poe    c2310234   5.226   3.584   3.203  0.4996  0.6086  0.7429
 1573poe     o210235   5.244   3.484   3.301 -0.1709  0.3497  0.6067
 1573poe    c3110236   5.335   3.385   3.256  0.0466  0.8848 -0.1519
 1574poe    c3110237   4.282   4.438   0.838  0.1346 -0.3780  0.0845
 1574poe     o210238   4.213   4.395   0.953  0.1647  0.3904  0.4019
 1574poe    c2310239   4.270   4.467   1.059  0.2672  0.4779  0.2875
 1574poe    c2310240   4.197   4.449   1.194 -0.2500  0.4070 -0.0004
 1574poe     o210241   4.159   4.570   1.254  0.2087  0.5693 -0.0379
 1574poe    c2310242   4.098   4.539   1.377  0.0749  0.1520 -0.2084
 1574poe    c2310243   4.030   4.663   1.439 -0.0795 -0.2455  0.4197
 1574poe     o210244   4.109   4.763   1.498  0.2478 -0.0350 -0.3661
 1574poe    c2310245   4.122   4.730   1.635 -0.0570  0.4524 -0.2174
 1574poe    c2310246   4.153   4.857   1.718 -0.0187  0.2206  0.1232
 1574poe     o210247   4.135   4.976   1.645 -0.0202  0.1856  0.0657
 1574poe    c3110248   4.174   5.093   1.714  0.6143 -0.4393  0.7907
 1575poe    c3110249   2.887   2.398   0.920  0.3849  0.2108  0.2108
 1575poe     o210250   3.020   2.386   0.875  0.1555 -0.5545 -0.2822
 1575poe    c2310251   3.069   2.259   0.913  0.2639 -0.3373  0.3068
 1575poe    c2310252   3.212   2.219   0.872  0.3508  0.1081  0.1610
 1575poe     o210253   3.224   2.216   0.731  0.2398 -0.1485  0.1556
 1575poe    c2310254   3.352   2.182   0.682  0.2379 -0.9243  0.6765
 1575poe    c2310255   3.350   2.150   0.532 -0.1239  0.0457  0.4699
 1575poe     o210256   3.318   2.269   0.463  0.8871  0.1234  0.1182
 1575poe    c2310257   3.338   2.255   0.324 -0.2648  0.1206 -0.0575
 1575poe    c2310258   3.223   2.176   0.259  0.2496  0.2699 -1.1591
 1575poe     o210259   3.228   2.037   0.283  0.4463  0.4680  0.0059
 1575poe    c3110260   3.308   1.978   0.182  0.4284  0.3240  0.0759
 1576poe    c3110261   1.015   1.870   3.745 -0.3540 -0.0104  0.0526
 1576poe     o210262   1.059   1.900   3.615 -0.2916  0.3110  0.1461
 1576poe    c2310263   1.168   1.819   3.576 -0.2376  0.6383 -0.3899
 1576poe    c2310264   1.227   1.875   3.445 -0.0800  0.2735 -0.4740
 1576poe     o210265   1.124   1.932   3.368 -0.4529 -0.3690 -0.4610
 1576poe    c2310266   1.143   1.945   3.229 -0.7700  0.3166 -0.4432
 1576poe    c2310267   1.039   2.050   3.186 -0.2945  0.5427 -1.0724
 1576poe     o210268   1.075   2.181   3.224  0.2283  0.1661 -0.2415
 1576poe    c2310269   1.001   2.273   3.148  0.2249  0.0085 -0.4290
 1576poe    c2310270   0.992   2.394   3.243 -0.2943  0.1587 -0.6628
 1576poe     o210271   0.973   2.358   3.378  0.0027  0.6013 -0.5030
 1576poe    c3110272   0.941   2.470   3.458 -0.7372  0.0809 -0.0623
 1577poe    c3110273   4.713   6.810   5.364 -0.2247 -0.2182 -0.0150
 1577poe     o210274   4.737   6.878   5.242 -0.5867 -0.1332 -0.0412
 1577poe    c2310275   4.749   7.018   5.243  0.2702 -0.2028 -0.0118
 1577poe    c2310276   4.754   7.077   5.101 -0.8363  0.5422  0.2481
 1577poe     o210277   4.677   6.993   5.018  0.1409 -0.0327 -0.0882
 1577poe    c2310278   4.679   7.034   4.883 -0.3006  0.3883  0.0331
 1577poe    c2310279   4.562   6.957   4.821  0.0476 -0.3615  0.2943
 1577poe     o210280   4.597   6.822   4.839  0.6459 -0.3721 -0.8520
 1577poe    c2310281   4.523   6.728   4.765 -0.7653 -0.4208  0.5780
 1577poe    c2310282   4.547   6.579   4.800  0.7713 -0.1981  0.5220
 1577poe     o210283   4.488   6.549   4.924 -0.4208 -0.5622 -0.1167
 1577poe    c3110284   4.561   6.441   4.978  0.3703  0.0660  0.0942
 1578poe    c3110285   6.745   6.017   5.751 -0.8665 -0.2422  0.0360
 1578poe     o210286   6.778   5.883   5.722 -0.3626 -0.1709  0.2714
 1578poe    c2310287   6.838   5.828   5.838 -0.3306 -0.4010  0.1457
 1578poe    c2310288   6.868   5.680   5.812  0.3069 -0.2506 -0.0051
 1578poe     o210289   6.754   5.625   5.750 -0.2182  0.2934  0.4753
 1578poe    c2310290   6.700   5.502   5.793  0.4799 -0.5379 -0.9687
 1578poe    c2310291   6.568   5.468   5.722 -0.3786 -0.2017  0.4323
 1578poe     o210292   6.592   5.444   5.585 -0.2319 -0.1271  0.4450
 1578poe    c2310293   6.470   5.470   5.519  0.0603  0.6315  0.1892
 1578poe    c2310294   6.476   5.489   5.366 -0.2396  0.3739  0.1456
 1578poe     o210295   6.529   5.612   5.322 -0.3681  0.4775  0.2799
 1578poe    c3110296   6.523   5.629   5.182  0.1744 -0.1343  0.1769
 1579poe    c3110297   0.729   3.171   5.586  0.2641 -0.0786 -0.1186
 1579poe     o210298   0.657   3.290   5.612  1.0549  0.4004 -0.0638
 1579poe    c2310299   0.638   3.303   5.751  0.0989  0.2003 -0.1690
 1579poe    c2310300   0.633   3.450   5.797 -0.0071  0.0467  0.3161
 1579poe     o210301   0.503   3.496   5.767 -0.0083  0.0333  0.3003
 1579poe    c2310302   0.479   3.635   5.773 -0.8824 -0.1106  0.2809
 1579poe    c2310303   0.327   3.658   5.769 -0.8261  0.2444  0.1909
 1579poe     o210304   0.286   3.631   5.637 -0.0165 -0.1661  0.0213
 1579poe    c2310305   0.146   3.627   5.625  0.0014 -0.4924 -0.1015
 1579poe    c2310306   0.106   3.669   5.482  0.5461 -0.1158 -0.1459
 1579poe     o210307   0.199   3.600   5.402  0.5790 -0.2117 -0.0245
 1579poe    c3110308   0.194   3.625   5.263  0.2035 -0.4345 -0.0528
 1580poe    c3110309   1.360   5.413   0.450 -0.4119  0.0601  0.4309
 1580poe     o210310   1.453   5.494   0.519 -0.1382 -0.1737  0.3377
 1580poe    c2310311   1.404   5.622   0.552 -0.2600 -0.2837  0.5854
 1580poe    c2310312   1.515   5.700   0.624 -0.2076 -0.1799  0.3939
 1580poe     o210313   1.625   5.690   0.537 -0.1338 -0.0641  0.4732
 1580poe    c2310314   1.724   5.785   0.570 -0.2254  0.2214 -0.0628
 1580poe    c2310315   1.858   5.762   0.498 -0.1366 -0.2468  0.2452
 1580poe     o210316   1.899   5.634   0.540  0.2868 -0.0259  0.5065
 1580poe    c2310317   2.017   5.581   0.482  0.0876 -0.4224  0.4648
 1580poe    c2310318   2.010   5.454   0.394  0.5076 -0.2400  0.1664
 1580poe     o210319   1.958   5.348   0.471  0.2311  0.1668  0.5503
 1580poe    c3110320   1.951   5.228   0.397 -0.9081  0.1681  0.6417
 1581poe    c3110321   1.045   0.435   1.564 -0.1321  0.5909  0.1846
 1581poe     o210322   0.930   0.359   1.595 -0.2042  0.4441 -0.4233
 1581poe    c2310323   0.900   0.252   1.508 -0.0729  0.4638 -0.4939
 1581poe    c2310324   0.780   0.171   1.561  0.0952  0.5224 -0.0146
 1581poe     o210325   0.696   0.270   1.616  0.0821  0.3149  0.3384
 1581poe    c2310326   0.563   0.224   1.620  0.0126  0.4200 -0.5659
 1581poe    c2310327   0.475   0.326   1.696 -0.4724 -0.1705 -0.3222
 1581poe     o210328   0.480   0.452   1.633 -0.0472 -0.0221  0.0052
 1581poe    c2310329   0.389   0.537   1.701  0.0086 -0.2519  0.3708
 1581poe    c2310330   0.437   0.683   1.697  0.4037 -0.3856  0.0983
 1581poe     o210331   0.559   0.698   1.765  0.4685  0.2518 -0.1483
 1581poe    c3110332   0.561   0.818   1.839 -0.4425  0.0192  0.2712
 1582poe    c3110333   2.547   0.247   0.125  0.3435 -0.3177 -0.6579
 1582poe     o210334   2.579   0.117   0.082 -0.3401 -0.6086 -0.3027
 1582poe    c2310335   2.452   0.072   0.039 -0.7619  0.6891 -0.4696
 1582poe    c2310336   2.393  -0.046   0.119  0.0720  0.0587 -0.7601
 1582poe     o210337   2.486  -0.152   0.114 -0.5067 -0.4433 -0.9758
 1582poe    c2310338   2.445  -0.258   0.198  0.5053  0.2841  0.4905
 1582poe    c2310339   2.567  -0.350   0.212  0.2133 -0.1817  0.0379
 1582poe     o210340   2.678  -0.272   0.249  0.0879  0.2854 -0.5606
 1582poe    c2310341   2.790  -0.355   0.269 -0.3887 -0.2859 -0.2165
 1582poe    c2310342   2.926  -0.288   0.296 -0.3013 -0.4080 -0.3456
 1582poe     o210343   2.982  -0.214   0.190  0.5074 -0.3596  0.1064
 1582poe    c3110344   3.114  -0.190   0.234  0.8475 -0.4914 -0.8277
 1583poe    c3110345   5.156   1.466   0.694  0.4504  0.2760  0.3038
 1583poe     o210346   5.145   1.561   0.798 -1.0953  0.7486 -0.2657
 1583poe    c2310347   5.077   1.514   0.913 -0.8614 -0.0521 -0.4519
 1583poe    c2310348   5.063   1.640   1.001 -0.3458 -0.1063 -0.2897
 1583poe     o210349   5.186   1.704   1.025 -0.5239  0.3082 -0.4707
 1583poe    c2310350   5.171   1.821   1.102  0.0815  0.2943 -0.3210
 1583poe    c2310351   5.306   1.884   1.066  0.4948 -0.2861  0.1854
 1583poe     o210352   5.325   1.872   0.927  0.7798 -0.2261  0.2175
 1583poe    c2310353   5.454   1.905   0.879  0.6828 -0.4675 -0.2194
 1583poe    c2310354   5.438   1.867   0.731 -0.0446  0.2610 -0.3367
 1583poe     o210355   5.387   1.736   0.716  0.5578 -0.0756  0.5158
 1583poe    c3110356   5.365   1.712   0.579  0.2591 -0.5451  0.6434
 1584poe    c3110357   2.846   2.611   3.150 -0.4849 -0.0971 -0.2914
 1584poe     o210358   2.933   2.639   3.044 -0.4676 -0.6192 -0.4197
 1584poe    c2310359   3.067   2.633   3.088 -0.4633  0.0149 -0.3256
 1584poe    c2310360   3.150   2.651   2.959  0.1927 -0.2065  0.0630
 1584poe     o210361   3.128   2.783   2.914 -0.6714 -0.3436  0.0802
 1584poe    c2310362   3.207   2.826   2.806 -0.2742 -0.7767  0.1958
 1584poe    c2310363   3.251   2.969   2.844  0.3963 -0.8260 -0.3842
 1584poe     o210364   3.332   2.955   2.959  0.5670  0.0633 -0.3954
 1584poe    c2310365   3.427   3.058   2.978  0.5432  0.0155 -0.0103
 1584poe    c2310366   3.535   3.023   3.082  0.7877 -0.0974 -0.2987
 1584poe     o210367   3.522   3.068   3.215  0.3946 -0.0304 -0.3561
 1584poe    c3110368   3.552   3.205   3.228 -0.4936  0.1590 -0.2420
 1585poe    c3110369   4.389   2.210   5.884  0.5967  0.1259  0.5039
 1585poe     o210370   4.264   2.188   5.944  0.2474  0.2101 -0.1742
 1585poe    c2310371   4.231   2.054   5.973  0.3612  0.2885  0.3337
 1585poe    c2310372   4.077   2.062   5.979  0.3404  0.1916 -0.0467
 1585poe     o210373   4.024   2.176   6.044  0.1136 -0.2281  0.5137
 1585poe    c2310374   3.896   2.196   5.989  0.1685 -0.3147  0.3498
 1585poe    c2310375   3.905   2.348   5.963 -0.1107 -0.2471  0.6290
 1585poe     o210376   4.033   2.390   5.922 -0.1110 -0.3319  0.5401
 1585poe    c2310377   4.048   2.530   5.927  0.2157 -0.3454  0.0534
 1585poe    c2310378   4.195   2.573   5.942  0.2573 -0.4678 -0.0136
 1585poe     o210379   4.243   2.483   6.039 -0.4430 -0.5036  0.3031
 1585poe    c3110380   4.373   2.533   6.058 -0.5046 -0.0876 -0.3657
 1586poe    c3110381   5.510   5.689   1.633 -0.4525  0.0550  0.0827
 1586poe     o210382   5.626   5.612   1.610 -0.6052 -0.3181  0.5547
 1586poe    c2310383   5.603   5.476   1.636 -0.3061 -0.4591  0.0864
 1586poe    c2310384   5.717   5.395   1.571  0.0077  0.2449 -0.2484
 1586poe     o210385   5.836   5.441   1.631 -0.0544 -0.3002  0.3061
 1586poe    c2310386   5.944   5.486   1.551 -0.0060 -0.0314  0.5197
 1586poe    c2310387   6.066   5.500   1.643  0.3741 -0.1129  0.0304
 1586poe     o210388   6.057   5.626   1.706 -0.5640 -0.0483 -0.2225
 1586poe    c2310389   6.167   5.659   1.788 -1.0244  0.4541  0.1937
 1586poe    c2310390   6.152   5.809   1.820  0.3270  0.6569 -0.0799
 1586poe     o210391   6.020   5.821   1.868  0.2151  0.1832 -0.2576
 1586poe    c3110392   6.023   5.928   1.960 -0.0115 -0.3605  0.3899
 1587poe    c3110393   3.272   3.386   3.109 -0.1715 -0.2431 -0.8022
 1587poe     o210394   3.144   3.336   3.140 -0.0208  0.0102  0.2682
 1587poe    c2310395   3.150   3.220   3.220  0.0861 -0.3292 -0.2281
 1587poe    c2310396   3.005   3.169   3.219 -0.1233  0.2501 -0.0096
 1587poe     o210397   2.904   3.265   3.241 -0.3630  0.1286 -0.5559
 1587poe    c2310398   2.784   3.196   3.216 -0.2204 -0.0472 -0.7586
 1587poe    c2310399   2.648   3.267   3.230  0.2235  0.5741  0.6063
 1587poe     o210400   2.663   3.377   3.144 -0.0745  0.3334  0.2399
 1587poe    c2310401   2.541   3.448   3.143 -0.5585 -0.4976 -0.1068
 1587poe    c2310402   2.580   3.592   3.108 -0.4599 -0.3966  0.4081
 1587poe     o210403   2.666   3.609   2.997 -0.8614  0.0260  0.1523
 1587poe    c3110404   2.639   3.720   2.916  0.0794  0.4924  0.4582
 1588poe    c3110405   4.717   4.810   0.100 -0.5732  0.3088 -0.3605
 1588poe     o210406   4.703   4.705   0.007  0.4756 -0.6584  0.5409
 1588poe    c2310407   4.821   4.629  -0.010  0.4016 -0.8219  0.7515
 1588poe    c2310408   4.770   4.499  -0.076  0.5872 -0.3928 -0.2512
 1588poe     o210409   4.707   4.548  -0.192  0.1746 -0.3576 -0.0151
 1588poe    c2310410   4.646   4.449  -0.273 -0.9184 -0.3934  0.8266
 1588poe    c2310411   4.540   4.504  -0.370  0.6839  0.7774 -0.3231
 1588poe     o210412   4.437   4.567  -0.297  0.1188  0.2044 -0.6076
 1588poe    c2310413   4.310   4.587  -0.354 -0.0909 -0.1929 -0.2874
 1588poe    c2310414   4.231   4.704  -0.294 -0.1721 -0.4015  0.0139
 1588poe     o210415   4.227   4.684  -0.154  0.2274  0.4348  0.1509
 1588poe    c3110416   4.111   4.741  -0.099  0.3297  0.6151  0.1815
 1589poe    c3110417   3.491   5.278   1.358  0.2153 -0.1797  0.4745
 1589poe     o210418   3.449   5.220   1.237  0.6123  0.1031  0.1966
 1589poe    c2310419   3.399   5.089   1.253  0.4384  0.1667  0.1793
 1589poe    c2310420   3.393   5.017   1.117 -0.6153 -0.0061  0.3073
 1589poe     o210421   3.307   5.088   1.030  0.3405  0.5993 -0.1610
 1589poe    c2310422   3.289   5.014   0.912  0.3197  0.8824 -0.3361
 1589poe    c2310423   3.191   5.088   0.819 -0.1042  0.1484 -0.4817
 1589poe     o210424   3.220   5.226   0.817  0.2419  0.0824 -0.1961
 1589poe    c2310425   3.165   5.290   0.704  0.2858  0.5336  0.0377
 1589poe    c2310426   3.268   5.361   0.614 -0.1416  0.2589 -0.6774
 1589poe     o210427   3.316   5.486   0.660  0.2659 -0.1606  0.0546
 1589poe    c3110428   3.377   5.551   0.551  0.4082 -0.5428 -0.0959
 1590poe    c3110429   4.962   3.152   2.611  0.2909 -0.1079  0.4494
 1590poe     o210430   4.972   3.045   2.520 -0.5931 -0.1921  0.4469
 1590poe    c2310431   4.953   3.104   2.394  0.0097 -0.1252  0.3843
 1590poe    c2310432   4.915   2.995   2.292 -0.0154 -0.0182  0.2784
 1590poe     o210433   5.011   2.900   2.332  0.1015 -0.0645 -0.1110
 1590poe    c2310434   5.011   2.787   2.248  0.0819 -0.4904  0.4545
 1590poe    c2310435   5.138   2.703   2.275 -0.1585 -0.8289  0.5313
 1590poe     o210436   5.153   2.691   2.414  0.1722 -0.1247  0.5570
 1590poe    c2310437   5.279   2.631   2.433  0.2153 -0.0815  0.4058
 1590poe    c2310438   5.306   2.605   2.583 -0.4319 -0.1780  0.5080
 1590poe     o210439   5.334   2.717   2.664  0.1160  0.1074 -0.0577
 1590poe    c3110440   5.332   2.676   2.799  0.2022 -0.0072 -0.0911
 1591poe    c3110441   1.277   4.759   6.664 -0.9983 -0.1819 -0.2060
 1591poe     o210442   1.307   4.689   6.783 -0.0305 -0.0759 -0.3776
 1591poe    c2310443   1.210   4.695   6.885  0.0551 -0.0209 -0.2991
 1591poe    c2310444   1.276   4.725   7.020 -0.6739  0.4903 -0.0497
 1591poe     o210445   1.370   4.625   7.051 -0.1099  0.9853 -0.1393
 1591poe    c2310446   1.471   4.683   7.129  0.0346  0.2227  0.2509
 1591poe    c2310447   1.576   4.579   7.173 -0.4771 -0.3816  0.0506
 1591poe     o210448   1.655   4.515   7.075 -0.1382 -0.1764  0.1901
 1591poe    c2310449   1.723   4.407   7.135 -0.4416 -0.7444 -0.4766
 1591poe    c2310450   1.823   4.370   7.024  0.1950 -0.5464  0.0189
 1591poe     o210451   1.744   4.365   6.907 -0.3715  0.4108  0.3524
 1591poe    c3110452   1.821   4.366   6.788 -0.0789  0.1909  0.5370
 1592poe    c3110453   4.845   7.009   3.926  0.4601 -0.4050 -0.0951
 1592poe     o210454   4.937   7.114   3.906  0.0792 -0.1321 -0.4461
 1592poe    c2310455   5.046   7.097   3.993 -0.2035  0.4566  0.0336
 1592poe    c2310456   5.131   7.224   4.011  0.5674 -0.0129 -0.2263
 1592poe     o210457   5.157   7.253   3.875 -0.0948 -0.6217 -0.4887
 1592poe    c2310458   5.252   7.356   3.855 -0.6161  0.0037  0.1961
 1592poe    c2310459   5.306   7.365   3.712  0.0730  0.0094  0.4548
 1592poe     o210460   5.200   7.377   3.619  0.2800 -0.2256  0.1833
 1592poe    c2310461   5.237   7.449   3.504 -0.5736 -0.7631 -0.4355
 1592poe    c2310462   5.113   7.445   3.412 -1.1129  0.0497  0.2513
 1592poe     o210463   5.095   7.317   3.356 -0.0008 -0.0759  0.1588
 1592poe    c3110464   4.991   7.305   3.262 -0.0655  0.3284  0.1768
 1593poe    c3110465   4.367   6.906   0.277  0.4313 -0.4948 -0.2203
 1593poe     o210466   4.316   6.840   0.163 -0.5592 -0.4601  0.1890
 1593poe    c2310467   4.217   6.922   0.104 -1.1433 -0.8248  0.6555
 1593poe    c2310468   4.155   6.833  -0.006  0.1256 -0.4862 -0.3654
 1593poe     o210469   4.264   6.791  -0.084  0.4290 -0.1200 -0.1472
 1593poe    c2310470   4.231   6.691  -0.178  0.3300  0.3768 -0.6526
 1593poe    c2310471   4.371   6.639  -0.216  0.4277 -0.1795  0.4153
 1593poe     o210472   4.427   6.608  -0.090  0.0038 -0.1541  0.6144
 1593poe    c2310473   4.565   6.578  -0.099 -0.0143 -0.0200 -0.1942
 1593poe    c2310474   4.630   6.614   0.036 -0.2782 -0.4894  0.0611
 1593poe     o210475   4.551   6.724   0.078  0.0775 -0.0465 -0.4115
 1593poe    c3110476   4.643   6.825   0.113 -0.1767  0.1674 -0.3615
 1594poe    c3110477   3.759   0.565   0.421  0.4241 -0.0697  0.7027
 1594poe     o210478   3.777   0.450   0.341  0.8762  0.5759 -0.1384
 1594poe    c2310479   3.682   0.352   0.377  1.1634  0.2913 -0.1531
 1594poe    c2310480   3.709   0.238   0.276  0.1375 -0.1791  0.0891
 1594poe     o210481   3.849   0.224   0.264  0.1732  0.0207  0.2585
 1594poe    c2310482   3.895   0.107   0.200  0.0917  0.2914 -0.2985
 1594poe    c2310483   3.853   0.075   0.055  0.5888 -0.3853 -0.2934
 1594poe     o210484   3.873   0.189  -0.025  0.4290  0.1977  0.4912
 1594poe    c2310485   3.840   0.179  -0.162 -0.0265  0.2189  0.5979
 1594poe    c2310486   3.842   0.316  -0.232  0.0977  0.3412  0.8422
 1594poe     o210487   3.795   0.429  -0.162  0.3206  0.8468  0.1834
 1594poe    c3110488   3.657   0.435  -0.135  0.3348  0.0815  0.4543
 1595poe    c3110489   0.625   3.837   6.723 -0.0078  0.3077 -0.6540
 1595poe     o210490   0.706   3.888   6.826 -0.3622 -0.1724 -0.1299
 1595poe    c2310491   0.764   4.004   6.771  0.2424 -0.0566  0.7312
 1595poe    c2310492   0.719   4.132   6.844 -0.0999 -0.0069  0.4350
 1595poe     o210493   0.583   4.163   6.822 -0.1336 -0.0708  0.5514
 1595poe    c2310494   0.540   4.293   6.858 -0.3386  0.0360 -0.0703
 1595poe    c2310495   0.526   4.314   7.010 -0.3416  0.0386 -0.0707
 1595poe     o210496   0.404   4.269   7.064 -0.1298  0.2793  0.6083
 1595poe    c2310497   0.418   4.268   7.205  0.5322  0.4624  0.5485
 1595poe    c2310498   0.307   4.184   7.270  0.3287  0.1062 -0.2497
 1595poe     o210499   0.296   4.200   7.410  0.4799  0.1794 -0.2462
 1595poe    c3110500   0.210   4.094   7.445  0.0271  0.6446  0.0533
 1596poe    c3110501   0.490   1.443   0.510  0.0085 -0.1533  0.2509
 1596poe     o210502   0.501   1.520   0.627 -0.1839  0.2964 -0.0251
 1596poe    c2310503   0.391   1.522   0.715 -0.1741  0.9855 -0.0208
 1596poe    c2310504   0.413   1.626   0.827 -0.2267  0.7042  0.2513
 1596poe     o210505   0.509   1.595   0.926 -0.3439 -0.0795  0.1318
 1596poe    c2310506   0.507   1.699   1.021  0.5898  0.3511 -0.3047
 1596poe    c2310507   0.624   1.671   1.117  0.4996 -0.6472 -0.4795
 1596poe     o210508   0.733   1.652   1.029  0.6544 -0.5443 -0.3099
 1596poe    c2310509   0.846   1.621   1.108  0.3091 -0.0664  0.3800
 1596poe    c2310510   0.959   1.569   1.018  0.0439  0.0887 -0.0476
 1596poe     o210511   0.893   1.472   0.940  0.1494  0.1076 -0.1598
 1596poe    c3110512   0.982   1.400   0.857  0.4495  0.3438 -0.0463
 1597poe    c3110513   3.424   0.574   2.299  0.7401  0.3404  0.3076
 1597poe     o210514   3.502   0.639   2.201  0.3893 -0.3854 -0.4575
 1597poe    c2310515   3.467   0.775   2.196  0.1911 -0.4054  0.3348
 1597poe    c2310516   3.575   0.850   2.116 -0.1810 -0.1128  0.1021
 1597poe     o210517   3.693   0.789   2.162  0.0493 -0.0772 -0.4400
 1597poe    c2310518   3.804   0.871   2.133  0.4905 -0.5356 -0.0902
 1597poe    c2310519   3.931   0.787   2.151  0.4869 -0.5037  0.0839
 1597poe     o210520   3.916   0.661   2.090 -0.0765 -0.1879 -0.4348
 1597poe    c2310521   4.040   0.594   2.085  0.0594  0.0293 -0.0249
 1597poe    c2310522   4.041   0.480   1.981 -0.3673 -0.1532  0.1690
 1597poe     o210523   3.952   0.379   2.022 -0.3729 -0.3244 -0.2586
 1597poe    c3110524   3.997   0.278   2.111 -0.2911  0.4252  0.5689
 1598poe    c3110525   6.054   0.324   2.734 -0.3164  0.2413 -0.1422
 1598poe     o210526   6.024   0.256   2.614  0.6348  0.1503 -0.3326
 1598poe    c2310527   5.904   0.184   2.628  0.4164  0.4726 -0.5188
 1598poe    c2310528   5.885   0.070   2.526  0.1337  0.1106 -0.0677
 1598poe     o210529   5.933   0.124   2.405 -0.8500  0.5542 -0.2716
 1598poe    c2310530   5.880   0.055   2.294 -0.7946  0.0122  0.0359
 1598poe    c2310531   5.942   0.101   2.161 -0.0094 -0.1520  0.3344
 1598poe     o210532   6.082   0.084   2.159  0.0287  0.1598  0.3127
 1598poe    c2310533   6.146   0.178   2.075 -0.3009  0.1928  0.0961
 1598poe    c2310534   6.298   0.197   2.086 -0.2216 -0.0233 -0.6177
 1598poe     o210535   6.368   0.091   2.025 -0.5078 -0.4992 -0.1184
 1598poe    c3110536   6.507   0.106   2.041 -0.5742 -0.0353  0.0208
 1599poe    c3110537   1.259   5.034   6.328 -0.0440 -0.0240 -0.7605
 1599poe     o210538   1.198   5.147   6.386  0.4333  0.1398 -0.5801
 1599poe    c2310539   1.283   5.199   6.487  0.2467 -0.0148 -0.3435
 1599poe    c2310540   1.189   5.308   6.542  0.5108 -0.3994  0.8933
 1599poe     o210541   1.062   5.255   6.568  0.0875  0.1836  0.0477
 1599poe    c2310542   0.962   5.354   6.576  0.0612  0.2258 -0.7396
 1599poe    c2310543   0.843   5.295   6.499 -0.3595 -0.0522  0.1163
 1599poe     o210544   0.883   5.282   6.364 -0.4220 -0.2506  0.1160
 1599poe    c2310545   0.792   5.200   6.294 -0.6597  0.1132 -0.0009
 1599poe    c2310546   0.848   5.195   6.151 -0.7274 -0.5217 -0.0076
 1599poe     o210547   0.977   5.140   6.160 -0.3882  0.2320 -0.1843
 1599poe    c3110548   1.021   5.085   6.038  0.5016 -0.3268  0.3734
 1600poe    c3110549   2.105   3.261   1.837 -0.2019 -0.1177 -0.1831
 1600poe     o210550   2.222   3.229   1.766 -0.1113 -0.1571 -0.0165
 1600poe    c2310551   2.243   3.091   1.744  0.7381 -0.1111  0.4570
 1600poe    c2310552   2.378   3.060   1.676  0.0511 -0.5237 -0.7443
 1600poe     o210553   2.409   3.123   1.554 -0.2622  0.9747 -0.0666
 1600poe    c2310554   2.534   3.066   1.522 -0.3141  0.7632  0.1109
 1600poe    c2310555   2.576   3.144   1.396  1.1001  0.3228  0.2907
 1600poe     o210556   2.555   3.283   1.404  0.0326  0.2201 -0.4993
 1600poe    c2310557   2.574   3.343   1.278 -0.1414  0.3606 -0.4587
 1600poe    c2310558   2.584   3.494   1.305 -0.5734  0.3764 -0.3753
 1600poe     o210559   2.475   3.526   1.388 -0.2640  0.1060  0.1406
 1600poe    c3110560   2.457   3.665   1.396  0.3867  0.2036 -0.0457
 1601poe    c3110561   6.226   0.558   3.373  0.5240  0.1631  0.2701
 1601poe     o210562   6.292   0.612   3.261 -0.1466 -0.2049 -0.3089
 1601poe    c2310563   6.246   0.745   3.254  0.3424 -0.0191  0.0050
 1601poe    c2310564   6.353   0.829   3.181  0.2339 -0.0622 -0.2027
 1601poe     o210565   6.388   0.759   3.064  0.3801  0.5898 -0.5505
 1601poe    c2310566   6.295   0.785   2.961 -0.1398  0.3337 -0.1508
 1601poe    c2310567   6.358   0.705   2.845  0.3212  0.3842  0.0653
 1601poe     o210568   6.384   0.578   2.901 -0.1434  0.2728  0.0331
 1601poe    c2310569   6.419   0.489   2.797 -0.0920  0.6582 -0.2818
 1601poe    c2310570   6.493   0.359   2.832 -0.1363  0.7100  0.0036
 1601poe     o210571   6.404   0.277   2.904 -0.0329  0.5729 -0.0246
 1601poe    c3110572   6.426   0.143   2.868 -0.1654  0.6505 -0.3981
 1602poe    c3110573   0.346   5.400   1.107  0.0548  0.0687 -0.1515
 1602poe     o210574   0.273   5.282   1.081  0.0547 -0.0152  0.2126
 1602poe    c2310575   0.178   5.259   1.182  0.4942  0.6205  0.7849
 1602poe    c2310576   0.093   5.134   1.149  0.2506  1.0090 -0.0804
 1602poe     o210577   0.044   5.150   1.018 -0.0496  0.2929 -0.0599
 1602poe    c2310578  -0.057   5.062   0.974  0.2362 -0.1056  0.0805
 1602poe    c2310579  -0.123   5.121   0.848 -0.0084 -0.8639 -0.1512
 1602poe     o210580  -0.023   5.161   0.756 -0.3917 -0.4953 -0.4141
 1602poe    c2310581  -0.068   5.170   0.623  0.0389 -0.3653 -0.5518
 1602poe    c2310582   0.054   5.210   0.538  0.1459  0.7776  0.1253
 1602poe     o210583   0.154   5.110   0.535 -0.4336  0.2012 -0.2098
 1602poe    c3110584   0.188   5.069   0.405 -0.0978 -0.8025  0.1895
 1603poe    c3110585   6.451   6.634   1.284 -0.6565 -0.0200  1.2380
 1603poe     o210586   6.449   6.760   1.220  0.3647 -0.6305 -0.0474
 1603poe    c2310587   6.518   6.848   1.307  0.5939  0.0002 -0.8524
 1603poe    c2310588   6.533   6.989   1.248 -0.4223  0.4397 -0.0804
 1603poe     o210589   6.421   7.026   1.170 -0.1703  0.1824 -0.5635
 1603poe    c2310590   6.432   7.158   1.122 -0.3585  0.4269  0.0603
 1603poe    c2310591   6.327   7.164   1.010 -0.1893 -0.1733 -0.1331
 1603poe     o210592   6.378   7.069   0.919  0.4908  0.4758 -0.4390
 1603poe    c2310593   6.356   7.089   0.781 -0.3224 -0.8137 -0.5088
 1603poe    c2310594   6.440   6.996   0.691  0.7122  0.1967 -0.6113
 1603poe     o210595   6.380   6.868   0.700  0.2886  0.4285 -0.0595
 1603poe    c3110596   6.451   6.779   0.617  0.2186  0.8264 -0.5557
 1604poe    c3110597   5.136   5.616   3.240 -0.2591  0.1854  0.3926
 1604poe     o210598   5.226   5.723   3.216  0.4493 -0.4902 -0.0058
 1604poe    c2310599   5.269   5.731   3.082  0.1804  0.0086 -0.0651
 1604poe    c2310600   5.349   5.863   3.075  0.2727 -0.0246  0.3043
 1604poe     o210601   5.259   5.969   3.095  0.1747 -0.1254  0.3973
 1604poe    c2310602   5.322   6.092   3.121 -0.4907  0.3436 -0.1925
 1604poe    c2310603   5.226   6.189   3.192 -0.1890  0.1573  0.4697
 1604poe     o210604   5.199   6.151   3.325 -0.5478 -0.1368  0.3146
 1604poe    c2310605   5.123   6.244   3.399  0.4118  0.6187  0.3705
 1604poe    c2310606   5.127   6.207   3.548  0.0285 -0.1321  0.2011
 1604poe     o210607   5.107   6.069   3.571 -0.3613 -0.1228 -0.0705
 1604poe    c3110608   5.096   6.038   3.708 -1.1419  0.5290  0.0242
 1605poe    c3110609   0.206   3.617   2.309 -0.6782  0.6308 -0.0768
 1605poe     o210610   0.217   3.582   2.445 -0.0534  0.2187 -0.2263
 1605poe    c2310611   0.231   3.443   2.465 -0.0946  0.2502  0.0274
 1605poe    c2310612   0.286   3.423   2.608 -0.1331 -0.2826 -0.0318
 1605poe     o210613   0.198   3.503   2.684  0.1463  0.0931 -0.1021
 1605poe    c2310614   0.192   3.455   2.816 -0.2304  0.1530 -0.0966
 1605poe    c2310615   0.076   3.520   2.893 -0.5052  0.8519 -1.0821
 1605poe     o210616   0.122   3.652   2.914 -0.1117  0.5608 -0.0650
 1605poe    c2310617   0.016   3.734   2.957 -0.2688  0.1989  0.2452
 1605poe    c2310618   0.077   3.874   2.976 -0.2359  0.2902 -0.5120
 1605poe     o210619   0.134   3.927   2.859 -0.2236  0.4675 -0.4269
 1605poe    c3110620   0.232   4.023   2.892  0.1665  0.1120 -0.5384
 1606poe    c3110621   0.209   6.993   0.403  0.1940  0.6299  0.3865
 1606poe     o210622   0.279   6.883   0.349 -0.2445  0.4000  0.2909
 1606poe    c2310623   0.410   6.890   0.400 -0.0926  0.4100 -0.0961
 1606poe    c2310624   0.493   6.790   0.317 -0.7529 -0.0128 -0.2564
 1606poe     o210625   0.417   6.672   0.305 -0.1915 -0.4762  0.6285
 1606poe    c2310626   0.479   6.568   0.233 -0.4691  0.3231 -0.8035
 1606poe    c2310627   0.386   6.446   0.244 -0.2031  0.1850 -0.0721
 1606poe     o210628   0.265   6.479   0.180 -0.1539 -0.1369 -0.3347
 1606poe    c2310629   0.177   6.377   0.138 -0.1919 -0.0684 -0.4213
 1606poe    c2310630   0.108   6.313   0.260  0.1813  0.2782 -0.0254
 1606poe     o210631   0.036   6.389   0.355 -0.2395  0.0789 -0.1816
 1606poe    c3110632  -0.008   6.315   0.466 -0.2045 -0.0061 -0.2239
 1607poe    c3110633   4.755   5.397   6.325 -0.8969  0.0589 -0.1134
 1607poe     o210634   4.709   5.371   6.456  0.0893 -0.2426  0.1776
 1607poe    c2310635   4.708   5.235   6.493 -0.1493 -0.3542 -0.2318
 1607poe    c2310636   4.676   5.215   6.643  0.2204 -0.2050 -0.1328
 1607poe     o210637   4.783   5.263   6.722  0.2723  0.0136 -0.3324
 1607poe    c2310638   4.759   5.221   6.855  0.0668 -0.0420 -0.3854
 1607poe    c2310639   4.871   5.267   6.950  0.0626 -0.4464 -0.1854
 1607poe     o210640   4.992   5.248   6.882 -0.0618 -0.0671 -0.5140
 1607poe    c2310641   5.100   5.293   6.961 -0.3400 -0.8626  0.3337
 1607poe    c2310642   5.235   5.279   6.888 -0.2538  0.5853  0.1825
 1607poe     o210643   5.201   5.300   6.753 -0.4491  0.8073  0.2647
 1607poe    c3110644   5.320   5.310   6.677 -0.4637 -0.2786  0.0783
 1608poe    c3110645   1.576   5.852   5.487 -0.5138 -0.0958 -0.5553
 1608poe     o210646   1.619   5.885   5.618 -0.1949 -0.2037 -0.6340
 1608poe    c2310647   1.742   5.954   5.616 -0.2585 -0.0266  0.7244
 1608poe    c2310648   1.777   5.991   5.761  0.1562  0.2881  0.5469
 1608poe     o210649   1.657   6.040   5.818 -0.2999  0.8192 -0.8308
 1608poe    c2310650   1.681   6.122   5.930 -0.2424 -0.5603  0.1983
 1608poe    c2310651   1.540   6.143   5.987 -0.3874 -0.4011 -0.2096
 1608poe     o210652   1.470   6.023   5.965 -0.3027 -0.5285  0.2007
 1608poe    c2310653   1.335   6.049   5.933 -0.2152  0.4101  0.5799
 1608poe    c2310654   1.270   5.928   5.865  0.6157  0.2159  0.1115
 1608poe     o210655   1.347   5.879   5.757  0.1054 -0.3121 -0.0206
 1608poe    c3110656   1.276   5.785   5.680  0.4841 -0.8383  0.2698
 1609poe    c3110657   5.669   4.067   3.819 -0.1349 -0.0242 -0.6736
 1609poe     o210658   5.665   3.928   3.838 -0.0170  0.0913  0.2457
 1609poe    c2310659   5.790   3.889   3.893 -0.3433 -0.2342  0.7654
 1609poe    c2310660   5.771   3.744   3.942  0.4626 -0.5325  0.2222
 1609poe     o210661   5.749   3.648   3.842  0.0502  0.4839 -0.6827
 1609poe    c2310662   5.677   3.532   3.878 -0.0098  0.6168 -0.3779
 1609poe    c2310663   5.564   3.498   3.779 -0.0662  0.1789 -0.1619
 1609poe     o210664   5.507   3.622   3.747  0.0063  0.2596  0.0199
 1609poe    c2310665   5.397   3.599   3.661 -0.2539 -0.1213  0.4463
 1609poe    c2310666   5.392   3.723   3.569 -0.7284  0.2300  0.9435
 1609poe     o210667   5.441   3.834   3.642 -0.0582  0.3298  0.3511
 1609poe    c3110668   5.389   3.955   3.594  0.1527 -0.1225 -1.0632
 1610poe    c3110669   0.565   6.539   3.649 -0.1608 -0.2868 -0.1319
 1610poe     o210670   0.442   6.528   3.716  0.1103 -0.0383  0.4172
 1610poe    c2310671   0.483   6.500   3.848  0.2597 -0.5795  0.2578
 1610poe    c2310672   0.389   6.571   3.947 -0.2956 -0.2668 -0.4794
 1610poe     o210673   0.255   6.566   3.905 -0.3751  0.0193 -0.2629
 1610poe    c2310674   0.177   6.472   3.976 -0.2987  0.2796  0.1682
 1610poe    c2310675   0.027   6.496   3.951 -0.3998 -0.5604 -0.0398
 1610poe     o210676  -0.004   6.427   3.831 -0.3179 -0.3199 -0.2013
 1610poe    c2310677  -0.131   6.464   3.781 -0.2025  0.2553 -0.0748
 1610poe    c2310678  -0.117   6.529   3.642 -0.0834  0.3036 -0.0403
 1610poe     o210679  -0.046   6.650   3.632  0.3902  0.0488  0.1760
 1610poe    c3110680  -0.101   6.763   3.697  0.6236  0.0674  0.3421
 1611poe    c3110681   3.782   2.605   0.490 -0.2516  0.0523 -0.0473
 1611poe     o210682   3.819   2.480   0.434  0.1948 -0.0903  0.5521
 1611poe    c2310683   3.725   2.428   0.343  0.0147  0.4642  0.4137
 1611poe    c2310684   3.778   2.385   0.205  0.5385  0.9249  0.4666
 1611poe     o210685   3.857   2.272   0.233 -0.0604  0.1977 -0.6637
 1611poe    c2310686   3.894   2.198   0.119  0.2329 -0.3832 -0.2000
 1611poe    c2310687   3.957   2.068   0.172 -0.2082 -0.5009  0.0381
 1611poe     o210688   4.090   2.087   0.216 -0.1750 -0.0593 -0.2467
 1611poe    c2310689   4.125   1.985   0.307  0.2220  0.4628  0.1918
 1611poe    c2310690   4.220   2.035   0.417 -0.4783  0.1983  0.9318
 1611poe     o210691   4.348   2.088   0.393 -0.5720  0.0177  0.0058
 1611poe    c3110692   4.449   1.996   0.357 -0.6366 -0.1826  0.3346
 1612poe    c3110693   1.602   1.041   1.317  0.0084  0.4496 -0.6739
 1612poe     o210694   1.739   1.026   1.287  0.0956 -0.7484  0.2586
 1612poe    c2310695   1.823   1.043   1.399  0.1960 -0.0029  0.0719
 1612poe    c2310696   1.968   1.057   1.349  0.2399  0.1723  0.2485
 1612poe     o210697   1.984   0.972   1.238  0.3030  0.3560  0.1156
 1612poe    c2310698   2.113   0.993   1.185  0.5478 -0.2003  0.4768
 1612poe    c2310699   2.098   0.905   1.059 -0.1239  0.6510 -0.0491
 1612poe     o210700   1.990   0.943   0.977 -0.0838  1.1363  0.1172
 1612poe    c2310701   2.001   0.877   0.853 -0.2066 -0.2963  0.8527
 1612poe    c2310702   1.870   0.867   0.772  0.1562  0.4762  0.1615
 1612poe     o210703   1.787   0.760   0.812 -0.0553  0.4302 -0.3889
 1612poe    c3110704   1.757   0.683   0.698 -0.1593 -0.3231  0.1374
 1613poe    c3110705   5.627   3.154   3.386 -0.3384 -0.4988  0.0014
 1613poe     o210706   5.700   3.086   3.486 -0.0609 -0.1874  0.0110
 1613poe    c2310707   5.742   3.178   3.584  0.2329 -0.4501  0.1303
 1613poe    c2310708   5.816   3.089   3.686 -0.0801  0.0663  0.8234
 1613poe     o210709   5.895   2.998   3.612 -0.1302  0.6012  0.1003
 1613poe    c2310710   5.984   2.927   3.695 -0.4152  0.0401 -0.0613
 1613poe    c2310711   6.056   2.822   3.609 -0.1020  0.3208 -0.1462
 1613poe     o210712   5.966   2.729   3.553  0.0127 -0.2771  0.6392
 1613poe    c2310713   6.037   2.634   3.476 -0.0910  0.5081 -0.4557
 1613poe    c2310714   5.956   2.564   3.365 -0.0688  0.0857 -0.2096
 1613poe     o210715   5.907   2.655   3.269  0.5489  0.3543 -0.2752
 1613poe    c3110716   5.915   2.586   3.147 -0.2470  0.4085 -0.3671
 1614poe    c3110717   6.360   1.181   1.665  0.3349 -0.5274 -0.4688
 1614poe     o210718   6.481   1.236   1.711 -0.1178  0.2806 -0.2246
 1614poe    c2310719   6.466   1.315   1.827 -0.3530 -0.5089  0.2876
 1614poe    c2310720   6.593   1.378   1.887 -0.2373 -0.2699 -0.2049
 1614poe     o210721   6.695   1.285   1.916  0.0323  0.1419  0.1750
 1614poe    c2310722   6.782   1.345   2.009  0.5991 -0.2228 -0.1156
 1614poe    c2310723   6.775   1.246   2.127 -0.3203  0.1503  0.1511
 1614poe     o210724   6.802   1.113   2.088  0.2417  0.3848 -0.2796
 1614poe    c2310725   6.764   1.029   2.194 -0.1959  0.5285 -0.3200
 1614poe    c2310726   6.813   0.886   2.165 -0.3583  0.3010  0.4905
 1614poe     o210727   6.761   0.847   2.040 -0.0738 -0.5463  0.6253
 1614poe    c3110728   6.802   0.721   1.992 -0.1746 -0.3744  0.0755
 1615poe    c3110729   4.101   5.802   6.321 -0.4525 -0.8275  0.4516
 1615poe     o210730   4.199   5.818   6.420  0.2648  0.4390 -0.4297
 1615poe    c2310731   4.156   5.934   6.486 -0.6888 -0.1226 -0.0452
 1615poe    c2310732   4.247   5.957   6.609  0.1122 -0.2624 -0.6020
 1615poe     o210733   4.237   5.860   6.710 -0.2772 -0.0063 -0.3909
 1615poe    c2310734   4.117   5.832   6.779 -0.2131  0.0020 -0.2750
 1615poe    c2310735   4.143   5.742   6.901  0.2123  0.2641 -0.1725
 1615poe     o210736   4.224   5.801   7.001  0.7368  0.1131 -0.5021
 1615poe    c2310737   4.223   5.739   7.127 -0.2488  0.3390 -0.3876
 1615poe    c2310738   4.269   5.852   7.221  0.2591  0.2341 -0.5022
 1615poe     o210739   4.377   5.923   7.165  0.2352  0.2544 -0.5239
 1615poe    c3110740   4.449   5.995   7.263  0.0488 -0.2358 -0.0190
 1616poe    c3110741   3.891   4.361   2.280  0.1536 -0.1404  0.5435
 1616poe     o210742   3.788   4.325   2.191  0.4894  0.0629  0.0702
 1616poe    c2310743   3.775   4.426   2.094 -0.6291  0.0409  0.1803
 1616poe    c2310744   3.708   4.361   1.971  0.0330 -0.7654  0.2371
 1616poe     o210745   3.568   4.353   1.985  0.0226 -0.1347  0.5441
 1616poe    c2310746   3.504   4.350   1.860  0.4189  0.4361  0.3241
 1616poe    c2310747   3.383   4.444   1.842 -0.0625 -0.1778  0.3016
 1616poe     o210748   3.287   4.447   1.946 -0.6949  0.1773 -0.2886
 1616poe    c2310749   3.230   4.575   1.961 -0.3534  0.3305 -0.2812
 1616poe    c2310750   3.144   4.596   2.087  0.4643 -1.1606  0.5578
 1616poe     o210751   3.236   4.610   2.193 -0.0051  1.0983  0.7247
 1616poe    c3110752   3.173   4.563   2.310 -0.4111 -1.2210 -0.3678
 1617poe    c3110753   0.019   2.482   3.612 -0.2663 -0.0423 -0.4424
 1617poe     o210754   0.008   2.401   3.497  0.3869 -0.8487  0.0526
 1617poe    c2310755  -0.120   2.380   3.442  0.3567 -0.4837 -0.0210
 1617poe    c2310756  -0.181   2.244   3.482  0.2432 -0.3015  0.4356
 1617poe     o210757  -0.082   2.146   3.457  0.6067  0.0905  0.3270
 1617poe    c2310758  -0.088   2.032   3.539  0.0585 -0.0218  0.1312
 1617poe    c2310759   0.014   1.924   3.499  0.0903  0.0817 -0.0705
 1617poe     o210760   0.145   1.971   3.525  0.0343 -0.0995  0.5548
 1617poe    c2310761   0.231   1.878   3.464 -0.1716  0.4183 -0.5509
 1617poe    c2310762   0.373   1.886   3.523 -0.5431  0.0814  0.4209
 1617poe     o210763   0.432   2.009   3.487 -0.1683 -0.1294  0.3036
 1617poe    c3110764   0.545   2.037   3.567  0.0689 -0.0052 -0.0702
 1618poe    c3110765   1.132   4.003   4.716  0.4606 -0.1479  0.0146
 1618poe     o210766   1.190   4.020   4.843  0.0656  0.0850  0.1636
 1618poe    c2310767   1.227   4.155   4.859 -0.2573  0.1611  0.2837
 1618poe    c2310768   1.174   4.218   4.989 -0.6019  0.1508  0.1482
 1618poe     o210769   1.210   4.136   5.098  0.0080  0.6576  0.3334
 1618poe    c2310770   1.279   4.205   5.200  1.1411  0.4174 -0.2430
 1618poe    c2310771   1.302   4.134   5.335  0.1049  0.0457 -0.2500
 1618poe     o210772   1.350   4.005   5.301 -0.2082  0.0128 -0.5773
 1618poe    c2310773   1.379   3.929   5.416  0.5816  0.4721 -0.4645
 1618poe    c2310774   1.378   3.778   5.384 -0.0375  0.4690 -0.4356
 1618poe     o210775   1.446   3.744   5.266 -0.6044 -0.5316 -0.4846
 1618poe    c3110776   1.463   3.608   5.231  0.6160 -0.6437  0.4724
 1619poe    c3110777   3.592   5.823   2.341  0.3423  0.0778  0.3739
 1619poe     o210778   3.603   5.746   2.458 -0.6987  0.0081  0.4284
 1619poe    c2310779   3.661   5.819   2.564  0.1597 -0.5854  0.3749
 1619poe    c2310780   3.661   5.738   2.695  0.3495 -0.4609  0.4510
 1619poe     o210781   3.533   5.703   2.744  0.0955  0.2325  0.2976
 1619poe    c2310782   3.540   5.594   2.833  0.0107  0.3461  0.4427
 1619poe    c2310783   3.391   5.560   2.846  0.0967 -0.0310  0.4416
 1619poe     o210784   3.332   5.677   2.898  0.0664  0.2264 -0.1663
 1619poe    c2310785   3.194   5.657   2.921  0.1066  0.2750  0.1167
 1619poe    c2310786   3.152   5.804   2.945  0.5122  0.2868  0.7884
 1619poe     o210787   3.199   5.888   2.841 -0.8522 -0.1546 -0.2158
 1619poe    c3110788   3.154   6.021   2.845  0.8515  0.4644 -0.6567
 1620poe    c3110789   0.513   1.973   2.045  0.1749 -0.0363  0.3347
 1620poe     o210790   0.569   2.006   2.170 -0.3153  0.3750  0.4464
 1620poe    c2310791   0.527   2.128   2.227 -0.0875  0.3910  0.5795
 1620poe    c2310792   0.598   2.170   2.357  0.4623 -0.6917  0.6427
 1620poe     o210793   0.541   2.289   2.406  0.3399 -0.5439  0.1463
 1620poe    c2310794   0.640   2.370   2.465  0.1200 -0.0327 -0.1826
 1620poe    c2310795   0.694   2.486   2.379 -0.0548  0.2450  0.0806
 1620poe     o210796   0.600   2.591   2.368  0.1875  0.4855  0.2958
 1620poe    c2310797   0.657   2.707   2.311  0.4725  0.2143  0.0285
 1620poe    c2310798   0.596   2.839   2.361  0.0361 -0.2302  0.6854
 1620poe     o210799   0.622   2.865   2.497 -0.1739  0.0864  0.6643
 1620poe    c3110800   0.566   2.987   2.540 -0.7694  0.1204 -0.1662
 1621lim     li10801   2.911   5.092   1.612 -0.8242 -0.2527 -0.7705
 1622lim     li10802   2.753   5.362   2.574  0.1834 -0.4720  0.8850
 1623lim     li10803   5.198   5.126   4.303  0.6815  0.9756  0.2754
 1624lim     li10804   2.235   1.038   6.299 -0.6231  0.6893  0.0616
 1625lim     li10805   3.001   3.576   3.954 -0.7102 -1.4273  1.7120
 1626lim     li10806   1.385   3.289   5.586  0.9972 -0.4642 -0.5940
 1627lim     li10807   0.314   0.670   0.817  0.1844 -0.1913  0.2102
 1628lim     li10808   2.163   4.859   2.100  1.6973  0.6611  0.7937
 1629lim     li10809   4.043   0.043   3.177  0.1797  0.3544 -0.1601
 1630lim     li10810   4.419   3.372   3.174 -0.0404 -0.2564  0.7467
 1631lim     li10811   5.957   0.972   5.271  0.5909  1.0209  0.8805
 1632lim     li10812   6.854   0.352   1.295 -0.4901  1.4755  1.3509
 1633lim     li10813   6.390   0.220   5.827 -0.2547 -0.3306  0.6489
 1634lim     li10814   3.887   6.536   4.555 -0.6802 -0.3196  0.2603
 1635lim     li10815   1.255   1.293   3.526  0.4444  0.3827 -0.4969
 1636lim     li10816   3.547   0.238   5.279  0.6491  0.9539 -0.0028
 1637lim     li10817   1.087   4.487   4.414  0.2666  0.6605 -0.7274
 1638lim     li10818   2.386   0.070   4.843 -0.0338  0.1178  0.0328
 1639lim     li10819   3.832   0.422   4.530  1.4138  0.0862  0.5759
 1640lim     li10820   1.481   3.472   0.002 -0.1595 -0.0002  0.3021
 1641lim     li10821   5.036   6.407   0.038  0.1294 -0.2069  0.1923
 1642lim     li10822   3.484   5.989   1.784  0.0951 -0.6570  0.0361
 1643lim     li10823   3.621   4.997   2.275  0.0227 -0.2855 -0.1899
 1644lim     li10824   6.286   1.512   6.860  0.3718  0.2344  0.9849
 1645lim     li10825   4.314   5.990   4.846 -0.1477 -1.0260  0.0704
 1646lim     li10826   0.859   4.646   5.625  0.1875  0.2426 -0.6738
 1647lim     li10827   0.703   0.301   2.906  0.7943  0.2372 -0.3680
 1648lim     li10828   1.022   2.244   0.917  0.0856  0.4922  0.1268
 1649lim     li10829   6.104   6.731   1.817 -0.5612 -0.7733 -0.2647
 1650lim     li10830   6.147   0.837   6.183 -0.3915  0.0881 -1.3361
 1651lim     li10831   3.654   4.145   2.920  1.4740 -0.3300  0.2062
 1652lim     li10832   5.510   0.595   4.920 -0.6616  0.3630 -0.2725
 1653lim     li10833   4.371   6.715   0.057 -0.2623 -1.3087 -0.3877
 1654lim     li10834   5.582   3.202   5.655 -0.0810 -0.2939  0.2920
 1655lim     li10835   4.507   6.250   4.016  0.0322 -0.0788 -0.5079
 1656lim     li10836   5.375   6.122   4.402  0.1338 -1.3754 -0.5958
 1657lim     li10837   5.834   2.955   3.463  0.6045 -0.1534 -0.0372
 1658lim     li10838   5.546   6.209   0.827  1.6826 -0.9699 -0.4318
 1659lim     li10839   1.768   0.022   5.817  0.0986 -1.1936 -0.6898
 1660lim     li10840   6.163   6.150   4.033 -0.0346 -0.5521 -0.1669
 1661lim     li10841   2.212   1.479   5.571 -0.9431  0.7077  0.1031
 1662lim     li10842   4.688   6.824   5.066 -0.8219 -0.6083 -0.5103
 1663lim     li10843   0.169   3.671   2.599  0.4256  0.5345 -0.9940
 1664lim     li10844   5.404   4.638   5.887  0.3480  0.6741 -1.1214
 1665lim     li10845   3.154   1.560   4.839 -0.2278 -0.0290  0.2273
 1666lim     li10846   1.074   2.208   3.398 -0.0273  0.6258  0.4579
 1667lim     li10847   0.981   5.608   3.460  0.3418 -0.8072 -0.2967
 1668lim     li10848   0.089   2.236   3.455  0.0794  0.6139 -0.1183
 1669lim     li10849   2.208   0.608   5.913 -0.3737  1.4953  0.3086
 1670lim     li10850   0.269   6.064   3.138  0.2364 -0.1924 -0.2117
 1671lim     li10851   2.444   1.678   4.691 -1.1440  1.6647  1.3465
 1672lim     li10852   0.075   5.900   0.899 -0.0920 -1.1307  1.5292
 1673lim     li10853   0.440   1.566   6.741 -1.2775  0.2808  0.2782
 1674lim     li10854   3.737   1.248   4.318  0.0594  0.5820  0.1843
 1675lim     li10855   4.752   2.076   1.873  0.0835 -0.4179  0.5557
 1676lim     li10856   4.219   2.402   0.374  0.3121  0.3776 -0.0747
 1677lim     li10857   0.513   4.322   2.530  1.1147 -0.9400  0.5983
 1678lim     li10858   3.314   4.675   0.414  0.0767  0.9436 -0.7148
 1679lim     li10859   3.027   0.787   3.763 -1.7512  0.7515 -0.3149
 1680lim     li10860   6.743   1.112   1.911 -0.0713 -0.1335  1.1734
 1681lim     li10861   1.893   4.000   2.660 -0.3357  0.1362  0.1270
 1682lim     li10862   4.519   1.487   6.455  0.3435  0.4257 -0.7905
 1683lim     li10863   2.779   3.411   4.646  0.4792 -0.4871  1.4360
 1684lim     li10864   1.342   0.084   1.806  0.5882  0.9153 -0.3163
 1685lim     li10865   4.937   4.438   4.079 -0.3293 -0.5641 -0.4749
 1686lim     li10866   6.158   4.122   3.608  0.1244  0.8260  1.0663
 1687lim     li10867   3.334   4.983   6.504 -1.1264  0.0961 -0.2289
 1688lim     li10868   6.342   4.695   6.880  0.8765  1.7794 -0.2324
 1689lim     li10869   7.002   5.579   6.488  0.3042  1.2473 -0.3299
 1690lim     li10870   0.352   5.780   5.567 -0.5918  1.5486 -0.2113
 1691lim     li10871   3.698   4.516   4.376  0.4481  0.3163  0.0788
 1692lim     li10872   5.171   1.431   3.511 -0.4251 -1.1694  0.1863
 1693lim     li10873   6.648   2.616   6.694 -0.4197 -0.2257 -0.9819
 1694lim     li10874   3.400   3.592   6.469 -1.6840  0.0858  0.1142
 1695lim     li10875   1.803   0.168   2.166 -0.1890  0.5723  0.9858
 1696lim     li10876   5.510   5.240   5.506 -0.7474 -0.1102  0.9934
 1697lim     li10877   5.881   6.882   3.559 -0.4428 -0.4682 -0.9650
 1698lim     li10878   0.720   1.513   0.900 -1.0773  0.6242 -0.2889
 1699lim     li10879   5.617   4.159   0.253 -1.1987 -0.5450 -0.2438
 1700lim     li10880   1.566   2.388   0.268  0.5616 -0.4878  0.1579
 1701lim     li10881   0.685   2.722   2.894 -0.5494  0.1249  0.1905
 1702lim     li10882   5.607   5.809   2.733 -0.1276 -0.6840 -0.6460
 1703lim     li10883   2.062   2.208   1.914  1.8822 -0.2349 -0.4863
 1704lim     li10884   1.886   6.433   4.339 -0.6582 -1.1737 -0.4970
 1705lim     li10885   5.249   1.663   4.815 -0.6807 -0.7574  0.4875
 1706lim     li10886   3.894   0.973   5.865  0.0513 -0.2495  0.5804
 1707lim     li10887   0.819   2.589   6.531  0.8099 -0.2231 -0.7724
 1708lim     li10888   3.007   4.913   3.081  1.5404  0.4301 -0.2874
 1709lim     li10889   1.944   3.815   5.174  2.5320 -1.2157  1.0397
 1710lim     li10890   6.301   1.633   0.956 -0.1194  0.3146  1.0173
 1711lim     li10891   1.251   0.794   6.220  0.8904 -0.1708  0.3471
 1712lim     li10892   1.298   4.903   2.506 -1.5296 -0.2950 -0.5780
 1713lim     li10893   1.661   4.025   3.326 -0.6470 -0.6860  0.0506
 1714lim     li10894   4.579   5.179   3.521 -0.1641 -0.7134 -0.1479
 1715lim     li10895   1.013   3.425   6.292 -0.2087  0.2385  0.3198
 1716lim     li10896   3.843   1.934   4.289 -0.5773 -0.4453  0.8747
 1717lim     li10897   4.970   3.262   1.546 -0.3711 -0.5214 -0.3119
 1718lim     li10898   2.909   0.262   4.516 -1.1877  0.5099 -0.2170
 1719lim     li10899   0.196   0.032   2.112 -0.2967 -0.4939  0.8822
 1720lim     li10900   6.720   5.839   3.631 -1.0066  0.5687 -1.0683
 1721lim     li10901   4.978   3.816   1.197 -0.0751  0.3485  1.4368
 1722lim     li10902   6.212   6.164   6.018  0.5860 -0.2038  0.6451
 1723lim     li10903   5.924   2.000   1.594 -0.0851  0.1976  1.8711
 1724lim     li10904   3.198   1.706   3.140  0.7832  0.7966  0.5141
 1725lim     li10905   2.626   2.263   5.212  0.2670  0.1191  0.2593
 1726lim     li10906   5.282   1.681   0.886  1.9162  1.0647 -0.2600
 1727lim     li10907   2.586   5.058   0.050  0.3838 -0.2796 -0.8659
 1728lim     li10908   0.114   2.784   1.690  0.3940 -0.3712 -1.2561
 1729lim     li10909   5.978   2.771   1.503 -0.4762  0.4529  0.9977
 1730lim     li10910   2.624   2.665   2.737  0.3812  0.2725 -0.1786
 1731lim     li10911   3.985   5.208   3.070  0.4952 -0.0081 -0.3097
 1732lim     li10912   5.069   2.876   2.497 -0.2198  0.1359  0.0046
 1733lim     li10913   2.288   4.665   0.981 -0.6024  0.5563  0.1545
 1734lim     li10914   6.324   2.293   2.112  0.6296 -0.0055  0.1556
 1735lim     li10915   0.010   3.937   1.042  0.4783  1.0876  0.3828
 1736lim     li10916   5.627   0.706   6.019  0.2680  0.1269 -1.0594
 1737lim     li10917   6.608   0.215   0.029 -0.1710 -0.5467  0.3142
 1738lim     li10918   4.747   2.557   3.315 -0.9347  0.7660 -0.5074
 1739lim     li10919   2.119   5.860   0.833  0.9906  1.0119  0.4289
 1740lim     li10920   1.985   6.470   1.589 -0.3705 -0.4517 -0.4408
 1741lim     li10921   3.780   2.683   3.375 -1.2881  0.0942  0.9695
 1742lim     li10922   4.342   5.932   6.985  0.6680  0.1136 -0.0258
 1743lim     li10923   6.869   1.091   6.714 -1.1971  0.0734  0.5964
 1744lim     li10924   0.527   1.592   5.780  0.2988  0.0515 -0.0886
 1745lim     li10925   1.138   6.936   1.148  0.4471 -0.9277 -0.2444
 1746lim     li10926   5.935   5.114   3.865  0.4211  0.5253 -0.7038
 1747lim     li10927   6.932   1.028   6.063  0.0031 -0.7552 -0.0202
 1748lim     li10928   5.009   0.119   5.826  0.0213 -0.6790 -0.0464
 1749lim     li10929   6.559   3.269   4.337 -0.1453  0.6719  0.7476
 1750lim     li10930   0.838   0.846   1.191  0.3463 -0.2719 -1.0930
 1751lim     li10931   0.337   4.183   4.961  0.2430 -1.9463  0.3398
 1752lim     li10932   6.338   3.648   2.973  1.3588 -0.2820 -0.4837
 1753lim     li10933   6.599   5.068   1.680  0.0692  0.7493  0.2638
 1754lim     li10934   5.116   6.753   3.162  0.2219 -0.1009 -0.1832
 1755lim     li10935   6.844   2.214   5.561 -0.8199 -2.1047  0.7654
 1756lim     li10936   0.204   4.338   3.879  0.3731 -0.5796 -0.6946
 1757lim     li10937   4.380   1.081   3.327 -0.4002 -0.9763  0.6070
 1758lim     li10938   4.406   5.196   2.201 -0.2460 -0.3363 -0.1878
 1759lim     li10939   4.826   5.497   5.112 -0.2438 -1.6117  0.1201
 1760lim     li10940   5.005   4.862   1.713 -0.7442 -0.0122  0.0898
 1761lim     li10941   0.605   3.071   0.739  0.1497 -0.6660  0.1250
 1762lim     li10942   2.319   6.921   0.992  1.9562 -0.1967 -0.2910
 1763lim     li10943   3.726   1.930   1.091 -0.5046 -0.5125  0.0193
 1764lim     li10944   5.620   0.230   1.699 -1.1404 -0.2807  0.4456
 1765lim     li10945   0.000   1.874   6.356  0.5284 -0.5648  1.1682
 1766lim     li10946   6.095   5.213   1.045 -0.4639 -0.2211  0.9492
 1767lim     li10947   5.914   5.693   1.801 -0.7279  0.1547 -0.0934
 1768lim     li10948   1.021   2.206   5.460  1.2142 -0.0289 -0.7659
 1769lim     li10949   0.483   2.394   6.829  0.0530 -0.6867  0.5985
 1770lim     li10950   4.145   6.393   5.455  1.2727  0.0927 -1.1963
 1771lim     li10951   1.235   6.527   2.543 -0.3793  0.4796 -1.0875
 1772lim     li10952   6.854   6.471   6.748 -0.8833  1.2930 -0.3326
 1773lim     li10953   1.462   2.994   0.931  0.8875  0.5027 -0.8188
 1774lim     li10954   3.779   4.247   5.494 -0.0903 -0.3783  0.4611
 1775lim     li10955   3.633   5.604   4.991  0.3658 -0.3204  1.1675
 1776lim     li10956   6.840   6.154   1.695  0.8487 -0.0738  0.8106
 1777lim     li10957   3.080   2.505   0.745 -0.7328  0.2254 -0.1523
 1778lim     li10958   1.813   3.378   4.505 -0.1416 -0.1271  0.6812
 1779lim     li10959   5.602   4.038   5.017  0.7620 -0.3429  0.2963
 1780lim     li10960   3.369   0.319   6.488  0.1054 -1.2440 -1.3446
 1781lim     li10961   1.858   4.786   3.047 -0.0808 -1.0381 -0.5119
 1782lim     li10962   5.274   3.954   4.399 -0.1211 -0.4023 -0.2331
 1783lim     li10963   5.280   4.701   3.195  0.0837 -0.1910  0.4245
 1784lim     li10964   1.175   5.148   1.357  1.2718  0.3956 -0.3960
 1785lim     li10965   6.529   2.818   3.149 -0.6051  0.2177  0.3258
 1786lim     li10966   1.056   5.252   6.342 -0.9897 -0.4706 -0.1089
 1787lim     li10967   0.144   6.689   2.698  0.8078 -0.4875 -0.3473
 1788lim     li10968   6.982   2.751   2.321  0.5537 -1.0088  0.7517
 1789lim     li10969   2.728   0.181   1.864 -0.8100  0.0994  1.1044
 1790lim     li10970   3.645   3.564   4.956 -0.3613  0.5457  0.9145
 1791lim     li10971   6.505   4.359   2.267 -0.9880  2.0548  0.7777
 1792lim     li10972   4.382   4.247   3.695  0.0783 -0.2273 -0.7174
 1793lim     li10973   5.276   5.943   6.216  0.2371  0.4449 -0.1769
 1794lim     li10974   2.048   3.147   3.926 -0.1531  1.1321 -0.7804
 1795lim     li10975   6.018   3.918   5.591 -0.0007 -0.1820  0.7430
 1796lim     li10976   6.359   0.558   3.092  0.0616  0.7110  0.1316
 1797lim     li10977   3.044   1.838   0.360  1.1034  0.2067  0.1901
 1798lim     li10978   6.831   1.774   2.497  0.6950  0.0196 -0.5425
 1799lim     li10979   2.958   4.281   4.673  0.1372  0.3618 -0.2151
 1800lim     li10980   6.532   2.071   0.239 -0.3144 -0.1078 -1.2135
 1801lim     li10981   5.040   2.986   0.471 -0.4026 -0.8982 -0.4288
 1802lim     li10982   6.749   3.582   3.719  0.2726  0.0136  1.0721
 1803lim     li10983   3.454   3.449   1.250  0.2557 -0.2907 -0.2405
 1804lim     li10984   4.514   0.125   2.305  1.1748 -0.6684  0.2547
 1805lim     li10985   0.667   2.315   0.365 -0.3163 -0.0344  0.6541
 1806lim     li10986   1.961   1.364   3.803  0.2383  0.0283 -0.4374
 1807lim     li10987   5.868   2.269   4.152  0.4548 -0.2437  0.0482
 1808lim     li10988   4.219   2.730   2.306  0.5861 -0.7341  0.5590
 1809lim     li10989   4.086   2.043   1.636  0.0329 -0.2173 -1.0719
 1810lim     li10990   3.356   5.870   0.008  0.2109  0.3184 -1.1867
 1811lim     li10991   0.374   0.378   5.444 -0.5257 -0.0613  1.0894
 1812lim     li10992   4.113   5.199   5.623 -0.0035 -0.2962  1.1099
 1813lim     li10993   5.924   1.929   6.189  0.9978  1.0979  0.4232
 1814lim     li10994   5.991   5.816   6.460  0.2285 -0.5611 -0.8292
 1815lim     li10995   5.959   5.223   3.181 -0.5593  0.5552  0.1003
 1816lim     li10996   2.321   5.671   3.503  0.2143  0.2090 -0.2013
 1817lim     li10997   5.425   0.112   6.650  0.2876 -0.3123 -0.7116
 1818lim     li10998   1.189   4.288   1.398  0.4180  0.5763 -0.2050
 1819lim     li10999   4.369   0.708   6.749  0.6399 -0.0161  1.6264
 1820lim     li11000   2.225   2.932   3.424  0.0562 -1.4675 -0.2921
 1821lim     li11001   0.224   2.625   5.204  0.0422 -0.4240 -0.5801
 1822lim     li11002   4.686   2.373   5.132  0.1879 -0.7590  0.2197
 1823lim     li11003   0.726   3.817   3.387  1.1466  0.5158 -0.1078
 1824lim     li11004   2.168   4.119   4.422  0.4309  0.1544 -0.0536
 1825lim     li11005   1.202   0.673   2.538  0.5723  0.8753 -1.2405
 1826lim     li11006   2.109   0.411   6.731  0.8756 -0.5823 -1.5201
 1827lim     li11007   4.775   0.921   1.525 -1.0265 -0.3297  0.2892
 1828lim     li11008   2.549   2.161   3.815 -0.9206 -1.1832 -0.1347
 1829lim     li11009   6.617   4.130   4.441 -0.2833  0.9559  0.2040
 1830lim     li11010   6.064   2.853   2.342  0.4070 -0.3823 -0.5765
 1831lim     li11011   0.593   6.360   4.378 -0.0075  0.7487 -1.4163
 1832lim     li11012   1.905   0.064   0.549  0.8166 -0.2756  0.1027
 1833lim     li11013   3.969   3.038   4.375  0.5978 -0.0173 -0.0348
 1834lim     li11014   6.713   6.131   2.654 -0.0947  0.4131 -0.0292
 1835lim     li11015   1.813   5.060   5.775  0.5315 -0.0727  0.7125
 1836lim     li11016   2.935   6.907   0.049  0.1812  0.6961  0.4586
 1837lim     li11017   2.237   2.377   4.549  0.1445  0.1052  0.5126
 1838lim     li11018   1.043   4.395   0.558 -0.7322 -0.2681  0.6781
 1839lim     li11019   6.122   6.620   6.757  1.8718 -0.3721 -0.1820
 1840lim     li11020   5.198   1.885   2.596 -0.4110  0.0245 -0.3035
 1841lim     li11021   5.908   5.820   3.591  0.9548 -0.7024  0.5527
 1842lim     li11022   2.616   5.865   0.205  0.7392 -1.2929  0.1701
 1843lim     li11023   0.414   2.820   5.609  0.3380  0.0071 -0.2963
 1844lim     li11024   1.999   3.045   0.825 -0.8982  0.8394 -0.8487
 1845lim     li11025   5.329   2.296   0.246  0.8723 -0.5304 -0.2301
 1846lim     li11026   4.194   3.087   5.540  0.0109 -1.4875 -0.9236
 1847lim     li11027   0.247   6.515   3.724  0.3980  0.2568 -0.1052
 1848lim     li11028   4.847   6.171   1.195 -0.4489  0.3368  0.1674
 1849lim     li11029   0.874   6.165   6.481 -0.1469 -0.6489 -0.4816
 1850lim     li11030   6.356   6.157   0.892 -0.2524 -0.7439 -1.4461
 1851lim     li11031   0.868   3.612   0.914  0.3053 -0.4549  0.2164
 1852lim     li11032   6.077   5.942   4.905 -0.6285 -0.7924  0.0552
 1853lim     li11033   6.576   6.562   4.781  0.3695  0.9658 -0.5380
 1854lim     li11034   6.175   2.643   5.016 -0.5558  0.8054 -0.8721
 1855lim     li11035   1.664   1.746   4.528 -0.5424 -0.0832 -0.8196
 1856lim     li11036   6.342   1.181   4.798  0.4167 -0.4403  0.1920
 1857lim     li11037   1.673   4.134   6.016 -0.8037 -0.7026 -0.9608
 1858lim     li11038   5.095   5.936   3.448  0.2313  0.8218  0.3675
 1859lim     li11039   5.589   3.293   4.333  1.0272 -0.6021 -0.2313
 1860lim     li11040   1.604   6.294   3.277 -0.0318 -0.5370  1.0310
 1861lim     li11041   3.400   0.313   3.409  0.2991 -0.3772 -0.0273
 1862lim     li11042   1.556   5.023   0.846 -0.7252  0.5715 -0.6858
 1863lim     li11043   5.343   4.211   1.402 -0.1564 -0.3084 -0.5547
 1864lim     li11044   4.587   4.676   6.875  0.0455  0.0230 -1.1299
 1865lim     li11045   0.929   5.879   2.126 -0.2713 -1.0724 -0.4432
 1866lim     li11046   3.186   2.998   5.590 -0.5098  0.1573 -0.5708
 1867lim     li11047   5.756   3.619   1.939 -0.1224 -0.1514 -0.7569
 1868lim     li11048   4.699   2.323   6.818 -0.3171  1.0340  0.6548
 1869lim     li11049   3.345   6.085   3.428  1.3724 -1.3205 -0.7786
 1870lim     li11050   4.988   3.570   3.486 -1.4526  0.3059 -0.3689
 1871lim     li11051   1.604   4.466   6.908  0.2296  0.6235 -1.2004
 1872lim     li11052   2.209   2.528   1.326 -0.8001  0.1934 -0.7104
 1873lim     li11053   1.255   1.270   5.552  0.4015  0.4320  0.2197
 1874lim     li11054   4.579   2.705   4.451  0.7885  0.4337 -0.0092
 1875lim     li11055   1.163   2.701   4.642  1.3101  0.2645 -0.4162
 1876lim     li11056   0.454   4.334   1.744 -0.2515  0.4635 -0.2142
 1877lim     li11057   3.665   4.295   6.754 -0.6239  0.2932  0.6896
 1878lim     li11058   0.995   3.446   1.796 -0.5709 -0.3182 -0.7710
 1879lim     li11059   3.366   5.798   2.777 -0.8792 -0.2888 -0.1236
 1880lim     li11060   5.889   0.564   4.066  0.5506  1.1330 -0.6778
 1881lim     li11061   2.452   2.719   0.118 -0.8994 -0.4724 -0.9957
 1882lim     li11062   3.754   3.289   2.319  0.3726  0.3925 -0.3676
 1883lim     li11063   2.182   1.893   2.539 -0.7284  0.8336 -2.0775
 1884lim     li11064   5.562   3.161   2.874 -0.6788 -0.3529  0.1045
 1885lim     li11065   1.847   0.978   1.136 -0.2817  0.8030 -0.3881
 1886lim     li11066   1.715   5.943   6.658 -0.8718  0.9031  0.9261
 1887lim     li11067   1.236   3.954   5.042  0.6337 -0.9868  0.1473
 1888lim     li11068   3.982   3.070   0.957 -1.2301 -0.1437 -0.0802
 1889lim     li11069   2.909   6.133   5.368  1.2098 -0.9588  0.1062
 1890lim     li11070   2.456   0.992   0.315 -0.3219 -0.2278  0.3958
 1891lim     li11071   5.316   2.700   6.257 -0.8145  1.1013 -0.0797
 1892lim     li11072   5.590   4.627   6.712 -0.1809  0.3005 -0.9505
 1893lim     li11073   5.312   6.840   0.990  1.0120  0.6574 -0.8921
 1894lim     li11074   6.925   5.254   4.471 -0.4631 -0.8727  0.1415
 1895lim     li11075   4.304   1.383   5.035 -0.9244 -0.0191 -0.6372
 1896lim     li11076   2.491   0.079   2.917 -0.8368 -0.1178  0.5798
 1897lim     li11077   1.522   5.914   5.783 -0.6055 -0.4836 -0.2205
 1898lim     li11078   3.472   5.023   3.549  0.1469 -0.5883 -0.4998
 1899lim     li11079   4.905   1.043   4.310 -0.0371 -0.0549 -0.2091
 1900lim     li11080   0.022   0.327   6.535 -0.1722  0.2910  0.3866
 1901lim     li11081   2.142   3.385   2.566 -0.2048  0.7784  0.9555
 1902lim     li11082   2.988   2.590   4.333 -1.8770 -0.3370 -0.7157
 1903lim     li11083   4.933   2.494   5.827 -0.0524 -0.4345 -0.4752
 1904lim     li11084   3.644   5.398   4.176 -0.3997 -1.1696  1.2238
 1905lim     li11085   1.943   0.987   2.050 -0.0113 -0.5881  0.8696
 1906lim     li11086   5.006   0.214   3.777 -0.2727  0.0146  0.5548
 1907lim     li11087   5.695   6.898   5.560 -0.1003 -0.3343  0.1152
 1908lim     li11088   6.578   1.344   4.097  0.8799  0.2784 -1.0191
 1909lim     li11089   1.625   5.513   0.469 -0.6046 -0.4909 -1.8122
 1910lim     li11090   6.321   4.527   5.747  0.2216  0.7529  0.2494
 1911lim     li11091   4.450   0.670   5.108  0.9719 -0.5195  0.2212
 1912lim     li11092   4.758   3.631   6.289  1.7856 -0.2551 -0.2772
 1913lim     li11093   1.105   3.219   3.808 -0.8612 -1.0259  0.3481
 1914lim     li11094   2.517   6.115   2.394  0.0522 -1.2694 -0.4034
 1915lim     li11095   4.888   5.515   0.597 -0.2554 -0.5166  1.2030
 1916lim     li11096   6.238   3.035   5.976  0.0503  0.8104  0.3700
 1917lim     li11097   2.633   5.941   1.730  1.2140 -0.6004 -0.1539
 1918lim     li11098   4.884   0.270   0.577  0.5019 -0.0703  0.0657
 1919lim     li11099   2.609   0.797   4.981  0.2412  1.0734  0.1315
 1920lim     li11100   1.517   2.287   6.361 -0.1148 -0.1391 -0.4320
 1921lim     li11101   2.703   1.488   6.004 -0.3529 -0.0442 -0.2288
 1922lim     li11102   4.133   2.069   2.657 -0.0402  0.2516 -1.4634
 1923lim     li11103   2.074   6.562   5.045 -1.2324 -0.6703 -1.3212
 1924lim     li11104   4.240   3.901   2.282 -0.2149 -0.2234 -1.6958
 1925lim     li11105   2.056   4.933   3.697  0.1535  0.4581  0.6529
 1926lim     li11106   5.533   1.958   5.557  0.3587  0.4389 -0.4702
 1927lim     li11107   0.991   1.247   4.160  0.7474 -0.1225  0.0633
 1928lim     li11108   5.021   5.269   6.708  0.3675  0.3401  0.2890
 1929lim     li11109   4.627   1.294   2.484  0.5090  1.5871 -0.3818
 1930lim     li11110   4.861   5.491   2.466  1.0817 -0.1264  0.3842
 1931lim     li11111   4.400   2.597   0.993 -0.8333  0.2592 -1.8937
 1932lim     li11112   0.760   5.728   5.890 -0.1961  0.9986  0.6496
 1933lim     li11113   1.334   1.105   0.517  0.4269  0.4811  0.5772
 1934lim     li11114   1.255   6.487   5.216 -1.3281 -0.7528 -0.7225
 1935lim     li11115   2.537   4.144   6.552  0.5596 -0.4053  0.8829
 1936lim     li11116   6.059   0.837   1.636 -0.7197 -0.5703 -0.3024
 1937lim     li11117   2.765   1.573   1.498  0.2292 -0.2888 -0.0422
 1938lim     li11118   4.234   4.989   0.516 -0.8896 -0.8088 -1.6999
 1939lim     li11119   3.026   1.962   6.679 -0.4843  1.0780  0.2316
 1940lim     li11120   4.061   6.086   1.871 -0.4417  0.3888 -0.8494
 1941lim     li11121   6.024   1.411   2.612  0.1700 -0.9332  0.2155
 1942lim     li11122   3.183   6.613   1.910  0.0878  0.6728  0.3863
 1943lim     li11123   0.759   3.172   4.355  0.0447  1.0746  0.1420
 1944lim     li11124   3.607   3.724   3.644  0.6961  0.4065  0.1147
 1945lim     li11125   0.145   4.682   0.701  0.2014 -0.5081 -0.7019
 1946lim     li11126   0.690   5.068   4.869 -1.4029  0.4312 -0.4909
 1947lim     li11127   1.435   6.870   3.119 -0.4591  0.8414  0.2680
 1948lim     li11128   1.627   2.979   1.937  1.1793  1.1832 -0.1386
 1949lim     li11129   3.062   4.158   5.765  0.6380  1.0296  0.5762
 1950lim     li11130   1.935   4.959   4.535 -0.5518 -0.7249  0.0401
 1951lim     li11131   5.433   0.636   2.611  0.3711 -0.6308 -0.6972
 1952lim     li11132   3.510   2.794   4.815  1.0524 -1.4805 -0.5627
 1953lim     li11133   1.156   2.270   2.071 -0.1175 -1.2639  0.6342
 1954lim     li11134   0.277   4.348   6.570  0.3569 -1.6226 -0.6139
 1955lim     li11135   4.707   1.572   0.298  1.3079 -0.5283 -0.7105
 1956lim     li11136   2.498   2.569   6.261  1.3364 -0.4395  0.2885
 1957lim     li11137   1.229   0.092   4.482  0.1956  0.0673  0.5204
 1958lim     li11138   3.744   3.577   0.277  0.9001  0.0898 -0.4183
 1959lim     li11139   2.352   1.717   0.375 -0.4435 -1.3406  0.4973
 1960lim     li11140   3.188   1.032   6.720  0.1950  0.5342 -0.1492
 1961lim     li11141   5.850   4.682   4.753  1.0647 -0.9220 -0.2365
 1962lim     li11142   6.087   0.214   2.458 -0.3334  0.4588  0.2479
 1963lim     li11143   5.989   6.487   0.283  0.0515 -1.2607  0.1642
 1964lim     li11144   2.088   0.849   3.075  0.0595  0.3582 -0.7545
 1965lim     li11145   0.353   3.551   5.485 -1.2088 -0.1054 -0.2289
 1966lim     li11146   0.109   5.253   0.892  0.2041  0.8014  0.0078
 1967lim     li11147   2.571   4.164   1.716 -0.0839  0.8890  0.1873
 1968lim     li11148   0.334   4.889   5.703 -1.2505  0.6694 -1.1556
 1969lim     li11149   6.370   6.869   1.095  0.0868  1.5220  0.9102
 1970lim     li11150   3.442   4.767   5.868  0.7796 -0.0460 -0.4010
 1971lim     li11151   3.495   4.321   2.167 -0.2530 -0.2827  0.6080
 1972lim     li11152   6.112   5.298   4.559 -0.4667 -0.0313 -0.1950
 1973lim     li11153   5.620   3.146   0.853 -0.2884 -0.4902  0.1522
 1974lim     li11154   5.706   1.017   0.858 -0.9034 -0.0765  0.2509
 1975lim     li11155   4.147   4.929   1.446 -0.0367 -0.3440 -0.2635
 1976lim     li11156   2.854   4.865   3.903  0.2251 -0.0475  0.7662
 1977lim     li11157   3.799   0.313   1.638  0.3898 -0.3404 -0.4157
 1978lim     li11158   1.951   1.952   6.306 -0.0479  0.3344 -0.0098
 1979lim     li11159   5.854   2.322   5.256 -0.9235 -0.4496 -0.4885
 1980lim     li11160   2.667   1.495   2.701  0.4219 -0.1700 -1.2925
 1981lim     li11161   4.525   3.680   6.774  0.3035  1.8151 -0.4282
 1982lim     li11162   3.934   1.084   2.603 -0.6743  0.9689 -1.1297
 1983lim     li11163   2.628   4.029   3.297  1.0967 -0.2216 -0.0223
 1984lim     li11164   2.421   3.093   5.161 -0.7188 -0.0738  0.3978
 1985lim     li11165   3.774   4.255   0.835  0.3110 -0.0234 -0.3459
 1986lim     li11166   0.731   5.634   0.085 -0.4282 -0.3772  0.2045
 1987lim     li11167   0.272   2.834   3.554 -0.1626 -0.5608  0.1265
 1988lim     li11168   5.720   1.654   4.150 -0.5561 -0.1548 -0.2139
 1989lim     li11169   6.380   5.552   0.157  0.8284 -1.0340  0.4933
 1990lim     li11170   3.391   2.014   2.377 -1.1854 -0.9864 -0.0924
 1991lim     li11171   5.984   6.395   2.438 -0.3086 -0.4279  0.0701
 1992lim     li11172   6.455   3.943   1.679 -0.6425  0.0269 -0.0026
 1993lim     li11173   3.578   6.762   2.679  0.7781 -0.7301 -0.9037
 1994lim     li11174   6.218   3.669   6.557  0.9144  0.0962 -0.0453
 1995lim     li11175   6.963   6.757   5.865  0.5704 -0.9588 -0.0503
 1996lim     li11176   2.521   4.926   5.009 -0.4654 -0.1358  0.2020
 1997lim     li11177   2.919   4.045   2.702  0.0394  0.7989  0.1588
 1998lim     li11178   6.589   1.979   4.288  0.2097  0.5998  0.0522
 1999lim     li11179   5.085   3.918   2.631  0.8250  0.0493 -0.1028
 2000lim     li11180   3.836   1.751   6.408  0.6465  0.8483 -0.4489
 2001lim     li11181   2.942   1.253   1.922 -1.1577  0.2662 -0.5197
 2002lim     li11182   6.226   4.739   0.459 -0.4059  0.7166  0.9206
 2003lim     li11183   4.511   6.440   2.450 -0.0431 -0.0233 -0.4526
 2004lim     li11184   4.412   1.745   5.599  0.8417  0.0137 -0.9553
 2005lim     li11185   6.278   5.036   2.630  0.1105 -0.9817 -0.2159
 2006lim     li11186   2.950   0.787   2.618  0.0298 -0.0824 -1.2720
 2007lim     li11187   1.837   3.901   0.235 -1.5919  0.2205  1.1745
 2008lim     li11188   0.780   4.830   3.038  0.6504 -0.4672 -0.2150
 2009lim     li11189   4.241   1.993   3.521  0.1907  0.9256 -0.6105
 2010lim     li11190   4.631   1.125   0.882 -0.8264  0.1427  0.7322
 2011lim     li11191   3.092   1.435   3.762  0.1490 -0.5942  0.9837
 2012lim     li11192   6.702   3.446   5.250  0.0979 -0.3972  0.7265
 2013lim     li11193   1.142   6.111   4.109 -0.6512 -1.1511 -0.8221
 2014lim     li11194   6.833   1.731   1.371  0.5975 -1.1429 -0.3978
 2015lim     li11195   6.445   3.266   0.515 -1.1550 -0.5920 -1.1384
 2016lim     li11196   3.211   6.745   5.629  0.3641  1.6376 -0.2915
 2017lim     li11197   6.767   0.295   4.894  1.0863 -1.0242 -0.4408
 2018lim     li11198   3.900   0.779   0.842 -0.4131 -0.6444 -0.2119
 2019lim     li11199   4.149   6.610   0.974  1.7009 -0.0662 -0.9506
 2020lim     li11200   2.402   3.333   1.466 -0.1108  0.1362 -0.6290
 2021lim     li11201   4.907   2.378   1.212 -0.3507  0.3666 -0.0869
 2022lim     li11202   4.545   3.941   1.093  1.0051  0.6406  0.8260
 2023lim     li11203   1.880   3.201   6.056  0.5195 -0.0561 -0.1893
 2024lim     li11204   0.178   5.106   2.420  0.1961 -0.3280  1.0480
 2025lim     li11205   2.785   3.450   2.075 -0.8227  0.1421 -0.1011
 2026lim     li11206   5.672   6.907   4.370  0.1340  0.0882  0.0159
 2027lim     li11207   0.683   1.019   6.072  0.1618  0.4766  0.1756
 2028lim     li11208   0.177   2.213   4.435 -0.3670 -0.1098 -0.2153
 2029lim     li11209   5.608   6.109   5.385 -0.9791 -0.4050  0.1017
 2030lim     li11210   5.633   2.083   3.151 -0.0678 -0.8850 -0.7440
 2031lim     li11211   5.227   4.826   0.613 -0.4288 -1.0454  0.3727
 2032lim     li11212   6.704   5.739   5.609  0.2129  0.1470 -0.4384
 2033lim     li11213   6.661   0.803   0.226  0.5299 -1.3305 -0.1773
 2034lim     li11214   0.234   5.731   4.625 -0.4060  0.4055 -0.3151
 2035lim     li11215   1.448   1.853   1.525 -0.1323  0.8896  0.2509
 2036lim     li11216   0.611   5.232   1.793  0.7129 -0.0476  0.3479
 2037lim     li11217   2.253   1.713   1.026  1.5140 -0.9625  0.4318
 2038lim     li11218   3.815   1.464   0.269  0.0718 -0.4404 -0.7279
 2039lim     li11219   4.102   5.512   1.224 -0.0061 -1.2222 -0.4961
 2040lim     li11220   0.900   3.564   2.533 -0.3252  0.1065  0.9943
 2041lim     li11221   0.544   6.201   1.726 -0.8441 -0.0836 -0.0024
 2042lim     li11222   5.389   2.894   4.933  0.3292  0.7594  1.3914
 2043lim     li11223   6.985   0.163   3.992  0.8202  2.0633 -0.3554
 2044lim     li11224   2.862   4.115   1.070 -0.0557  0.2406  0.2765
 2045lim     li11225   4.974   6.589   2.122  0.0283  0.0573  0.2526
 2046lim     li11226   5.468   3.897   6.497  0.4573 -0.9693 -0.2629
 2047lim     li11227   4.119   3.835   5.987  0.4237  0.2257  0.1844
 2048lim     li11228   3.903   0.383   0.238 -1.6055 -0.9825  0.6738
 2049lim     li11229   6.156   3.981   0.866 -0.1105  0.9417  0.7515
 2050lim     li11230   6.871   3.098   6.181 -0.0532  0.4766 -0.0938
 2051lim     li11231   4.275   5.923   3.223  0.0467 -0.1197  0.0549
 2052lim     li11232   5.834   2.953   6.925  0.3206 -0.2213  1.0987
 2053lim     li11233   2.573   4.482   5.753 -0.4457 -0.6311 -0.9666
 2054lim     li11234   5.383   0.870   7.013 -0.5695 -0.1905 -0.7413
 2055lim     li11235   1.751   1.180   5.079 -1.1281 -0.4458  0.5958
 2056lim     li11236   3.284   5.261   0.986  1.0335  1.1745 -0.7365
 2057lim     li11237   5.637   1.410   6.642  1.2558  0.7122 -0.1016
 2058lim     li11238   1.368   4.294   2.127  1.0305 -0.2988  0.2441
 2059lim     li11239   1.869   0.597   4.279 -0.8258  0.2003 -0.3224
 2060lim     li11240   1.824   3.982   1.294 -0.1842  0.1213  0.5795
 2061lim     li11241   6.405   2.444   0.751 -0.7874  0.6223 -0.5334
 2062lim     li11242   1.452   2.908   2.806 -0.0028  0.4789 -0.2304
 2063lim     li11243   0.150   0.896   4.462 -1.7145 -0.9335  0.0657
 2064lim     li11244   2.817   0.021   6.335  1.1274 -1.1635 -0.1893
 2065lim     li11245   1.301   0.375   3.806  1.5995 -0.3452  0.9663
 2066lim     li11246   4.554   4.493   2.755  0.2112 -0.1703 -1.2090
 2067lim     li11247   2.055   5.898   5.299 -0.7688 -0.2617  0.3350
 2068lim     li11248   2.860   3.301   0.311 -0.9887  1.6421 -0.6112
 2069lim     li11249   5.137   5.804   1.776 -0.1648  0.2546  0.3613
 2070lim     li11250   4.279   2.976   6.734 -1.6585  0.2538 -0.6320
 2071lim     li11251   0.584   1.593   2.620  0.2462  1.0000  0.2133
 2072lim     li11252   6.534   3.150   1.463  0.9392  1.1140  1.1577
 2073lim     li11253   2.013   5.542   4.298 -0.7811  0.4454  0.1449
 2074lim     li11254   4.698   4.835   4.940  0.3874  0.3525  0.5159
 2075lim     li11255   4.429   0.468   4.065 -0.2541 -0.1470 -0.2100
 2076lim     li11256   2.810   3.461   3.059  0.6027 -1.7492  0.0439
 2077lim     li11257   3.565   4.892   5.026 -1.1644 -0.5426  0.8191
 2078lim     li11258   2.764   6.018   6.539 -0.4023 -0.7445 -0.3368
 2079lim     li11259   2.741   6.109   0.832 -0.9130 -0.1868 -0.0773
 2080lim     li11260   2.287   6.435   3.705 -0.5708  1.1078 -0.3771
 2081lim     li11261   0.703   3.763   6.957 -0.9901 -0.5386 -0.6596
 2082lim     li11262   4.183   2.329   6.038 -0.5120  1.1704  0.4246
 2083lim     li11263   3.786   5.627   5.843 -0.5355  0.1430 -2.1778
 2084lim     li11264   6.743   3.955   6.851  0.5187  0.2340 -0.7367
 2085lim     li11265   6.781   5.075   5.296  0.4906 -0.3361 -0.0959
 2086lim     li11266   1.004   4.455   3.813 -0.3175  0.6211 -0.7097
 2087lim     li11267   3.078   0.929   0.828 -0.2991 -0.0657  0.0538
 2088lim     li11268   4.343   5.709   6.446  0.4524  0.2551 -0.5163
 2089lim     li11269   2.407   6.438   3.155 -0.1352 -0.6863  0.3412
 2090lim     li11270   0.981   6.781   0.188 -0.2345  0.3416  1.2915
 2091lim     li11271   4.366   0.063   6.242 -0.2477 -0.5523 -1.1152
 2092lim     li11272   6.896   0.760   2.727 -0.7843 -1.0381 -0.0961
 2093lim     li11273   6.203   5.135   6.132 -0.5660 -0.1613  0.2035
 2094lim     li11274   0.265   1.193   3.681 -0.6955 -0.3611 -0.1659
 2095lim     li11275   4.939   3.662   5.368  0.0145  0.2161  0.5674
 2096lim     li11276   0.934   4.558   6.424  0.2066 -0.3829 -0.1917
 2097lim     li11277   4.717   6.379   5.990  0.3310  0.3456 -0.4040
 2098lim     li11278   1.111   0.817   1.830  0.2856 -0.4009  0.4966
 2099lim     li11279   1.003   0.736   0.099 -0.1990 -0.0641  0.0269
 2100lim     li11280   4.600   1.989   4.254 -0.2580  0.6057  0.4041
 2101lim     li11281   1.670   2.596   5.561 -0.3327 -1.1145  0.4875
 2102lim     li11282   3.016   2.208   1.897 -0.2024 -0.7439 -0.2979
 2103lim     li11283   2.145   6.644   6.066  0.3411  0.6453 -0.5419
 2104lim     li11284   0.157   6.498   5.360 -0.7465  0.4668  0.1635
 2105lim     li11285   5.006   0.258   1.555 -0.1524  0.4862 -0.4564
 2106lim     li11286   1.178   6.132   1.039 -0.6608  0.3160 -0.5323
 2107lim     li11287   4.010   4.092   4.583 -0.8667 -0.5788  0.6690
 2108lim     li11288   6.623   1.575   3.350  0.5442 -0.1850 -0.1766
 2109lim     li11289   0.784   0.400   1.700 -0.3852 -0.1488 -0.1619
 2110lim     li11290   3.099   6.176   4.325  0.6000 -0.2488 -0.1010
 2111lim     li11291   4.732   4.354   5.459  0.3112  0.4814 -0.9113
 2112lim     li11292   0.194   1.520   5.134 -0.3684 -1.0459  0.2464
 2113lim     li11293   3.022   6.663   3.793  0.5754  0.5775  0.2097
 2114lim     li11294   3.363   2.823   1.787 -0.1042 -0.5999 -0.0087
 2115lim     li11295   5.754   0.291   0.789 -0.5280 -0.9644  0.6097
 2116lim     li11296   2.015   4.940   6.813 -0.8699 -0.4725 -0.8220
 2117lim     li11297   1.738   6.552   6.673 -0.0041 -0.0977 -0.6123
 2118lim     li11298   6.317   6.773   3.085  0.4922  1.3591 -0.6531
 2119lim     li11299   2.667   3.901   0.265  0.1081  0.4629  1.2288
 2120lim     li11300   0.240   6.700   0.296  0.0997 -0.0906  0.3747
 2121lim     li11301   1.527   2.232   3.901 -0.0836  0.0628  0.5957
 2122lim     li11302   1.226   5.329   4.123  0.4284  0.4611 -0.4085
 2123lim     li11303   4.332   5.362   4.234 -0.3095  0.0609  0.7565
 2124lim     li11304   3.692   0.614   2.126 -0.0000  0.1852 -0.5504
 2125lim     li11305   3.781   6.151   0.537 -0.2171 -0.6294 -0.3102
 2126lim     li11306   0.585   0.359   3.552 -0.4402 -0.8257  0.5122
 2127lim     li11307   0.323   6.770   1.068  0.7883  0.7379 -0.6579
 2128lim     li11308   2.296   3.327   6.539 -0.6405 -1.4644 -0.7918
 2129lim     li11309   3.741   3.060   6.562 -0.0365  0.4409  1.1245
 2130lim     li11310   2.659   5.525   5.449 -0.0432  0.5643  0.8626
 2131lim     li11311   1.771   5.443   1.760  0.1788  0.1787  0.1271
 2132lim     li11312   2.980   0.807   5.818  0.6264 -0.4620  0.4087
 2133lim     li11313   5.669   5.526   0.504 -0.8431 -0.9528  0.7182
 2134lim     li11314   1.447   1.175   2.665 -0.7301 -0.1158 -0.2650
 2135lim     li11315   5.580   3.793   3.747  1.0882  0.9667 -0.0640
 2136lim     li11316   1.373   1.607   6.864  0.5383 -0.0679 -0.3768
 2137lim     li11317   1.000   1.604   2.076 -0.1282  0.4464 -0.2230
 2138lim     li11318   5.073   1.214   5.682  1.0343 -0.4213 -1.6530
 2139lim     li11319   5.165   2.607   4.007  1.2081 -0.5760  0.3119
 2140lim     li11320   5.792   1.004   3.379  0.4863 -1.3469 -0.9433
 2141lim     li11321   5.546   4.438   2.032  0.3755  0.1410  0.5476
 2142lim     li11322   4.103   1.261   1.683 -0.4848  0.6306  0.5079
 2143lim     li11323   5.497   1.561   1.967 -0.4065  0.3174 -0.4447
 2144lim     li11324   2.400   0.425   1.447  0.5448  0.8335  0.3090
 2145lim     li11325   1.490   4.878   5.293  0.7111  0.2620  0.3994
 2146lim     li11326   0.417   1.800   1.570 -0.3130 -0.6369  0.6661
 2147lim     li11327   1.014   0.419   4.883 -0.5298 -0.4520 -1.0023
 2148lim     li11328   0.824   2.177   4.166 -0.4297  0.3216 -0.3729
 2149lim     li11329   3.134   0.326   0.800  0.4690  0.0881  0.1124
 2150lim     li11330   1.855   2.094   3.037  1.1475 -0.0819 -0.8564
 2151lim     li11331   6.210   5.420   2.277 -1.1003  1.9300 -0.7706
 2152lim     li11332   3.556   6.486   6.313  0.6111 -0.3249  0.2801
 2153lim     li11333   6.713   4.728   3.143 -1.7644  0.7429 -1.2152
 2154lim     li11334   3.342   2.166   5.617 -0.1513 -0.4602 -0.9065
 2155lim     li11335   1.099   0.050   6.140  0.0317 -0.4119  0.5042
 2156lim     li11336   2.447   5.339   6.261 -0.0283  0.3230  0.6553
 2157lim     li11337   4.536   3.925   0.253  0.4295  0.7698  0.7326
 2158lim     li11338   0.226   5.192   3.477 -0.6225 -0.0343  0.9013
 2159lim     li11339   1.758   5.941   2.466 -0.2234  0.0220 -0.0094
 2160lim     li11340   6.443   1.662   5.412 -0.4834  0.0548  1.0411
 2161ntf    cn111341   4.899   3.002   4.425  0.4354 -0.2409  0.2285
 2161ntf    sn211342   4.908   2.821   4.406 -0.4318 -0.2727  0.0601
 2161ntf    nn311343   5.011   2.784   4.518 -0.1943 -0.1799 -0.1258
 2161ntf    sn211344   5.167   2.789   4.531 -0.2059 -0.2583  0.0599
 2161ntf    cn111345   5.202   2.626   4.457 -0.2225 -0.1762 -0.1286
 2161ntf    fn411346   5.017   3.056   4.404  0.4434 -0.2185  0.3298
 2161ntf    fn411347   4.824   3.063   4.335 -0.0207 -0.2599  0.5906
 2161ntf    fn411348   4.869   3.048   4.546  0.2421 -0.2370  0.1803
 2161ntf    on511349   4.783   2.762   4.445 -0.4915 -0.0992  0.1318
 2161ntf    on511350   4.953   2.805   4.270 -0.9609 -0.2341 -0.1194
 2161ntf    on511351   5.212   2.780   4.668  0.5378 -0.0246 -0.1633
 2161ntf    on511352   5.240   2.883   4.448 -0.1219 -0.6755 -0.3459
 2161ntf    fn411353   5.148   2.523   4.520  0.4038 -0.3198  0.1817
 2161ntf    fn411354   5.159   2.629   4.332  0.0115 -0.3662 -0.2135
 2161ntf    fn411355   5.332   2.600   4.449 -0.1721 -0.0945  0.3619
 2162ntf    cn111356   0.761   4.708   0.880 -0.0971  0.0491  0.3641
 2162ntf    sn211357   0.902   4.723   0.994  0.0287  0.1082  0.1997
 2162ntf    nn311358   0.826   4.741   1.130  0.0372  0.1279  0.2018
 2162ntf    sn211359   0.803   4.654   1.258  0.0592 -0.2978 -0.0805
 2162ntf    cn111360   0.826   4.783   1.384  0.3369 -0.3773 -0.0499
 2162ntf    fn411361   0.718   4.829   0.850  0.2619  0.1536  0.2651
 2162ntf    fn411362   0.805   4.671   0.761 -0.7864  0.4165 -0.0131
 2162ntf    fn411363   0.663   4.630   0.922 -0.1183  0.0151  0.2501
 2162ntf    on511364   0.968   4.596   0.972 -0.1810  0.0242  0.0517
 2162ntf    on511365   0.971   4.842   0.949  0.5069 -0.3174 -0.2116
 2162ntf    on511366   0.903   4.555   1.286  0.5333  0.2534  0.2057
 2162ntf    on511367   0.667   4.608   1.269 -0.3125  0.8023  0.0663
 2162ntf    fn411368   0.819   4.744   1.511 -0.1235  0.2538  0.1241
 2162ntf    fn411369   0.932   4.861   1.370  0.1503 -0.2050 -0.4977
 2162ntf    fn411370   0.731   4.875   1.381  0.5141 -0.2009 -0.1767
 2163ntf    cn111371   0.640   2.273   3.824  0.1874 -0.0911  0.2551
 2163ntf    sn211372   0.814   2.310   3.861  0.1884  0.2637 -0.1021
 2163ntf    nn311373   0.807   2.467   3.863 -0.8083  0.2216  0.3854
 2163ntf    sn211374   0.844   2.568   3.978  0.4445 -0.0308  0.2164
 2163ntf    cn111375   0.933   2.700   3.890  0.0332  0.4602  0.5326
 2163ntf    fn411376   0.615   2.292   3.696  0.6349 -0.1901  0.1510
 2163ntf    fn411377   0.606   2.149   3.858 -0.8642 -0.0247 -0.4858
 2163ntf    fn411378   0.553   2.345   3.894  0.0212 -0.3243  0.2913
 2163ntf    on511379   0.834   2.246   3.989 -1.1325  0.0478  0.0129
 2163ntf    on511380   0.888   2.266   3.745  0.0385  0.2983 -0.2118
 2163ntf    on511381   0.930   2.520   4.083  0.4456 -0.1931  0.1436
 2163ntf    on511382   0.725   2.639   4.016  0.2964  0.0111 -0.3139
 2163ntf    fn411383   1.042   2.661   3.826 -0.6857  0.4014 -0.6851
 2163ntf    fn411384   0.860   2.765   3.802  0.5444  0.2724 -0.0387
 2163ntf    fn411385   0.971   2.798   3.970  0.9947  0.6487 -0.1407
 2164ntf    cn111386   3.734   2.391   0.783  0.3371 -0.3700 -0.3447
 2164ntf    sn211387   3.903   2.324   0.792  0.3938 -0.2004 -0.1178
 2164ntf    nn311388   3.875   2.178   0.840 -0.4298 -0.0104 -0.0075
 2164ntf    sn211389   3.764   2.078   0.790 -0.4012 -0.1116  0.1279
 2164ntf    cn111390   3.875   1.960   0.708 -0.3835  0.1696 -0.2585
 2164ntf    fn411391   3.665   2.369   0.673 -0.0023  0.6381 -0.3480
 2164ntf    fn411392   3.661   2.344   0.883 -0.0959  0.4096 -0.2836
 2164ntf    fn411393   3.739   2.523   0.796 -0.1124 -0.3207 -0.6434
 2164ntf    on511394   3.952   2.326   0.656 -0.1797  0.1092 -0.3231
 2164ntf    on511395   3.966   2.412   0.887  0.1223 -0.2704  0.1265
 2164ntf    on511396   3.678   2.119   0.682 -0.3624 -0.1948  0.0657
 2164ntf    on511397   3.714   2.007   0.905  0.5394 -0.4676  0.3245
 2164ntf    fn411398   3.950   2.014   0.614  0.0522  0.3733  0.1986
 2164ntf    fn411399   3.958   1.907   0.797 -0.5842  0.7308  0.2699
 2164ntf    fn411400   3.802   1.861   0.659 -0.0064 -0.0242 -0.4322
 2165ntf    cn111401   3.378   0.263   2.014  0.3191 -0.0725 -0.0049
 2165ntf    sn211402   3.500   0.203   2.135  0.0605 -0.1577  0.2144
 2165ntf    nn311403   3.498   0.059   2.074  0.3239 -0.0611 -0.0241
 2165ntf    sn211404   3.588  -0.011   1.966 -0.0176  0.0705 -0.3978
 2165ntf    cn111405   3.712  -0.104   2.061 -0.1217 -0.2319 -0.5558
 2165ntf    fn411406   3.280   0.177   1.991  0.3214 -0.1286  0.1931
 2165ntf    fn411407   3.316   0.378   2.036 -0.2748 -0.4700  0.4400
 2165ntf    fn411408   3.439   0.271   1.897  0.0591 -0.3809 -0.1607
 2165ntf    on511409   3.618   0.282   2.109 -0.4413  0.4487 -0.2860
 2165ntf    on511410   3.433   0.219   2.262 -0.2794 -0.0859  0.0276
 2165ntf    on511411   3.668   0.085   1.895 -0.0411  0.7514  0.4779
 2165ntf    on511412   3.521  -0.119   1.899 -0.1428 -0.2418  0.2212
 2165ntf    fn411413   3.813  -0.033   2.110 -0.4004 -0.2381  0.0410
 2165ntf    fn411414   3.659  -0.158   2.170 -0.1760  0.5600 -0.1847
 2165ntf    fn411415   3.771  -0.203   1.996 -0.1096 -0.6979  0.1420
 2166ntf    cn111416   5.966   2.705   5.525  0.1051 -0.0998 -0.1860
 2166ntf    sn211417   5.798   2.684   5.592  0.3394 -0.0537  0.4305
 2166ntf    nn311418   5.727   2.637   5.460  0.0615  0.3563  0.4329
 2166ntf    sn211419   5.637   2.720   5.361 -0.0221  0.1047  0.2971
 2166ntf    cn111420   5.485   2.621   5.374 -0.2601  0.4224 -0.0250
 2166ntf    fn411421   5.976   2.821   5.463  0.1996 -0.2495 -0.4499
 2166ntf    fn411422   6.061   2.701   5.617 -0.0164 -0.2244 -0.0640
 2166ntf    fn411423   6.004   2.610   5.441 -0.0543 -0.3090 -0.0266
 2166ntf    on511424   5.809   2.575   5.685 -0.3828 -0.2725  0.2644
 2166ntf    on511425   5.758   2.809   5.651  0.4503  0.1580  0.0649
 2166ntf    on511426   5.680   2.708   5.224  0.3550 -0.6718  0.4782
 2166ntf    on511427   5.591   2.849   5.406 -0.2437  0.1209  0.0257
 2166ntf    fn411428   5.392   2.644   5.283  0.2095  0.3920 -0.5228
 2166ntf    fn411429   5.519   2.494   5.360  0.1808  0.5533 -0.1812
 2166ntf    fn411430   5.420   2.642   5.487  0.0421 -0.1478  0.2638
 2167ntf    cn111431   0.164   2.145   5.030 -0.1632  0.0588  0.0108
 2167ntf    sn211432   0.101   2.026   5.152 -0.4217  0.3782  0.1913
 2167ntf    nn311433   0.230   1.982   5.230 -0.3650 -0.0991 -0.1643
 2167ntf    sn211434   0.302   2.054   5.349 -0.0829  0.2063 -0.5165
 2167ntf    cn111435   0.460   2.104   5.274  0.0900  0.5808  0.0838
 2167ntf    fn411436   0.207   2.260   5.080  0.0306 -0.0541  0.1025
 2167ntf    fn411437   0.256   2.093   4.950 -0.3538 -0.4214  0.1050
 2167ntf    fn411438   0.071   2.191   4.948 -0.0638  0.3738  0.0730
 2167ntf    on511439   0.006   2.095   5.235  0.3592  0.7541  0.7730
 2167ntf    on511440   0.043   1.928   5.063 -0.0164  1.0152 -0.7896
 2167ntf    on511441   0.328   1.960   5.455  0.6958  0.1331 -0.7623
 2167ntf    on511442   0.248   2.183   5.382 -0.4873  0.0339 -0.5037
 2167ntf    fn411443   0.532   1.999   5.238 -0.5263 -0.0111  0.5477
 2167ntf    fn411444   0.448   2.174   5.162  0.1318  0.0266 -0.2771
 2167ntf    fn411445   0.538   2.167   5.359  0.8919  0.0111 -0.2154
 2168ntf    cn111446   1.319   3.805   0.578  0.0261  0.2149 -0.5892
 2168ntf    sn211447   1.369   3.661   0.678 -0.0116  0.4967 -0.1599
 2168ntf    nn311448   1.286   3.678   0.809 -0.1156 -0.0961 -0.1494
 2168ntf    sn211449   1.307   3.786   0.921 -0.2286 -0.0077 -0.2138
 2168ntf    cn111450   1.392   3.694   1.052 -0.1216  0.0311 -0.2558
 2168ntf    fn411451   1.301   3.781   0.449  0.2851  0.1517 -0.6133
 2168ntf    fn411452   1.200   3.843   0.622  0.2036  0.0308  0.0721
 2168ntf    fn411453   1.400   3.909   0.588  0.3535 -0.0713 -0.2044
 2168ntf    on511454   1.321   3.555   0.593 -0.5799  0.5871  0.0489
 2168ntf    on511455   1.512   3.662   0.696 -0.0097 -0.1043 -0.1233
 2168ntf    on511456   1.184   3.822   0.988 -0.1466  0.3593 -0.2573
 2168ntf    on511457   1.403   3.890   0.894  0.0010 -0.1585  0.0140
 2168ntf    fn411458   1.517   3.661   1.024  0.0618 -0.1690  0.7610
 2168ntf    fn411459   1.406   3.768   1.161  0.4869 -0.0287 -0.2904
 2168ntf    fn411460   1.328   3.581   1.079  0.1524 -0.0927 -0.1170
 2169ntf    cn111461   6.843   5.694   4.929  0.1960  0.1582 -0.3495
 2169ntf    sn211462   6.695   5.665   4.828  0.0899  0.3513 -0.2513
 2169ntf    nn311463   6.622   5.540   4.889  0.6516  0.0437 -0.2078
 2169ntf    sn211464   6.666   5.390   4.873  0.0246 -0.0743 -0.8863
 2169ntf    cn111465   6.550   5.344   4.741 -0.6632 -0.4138 -0.1687
 2169ntf    fn411466   6.925   5.591   4.918 -0.1845 -0.1210 -0.6073
 2169ntf    fn411467   6.910   5.804   4.898  0.2837  0.2864  0.2704
 2169ntf    fn411468   6.803   5.713   5.054  0.0115  0.1442 -0.4050
 2169ntf    on511469   6.629   5.791   4.851  0.1006  0.3482 -0.2030
 2169ntf    on511470   6.756   5.637   4.700  0.3119  0.5974 -0.1993
 2169ntf    on511471   6.638   5.310   4.990 -0.2421  0.3354 -0.6691
 2169ntf    on511472   6.801   5.359   4.831  0.4684 -0.1228  0.5464
 2169ntf    fn411473   6.543   5.214   4.719  0.6316 -0.4981 -0.1283
 2169ntf    fn411474   6.429   5.389   4.769 -0.3036  0.2671  0.3107
 2169ntf    fn411475   6.583   5.406   4.629 -0.1741 -0.2139  0.0826
 2170ntf    cn111476   3.215   3.243   5.056  0.2234  0.0614 -0.2061
 2170ntf    sn211477   3.288   3.083   5.009 -0.1424 -0.2026  0.1192
 2170ntf    nn311478   3.165   3.018   4.934 -0.9152  0.8636  0.4367
 2170ntf    sn211479   3.108   3.034   4.789  0.1915  0.1581 -0.0921
 2170ntf    cn111480   2.939   2.971   4.813  0.2167 -0.2114 -0.8468
 2170ntf    fn411481   3.092   3.227   5.101  0.3334 -0.2594 -0.0161
 2170ntf    fn411482   3.282   3.313   5.146  0.3539 -0.3437  0.0182
 2170ntf    fn411483   3.211   3.325   4.952 -0.0486  0.1965 -0.0903
 2170ntf    on511484   3.390   3.114   4.912 -0.4219 -0.1920 -0.1766
 2170ntf    on511485   3.322   3.025   5.136 -0.3762 -0.8783 -0.1227
 2170ntf    on511486   3.168   2.948   4.690 -0.0912 -0.0618 -0.0744
 2170ntf    on511487   3.071   3.168   4.753 -0.4967  0.0107  0.0479
 2170ntf    fn411488   2.951   2.846   4.854 -0.0784 -0.1705 -0.6313
 2170ntf    fn411489   2.873   3.027   4.914  0.2377 -0.7871 -0.5086
 2170ntf    fn411490   2.863   2.988   4.707 -0.9525 -0.3453 -0.0496
 2171ntf    cn111491   6.839   3.392   6.868  0.1242 -0.0559  0.2840
 2171ntf    sn211492   6.660   3.416   6.845  0.2129  0.1223 -0.2523
 2171ntf    nn311493   6.615   3.281   6.778 -0.0891 -0.0661  0.3224
 2171ntf    sn211494   6.512   3.183   6.845 -0.2935  0.1114  0.2689
 2171ntf    cn111495   6.459   3.103   6.691 -0.1526 -0.3356  0.4520
 2171ntf    fn411496   6.902   3.489   6.931 -0.1904  0.3693 -0.0497
 2171ntf    fn411497   6.858   3.282   6.939  0.1011  0.0926  0.5204
 2171ntf    fn411498   6.904   3.372   6.754  0.3894  0.3997  0.3520
 2171ntf    on511499   6.615   3.453   6.977 -0.6085  0.2727 -0.5714
 2171ntf    on511500   6.663   3.526   6.752 -0.3414  0.4977  0.1641
 2171ntf    on511501   6.385   3.233   6.892 -0.2498  0.0863  0.4139
 2171ntf    on511502   6.580   3.079   6.918 -0.0720  0.5252  0.6619
 2171ntf    fn411503   6.356   3.022   6.711 -0.3291 -0.1835  0.1579
 2171ntf    fn411504   6.430   3.186   6.593 -0.7198  0.2080  1.0739
 2171ntf    fn411505   6.559   3.028   6.647  0.2939  0.2963  0.3762
 2172ntf    cn111506   2.117   0.455   0.631  0.3659  0.0997 -0.4301
 2172ntf    sn211507   2.147   0.326   0.507 -0.1176 -0.0048 -0.4431
 2172ntf    nn311508   2.144   0.399   0.368 -0.1205  0.2603 -0.3050
 2172ntf    sn211509   2.120   0.329   0.229 -0.2764 -0.2357 -0.0306
 2172ntf    cn111510   1.938   0.335   0.236 -0.2668  0.2491 -0.1796
 2172ntf    fn411511   2.220   0.538   0.640  0.5233 -0.1310 -0.0945
 2172ntf    fn411512   2.017   0.530   0.586 -0.0083  0.0685  0.3373
 2172ntf    fn411513   2.069   0.412   0.746  0.2128  0.2883 -0.4212
 2172ntf    on511514   2.280   0.279   0.537 -0.0934  0.3162 -0.0362
 2172ntf    on511515   2.042   0.232   0.536  0.0818 -0.0244  0.2383
 2172ntf    on511516   2.139   0.186   0.228 -0.0970 -0.2116 -0.2348
 2172ntf    on511517   2.156   0.406   0.113 -0.2072 -0.0264  0.1282
 2172ntf    fn411518   1.898   0.297   0.356  0.6041 -0.1470 -0.0091
 2172ntf    fn411519   1.889   0.458   0.222 -0.1968  0.2286 -0.6475
 2172ntf    fn411520   1.879   0.256   0.148 -0.0806 -0.2322  0.1261
 2173ntf    cn111521   6.395   6.577   5.501  0.5616  0.1918 -0.0428
 2173ntf    sn211522   6.321   6.562   5.666  0.0619  0.1563 -0.2698
 2173ntf    nn311523   6.428   6.461   5.721 -0.5018 -0.3423 -0.0695
 2173ntf    sn211524   6.420   6.324   5.798  0.0144 -0.3458 -0.0184
 2173ntf    cn111525   6.440   6.196   5.670  0.5389 -0.4871  0.2026
 2173ntf    fn411526   6.346   6.674   5.426  0.4018  0.5167  0.4748
 2173ntf    fn411527   6.525   6.603   5.509  0.5728  0.1442 -0.0695
 2173ntf    fn411528   6.374   6.465   5.435  0.3319  0.2423 -0.0548
 2173ntf    on511529   6.319   6.697   5.716  0.3895 -0.1327  0.5394
 2173ntf    on511530   6.193   6.500   5.641 -0.2898  0.8172 -0.1347
 2173ntf    on511531   6.306   6.291   5.879  0.4849 -0.8160  0.4587
 2173ntf    on511532   6.544   6.301   5.868 -0.2745  0.0512  0.6245
 2173ntf    fn411533   6.412   6.075   5.714 -0.3137 -0.2422  0.3567
 2173ntf    fn411534   6.365   6.222   5.564  0.0598  0.1052  0.6784
 2173ntf    fn411535   6.563   6.189   5.622  0.4051 -0.4544 -0.1521
 2174ntf    cn111536   5.219   1.371   2.690  0.2401  0.0994  0.1985
 2174ntf    sn211537   5.314   1.371   2.535 -0.0604 -0.2633  0.0143
 2174ntf    nn311538   5.219   1.316   2.423 -0.3948  1.0065 -0.3392
 2174ntf    sn211539   5.076   1.253   2.431 -0.0076  0.1527 -0.0043
 2174ntf    cn111540   5.036   1.211   2.259 -0.0994 -0.1626  0.0928
 2174ntf    fn411541   5.102   1.432   2.681 -0.1149 -0.6260 -0.1617
 2174ntf    fn411542   5.194   1.245   2.719  0.1082 -0.0032 -0.3591
 2174ntf    fn411543   5.276   1.420   2.799  0.2059  0.0807  0.2249
 2174ntf    on511544   5.343   1.511   2.515  0.2361 -0.3512 -0.1869
 2174ntf    on511545   5.426   1.283   2.563  0.5674  0.6259  0.3411
 2174ntf    on511546   4.974   1.352   2.455 -0.4559 -0.2594 -0.2054
 2174ntf    on511547   5.080   1.130   2.506 -0.6471  0.4601  0.5485
 2174ntf    fn411548   4.910   1.245   2.236 -0.0172  0.0607 -0.0351
 2174ntf    fn411549   5.106   1.275   2.167  0.3717 -0.2067  0.4183
 2174ntf    fn411550   5.049   1.081   2.240  0.2323 -0.1060 -0.0686
 2175ntf    cn111551   5.887   5.875   4.294 -0.2035 -0.1697 -0.2933
 2175ntf    sn211552   6.026   5.992   4.303 -0.2161 -0.1860  0.1547
 2175ntf    nn311553   5.966   6.081   4.418  0.2414 -0.2861  0.4771
 2175ntf    sn211554   5.962   6.236   4.438  0.1004 -0.2020 -0.1645
 2175ntf    cn111555   6.064   6.274   4.584 -0.0742 -0.3401 -0.0050
 2175ntf    fn411556   5.886   5.805   4.183 -0.1858 -0.0372 -0.3780
 2175ntf    fn411557   5.884   5.791   4.396  0.4404 -0.4266 -0.4829
 2175ntf    fn411558   5.766   5.929   4.302 -0.3275 -0.4213 -0.4988
 2175ntf    on511559   6.140   5.915   4.347  0.4124  0.1784 -0.8061
 2175ntf    on511560   6.038   6.044   4.169 -0.4012 -0.2664  0.1070
 2175ntf    on511561   5.837   6.296   4.478 -0.0394 -0.5167 -0.1244
 2175ntf    on511562   6.026   6.313   4.335 -0.0579 -0.1978 -0.2603
 2175ntf    fn411563   6.187   6.225   4.579 -0.0463 -0.2385 -0.4249
 2175ntf    fn411564   6.078   6.405   4.596 -0.1149 -0.4031  0.7251
 2175ntf    fn411565   6.011   6.228   4.696 -0.1714 -0.6118 -0.1604
 2176ntf    cn111566   4.048   6.147   4.349  0.1130  0.2623 -0.0287
 2176ntf    sn211567   4.148   6.081   4.211  0.3720  0.2206  0.1781
 2176ntf    nn311568   4.038   6.050   4.104  0.6165  0.3218 -0.1023
 2176ntf    sn211569   4.039   5.955   3.978  0.3740  0.0597  0.0912
 2176ntf    cn111570   3.895   6.020   3.887  0.6839  0.2447 -0.2690
 2176ntf    fn411571   4.112   6.205   4.449  0.0989 -0.0666  0.1708
 2176ntf    fn411572   3.963   6.232   4.294  0.5184  0.2491 -0.6868
 2176ntf    fn411573   3.969   6.058   4.407  0.9103 -0.5239 -0.1340
 2176ntf    on511574   4.239   6.189   4.184 -0.2311  0.5986 -0.3780
 2176ntf    on511575   4.204   5.960   4.264 -0.2326 -0.0693  0.1661
 2176ntf    on511576   4.001   5.819   4.008  0.2486  0.1923  0.5530
 2176ntf    on511577   4.150   5.982   3.890 -0.0031  0.1166 -0.3697
 2176ntf    fn411578   3.891   5.962   3.769  0.6888 -0.0894 -0.1066
 2176ntf    fn411579   3.783   5.999   3.955  0.6683  0.1129 -0.3357
 2176ntf    fn411580   3.912   6.150   3.869  0.2699  0.3342 -0.0354
 2177ntf    cn111581   5.302   6.374   0.446 -0.0402 -0.5745  0.3582
 2177ntf    sn211582   5.446   6.469   0.390 -0.6459  0.1291 -0.0327
 2177ntf    nn311583   5.451   6.576   0.504  0.0170 -0.0076  0.0725
 2177ntf    sn211584   5.352   6.698   0.514  0.2585  0.2055 -0.1316
 2177ntf    cn111585   5.470   6.823   0.453  0.4697 -0.1186 -0.3895
 2177ntf    fn411586   5.299   6.249   0.402 -0.3200 -0.4144 -0.0887
 2177ntf    fn411587   5.292   6.362   0.577  0.7079 -0.0261  0.4668
 2177ntf    fn411588   5.191   6.431   0.401  0.0333 -0.3938  0.4093
 2177ntf    on511589   5.548   6.368   0.405 -0.2209  0.6286  0.5030
 2177ntf    on511590   5.405   6.521   0.262  0.2252 -0.0762 -0.4049
 2177ntf    on511591   5.330   6.724   0.654 -0.1589 -0.3898 -0.0830
 2177ntf    on511592   5.248   6.726   0.418  0.4706 -0.0140 -0.4295
 2177ntf    fn411593   5.578   6.807   0.529  0.5435  0.2443 -0.4180
 2177ntf    fn411594   5.508   6.792   0.330  0.8633  0.2608 -0.3669
 2177ntf    fn411595   5.431   6.949   0.460  0.2318 -0.2021 -0.1830
 2178ntf    cn111596   1.340   6.667   4.544  0.3289 -0.7264 -0.4239
 2178ntf    sn211597   1.289   6.544   4.669  0.1621 -0.2703 -0.0393
 2178ntf    nn311598   1.152   6.510   4.601  0.0010  0.1148  0.0898
 2178ntf    sn211599   1.007   6.554   4.642 -0.1156  0.0110 -0.2091
 2178ntf    cn111600   0.973   6.462   4.795 -0.2037  0.4849  0.0605
 2178ntf    fn411601   1.412   6.612   4.448  0.2021 -0.3804 -0.7210
 2178ntf    fn411602   1.241   6.741   4.498  0.4756 -0.3412 -0.1318
 2178ntf    fn411603   1.414   6.762   4.599 -0.7616  0.0049 -0.1825
 2178ntf    on511604   1.386   6.439   4.648  0.0953 -0.3811  0.2090
 2178ntf    on511605   1.283   6.620   4.791  0.0892 -0.3806  0.0252
 2178ntf    on511606   0.914   6.497   4.548 -0.3522 -0.5633  0.3643
 2178ntf    on511607   0.989   6.692   4.678  0.4453 -0.0010  0.1253
 2178ntf    fn411608   1.063   6.484   4.889  0.1863  0.4355 -0.2966
 2178ntf    fn411609   0.852   6.486   4.842  0.1271  0.7661  0.7696
 2178ntf    fn411610   0.989   6.331   4.778  0.8034  0.5762  0.2083
 2179ntf    cn111611   4.822   0.899   2.743 -0.0033  0.2737 -0.3500
 2179ntf    sn211612   4.659   0.822   2.765  0.0600  0.1896 -0.1697
 2179ntf    nn311613   4.646   0.722   2.644  0.5589  0.0367 -0.0984
 2179ntf    sn211614   4.553   0.728   2.518  0.0913  0.0808  0.2482
 2179ntf    cn111615   4.398   0.662   2.588  0.0176  0.0105  0.0221
 2179ntf    fn411616   4.828   0.978   2.637  0.1876  0.4809 -0.1885
 2179ntf    fn411617   4.861   0.970   2.847 -1.1282  0.4154 -0.0090
 2179ntf    fn411618   4.916   0.807   2.730 -0.6596 -0.3831 -0.4662
 2179ntf    on511619   4.673   0.759   2.893  0.4965  0.5188 -0.0545
 2179ntf    on511620   4.571   0.936   2.767 -0.2333 -0.0403 -0.0332
 2179ntf    on511621   4.594   0.631   2.419 -0.2206 -0.1534  0.3447
 2179ntf    on511622   4.515   0.857   2.466 -0.2217 -0.1815 -0.1849
 2179ntf    fn411623   4.333   0.763   2.643  0.1468 -0.1298  0.4405
 2179ntf    fn411624   4.319   0.600   2.503 -0.6472  0.4434  0.3147
 2179ntf    fn411625   4.423   0.580   2.689  0.5659 -0.0614 -0.1671
 2180ntf    cn111626   3.594   2.102   6.839 -0.4607  0.3686 -0.3923
 2180ntf    sn211627   3.545   1.928   6.855  0.0206  0.2574 -0.1117
 2180ntf    nn311628   3.559   1.883   6.705 -0.4060  0.5434 -0.2417
 2180ntf    sn211629   3.594   1.745   6.638 -0.0766  0.5317 -0.0485
 2180ntf    cn111630   3.436   1.699   6.561  0.0949 -0.1994  0.0316
 2180ntf    fn411631   3.716   2.120   6.793 -0.3433  0.8662  0.1012
 2180ntf    fn411632   3.512   2.163   6.755 -0.5980  0.0979 -0.4543
 2180ntf    fn411633   3.584   2.176   6.949  0.0978  0.3043 -0.2978
 2180ntf    on511634   3.643   1.867   6.942 -0.1826  0.1316  0.0310
 2180ntf    on511635   3.403   1.943   6.879 -0.0264  0.7325 -0.6599
 2180ntf    on511636   3.619   1.643   6.737  0.5235  0.6167 -0.1037
 2180ntf    on511637   3.687   1.756   6.528 -0.5766  0.5865 -0.4688
 2180ntf    fn411638   3.438   1.576   6.511 -0.3597  0.1054 -0.7484
 2180ntf    fn411639   3.345   1.708   6.656  0.2564  0.3653  0.1368
 2180ntf    fn411640   3.400   1.789   6.471  0.5159 -0.1387 -0.0804
 2181ntf    cn111641   2.520   3.010   1.060 -0.2277  0.0728 -0.4703
 2181ntf    sn211642   2.572   3.035   0.888 -0.0012 -0.0941 -0.4256
 2181ntf    nn311643   2.674   3.152   0.914 -0.0629 -0.0418 -0.4210
 2181ntf    sn211644   2.819   3.164   0.856  0.1338 -0.0334  0.0634
 2181ntf    cn111645   2.926   3.097   0.987 -0.3701 -0.2918  0.3469
 2181ntf    fn411646   2.616   2.982   1.147 -0.1013 -0.1607 -0.6842
 2181ntf    fn411647   2.458   3.115   1.110  0.2685  0.1270  0.0428
 2181ntf    fn411648   2.424   2.919   1.072 -0.0223 -0.0640  0.1791
 2181ntf    on511649   2.631   2.911   0.843 -0.1721 -0.2163 -0.3149
 2181ntf    on511650   2.457   3.073   0.811 -0.2357 -0.6752 -0.3713
 2181ntf    on511651   2.863   3.301   0.857 -0.5571  0.1935 -0.2633
 2181ntf    on511652   2.852   3.074   0.748 -0.4757 -0.1347 -0.0429
 2181ntf    fn411653   2.901   2.968   1.003 -0.2626 -0.4003 -0.3046
 2181ntf    fn411654   3.054   3.119   0.958 -0.3048 -0.1847  0.7158
 2181ntf    fn411655   2.908   3.161   1.101  0.4884 -0.3263  0.5063
 2182ntf    cn111656   6.248   0.082   0.350  0.0487 -0.0917 -0.1236
 2182ntf    sn211657   6.154  -0.022   0.233  0.1339 -0.1825 -0.1120
 2182ntf    nn311658   6.014   0.046   0.258 -0.1374 -0.4528 -0.8686
 2182ntf    sn211659   5.871  -0.007   0.294 -0.2274  0.3895  0.0644
 2182ntf    cn111660   5.758   0.085   0.186  0.0317  0.4002 -0.1987
 2182ntf    fn411661   6.221   0.064   0.478 -0.1637  0.7734 -0.0411
 2182ntf    fn411662   6.375   0.044   0.347  0.1574  0.2817 -0.2070
 2182ntf    fn411663   6.233   0.209   0.319 -0.1398  0.0017  0.3490
 2182ntf    on511664   6.208   0.013   0.104 -0.1278 -0.1317 -0.2075
 2182ntf    on511665   6.169  -0.157   0.281  0.6921  0.0246  0.3017
 2182ntf    on511666   5.824   0.038   0.422  0.0637  0.1003  0.2759
 2182ntf    on511667   5.852  -0.146   0.259 -0.3044  0.3661  0.2001
 2182ntf    fn411668   5.631   0.062   0.217  0.3158 -0.5550  0.3000
 2182ntf    fn411669   5.773   0.216   0.199  0.1885  0.3166  0.4572
 2182ntf    fn411670   5.766   0.043   0.061 -0.3299 -0.0700 -0.0664
 2183ntf    cn111671   6.752   6.548   2.262 -0.3119  0.6407 -0.2053
 2183ntf    sn211672   6.884   6.512   2.382 -0.3098  0.1672 -0.3442
 2183ntf    nn311673   6.996   6.456   2.287  0.1501 -0.2133  0.4164
 2183ntf    sn211674   7.015   6.311   2.229 -0.2016 -0.1373  0.1094
 2183ntf    cn111675   7.194   6.305   2.259 -0.2156 -0.1362  0.1947
 2183ntf    fn411676   6.794   6.630   2.167  0.8562 -0.1602 -0.4044
 2183ntf    fn411677   6.707   6.444   2.193 -0.0858  0.2441  0.2400
 2183ntf    fn411678   6.650   6.611   2.318 -0.6002  0.0035 -0.0035
 2183ntf    on511679   6.930   6.639   2.433  0.2291 -0.2298  0.1752
 2183ntf    on511680   6.826   6.428   2.483  0.4628 -0.2172 -0.2111
 2183ntf    on511681   7.010   6.293   2.086 -0.4371  0.2270  0.0694
 2183ntf    on511682   6.971   6.202   2.313  0.4098 -0.1174  0.4573
 2183ntf    fn411683   7.255   6.412   2.210 -0.2852 -0.0645  0.2648
 2183ntf    fn411684   7.225   6.296   2.387 -0.1981 -0.5516  0.1622
 2183ntf    fn411685   7.247   6.197   2.204 -0.0994 -0.3312  0.6876
 2184ntf    cn111686   2.504   5.994   6.085  0.2493 -0.0332 -0.2658
 2184ntf    sn211687   2.388   5.857   6.058 -0.2125  0.2883  0.0768
 2184ntf    nn311688   2.256   5.920   6.115  0.0583  0.4960  0.4747
 2184ntf    sn211689   2.130   5.967   6.034  0.0343 -0.0256  0.2071
 2184ntf    cn111690   2.075   5.807   5.967 -0.1067  0.1587 -0.1215
 2184ntf    fn411691   2.486   6.056   6.200  0.6735  0.1235 -0.2812
 2184ntf    fn411692   2.629   5.951   6.094  0.1239 -0.3848 -0.1518
 2184ntf    fn411693   2.504   6.084   5.989 -0.0892  0.1415 -0.1047
 2184ntf    on511694   2.387   5.836   5.915 -0.2061 -0.1807  0.1425
 2184ntf    on511695   2.438   5.752   6.144  0.2467  0.3827 -0.0720
 2184ntf    on511696   2.161   6.052   5.921 -0.2443  0.0593  0.1954
 2184ntf    on511697   2.018   6.012   6.112  0.2280  0.7307  0.0523
 2184ntf    fn411698   2.012   5.823   5.852  0.0113 -0.2378 -0.2440
 2184ntf    fn411699   2.175   5.724   5.942  0.1360  0.2788  0.4354
 2184ntf    fn411700   1.997   5.749   6.057  0.9473 -0.4195  0.4377
 2185ntf    cn111701   2.585   2.746   4.922  0.1289 -0.1829 -0.1232
 2185ntf    sn211702   2.473   2.826   4.804  0.1157 -0.1677 -0.0993
 2185ntf    nn311703   2.570   2.828   4.681  0.1811 -0.3762 -0.0501
 2185ntf    sn211704   2.587   2.745   4.549  0.3850  0.1823 -0.3776
 2185ntf    cn111705   2.543   2.873   4.428 -0.6807 -0.1362 -0.3337
 2185ntf    fn411706   2.641   2.645   4.856 -0.7112 -0.4055 -0.5044
 2185ntf    fn411707   2.681   2.830   4.958 -0.3298  0.2038  0.1913
 2185ntf    fn411708   2.529   2.695   5.030  0.3571 -0.2522 -0.0351
 2185ntf    on511709   2.359   2.741   4.779  0.0722 -0.1757  0.1159
 2185ntf    on511710   2.445   2.961   4.849  0.1493 -0.0581 -0.4061
 2185ntf    on511711   2.498   2.634   4.530 -0.1915  0.5776 -0.0085
 2185ntf    on511712   2.726   2.713   4.529  0.3412 -0.3534  0.1507
 2185ntf    fn411713   2.493   2.820   4.317  0.3752  0.0683 -0.9251
 2185ntf    fn411714   2.455   2.962   4.472  0.2235  0.3357  0.5578
 2185ntf    fn411715   2.651   2.942   4.396 -0.4359 -0.3185  0.0946
 2186ntf    cn111716   4.938   2.972   5.535  0.4351  0.1910  0.4437
 2186ntf    sn211717   5.050   3.105   5.588  0.3320  0.3848  0.1792
 2186ntf    nn311718   5.009   3.154   5.731 -0.4023 -0.1828  0.1661
 2186ntf    sn211719   5.086   3.114   5.862  0.0053  0.3509  0.0877
 2186ntf    cn111720   5.059   3.264   5.962 -0.2848  0.3655 -0.0130
 2186ntf    fn411721   4.922   2.972   5.403  0.6272 -0.4586  0.4191
 2186ntf    fn411722   4.972   2.853   5.580 -0.3075 -0.3129 -0.3025
 2186ntf    fn411723   4.816   3.001   5.577 -0.1320 -0.7835 -0.4802
 2186ntf    on511724   5.177   3.038   5.575  0.1284  0.0795 -0.2752
 2186ntf    on511725   5.022   3.209   5.492 -0.1409 -0.1148 -0.2356
 2186ntf    on511726   5.230   3.115   5.851  0.0164  0.0444  0.2015
 2186ntf    on511727   5.026   3.003   5.931  0.3245  0.1299  0.0134
 2186ntf    fn411728   5.102   3.376   5.907  0.8151 -0.0301  0.0072
 2186ntf    fn411729   4.934   3.280   6.001 -0.1835 -0.2706  0.6096
 2186ntf    fn411730   5.128   3.250   6.075  0.3541  0.2974 -0.4059
 2187ntf    cn111731   4.478   5.706   1.781  0.0764  0.1552  0.1646
 2187ntf    sn211732   4.606   5.587   1.830 -0.0962 -0.1396 -0.0923
 2187ntf    nn311733   4.615   5.505   1.697 -0.2210  0.0096 -0.1922
 2187ntf    sn211734   4.685   5.366   1.676  0.2751  0.2242  0.0351
 2187ntf    cn111735   4.542   5.266   1.624  0.2183  0.2216  0.1932
 2187ntf    fn411736   4.498   5.753   1.659 -0.5274 -0.3697 -0.1461
 2187ntf    fn411737   4.359   5.647   1.772  0.2129 -0.1053  0.0580
 2187ntf    fn411738   4.472   5.815   1.855 -0.6182 -0.2932  0.7867
 2187ntf    on511739   4.720   5.671   1.858 -0.0038 -0.4888  0.6025
 2187ntf    on511740   4.547   5.514   1.940  0.2740  0.1106  0.2745
 2187ntf    on511741   4.729   5.303   1.798 -0.6587 -0.0436  0.2441
 2187ntf    on511742   4.761   5.348   1.555  0.1771 -0.0209  0.0094
 2187ntf    fn411743   4.501   5.300   1.502  0.1273 -0.2492  0.0927
 2187ntf    fn411744   4.573   5.138   1.622 -0.2222  0.1035  0.8336
 2187ntf    fn411745   4.436   5.275   1.702 -0.0328 -0.2314 -0.0949
 2188ntf    cn111746   4.224   0.016   5.503 -0.3810  0.2930 -0.5703
 2188ntf    sn211747   4.224  -0.118   5.380  0.4178 -0.4070  0.1793
 2188ntf    nn311748   4.088  -0.097   5.304  0.4257 -0.0074  0.2728
 2188ntf    sn211749   4.057  -0.117   5.152 -0.0411 -0.0445  0.3700
 2188ntf    cn111750   4.020   0.051   5.092 -0.0838 -0.2394 -0.1589
 2188ntf    fn411751   4.160  -0.012   5.616 -0.1208  0.1214 -0.4633
 2188ntf    fn411752   4.346   0.052   5.537 -0.5931 -0.1768  0.7597
 2188ntf    fn411753   4.165   0.123   5.452 -0.7039  0.6613  0.5420
 2188ntf    on511754   4.341  -0.102   5.297  0.1522  0.4770 -0.0310
 2188ntf    on511755   4.228  -0.229   5.472  0.0336 -0.0390  0.6429
 2188ntf    on511756   3.934  -0.190   5.139 -0.0353 -0.1207  0.7254
 2188ntf    on511757   4.163  -0.168   5.067 -0.1180 -0.3367  0.4490
 2188ntf    fn411758   3.944   0.121   5.175  0.5936  0.0619  0.2126
 2188ntf    fn411759   4.126   0.127   5.074 -0.1825 -0.1038 -0.1652
 2188ntf    fn411760   3.949   0.051   4.981  0.7537 -0.3787 -0.6984
 2189ntf    cn111761   0.337   3.772   4.432  0.1148  0.2671  0.1234
 2189ntf    sn211762   0.303   3.941   4.373  0.0301  0.1112 -0.2750
 2189ntf    nn311763   0.424   3.967   4.276 -0.0290 -0.4094 -0.4957
 2189ntf    sn211764   0.570   4.013   4.314 -0.2852 -0.0853  0.1167
 2189ntf    cn111765   0.555   4.193   4.302  0.0130 -0.0373  0.4618
 2189ntf    fn411766   0.225   3.719   4.478  0.0605  0.3837  0.1249
 2189ntf    fn411767   0.391   3.692   4.342  0.0241 -0.2320  0.5072
 2189ntf    fn411768   0.420   3.768   4.535 -0.0269  0.3553  0.2418
 2189ntf    on511769   0.185   3.939   4.291  0.0102  0.2122 -0.2487
 2189ntf    on511770   0.289   4.027   4.487  0.0167  0.3597 -0.4646
 2189ntf    on511771   0.658   3.988   4.203 -0.9148  0.0714 -0.4220
 2189ntf    on511772   0.625   3.991   4.446  0.4705  0.3944 -0.1168
 2189ntf    fn411773   0.672   4.256   4.297 -0.2155  0.4140  0.7393
 2189ntf    fn411774   0.482   4.227   4.197  0.4131  0.2203  0.2648
 2189ntf    fn411775   0.501   4.237   4.415 -0.1673 -0.3291  0.4894
 2190ntf    cn111776   0.815   1.950   6.426 -0.0859 -0.0430 -0.3320
 2190ntf    sn211777   0.723   2.105   6.398  0.0621  0.0360 -0.3827
 2190ntf    nn311778   0.682   2.082   6.248  0.2817  0.4067 -0.5001
 2190ntf    sn211779   0.755   2.113   6.112  0.1987  0.0806 -0.6195
 2190ntf    cn111780   0.646   2.240   6.041 -0.0392 -0.1497 -0.6660
 2190ntf    fn411781   0.935   1.954   6.369 -0.3311  0.6680 -0.8161
 2190ntf    fn411782   0.840   1.935   6.555  0.4067  0.6642 -0.3404
 2190ntf    fn411783   0.752   1.840   6.387 -0.1993 -0.3217  0.6199
 2190ntf    on511784   0.612   2.091   6.489  0.3622 -0.5501 -0.1001
 2190ntf    on511785   0.814   2.208   6.441 -0.1435 -0.0550  0.2733
 2190ntf    on511786   0.746   1.998   6.026  0.3116 -0.1331 -0.3503
 2190ntf    on511787   0.885   2.174   6.130  0.1358  0.2261 -0.6589
 2190ntf    fn411788   0.659   2.252   5.910  0.8034 -0.3445 -0.6053
 2190ntf    fn411789   0.520   2.210   6.067  0.0687  0.1083  0.1888
 2190ntf    fn411790   0.656   2.360   6.095 -0.3002 -0.1389 -0.6443
 2191ntf    cn111791   3.647   1.411   1.346 -0.3450 -0.3306  0.0263
 2191ntf    sn211792   3.763   1.551   1.342 -0.4451 -0.2557 -0.2878
 2191ntf    nn311793   3.832   1.552   1.201  0.1623  0.3887  0.0027
 2191ntf    sn211794   3.871   1.423   1.120  0.0604  0.1805  0.2842
 2191ntf    cn111795   4.018   1.467   1.023 -0.2878  0.0353 -0.3090
 2191ntf    fn411796   3.629   1.379   1.473 -0.3043  0.0479  0.1304
 2191ntf    fn411797   3.529   1.442   1.295  0.1376 -0.2446 -1.0566
 2191ntf    fn411798   3.676   1.303   1.276 -0.4385 -0.1904 -0.2313
 2191ntf    on511799   3.673   1.663   1.358 -0.0782 -0.0442  0.3326
 2191ntf    on511800   3.845   1.515   1.455 -0.5411 -0.0016 -0.1369
 2191ntf    on511801   3.772   1.390   1.021  0.2448 -0.4602  0.3094
 2191ntf    on511802   3.923   1.323   1.211  0.5680  0.0940 -0.0945
 2191ntf    fn411803   4.015   1.598   1.001  0.8706  0.2102  0.5326
 2191ntf    fn411804   4.133   1.442   1.082 -0.2508  0.1394 -0.3356
 2191ntf    fn411805   4.018   1.399   0.909 -0.4268 -0.1611 -0.1923
 2192ntf    cn111806   4.789   6.977   6.146 -0.2788 -0.1982  0.4543
 2192ntf    sn211807   4.624   6.962   6.072  0.0586 -0.0592 -0.3331
 2192ntf    nn311808   4.627   6.805   6.058  0.2246 -0.1887  1.0590
 2192ntf    sn211809   4.680   6.719   5.937 -0.6613 -0.1097  0.6111
 2192ntf    cn111810   4.535   6.731   5.828  0.2629 -0.2260 -0.6380
 2192ntf    fn411811   4.783   7.091   6.213 -0.4615  0.2678 -0.3443
 2192ntf    fn411812   4.813   6.870   6.220  0.5231 -0.0519  0.4120
 2192ntf    fn411813   4.884   6.990   6.055 -0.4995  0.4491  0.3103
 2192ntf    on511814   4.538   7.005   6.179  0.4064  0.3653 -0.2239
 2192ntf    on511815   4.625   7.052   5.959  0.1995  0.4120  0.0423
 2192ntf    on511816   4.681   6.579   5.970  0.2046 -0.2517  0.0026
 2192ntf    on511817   4.789   6.780   5.865 -0.7178 -0.3635  0.3111
 2192ntf    fn411818   4.420   6.719   5.891  0.5882  0.3527  0.0739
 2192ntf    fn411819   4.522   6.847   5.766 -0.2337 -0.0620 -0.2322
 2192ntf    fn411820   4.532   6.632   5.739  0.1214 -0.5163 -0.3102
 2193ntf    cn111821   2.088   6.873   3.986 -0.3006 -0.2846 -0.3137
 2193ntf    sn211822   2.048   6.712   4.061 -0.1296 -0.2018 -0.0446
 2193ntf    nn311823   1.927   6.657   3.978 -0.5190  0.4851  0.0579
 2193ntf    sn211824   1.819   6.548   4.010  0.0002 -0.0524  0.0132
 2193ntf    cn111825   1.854   6.430   3.877 -0.2384  0.2662 -0.3355
 2193ntf    fn411826   1.981   6.942   3.950 -0.6174 -0.5474  0.1182
 2193ntf    fn411827   2.155   6.950   4.070 -0.0210 -0.7306 -0.1218
 2193ntf    fn411828   2.165   6.850   3.881 -0.4205 -0.3898 -0.3781
 2193ntf    on511829   2.171   6.637   4.051  0.1530  0.3410 -0.7254
 2193ntf    on511830   2.005   6.750   4.193 -0.4369  0.2948 -0.2873
 2193ntf    on511831   1.679   6.581   3.999  0.1609  0.6206 -0.0524
 2193ntf    on511832   1.858   6.479   4.130 -0.0318 -0.2807 -0.1063
 2193ntf    fn411833   1.982   6.400   3.862 -0.3612 -0.2992 -0.2905
 2193ntf    fn411834   1.788   6.318   3.902 -0.0010  0.3006  0.4726
 2193ntf    fn411835   1.822   6.481   3.759 -0.7013 -0.1992 -0.4158
 2194ntf    cn111836   2.387   6.807   2.081 -0.0552 -0.3700 -0.1752
 2194ntf    sn211837   2.519   6.726   1.985  0.1466 -0.1949 -0.0455
 2194ntf    nn311838   2.570   6.624   2.093 -0.1777  0.0569  0.3469
 2194ntf    sn211839   2.716   6.571   2.117 -0.1377  0.0470  0.0788
 2194ntf    cn111840   2.742   6.656   2.275 -0.0704  0.1123  0.0331
 2194ntf    fn411841   2.441   6.865   2.187 -0.1956 -0.1273 -0.2382
 2194ntf    fn411842   2.320   6.902   2.018  0.5249  0.2290  0.0997
 2194ntf    fn411843   2.294   6.724   2.128 -0.0674 -0.0755  0.3275
 2194ntf    on511844   2.440   6.659   1.884  0.0711  0.5294 -0.4731
 2194ntf    on511845   2.605   6.836   1.951  0.1701 -0.1463  0.1685
 2194ntf    on511846   2.822   6.617   2.031 -0.3092  0.0526 -0.1312
 2194ntf    on511847   2.704   6.433   2.156 -0.2483 -0.0504 -0.2937
 2194ntf    fn411848   2.707   6.783   2.265 -0.0704  0.0906 -0.2618
 2194ntf    fn411849   2.681   6.613   2.384  0.1195 -0.2295  0.0060
 2194ntf    fn411850   2.873   6.663   2.297 -0.0176 -0.3351 -0.1363
 2195ntf    cn111851   1.661   1.993   5.524  0.3396  0.1409  0.0588
 2195ntf    sn211852   1.702   2.138   5.625  0.4671  0.1933 -0.0688
 2195ntf    nn311853   1.722   2.057   5.757 -0.1515 -0.2217 -0.2275
 2195ntf    sn211854   1.701   2.098   5.907  0.1160  0.0723 -0.2705
 2195ntf    cn111855   1.550   2.002   5.937  0.0735  0.0240 -0.6419
 2195ntf    fn411856   1.760   1.905   5.525  0.0456 -0.1924  0.5837
 2195ntf    fn411857   1.550   1.933   5.562 -0.0088  0.6179 -0.1920
 2195ntf    fn411858   1.640   2.017   5.395 -0.3473 -0.4765  0.0477
 2195ntf    on511859   1.823   2.188   5.563  0.4708 -0.0547 -0.2615
 2195ntf    on511860   1.584   2.220   5.614  0.5295  0.3073  0.1163
 2195ntf    on511861   1.664   2.236   5.928  0.7706  0.0895  0.8772
 2195ntf    on511862   1.799   2.048   6.001  0.0096 -0.4042 -0.4153
 2195ntf    fn411863   1.547   1.870   5.933  0.1777  0.0233 -0.7149
 2195ntf    fn411864   1.487   2.033   6.049  0.1524 -0.1406 -0.5515
 2195ntf    fn411865   1.462   2.039   5.845 -0.0616  0.1251 -0.4722
 2196ntf    cn111866   6.098   1.639   3.760 -0.1107 -0.4458  0.2893
 2196ntf    sn211867   6.111   1.765   3.890 -0.1566 -0.1293 -0.0102
 2196ntf    nn311868   6.257   1.817   3.868 -0.0085 -0.1796  0.8017
 2196ntf    sn211869   6.296   1.967   3.837  0.4203 -0.4114  0.1859
 2196ntf    cn111870   6.245   2.000   3.666  0.5364  0.0239  0.2362
 2196ntf    fn411871   6.182   1.538   3.771  0.0658 -0.2950  0.3337
 2196ntf    fn411872   5.974   1.593   3.756 -0.3683  0.2540 -0.0929
 2196ntf    fn411873   6.123   1.698   3.644  0.1447 -0.2966  0.4199
 2196ntf    on511874   6.005   1.860   3.865 -0.2078  0.0984  1.0020
 2196ntf    on511875   6.093   1.687   4.010 -0.1846  0.5279  0.4226
 2196ntf    on511876   6.439   1.980   3.832  0.3545 -0.0477 -0.8838
 2196ntf    on511877   6.227   2.067   3.915  0.1706 -0.3489 -0.1106
 2196ntf    fn411878   6.288   2.116   3.619  0.1252  0.3486  0.6563
 2196ntf    fn411879   6.303   1.916   3.582  0.0008  0.4865 -0.6046
 2196ntf    fn411880   6.115   1.998   3.643  0.6342  0.6160 -0.3893
 2197ntf    cn111881   2.591   6.312   0.399  0.5661 -0.3779  0.1243
 2197ntf    sn211882   2.411   6.312   0.377  0.5702 -0.1611  0.0869
 2197ntf    nn311883   2.363   6.366   0.517 -0.6696 -0.0055 -0.3881
 2197ntf    sn211884   2.307   6.503   0.569  0.2319  0.1854  0.0948
 2197ntf    cn111885   2.135   6.483   0.511  0.3029  0.1267 -0.0973
 2197ntf    fn411886   2.638   6.214   0.474 -0.8789 -0.7994  0.5149
 2197ntf    fn411887   2.656   6.312   0.284  0.3866 -0.2870  0.0219
 2197ntf    fn411888   2.632   6.425   0.456  0.2500 -0.4545  0.5139
 2197ntf    on511889   2.376   6.405   0.273  0.2273  0.3545  0.6529
 2197ntf    on511890   2.370   6.174   0.364  0.1733 -0.0682  0.3054
 2197ntf    on511891   2.358   6.618   0.499 -0.3792 -0.1404 -0.9099
 2197ntf    on511892   2.304   6.503   0.713  0.0514 -0.7111  0.0984
 2197ntf    fn411893   2.126   6.435   0.389  0.4018  0.7285 -0.3449
 2197ntf    fn411894   2.083   6.391   0.590  0.1182  0.0662 -0.2893
 2197ntf    fn411895   2.056   6.589   0.523  0.2760  0.0838  0.1146
 2198ntf    cn111896   4.975   3.722   4.116 -0.2947  0.3166  0.3842
 2198ntf    sn211897   5.093   3.797   4.000  0.0296 -0.1924  0.3792
 2198ntf    nn311898   5.215   3.710   4.048  0.2304 -0.3505 -0.4037
 2198ntf    sn211899   5.341   3.765   4.124  0.1481 -0.0084 -0.5124
 2198ntf    cn111900   5.424   3.868   4.000  0.1380  0.1861 -0.3574
 2198ntf    fn411901   4.991   3.756   4.243 -0.0018 -0.2908  0.5169
 2198ntf    fn411902   4.851   3.752   4.084 -0.2439  0.6174  0.4701
 2198ntf    fn411903   4.986   3.590   4.110  0.3130  0.3882 -0.3711
 2198ntf    on511904   5.045   3.754   3.871  0.2087  0.4049  0.1083
 2198ntf    on511905   5.070   3.934   4.040 -0.7210 -0.0098 -0.6502
 2198ntf    on511906   5.437   3.661   4.153 -0.3114 -0.4697 -0.6178
 2198ntf    on511907   5.316   3.850   4.238  0.9959 -0.0275 -0.3100
 2198ntf    fn411908   5.353   3.948   3.922  0.3533  0.5100 -0.2271
 2198ntf    fn411909   5.517   3.944   4.056 -0.3484  0.4007  0.1642
 2198ntf    fn411910   5.481   3.781   3.918 -0.4803 -0.0189 -0.5678
 2199ntf    cn111911   4.225   3.128   0.211 -0.3806  0.2946 -0.0673
 2199ntf    sn211912   4.043   3.137   0.212 -0.3905  0.1042 -0.0151
 2199ntf    nn311913   4.003   2.990   0.249  0.1014  0.0440  0.2865
 2199ntf    sn211914   4.009   2.859   0.162 -0.0947  0.0533  0.2578
 2199ntf    cn111915   3.839   2.849   0.100  0.0019  0.5825 -0.1052
 2199ntf    fn411916   4.276   3.249   0.195  0.1280  0.1014  0.0712
 2199ntf    fn411917   4.280   3.077   0.320  0.2494 -0.7909 -0.8802
 2199ntf    fn411918   4.263   3.060   0.104 -0.4174  0.0202  0.0921
 2199ntf    on511919   4.017   3.243   0.306  0.5820  0.4523 -0.1241
 2199ntf    on511920   3.994   3.177   0.082  0.0267 -0.2075 -0.2731
 2199ntf    on511921   4.022   2.744   0.247  0.4165  0.0475  0.1781
 2199ntf    on511922   4.095   2.865   0.046 -0.3599  0.7649  0.0911
 2199ntf    fn411923   3.793   2.725   0.094  0.0659  0.5052  0.8640
 2199ntf    fn411924   3.763   2.911   0.189 -0.5650 -0.1680 -0.0534
 2199ntf    fn411925   3.825   2.910  -0.017 -1.1092 -0.0931 -0.3446
 2200ntf    cn111926   0.452   1.825   0.109  0.3054  0.7681 -0.3033
 2200ntf    sn211927   0.459   1.999   0.162  0.1583  0.6289  0.1845
 2200ntf    nn311928   0.344   2.008   0.268  0.2319 -0.5177  0.3768
 2200ntf    sn211929   0.234   2.116   0.296  0.3745 -0.2316 -0.1618
 2200ntf    cn111930   0.111   2.061   0.174  0.1742  0.3007 -0.2017
 2200ntf    fn411931   0.354   1.805   0.023  0.3350 -0.0074 -0.1696
 2200ntf    fn411932   0.565   1.789   0.052  0.2259  0.1283 -0.0656
 2200ntf    fn411933   0.434   1.738   0.208 -0.0378  0.5324 -0.5685
 2200ntf    on511934   0.590   2.000   0.223  0.2299  0.2752  0.0448
 2200ntf    on511935   0.444   2.049   0.028  0.4054  0.1822 -0.0131
 2200ntf    on511936   0.273   2.247   0.249 -0.2512  0.1919  0.4872
 2200ntf    on511937   0.162   2.108   0.421  0.1655 -0.1809 -0.2782
 2200ntf    fn411938   0.175   2.022   0.065  0.9449  0.2272  0.2724
 2200ntf    fn411939   0.044   1.959   0.225  0.3528  0.2865  0.0065
 2200ntf    fn411940   0.026   2.159   0.145 -0.2646  0.0594  0.2590
 2201ntf    cn111941   3.596   2.202   1.874  0.0005  0.1073  0.0934
 2201ntf    sn211942   3.510   2.134   1.729 -0.1794  0.0172  0.2410
 2201ntf    nn311943   3.410   2.039   1.804  0.0940 -0.3543  0.1414
 2201ntf    sn211944   3.334   1.914   1.746 -0.2537 -0.1161  0.0795
 2201ntf    cn111945   3.456   1.780   1.752 -0.1751 -0.0512 -0.0885
 2201ntf    fn411946   3.711   2.257   1.839 -0.1403  0.2542 -0.1421
 2201ntf    fn411947   3.528   2.297   1.938  0.3786  0.3181  0.1848
 2201ntf    fn411948   3.619   2.107   1.963 -0.0432  0.2522  0.2625
 2201ntf    on511949   3.446   2.249   1.671  0.0854 -0.3259 -0.7629
 2201ntf    on511950   3.617   2.071   1.656 -0.0320  0.5850 -0.0366
 2201ntf    on511951   3.308   1.918   1.604  0.2572 -0.2041 -0.0186
 2201ntf    on511952   3.231   1.861   1.832 -0.0121  0.1130  0.5142
 2201ntf    fn411953   3.565   1.788   1.676 -0.2224  0.0395 -0.1465
 2201ntf    fn411954   3.518   1.766   1.868  0.1344  0.0961 -0.2356
 2201ntf    fn411955   3.410   1.658   1.728 -0.0495 -0.1489  0.1693
 2202ntf    cn111956   2.052   4.007   0.821  0.1043  0.5468 -0.0553
 2202ntf    sn211957   2.214   3.962   0.891 -0.1703 -0.1704  0.1267
 2202ntf    nn311958   2.224   3.813   0.842 -0.4078  0.0004 -0.4506
 2202ntf    sn211959   2.195   3.677   0.915  0.3275  0.0090 -0.1305
 2202ntf    cn111960   2.367   3.632   0.950  0.2621 -0.0500  0.1151
 2202ntf    fn411961   2.048   3.976   0.692 -0.0642 -0.3497  0.1581
 2202ntf    fn411962   1.960   3.934   0.883  0.6780  0.0015  0.1732
 2202ntf    fn411963   2.031   4.136   0.841 -0.4354  0.3462  0.7224
 2202ntf    on511964   2.302   4.049   0.817  0.0360 -0.3320  0.1834
 2202ntf    on511965   2.191   3.986   1.031 -0.0598  0.2615  0.0716
 2202ntf    on511966   2.140   3.575   0.830  0.5607 -0.0468 -0.2152
 2202ntf    on511967   2.130   3.699   1.042 -0.2987  0.3394 -0.5033
 2202ntf    fn411968   2.412   3.706   1.051  0.0976 -0.4594  0.4918
 2202ntf    fn411969   2.378   3.507   0.993 -0.4615 -0.1582 -0.0031
 2202ntf    fn411970   2.445   3.649   0.844  0.7697 -0.0739  0.4806
 2203ntf    cn111971   3.372   2.275   2.966  0.0306  0.2487 -0.1958
 2203ntf    sn211972   3.506   2.186   3.052 -0.2728 -0.2050 -0.1876
 2203ntf    nn311973   3.433   2.050   3.080 -0.1630 -0.1581  0.3306
 2203ntf    sn211974   3.424   1.920   2.992  0.2093 -0.0303  0.1002
 2203ntf    cn111975   3.572   1.830   3.047  0.0720 -0.2379  0.1303
 2203ntf    fn411976   3.312   2.358   3.050  0.3449 -0.0813  0.3646
 2203ntf    fn411977   3.404   2.360   2.871 -0.0249  0.3381 -0.1346
 2203ntf    fn411978   3.284   2.190   2.915  0.2404  0.0873 -0.2908
 2203ntf    on511979   3.601   2.174   2.944  0.1084 -0.1988  0.1484
 2203ntf    on511980   3.528   2.273   3.165 -0.1062 -0.2714 -0.1693
 2203ntf    on511981   3.438   1.928   2.849  0.0657 -0.6692  0.0441
 2203ntf    on511982   3.313   1.839   3.039  0.2036 -0.3719 -0.4991
 2203ntf    fn411983   3.659   1.810   2.949 -0.1826 -0.2767 -0.0912
 2203ntf    fn411984   3.644   1.895   3.137  0.5525 -0.2838 -0.2153
 2203ntf    fn411985   3.538   1.715   3.103  0.2624 -0.3086  0.1011
 2204ntf    cn111986   1.696   0.128   4.963  0.2557 -0.0075  0.3561
 2204ntf    sn211987   1.657   0.199   4.800  0.3758 -0.2001  0.2423
 2204ntf    nn311988   1.751   0.107   4.715  0.0194  0.0501 -0.4294
 2204ntf    sn211989   1.860   0.157   4.614  0.1851  0.1061 -0.2234
 2204ntf    cn111990   1.916  -0.009   4.567  0.3756  0.1508 -0.1548
 2204ntf    fn411991   1.651   0.202   5.064  0.0580 -0.0219  0.2786
 2204ntf    fn411992   1.640   0.009   4.979 -1.1458  0.5734 -0.0501
 2204ntf    fn411993   1.826   0.111   4.979  0.3360 -0.2953 -0.5623
 2204ntf    on511994   1.515   0.177   4.786  0.3059  0.6152 -0.3672
 2204ntf    on511995   1.705   0.331   4.832  0.0089  0.1450 -0.6185
 2204ntf    on511996   1.977   0.217   4.673  0.4772 -0.1528 -0.5433
 2204ntf    on511997   1.806   0.217   4.495  0.7973  0.2848 -0.4147
 2204ntf    fn411998   1.817  -0.097   4.567 -0.1291  0.7096 -0.5481
 2204ntf    fn411999   1.979  -0.015   4.451  0.9497 -0.3504  0.1796
 2204ntf    fn412000   2.007  -0.063   4.647  0.4086  0.1705 -0.1796
 2205ntf    cn112001   1.374   4.498   5.721 -0.0799 -0.1194 -0.0710
 2205ntf    sn212002   1.501   4.486   5.592  0.0398  0.3277  0.0039
 2205ntf    nn312003   1.632   4.473   5.678 -0.2602 -0.1678  0.3839
 2205ntf    sn212004   1.712   4.581   5.760  0.0325 -0.1112  0.0243
 2205ntf    cn112005   1.869   4.523   5.690  0.0971 -0.1741  0.2226
 2205ntf    fn412006   1.378   4.402   5.812 -0.3711 -0.2991 -0.2460
 2205ntf    fn412007   1.399   4.605   5.795  0.6237 -0.4177  0.1274
 2205ntf    fn412008   1.250   4.516   5.679  0.1989  0.2878 -0.7454
 2205ntf    on512009   1.477   4.359   5.530  0.2273  0.1366  0.3201
 2205ntf    on512010   1.482   4.604   5.511 -0.6859 -0.0991 -0.4602
 2205ntf    on512011   1.718   4.550   5.900 -0.2874  0.8244  0.2536
 2205ntf    on512012   1.706   4.718   5.716 -0.5390 -0.1173  0.0686
 2205ntf    fn412013   1.898   4.568   5.569  0.4491  0.4304  0.5253
 2205ntf    fn412014   1.966   4.564   5.771 -0.1251  0.1294  0.3357
 2205ntf    fn412015   1.871   4.391   5.692  0.4903 -0.1696  0.2958
 2206ntf    cn112016   5.107   4.825   3.740  0.1062 -0.1415 -0.1023
 2206ntf    sn212017   4.976   4.914   3.829  0.1882 -0.0577 -0.0655
 2206ntf    nn312018   4.869   4.808   3.873  0.5393 -0.2249  0.3915
 2206ntf    sn212019   4.844   4.747   4.016  0.0244  0.2382  0.5055
 2206ntf    cn112020   4.664   4.767   4.022 -0.0536 -0.1830 -0.2679
 2206ntf    fn412021   5.075   4.767   3.625 -0.5095  0.0228 -0.0179
 2206ntf    fn412022   5.203   4.897   3.686  0.6204 -0.7082  0.0523
 2206ntf    fn412023   5.164   4.727   3.807  0.3248 -0.1150 -0.2485
 2206ntf    on512024   5.047   4.982   3.934  0.3337  0.4232 -0.4657
 2206ntf    on512025   4.913   4.991   3.724  0.6382  0.0574 -0.2527
 2206ntf    on512026   4.897   4.822   4.127 -0.6629  0.3603  0.7548
 2206ntf    on512027   4.861   4.604   4.010  0.1522  0.2748 -0.0535
 2206ntf    fn412028   4.634   4.766   4.151 -0.3656 -0.1258 -0.3377
 2206ntf    fn412029   4.625   4.885   3.977  0.4231  0.1742  0.2409
 2206ntf    fn412030   4.601   4.671   3.956 -0.4055  0.1559 -0.4322
 2207ntf    cn112031   5.924   1.543   3.162  0.0599  0.6174  0.3549
 2207ntf    sn212032   5.790   1.552   3.039  0.2102  0.1638  0.1567
 2207ntf    nn312033   5.691   1.439   3.087  0.1259 -0.0539 -0.5178
 2207ntf    sn212034   5.690   1.288   3.046 -0.1193 -0.1444 -0.1851
 2207ntf    cn112035   5.535   1.282   2.952 -0.0424 -0.2585 -0.3057
 2207ntf    fn412036   6.038   1.597   3.120  0.5251 -0.4785  0.1775
 2207ntf    fn412037   5.888   1.592   3.279 -0.1933  0.2312  0.4398
 2207ntf    fn412038   5.957   1.416   3.180  0.5160  0.6364 -0.3218
 2207ntf    on512039   5.735   1.684   3.051  0.0273  0.1648 -0.6398
 2207ntf    on512040   5.853   1.525   2.912 -0.0331 -0.5577  0.1849
 2207ntf    on512041   5.665   1.201   3.158 -0.1656  0.4662  0.2792
 2207ntf    on512042   5.784   1.242   2.946  0.4230 -0.2946  0.3876
 2207ntf    fn412043   5.430   1.308   3.029  0.2428  0.5229 -0.1747
 2207ntf    fn412044   5.536   1.369   2.853  0.7872  0.7464  0.5610
 2207ntf    fn412045   5.514   1.162   2.900  0.4777 -0.3961 -0.1998
 2208ntf    cn112046   5.920   4.877   0.210 -0.2508 -0.0027  0.4419
 2208ntf    sn212047   5.770   4.885   0.107 -0.0336 -0.3005  0.0995
 2208ntf    nn312048   5.788   5.009   0.012  0.5360  0.0311  0.6329
 2208ntf    sn212049   5.908   5.058  -0.076 -0.0819  0.0549 -0.2112
 2208ntf    cn112050   5.820   5.124  -0.220  0.1680 -0.0839 -0.4293
 2208ntf    fn412051   5.937   4.764   0.278  0.1628  0.0250  0.3855
 2208ntf    fn412052   6.030   4.895   0.140 -0.5223  0.0023  0.0133
 2208ntf    fn412053   5.927   4.971   0.303  0.1586  0.4011  0.0058
 2208ntf    on512054   5.764   4.765   0.028  0.2843 -0.2556  0.0064
 2208ntf    on512055   5.671   4.922   0.205 -0.1561  0.3807 -0.2777
 2208ntf    on512056   5.989   4.952  -0.132  0.7883  0.3955  0.3655
 2208ntf    on512057   5.981   5.175  -0.033 -0.3212  0.0014  0.3552
 2208ntf    fn412058   5.759   5.236  -0.184  0.0835 -0.3367  0.2216
 2208ntf    fn412059   5.902   5.154  -0.320  0.1025  0.0868 -0.4338
 2208ntf    fn412060   5.734   5.039  -0.273 -0.3130 -0.1586  0.4537
 2209ntf    cn112061   2.743   3.596   3.526  0.2912  0.0797  0.1766
 2209ntf    sn212062   2.898   3.678   3.481  0.2789  0.0702  0.1170
 2209ntf    nn312063   3.008   3.567   3.497 -0.0020 -0.2439 -0.1119
 2209ntf    sn212064   3.096   3.532   3.623 -0.0867 -0.4027 -0.0966
 2209ntf    cn112065   3.122   3.356   3.585  0.0597 -0.3586 -0.1992
 2209ntf    fn412066   2.721   3.581   3.656 -0.1288 -0.0151  0.0978
 2209ntf    fn412067   2.638   3.661   3.477 -0.0747 -0.7812 -0.2196
 2209ntf    fn412068   2.722   3.475   3.475 -0.3422  0.1739  0.1987
 2209ntf    on512069   2.868   3.700   3.342 -0.4033  0.0386  0.2553
 2209ntf    on512070   2.889   3.796   3.564 -0.3306  0.0325  0.1104
 2209ntf    on512071   3.027   3.534   3.750  0.5273  0.2101  0.2347
 2209ntf    on512072   3.231   3.582   3.614 -0.0548 -0.3964  0.3724
 2209ntf    fn412073   3.020   3.303   3.519 -0.3092  0.2929 -0.1654
 2209ntf    fn412074   3.230   3.335   3.512 -0.2107  0.0348 -0.7231
 2209ntf    fn412075   3.148   3.282   3.691 -0.2930 -0.3026 -0.0744
 2210ntf    cn112076   4.757   1.727   0.691  0.4338 -0.5589  0.1525
 2210ntf    sn212077   4.699   1.563   0.640  0.1679 -0.4967  0.2555
 2210ntf    nn312078   4.548   1.563   0.683 -0.0060 -0.6528 -0.3498
 2210ntf    sn212079   4.421   1.581   0.591 -0.3164 -0.3380  0.1362
 2210ntf    cn112080   4.299   1.648   0.708 -0.1018  0.0770  0.1261
 2210ntf    fn412081   4.760   1.738   0.823  0.4363  0.3178  0.0895
 2210ntf    fn412082   4.879   1.763   0.655  0.1995  0.3258  0.2044
 2210ntf    fn412083   4.683   1.825   0.642  0.0526 -0.4742  0.8790
 2210ntf    on512084   4.722   1.572   0.498  0.3399  0.2103  0.3231
 2210ntf    on512085   4.777   1.468   0.716  0.2132 -0.4648  0.2489
 2210ntf    on512086   4.358   1.464   0.537 -0.1085 -0.1647 -0.4877
 2210ntf    on512087   4.427   1.694   0.502 -0.1919  0.0523  0.6311
 2210ntf    fn412088   4.327   1.771   0.747 -0.3424  0.0969  0.2388
 2210ntf    fn412089   4.176   1.653   0.658 -0.0767  0.2507  0.0818
 2210ntf    fn412090   4.297   1.573   0.816 -0.2004  0.2874  0.2718
 2211ntf    cn112091   1.257   2.887   1.464 -0.0463  0.3542 -0.1435
 2211ntf    sn212092   1.171   2.889   1.304  0.0796  0.1017 -0.2161
 2211ntf    nn312093   1.142   3.042   1.280  0.5961  0.1782 -0.3546
 2211ntf    sn212094   1.020   3.125   1.332  0.4045 -0.1642 -0.2546
 2211ntf    cn112095   1.085   3.294   1.317  0.3914 -0.1720 -0.3974
 2211ntf    fn412096   1.293   2.763   1.493 -0.2431  0.3245 -0.0239
 2211ntf    fn412097   1.374   2.949   1.458  0.0834  0.0944 -0.3115
 2211ntf    fn412098   1.181   2.938   1.559 -0.1118  0.0120 -0.0114
 2211ntf    on512099   1.267   2.827   1.217  0.4377 -0.2120  0.4014
 2211ntf    on512100   1.051   2.813   1.328 -0.0577  0.2623 -0.3824
 2211ntf    on512101   0.992   3.116   1.474 -0.2780 -0.3429 -0.3945
 2211ntf    on512102   0.912   3.122   1.237  0.3337  0.7931 -0.2117
 2211ntf    fn412103   1.011   3.388   1.373  0.0518 -0.4807 -0.3279
 2211ntf    fn412104   1.203   3.308   1.376  0.1776  0.5928 -0.1470
 2211ntf    fn412105   1.104   3.333   1.192  0.2982  0.6169 -0.1692
 2212ntf    cn112106   0.425   5.402   5.370  0.1272 -0.0423  0.0957
 2212ntf    sn212107   0.298   5.402   5.239  0.0253  0.2065  0.1944
 2212ntf    nn312108   0.379   5.452   5.115  0.6094 -0.0877  0.4536
 2212ntf    sn212109   0.386   5.589   5.039 -0.0998 -0.1781  0.2186
 2212ntf    cn112110   0.514   5.542   4.919 -0.3035 -0.2031  0.0106
 2212ntf    fn412111   0.370   5.389   5.489 -0.1543  0.1987 -0.0059
 2212ntf    fn412112   0.513   5.304   5.365  0.4339  0.1774  1.0219
 2212ntf    fn412113   0.492   5.516   5.368  0.0725 -0.0045  0.4834
 2212ntf    on512114   0.261   5.262   5.231 -0.2152  0.2769  0.0495
 2212ntf    on512115   0.194   5.486   5.293 -0.6380 -0.3916 -0.1314
 2212ntf    on512116   0.448   5.693   5.118 -0.5113  0.5223 -0.3754
 2212ntf    on512117   0.273   5.622   4.956  0.1717 -0.5662 -0.3098
 2212ntf    fn412118   0.480   5.461   4.820  0.2066  0.0013 -0.3327
 2212ntf    fn412119   0.557   5.651   4.859 -0.1002 -0.3154 -0.0478
 2212ntf    fn412120   0.620   5.490   4.980 -0.3078 -0.2874 -0.0543
 2213ntf    cn112121   5.438   5.650   5.002 -0.4463  0.0301 -0.1443
 2213ntf    sn212122   5.515   5.669   5.166  0.0577 -0.3624 -0.3340
 2213ntf    nn312123   5.654   5.599   5.142  0.1099 -0.2860 -0.2522
 2213ntf    sn212124   5.776   5.585   5.240 -0.1823 -0.0862  0.1459
 2213ntf    cn112125   5.824   5.412   5.212  0.2031  0.0326  0.0647
 2213ntf    fn412126   5.498   5.714   4.903 -0.2199  0.6146  0.3630
 2213ntf    fn412127   5.443   5.525   4.958  0.3008  0.1773 -0.4809
 2213ntf    fn412128   5.309   5.682   4.999 -0.3331  0.5225  0.1830
 2213ntf    on512129   5.533   5.811   5.187  0.2325 -0.6104  1.2977
 2213ntf    on512130   5.426   5.595   5.251  0.0832 -0.1364 -0.1088
 2213ntf    on512131   5.743   5.596   5.380 -0.4871 -0.2034  0.0849
 2213ntf    on512132   5.893   5.656   5.194 -0.2221  0.1162  0.3552
 2213ntf    fn412133   5.717   5.335   5.212 -0.2417  0.6362  0.0060
 2213ntf    fn412134   5.877   5.408   5.091  0.0600  0.1517 -0.0026
 2213ntf    fn412135   5.913   5.375   5.302  0.3461 -0.0648 -0.1157
 2214ntf    cn112136   1.438   3.282   4.915  0.3860 -0.0911 -0.5191
 2214ntf    sn212137   1.607   3.216   4.929  0.3485 -0.1057 -0.1299
 2214ntf    nn312138   1.581   3.079   4.856  0.0208 -0.2236  0.2011
 2214ntf    sn212139   1.574   2.933   4.913 -0.0116 -0.2373  0.1619
 2214ntf    cn112140   1.750   2.887   4.921  0.1684  0.3788 -0.1803
 2214ntf    fn412141   1.349   3.192   4.956 -0.3095  0.5298 -0.6439
 2214ntf    fn412142   1.423   3.397   4.978  0.0580 -0.3324 -0.1504
 2214ntf    fn412143   1.394   3.309   4.793 -0.0919  0.0241 -0.3234
 2214ntf    on512144   1.684   3.311   4.853 -0.0176 -0.1237 -0.5264
 2214ntf    on512145   1.633   3.212   5.071  1.0517 -0.4330 -0.2628
 2214ntf    on512146   1.525   2.840   4.815  0.2075  0.2345 -0.4053
 2214ntf    on512147   1.517   2.924   5.045 -0.0569 -0.8000  0.1036
 2214ntf    fn412148   1.812   2.948   4.821 -0.0728  0.3867 -0.3270
 2214ntf    fn412149   1.806   2.921   5.036  0.3126 -0.1291 -0.0959
 2214ntf    fn412150   1.773   2.757   4.908 -0.0818  0.2305  0.7712
 2215ntf    cn112151   6.875   1.072   5.530  0.1295  0.0455 -0.2096
 2215ntf    sn212152   6.723   0.984   5.483  0.2180 -0.0583 -0.3043
 2215ntf    nn312153   6.785   0.920   5.354  0.4307 -0.1085 -0.1775
 2215ntf    sn212154   6.771   0.968   5.205  0.2801  0.1225 -0.0898
 2215ntf    cn112155   6.933   0.926   5.134  0.2473  0.0450 -0.1181
 2215ntf    fn412156   6.895   1.068   5.661 -0.2407  0.8758 -0.1189
 2215ntf    fn412157   6.986   1.018   5.481  0.1161  0.4867 -0.7426
 2215ntf    fn412158   6.877   1.201   5.500 -0.6487  0.1694  0.2565
 2215ntf    on512159   6.706   0.898   5.597  0.2050 -0.4575 -0.6073
 2215ntf    on512160   6.637   1.100   5.479  0.4296  0.1063 -0.1183
 2215ntf    on512161   6.766   1.110   5.179 -0.1462  0.2664  0.7392
 2215ntf    on512162   6.675   0.890   5.132  0.2470  0.0421  0.0405
 2215ntf    fn412163   6.932   0.798   5.099 -0.2961  0.0243 -0.0347
 2215ntf    fn412164   6.961   0.998   5.027 -0.1105 -0.2424 -0.4077
 2215ntf    fn412165   7.031   0.949   5.221  0.5258 -0.3319 -0.3282
 2216ntf    cn112166   6.383   2.388   1.271  0.2404  0.1966 -0.3672
 2216ntf    sn212167   6.342   2.221   1.212  0.0695  0.1151 -0.0216
 2216ntf    nn312168   6.425   2.217   1.079  0.1464  0.3300  0.0190
 2216ntf    sn212169   6.395   2.158   0.937 -0.3739  0.1855  0.1880
 2216ntf    cn112170   6.562   2.102   0.895 -0.5620 -0.0708 -0.2288
 2216ntf    fn412171   6.508   2.390   1.314  0.1000 -0.0837  0.0607
 2216ntf    fn412172   6.361   2.476   1.174 -0.5407  0.2665 -0.1362
 2216ntf    fn412173   6.299   2.431   1.364  0.2599 -0.2790 -0.1278
 2216ntf    on512174   6.386   2.134   1.319 -0.0107  0.4315  0.2732
 2216ntf    on512175   6.201   2.240   1.189  0.0224 -0.3625 -0.1307
 2216ntf    on512176   6.372   2.261   0.838 -0.8645  0.1108  0.2191
 2216ntf    on512177   6.312   2.041   0.930 -0.6564  0.3873  0.1151
 2216ntf    fn412178   6.578   2.075   0.767  0.2801 -0.5610 -0.0322
 2216ntf    fn412179   6.661   2.183   0.929 -0.3608 -0.1722 -0.5650
 2216ntf    fn412180   6.596   1.989   0.956  0.2479 -0.0555 -0.6348
 2217ntf    cn112181   0.672   4.684   0.493 -0.4125  0.1130  0.4783
 2217ntf    sn212182   0.589   4.845   0.512 -0.3061  0.2289 -0.0266
 2217ntf    nn312183   0.714   4.939   0.499 -0.2170  0.0981 -0.1301
 2217ntf    sn212184   0.782   4.992   0.368  0.2160 -0.1183  0.0048
 2217ntf    cn112185   0.888   5.131   0.421  0.0847 -0.0049 -0.0313
 2217ntf    fn412186   0.581   4.588   0.499 -0.3190 -0.0395 -0.3609
 2217ntf    fn412187   0.736   4.671   0.378  0.0483  0.0114  0.7442
 2217ntf    fn412188   0.767   4.665   0.583  0.0897 -0.4688 -0.1583
 2217ntf    on512189   0.496   4.850   0.402 -0.0585  0.9280 -0.2072
 2217ntf    on512190   0.526   4.838   0.641 -0.3067  0.7379 -0.0005
 2217ntf    on512191   0.685   5.052   0.281  0.2890 -0.3831 -0.2610
 2217ntf    on512192   0.879   4.900   0.315  0.3356 -0.0071  0.0284
 2217ntf    fn412193   0.944   5.200   0.323  0.3285  0.0859  0.1709
 2217ntf    fn412194   0.833   5.220   0.502  0.5858 -0.0292  0.3426
 2217ntf    fn412195   0.989   5.088   0.493 -0.0919 -0.1388  0.1379
 2218ntf    cn112196   6.773   1.438   0.017 -0.2082 -0.2510  0.0817
 2218ntf    sn212197   6.768   1.534  -0.138 -0.1372  0.0330  0.2544
 2218ntf    nn312198   6.687   1.660  -0.092 -0.1725  0.1977 -0.2609
 2218ntf    sn212199   6.538   1.706  -0.114 -0.1771  0.2808 -0.0521
 2218ntf    cn112200   6.547   1.835  -0.241  0.1686 -0.0165 -0.3357
 2218ntf    fn412201   6.857   1.336   0.014 -0.6361 -0.5980 -0.2716
 2218ntf    fn412202   6.799   1.510   0.125 -0.4587 -0.0836  0.0304
 2218ntf    fn412203   6.655   1.388   0.048 -0.2800  0.1298  0.4188
 2218ntf    on512204   6.908   1.552  -0.169 -0.0301  0.0108  0.7178
 2218ntf    on512205   6.696   1.445  -0.225  0.1600  0.2220 -0.1879
 2218ntf    on512206   6.488   1.773   0.003  0.1062  0.4065 -0.0035
 2218ntf    on512207   6.455   1.600  -0.165  0.5652 -0.5034  0.3300
 2218ntf    fn412208   6.613   1.943  -0.203  0.2389 -0.2526  0.2197
 2218ntf    fn412209   6.606   1.784  -0.347  0.2342 -0.7366  0.0463
 2218ntf    fn412210   6.427   1.883  -0.270  0.3030  0.4450 -0.1429
 2219ntf    cn112211   1.146   5.595   1.619  0.8672 -0.2732  0.5333
 2219ntf    sn212212   1.016   5.505   1.710  0.1616  0.0271 -0.1726
 2219ntf    nn312213   1.068   5.534   1.855  0.0603 -0.1467 -0.1013
 2219ntf    sn212214   1.156   5.459   1.961 -0.0059  0.0356  0.0844
 2219ntf    cn112215   1.041   5.390   2.083  0.1985  0.1924  0.3667
 2219ntf    fn412216   1.142   5.723   1.653  0.1852 -0.2979  0.5648
 2219ntf    fn412217   1.265   5.552   1.657  0.7669 -0.8596  0.1877
 2219ntf    fn412218   1.150   5.585   1.488  0.3965  0.1779  0.4800
 2219ntf    on512219   0.894   5.577   1.678 -0.0699 -0.1216  0.3724
 2219ntf    on512220   1.015   5.370   1.661 -0.0698 -0.2236  0.5234
 2219ntf    on512221   1.238   5.547   2.040  0.2655 -0.2588  0.1324
 2219ntf    on512222   1.213   5.337   1.909  0.4489  0.0979  0.4305
 2219ntf    fn412223   0.943   5.322   2.025  0.0157  0.5963  0.1950
 2219ntf    fn412224   1.099   5.304   2.165 -0.8201 -0.9877 -0.1087
 2219ntf    fn412225   0.976   5.486   2.147  0.1855  0.1168  0.4688
 2220ntf    cn112226   2.930   5.746   4.954 -0.2031 -0.1984 -0.2686
 2220ntf    sn212227   3.024   5.600   5.009 -0.1463 -0.0340  0.0703
 2220ntf    nn312228   3.023   5.635   5.162  0.0734  0.3501 -0.0135
 2220ntf    sn212229   3.142   5.689   5.248  0.1829  0.0710  0.0102
 2220ntf    cn112230   3.218   5.540   5.320  0.0343  0.0736  0.1717
 2220ntf    fn412231   2.982   5.858   5.001  0.0044 -0.1447 -0.6229
 2220ntf    fn412232   2.921   5.757   4.822 -0.7083  0.7011 -0.1650
 2220ntf    fn412233   2.809   5.746   5.008 -0.3217  0.6756 -0.5140
 2220ntf    on512234   2.942   5.487   4.975  0.0079 -0.0092 -0.3966
 2220ntf    on512235   3.149   5.613   4.940 -0.3337 -0.1032 -0.2855
 2220ntf    on512236   3.093   5.773   5.354 -0.3649  0.1709 -0.3219
 2220ntf    on512237   3.253   5.745   5.174  0.2592 -0.2601 -0.1285
 2220ntf    fn412238   3.306   5.574   5.412  0.1070 -0.2394  0.2199
 2220ntf    fn412239   3.135   5.455   5.379 -0.7475  0.6188 -0.1279
 2220ntf    fn412240   3.296   5.477   5.234 -0.5643 -0.0672 -0.2793
 2221ntf    cn112241   5.934   4.095   4.223 -0.0851  0.0789 -0.5595
 2221ntf    sn212242   6.063   4.221   4.246 -0.2511  0.2352 -0.4818
 2221ntf    nn312243   6.079   4.298   4.110 -0.2003 -0.0256 -0.6251
 2221ntf    sn212244   6.205   4.379   4.064 -0.0570  0.0821 -0.0480
 2221ntf    cn112245   6.142   4.547   4.039 -0.4868 -0.1468 -0.5107
 2221ntf    fn412246   5.903   4.043   4.341 -0.4015  0.2640 -0.5617
 2221ntf    fn412247   5.817   4.135   4.175 -0.6320 -0.4691  0.2890
 2221ntf    fn412248   5.972   3.986   4.158 -0.2886 -0.5426  0.3538
 2221ntf    on512249   6.003   4.310   4.343  0.9032  0.6692 -0.1506
 2221ntf    on512250   6.180   4.146   4.284 -0.9512 -0.4868  0.2845
 2221ntf    on512251   6.263   4.334   3.940  0.4839 -0.7875  0.5073
 2221ntf    on512252   6.307   4.410   4.162  0.1784  0.4880 -0.4201
 2221ntf    fn412253   6.066   4.564   3.932 -0.6061 -0.3531 -0.4574
 2221ntf    fn412254   6.077   4.590   4.146  0.0337 -0.0646 -0.2245
 2221ntf    fn412255   6.242   4.633   4.026  0.0631 -0.7094 -0.0408
 2222ntf    cn112256   5.796   4.217   6.136  0.0718  0.2249 -0.7027
 2222ntf    sn212257   5.683   4.340   6.064 -0.0641  0.4512 -0.1101
 2222ntf    nn312258   5.618   4.399   6.195  0.2425  0.7258 -0.0806
 2222ntf    sn212259   5.635   4.544   6.252 -0.2721  0.7060  0.1264
 2222ntf    cn112260   5.806   4.543   6.314 -0.3224 -0.1367  0.2639
 2222ntf    fn412261   5.859   4.153   6.039  0.5578 -0.1380 -0.1573
 2222ntf    fn412262   5.882   4.276   6.218 -0.0620 -0.0841 -0.3368
 2222ntf    fn412263   5.728   4.132   6.211  0.1947  0.6370 -0.1180
 2222ntf    on512264   5.768   4.427   5.986  0.1028  0.7985  0.4554
 2222ntf    on512265   5.585   4.263   5.992 -0.3999  0.7968 -0.0265
 2222ntf    on512266   5.563   4.554   6.377 -0.0547 -0.1962  0.3366
 2222ntf    on512267   5.625   4.646   6.151 -0.6735  0.4634 -0.0795
 2222ntf    fn412268   5.834   4.447   6.400 -0.3102 -0.8195 -0.4912
 2222ntf    fn412269   5.898   4.539   6.219 -0.0400 -0.2697  0.5397
 2222ntf    fn412270   5.842   4.645   6.391 -0.3622  0.1628 -0.1136
 2223ntf    cn112271   3.061   2.743   0.142 -0.1261 -0.2466  0.0306
 2223ntf    sn212272   3.087   2.788   0.316 -0.3957 -0.1593  0.0492
 2223ntf    nn312273   3.215   2.876   0.294 -0.3044 -0.2373  0.2726
 2223ntf    sn212274   3.364   2.870   0.345 -0.1021  0.2142 -0.2536
 2223ntf    cn112275   3.429   2.772   0.206 -0.3341 -0.0492 -0.1782
 2223ntf    fn412276   2.951   2.670   0.126 -0.4147  0.2124 -0.1100
 2223ntf    fn412277   3.047   2.841   0.054  0.2524  0.3865  0.6726
 2223ntf    fn412278   3.165   2.671   0.104 -0.2773 -0.2121 -0.4628
 2223ntf    on512279   2.979   2.879   0.344 -0.2729 -0.0958  0.3211
 2223ntf    on512280   3.099   2.667   0.393  0.6061  0.0422  0.2218
 2223ntf    on512281   3.393   2.796   0.465 -0.0097  0.4518 -0.1304
 2223ntf    on512282   3.415   3.003   0.329  0.0877  0.1151 -0.4715
 2223ntf    fn412283   3.561   2.764   0.199 -0.3610 -0.5614 -0.1333
 2223ntf    fn412284   3.379   2.650   0.197  0.0256 -0.2097  0.0136
 2223ntf    fn412285   3.389   2.817   0.088  0.6653 -0.1391 -0.5591
 2224ntf    cn112286   0.073   5.977   5.173  0.0604  0.2726  0.2945
 2224ntf    sn212287  -0.027   5.936   5.319  0.0442 -0.0504  0.1932
 2224ntf    nn312288  -0.169   5.990   5.281  0.0305 -0.1507  0.1011
 2224ntf    sn212289  -0.202   6.120   5.200  0.3513  0.0107  0.2281
 2224ntf    cn112290  -0.326   6.186   5.316  0.0834  0.1269 -0.1207
 2224ntf    fn412291   0.121   6.100   5.162  0.2604  0.1588 -0.1390
 2224ntf    fn412292   0.179   5.898   5.163 -0.1698  0.0201 -0.2084
 2224ntf    fn412293   0.004   5.960   5.061  0.1205 -0.2105  0.3291
 2224ntf    on512294  -0.018   5.793   5.340  0.1852  0.0044  0.5173
 2224ntf    on512295   0.027   6.018   5.424 -0.4424 -0.3894  0.7128
 2224ntf    on512296  -0.274   6.097   5.077  0.4862 -0.2125  0.1907
 2224ntf    on512297  -0.098   6.220   5.200  0.4243 -0.0611 -0.2884
 2224ntf    fn412298  -0.427   6.103   5.336  0.1207  0.0059 -0.4238
 2224ntf    fn412299  -0.272   6.223   5.431  0.4459  0.1602 -0.3001
 2224ntf    fn412300  -0.390   6.293   5.272  0.2187  0.1541 -0.2538
 2225ntf    cn112301   1.955   5.277   5.010 -0.0961  0.2979 -0.3996
 2225ntf    sn212302   2.053   5.330   4.867 -0.0678 -0.1731 -0.5554
 2225ntf    nn312303   2.105   5.473   4.906  0.0181 -0.3704  0.0643
 2225ntf    sn212304   2.249   5.512   4.954 -0.0724  0.0032  0.0346
 2225ntf    cn112305   2.330   5.548   4.796  0.0252  0.2381  0.1368
 2225ntf    fn412306   1.830   5.321   5.006 -0.1620  0.1752  0.1722
 2225ntf    fn412307   1.950   5.146   5.024  0.3607  0.3485  0.3250
 2225ntf    fn412308   2.007   5.325   5.122 -0.1046  0.0934 -0.3079
 2225ntf    on512309   2.156   5.230   4.854 -0.1739 -0.3107 -0.3385
 2225ntf    on512310   1.946   5.335   4.770 -0.1264  0.4568 -0.4652
 2225ntf    on512311   2.336   5.405   4.994 -0.1206  0.0387  0.2377
 2225ntf    on512312   2.250   5.638   5.024  0.2627 -0.0141  0.0624
 2225ntf    fn412313   2.292   5.663   4.744 -0.0186  0.2540  0.2041
 2225ntf    fn412314   2.463   5.544   4.788  0.0202 -0.3921  0.2932
 2225ntf    fn412315   2.291   5.464   4.701 -0.0641 -0.0578  0.4366
 2226ntf    cn112316   6.411   3.510   1.021 -0.0517  0.2309 -0.1019
 2226ntf    sn212317   6.479   3.649   0.925  0.5686  0.2956  0.4257
 2226ntf    nn312318   6.501   3.586   0.783 -0.1975 -0.1562  0.4996
 2226ntf    sn212319   6.618   3.503   0.720 -0.2218  0.0672  0.1584
 2226ntf    cn112320   6.711   3.633   0.634 -0.0215 -0.4572 -0.4242
 2226ntf    fn412321   6.364   3.553   1.137 -0.2818  1.0053 -0.4732
 2226ntf    fn412322   6.322   3.441   0.953  0.3735 -0.0055 -0.4249
 2226ntf    fn412323   6.507   3.422   1.042 -0.4213 -0.1588 -0.0441
 2226ntf    on512324   6.368   3.741   0.921  0.2350 -0.1170  0.2183
 2226ntf    on512325   6.600   3.695   0.989  0.5886  0.4496  0.2773
 2226ntf    on512326   6.568   3.417   0.616 -0.1647  0.7431 -0.4399
 2226ntf    on512327   6.708   3.437   0.812  0.0546 -0.0758 -0.2090
 2226ntf    fn412328   6.656   3.682   0.523 -0.2789 -0.4533 -0.2950
 2226ntf    fn412329   6.719   3.740   0.711 -0.5549 -0.5179 -0.2799
 2226ntf    fn412330   6.829   3.585   0.599 -0.0020 -0.4433 -0.3775
 2227ntf    cn112331   1.644   6.841   1.947  0.3198  0.1830  0.3266
 2227ntf    sn212332   1.645   7.016   1.898  0.0619  0.0391 -0.1934
 2227ntf    nn312333   1.717   7.010   1.758  0.3941 -0.7953  0.0106
 2227ntf    sn212334   1.868   7.041   1.730  0.1727  0.3709  0.0621
 2227ntf    cn112335   1.879   7.221   1.708  0.2679  0.3638  0.0492
 2227ntf    fn412336   1.615   6.823   2.075  0.0684  0.1523  0.2647
 2227ntf    fn412337   1.545   6.780   1.884  0.4423  0.3459 -0.0244
 2227ntf    fn412338   1.757   6.781   1.916 -0.0671 -0.1503 -0.4599
 2227ntf    on512339   1.504   7.049   1.900  0.0676  0.0276  0.3455
 2227ntf    on512340   1.711   7.080   2.009 -0.2244 -0.2615  0.1525
 2227ntf    on512341   1.908   6.985   1.603 -0.5739 -0.1744  0.0621
 2227ntf    on512342   1.958   7.019   1.841  0.4710 -0.6392 -0.3664
 2227ntf    fn412343   2.000   7.272   1.694  0.2773  0.1465 -0.6397
 2227ntf    fn412344   1.808   7.268   1.607  0.4362  0.0693 -0.2037
 2227ntf    fn412345   1.826   7.282   1.814  0.0106  0.6556 -0.2448
 2228ntf    cn112346   1.325   1.140   2.208  0.1903 -0.7288 -0.0672
 2228ntf    sn212347   1.158   1.165   2.274  0.3675 -0.0464  0.1280
 2228ntf    nn312348   1.057   1.160   2.155  0.4298  0.5050  0.0456
 2228ntf    sn212349   0.997   1.289   2.088 -0.1853  0.0239 -0.3460
 2228ntf    cn112350   0.836   1.232   2.024 -0.4465  0.4761 -0.0938
 2228ntf    fn412351   1.415   1.175   2.298 -0.2314 -0.7347  0.3552
 2228ntf    fn412352   1.347   1.013   2.179  0.2360 -0.5969 -0.6376
 2228ntf    fn412353   1.344   1.210   2.096 -0.0433  0.2684  0.5043
 2228ntf    on512354   1.134   1.055   2.364  0.2392 -0.2422 -0.1478
 2228ntf    on512355   1.167   1.291   2.346 -1.0489  0.2202 -0.1343
 2228ntf    on512356   1.076   1.324   1.972  0.2912 -0.1444 -0.0755
 2228ntf    on512357   0.953   1.392   2.179 -0.4682  0.2348 -0.7196
 2228ntf    fn412358   0.772   1.322   1.951  0.3717  0.6102 -0.6653
 2228ntf    fn412359   0.857   1.134   1.938 -0.1942  0.1111  0.3827
 2228ntf    fn412360   0.752   1.189   2.116  0.0938 -0.4416 -0.0147
 2229ntf    cn112361   2.781   3.504   2.580 -0.2397  0.1657 -0.0833
 2229ntf    sn212362   2.698   3.353   2.639 -0.0274  0.0560 -0.0637
 2229ntf    nn312363   2.831   3.274   2.666 -0.2456 -0.3669 -0.2177
 2229ntf    sn212364   2.913   3.273   2.800  0.1210 -0.0861 -0.4390
 2229ntf    cn112365   3.077   3.323   2.739  0.2714  0.0584  0.0743
 2229ntf    fn412366   2.856   3.486   2.473  0.2537  0.4064  0.2187
 2229ntf    fn412367   2.697   3.603   2.557 -0.0030  0.3389 -0.2011
 2229ntf    fn412368   2.865   3.549   2.672 -0.2681  0.2941 -0.1212
 2229ntf    on512369   2.617   3.390   2.752 -0.4331 -0.1459 -0.2844
 2229ntf    on512370   2.619   3.301   2.530  0.0321 -0.4784  0.1478
 2229ntf    on512371   2.941   3.141   2.850 -0.1170  0.0734  0.1284
 2229ntf    on512372   2.881   3.379   2.893  0.2404 -0.4600  0.0264
 2229ntf    fn412373   3.124   3.232   2.655  0.2392 -0.3778  0.5260
 2229ntf    fn412374   3.080   3.446   2.690 -0.2538 -0.0556 -0.2593
 2229ntf    fn412375   3.167   3.318   2.836  0.2876  0.2526  0.0681
 2230ntf    cn112376   2.411   1.126   1.417 -0.1134 -0.8556  0.2567
 2230ntf    sn212377   2.552   1.106   1.529  0.3378 -0.2446 -0.1969
 2230ntf    nn312378   2.583   0.952   1.513 -0.4874 -0.3821 -0.5306
 2230ntf    sn212379   2.691   0.893   1.416 -0.0478  0.0865 -0.3351
 2230ntf    cn112380   2.844   0.869   1.512 -0.3679  0.2155  0.2100
 2230ntf    fn412381   2.311   1.044   1.448 -0.7281 -0.3391 -0.3153
 2230ntf    fn412382   2.348   1.242   1.420 -0.1145 -0.8388 -0.2960
 2230ntf    fn412383   2.429   1.099   1.288  0.3866 -0.0734  0.1597
 2230ntf    on512384   2.648   1.198   1.473  0.1053 -0.0711 -0.3112
 2230ntf    on512385   2.488   1.138   1.654 -0.1058 -0.1170 -0.4559
 2230ntf    on512386   2.739   0.976   1.308  0.6715 -0.0822 -0.1541
 2230ntf    on512387   2.658   0.755   1.392 -0.6226  0.1753 -0.0662
 2230ntf    fn412388   2.953   0.871   1.438 -0.8494  0.5537 -0.5016
 2230ntf    fn412389   2.860   0.968   1.598 -1.0396  0.1609  0.4041
 2230ntf    fn412390   2.848   0.758   1.584  0.2291  0.2665  0.2561
 2231ntf    cn112391   0.988   5.444   0.857  0.0490  0.1195  0.4127
 2231ntf    sn212392   0.887   5.595   0.870 -0.2773 -0.0542 -0.0736
 2231ntf    nn312393   0.889   5.601   1.026  0.0995  0.2022 -0.0874
 2231ntf    sn212394   0.803   5.690   1.124 -0.2457 -0.1388 -0.0762
 2231ntf    cn112395   0.668   5.577   1.167 -0.3963 -0.0129 -0.2155
 2231ntf    fn412396   0.917   5.333   0.851  0.3213 -0.0526  0.3499
 2231ntf    fn412397   1.063   5.453   0.748 -0.5347  0.8385  0.0601
 2231ntf    fn412398   1.074   5.441   0.957 -0.0625 -0.6634  0.4902
 2231ntf    on512399   0.965   5.704   0.817 -1.1554  0.8021  0.3856
 2231ntf    on512400   0.765   5.564   0.799 -0.1461  0.0745 -0.3596
 2231ntf    on512401   0.735   5.798   1.056  0.1677 -0.1095 -0.4511
 2231ntf    on512402   0.869   5.712   1.251  0.1048 -0.6297 -0.1700
 2231ntf    fn412403   0.711   5.466   1.226 -0.1548 -0.2806 -0.8747
 2231ntf    fn412404   0.577   5.628   1.247  0.1949  0.3397  0.2362
 2231ntf    fn412405   0.606   5.538   1.057 -1.0532  0.1884  0.0814
 2232ntf    cn112406   1.192   4.876   5.755 -0.1506 -0.1309  0.0345
 2232ntf    sn212407   1.060   4.901   5.632  0.2032 -0.3168 -0.3860
 2232ntf    nn312408   1.003   5.040   5.676  0.4837 -0.2996 -0.0679
 2232ntf    sn212409   0.853   5.088   5.683  0.4724 -0.2924 -0.3409
 2232ntf    cn112410   0.856   5.197   5.537  0.0744 -0.0932 -0.2012
 2232ntf    fn412411   1.297   4.949   5.721 -0.2018 -0.4990 -0.9472
 2232ntf    fn412412   1.163   4.899   5.882 -0.5585  0.3424 -0.1413
 2232ntf    fn412413   1.228   4.749   5.756 -0.1451 -0.1355 -0.5425
 2232ntf    on512414   1.128   4.916   5.506  0.5482  0.1164 -0.1483
 2232ntf    on512415   0.977   4.786   5.659  0.3936 -0.3612  0.0185
 2232ntf    on512416   0.833   5.183   5.789  0.3197 -0.0962 -0.5465
 2232ntf    on512417   0.751   4.992   5.649  0.2202 -0.3323  0.5182
 2232ntf    fn412418   0.731   5.220   5.500  0.0666 -0.1299 -0.1976
 2232ntf    fn412419   0.909   5.314   5.565  0.0236 -0.0752 -0.1795
 2232ntf    fn412420   0.911   5.153   5.425 -0.2025 -0.3988 -0.2212
 2233ntf    cn112421   0.934   6.804   5.023  0.1929 -0.0205 -0.1848
 2233ntf    sn212422   1.017   6.887   5.162  0.0583 -0.2839  0.0552
 2233ntf    nn312423   1.167   6.875   5.116  0.2968  0.0524  0.7332
 2233ntf    sn212424   1.238   6.975   5.018 -0.6386 -0.1913 -0.2123
 2233ntf    cn112425   1.308   7.089   5.141 -0.4123 -0.1458 -0.3811
 2233ntf    fn412426   0.907   6.878   4.916  0.8912  0.3807 -0.0871
 2233ntf    fn412427   0.997   6.696   4.982 -0.1359 -0.3467  0.1618
 2233ntf    fn412428   0.822   6.757   5.075  0.0120  0.2533 -0.3218
 2233ntf    on512429   0.954   7.017   5.167 -0.3264 -0.4852  0.4001
 2233ntf    on512430   0.990   6.796   5.270  0.1096 -0.5766 -0.1773
 2233ntf    on512431   1.156   7.056   4.932 -0.3253  0.8642  0.4697
 2233ntf    on512432   1.354   6.928   4.946 -0.2581 -0.2910  0.4597
 2233ntf    fn412433   1.212   7.120   5.227 -0.0413 -0.2218  0.0589
 2233ntf    fn412434   1.413   7.044   5.207 -0.1991  0.6816 -0.1386
 2233ntf    fn412435   1.335   7.206   5.085 -0.7562  0.0651 -0.1117
 2234ntf    cn112436   5.943   1.478   5.506 -0.1060  0.1427  0.2627
 2234ntf    sn212437   5.885   1.483   5.334  0.0308  0.0185  0.2139
 2234ntf    nn312438   5.788   1.607   5.336 -0.3064 -0.2447  0.2632
 2234ntf    sn212439   5.787   1.736   5.247 -0.0944 -0.1985  0.3275
 2234ntf    cn112440   5.804   1.677   5.076  0.1334  0.0482  0.2640
 2234ntf    fn412441   6.030   1.380   5.522 -0.5715 -0.3017  0.0587
 2234ntf    fn412442   5.996   1.589   5.556 -0.2310 -0.1805  1.1406
 2234ntf    fn412443   5.849   1.440   5.591  0.0934 -0.0373  0.4029
 2234ntf    on512444   6.000   1.485   5.248  0.0638  0.4119  0.2630
 2234ntf    on512445   5.807   1.362   5.322  0.1334 -0.0207 -0.0643
 2234ntf    on512446   5.909   1.812   5.263 -0.3990  0.3009  0.2845
 2234ntf    on512447   5.664   1.810   5.242  0.2177  0.2733 -0.5684
 2234ntf    fn412448   5.705   1.600   5.034 -0.4194  0.8104  0.1409
 2234ntf    fn412449   5.809   1.780   4.993 -0.3871  0.0872  0.2736
 2234ntf    fn412450   5.918   1.614   5.055 -0.1524 -0.4225  0.1027
 2235ntf    cn112451   3.249   5.965   1.103 -0.0127 -0.1242  0.0226
 2235ntf    sn212452   3.119   5.922   1.222 -0.0296 -0.1969 -0.0217
 2235ntf    nn312453   3.155   6.018   1.340 -0.5171 -0.1330  0.0803
 2235ntf    sn212454   3.072   6.091   1.452 -0.4032  0.0597  0.0413
 2235ntf    cn112455   3.005   6.243   1.380 -0.1605  0.1384 -0.0178
 2235ntf    fn412456   3.361   5.912   1.149 -0.2477 -0.1203  0.6025
 2235ntf    fn412457   3.223   5.922   0.980  0.0892 -0.4254  0.1060
 2235ntf    fn412458   3.279   6.094   1.092  0.1395 -0.2694 -1.5419
 2235ntf    on512459   2.998   5.964   1.155 -0.0856 -0.4669 -0.0923
 2235ntf    on512460   3.140   5.783   1.250 -0.2745 -0.3057 -0.3634
 2235ntf    on512461   3.156   6.131   1.563 -0.0729 -0.4558 -0.0132
 2235ntf    on512462   2.956   6.014   1.488 -0.4611 -0.1304 -0.5390
 2235ntf    fn412463   2.944   6.322   1.468 -0.0345  0.1277  0.0805
 2235ntf    fn412464   3.108   6.309   1.329  0.6540 -0.9573  0.1646
 2235ntf    fn412465   2.919   6.222   1.282  0.2661  0.1249 -0.3883
 2236ntf    cn112466   4.250   0.284   1.212  0.2232  0.0495 -0.4610
 2236ntf    sn212467   4.370   0.421   1.216  0.4425 -0.1603  0.2925
 2236ntf    nn312468   4.276   0.542   1.186 -0.0405 -0.6156 -0.0551
 2236ntf    sn212469   4.318   0.688   1.146 -0.2367 -0.4741  0.2495
 2236ntf    cn112470   4.330   0.750   1.317  0.1420  0.1023  0.0157
 2236ntf    fn412471   4.149   0.305   1.295  0.1174  0.1025 -0.6032
 2236ntf    fn412472   4.197   0.265   1.093  0.2033  0.1210 -0.4636
 2236ntf    fn412473   4.306   0.169   1.246  0.0701  0.1806  0.2661
 2236ntf    on512474   4.422   0.413   1.351  0.2341  0.2680  0.3991
 2236ntf    on512475   4.457   0.385   1.107  0.0295 -0.0833 -0.0618
 2236ntf    on512476   4.216   0.775   1.093 -0.2878 -0.5531  0.2170
 2236ntf    on512477   4.448   0.697   1.085 -0.3272  0.0692  0.1277
 2236ntf    fn412478   4.408   0.683   1.399 -0.3457 -0.2552  0.1896
 2236ntf    fn412479   4.374   0.875   1.323 -0.1022  0.1736  0.3407
 2236ntf    fn412480   4.212   0.764   1.376 -0.0084 -0.4893 -0.1418
 2237ntf    cn112481   1.994   6.371   5.685 -0.7403  0.2261  0.4349
 2237ntf    sn212482   1.894   6.446   5.553  0.1734  0.2100 -0.2731
 2237ntf    nn312483   1.799   6.323   5.531 -0.0781  0.2629  0.4948
 2237ntf    sn212484   1.689   6.307   5.421  0.3715 -0.0377  0.0840
 2237ntf    cn112485   1.541   6.283   5.523  0.1117  0.1847 -0.2375
 2237ntf    fn412486   2.030   6.245   5.666 -0.2246  0.3683  0.4630
 2237ntf    fn412487   2.094   6.449   5.722 -0.3045 -0.2700  0.3258
 2237ntf    fn412488   1.916   6.363   5.791 -0.9385 -0.2028  0.2618
 2237ntf    on512489   1.828   6.562   5.606  0.1176 -0.0400  0.2080
 2237ntf    on512490   1.996   6.462   5.452  0.2179  0.1904 -0.2318
 2237ntf    on512491   1.701   6.176   5.361 -0.3479 -0.1514  0.1832
 2237ntf    on512492   1.663   6.427   5.345 -0.2014 -0.3667 -0.2487
 2237ntf    fn412493   1.431   6.267   5.450  0.5450 -0.0637 -0.8408
 2237ntf    fn412494   1.546   6.172   5.596 -0.7096  0.5919  0.4520
 2237ntf    fn412495   1.519   6.382   5.607 -0.5603 -0.0023 -0.1833
 2238ntf    cn112496   6.988   1.398   4.315 -0.0118 -0.5829  0.1467
 2238ntf    sn212497   6.822   1.472   4.300  0.3194  0.2033  0.3204
 2238ntf    nn312498   6.761   1.418   4.434  0.1185 -0.2128  0.0629
 2238ntf    sn212499   6.674   1.499   4.536  0.0122  0.2957 -0.4303
 2238ntf    cn112500   6.785   1.520   4.678 -0.4629 -0.0860  0.0042
 2238ntf    fn412501   7.018   1.381   4.442  0.3217 -0.5347  0.0743
 2238ntf    fn412502   7.001   1.275   4.267  0.5181 -0.3713 -0.2681
 2238ntf    fn412503   7.081   1.473   4.259 -0.4102  0.1221  0.4187
 2238ntf    on512504   6.866   1.609   4.288 -0.0699  0.2924 -0.1325
 2238ntf    on512505   6.762   1.404   4.188  0.2026 -0.1982  0.6255
 2238ntf    on512506   6.567   1.412   4.580  0.4561  0.0314  0.1394
 2238ntf    on512507   6.634   1.633   4.499 -0.9127  0.1588  0.0482
 2238ntf    fn412508   6.733   1.589   4.778  0.0931  0.1942  0.1080
 2238ntf    fn412509   6.835   1.408   4.728  0.3832  0.3395  0.1374
 2238ntf    fn412510   6.892   1.591   4.644 -0.3807 -0.1581  0.1137
 2239ntf    cn112511   0.476   2.080   1.081  0.0655  0.1278  0.1006
 2239ntf    sn212512   0.648   2.138   1.100  0.0207  0.2489  0.1380
 2239ntf    nn312513   0.637   2.161   1.255 -0.2871  0.3597  0.1005
 2239ntf    sn212514   0.674   2.060   1.370  0.1571  0.0866 -0.2819
 2239ntf    cn112515   0.855   2.060   1.387  0.1243 -0.2481  0.0771
 2239ntf    fn412516   0.387   2.172   1.047  0.0539 -0.0286 -0.3041
 2239ntf    fn412517   0.474   1.996   0.979  0.6225 -0.2829  0.4268
 2239ntf    fn412518   0.433   2.011   1.185 -0.2681 -0.1047 -0.1895
 2239ntf    on512519   0.723   2.025   1.051 -0.2542  0.1511 -0.0584
 2239ntf    on512520   0.649   2.262   1.027 -0.2785 -0.2000 -0.6342
 2239ntf    on512521   0.656   1.919   1.346  0.0969  0.2190 -1.0573
 2239ntf    on512522   0.634   2.109   1.499 -0.1411 -0.4763 -0.1603
 2239ntf    fn412523   0.898   2.174   1.438  0.0031 -0.2084  0.0906
 2239ntf    fn412524   0.906   1.974   1.473 -0.2774 -0.7492 -0.1814
 2239ntf    fn412525   0.932   2.039   1.281  0.1870 -0.4638  0.1644
 2240ntf    cn112526   1.379   5.917   1.611 -0.0604 -0.0211  0.0199
 2240ntf    sn212527   1.468   6.069   1.659 -0.0485  0.0433 -0.2028
 2240ntf    nn312528   1.409   6.089   1.804 -0.5949 -0.2418 -0.3833
 2240ntf    sn212529   1.301   6.192   1.853 -0.1951 -0.1311  0.2698
 2240ntf    cn112530   1.394   6.331   1.924  0.5936 -0.2869 -0.4480
 2240ntf    fn412531   1.424   5.805   1.665 -0.1955 -0.0549  0.0629
 2240ntf    fn412532   1.251   5.923   1.644 -0.1582  0.0912 -0.3758
 2240ntf    fn412533   1.389   5.899   1.480  0.6922  0.8799 -0.0576
 2240ntf    on512534   1.608   6.034   1.663  0.0165  0.3253  0.0068
 2240ntf    on512535   1.423   6.162   1.559 -0.3640 -0.0177 -0.1198
 2240ntf    on512536   1.229   6.127   1.960 -0.9550  0.2928  0.0181
 2240ntf    on512537   1.214   6.245   1.751 -0.3284 -0.6450  0.1092
 2240ntf    fn412538   1.464   6.389   1.828  0.9244 -0.5962 -0.3978
 2240ntf    fn412539   1.307   6.416   1.976  0.5261 -0.1886 -0.7182
 2240ntf    fn412540   1.492   6.303   2.008  0.4242 -0.2577 -0.2408
 2241ntf    cn112541   3.880   0.075   6.419  0.0640  0.2993  0.1465
 2241ntf    sn212542   3.875   0.243   6.349 -0.0037  0.3738  0.3281
 2241ntf    nn312543   3.847   0.199   6.201  0.3837  0.3243  0.2685
 2241ntf    sn212544   3.714   0.194   6.118  0.3629 -0.0583  0.3250
 2241ntf    cn112545   3.766   0.107   5.967 -0.3839  0.1772 -0.0710
 2241ntf    fn412546   3.759   0.022   6.412  0.1638  0.0511  0.2991
 2241ntf    fn412547   3.956   0.002   6.340  0.1449  0.3503  0.1766
 2241ntf    fn412548   3.917   0.059   6.545 -0.3960 -0.3808  0.1986
 2241ntf    on512549   3.773   0.317   6.419 -0.1077  1.0629 -0.5361
 2241ntf    on512550   4.012   0.283   6.371  0.0046  0.1438  0.7047
 2241ntf    on512551   3.668   0.317   6.060 -0.1857 -0.2788  0.2819
 2241ntf    on512552   3.614   0.102   6.166  0.1991  0.0918  0.2699
 2241ntf    fn412553   3.855   0.178   5.901 -0.0190 -0.2153 -0.0025
 2241ntf    fn412554   3.816  -0.013   5.991 -0.3062  0.0820 -0.7023
 2241ntf    fn412555   3.670   0.089   5.877 -0.5469  0.4390  0.0498
 2242ntf    cn112556   6.707   1.202   2.811 -0.2198 -0.1191 -0.0184
 2242ntf    sn212557   6.638   1.045   2.753  0.0573 -0.2513  0.0088
 2242ntf    nn312558   6.621   1.060   2.597  0.2999  0.8244  0.0817
 2242ntf    sn212559   6.494   1.111   2.519 -0.1197 -0.2035  0.0809
 2242ntf    cn112560   6.397   0.960   2.490 -0.2245 -0.2060  0.4391
 2242ntf    fn412561   6.802   1.251   2.733 -0.1568  0.1932  0.2479
 2242ntf    fn412562   6.619   1.300   2.823 -0.5141 -0.3449 -0.3276
 2242ntf    fn412563   6.759   1.187   2.932  0.7770  0.3020 -0.3844
 2242ntf    on512564   6.748   0.953   2.772 -0.0035 -0.4215 -0.4411
 2242ntf    on512565   6.523   1.020   2.835  0.0614 -0.1220  0.0534
 2242ntf    on512566   6.531   1.158   2.388 -0.3223  0.5983  0.3097
 2242ntf    on512567   6.417   1.202   2.600 -0.2656  0.5446 -0.8935
 2242ntf    fn412568   6.278   0.990   2.441 -0.2313 -0.5836  0.2222
 2242ntf    fn412569   6.451   0.887   2.394 -0.2308 -0.0591  0.3240
 2242ntf    fn412570   6.375   0.890   2.600 -0.0380 -0.2892  0.4242
 2243ntf    cn112571   0.546   1.089   0.308 -0.3725 -0.2148 -0.1807
 2243ntf    sn212572   0.703   1.039   0.385 -0.2940 -0.2296 -0.3510
 2243ntf    nn312573   0.671   1.031   0.538  0.7678  0.0776 -0.1002
 2243ntf    sn212574   0.757   0.970   0.654  0.4905 -0.1256  0.0016
 2243ntf    cn112575   0.720   0.794   0.633  0.1062 -0.0001 -0.3785
 2243ntf    fn412576   0.519   1.211   0.353  0.0029 -0.2489  0.1508
 2243ntf    fn412577   0.551   1.105   0.177 -0.4460  0.0254 -0.1543
 2243ntf    fn412578   0.447   1.015   0.353 -0.1692 -0.2751  0.1728
 2243ntf    on512579   0.745   0.916   0.323 -0.3644 -0.4541  0.0506
 2243ntf    on512580   0.776   1.162   0.361 -0.3188 -0.1595 -0.0746
 2243ntf    on512581   0.705   0.996   0.786  0.6682 -0.1856  0.0837
 2243ntf    on512582   0.895   1.006   0.629  0.3172  0.2617 -0.4125
 2243ntf    fn412583   0.753   0.742   0.515  0.3913 -0.3639 -0.1422
 2243ntf    fn412584   0.757   0.709   0.728 -0.4365  0.1512 -0.0295
 2243ntf    fn412585   0.589   0.783   0.639  0.1202  0.1676  0.2129
 2244ntf    cn112586   5.222   4.833   2.535 -0.3249 -0.0430  0.3267
 2244ntf    sn212587   5.184   4.812   2.359 -0.0574  0.3086  0.2248
 2244ntf    nn312588   5.200   4.961   2.315  0.0219  0.1344 -0.3504
 2244ntf    sn212589   5.091   5.041   2.234  0.0312  0.2166 -0.2818
 2244ntf    cn112590   5.203   5.130   2.123 -0.0908  0.4312 -0.2326
 2244ntf    fn412591   5.176   4.943   2.593 -0.0697  0.2962 -0.1097
 2244ntf    fn412592   5.184   4.724   2.600  0.1656 -0.2688  0.2467
 2244ntf    fn412593   5.354   4.840   2.551 -0.2388 -0.5226 -0.1501
 2244ntf    on512594   5.286   4.723   2.309  0.3442  1.1064 -0.3793
 2244ntf    on512595   5.050   4.757   2.355  0.0517  0.0718 -0.2727
 2244ntf    on512596   5.025   5.144   2.311 -0.5260 -0.5507  0.2909
 2244ntf    on512597   5.012   4.965   2.140 -0.1517 -0.1758  0.1796
 2244ntf    fn412598   5.139   5.186   2.022 -0.0555  0.3200 -0.3161
 2244ntf    fn412599   5.272   5.221   2.191  0.4695  0.2439 -0.5393
 2244ntf    fn412600   5.296   5.046   2.081 -0.2759  0.4976 -0.7815
 2245ntf    cn112601   6.541   2.506   3.675 -0.2853  0.1475 -0.0871
 2245ntf    sn212602   6.490   2.680   3.670 -0.4156  0.1183  0.2110
 2245ntf    nn312603   6.634   2.743   3.677 -0.3618  0.0337 -0.0941
 2245ntf    sn212604   6.719   2.807   3.561 -0.0004 -0.0864  0.1025
 2245ntf    cn112605   6.635   2.964   3.524 -0.0464 -0.1440 -0.0361
 2245ntf    fn412606   6.642   2.486   3.758 -0.2083 -0.2994 -0.2823
 2245ntf    fn412607   6.435   2.432   3.704 -0.5122  0.4547 -0.1347
 2245ntf    fn412608   6.579   2.453   3.559 -0.0230  0.4850 -0.1569
 2245ntf    on512609   6.409   2.706   3.553 -0.6887 -0.0933  0.3536
 2245ntf    on512610   6.425   2.688   3.798  0.8077  0.5763  0.8184
 2245ntf    on512611   6.706   2.738   3.435 -0.2278 -0.3166  0.2483
 2245ntf    on512612   6.851   2.842   3.605  0.3111 -0.0339 -0.8615
 2245ntf    fn412613   6.515   2.945   3.471  0.0822  0.2406 -0.4694
 2245ntf    fn412614   6.620   3.030   3.638 -0.9479 -0.6927  0.1795
 2245ntf    fn412615   6.705   3.046   3.448 -0.2623 -0.9652 -1.1632
 2246ntf    cn112616   2.658   0.949   5.834  0.2181 -0.0259  0.1646
 2246ntf    sn212617   2.569   1.005   5.982 -0.1460  0.3143 -0.1825
 2246ntf    nn312618   2.676   1.075   6.072 -0.3130  0.1003  0.1866
 2246ntf    sn212619   2.712   1.051   6.223  0.3580  0.0861  0.0305
 2246ntf    cn112620   2.849   0.932   6.215 -0.0303 -0.3293 -0.5157
 2246ntf    fn412621   2.746   0.856   5.868 -0.4884 -0.4780  0.7619
 2246ntf    fn412622   2.579   0.893   5.744 -0.1557  0.2483  0.3217
 2246ntf    fn412623   2.724   1.047   5.773  0.1445 -0.1147 -0.0612
 2246ntf    on512624   2.481   1.105   5.925 -0.5643  0.4996  0.7696
 2246ntf    on512625   2.504   0.885   6.029  0.0119  0.2928 -0.0242
 2246ntf    on512626   2.612   0.990   6.307  0.0626  0.2334 -0.2082
 2246ntf    on512627   2.777   1.166   6.279  0.3075  0.0577  0.1472
 2246ntf    fn412628   2.902   0.918   6.335  0.0963 -0.6831 -0.6120
 2246ntf    fn412629   2.820   0.807   6.183 -0.4510 -0.2349 -0.5072
 2246ntf    fn412630   2.949   0.975   6.140 -0.4761  0.4299 -0.6815
 2247ntf    cn112631   0.029   5.305   5.952 -0.4745  0.4483 -0.1043
 2247ntf    sn212632   0.133   5.454   5.947 -0.3173  0.3348 -0.2014
 2247ntf    nn312633   0.262   5.397   6.017 -0.1810  0.5307 -0.2930
 2247ntf    sn212634   0.402   5.352   5.961 -0.3590 -0.1000 -0.2330
 2247ntf    cn112635   0.438   5.209   6.067 -0.1560 -0.0236 -0.1992
 2247ntf    fn412636   0.056   5.224   5.851  0.2949  0.1958  0.2961
 2247ntf    fn412637   0.032   5.234   6.064 -0.0216 -0.1304 -0.4765
 2247ntf    fn412638  -0.098   5.336   5.931 -0.5554  0.3717  0.2655
 2247ntf    on512639   0.137   5.482   5.806  0.2644 -0.3724 -0.3388
 2247ntf    on512640   0.071   5.551   6.033  0.1760 -0.0638  0.6279
 2247ntf    on512641   0.510   5.444   5.984  0.0682 -0.6670  0.0450
 2247ntf    on512642   0.391   5.297   5.828 -0.0741 -0.7191 -0.0025
 2247ntf    fn412643   0.385   5.093   6.031  0.4956 -0.5418  0.4567
 2247ntf    fn412644   0.567   5.180   6.062 -0.2685 -0.7369  0.6394
 2247ntf    fn412645   0.409   5.230   6.195  0.3179 -0.2207 -0.0569
 2248ntf    cn112646   0.647   5.663   4.168 -0.6720 -0.2582  0.0212
 2248ntf    sn212647   0.664   5.629   4.346 -0.1032 -0.3246 -0.0449
 2248ntf    nn312648   0.603   5.484   4.352  0.2215 -0.4641 -0.0705
 2248ntf    sn212649   0.517   5.414   4.464  0.0172  0.1351  0.1548
 2248ntf    cn112650   0.504   5.257   4.374 -0.2518  0.2544 -0.0130
 2248ntf    fn412651   0.520   5.697   4.147 -0.4951  0.3306 -0.1184
 2248ntf    fn412652   0.720   5.766   4.130 -0.6677 -0.2038  0.1764
 2248ntf    fn412653   0.683   5.557   4.099  0.1390  0.2200 -0.2954
 2248ntf    on512654   0.805   5.639   4.373 -0.3308  0.4648  0.9298
 2248ntf    on512655   0.581   5.725   4.414  0.0926 -0.1527 -0.0467
 2248ntf    on512656   0.387   5.470   4.488 -0.2169 -0.5667  0.5355
 2248ntf    on512657   0.593   5.387   4.583  0.1505  0.0607  0.0538
 2248ntf    fn412658   0.480   5.149   4.447 -0.1757  0.3894  0.2105
 2248ntf    fn412659   0.409   5.257   4.281 -0.2646  0.6048 -0.0015
 2248ntf    fn412660   0.619   5.234   4.312 -0.2992  0.1968 -0.0807
 2249ntf    cn112661   3.531   1.074   1.573  0.3681 -0.0499  0.1181
 2249ntf    sn212662   3.486   0.914   1.500 -0.2881  0.1862 -0.0093
 2249ntf    nn312663   3.407   0.843   1.616 -0.2311  0.2094  0.0442
 2249ntf    sn212664   3.414   0.703   1.687 -0.4528  0.1634 -0.0224
 2249ntf    cn112665   3.256   0.630   1.636 -0.2863 -0.0354 -0.2545
 2249ntf    fn412666   3.599   1.150   1.489 -0.6513  0.2710 -0.4457
 2249ntf    fn412667   3.432   1.153   1.614  0.3820  0.0839 -0.1067
 2249ntf    fn412668   3.604   1.048   1.680  0.2472 -0.1890  0.1667
 2249ntf    on512669   3.405   0.949   1.386  0.2695 -0.1926 -0.5281
 2249ntf    on512670   3.607   0.840   1.470 -0.3923 -0.0615  0.1744
 2249ntf    on512671   3.398   0.713   1.830  0.2638 -0.5547  0.1111
 2249ntf    on512672   3.517   0.613   1.644 -0.0924  0.1676  0.8072
 2249ntf    fn412673   3.254   0.624   1.504  0.4307  0.1737 -0.2804
 2249ntf    fn412674   3.241   0.512   1.693 -1.3733 -0.0001 -0.4519
 2249ntf    fn412675   3.142   0.690   1.667 -0.1733  0.3313 -0.5402
 2250ntf    cn112676   4.369   0.671   5.893 -0.2586  0.1476 -0.0764
 2250ntf    sn212677   4.370   0.742   5.726  0.1420  0.1886 -0.0581
 2250ntf    nn312678   4.332   0.612   5.647  0.0652  0.2289 -0.0876
 2250ntf    sn212679   4.191   0.568   5.592  0.0620 -0.0370  0.1347
 2250ntf    cn112680   4.206   0.389   5.621  0.3661  0.0357  0.4312
 2250ntf    fn412681   4.247   0.639   5.934  0.0499 -0.5524  0.3236
 2250ntf    fn412682   4.441   0.560   5.906 -0.7349 -0.1527  0.0229
 2250ntf    fn412683   4.409   0.753   5.989  0.0433 -0.0255 -0.0499
 2250ntf    on512684   4.274   0.848   5.742 -0.9159 -0.7120 -0.3230
 2250ntf    on512685   4.507   0.787   5.717  0.2225  0.0031  0.2181
 2250ntf    on512686   4.179   0.590   5.450 -0.5025  0.0052  0.1880
 2250ntf    on512687   4.077   0.600   5.674 -0.0850  0.3013 -0.1993
 2250ntf    fn412688   4.314   0.336   5.566  0.0973  0.1819 -0.2504
 2250ntf    fn412689   4.218   0.359   5.750 -0.0274  0.5308  0.5882
 2250ntf    fn412690   4.101   0.319   5.583  0.0544  0.3922  0.6322
 2251ntf    cn112691   4.204   2.423   5.462  0.2940  0.2244 -0.0345
 2251ntf    sn212692   4.362   2.477   5.534  0.2440  0.1950  0.0972
 2251ntf    nn312693   4.442   2.501   5.401 -0.6731  0.1301 -0.4775
 2251ntf    sn212694   4.584   2.566   5.384 -0.3208 -0.5914 -0.3332
 2251ntf    cn112695   4.528   2.708   5.286 -0.2975 -0.3326  0.0247
 2251ntf    fn412696   4.221   2.323   5.376 -0.5305  0.1478 -0.1183
 2251ntf    fn412697   4.111   2.391   5.551  1.1130 -0.3912  0.6180
 2251ntf    fn412698   4.156   2.520   5.386  0.1213  0.1724  0.0067
 2251ntf    on512699   4.308   2.594   5.598 -0.3692  0.0599 -0.1655
 2251ntf    on512700   4.402   2.369   5.621  0.0763 -0.0709 -0.1503
 2251ntf    on512701   4.674   2.500   5.293  0.3801  0.0666 -0.1319
 2251ntf    on512702   4.636   2.628   5.504 -0.6142 -0.4306 -0.2892
 2251ntf    fn412703   4.489   2.811   5.360 -0.0694 -0.0900 -0.1917
 2251ntf    fn412704   4.622   2.763   5.211 -0.0462 -0.1236  0.4866
 2251ntf    fn412705   4.420   2.686   5.213 -0.1048 -0.7953 -0.1242
 2252ntf    cn112706   0.156   4.779   1.878 -0.1460 -0.7289 -0.0564
 2252ntf    sn212707   0.199   4.896   2.010 -0.6817 -0.3168 -0.2428
 2252ntf    nn312708   0.285   4.806   2.105 -0.5609 -0.0900 -0.1343
 2252ntf    sn212709   0.278   4.794   2.262 -0.0445 -0.1203 -0.1131
 2252ntf    cn112710   0.133   4.689   2.291  0.2314 -0.4221  0.1892
 2252ntf    fn412711   0.115   4.662   1.926 -0.6268 -0.6163 -0.1820
 2252ntf    fn412712   0.056   4.833   1.811  0.0194 -0.3641 -0.0093
 2252ntf    fn412713   0.251   4.745   1.793 -0.4041 -0.7264 -0.3465
 2252ntf    on512714   0.277   4.992   1.935  0.1494 -0.5179  0.3519
 2252ntf    on512715   0.078   4.947   2.068 -0.8298  0.0797 -0.8835
 2252ntf    on512716   0.235   4.913   2.331  0.2194 -0.0490 -0.0701
 2252ntf    on512717   0.393   4.730   2.322 -0.1969 -0.7309 -0.4547
 2252ntf    fn412718   0.023   4.749   2.248  0.9303  0.7051 -0.0566
 2252ntf    fn412719   0.135   4.572   2.228  0.2056  0.0550 -0.7142
 2252ntf    fn412720   0.120   4.662   2.420  0.3074 -0.4961  0.1806
 2253ntf    cn112721   2.490   4.714   3.286 -0.3751 -0.0464 -0.2491
 2253ntf    sn212722   2.467   4.602   3.427 -0.1683  0.2071 -0.0138
 2253ntf    nn312723   2.322   4.553   3.392 -0.0413 -0.3880  0.2741
 2253ntf    sn212724   2.267   4.407   3.411  0.1062 -0.5495 -0.4984
 2253ntf    cn112725   2.281   4.388   3.591  0.3305 -0.2917 -0.4865
 2253ntf    fn412726   2.587   4.803   3.296  0.2060 -0.6818 -0.1240
 2253ntf    fn412727   2.509   4.644   3.174 -0.4403  0.1585 -0.3885
 2253ntf    fn412728   2.381   4.786   3.266 -0.3676  0.0580  0.0856
 2253ntf    on512729   2.573   4.504   3.436  0.0016  0.3647 -0.3045
 2253ntf    on512730   2.459   4.691   3.540 -0.3807 -0.0132  0.1465
 2253ntf    on512731   2.349   4.304   3.352  0.0380 -0.9266  0.0629
 2253ntf    on512732   2.125   4.400   3.386  0.0786  0.2618 -0.6136
 2253ntf    fn412733   2.211   4.281   3.627  0.1736  0.0084  0.1083
 2253ntf    fn412734   2.404   4.373   3.636  0.3177  0.0320 -0.3422
 2253ntf    fn412735   2.238   4.494   3.657  0.5498 -0.3070 -0.3172
 2254ntf    cn112736   3.671   0.665   3.936  0.0410  0.0577 -0.6878
 2254ntf    sn212737   3.834   0.601   3.985 -0.1932 -0.0949 -0.1027
 2254ntf    nn312738   3.819   0.463   3.911 -0.3627  0.0025 -0.2523
 2254ntf    sn212739   3.920   0.405   3.805 -0.1003 -0.0377  0.0176
 2254ntf    cn112740   3.899   0.227   3.835  0.4109 -0.0959  0.0267
 2254ntf    fn412741   3.562   0.619   3.996  0.1834 -0.1428 -0.5813
 2254ntf    fn412742   3.663   0.797   3.944  0.5695  0.0679 -0.2713
 2254ntf    fn412743   3.647   0.635   3.810 -0.8384 -0.5470 -0.3822
 2254ntf    on512744   3.933   0.693   3.936 -0.2473  0.3703  0.6358
 2254ntf    on512745   3.834   0.591   4.129  0.1038  0.5906 -0.0532
 2254ntf    on512746   4.062   0.422   3.823 -0.0920  0.2665 -0.3347
 2254ntf    on512747   3.874   0.427   3.670 -0.0052  0.3783  0.0518
 2254ntf    fn412748   3.972   0.158   3.749  0.3898 -0.3242  0.1885
 2254ntf    fn412749   3.952   0.208   3.955 -0.2866 -0.0208  0.3492
 2254ntf    fn412750   3.776   0.178   3.842  0.3334  0.1199  0.1919
 2255ntf    cn112751   1.264   3.704   4.361 -0.1492 -0.0232  0.1621
 2255ntf    sn212752   1.347   3.804   4.233 -0.1501 -0.1315  0.0767
 2255ntf    nn312753   1.491   3.743   4.225 -0.2309 -0.3087 -0.0533
 2255ntf    sn212754   1.575   3.675   4.111  0.2414  0.1891 -0.0099
 2255ntf    cn112755   1.641   3.835   4.056  0.1493  0.1378 -0.2678
 2255ntf    fn412756   1.148   3.754   4.402 -0.2621  0.1660 -0.3770
 2255ntf    fn412757   1.232   3.584   4.316 -0.4309  0.1954 -0.2370
 2255ntf    fn412758   1.346   3.684   4.462  0.0025  0.2917  0.1039
 2255ntf    on512759   1.259   3.778   4.122 -0.1409 -0.4084  0.1331
 2255ntf    on512760   1.343   3.934   4.295  0.0985  0.0804 -0.3457
 2255ntf    on512761   1.503   3.618   4.000 -0.2765  0.1477  0.3433
 2255ntf    on512762   1.693   3.614   4.167 -0.2038 -0.3290  0.3841
 2255ntf    fn412763   1.548   3.921   4.016 -0.2644 -0.0756  0.2190
 2255ntf    fn412764   1.695   3.891   4.162 -0.4695  0.0199  0.1163
 2255ntf    fn412765   1.738   3.834   3.967  0.5948 -0.8159  0.2192
 2256ntf    cn112766   6.180   5.717   3.028 -0.0560 -0.1410  0.0118
 2256ntf    sn212767   6.133   5.750   3.201 -0.0218  0.2230 -0.0467
 2256ntf    nn312768   6.235   5.859   3.248  0.0514 -0.1665  0.7204
 2256ntf    sn212769   6.213   6.015   3.252 -0.2244 -0.1920  0.2613
 2256ntf    cn112770   6.385   6.064   3.282 -0.1378 -0.0898 -0.3885
 2256ntf    fn412771   6.166   5.830   2.960 -0.2705 -0.1757 -0.0046
 2256ntf    fn412772   6.307   5.691   3.005 -0.0982 -0.1142 -0.2516
 2256ntf    fn412773   6.116   5.624   2.959 -0.3065  0.1150 -0.1054
 2256ntf    on512774   6.000   5.805   3.201  0.1046  0.5320  0.3411
 2256ntf    on512775   6.152   5.623   3.267  0.4595  0.3941  0.1454
 2256ntf    on512776   6.138   6.054   3.368  0.1244  0.4416  0.2734
 2256ntf    on512777   6.189   6.073   3.122  0.2853 -0.5809 -0.0104
 2256ntf    fn412778   6.469   6.020   3.190  0.6655 -0.0951  0.3377
 2256ntf    fn412779   6.399   6.196   3.284  0.5280 -0.1655  1.3477
 2256ntf    fn412780   6.426   6.019   3.399 -0.3642  0.3161 -0.1519
 2257ntf    cn112781   1.552   6.546   6.096 -0.1123  0.0114 -0.0840
 2257ntf    sn212782   1.428   6.587   6.223  0.0966 -0.0748  0.1493
 2257ntf    nn312783   1.337   6.459   6.220  0.4613 -0.3395  0.2213
 2257ntf    sn212784   1.342   6.337   6.319  0.3484 -0.5651 -0.0506
 2257ntf    cn112785   1.218   6.389   6.440  0.7738  0.3057  0.0178
 2257ntf    fn412786   1.667   6.599   6.136  0.1613 -0.6944  0.0780
 2257ntf    fn412787   1.577   6.417   6.086  1.0214  0.2035  0.1239
 2257ntf    fn412788   1.514   6.580   5.974  0.5899  0.1556 -0.2677
 2257ntf    on512789   1.499   6.615   6.345 -0.1815  0.5538  0.1723
 2257ntf    on512790   1.361   6.697   6.158  0.0883 -0.2171 -0.0855
 2257ntf    on512791   1.465   6.330   6.394  0.2386 -0.3977  0.1452
 2257ntf    on512792   1.297   6.218   6.251  0.1969 -0.3107 -0.3966
 2257ntf    fn412793   1.228   6.516   6.476 -0.1873  0.5352 -0.4733
 2257ntf    fn412794   1.100   6.396   6.381  0.6886  0.2120  0.1754
 2257ntf    fn412795   1.196   6.323   6.553 -0.1564  0.0137 -0.3235
 2258ntf    cn112796   3.655   4.420   4.817 -0.4188  0.1869  0.1233
 2258ntf    sn212797   3.648   4.402   4.997 -0.3818  0.1820  0.1248
 2258ntf    nn312798   3.584   4.261   5.018 -0.1986  0.0123 -0.4451
 2258ntf    sn212799   3.646   4.117   5.032  0.2961  0.2333 -0.3215
 2258ntf    cn112800   3.497   4.017   5.062  0.4551  0.0661 -0.0851
 2258ntf    fn412801   3.756   4.355   4.760 -0.3622  0.3180  0.0732
 2258ntf    fn412802   3.542   4.387   4.757 -0.3118  0.3037 -0.1471
 2258ntf    fn412803   3.680   4.544   4.776 -0.2700 -0.0146 -0.4027
 2258ntf    on512804   3.783   4.427   5.042 -0.1541  0.2614 -0.5987
 2258ntf    on512805   3.550   4.503   5.031 -0.6186 -0.2986  0.9047
 2258ntf    on512806   3.713   4.101   5.158 -0.1669 -0.0140 -0.1015
 2258ntf    on512807   3.703   4.067   4.909 -0.3289  0.0581 -0.5463
 2258ntf    fn412808   3.398   4.037   4.976  0.0199  0.0862  0.4152
 2258ntf    fn412809   3.525   3.888   5.055 -0.3786 -0.1189 -0.1133
 2258ntf    fn412810   3.455   4.037   5.186  0.1553 -0.1319 -0.1533
 2259ntf    cn112811   2.033   2.397   3.864  0.2782 -0.4689  0.1818
 2259ntf    sn212812   2.100   2.564   3.833  0.1601 -0.4870 -0.1743
 2259ntf    nn312813   2.127   2.565   3.679  0.6918  0.1153 -0.0794
 2259ntf    sn212814   2.034   2.632   3.571 -0.0436 -0.4330  0.2103
 2259ntf    cn112815   2.058   2.512   3.436 -0.1269 -0.1667 -0.0415
 2259ntf    fn412816   1.917   2.379   3.803  0.5555 -0.7138 -0.2792
 2259ntf    fn412817   2.114   2.306   3.813  0.9917  0.0673  0.3301
 2259ntf    fn412818   2.021   2.365   3.992 -0.2669 -0.2194  0.1949
 2259ntf    on512819   1.987   2.639   3.882  0.4507  0.1966 -0.5403
 2259ntf    on512820   2.223   2.579   3.906 -0.4023  0.0558  0.6799
 2259ntf    on512821   2.093   2.754   3.522 -0.1290 -0.5689 -0.2409
 2259ntf    on512822   1.891   2.623   3.585 -0.0292 -0.3989  0.3753
 2259ntf    fn412823   2.186   2.506   3.407 -0.0314 -0.2988  0.3986
 2259ntf    fn412824   2.022   2.388   3.468  0.2646 -0.2823 -0.0498
 2259ntf    fn412825   2.005   2.539   3.318  0.1680  0.0747 -0.1185
 2260ntf    cn112826   4.808   2.462   0.423  0.2090 -0.2237 -0.0072
 2260ntf    sn212827   4.705   2.510   0.281  0.0725  0.0277  0.1765
 2260ntf    nn312828   4.692   2.665   0.307 -0.2844  0.0859 -0.3378
 2260ntf    sn212829   4.576   2.754   0.364 -0.2651  0.0925 -0.3092
 2260ntf    cn112830   4.562   2.885   0.239 -0.4513  0.4770  0.1134
 2260ntf    fn412831   4.923   2.527   0.435 -0.1385  0.4743 -0.4157
 2260ntf    fn412832   4.748   2.490   0.538 -0.0721 -0.3726 -0.1149
 2260ntf    fn412833   4.824   2.331   0.421  0.1619 -0.2314  0.0883
 2260ntf    on512834   4.783   2.485   0.162  0.1045 -0.0835  0.2204
 2260ntf    on512835   4.591   2.425   0.305 -0.1310  0.2304 -0.0666
 2260ntf    on512836   4.616   2.823   0.484 -0.0335  0.2828 -0.4955
 2260ntf    on512837   4.443   2.701   0.351 -0.3150 -0.1091  0.8734
 2260ntf    fn412838   4.673   2.958   0.232  0.1442 -0.3802  0.4204
 2260ntf    fn412839   4.543   2.844   0.115 -0.2524 -0.4269  0.3800
 2260ntf    fn412840   4.458   2.960   0.271 -0.2527  0.8181 -0.0285
 2261ntf    cn112841   3.782   5.474   0.400 -0.1175  0.0938 -0.0583
 2261ntf    sn212842   3.815   5.537   0.233 -0.0884 -0.1093 -0.1295
 2261ntf    nn312843   3.779   5.409   0.149  0.1363 -0.2578  0.0005
 2261ntf    sn212844   3.882   5.319   0.072  0.0237 -0.4118  0.0311
 2261ntf    cn112845   3.770   5.197  -0.004 -0.0804 -0.2047 -0.1488
 2261ntf    fn412846   3.898   5.434   0.451  0.2189  0.5240 -0.4745
 2261ntf    fn412847   3.735   5.568   0.480 -0.3012  0.1949 -0.2835
 2261ntf    fn412848   3.703   5.368   0.404 -0.3364  0.2625  0.0921
 2261ntf    on512849   3.712   5.637   0.226 -0.0215 -0.0651 -0.5356
 2261ntf    on512850   3.954   5.574   0.235  0.0604 -0.7028  0.9693
 2261ntf    on512851   3.976   5.235   0.143 -0.1279 -0.3372  0.3206
 2261ntf    on512852   3.944   5.384  -0.041 -0.7015  0.5283  0.1717
 2261ntf    fn412853   3.840   5.098  -0.057  0.3823  0.0655 -0.0502
 2261ntf    fn412854   3.696   5.140   0.090 -0.1189  0.5180  0.2675
 2261ntf    fn412855   3.691   5.247  -0.098 -0.1021  0.1337  0.0463
 2262ntf    cn112856   3.163   5.336   0.161  0.2684 -0.0333 -0.4361
 2262ntf    sn212857   3.017   5.382   0.063 -0.0690 -0.1955 -0.0136
 2262ntf    nn312858   3.083   5.435  -0.069  0.1215 -0.5499 -0.0602
 2262ntf    sn212859   3.099   5.360  -0.206  0.3266 -0.5895 -0.0151
 2262ntf    cn112860   3.019   5.473  -0.324  0.5690  0.0243  0.4056
 2262ntf    fn412861   3.137   5.251   0.259 -0.6851  0.2562 -0.4250
 2262ntf    fn412862   3.259   5.286   0.085  0.0577 -0.0867 -0.6704
 2262ntf    fn412863   3.208   5.445   0.219  0.0939 -0.1577 -0.0658
 2262ntf    on512864   2.933   5.265   0.056 -0.1050 -0.1553 -0.2741
 2262ntf    on512865   2.970   5.496   0.138  0.2315 -0.4480  0.5560
 2262ntf    on512866   3.023   5.238  -0.217 -0.9252  0.1778 -0.0052
 2262ntf    on512867   3.238   5.344  -0.243  0.2806  0.0667 -0.4966
 2262ntf    fn412868   2.889   5.491  -0.304  0.5788  0.1295  0.3732
 2262ntf    fn412869   3.071   5.594  -0.321 -0.0237  0.2973 -0.1109
 2262ntf    fn412870   3.027   5.425  -0.447 -0.2902  0.2476  0.2596
 2263ntf    cn112871   3.053   6.658   2.908  0.4881 -0.0538 -0.3063
 2263ntf    sn212872   3.174   6.528   2.946  0.3818  0.0721  0.4838
 2263ntf    nn312873   3.244   6.516   2.805 -0.2455 -0.8482  0.2460
 2263ntf    sn212874   3.210   6.439   2.673 -0.5413 -0.0164 -0.1733
 2263ntf    cn112875   3.332   6.304   2.681  0.0884  0.5723  0.3081
 2263ntf    fn412876   3.097   6.772   2.958 -0.2480  0.0066  0.2086
 2263ntf    fn412877   3.037   6.668   2.777  0.0913 -0.3803 -0.2861
 2263ntf    fn412878   2.936   6.638   2.967  0.6789  0.5002  0.2703
 2263ntf    on512879   3.255   6.587   3.049  0.3216  0.5654  0.2566
 2263ntf    on512880   3.085   6.418   2.972  0.3303 -0.0115 -0.0314
 2263ntf    on512881   3.249   6.511   2.554  0.0390  0.1360  0.1022
 2263ntf    on512882   3.082   6.373   2.668 -0.6445  0.1844 -0.1864
 2263ntf    fn412883   3.309   6.203   2.598  0.3824  1.0935 -0.4172
 2263ntf    fn412884   3.457   6.339   2.656  0.1327 -0.0403 -0.3707
 2263ntf    fn412885   3.333   6.255   2.804 -0.7056  0.0362  0.1148
 2264ntf    cn112886   0.810   6.201   2.735 -0.2449  0.1961  0.0101
 2264ntf    sn212887   0.739   6.284   2.589 -0.1046  0.2858 -0.0073
 2264ntf    nn312888   0.860   6.372   2.542  0.2501 -0.1698  0.0534
 2264ntf    sn212889   0.958   6.352   2.421 -0.1281 -0.4506 -0.2083
 2264ntf    cn112890   0.919   6.480   2.298  0.2966 -0.1457 -0.0283
 2264ntf    fn412891   0.738   6.103   2.786 -0.1547 -0.0556 -0.3430
 2264ntf    fn412892   0.935   6.166   2.709 -0.3060  0.2265 -0.3384
 2264ntf    fn412893   0.818   6.288   2.834  0.2148 -0.1490  0.2750
 2264ntf    on512894   0.706   6.171   2.506 -0.2431  0.3156  0.0064
 2264ntf    on512895   0.628   6.360   2.641  0.2752  0.9913 -0.2200
 2264ntf    on512896   0.949   6.234   2.338  0.1022 -0.0748 -0.7769
 2264ntf    on512897   1.094   6.379   2.460 -0.1551  0.6612 -0.8474
 2264ntf    fn412898   0.800   6.456   2.246  0.1381  0.2747  0.1413
 2264ntf    fn412899   0.914   6.601   2.352 -0.2151 -0.2347  0.1287
 2264ntf    fn412900   1.005   6.490   2.198  0.2411 -0.0178 -0.0629
 2265ntf    cn112901   3.006   6.322   0.366 -0.6175 -0.5255 -0.1842
 2265ntf    sn212902   3.019   6.144   0.329 -0.2052 -0.5440  0.0409
 2265ntf    nn312903   3.007   6.091   0.476  0.1494  0.1580  0.3289
 2265ntf    sn212904   3.118   6.061   0.583 -0.0454 -0.3161  0.4000
 2265ntf    cn112905   3.166   5.895   0.527  0.0330 -0.2758  0.3475
 2265ntf    fn412906   2.886   6.365   0.400 -0.2216  0.0717  0.5007
 2265ntf    fn412907   3.090   6.359   0.461 -0.1635  0.1790 -0.8529
 2265ntf    fn412908   3.038   6.398   0.263  0.1701  0.1367  0.5403
 2265ntf    on512909   2.899   6.124   0.251  0.2594 -0.6022 -0.6703
 2265ntf    on512910   3.150   6.133   0.269  0.2622 -0.0144  0.9454
 2265ntf    on512911   3.072   6.027   0.715  0.0394 -0.1566  0.4713
 2265ntf    on512912   3.238   6.140   0.590 -0.0493 -0.2955  0.2341
 2265ntf    fn412913   3.230   5.904   0.412  0.1121  0.3573  0.4369
 2265ntf    fn412914   3.241   5.825   0.610  0.5377 -0.2701 -0.1002
 2265ntf    fn412915   3.063   5.814   0.509  0.0498 -0.1711 -0.2687
 2266ntf    cn112916   2.368   0.053   2.539 -0.2271 -0.0116 -0.0335
 2266ntf    sn212917   2.306   0.215   2.485  0.0520  0.2308  0.3688
 2266ntf    nn312918   2.412   0.320   2.536 -0.2557  0.7540 -0.0593
 2266ntf    sn212919   2.532   0.401   2.475 -0.0085  0.2450 -0.2662
 2266ntf    cn112920   2.444   0.539   2.395 -0.2411  0.0242 -0.3903
 2266ntf    fn412921   2.386   0.051   2.670  0.6132  0.0345 -0.1441
 2266ntf    fn412922   2.300  -0.056   2.508 -0.4050  0.1124 -0.0799
 2266ntf    fn412923   2.491   0.036   2.492 -0.2253  0.5112 -0.2173
 2266ntf    on512924   2.306   0.214   2.341 -0.6133 -0.0347  0.3694
 2266ntf    on512925   2.181   0.233   2.554 -0.1339 -0.2438  0.1565
 2266ntf    on512926   2.587   0.334   2.360  0.3932 -0.3471  0.2649
 2266ntf    on512927   2.622   0.461   2.571 -0.2110  0.9413 -0.5051
 2266ntf    fn412928   2.365   0.603   2.480  0.1937 -0.1684  0.1681
 2266ntf    fn412929   2.524   0.637   2.356 -0.2440  0.1556 -0.0688
 2266ntf    fn412930   2.374   0.501   2.289 -0.0245  0.3891 -0.6638
 2267ntf    cn112931   5.695   4.539   0.806  0.2579  0.3201 -0.1312
 2267ntf    sn212932   5.815   4.458   0.697 -0.0227  0.0159 -0.2172
 2267ntf    nn312933   5.856   4.334   0.784  0.1607  0.6050  0.5517
 2267ntf    sn212934   6.004   4.288   0.809  0.0691  0.2717  0.4835
 2267ntf    cn112935   6.051   4.389   0.952 -0.2124  0.1734  0.6463
 2267ntf    fn412936   5.618   4.622   0.738  0.0103  0.3005  0.1231
 2267ntf    fn412937   5.611   4.453   0.862 -0.0328  0.4952 -0.2939
 2267ntf    fn412938   5.748   4.607   0.907 -0.0669  0.6302 -0.1688
 2267ntf    on512939   5.738   4.416   0.583 -0.0272 -1.0373  0.1690
 2267ntf    on512940   5.908   4.566   0.674  0.2327 -0.2602 -0.4875
 2267ntf    on512941   6.096   4.322   0.703  0.0794 -0.5869  0.2054
 2267ntf    on512942   6.000   4.154   0.862 -0.0879  0.1223  0.1039
 2267ntf    fn412943   6.181   4.391   0.975 -0.1224 -0.1458  0.1845
 2267ntf    fn412944   6.021   4.518   0.954  0.0534  0.2550 -0.2036
 2267ntf    fn412945   5.984   4.345   1.057 -0.8736  0.3113  0.2882
 2268ntf    cn112946   1.990   5.353   2.323  0.2109 -0.1344  0.0031
 2268ntf    sn212947   1.911   5.489   2.233 -0.0498 -0.1505  0.2058
 2268ntf    nn312948   2.025   5.525   2.131 -0.5393  0.3759 -0.1631
 2268ntf    sn212949   2.031   5.476   1.982  0.3537  0.2489 -0.0939
 2268ntf    cn112950   2.143   5.593   1.899 -0.1317  0.3395 -0.6282
 2268ntf    fn412951   2.022   5.255   2.241  0.1656 -0.1308 -0.0197
 2268ntf    fn412952   2.099   5.394   2.386  0.2651 -0.0862 -0.1218
 2268ntf    fn412953   1.910   5.308   2.418 -0.3593  1.1369  0.1444
 2268ntf    on512954   1.796   5.428   2.171  0.0828  0.2608 -0.4525
 2268ntf    on512955   1.887   5.588   2.335 -0.8192 -0.1860  0.0642
 2268ntf    on512956   1.915   5.499   1.899  0.3403  0.2455 -0.0761
 2268ntf    on512957   2.093   5.347   1.964  0.0861  0.1208 -0.1021
 2268ntf    fn412958   2.103   5.719   1.904  0.1829  0.4288 -0.3240
 2268ntf    fn412959   2.266   5.589   1.947 -0.4630 -0.3290  0.1912
 2268ntf    fn412960   2.147   5.567   1.769  0.2431 -0.3330 -0.4897
 2269ntf    cn112961   5.907   3.348   4.855 -0.1131  0.4128  0.0674
 2269ntf    sn212962   5.862   3.380   5.029  0.5388  0.3317  0.2540
 2269ntf    nn312963   5.961   3.280   5.098  0.5015  0.0613 -0.0830
 2269ntf    sn212964   5.942   3.175   5.214 -0.1999 -0.1157 -0.3498
 2269ntf    cn112965   6.093   3.223   5.304 -0.3994 -0.4332  0.1521
 2269ntf    fn412966   5.896   3.217   4.835 -0.4494  0.4228  0.1817
 2269ntf    fn412967   5.829   3.412   4.770 -0.5395 -0.2867 -0.0839
 2269ntf    fn412968   6.033   3.371   4.823  0.0596 -0.7091 -0.1094
 2269ntf    on512969   5.884   3.521   5.045  1.2962  0.2792 -0.2658
 2269ntf    on512970   5.725   3.333   5.030  0.4601  0.5594  0.1647
 2269ntf    on512971   5.974   3.048   5.154 -0.4215 -0.0850 -0.5354
 2269ntf    on512972   5.827   3.177   5.300  0.1856  0.5796  0.1663
 2269ntf    fn412973   6.070   3.328   5.381  0.3370 -0.3621  0.2760
 2269ntf    fn412974   6.145   3.123   5.374  0.2778 -0.0508  0.1995
 2269ntf    fn412975   6.183   3.257   5.214 -0.3432 -0.1767  0.3045
 2270ntf    cn112976   6.177   0.910   6.774 -0.0061 -0.1709 -0.4197
 2270ntf    sn212977   6.311   0.951   6.658  0.3372  0.0742  0.0589
 2270ntf    nn312978   6.331   0.812   6.588 -0.0829 -0.5301  1.1191
 2270ntf    sn212979   6.468   0.743   6.553 -0.1637 -0.3208  0.3752
 2270ntf    cn112980   6.419   0.570   6.584  0.3292 -0.4846  0.2496
 2270ntf    fn412981   6.145   1.015   6.848 -0.2607 -0.1396 -0.5725
 2270ntf    fn412982   6.064   0.873   6.716  0.1496 -0.3432 -0.6139
 2270ntf    fn412983   6.199   0.814   6.862 -0.3702  0.3140  0.2138
 2270ntf    on512984   6.245   1.042   6.567 -0.5372 -0.1003  0.5037
 2270ntf    on512985   6.417   1.000   6.742  0.1746 -0.2518  0.4592
 2270ntf    on512986   6.586   0.776   6.629 -0.0263 -0.4295  0.2105
 2270ntf    on512987   6.490   0.730   6.411  0.5433  0.1345  0.4418
 2270ntf    fn412988   6.510   0.491   6.531 -0.3167 -0.4715 -0.9163
 2270ntf    fn412989   6.419   0.541   6.713 -0.4820  0.0901  0.3855
 2270ntf    fn412990   6.297   0.531   6.552  0.2089  0.3761 -0.3798
 2271ntf    cn112991   5.531   6.897   2.866  0.0930 -0.0181 -0.3684
 2271ntf    sn212992   5.480   6.750   2.772  0.0188 -0.2488  0.0285
 2271ntf    nn312993   5.576   6.636   2.820  0.0453 -0.4423 -0.4734
 2271ntf    sn212994   5.555   6.569   2.961  0.2068 -0.0331 -0.2513
 2271ntf    cn112995   5.484   6.411   2.905  0.0269  0.0144 -0.1535
 2271ntf    fn412996   5.428   6.979   2.877 -0.1040 -0.3175  0.0204
 2271ntf    fn412997   5.570   6.880   2.991 -0.6277  0.7159 -0.0320
 2271ntf    fn412998   5.627   6.966   2.806  0.3452 -0.4601 -0.4739
 2271ntf    on512999   5.340   6.727   2.797 -0.0699 -0.0186 -0.2453
 2271ntf    on513000   5.505   6.786   2.634 -0.3531  0.1238  0.0544
 2271ntf    on513001   5.450   6.618   3.046  0.6676 -0.2302  0.4377
 2271ntf    on513002   5.681   6.530   3.021 -0.0743 -0.1756  0.2458
 2271ntf    fn413003   5.435   6.340   3.006 -0.3172  0.2264 -0.1676
 2271ntf    fn413004   5.393   6.432   2.811 -0.0710 -0.1115 -0.0869
 2271ntf    fn413005   5.575   6.343   2.837  0.1187 -0.4694  0.4416
 2272ntf    cn113006   2.181   1.331   6.733 -0.2150  0.1013  0.1843
 2272ntf    sn213007   2.266   1.394   6.585 -0.3453 -0.0535  0.0434
 2272ntf    nn313008   2.306   1.539   6.628 -0.3130 -0.0390 -0.0349
 2272ntf    sn213009   2.444   1.590   6.683 -0.2370 -0.1109 -0.1583
 2272ntf    cn113010   2.394   1.762   6.717 -0.0287 -0.0372 -0.2259
 2272ntf    fn413011   2.245   1.372   6.842  0.5342  0.1625 -0.2719
 2272ntf    fn413012   2.057   1.375   6.742 -0.3863 -0.4563  0.5601
 2272ntf    fn413013   2.175   1.199   6.733  0.1832  0.0817 -0.0804
 2272ntf    on513014   2.369   1.295   6.563 -0.2098  0.0921  0.0255
 2272ntf    on513015   2.166   1.397   6.481  0.2313 -0.3483 -0.5217
 2272ntf    on513016   2.546   1.603   6.582 -0.3240 -0.3024 -0.2717
 2272ntf    on513017   2.483   1.548   6.816 -0.2777  0.0864 -0.0829
 2272ntf    fn413018   2.381   1.826   6.602  0.2722  0.5067  0.0382
 2272ntf    fn413019   2.278   1.768   6.780  0.0864 -0.1116 -0.0033
 2272ntf    fn413020   2.487   1.826   6.786 -0.0878 -0.1021 -0.0856
 2273ntf    cn113021   6.184   3.021   2.765  0.3082  0.1259  0.0680
 2273ntf    sn213022   6.084   2.912   2.660  0.4366  0.1253 -0.0527
 2273ntf    nn313023   6.138   2.771   2.703  0.5380  0.1495 -0.0989
 2273ntf    sn213024   6.084   2.657   2.797  0.1527  0.1836 -0.2742
 2273ntf    cn113025   6.187   2.671   2.946 -0.1470  0.5231 -0.0980
 2273ntf    fn413026   6.205   3.141   2.713  0.0517  0.1254 -0.0358
 2273ntf    fn413027   6.123   3.044   2.880  0.1176 -0.1300  0.0185
 2273ntf    fn413028   6.303   2.964   2.777  0.4449  0.3256 -0.3438
 2273ntf    on513029   5.949   2.948   2.693  0.1541 -0.6672 -0.3153
 2273ntf    on513030   6.117   2.945   2.523 -0.9073  0.2586 -0.3597
 2273ntf    on513031   6.120   2.525   2.749  0.4487 -0.0868  0.6649
 2273ntf    on513032   5.949   2.682   2.841  0.2168 -0.6672  0.4428
 2273ntf    fn413033   6.315   2.697   2.921  0.0228 -0.2303 -0.0235
 2273ntf    fn413034   6.160   2.775   3.023  0.1894  0.2225  0.4355
 2273ntf    fn413035   6.188   2.571   3.032  0.4383  0.2156 -0.4520
 2274ntf    cn113036   6.544   5.269   0.574 -0.2100 -0.4542 -0.1079
 2274ntf    sn213037   6.439   5.137   0.642  0.1155 -0.4116  0.4745
 2274ntf    nn313038   6.334   5.214   0.729 -0.0781  0.0979 -0.2063
 2274ntf    sn213039   6.179   5.231   0.711 -0.1461 -0.3298 -0.0385
 2274ntf    cn113040   6.161   5.380   0.608  0.1140 -0.0747  0.2810
 2274ntf    fn413041   6.479   5.338   0.481 -0.0979  0.0946  0.2145
 2274ntf    fn413042   6.575   5.362   0.663  0.9074 -0.6454 -0.2852
 2274ntf    fn413043   6.653   5.223   0.516 -0.0442  0.0414 -0.1960
 2274ntf    on513044   6.383   5.071   0.528  0.3395  0.3339 -0.0773
 2274ntf    on513045   6.528   5.054   0.720  0.0684  0.0173  0.9894
 2274ntf    on513046   6.114   5.274   0.832  0.2373  0.3706 -0.0752
 2274ntf    on513047   6.116   5.127   0.633 -0.3382 -0.1778 -0.0878
 2274ntf    fn413048   6.248   5.377   0.509 -0.1760  0.0230  0.0209
 2274ntf    fn413049   6.040   5.375   0.554  0.1466  0.3766  0.1617
 2274ntf    fn413050   6.171   5.494   0.674  0.1818  0.0454  0.0634
 2275ntf    cn113051   2.795   5.044   0.499 -0.1453  0.5037  0.1205
 2275ntf    sn213052   2.863   4.884   0.446 -0.1133  0.4734  0.2521
 2275ntf    nn313053   2.786   4.794   0.549 -0.1872  0.1870 -0.0534
 2275ntf    sn213054   2.837   4.679   0.643 -0.2341 -0.0315 -0.2935
 2275ntf    cn113055   2.906   4.775   0.781 -0.0094  0.0016 -0.4278
 2275ntf    fn413056   2.848   5.151   0.443  0.2159  0.5334  0.5181
 2275ntf    fn413057   2.664   5.054   0.487 -0.1437  0.2861 -0.0862
 2275ntf    fn413058   2.816   5.045   0.630 -0.0118 -0.0969  0.1063
 2275ntf    on513059   2.819   4.874   0.309  0.2556  0.8592  0.1022
 2275ntf    on513060   3.004   4.908   0.463 -0.1220  0.6524  0.0760
 2275ntf    on513061   2.946   4.594   0.601 -0.5014 -0.6793  0.3066
 2275ntf    on513062   2.725   4.609   0.700 -0.1064  0.3921  0.4846
 2275ntf    fn413063   2.815   4.859   0.830  0.4575 -0.0259  0.4998
 2275ntf    fn413064   2.936   4.697   0.883 -0.0218  0.6990  0.1165
 2275ntf    fn413065   3.009   4.851   0.749  0.1768 -0.1552 -0.1971
 2276ntf    cn113066   2.332   0.705   3.885 -0.2362  0.4090  0.0335
 2276ntf    sn213067   2.264   0.795   4.028  0.0660  0.2505  0.2761
 2276ntf    nn313068   2.343   0.930   4.020  0.1622  0.1736 -0.1095
 2276ntf    sn213069   2.433   0.999   4.129  0.5827 -0.1166 -0.2674
 2276ntf    cn113070   2.601   0.959   4.072  0.5844 -0.3571 -0.0922
 2276ntf    fn413071   2.293   0.578   3.883  0.2258  0.2682 -0.2802
 2276ntf    fn413072   2.304   0.754   3.765 -0.4150  0.3978  0.0695
 2276ntf    fn413073   2.464   0.699   3.892 -0.2131  0.1883 -0.4847
 2276ntf    on513074   2.124   0.804   3.995  0.1527  0.3246 -0.0823
 2276ntf    on513075   2.291   0.711   4.142  0.0579 -0.1299  0.0002
 2276ntf    on513076   2.433   0.944   4.262 -0.0483  0.0367 -0.1994
 2276ntf    on513077   2.428   1.143   4.123 -0.2152 -0.1096  0.5180
 2276ntf    fn413078   2.689   0.956   4.170  0.4207  0.3572  0.0832
 2276ntf    fn413079   2.615   0.838   4.019 -0.2997 -0.3576 -0.3366
 2276ntf    fn413080   2.659   1.040   3.985  0.2880  0.0713  0.1032
 2277ntf    cn113081   5.209   5.806   0.981  0.0804 -0.1757 -0.0840
 2277ntf    sn213082   5.255   5.816   1.157  0.0714  0.0006 -0.0914
 2277ntf    nn313083   5.411   5.821   1.140  0.1020  0.4060  0.3087
 2277ntf    sn213084   5.518   5.722   1.198 -0.1725  0.0178  0.1547
 2277ntf    cn113085   5.615   5.829   1.309  0.2902 -0.6548  0.4032
 2277ntf    fn413086   5.251   5.904   0.903 -0.1135 -0.0105  0.0166
 2277ntf    fn413087   5.254   5.695   0.926 -0.3333 -0.2987 -0.1770
 2277ntf    fn413088   5.078   5.792   0.968 -0.0255 -0.1019  0.8043
 2277ntf    on513089   5.193   5.939   1.199 -0.3152  0.1271 -1.0027
 2277ntf    on513090   5.196   5.696   1.211  0.2403  0.0358  0.1715
 2277ntf    on513091   5.615   5.681   1.100 -0.1676  0.0255  0.1563
 2277ntf    on513092   5.478   5.616   1.288 -0.4423 -0.3097 -0.3448
 2277ntf    fn413093   5.543   5.898   1.396  0.1096  0.0290 -0.2819
 2277ntf    fn413094   5.706   5.770   1.385  0.4415 -0.2306  0.5524
 2277ntf    fn413095   5.680   5.923   1.243 -0.4020 -0.1819  0.3939
 2278ntf    cn113096   0.109   6.483   3.287  0.3691 -0.2757  0.5588
 2278ntf    sn213097   0.056   6.310   3.272  0.0789 -0.1359 -0.0591
 2278ntf    nn313098  -0.081   6.325   3.198 -0.1320  0.6725  0.4944
 2278ntf    sn213099  -0.128   6.280   3.055  0.0646  0.2959  0.5490
 2278ntf    cn113100  -0.306   6.261   3.087  0.0530 -0.0615  0.2657
 2278ntf    fn413101   0.101   6.547   3.171 -0.1443 -0.5347  0.4489
 2278ntf    fn413102   0.044   6.544   3.384 -0.7654 -0.1510 -0.2613
 2278ntf    fn413103   0.236   6.489   3.323  0.5127  0.0246  0.0179
 2278ntf    on513104   0.161   6.241   3.200  0.1376 -0.2253  0.1105
 2278ntf    on513105   0.033   6.265   3.407 -0.2714 -1.2869 -0.4900
 2278ntf    on513106  -0.079   6.152   3.010  0.4121  0.6068  0.0223
 2278ntf    on513107  -0.134   6.388   2.960 -0.2774 -0.1155  0.1030
 2278ntf    fn413108  -0.390   6.221   2.993  0.4910 -0.4144  0.0135
 2278ntf    fn413109  -0.325   6.170   3.181  0.1226 -0.5325 -0.1715
 2278ntf    fn413110  -0.354   6.369   3.144  0.1582  0.4908 -0.6748
 2279ntf    cn113111   2.798   2.672   5.554  0.1871 -0.1092  0.2413
 2279ntf    sn213112   2.841   2.681   5.378  0.1642 -0.2485  0.2279
 2279ntf    nn313113   2.898   2.537   5.355 -0.3494 -0.4182  0.0060
 2279ntf    sn213114   3.048   2.493   5.347 -0.2554 -0.1138  0.0691
 2279ntf    cn113115   3.072   2.486   5.166  0.1147  0.0662  0.1092
 2279ntf    fn413116   2.732   2.778   5.598  0.6418  0.1005  0.4264
 2279ntf    fn413117   2.743   2.561   5.601  0.1912  0.0114  0.5335
 2279ntf    fn413118   2.915   2.670   5.617  0.3311 -0.3452 -0.0288
 2279ntf    on513119   2.710   2.701   5.320  0.3010  0.9822  0.3070
 2279ntf    on513120   2.932   2.794   5.373 -0.2128  0.0472 -0.0317
 2279ntf    on513121   3.074   2.355   5.383  0.4222  0.0194  0.1149
 2279ntf    on513122   3.151   2.586   5.387 -0.6548  0.2563  0.2316
 2279ntf    fn413123   3.172   2.406   5.133  0.3485  0.3076  0.2312
 2279ntf    fn413124   2.966   2.435   5.105 -0.1662  0.3608  0.3454
 2279ntf    fn413125   3.091   2.603   5.108  0.0200  0.0758  0.0969
 2280ntf    cn113126   1.558   2.973   6.521  0.2662 -0.1166  0.0058
 2280ntf    sn213127   1.632   2.989   6.356 -0.0424 -0.1951 -0.1402
 2280ntf    nn313128   1.753   2.890   6.373 -0.3684 -0.5325  0.2305
 2280ntf    sn213129   1.904   2.924   6.394 -0.3955 -0.1890 -0.1209
 2280ntf    cn113130   1.943   2.833   6.546  0.3324  0.4456  0.0794
 2280ntf    fn413131   1.447   3.041   6.545 -0.0951 -0.8311  0.3980
 2280ntf    fn413132   1.540   2.844   6.545 -0.3902 -0.0425 -0.0593
 2280ntf    fn413133   1.644   3.016   6.612 -0.0831 -0.2983  0.4263
 2280ntf    on513134   1.530   2.944   6.263 -0.5817 -0.3621  0.5211
 2280ntf    on513135   1.659   3.130   6.350 -0.1121 -0.1744  0.0203
 2280ntf    on513136   1.942   3.060   6.427 -0.4677 -0.2203  0.0965
 2280ntf    on513137   1.977   2.861   6.287 -0.1852  0.7248 -0.5259
 2280ntf    fn413138   2.070   2.847   6.582  0.3429  0.2136  0.1383
 2280ntf    fn413139   1.861   2.850   6.648  0.3421  0.5167  0.0746
 2280ntf    fn413140   1.931   2.707   6.507  0.6049  0.4556 -0.0469
 2281ntf    cn113141   1.798   4.440   6.422 -0.1938 -0.0446  0.0021
 2281ntf    sn213142   1.618   4.462   6.411 -0.1494  0.2435 -0.1660
 2281ntf    nn313143   1.623   4.607   6.350  0.3157  0.1240 -0.4194
 2281ntf    sn213144   1.500   4.700   6.319  0.1541  0.1098  0.1601
 2281ntf    cn113145   1.521   4.731   6.141 -0.3366  0.0854  0.0974
 2281ntf    fn413146   1.860   4.424   6.306  0.1566  0.2396  0.1454
 2281ntf    fn413147   1.854   4.538   6.492  0.3265 -0.5067  0.2336
 2281ntf    fn413148   1.826   4.340   6.503 -0.5413 -0.3137 -0.2079
 2281ntf    on513149   1.574   4.356   6.324  0.2198  0.2940 -0.4191
 2281ntf    on513150   1.581   4.458   6.550  0.0302 -0.5020 -0.1379
 2281ntf    on513151   1.504   4.836   6.366 -0.1514 -0.0631  0.6858
 2281ntf    on513152   1.375   4.628   6.312  0.1941  0.0072  0.4790
 2281ntf    fn413153   1.429   4.816   6.098  0.0726  0.4604 -0.0395
 2281ntf    fn413154   1.643   4.772   6.110 -0.2216 -0.1048  0.2957
 2281ntf    fn413155   1.505   4.620   6.071  0.0797  0.1129 -0.0404
 2282ntf    cn113156   0.875   6.958   4.095 -0.0983 -0.1564  0.0576
 2282ntf    sn213157   0.886   6.807   4.196 -0.0126 -0.3553 -0.2438
 2282ntf    nn313158   0.966   6.713   4.101  0.5221 -0.1056 -0.0422
 2282ntf    sn213159   0.924   6.617   3.983  0.2881 -0.4319  0.3040
 2282ntf    cn113160   1.077   6.615   3.885  0.1594 -0.2077  0.0972
 2282ntf    fn413161   0.990   6.996   4.042 -0.1256 -0.3516 -0.1463
 2282ntf    fn413162   0.790   6.945   3.994 -0.4587  0.2753  0.3076
 2282ntf    fn413163   0.832   7.062   4.164  0.0949 -0.3513  0.4778
 2282ntf    on513164   0.955   6.842   4.318  0.3443 -0.0823 -0.5260
 2282ntf    on513165   0.746   6.774   4.206 -0.1164  0.3060  0.6291
 2282ntf    on513166   0.823   6.681   3.903  0.2692  0.4845  1.0305
 2282ntf    on513167   0.904   6.483   4.031  0.0867 -0.5197 -0.0280
 2282ntf    fn413168   1.105   6.740   3.851  0.2623 -0.1366  0.4392
 2282ntf    fn413169   1.187   6.569   3.942  0.1892 -0.1471  0.0896
 2282ntf    fn413170   1.060   6.546   3.773  0.2684 -0.0718 -0.0037
 2283ntf    cn113171   5.638   3.912   6.859  0.4270  0.1274 -0.8047
 2283ntf    sn213172   5.726   4.059   6.797  0.3455  0.2992 -0.5139
 2283ntf    nn313173   5.832   3.997   6.700  0.7296  0.2614 -0.0728
 2283ntf    sn213174   5.812   3.960   6.549 -0.0848 -0.3887  0.1845
 2283ntf    cn113175   5.878   4.113   6.477  0.0885 -0.3656  0.3909
 2283ntf    fn413176   5.535   3.944   6.935  0.0529 -0.1511 -1.1905
 2283ntf    fn413177   5.598   3.835   6.760  0.0180 -0.0200 -0.5279
 2283ntf    fn413178   5.713   3.833   6.934 -0.3625 -0.2745 -0.4310
 2283ntf    on513179   5.624   4.149   6.749 -0.3253 -0.1824 -0.0221
 2283ntf    on513180   5.796   4.099   6.917  0.3936  0.4448 -0.5897
 2283ntf    on513181   5.676   3.935   6.510 -0.3231  0.0151  0.7482
 2283ntf    on513182   5.905   3.857   6.508  0.0426 -0.2056  0.0114
 2283ntf    fn413183   5.973   4.169   6.550  0.7916  0.0457 -0.7936
 2283ntf    fn413184   5.938   4.092   6.361  0.5687  0.1128  0.5492
 2283ntf    fn413185   5.784   4.204   6.455  0.1790 -0.3222  0.1755
 2284ntf    cn113186   5.802   2.334   0.872 -0.0707  0.0318  0.1073
 2284ntf    sn213187   5.718   2.219   0.985  0.2708 -0.1729  0.1524
 2284ntf    nn313188   5.572   2.250   0.935  0.1315 -0.6724  0.2484
 2284ntf    sn213189   5.459   2.303   1.030 -0.3387  0.0533 -0.6984
 2284ntf    cn113190   5.465   2.484   1.023 -0.0264  0.0752 -0.0064
 2284ntf    fn413191   5.931   2.337   0.898 -0.2021  0.5322  0.7506
 2284ntf    fn413192   5.773   2.305   0.747 -0.4484 -0.7048  0.3618
 2284ntf    fn413193   5.761   2.458   0.898  0.2498  0.2392 -0.3670
 2284ntf    on513194   5.761   2.086   0.951 -0.3645 -0.2325 -0.4228
 2284ntf    on513195   5.764   2.262   1.115 -0.4995 -0.3786  0.4989
 2284ntf    on513196   5.475   2.279   1.172  0.0556  0.5176 -0.6639
 2284ntf    on513197   5.325   2.279   0.985 -0.4146  0.0221 -0.4599
 2284ntf    fn413198   5.411   2.527   0.910  0.0926 -0.1500 -0.1495
 2284ntf    fn413199   5.409   2.543   1.127 -0.0799  0.3688 -0.2002
 2284ntf    fn413200   5.590   2.529   1.029  0.0180 -0.0080 -0.3038
 2285ntf    cn113201   4.792   3.678   1.996  0.1618 -0.1206 -0.1311
 2285ntf    sn213202   4.646   3.676   2.104  0.0984  0.0898 -0.2125
 2285ntf    nn313203   4.604   3.525   2.088 -0.6033  0.2682 -0.1009
 2285ntf    sn213204   4.484   3.456   2.014 -0.2960 -0.1437 -0.2159
 2285ntf    cn113205   4.542   3.431   1.844  0.0639  0.0496 -0.1225
 2285ntf    fn413206   4.849   3.797   1.989 -0.3143  0.1207  0.0764
 2285ntf    fn413207   4.894   3.605   2.038  0.0651 -0.3299 -0.2599
 2285ntf    fn413208   4.769   3.640   1.872  0.1488  0.7484 -0.4025
 2285ntf    on513209   4.705   3.714   2.230  0.0178 -0.4897  0.0056
 2285ntf    on513210   4.554   3.772   2.049  0.2335  0.0269 -0.5527
 2285ntf    on513211   4.369   3.540   1.991 -0.3280 -0.1424 -0.0535
 2285ntf    on513212   4.464   3.323   2.066  0.2296 -0.0502  0.2403
 2285ntf    fn413213   4.660   3.370   1.838  0.4440  0.7714 -0.0945
 2285ntf    fn413214   4.447   3.368   1.777 -0.3968 -0.0627  0.6315
 2285ntf    fn413215   4.556   3.547   1.781  0.2495  0.3824  0.5215
 2286ntf    cn113216   5.195   2.244   4.460 -0.0443  0.0296  0.1093
 2286ntf    sn213217   5.115   2.137   4.337  0.1880 -0.3863  0.3178
 2286ntf    nn313218   5.228   2.101   4.235 -0.0529 -0.1189 -0.0473
 2286ntf    sn213219   5.280   1.957   4.201 -0.2424 -0.1925 -0.0264
 2286ntf    cn113220   5.294   1.998   4.024 -0.1990 -0.3275 -0.0547
 2286ntf    fn413221   5.297   2.176   4.511 -0.0515 -0.0974 -0.0438
 2286ntf    fn413222   5.247   2.357   4.415  0.8109 -0.3157  0.2040
 2286ntf    fn413223   5.120   2.271   4.565 -0.3155  0.6096 -0.2300
 2286ntf    on513224   5.077   2.034   4.431 -0.8267  0.0092  0.3558
 2286ntf    on513225   5.009   2.213   4.274 -0.0959 -0.5112  0.6357
 2286ntf    on513226   5.175   1.858   4.201 -0.4787  0.0609  0.7687
 2286ntf    on513227   5.415   1.921   4.237 -0.3530  0.2164  0.8164
 2286ntf    fn413228   5.363   2.110   4.011 -0.3204 -0.2183  0.2361
 2286ntf    fn413229   5.358   1.908   3.951 -0.3159 -0.2596 -0.2390
 2286ntf    fn413230   5.173   2.019   3.976 -0.4868  0.5510  1.0150
 2287ntf    cn113231   4.696   4.381   1.366  0.4575 -0.3124 -0.3224
 2287ntf    sn213232   4.857   4.381   1.282  0.5444  0.1436 -0.1631
 2287ntf    nn313233   4.822   4.468   1.156  0.6307 -0.3322 -0.5212
 2287ntf    sn213234   4.767   4.420   1.017 -0.2381  0.3208 -0.4108
 2287ntf    cn113235   4.921   4.391   0.925  0.0180  0.4132 -0.0167
 2287ntf    fn413236   4.638   4.500   1.367 -0.2791 -0.6684 -0.0659
 2287ntf    fn413237   4.608   4.305   1.304  0.1065 -0.2087  0.0455
 2287ntf    fn413238   4.701   4.342   1.492 -0.2864  0.0671 -0.1658
 2287ntf    on513239   4.928   4.459   1.381  0.6443 -0.6689  0.4177
 2287ntf    on513240   4.891   4.240   1.280  0.0682  0.0295 -0.2750
 2287ntf    on513241   4.708   4.519   0.930 -0.5465 -0.1999 -0.7959
 2287ntf    on513242   4.716   4.285   1.017  0.2618  0.1190  0.6425
 2287ntf    fn413243   4.992   4.294   0.979  0.1932  0.3173 -0.4169
 2287ntf    fn413244   4.908   4.357   0.797  0.8408 -0.6729  0.1750
 2287ntf    fn413245   5.002   4.495   0.933  0.2422  0.2215  0.1970
 2288ntf    cn113246   1.267   0.735   4.543 -0.1464 -0.3785 -0.1960
 2288ntf    sn213247   1.424   0.802   4.480 -0.1239 -0.2111  0.0356
 2288ntf    nn313248   1.431   0.938   4.557 -0.0274 -0.3015  0.1867
 2288ntf    sn213249   1.523   0.978   4.678  0.3515 -0.1710 -0.1458
 2288ntf    cn113250   1.683   1.004   4.596  0.5693 -0.0359  0.3179
 2288ntf    fn413251   1.224   0.633   4.471 -0.6867 -0.1390 -0.2218
 2288ntf    fn413252   1.286   0.689   4.665 -0.0427  0.1602 -0.0058
 2288ntf    fn413253   1.167   0.822   4.553 -0.5555 -0.8817  0.1132
 2288ntf    on513254   1.519   0.698   4.511 -0.3938 -0.2918  0.6082
 2288ntf    on513255   1.405   0.824   4.339  1.1326  0.6432 -0.0115
 2288ntf    on513256   1.549   0.878   4.779 -0.6599 -0.0512  0.2348
 2288ntf    on513257   1.474   1.105   4.725 -0.3878 -0.5785  0.1897
 2288ntf    fn413258   1.679   1.089   4.495  0.1070  0.1523  0.4947
 2288ntf    fn413259   1.776   1.047   4.680  0.6392  0.1406  0.1500
 2288ntf    fn413260   1.727   0.886   4.555 -0.4871 -0.3053 -0.0676
 2289ntf    cn113261   1.554   2.284   4.633 -0.3877  0.0096 -0.4985
 2289ntf    sn213262   1.408   2.298   4.740  0.2306  0.2169  0.3235
 2289ntf    nn313263   1.300   2.324   4.629  0.1753 -0.2155  0.2769
 2289ntf    sn213264   1.225   2.209   4.554 -0.0950  0.3632 -0.3451
 2289ntf    cn113265   1.079   2.181   4.659  0.1160  0.1956 -0.0975
 2289ntf    fn413266   1.564   2.397   4.565 -0.0773  0.5006  0.3438
 2289ntf    fn413267   1.662   2.268   4.707 -0.5170 -0.0028 -0.3122
 2289ntf    fn413268   1.540   2.189   4.542 -0.1820 -0.7668  0.2727
 2289ntf    on513269   1.404   2.175   4.815 -0.0267  0.1579  0.2111
 2289ntf    on513270   1.439   2.425   4.802 -0.0102  0.5261 -0.1860
 2289ntf    on513271   1.294   2.082   4.555 -0.4512  0.1734  1.0680
 2289ntf    on513272   1.166   2.256   4.431 -0.1284  0.4614 -0.2912
 2289ntf    fn413273   1.116   2.127   4.774  0.2651  0.3744 -0.0592
 2289ntf    fn413274   1.012   2.293   4.679 -0.0087  0.0541  0.2955
 2289ntf    fn413275   0.997   2.090   4.609  0.1258  0.0778  0.1015
 2290ntf    cn113276   1.765   4.530   2.608  0.6270 -0.1140  0.2236
 2290ntf    sn213277   1.616   4.490   2.705  0.1790  0.1657 -0.3387
 2290ntf    nn313278   1.542   4.390   2.610  0.3918 -0.3910  0.0779
 2290ntf    sn213279   1.545   4.233   2.615 -0.2137 -0.4023  0.2345
 2290ntf    cn113280   1.420   4.187   2.738 -0.0467 -0.3204  0.4349
 2290ntf    fn413281   1.733   4.574   2.487  0.1366 -0.5031  0.2090
 2290ntf    fn413282   1.832   4.627   2.667  0.2334  0.2514  0.0808
 2290ntf    fn413283   1.840   4.422   2.599  0.3950 -0.1869 -1.1172
 2290ntf    on513284   1.677   4.437   2.824 -0.3390  0.0203 -0.1356
 2290ntf    on513285   1.552   4.618   2.720  0.2921  0.2143 -0.2714
 2290ntf    on513286   1.666   4.173   2.667 -0.0166 -0.3742 -0.1862
 2290ntf    on513287   1.484   4.184   2.493  0.4622 -0.2583 -0.1684
 2290ntf    fn413288   1.413   4.060   2.774  0.2687 -0.4978 -0.1299
 2290ntf    fn413289   1.447   4.262   2.844  0.4368  0.5289 -0.2724
 2290ntf    fn413290   1.299   4.217   2.695  0.0336 -0.2981  0.2257
 2291ntf    cn113291   2.674   5.929   3.154 -0.3609  0.0617 -0.2956
 2291ntf    sn213292   2.494   5.912   3.137 -0.3702  0.2396 -0.3798
 2291ntf    nn313293   2.466   6.009   3.017  0.1925  0.5217 -0.2882
 2291ntf    sn213294   2.446   5.976   2.865 -0.2319  0.1593 -0.1564
 2291ntf    cn113295   2.274   5.916   2.876 -0.4074  0.6308 -0.2914
 2291ntf    fn413296   2.720   5.882   3.269 -0.2134  0.6479 -0.1106
 2291ntf    fn413297   2.734   5.856   3.062 -0.2332 -0.0578 -0.1181
 2291ntf    fn413298   2.709   6.056   3.142 -0.2106  0.0752  0.2525
 2291ntf    on513299   2.478   5.769   3.120 -0.5264  0.1803  0.2339
 2291ntf    on513300   2.439   5.960   3.261 -0.7277 -0.8745 -0.0928
 2291ntf    on513301   2.515   5.862   2.811  0.3881  0.3204  0.2910
 2291ntf    on513302   2.427   6.094   2.785 -1.1542  0.3654  0.3444
 2291ntf    fn413303   2.270   5.789   2.913 -0.2078  0.5884 -0.4135
 2291ntf    fn413304   2.192   5.977   2.960 -0.4439 -0.3356  0.3949
 2291ntf    fn413305   2.208   5.927   2.762 -0.3115 -0.6149 -0.4798
 2292ntf    cn113306   6.990   3.248   5.767 -0.2713 -0.6070  0.4448
 2292ntf    sn213307   6.968   3.173   5.603  0.1931 -0.0999  0.1465
 2292ntf    nn313308   6.826   3.108   5.617 -0.0580  0.3694 -0.1955
 2292ntf    sn213309   6.696   3.087   5.531  0.0751 -0.0172 -0.3063
 2292ntf    cn113310   6.669   2.907   5.525 -0.1721 -0.0039  0.3697
 2292ntf    fn413311   7.089   3.335   5.779 -0.1815 -0.6786  0.2363
 2292ntf    fn413312   6.885   3.322   5.799  0.1298 -0.1243  0.6492
 2292ntf    fn413313   7.014   3.161   5.864  0.2210 -0.3709  0.5398
 2292ntf    on513314   6.970   3.280   5.506  0.4942 -0.2323  0.0082
 2292ntf    on513315   7.078   3.080   5.603 -0.3429 -0.7463  0.0147
 2292ntf    on513316   6.707   3.122   5.391  0.4288  0.0587 -0.2585
 2292ntf    on513317   6.582   3.132   5.607  0.3402  0.3705 -0.1333
 2292ntf    fn413318   6.548   2.876   5.480 -0.0422  0.1239 -0.0750
 2292ntf    fn413319   6.758   2.846   5.449 -0.2789  0.0737  0.1803
 2292ntf    fn413320   6.684   2.849   5.643  0.1957  0.0605  0.3563
 2293ntf    cn113321   5.338   2.550   3.225  0.5050  0.1564 -0.1677
 2293ntf    sn213322   5.512   2.527   3.272  0.5058  0.2756 -0.1121
 2293ntf    nn313323   5.500   2.416   3.382 -0.0861  0.2628 -0.1860
 2293ntf    sn213324   5.492   2.442   3.537  0.1958  0.2321 -0.1642
 2293ntf    cn113325   5.667   2.467   3.575  0.0405  0.3824  0.4652
 2293ntf    fn413326   5.269   2.623   3.312  0.0251 -0.0667 -0.3626
 2293ntf    fn413327   5.337   2.611   3.108 -0.4240 -0.3123 -0.4113
 2293ntf    fn413328   5.271   2.437   3.207 -0.1615  0.5524 -0.2224
 2293ntf    on513329   5.577   2.486   3.150  0.2616  0.0506 -0.1668
 2293ntf    on513330   5.546   2.659   3.319  0.1558  0.0492  0.7884
 2293ntf    on513331   5.459   2.317   3.603 -0.2968  0.4418 -0.0096
 2293ntf    on513332   5.426   2.561   3.584  0.0524  0.3011 -0.5377
 2293ntf    fn413333   5.720   2.574   3.517  0.2341  0.2286  0.3578
 2293ntf    fn413334   5.683   2.484   3.705 -0.1460  0.4232  0.4821
 2293ntf    fn413335   5.737   2.362   3.536 -0.4220  0.1458  0.2768
 2294ntf    cn113336   4.863   4.121   6.738 -0.1765  0.0981  0.0005
 2294ntf    sn213337   4.716   4.022   6.780 -0.1159 -0.1308 -0.3242
 2294ntf    nn313338   4.624   4.067   6.661 -0.0282  0.6372 -0.1053
 2294ntf    sn213339   4.536   3.968   6.577  0.1848  0.2580  0.1146
 2294ntf    cn113340   4.386   4.068   6.553 -0.0302 -0.0826  0.0393
 2294ntf    fn413341   4.836   4.225   6.660 -0.0567  0.0622 -0.0882
 2294ntf    fn413342   4.920   4.170   6.847 -0.0555 -0.0338 -0.0043
 2294ntf    fn413343   4.956   4.053   6.674  0.2010  0.1767  0.4622
 2294ntf    on513344   4.759   3.884   6.778  0.5959  0.0862 -0.6270
 2294ntf    on513345   4.670   4.078   6.905 -0.1728 -0.1063 -0.3561
 2294ntf    on513346   4.489   3.848   6.641 -0.1934  0.4614  0.2260
 2294ntf    on513347   4.586   3.957   6.443 -0.7419 -0.6740 -0.1624
 2294ntf    fn413348   4.302   4.021   6.462  0.3393  0.0212 -0.3585
 2294ntf    fn413349   4.307   4.075   6.659 -0.2266 -0.6742 -0.0626
 2294ntf    fn413350   4.407   4.193   6.515 -0.4969 -0.0378 -0.0727
 2295ntf    cn113351   6.764   1.055   1.330 -0.1775  0.2864 -0.1965
 2295ntf    sn213352   6.814   0.917   1.437 -0.5263  0.3814  0.0947
 2295ntf    nn313353   6.908   0.833   1.342 -0.4785  0.6357 -0.0834
 2295ntf    sn213354   7.062   0.855   1.319 -0.3454 -0.0851  0.1129
 2295ntf    cn113355   7.144   0.724   1.414  0.0304  0.2235  0.2162
 2295ntf    fn413356   6.858   1.128   1.272 -0.0957  0.4705  0.1657
 2295ntf    fn413357   6.692   1.008   1.230 -0.1772  0.2776 -0.1927
 2295ntf    fn413358   6.678   1.136   1.390 -0.2495  0.4291 -0.4932
 2295ntf    on513359   6.878   0.983   1.548  0.1424  0.0509 -0.0844
 2295ntf    on513360   6.697   0.841   1.474 -0.0922 -0.1861  0.3305
 2295ntf    on513361   7.119   0.975   1.374  0.0890 -0.2807  0.0908
 2295ntf    on513362   7.097   0.832   1.181  0.7050  0.2733  0.3091
 2295ntf    fn413363   7.274   0.713   1.396 -0.0404 -0.2407 -0.0176
 2295ntf    fn413364   7.128   0.744   1.544 -0.3460  0.4063  0.1445
 2295ntf    fn413365   7.096   0.601   1.397 -0.5396  0.3746  0.6931
 2296ntf    cn113366   4.212   1.005   4.438  0.2326  0.1598  0.1805
 2296ntf    sn213367   4.188   1.056   4.611  0.1950 -0.0351  0.2336
 2296ntf    nn313368   4.333   1.107   4.642  0.2015  0.5051 -0.6228
 2296ntf    sn213369   4.386   1.229   4.726  0.2692 -0.2991  0.5321
 2296ntf    cn113370   4.412   1.357   4.599 -0.3014 -0.2906  0.4218
 2296ntf    fn413371   4.100   0.967   4.378  0.4040  0.0866 -0.0976
 2296ntf    fn413372   4.271   1.103   4.371  0.3306  0.2020  0.3278
 2296ntf    fn413373   4.304   0.910   4.439 -0.1292 -0.1895  0.2771
 2296ntf    on513374   4.085   1.158   4.607  0.6618  0.4235 -0.3181
 2296ntf    on513375   4.150   0.931   4.671  0.3428 -0.1104  0.1696
 2296ntf    on513376   4.523   1.196   4.758  0.4975 -0.0179 -0.1240
 2296ntf    on513377   4.304   1.290   4.827 -0.2325  0.1257 -0.1272
 2296ntf    fn413378   4.515   1.337   4.519 -0.6680 -0.2650 -0.0597
 2296ntf    fn413379   4.306   1.368   4.522  0.0074 -0.7457 -0.0701
 2296ntf    fn413380   4.428   1.481   4.643 -0.8350 -0.0946  0.0707
 2297ntf    cn113381   1.575   5.778   3.972 -0.0247 -0.3083 -0.0262
 2297ntf    sn213382   1.589   5.751   4.151  0.1362  0.0433  0.0154
 2297ntf    nn313383   1.514   5.881   4.195 -0.2378  0.0297 -0.5789
 2297ntf    sn213384   1.409   5.905   4.309 -0.0218 -0.0267 -0.3696
 2297ntf    cn113385   1.521   5.933   4.450 -0.1043 -0.0681 -0.2961
 2297ntf    fn413386   1.448   5.786   3.935  0.0429 -0.1591 -0.2255
 2297ntf    fn413387   1.637   5.888   3.933  0.1093 -0.3886 -0.0400
 2297ntf    fn413388   1.628   5.680   3.900  0.3479 -0.1475  0.0283
 2297ntf    on513389   1.514   5.628   4.158  0.0345  0.0965 -0.1514
 2297ntf    on513390   1.732   5.749   4.167  0.1291  0.0364  0.0803
 2297ntf    on513391   1.346   5.784   4.355  0.0460 -0.0312 -0.2877
 2297ntf    on513392   1.335   6.027   4.288 -0.0692 -0.0832 -0.5275
 2297ntf    fn413393   1.622   6.015   4.426 -0.0819 -0.0174 -0.0386
 2297ntf    fn413394   1.453   5.981   4.553  0.0653 -0.0845 -0.1765
 2297ntf    fn413395   1.570   5.817   4.490 -0.2309 -0.2757 -0.7452
 2298ntf    cn113396   1.224   2.188   2.722 -0.0396 -0.0862  0.4900
 2298ntf    sn213397   1.189   2.068   2.590  0.3675  0.2160  0.1056
 2298ntf    nn313398   1.062   2.002   2.655 -0.1251 -0.1702 -1.2093
 2298ntf    sn213399   0.906   2.013   2.648 -0.1920 -0.1740  0.1204
 2298ntf    cn113400   0.860   2.010   2.824  0.0310  0.2477  0.1882
 2298ntf    fn413401   1.122   2.271   2.728 -0.1904 -0.2330 -0.0175
 2298ntf    fn413402   1.235   2.134   2.842  0.6222 -0.3784  0.3072
 2298ntf    fn413403   1.326   2.269   2.699 -0.0929 -0.2393 -0.3266
 2298ntf    on513404   1.146   2.146   2.475 -0.2912 -0.4835 -0.1319
 2298ntf    on513405   1.305   1.984   2.579  0.4037  0.3105 -0.2782
 2298ntf    on513406   0.836   1.899   2.594 -0.0855 -0.2727  0.1919
 2298ntf    on513407   0.851   2.142   2.616 -0.0416 -0.0332  0.4181
 2298ntf    fn413408   0.928   1.916   2.887  0.0266 -0.0266 -0.2108
 2298ntf    fn413409   0.895   2.119   2.889 -0.7909  0.5723  0.0999
 2298ntf    fn413410   0.733   1.985   2.852  0.0982 -0.0300  0.2497
 2299ntf    cn113411   4.723   6.810   1.154  0.4123  0.1799  0.2158
 2299ntf    sn213412   4.788   6.838   0.987  0.1847  0.0644  0.1071
 2299ntf    nn313413   4.774   6.699   0.915 -0.0829  0.0381  0.2092
 2299ntf    sn213414   4.870   6.575   0.914  0.3190  0.3523 -0.1071
 2299ntf    cn113415   4.943   6.587   0.748 -0.3749  0.1498 -0.4312
 2299ntf    fn413416   4.811   6.744   1.228  0.0911 -0.7783 -0.2353
 2299ntf    fn413417   4.708   6.921   1.224  0.1777  0.2112  0.1161
 2299ntf    fn413418   4.600   6.759   1.151  0.1567  0.8119 -0.2987
 2299ntf    on513419   4.695   6.938   0.940 -0.2742 -0.3820  0.0505
 2299ntf    on513420   4.925   6.878   1.010  0.1237  0.5920 -0.4401
 2299ntf    on513421   4.810   6.445   0.905  0.3686  0.2957  0.3861
 2299ntf    on513422   4.979   6.590   1.007  0.2849 -0.1289  0.0115
 2299ntf    fn413423   4.975   6.713   0.719 -0.0320  0.0704 -0.4048
 2299ntf    fn413424   5.051   6.512   0.734 -0.3005  0.0154  0.7765
 2299ntf    fn413425   4.861   6.549   0.651 -0.1328 -0.7521 -0.2875
 2300ntf    cn113426   6.283   4.724   2.268 -0.3499  0.0061 -0.1394
 2300ntf    sn213427   6.402   4.856   2.305 -0.4898  0.0922  0.0072
 2300ntf    nn313428   6.534   4.771   2.316  0.0844  0.9430 -0.2278
 2300ntf    sn213429   6.659   4.785   2.410  0.0568  0.2836 -0.0838
 2300ntf    cn113430   6.779   4.855   2.292  0.3350  0.1285  0.1052
 2300ntf    fn413431   6.324   4.648   2.168  0.5848 -0.5354  0.6353
 2300ntf    fn413432   6.272   4.636   2.366  0.1474 -0.3275 -0.3803
 2300ntf    fn413433   6.158   4.756   2.239 -0.3120 -0.5925 -1.0007
 2300ntf    on513434   6.406   4.949   2.195 -0.1018 -0.3350 -0.3502
 2300ntf    on513435   6.357   4.906   2.432 -0.0227  0.1241  0.1625
 2300ntf    on513436   6.722   4.660   2.444 -0.2824  0.1642  0.1077
 2300ntf    on513437   6.636   4.885   2.512 -0.8411  0.1251 -0.1287
 2300ntf    fn413438   6.901   4.866   2.340  0.1960 -0.0343  0.4979
 2300ntf    fn413439   6.785   4.786   2.180 -0.1495  0.2374  0.0096
 2300ntf    fn413440   6.743   4.979   2.260  0.1005  0.0169 -0.0637
 2301ntf    cn113441   1.781   1.642   1.911  0.0583  0.0359 -0.0110
 2301ntf    sn213442   1.922   1.662   2.024  0.0529 -0.1955  0.0365
 2301ntf    nn313443   2.038   1.603   1.936  0.1870 -0.0423  0.1100
 2301ntf    sn213444   2.160   1.671   1.865 -0.0045  0.0449 -0.1366
 2301ntf    cn113445   2.294   1.594   1.961 -0.0243  0.2484  0.0551
 2301ntf    fn413446   1.808   1.694   1.792 -0.1736 -0.6684 -0.3739
 2301ntf    fn413447   1.753   1.516   1.885  0.1125 -0.0917  0.5412
 2301ntf    fn413448   1.668   1.698   1.951  0.3373  0.1128  0.6875
 2301ntf    on513449   1.927   1.806   2.031 -0.0992 -0.1777 -0.2216
 2301ntf    on513450   1.882   1.592   2.144  0.1403  0.4537  0.4534
 2301ntf    on513451   2.181   1.812   1.889  0.3340 -0.1684  0.8797
 2301ntf    on513452   2.195   1.609   1.740 -0.0993 -0.2469 -0.0193
 2301ntf    fn413453   2.303   1.634   2.087 -0.3556  0.1124  0.1231
 2301ntf    fn413454   2.297   1.462   1.967  0.5288  0.2292 -0.5634
 2301ntf    fn413455   2.407   1.631   1.904 -0.2383  0.7599 -0.0405
 2302ntf    cn113456   3.582   3.585   3.143  0.1455 -0.0189  0.2426
 2302ntf    sn213457   3.643   3.755   3.169 -0.0765  0.0553  0.2838
 2302ntf    nn313458   3.783   3.732   3.236  0.0182  0.1227  0.1077
 2302ntf    sn213459   3.920   3.698   3.166 -0.1539  0.3217 -0.3318
 2302ntf    cn113460   3.986   3.855   3.230  0.0418  0.1407 -0.0843
 2302ntf    fn413461   3.451   3.592   3.128  0.0842 -0.7310  0.4199
 2302ntf    fn413462   3.627   3.519   3.039 -0.3091 -0.5452  0.3764
 2302ntf    fn413463   3.588   3.506   3.249  0.2282 -0.1250  0.1573
 2302ntf    on513464   3.635   3.814   3.038 -0.0032  0.0670  0.2845
 2302ntf    on513465   3.557   3.809   3.272 -0.2085  0.6389 -0.1273
 2302ntf    on513466   3.929   3.712   3.023  0.9454  0.1773 -0.2835
 2302ntf    on513467   4.007   3.607   3.236  0.0002  0.4973 -0.2971
 2302ntf    fn413468   3.935   3.881   3.349  0.4011 -0.7575  0.2766
 2302ntf    fn413469   4.118   3.851   3.238  0.0585  0.5921 -0.1167
 2302ntf    fn413470   3.953   3.959   3.155 -0.6752 -0.2385 -0.3060
 2303ntf    cn113471   5.379   5.305   3.160  0.2878 -0.0079  0.4284
 2303ntf    sn213472   5.413   5.341   2.985 -0.3641  0.1549  0.3298
 2303ntf    nn313473   5.517   5.234   2.937  0.0925  0.8637 -0.2755
 2303ntf    sn213474   5.639   5.247   2.838  0.4199  0.2623  0.0417
 2303ntf    cn113475   5.616   5.102   2.730 -0.1095  0.4650 -0.1239
 2303ntf    fn413476   5.314   5.190   3.173 -0.2055  0.2982  0.7222
 2303ntf    fn413477   5.493   5.296   3.225  0.3366  0.0583  0.3516
 2303ntf    fn413478   5.312   5.404   3.216 -0.0398  0.0447 -0.0450
 2303ntf    on513479   5.283   5.305   2.935 -0.4845  0.3339  0.5092
 2303ntf    on513480   5.455   5.479   2.990 -0.8302  0.2873  0.7164
 2303ntf    on513481   5.769   5.218   2.893  0.3327 -0.3653 -0.0702
 2303ntf    on513482   5.625   5.362   2.752  0.1076  0.1186 -0.1036
 2303ntf    fn413483   5.494   5.091   2.682 -0.2602 -0.6066  0.4687
 2303ntf    fn413484   5.706   5.114   2.634  0.3258 -0.3936  0.1654
 2303ntf    fn413485   5.640   4.991   2.798 -0.2625  0.7338  0.3739
 2304ntf    cn113486   5.182   0.256   2.163 -0.3817  0.1748  0.1375
 2304ntf    sn213487   5.161   0.089   2.096 -0.1157  0.0775  0.2943
 2304ntf    nn313488   5.311   0.063   2.059 -0.1221 -0.4023  0.5942
 2304ntf    sn213489   5.387  -0.074   2.067  0.1600 -0.2813  0.0436
 2304ntf    cn113490   5.460  -0.044   2.231  0.3172 -0.1198 -0.0555
 2304ntf    fn413491   5.224   0.333   2.064  0.2769  0.2575  0.4805
 2304ntf    fn413492   5.068   0.309   2.205 -0.3218  0.3223  0.1161
 2304ntf    fn413493   5.274   0.258   2.258 -0.0926  0.0285 -0.1367
 2304ntf    on513494   5.098   0.015   2.203 -0.4854 -0.1694 -0.0853
 2304ntf    on513495   5.079   0.114   1.980  0.0558  0.3648  0.2336
 2304ntf    on513496   5.490  -0.062   1.967 -0.1014 -0.5552 -0.2621
 2304ntf    on513497   5.307  -0.194   2.075  0.2794 -0.3331  0.4903
 2304ntf    fn413498   5.539  -0.142   2.274 -0.0025 -0.2281  0.2912
 2304ntf    fn413499   5.523   0.072   2.230  0.7007 -0.3193  0.3108
 2304ntf    fn413500   5.365  -0.033   2.322 -0.2519 -0.4397 -0.6021
 2305ntf    cn113501   4.053   1.584   3.925  0.3861 -0.0804 -0.2166
 2305ntf    sn213502   4.100   1.486   4.070  0.1523  0.2395  0.0763
 2305ntf    nn313503   4.254   1.471   4.043  0.0856  0.4932 -0.4491
 2305ntf    sn213504   4.372   1.561   4.095 -0.1630  0.5722 -0.0220
 2305ntf    cn113505   4.453   1.440   4.204 -0.6108  0.4084  0.1355
 2305ntf    fn413506   3.924   1.615   3.923  0.1172 -1.1353 -0.0024
 2305ntf    fn413507   4.127   1.693   3.931 -0.0805  0.2332 -0.0249
 2305ntf    fn413508   4.079   1.525   3.809 -0.0623  0.1205 -0.4257
 2305ntf    on513509   4.064   1.570   4.182 -0.1837 -0.4187  0.4655
 2305ntf    on513510   4.029   1.361   4.064  0.1610  0.1971  0.7605
 2305ntf    on513511   4.350   1.668   4.189 -0.3426 -0.2318  0.8603
 2305ntf    on513512   4.461   1.595   3.987  0.0314  0.2414  0.0345
 2305ntf    fn413513   4.481   1.334   4.129 -0.5455  0.6937 -0.2514
 2305ntf    fn413514   4.566   1.491   4.252 -0.3644 -0.1119  0.1180
 2305ntf    fn413515   4.378   1.405   4.307 -0.1898 -0.3847  0.1779
 2306ntf    cn113516   4.314   6.065   1.016 -0.0795 -0.0748  0.4571
 2306ntf    sn213517   4.182   6.049   1.139 -0.3261 -0.0257  0.1983
 2306ntf    nn313518   4.065   6.096   1.045 -0.1712 -0.4748 -0.2197
 2306ntf    sn213519   4.009   6.237   1.007  0.0601 -0.2389  0.3129
 2306ntf    cn113520   3.847   6.238   1.089 -0.0510 -0.3366  0.0955
 2306ntf    fn413521   4.284   6.008   0.901 -0.0577  0.3348  0.2470
 2306ntf    fn413522   4.342   6.193   0.997  0.0263 -0.2292 -0.4726
 2306ntf    fn413523   4.424   6.014   1.069 -0.0106 -0.4556 -0.0473
 2306ntf    on513524   4.169   5.909   1.171 -0.3968  0.0435  0.4788
 2306ntf    on513525   4.226   6.138   1.244  0.2184 -0.3485  0.2465
 2306ntf    on513526   3.978   6.244   0.867  0.0805  0.1079  0.3243
 2306ntf    on513527   4.077   6.351   1.063  0.2116 -0.0358 -0.2781
 2306ntf    fn413528   3.855   6.186   1.211 -0.3411 -0.1114  0.2136
 2306ntf    fn413529   3.795   6.360   1.095  0.1492 -0.2764  0.7018
 2306ntf    fn413530   3.758   6.170   1.018  0.1694 -0.1399 -0.3746
 2307ntf    cn113531   0.504   4.089   5.539  0.0712 -0.1795  0.0016
 2307ntf    sn213532   0.575   3.975   5.416  0.0291 -0.1003 -0.0957
 2307ntf    nn313533   0.723   3.977   5.468 -0.1431  0.3588  0.3987
 2307ntf    sn213534   0.852   4.041   5.406  0.0915 -0.0405  0.4735
 2307ntf    cn113535   0.946   4.052   5.561  0.2577  0.4938  0.3374
 2307ntf    fn413536   0.454   4.023   5.643  0.5107 -0.2788  0.1521
 2307ntf    fn413537   0.597   4.166   5.595  0.0160  0.0757 -0.2559
 2307ntf    fn413538   0.405   4.164   5.494  0.1111  0.2274  0.5712
 2307ntf    on513539   0.501   3.854   5.440 -0.2675  0.1443  0.2454
 2307ntf    on513540   0.549   4.038   5.289 -0.1147  0.3523  0.1527
 2307ntf    on513541   0.839   4.179   5.369 -0.3869 -0.1100  0.3721
 2307ntf    on513542   0.939   3.950   5.333  0.4758  0.7739 -0.0962
 2307ntf    fn413543   0.976   3.929   5.600  0.2276  0.3938  0.0474
 2307ntf    fn413544   1.057   4.122   5.554  0.5310  0.0367  0.0270
 2307ntf    fn413545   0.877   4.102   5.663  0.0923  0.3765  0.2841
 2308ntf    cn113546   4.714   3.128   2.900  0.5120 -0.1782  0.1422
 2308ntf    sn213547   4.782   3.043   3.045  0.1706 -0.0973  0.3505
 2308ntf    nn313548   4.932   3.086   3.025  0.1540 -0.0692  0.2874
 2308ntf    sn213549   5.025   3.186   3.103  0.0504  0.0591  0.2477
 2308ntf    cn113550   5.108   3.083   3.228  0.2446 -0.1679 -0.0657
 2308ntf    fn413551   4.761   3.248   2.871  0.6238 -0.2681 -0.0580
 2308ntf    fn413552   4.729   3.062   2.786 -0.5947  0.0287 -0.1348
 2308ntf    fn413553   4.585   3.146   2.920  0.4862  0.3662 -0.4768
 2308ntf    on513554   4.704   3.108   3.148 -0.1691 -0.3992  0.2855
 2308ntf    on513555   4.782   2.901   3.018  0.8240 -0.0441  0.0335
 2308ntf    on513556   4.954   3.291   3.172 -0.3355 -0.3092  0.4235
 2308ntf    on513557   5.135   3.235   3.025  0.7148 -0.8799  0.5811
 2308ntf    fn413558   5.019   3.023   3.306  0.3457  0.3127  0.4294
 2308ntf    fn413559   5.180   2.988   3.171  0.9306  0.3967 -0.1503
 2308ntf    fn413560   5.192   3.147   3.308  0.5347 -0.4414 -0.1508
 2309ntf    cn113561   5.916   3.480   2.498  0.0305  0.4991  0.1782
 2309ntf    sn213562   6.039   3.527   2.373  0.2144 -0.0644  0.1448
 2309ntf    nn313563   6.128   3.398   2.364  0.0761 -0.1440 -0.0939
 2309ntf    sn213564   6.245   3.375   2.262  0.1269  0.0067 -0.0698
 2309ntf    cn113565   6.384   3.377   2.379  0.0601 -0.6672  0.0259
 2309ntf    fn413566   5.816   3.413   2.444  0.0367  0.3779  0.3184
 2309ntf    fn413567   5.974   3.402   2.587 -0.4604  0.7056  0.6858
 2309ntf    fn413568   5.871   3.586   2.564  0.0763  0.5893  0.0655
 2309ntf    on513569   5.950   3.548   2.261  0.3256  0.4137  0.1435
 2309ntf    on513570   6.117   3.635   2.430 -0.4714 -0.1661  1.3031
 2309ntf    on513571   6.280   3.488   2.180 -0.4586  0.4291  0.2553
 2309ntf    on513572   6.248   3.239   2.215  0.1788 -0.1686  0.4330
 2309ntf    fn413573   6.371   3.481   2.459  0.0485 -0.0866 -0.7193
 2309ntf    fn413574   6.387   3.268   2.453  0.0965 -0.5105  0.2566
 2309ntf    fn413575   6.503   3.400   2.325 -0.2357  0.0926 -0.3184
 2310ntf    cn113576   4.999   3.411   4.721 -0.2686  0.1519 -0.3165
 2310ntf    sn213577   5.123   3.394   4.854 -0.1527 -0.0527 -0.4516
 2310ntf    nn313578   5.224   3.506   4.811  0.2028 -0.0647  0.3507
 2310ntf    sn213579   5.257   3.648   4.869 -0.2254  0.1622  0.0430
 2310ntf    cn113580   5.398   3.609   4.977  0.2718  0.1636 -0.6035
 2310ntf    fn413581   4.888   3.341   4.733 -0.2529  0.1929  0.0855
 2310ntf    fn413582   4.954   3.536   4.727 -0.1460  0.1972 -0.3403
 2310ntf    fn413583   5.052   3.409   4.600 -0.2204  0.5637 -0.3044
 2310ntf    on513584   5.039   3.410   4.970  0.2830 -0.4004 -0.0856
 2310ntf    on513585   5.183   3.265   4.830 -0.0755 -0.1388  0.2096
 2310ntf    on513586   5.163   3.705   4.962 -0.1589 -0.4851  0.5140
 2310ntf    on513587   5.316   3.734   4.770 -0.1400 -0.1447 -0.1728
 2310ntf    fn413588   5.382   3.493   5.039  0.2247  0.4277 -0.1223
 2310ntf    fn413589   5.513   3.606   4.911  0.5195 -0.2956 -0.1573
 2310ntf    fn413590   5.411   3.695   5.076  0.0576 -0.1974 -0.2609
 2311ntf    cn113591   5.213   4.121   0.898  0.2202  0.0394 -0.0971
 2311ntf    sn213592   5.139   3.988   0.798 -0.1635  0.0934  0.1120
 2311ntf    nn313593   5.187   3.857   0.871  0.3355  0.0925 -0.2137
 2311ntf    sn213594   5.238   3.719   0.818 -0.0233 -0.1771  0.1359
 2311ntf    cn113595   5.080   3.656   0.756 -0.1140  0.2172 -0.0346
 2311ntf    fn413596   5.344   4.132   0.882  0.2208 -0.0185 -0.1315
 2311ntf    fn413597   5.165   4.241   0.869  0.5129  0.1654 -0.0593
 2311ntf    fn413598   5.182   4.116   1.027 -0.1820  0.3697 -0.1790
 2311ntf    on513599   4.998   4.008   0.818 -0.2833 -0.2519 -0.3793
 2311ntf    on513600   5.185   4.016   0.665 -0.2692  0.6402  0.1886
 2311ntf    on513601   5.279   3.627   0.921 -0.4433 -0.1939  0.2901
 2311ntf    on513602   5.324   3.723   0.702  0.5492 -0.6546  0.5392
 2311ntf    fn413603   5.050   3.703   0.636  0.4675 -0.1883 -0.3411
 2311ntf    fn413604   5.073   3.525   0.743 -0.3328  0.2160  0.0827
 2311ntf    fn413605   4.978   3.688   0.835 -0.2849  0.1262 -0.2152
 2312ntf    cn113606   6.802   2.663   4.793 -0.1756  0.1080  0.0329
 2312ntf    sn213607   6.826   2.812   4.895 -0.1648  0.3481 -0.3191
 2312ntf    nn313608   6.975   2.842   4.855  0.1068  0.0206  0.4292
 2312ntf    sn213609   7.037   2.838   4.711 -0.0967 -0.0079  0.3414
 2312ntf    cn113610   7.136   2.990   4.707 -0.0704 -0.0291  0.1650
 2312ntf    fn413611   6.912   2.590   4.789 -0.2551 -0.0340  0.3690
 2312ntf    fn413612   6.700   2.585   4.824 -0.1290  0.1136  0.2039
 2312ntf    fn413613   6.780   2.694   4.666  0.9432 -0.5359 -0.3358
 2312ntf    on513614   6.730   2.908   4.848 -0.3203  0.1594 -0.3873
 2312ntf    on513615   6.808   2.759   5.028 -0.3377 -0.3614 -0.6214
 2312ntf    on513616   6.944   2.845   4.601 -0.3919  0.0652  0.5948
 2312ntf    on513617   7.140   2.737   4.700  0.2241  0.3776 -0.2832
 2312ntf    fn413618   7.054   3.094   4.713 -0.2536 -0.1513 -0.1964
 2312ntf    fn413619   7.226   3.009   4.803  0.1640  0.2831 -0.1117
 2312ntf    fn413620   7.208   3.001   4.596 -0.1125 -0.0709  0.1335
 2313ntf    cn113621   2.117   3.601   2.037  0.2721 -0.3300  0.7025
 2313ntf    sn213622   2.242   3.683   1.934 -0.0839 -0.0515  0.4902
 2313ntf    nn313623   2.306   3.798   2.020  0.3159  0.1412 -0.0570
 2313ntf    sn213624   2.434   3.809   2.111  0.1565 -0.0967  0.1991
 2313ntf    cn113625   2.347   3.830   2.269 -0.3827 -0.5063 -0.0399
 2313ntf    fn413626   2.024   3.686   2.079  0.1190 -0.1110 -0.0743
 2313ntf    fn413627   2.053   3.501   1.980 -0.4317  0.2773  0.4134
 2313ntf    fn413628   2.163   3.554   2.152  0.3018 -0.1545  0.7640
 2313ntf    on513629   2.333   3.579   1.894  0.3481  0.7240 -0.5902
 2313ntf    on513630   2.154   3.737   1.834  0.0737 -0.4133  0.1535
 2313ntf    on513631   2.497   3.937   2.093 -0.2957  0.2414  0.9817
 2313ntf    on513632   2.502   3.682   2.126  0.1404 -0.1669 -0.3009
 2313ntf    fn413633   2.409   3.827   2.386  0.5362 -0.0076 -0.4996
 2313ntf    fn413634   2.267   3.936   2.272  0.2637 -0.0050 -0.2145
 2313ntf    fn413635   2.256   3.735   2.278 -0.5250 -0.3243  0.4673
 2314ntf    cn113636   3.792   3.467   5.785  0.0687  0.1912  0.2423
 2314ntf    sn213637   3.616   3.510   5.771  0.0256 -0.0360  0.0723
 2314ntf    nn313638   3.589   3.500   5.616  0.3169  0.3100 -0.0036
 2314ntf    sn213639   3.488   3.566   5.517 -0.2980 -0.3234  0.1920
 2314ntf    cn113640   3.414   3.423   5.434 -0.2117 -0.1456 -0.1953
 2314ntf    fn413641   3.815   3.341   5.751  0.2265  0.1177  0.6245
 2314ntf    fn413642   3.875   3.539   5.711 -0.2339 -0.2427 -0.5405
 2314ntf    fn413643   3.836   3.480   5.909 -0.0027 -0.0787  0.2961
 2314ntf    on513644   3.556   3.409   5.854 -0.3610 -0.0513 -0.2202
 2314ntf    on513645   3.630   3.645   5.822 -0.0569 -0.0500  0.1314
 2314ntf    on513646   3.547   3.636   5.405  0.2762  0.5033  0.9945
 2314ntf    on513647   3.374   3.628   5.581 -0.4056 -0.3017 -0.0162
 2314ntf    fn413648   3.346   3.347   5.518 -0.1975  0.1831  0.1107
 2314ntf    fn413649   3.339   3.459   5.331 -0.7243  0.3701  0.3552
 2314ntf    fn413650   3.517   3.360   5.379 -0.2027  0.1261 -0.4902
 2315ntf    cn113651   5.779   2.351   2.482 -0.2110 -0.0219  0.3367
 2315ntf    sn213652   5.862   2.398   2.327  0.1197 -0.1103  0.4862
 2315ntf    nn313653   5.787   2.289   2.244  0.5848 -0.3238  0.3430
 2315ntf    sn213654   5.815   2.220   2.106 -0.2003  0.0274  0.0004
 2315ntf    cn113655   5.668   2.287   2.024 -0.0105  0.4602  0.0162
 2315ntf    fn413656   5.649   2.328   2.475 -0.2636  0.5851 -0.8685
 2315ntf    fn413657   5.827   2.235   2.522 -0.2959 -0.1379  0.1034
 2315ntf    fn413658   5.795   2.434   2.584  0.6186 -0.1318  0.3060
 2315ntf    on513659   5.820   2.534   2.303  1.2275  0.2660  0.6139
 2315ntf    on513660   6.003   2.374   2.347  0.2307  0.2736  0.1662
 2315ntf    on513661   5.784   2.079   2.114 -0.2132 -0.0274 -0.9197
 2315ntf    on513662   5.927   2.265   2.027 -0.2870  0.5661  0.1866
 2315ntf    fn413663   5.555   2.257   2.087  0.1918 -0.7031 -0.1648
 2315ntf    fn413664   5.684   2.416   1.999 -0.0582  0.2637 -1.0734
 2315ntf    fn413665   5.648   2.226   1.908  0.2331  0.0590  0.1835
 2316ntf    cn113666   6.192   1.905   2.266 -0.2956  0.1860 -0.2487
 2316ntf    sn213667   6.326   1.969   2.161  0.2952 -0.4383  0.1094
 2316ntf    nn313668   6.311   1.863   2.047 -0.2802 -0.9142  0.6166
 2316ntf    sn213669   6.418   1.762   1.993  0.0581 -0.1882 -0.0904
 2316ntf    cn113670   6.516   1.879   1.893  0.0254  0.0081  0.1073
 2316ntf    fn413671   6.069   1.918   2.220 -0.4897  0.4279  0.3181
 2316ntf    fn413672   6.205   1.773   2.274  0.4792  0.2652 -0.0917
 2316ntf    fn413673   6.199   1.948   2.391  0.5911 -0.0725 -0.2021
 2316ntf    on513674   6.284   2.102   2.124  0.7139 -0.5411 -0.7377
 2316ntf    on513675   6.440   1.959   2.248  0.3277 -0.7219  0.0328
 2316ntf    on513676   6.356   1.678   1.893  0.8101 -0.0959 -0.6473
 2316ntf    on513677   6.505   1.711   2.096  0.2711  0.4388  0.0447
 2316ntf    fn413678   6.559   1.985   1.959  0.6461 -0.2791  0.1763
 2316ntf    fn413679   6.627   1.819   1.852  0.2533 -0.2104  1.0111
 2316ntf    fn413680   6.450   1.928   1.790 -0.2075 -0.6334 -0.0521
 2317ntf    cn113681   5.592   5.124   2.110 -0.2323  0.2371 -0.2272
 2317ntf    sn213682   5.766   5.167   2.145 -0.2302  0.2227 -0.2197
 2317ntf    nn313683   5.844   5.048   2.078  0.0236  0.1749  0.1605
 2317ntf    sn213684   5.970   5.064   1.987 -0.1028  0.3257  0.0090
 2317ntf    cn113685   5.879   5.092   1.832  0.0844 -0.3299 -0.2228
 2317ntf    fn413686   5.556   5.030   2.196 -0.3628  0.1445 -0.3854
 2317ntf    fn413687   5.506   5.224   2.126 -0.2484  0.0802  0.7113
 2317ntf    fn413688   5.580   5.082   1.986  0.5006  0.1023 -0.2598
 2317ntf    on513689   5.782   5.296   2.082 -0.5549  0.1751 -0.4060
 2317ntf    on513690   5.777   5.164   2.289  0.2093  0.4165 -0.2480
 2317ntf    on513691   6.031   4.934   1.971 -0.0299  0.4380 -0.6475
 2317ntf    on513692   6.055   5.179   2.007  0.2409  0.0231  0.3098
 2317ntf    fn413693   5.953   5.061   1.727  0.4061  0.2976 -0.1883
 2317ntf    fn413694   5.769   5.019   1.833 -0.2930  0.2351  0.1039
 2317ntf    fn413695   5.845   5.218   1.812 -0.1709 -0.2536  0.6475
 2318ntf    cn113696   2.768   0.159   5.073  0.3264 -0.0677 -0.0223
 2318ntf    sn213697   2.780   0.329   5.011  0.2098 -0.1456 -0.2583
 2318ntf    nn313698   2.929   0.365   5.044  0.2365  0.0074 -0.5396
 2318ntf    sn213699   3.052   0.274   5.007  0.1564 -0.2615 -0.1515
 2318ntf    cn113700   3.122   0.409   4.908 -0.4889  0.2076  0.0265
 2318ntf    fn413701   2.775   0.069   4.977 -0.1616 -0.5916  0.4263
 2318ntf    fn413702   2.855   0.129   5.168 -0.2684  0.0029  0.5517
 2318ntf    fn413703   2.648   0.137   5.123  0.0465  1.0602 -0.1749
 2318ntf    on513704   2.760   0.323   4.868  0.0215 -0.4446 -0.2203
 2318ntf    on513705   2.687   0.403   5.093  0.1845 -0.3276 -0.1217
 2318ntf    on513706   3.023   0.168   4.912 -0.3933  0.0395 -0.3231
 2318ntf    on513707   3.147   0.251   5.113  0.1535  0.4294  0.0019
 2318ntf    fn413708   3.092   0.533   4.944  0.1138  0.4604 -0.3238
 2318ntf    fn413709   3.254   0.402   4.905 -0.4293  1.2067 -0.3802
 2318ntf    fn413710   3.087   0.392   4.782 -0.5468 -0.1348  0.0886
 2319ntf    cn113711   4.387   5.571   4.774 -0.0754 -0.0198  0.4644
 2319ntf    sn213712   4.349   5.394   4.781 -0.1308 -0.0164  0.2799
 2319ntf    nn313713   4.343   5.350   4.631 -0.0399  0.1829  0.2180
 2319ntf    sn213714   4.222   5.290   4.550  0.0210  0.3400  0.0092
 2319ntf    cn113715   4.236   5.122   4.616 -0.2292  0.3954  0.2058
 2319ntf    fn413716   4.336   5.619   4.662 -0.2458 -0.5978  0.2909
 2319ntf    fn413717   4.352   5.640   4.881  0.8308  0.3515  0.5331
 2319ntf    fn413718   4.511   5.615   4.756 -0.0144 -0.2147  0.4101
 2319ntf    on513719   4.467   5.339   4.843  0.2311  0.3188 -0.1126
 2319ntf    on513720   4.227   5.401   4.858 -0.4660  0.0643 -0.2594
 2319ntf    on513721   4.247   5.275   4.409  0.8338  0.0838  0.1779
 2319ntf    on513722   4.088   5.330   4.584 -0.0473  0.1120  0.0062
 2319ntf    fn413723   4.361   5.087   4.592 -0.2333  0.4754  0.0662
 2319ntf    fn413724   4.196   5.098   4.740 -0.1266 -0.6752  0.0415
 2319ntf    fn413725   4.163   5.041   4.541  0.1076  0.4048 -0.1326
 2320ntf    cn113726   4.372   4.144   5.438 -0.3071 -0.0568  0.3132
 2320ntf    sn213727   4.241   4.054   5.527 -0.5393  0.2359  0.2701
 2320ntf    nn313728   4.175   3.981   5.405  0.7505 -0.4983 -0.0169
 2320ntf    sn213729   4.093   3.847   5.417  0.1237 -0.1569 -0.3918
 2320ntf    cn113730   4.217   3.731   5.352  0.0577 -0.3677 -0.1391
 2320ntf    fn413731   4.449   4.066   5.365 -0.5503  0.0136 -0.0237
 2320ntf    fn413732   4.306   4.222   5.354 -0.3629 -0.0566  0.3569
 2320ntf    fn413733   4.449   4.220   5.514  0.0648 -0.6866  0.5679
 2320ntf    on513734   4.321   3.972   5.615 -0.2563  0.3590  0.1288
 2320ntf    on513735   4.164   4.157   5.591 -0.6560  0.0594  0.4157
 2320ntf    on513736   3.990   3.846   5.317 -0.2710 -0.3866  0.0170
 2320ntf    on513737   4.059   3.801   5.549  0.2210  0.3955 -0.1715
 2320ntf    fn413738   4.317   3.727   5.439 -0.2293  0.1470  0.2155
 2320ntf    fn413739   4.157   3.613   5.346 -0.3565 -0.1855  0.3890
 2320ntf    fn413740   4.268   3.759   5.234 -0.3763 -0.0969 -0.2615
 2321ntf    cn113741   6.660   6.400   0.320  0.4627  0.1460  0.1202
 2321ntf    sn213742   6.576   6.526   0.220 -0.1255 -0.3491 -0.0163
 2321ntf    nn313743   6.643   6.651   0.289 -0.0995 -0.3262 -0.0819
 2321ntf    sn213744   6.747   6.751   0.229 -0.3660 -0.1553 -0.2654
 2321ntf    cn113745   6.819   6.805   0.387 -0.1775  0.0238 -0.4112
 2321ntf    fn413746   6.627   6.278   0.283  0.5708  0.2790 -0.4193
 2321ntf    fn413747   6.790   6.401   0.297  0.3977 -0.4227 -0.2960
 2321ntf    fn413748   6.634   6.417   0.449 -0.0784  0.5007 -0.0316
 2321ntf    on513749   6.604   6.492   0.083  0.1620  0.1000 -0.0704
 2321ntf    on513750   6.438   6.509   0.258 -0.3743  0.6504 -0.4372
 2321ntf    on513751   6.683   6.870   0.180  0.0154 -0.4455 -1.5028
 2321ntf    on513752   6.866   6.708   0.159 -0.0680 -0.1084  0.2000
 2321ntf    fn413753   6.895   6.911   0.364 -0.1731  0.0703 -0.1920
 2321ntf    fn413754   6.727   6.853   0.469 -0.1342  0.2185 -0.4778
 2321ntf    fn413755   6.891   6.725   0.465  0.0711  0.6783  0.0358
 2322ntf    cn113756   1.188   0.752   3.476  0.0927  0.1545  0.1272
 2322ntf    sn213757   1.282   0.884   3.558  0.0454  0.2592  0.0151
 2322ntf    nn313758   1.417   0.809   3.587  0.0061 -0.2102 -1.0040
 2322ntf    sn213759   1.543   0.868   3.660 -0.4359 -0.4461 -0.0360
 2322ntf    cn113760   1.655   0.892   3.518 -0.4624 -0.2952 -0.0315
 2322ntf    fn413761   1.060   0.776   3.452  0.0144 -0.2056  0.1907
 2322ntf    fn413762   1.235   0.714   3.358  0.4395  0.1837  0.2553
 2322ntf    fn413763   1.187   0.644   3.551  0.8123 -0.2490 -0.4364
 2322ntf    on513764   1.288   0.988   3.458 -0.3917  0.8197  0.5619
 2322ntf    on513765   1.213   0.916   3.681 -0.8966 -0.4650 -0.3113
 2322ntf    on513766   1.608   0.766   3.739  0.0388  0.1958  0.4127
 2322ntf    on513767   1.524   0.998   3.718  0.5964 -0.5461  0.5397
 2322ntf    fn413768   1.633   1.005   3.453 -0.2472 -0.2078  0.0467
 2322ntf    fn413769   1.783   0.899   3.548 -0.4993  0.1701  0.0173
 2322ntf    fn413770   1.636   0.800   3.425 -0.4485 -0.1039 -0.2226
 2323ntf    cn113771   2.111   2.648   3.047 -0.1015 -0.0235 -0.0159
 2323ntf    sn213772   2.236   2.769   2.994 -0.0313 -0.0277  0.1384
 2323ntf    nn313773   2.146   2.898   2.991  0.0573  0.0321  0.0201
 2323ntf    sn213774   2.132   3.009   3.101 -0.1368 -0.0625  0.0918
 2323ntf    cn113775   2.284   3.110   3.092 -0.2806  0.1504  0.0449
 2323ntf    fn413776   2.167   2.528   3.057  0.0202  0.0362  0.0234
 2323ntf    fn413777   2.062   2.673   3.167  0.0853 -0.7612  0.2171
 2323ntf    fn413778   2.014   2.635   2.958  0.0644 -0.2598 -0.1652
 2323ntf    on513779   2.342   2.766   3.092  0.0190 -0.9123  0.0677
 2323ntf    on513780   2.278   2.727   2.863 -0.2094  0.7747 -0.1843
 2323ntf    on513781   2.130   2.952   3.233  0.7573  0.5534  0.3804
 2323ntf    on513782   2.028   3.102   3.066  0.0951 -0.2569 -1.1545
 2323ntf    fn413783   2.388   3.051   3.148 -0.3759 -0.2613 -0.2067
 2323ntf    fn413784   2.314   3.125   2.964 -0.3043  0.2269  0.0487
 2323ntf    fn413785   2.285   3.233   3.140  0.4101  0.2167 -0.1291
 2324ntf    cn113786   0.727   3.608   5.052 -0.0554  0.0139 -0.5695
 2324ntf    sn213787   0.855   3.512   5.139 -0.1249  0.6266  0.2171
 2324ntf    nn313788   0.823   3.361   5.112  0.4322  0.4406  0.5867
 2324ntf    sn213789   0.719   3.275   5.192  0.0143  0.1888 -0.2211
 2324ntf    cn113790   0.611   3.214   5.058 -0.1254  0.4863 -0.2435
 2324ntf    fn413791   0.604   3.563   5.074  0.1036 -0.5185 -0.7353
 2324ntf    fn413792   0.711   3.734   5.088 -0.2615 -0.1757  0.0145
 2324ntf    fn413793   0.736   3.612   4.920  0.3385 -0.1638 -0.5495
 2324ntf    on513794   0.972   3.562   5.071 -0.3090  0.3210 -0.3296
 2324ntf    on513795   0.845   3.559   5.275  0.5380  0.3050  0.3791
 2324ntf    on513796   0.635   3.345   5.285  0.2540  0.3910 -0.1578
 2324ntf    on513797   0.774   3.155   5.250 -1.0812  0.0143  0.5037
 2324ntf    fn413798   0.519   3.127   5.095  0.3331  0.2728  0.4130
 2324ntf    fn413799   0.545   3.312   4.997  0.2122  0.5297 -0.5399
 2324ntf    fn413800   0.677   3.161   4.956 -0.1305  0.0148 -0.0041
 2325ntf    cn113801   1.232   4.570   4.914  0.0430  0.0489  0.2287
 2325ntf    sn213802   1.090   4.665   4.975 -0.0025 -0.0412  0.2629
 2325ntf    nn313803   0.975   4.558   4.973  0.2979 -0.3596 -0.3671
 2325ntf    sn213804   0.882   4.524   4.851 -0.1117 -0.1284 -0.1244
 2325ntf    cn113805   0.732   4.607   4.911  0.3381  0.3088  0.4117
 2325ntf    fn413806   1.272   4.481   5.004  0.6139 -0.0999 -0.1646
 2325ntf    fn413807   1.209   4.494   4.808  0.1693 -0.0577  0.2783
 2325ntf    fn413808   1.338   4.645   4.891  0.1139  0.0961  0.6910
 2325ntf    on513809   1.131   4.695   5.110 -0.0832  0.0265  0.2724
 2325ntf    on513810   1.084   4.784   4.894  1.1379 -0.1891 -0.0495
 2325ntf    on513811   0.849   4.383   4.854 -0.2452 -0.0835  0.9817
 2325ntf    on513812   0.912   4.587   4.725 -0.4514  0.3042  0.0097
 2325ntf    fn413813   0.750   4.736   4.931 -0.3392  0.4896 -0.1051
 2325ntf    fn413814   0.642   4.597   4.814  0.1535  0.7954  0.5287
 2325ntf    fn413815   0.693   4.551   5.025  0.4198 -0.4808  0.0593
 2326ntf    cn113816   2.201   2.432   5.142 -0.4654 -0.2424  0.3259
 2326ntf    sn213817   2.163   2.285   5.042 -0.5699 -0.0990  0.1543
 2326ntf    nn313818   2.013   2.249   5.073 -0.9211  0.9445 -0.2926
 2326ntf    sn213819   1.926   2.147   4.993  0.0652  0.2572 -0.5127
 2326ntf    cn113820   1.900   2.021   5.122 -0.2013  0.3973 -0.4285
 2326ntf    fn413821   2.157   2.406   5.264 -0.1173 -0.1565  0.4736
 2326ntf    fn413822   2.329   2.465   5.145 -0.4344 -0.3760  0.5276
 2326ntf    fn413823   2.144   2.545   5.103 -0.1155 -0.1848 -0.0297
 2326ntf    on513824   2.186   2.320   4.904  0.2590 -0.4908  0.1849
 2326ntf    on513825   2.254   2.187   5.096 -0.3828  0.0667  0.1401
 2326ntf    on513826   1.988   2.076   4.884  0.2616 -0.1881 -0.1163
 2326ntf    on513827   1.788   2.182   4.967 -0.3953 -0.7321  0.4894
 2326ntf    fn413828   1.830   2.062   5.226 -0.0591  0.7615 -0.4760
 2326ntf    fn413829   1.838   1.911   5.083  0.1322 -0.0202  0.2068
 2326ntf    fn413830   2.010   1.979   5.182 -0.0935  0.3571 -0.6534
 2327ntf    cn113831   0.592   1.222   1.646 -0.2887  0.0667 -0.1092
 2327ntf    sn213832   0.599   1.371   1.543  0.1150  0.0260 -0.1440
 2327ntf    nn313833   0.756   1.374   1.544  0.1057  0.4392  0.7899
 2327ntf    sn213834   0.859   1.489   1.570  0.3764  0.3390  0.1593
 2327ntf    cn113835   0.996   1.433   1.464  0.1116 -0.2920  0.1487
 2327ntf    fn413836   0.468   1.179   1.664 -0.2373  0.0846  0.3028
 2327ntf    fn413837   0.656   1.116   1.600 -0.3956  0.1027 -0.3404
 2327ntf    fn413838   0.643   1.249   1.765 -0.1062  0.2118 -0.2198
 2327ntf    on513839   0.531   1.328   1.423  0.3888  0.0607 -0.3117
 2327ntf    on513840   0.542   1.477   1.623  0.2804  0.3353 -0.4330
 2327ntf    on513841   0.913   1.490   1.703  0.3466 -0.2960  0.1797
 2327ntf    on513842   0.832   1.615   1.504  0.7780  0.1871 -0.3049
 2327ntf    fn413843   0.966   1.421   1.336  0.2033 -0.5810  0.1541
 2327ntf    fn413844   1.095   1.519   1.455  0.5903 -0.8690 -0.1943
 2327ntf    fn413845   1.051   1.317   1.497 -0.5285 -0.6322  0.0331
 2328ntf    cn113846   3.828   4.907   5.612  0.0163  0.0500  0.0105
 2328ntf    sn213847   3.800   5.081   5.657  0.5353  0.1836 -0.1658
 2328ntf    nn313848   3.697   5.112   5.543  0.2438 -0.2000 -0.0133
 2328ntf    sn213849   3.679   5.246   5.462  0.3098  0.0905  0.4440
 2328ntf    cn113850   3.500   5.267   5.483  0.2509 -0.0443  0.0890
 2328ntf    fn413851   3.719   4.833   5.626 -0.0337  0.0969 -0.1261
 2328ntf    fn413852   3.875   4.893   5.489 -0.2173 -0.4463 -0.0255
 2328ntf    fn413853   3.924   4.861   5.691  0.4220  0.2292 -0.3702
 2328ntf    on513854   3.752   5.070   5.793  0.4304  0.7752 -0.1549
 2328ntf    on513855   3.932   5.134   5.640  0.4733  0.3910 -0.0063
 2328ntf    on513856   3.699   5.229   5.320  0.3483  0.4233  0.4096
 2328ntf    on513857   3.737   5.359   5.530  0.1703  0.7707 -0.5397
 2328ntf    fn413858   3.436   5.334   5.389  0.4233  0.0044  0.0055
 2328ntf    fn413859   3.430   5.154   5.481 -0.7718  0.5861 -0.1983
 2328ntf    fn413860   3.477   5.322   5.601 -0.1456 -0.6175  0.2855
 2329ntf    cn113861   5.088   4.469   6.677 -0.0496  0.2439  0.0443
 2329ntf    sn213862   5.063   4.598   6.552  0.0977  0.1537 -0.0791
 2329ntf    nn313863   4.973   4.530   6.443  0.5125 -0.6238  0.0603
 2329ntf    sn213864   4.849   4.581   6.363  0.3403 -0.1166  0.6517
 2329ntf    cn113865   4.896   4.548   6.191  0.0429  0.2391  0.4990
 2329ntf    fn413866   5.153   4.527   6.777  0.2031  0.2930 -0.1477
 2329ntf    fn413867   4.979   4.401   6.707  0.4138 -0.6011 -0.1267
 2329ntf    fn413868   5.165   4.372   6.630  0.2578  0.7015 -0.4081
 2329ntf    on513869   5.004   4.704   6.629 -0.2924  0.1107 -0.3167
 2329ntf    on513870   5.196   4.629   6.505  0.4023 -0.0402  0.6403
 2329ntf    on513871   4.827   4.724   6.368  0.1202 -0.1103 -0.2318
 2329ntf    on513872   4.733   4.494   6.366 -0.0447  0.3352 -0.4327
 2329ntf    fn413873   5.023   4.576   6.166 -0.0815  0.4300  0.0738
 2329ntf    fn413874   4.875   4.421   6.160 -0.2077  0.3219  0.3272
 2329ntf    fn413875   4.825   4.621   6.106  0.0037  0.1664  0.4684
 2330ntf    cn113876   5.353   4.716   4.901  0.1144 -0.1095 -0.1909
 2330ntf    sn213877   5.402   4.542   4.883 -0.1029 -0.2057  0.1407
 2330ntf    nn313878   5.425   4.501   5.033 -0.0217  0.5828  0.3506
 2330ntf    sn213879   5.555   4.522   5.117  0.1557  0.1247  0.1948
 2330ntf    cn113880   5.490   4.652   5.226  0.2424  0.3952 -0.0746
 2330ntf    fn413881   5.312   4.775   4.789 -0.1950 -0.1700 -0.1085
 2330ntf    fn413882   5.255   4.725   4.989 -0.1389  0.3113 -0.5067
 2330ntf    fn413883   5.449   4.795   4.946  0.1254 -0.2807  0.0846
 2330ntf    on513884   5.288   4.484   4.817  0.2558 -0.1928 -0.5005
 2330ntf    on513885   5.525   4.539   4.808 -0.1650 -0.1143  0.0347
 2330ntf    on513886   5.665   4.587   5.049  0.3395 -0.3958 -0.0158
 2330ntf    on513887   5.594   4.406   5.194 -0.6831  0.3125  0.9036
 2330ntf    fn413888   5.584   4.734   5.270  0.3200  0.2045  0.1184
 2330ntf    fn413889   5.413   4.732   5.154  0.2566  0.2450 -0.2566
 2330ntf    fn413890   5.414   4.602   5.322  0.6507  0.6312  0.3765
 2331ntf    cn113891   1.950   6.034   4.719  0.2042 -0.2204  0.0256
 2331ntf    sn213892   2.061   6.033   4.863 -0.0624  0.0873  0.2360
 2331ntf    nn313893   2.198   6.066   4.794 -0.1380 -0.8727 -0.3908
 2331ntf    sn213894   2.346   6.045   4.843 -0.0315 -0.1802 -0.4005
 2331ntf    cn113895   2.416   6.212   4.844  0.0903 -0.2327  0.1698
 2331ntf    fn413896   1.825   6.008   4.756  0.0052  0.2420 -0.3129
 2331ntf    fn413897   1.957   6.145   4.649  0.3548 -0.4000 -0.2459
 2331ntf    fn413898   1.980   5.938   4.633  0.1279 -0.2256  0.0049
 2331ntf    on513899   2.004   6.147   4.930  0.0936  0.0798  0.3809
 2331ntf    on513900   2.048   5.899   4.916 -0.7500 -0.0355 -0.2316
 2331ntf    on513901   2.426   5.978   4.744  0.2392 -0.1217 -0.2225
 2331ntf    on513902   2.371   5.994   4.976 -0.2694 -0.3626 -0.4245
 2331ntf    fn413903   2.514   6.230   4.758  0.2503 -0.4247  0.3125
 2331ntf    fn413904   2.334   6.315   4.830  0.3882  0.0647  0.5927
 2331ntf    fn413905   2.466   6.247   4.962 -0.5911 -0.0109  0.4014
 2332ntf    cn113906   5.276   1.848   6.375  0.2021  0.6511  0.2591
 2332ntf    sn213907   5.422   1.917   6.459  0.3488  0.2627  0.3276
 2332ntf    nn313908   5.404   2.072   6.436 -0.0620  0.1787  0.0671
 2332ntf    sn213909   5.490   2.170   6.349  0.0984 -0.0204  0.0014
 2332ntf    cn113910   5.584   2.260   6.475  0.2308 -0.3357  0.1278
 2332ntf    fn413911   5.217   1.934   6.294  0.1879  0.2689 -0.1393
 2332ntf    fn413912   5.317   1.742   6.307  0.2261  0.5068  0.4952
 2332ntf    fn413913   5.186   1.811   6.464 -0.3143  0.0609 -0.4931
 2332ntf    on513914   5.408   1.869   6.594 -0.1511  0.7895  0.4668
 2332ntf    on513915   5.530   1.860   6.382  0.7211  0.0992  0.9650
 2332ntf    on513916   5.422   2.277   6.280  0.3434 -0.0593 -0.3021
 2332ntf    on513917   5.585   2.111   6.258 -0.8119 -0.5984 -0.6028
 2332ntf    fn413918   5.678   2.332   6.416 -0.3954  0.5886  0.2439
 2332ntf    fn413919   5.503   2.344   6.536  0.3588  0.0383 -0.2151
 2332ntf    fn413920   5.636   2.175   6.563 -0.4705 -0.3461  0.5451
 2333ntf    cn113921   3.284   2.183   4.977  0.1129  0.2184 -0.1221
 2333ntf    sn213922   3.358   2.035   4.900 -0.5392 -0.2555  0.1487
 2333ntf    nn313923   3.486   2.019   4.990 -0.1940 -0.1468 -0.3180
 2333ntf    sn213924   3.557   1.892   5.048  0.0724  0.2562  0.2448
 2333ntf    cn113925   3.483   1.893   5.213  0.1223  0.2488  0.2675
 2333ntf    fn413926   3.355   2.294   4.982 -0.0973  0.3301  0.3988
 2333ntf    fn413927   3.170   2.219   4.920 -0.0237  0.0209  0.0244
 2333ntf    fn413928   3.259   2.165   5.106 -0.0387  0.4173 -0.1232
 2333ntf    on513929   3.260   1.933   4.925 -0.0614 -0.6572  0.3883
 2333ntf    on513930   3.388   2.081   4.766  0.2392 -0.1529  0.3521
 2333ntf    on513931   3.695   1.915   5.084  0.1639 -0.1977  0.1836
 2333ntf    on513932   3.514   1.766   4.993  0.4578 -0.3043  1.2074
 2333ntf    fn413933   3.502   1.784   5.286 -0.2983  0.3547  0.5432
 2333ntf    fn413934   3.537   1.991   5.284  0.6224  0.2436 -0.1057
 2333ntf    fn413935   3.351   1.902   5.213  0.1252  0.3054  0.4089
 2334ntf    cn113936   1.467   2.764   3.883  0.0329  0.2094 -0.3171
 2334ntf    sn213937   1.408   2.880   4.010  0.4293 -0.0173  0.0778
 2334ntf    nn313938   1.421   2.793   4.140  0.2003 -0.4718 -0.1974
 2334ntf    sn213939   1.538   2.789   4.245  0.2142 -0.3001 -0.2045
 2334ntf    cn113940   1.504   2.622   4.309 -0.0902 -0.1871 -0.0720
 2334ntf    fn413941   1.584   2.702   3.891  0.2132  0.4850 -0.7684
 2334ntf    fn413942   1.381   2.664   3.892  0.0813  0.2321  0.4654
 2334ntf    fn413943   1.463   2.811   3.759  0.2635 -0.1735 -0.4742
 2334ntf    on513944   1.491   2.997   3.999  0.0414  0.3178  0.6858
 2334ntf    on513945   1.267   2.904   3.987  0.4059 -0.1147  0.1170
 2334ntf    on513946   1.515   2.875   4.358 -0.0937 -0.7470  0.0766
 2334ntf    on513947   1.667   2.773   4.183  0.4696  1.4532 -0.1609
 2334ntf    fn413948   1.384   2.607   4.363 -0.2921  0.6810 -0.2702
 2334ntf    fn413949   1.511   2.529   4.215 -0.2300 -0.5348  0.2572
 2334ntf    fn413950   1.582   2.587   4.410 -0.4791  0.4128  0.4442
 2335ntf    cn113951   2.851   1.071   5.254  0.2923  0.1349  0.1582
 2335ntf    sn213952   2.709   1.140   5.163  0.1290 -0.1205  0.2163
 2335ntf    nn313953   2.597   1.091   5.262  0.4348 -0.4936  0.3798
 2335ntf    sn213954   2.512   0.960   5.250 -0.3113  0.0185  0.0042
 2335ntf    cn113955   2.346   1.028   5.218 -0.1221  0.3442 -0.2907
 2335ntf    fn413956   2.965   1.080   5.188  0.1516 -0.1587 -0.1288
 2335ntf    fn413957   2.869   1.108   5.380  0.1969 -0.3941  0.3300
 2335ntf    fn413958   2.837   0.940   5.266 -0.1973  0.1586 -0.1123
 2335ntf    on513959   2.729   1.282   5.179  0.0608 -0.0330 -0.4290
 2335ntf    on513960   2.709   1.089   5.028  0.0312 -0.2390  0.2610
 2335ntf    on513961   2.500   0.895   5.379  0.6174  0.3599  0.2693
 2335ntf    on513962   2.542   0.877   5.136  0.3233  0.2852 -0.0225
 2335ntf    fn413963   2.247   0.943   5.198  0.0092  0.3089 -0.7968
 2335ntf    fn413964   2.315   1.100   5.325 -0.3452  0.0593 -0.1592
 2335ntf    fn413965   2.341   1.105   5.111 -0.0140 -0.1760 -0.6772
 2336ntf    cn113966   2.823   0.575   0.978  0.2896 -0.2805 -0.1437
 2336ntf    sn213967   2.874   0.569   0.803 -0.6044 -0.1705 -0.4167
 2336ntf    nn313968   2.747   0.512   0.731 -0.8218 -0.1414 -0.0586
 2336ntf    sn213969   2.705   0.361   0.714 -0.1692 -0.3505  0.1344
 2336ntf    cn113970   2.591   0.365   0.572  0.2628 -0.4138 -0.2176
 2336ntf    fn413971   2.718   0.654   0.997  0.3706 -0.3027  0.3900
 2336ntf    fn413972   2.791   0.455   1.023  0.5685 -0.2528  0.1280
 2336ntf    fn413973   2.912   0.629   1.060 -0.3165  0.1517  0.2393
 2336ntf    on513974   2.891   0.709   0.774  0.3251 -0.0883  0.4703
 2336ntf    on513975   2.997   0.493   0.807 -0.7427 -0.3715  0.2518
 2336ntf    on513976   2.638   0.304   0.828  0.0098 -0.3606  0.2340
 2336ntf    on513977   2.808   0.279   0.655 -0.1558 -0.1595 -0.1135
 2336ntf    fn413978   2.644   0.427   0.468  0.2693  0.1941  0.1484
 2336ntf    fn413979   2.552   0.241   0.544 -0.1415 -0.2439 -0.4141
 2336ntf    fn413980   2.481   0.434   0.596  0.4927 -0.1929  0.2061
 2337ntf    cn113981   5.413   2.852   1.996  0.1468 -0.0436 -0.2359
 2337ntf    sn213982   5.381   3.020   2.057  0.2864 -0.1206  0.0496
 2337ntf    nn313983   5.514   3.046   2.135  0.5640 -0.9668 -0.1351
 2337ntf    sn213984   5.545   3.033   2.289  0.0378  0.0571  0.0632
 2337ntf    cn113985   5.549   3.210   2.330  0.5686 -0.0466  0.4661
 2337ntf    fn413986   5.398   2.756   2.086  0.1321 -0.0395 -0.2337
 2337ntf    fn413987   5.336   2.831   1.890  0.0873  0.2581 -0.2525
 2337ntf    fn413988   5.532   2.838   1.940  0.0106  0.1769 -0.5845
 2337ntf    on513989   5.368   3.093   1.933 -0.2652 -0.5904 -0.1766
 2337ntf    on513990   5.261   3.010   2.137  0.2700 -0.3925 -0.0052
 2337ntf    on513991   5.682   2.998   2.319 -0.0503 -0.0887  0.2917
 2337ntf    on513992   5.436   2.993   2.375 -0.2526 -0.2183 -0.4266
 2337ntf    fn413993   5.436   3.273   2.304  0.1501 -0.9700  0.0105
 2337ntf    fn413994   5.568   3.231   2.459 -0.1614  0.3322  0.5118
 2337ntf    fn413995   5.650   3.272   2.269  0.2464  0.0885  0.0640
 2338ntf    cn113996   6.426   4.261   0.247 -0.0531 -0.6126  0.5315
 2338ntf    sn213997   6.512   4.372   0.363 -0.0056 -0.3282  0.2255
 2338ntf    nn313998   6.656   4.310   0.360  0.1062 -0.0646  0.1373
 2338ntf    sn213999   6.726   4.212   0.461 -0.1019 -0.1421  0.2078
 2338ntf    cn114000   6.829   4.327   0.557  0.0682  0.0100 -0.1552
 2338ntf    fn414001   6.294   4.261   0.242 -0.0329 -0.4569 -0.1282
 2338ntf    fn414002   6.462   4.282   0.121 -0.1842 -0.1474  0.5705
 2338ntf    fn414003   6.462   4.136   0.271  0.6426 -0.4511  0.3737
 2338ntf    on514004   6.505   4.503   0.305  0.3089 -0.3528  0.1356
 2338ntf    on514005   6.438   4.363   0.487 -0.1543  0.1109  0.1707
 2338ntf    on514006   6.826   4.138   0.387 -0.2515  0.3819 -0.5353
 2338ntf    on514007   6.640   4.149   0.558 -0.3403 -0.4987 -0.2306
 2338ntf    fn414008   6.913   4.266   0.639  0.0194  0.3559  0.1546
 2338ntf    fn414009   6.910   4.410   0.493  0.1696 -0.0683 -0.1267
 2338ntf    fn414010   6.748   4.398   0.634 -0.6141  0.1135 -0.9414
 2339ntf    cn114011   4.297   5.761   5.443 -0.3211  0.2875  0.0226
 2339ntf    sn214012   4.135   5.818   5.502 -0.3460  0.1360  0.1003
 2339ntf    nn314013   4.041   5.790   5.379  0.5666 -0.3421 -0.5025
 2339ntf    sn214014   4.048   5.658   5.294 -0.1335 -0.4534 -0.3960
 2339ntf    cn114015   3.871   5.647   5.255 -0.2069  0.0737 -0.2136
 2339ntf    fn414016   4.391   5.803   5.526 -0.2750 -0.0631  0.1461
 2339ntf    fn414017   4.309   5.629   5.443  0.3491  0.3453  0.1249
 2339ntf    fn414018   4.334   5.798   5.321  0.2667  0.0526  0.1251
 2339ntf    on514019   4.099   5.729   5.610  0.1560 -0.1499  0.0365
 2339ntf    on514020   4.168   5.956   5.527  0.3964  0.0974 -0.6275
 2339ntf    on514021   4.076   5.543   5.376  0.1920  0.1880  0.4102
 2339ntf    on514022   4.115   5.665   5.166 -0.6568  0.1178 -0.6429
 2339ntf    fn414023   3.808   5.579   5.350  0.1225  0.6305  0.4167
 2339ntf    fn414024   3.809   5.764   5.245 -0.3476  0.0284  0.1101
 2339ntf    fn414025   3.844   5.587   5.141  0.0527 -0.1005 -0.1840
 2340ntf    cn114026   2.461   6.965   3.755 -0.2948 -0.2868  0.1425
 2340ntf    sn214027   2.508   6.915   3.587  0.0965 -0.1847  0.2202
 2340ntf    nn314028   2.643   6.849   3.630 -0.1729 -0.6535  0.3607
 2340ntf    sn214029   2.704   6.704   3.623  0.0190 -0.5520 -0.1559
 2340ntf    cn114030   2.764   6.707   3.452  0.0395 -0.2172 -0.1429
 2340ntf    fn414031   2.354   7.043   3.756  0.1124  0.2778 -0.1640
 2340ntf    fn414032   2.426   6.857   3.824 -0.3055 -0.0623  0.4933
 2340ntf    fn414033   2.565   7.020   3.816 -0.1964 -0.1034 -0.1907
 2340ntf    on514034   2.396   6.833   3.546  0.5560 -0.4134 -0.5968
 2340ntf    on514035   2.533   7.032   3.508  0.1901  0.1527  0.7470
 2340ntf    on514036   2.603   6.601   3.630 -0.1330 -0.3316  1.1586
 2340ntf    on514037   2.825   6.695   3.700 -0.4323 -0.6484  0.5526
 2340ntf    fn414038   2.878   6.773   3.442 -0.2447  0.3867  0.5546
 2340ntf    fn414039   2.779   6.582   3.411  0.1009 -0.2830  0.0802
 2340ntf    fn414040   2.678   6.771   3.374 -0.3294 -0.2474  0.2364
 2341ntf    cn114041   4.540   5.575   0.255 -0.0216 -0.2227  0.2294
 2341ntf    sn214042   4.597   5.491   0.104 -0.1326 -0.1235  0.1330
 2341ntf    nn314043   4.742   5.550   0.109 -0.2495  0.1759  0.0508
 2341ntf    sn214044   4.798   5.660   0.012  0.0987 -0.0595 -0.0160
 2341ntf    cn114045   4.916   5.730   0.131  0.2850  0.1715 -0.3354
 2341ntf    fn414046   4.531   5.706   0.241  0.0137 -0.3034 -0.5626
 2341ntf    fn414047   4.415   5.544   0.285 -0.2308  0.5628  0.1894
 2341ntf    fn414048   4.615   5.549   0.362 -0.2028  0.1270  0.4412
 2341ntf    on514049   4.583   5.352   0.141 -0.5938 -0.0689  0.1761
 2341ntf    on514050   4.499   5.539   0.010  0.0856 -0.0392 -0.0517
 2341ntf    on514051   4.718   5.776  -0.014 -0.0538 -0.1750 -0.0651
 2341ntf    on514052   4.889   5.627  -0.095  0.4073  0.5520  0.0538
 2341ntf    fn414053   4.868   5.740   0.253  0.0239 -0.1249 -0.4130
 2341ntf    fn414054   5.026   5.658   0.148  0.0568 -0.0610  0.1517
 2341ntf    fn414055   4.958   5.853   0.106  0.4074  0.2915  0.4392
 2342ntf    cn114056   4.900   4.029   1.740  0.0319 -0.3596 -0.0492
 2342ntf    sn214057   5.076   4.014   1.695  0.0636 -0.3395  0.0686
 2342ntf    nn314058   5.141   3.991   1.836  0.8436  0.3104 -0.1762
 2342ntf    sn214059   5.199   3.860   1.900  0.2494  0.0668 -0.1265
 2342ntf    cn114060   5.338   3.836   1.786 -0.0557  0.0428 -0.4948
 2342ntf    fn414061   4.848   3.919   1.790 -0.1283 -0.1350  0.2843
 2342ntf    fn414062   4.878   4.125   1.829 -0.2374 -0.0334 -0.4637
 2342ntf    fn414063   4.821   4.063   1.640  0.1572 -0.1783 -0.0876
 2342ntf    on514064   5.082   3.908   1.598 -0.2901  0.1232 -0.4651
 2342ntf    on514065   5.114   4.141   1.639 -0.0639 -0.1757  0.3521
 2342ntf    on514066   5.116   3.744   1.877  0.2192  0.0509  0.0571
 2342ntf    on514067   5.249   3.880   2.034  0.4787 -0.1634 -0.1761
 2342ntf    fn414068   5.454   3.800   1.839 -0.1857  0.3336 -0.0064
 2342ntf    fn414069   5.306   3.744   1.697  0.4023 -0.3764 -0.2337
 2342ntf    fn414070   5.359   3.943   1.710  0.4199  0.4958  0.2557
 2343ntf    cn114071   0.706   3.857   2.834  0.3696  0.1450 -0.1428
 2343ntf    sn214072   0.661   3.713   2.732  0.1528  0.2004 -0.1256
 2343ntf    nn314073   0.615   3.610   2.841 -0.1128  0.4801  0.0319
 2343ntf    sn214074   0.601   3.453   2.847  0.0237  0.4670  0.0204
 2343ntf    cn114075   0.741   3.418   2.957  0.0062  0.3352  0.0010
 2343ntf    fn414076   0.775   3.945   2.763 -0.1143  0.1404 -0.6181
 2343ntf    fn414077   0.601   3.928   2.872  0.3446  0.1318 -0.1879
 2343ntf    fn414078   0.777   3.818   2.939  0.2422 -0.0743 -0.1384
 2343ntf    on514079   0.557   3.762   2.646 -0.0150  0.1456  0.0463
 2343ntf    on514080   0.786   3.664   2.678  0.2768  0.2720  0.0916
 2343ntf    on514081   0.640   3.382   2.727 -0.5520  0.0715  0.0616
 2343ntf    on514082   0.491   3.404   2.926  0.3117  0.0079  0.1431
 2343ntf    fn414083   0.839   3.508   2.960 -0.2755  0.6339  0.3680
 2343ntf    fn414084   0.696   3.407   3.081  0.2877 -0.3818  0.0411
 2343ntf    fn414085   0.795   3.300   2.933 -0.1451  0.3121 -0.2297
 2344ntf    cn114086   5.121   4.187   5.840  0.0601 -0.1041  0.4110
 2344ntf    sn214087   5.180   4.275   5.692  0.3067 -0.2505  0.4213
 2344ntf    nn314088   5.329   4.233   5.667  0.3515  0.0622  0.1578
 2344ntf    sn214089   5.385   4.166   5.536  0.0415 -0.1118  0.1148
 2344ntf    cn114090   5.557   4.224   5.531  0.0013 -0.0060 -0.0214
 2344ntf    fn414091   5.137   4.056   5.830 -0.1584 -0.0624 -0.5718
 2344ntf    fn414092   5.187   4.229   5.947  0.0079  0.0776  0.3725
 2344ntf    fn414093   4.992   4.206   5.860  0.1346  0.0527  0.7558
 2344ntf    on514094   5.076   4.222   5.608 -0.4716  1.1644  0.4580
 2344ntf    on514095   5.157   4.415   5.719  0.2211 -0.1762 -0.0372
 2344ntf    on514096   5.326   4.218   5.415 -0.2520  0.3541  0.4560
 2344ntf    on514097   5.407   4.024   5.545  0.0344 -0.1133  0.1105
 2344ntf    fn414098   5.630   4.201   5.638 -0.1081  0.1870  0.0941
 2344ntf    fn414099   5.632   4.171   5.436  0.0533  0.3850 -0.1996
 2344ntf    fn414100   5.548   4.353   5.507 -0.2472 -0.0071  0.0585
 2345ntf    cn114101   6.056   5.751   0.738  0.2322 -0.1152 -0.2886
 2345ntf    sn214102   6.082   5.839   0.581  0.0137  0.0495 -0.2326
 2345ntf    nn314103   5.944   5.812   0.512 -0.2485 -0.3074  0.4260
 2345ntf    sn214104   5.902   5.728   0.386  0.0781 -0.0484  0.1439
 2345ntf    cn114105   5.898   5.855   0.256  0.1414  0.0142  0.2032
 2345ntf    fn414106   6.162   5.710   0.806  0.0154 -0.2099 -0.0077
 2345ntf    fn414107   5.987   5.820   0.826  0.4866  0.1961 -0.3301
 2345ntf    fn414108   5.992   5.639   0.709 -0.3421  0.3204 -0.7301
 2345ntf    on514109   6.098   5.981   0.605  0.3048  0.0194 -0.2421
 2345ntf    on514110   6.197   5.772   0.526  0.0923 -0.2257  0.2645
 2345ntf    on514111   5.770   5.673   0.403  0.1623 -0.1521  0.4545
 2345ntf    on514112   6.006   5.636   0.347 -0.3652 -0.0315 -1.1473
 2345ntf    fn414113   5.888   5.802   0.135 -0.1857 -0.1544  0.3022
 2345ntf    fn414114   5.803   5.945   0.277 -0.0657  0.0097 -0.6920
 2345ntf    fn414115   6.006   5.931   0.243 -0.0360  0.1013 -0.9047
 2346ntf    cn114116   2.850   6.717   1.318 -0.1728 -0.2268 -0.0373
 2346ntf    sn214117   2.769   6.871   1.368  0.2653 -0.0172  0.0292
 2346ntf    nn314118   2.866   6.977   1.304  0.3808 -0.1609 -0.0345
 2346ntf    sn214119   2.880   7.020   1.154 -0.2937 -0.0825 -0.0805
 2346ntf    cn114120   2.957   7.184   1.175 -0.1102 -0.1710 -0.0583
 2346ntf    fn414121   2.975   6.730   1.359 -0.2144  0.4861 -0.1223
 2346ntf    fn414122   2.803   6.606   1.372  0.5868 -0.6521 -0.2326
 2346ntf    fn414123   2.855   6.689   1.188 -0.0904  0.4494 -0.1800
 2346ntf    on514124   2.644   6.878   1.296  0.4445  0.2917 -0.2563
 2346ntf    on514125   2.758   6.863   1.511  0.1813  0.0810  0.0288
 2346ntf    on514126   2.753   7.063   1.101 -0.3044 -0.3828 -0.2979
 2346ntf    on514127   2.974   6.948   1.072  0.2751  0.2325  0.2800
 2346ntf    fn414128   2.880   7.260   1.251 -0.2447  0.1652 -0.5281
 2346ntf    fn414129   3.080   7.184   1.225 -0.0460 -0.2421 -0.2159
 2346ntf    fn414130   2.980   7.249   1.062 -0.0887 -0.1073 -0.0172
 2347ntf    cn114131   1.781   6.456   2.736 -0.1874  0.2985 -0.0879
 2347ntf    sn214132   1.892   6.332   2.663 -0.0838  0.1368  0.3415
 2347ntf    nn314133   1.920   6.404   2.526 -0.3438 -0.8082 -0.2289
 2347ntf    sn214134   2.060   6.404   2.455 -0.2559  0.2344 -0.0776
 2347ntf    cn114135   2.017   6.374   2.281  0.3673 -0.1449 -0.1703
 2347ntf    fn414136   1.652   6.439   2.716 -0.2519  0.3933  0.2435
 2347ntf    fn414137   1.795   6.476   2.866  0.7619 -0.0464 -0.1292
 2347ntf    fn414138   1.806   6.572   2.677 -0.1304  0.4773  0.2874
 2347ntf    on514139   1.995   6.321   2.762 -0.3140  0.4309  0.6140
 2347ntf    on514140   1.808   6.217   2.638  0.0256  0.0941  0.1632
 2347ntf    on514141   2.145   6.292   2.491  0.1434  0.2973 -0.8084
 2347ntf    on514142   2.111   6.538   2.440 -0.2513  0.3101  0.5891
 2347ntf    fn414143   1.994   6.477   2.202 -0.1662 -0.0541  0.0964
 2347ntf    fn414144   2.121   6.310   2.230  0.7037 -0.0502  0.3838
 2347ntf    fn414145   1.916   6.289   2.276  0.0367  0.2112  0.3109
 2348ntf    cn114146   1.934   2.596   2.384  0.2730 -0.5228 -0.0426
 2348ntf    sn214147   1.838   2.477   2.286 -0.2843 -0.2742  0.1953
 2348ntf    nn314148   1.793   2.375   2.396 -1.2129  0.3428  0.3940
 2348ntf    sn214149   1.765   2.222   2.370  0.2115  0.1194  0.0961
 2348ntf    cn114150   1.591   2.201   2.418  0.2616 -0.1909  0.1410
 2348ntf    fn414151   1.870   2.655   2.483  1.2920  0.2204  0.1925
 2348ntf    fn414152   2.037   2.531   2.438  0.4914  0.2455  0.4838
 2348ntf    fn414153   1.984   2.682   2.297  0.2162 -0.1084  0.3301
 2348ntf    on514154   1.722   2.547   2.237 -0.2354 -0.6417 -0.4559
 2348ntf    on514155   1.936   2.426   2.193 -0.1940 -0.0725  0.1801
 2348ntf    on514156   1.835   2.138   2.464 -0.4159 -0.0122  0.4529
 2348ntf    on514157   1.769   2.177   2.233 -0.3805  0.2204  0.0447
 2348ntf    fn414158   1.517   2.304   2.382  0.6087 -0.0700 -0.2263
 2348ntf    fn414159   1.525   2.094   2.378  0.1283 -0.0947  0.1055
 2348ntf    fn414160   1.590   2.214   2.550  0.4091  0.7833  0.0508
 2349ntf    cn114161   6.503   1.401   5.884  0.7112 -0.2332 -0.4124
 2349ntf    sn214162   6.670   1.466   5.857  0.5794  0.2927  0.0322
 2349ntf    nn314163   6.668   1.578   5.968  0.4615 -0.3204  0.6555
 2349ntf    sn214164   6.625   1.728   5.952 -0.3109 -0.5834  0.1998
 2349ntf    cn114165   6.654   1.778   6.124  0.0952  0.2721 -0.1088
 2349ntf    fn414166   6.419   1.504   5.880  0.3764 -0.4856 -0.0303
 2349ntf    fn414167   6.457   1.316   5.794 -0.5478  0.7868 -0.7713
 2349ntf    fn414168   6.477   1.354   6.005  0.4547 -0.5460 -0.5873
 2349ntf    on514169   6.749   1.352   5.896  0.5147  0.4030  0.5002
 2349ntf    on514170   6.679   1.504   5.718 -0.5260 -0.2349 -0.1884
 2349ntf    on514171   6.483   1.751   5.943 -0.2196  0.1603  0.5977
 2349ntf    on514172   6.718   1.813   5.881  0.1618 -0.6828  0.6924
 2349ntf    fn414173   6.576   1.699   6.197  0.3426  0.0405 -0.0923
 2349ntf    fn414174   6.779   1.749   6.157 -0.0678  0.0805  0.3464
 2349ntf    fn414175   6.638   1.906   6.154  0.4842  0.3790 -0.3507
 2350ntf    cn114176   5.784   0.575   2.072 -0.0677 -0.2602  0.2731
 2350ntf    sn214177   5.954   0.630   2.105 -0.0553 -0.0961 -0.0583
 2350ntf    nn314178   5.914   0.744   2.205  0.0680 -0.2851  0.2105
 2350ntf    sn214179   5.907   0.739   2.361  0.1758 -0.2860  0.2152
 2350ntf    cn114180   6.059   0.828   2.408  0.1677  0.1921 -0.6418
 2350ntf    fn414181   5.722   0.513   2.171 -0.2356 -0.1144  0.2590
 2350ntf    fn414182   5.707   0.677   2.038 -0.1153 -0.2943  0.2776
 2350ntf    fn414183   5.788   0.488   1.972 -0.3563 -0.1730  0.1845
 2350ntf    on514184   6.026   0.515   2.155 -0.2711 -0.1237  0.1913
 2350ntf    on514185   5.985   0.672   1.971 -0.2081 -0.3803 -0.1822
 2350ntf    on514186   5.909   0.602   2.406 -0.9722 -0.3443  0.1158
 2350ntf    on514187   5.798   0.812   2.422  0.0562 -0.9040  0.7512
 2350ntf    fn414188   6.070   0.861   2.536  0.7726 -0.3341 -0.5537
 2350ntf    fn414189   6.163   0.754   2.377  0.1800 -0.1871  0.2755
 2350ntf    fn414190   6.070   0.940   2.339  0.3616  0.3542 -0.3473
 2351ntf    cn114191   1.202   5.823   6.225 -0.2169  0.1184 -0.3326
 2351ntf    sn214192   1.184   5.831   6.406 -0.0734 -0.0370 -0.3116
 2351ntf    nn314193   1.084   5.712   6.426 -0.1002  0.2019  1.0434
 2351ntf    sn214194   0.930   5.725   6.455 -0.3337 -0.1305 -0.0341
 2351ntf    cn114195   0.934   5.738   6.636 -0.2210 -0.2905 -0.0247
 2351ntf    fn414196   1.314   5.880   6.185 -0.1657  0.4818  0.3077
 2351ntf    fn414197   1.221   5.700   6.181  0.5901  0.1083  0.0164
 2351ntf    fn414198   1.101   5.879   6.160  0.0277  0.5872 -0.3151
 2351ntf    on514199   1.317   5.787   6.443 -0.0791  0.4177  0.2634
 2351ntf    on514200   1.143   5.961   6.453  0.0531 -0.1583  0.1354
 2351ntf    on514201   0.869   5.597   6.428  0.0934 -0.3008 -0.2208
 2351ntf    on514202   0.863   5.840   6.401 -0.6590  0.0424  0.7375
 2351ntf    fn414203   0.814   5.761   6.686  0.0910  0.0731  0.5582
 2351ntf    fn414204   0.975   5.626   6.692 -0.2095  0.0559  0.6637
 2351ntf    fn414205   1.013   5.831   6.687 -0.6000 -0.3636  0.7092
 2352ntf    cn114206   3.213   3.965   1.589  0.1974 -0.3524 -0.0319
 2352ntf    sn214207   3.167   3.847   1.458  0.0471 -0.3057 -0.0213
 2352ntf    nn314208   3.076   3.750   1.541 -0.1884 -0.4204 -0.4090
 2352ntf    sn214209   3.094   3.601   1.588 -0.1916 -0.3665 -0.2343
 2352ntf    cn114210   2.931   3.543   1.531 -0.3194 -0.3470  0.1087
 2352ntf    fn414211   3.110   4.046   1.606  0.2600 -0.3610  0.4126
 2352ntf    fn414212   3.243   3.912   1.706  0.0634 -0.0362  0.1455
 2352ntf    fn414213   3.307   4.048   1.548 -0.2962  0.4772  0.4855
 2352ntf    on514214   3.095   3.936   1.370 -0.0627  0.1504  0.5217
 2352ntf    on514215   3.294   3.796   1.414  0.2257 -0.0901  0.2414
 2352ntf    on514216   3.079   3.577   1.729 -0.1160  0.0321 -0.1590
 2352ntf    on514217   3.189   3.525   1.511  0.4078  0.1363  0.0041
 2352ntf    fn414218   2.943   3.518   1.401 -0.5457  0.3369 -0.0455
 2352ntf    fn414219   2.904   3.435   1.602 -0.3942 -0.7290 -0.4933
 2352ntf    fn414220   2.829   3.626   1.547 -0.0344  0.0640 -0.1689
 2353ntf    cn114221   2.387   1.009   3.504 -0.2423 -0.1681  0.6119
 2353ntf    sn214222   2.515   1.138   3.516 -0.0036 -0.3129 -0.3120
 2353ntf    nn314223   2.431   1.266   3.549 -0.0929 -0.4037 -0.1840
 2353ntf    sn214224   2.350   1.361   3.454  0.0962 -0.1302 -0.0729
 2353ntf    cn114225   2.483   1.477   3.411  0.1129  0.0754  0.5142
 2353ntf    fn414226   2.344   0.976   3.625 -0.2692 -0.6682  0.4690
 2353ntf    fn414227   2.279   1.059   3.446  0.2142 -0.0374 -0.1396
 2353ntf    fn414228   2.415   0.903   3.430  0.0566  0.0771  0.3727
 2353ntf    on514229   2.599   1.099   3.627  0.1119 -0.5153 -0.4687
 2353ntf    on514230   2.584   1.132   3.390 -0.1878 -0.1580 -0.4197
 2353ntf    on514231   2.249   1.439   3.523 -0.3129 -0.9785  0.3059
 2353ntf    on514232   2.314   1.304   3.327  0.1242 -0.2382 -0.0324
 2353ntf    fn414233   2.597   1.423   3.372 -0.2842 -0.2721 -0.1802
 2353ntf    fn414234   2.451   1.558   3.311  0.1106  0.3652  0.7480
 2353ntf    fn414235   2.509   1.550   3.518  0.1046  0.4333  0.2761
 2354ntf    cn114236   5.203   1.702   0.173 -0.0161 -0.1266 -0.2736
 2354ntf    sn214237   5.210   1.880   0.137 -0.3070 -0.1058 -0.2311
 2354ntf    nn314238   5.097   1.936   0.231 -0.1614 -0.2676  0.0396
 2354ntf    sn214239   4.945   1.966   0.207 -0.1798 -0.1195  0.3320
 2354ntf    cn114240   4.886   1.944   0.377 -0.6267 -0.7961  0.0921
 2354ntf    fn414241   5.088   1.656   0.126  0.0753 -0.1010 -0.5199
 2354ntf    fn414242   5.300   1.635   0.115 -0.0010 -0.5295  0.2081
 2354ntf    fn414243   5.190   1.671   0.301  0.7882 -0.1915 -0.2066
 2354ntf    on514244   5.345   1.907   0.180 -0.1774 -0.8082 -0.1852
 2354ntf    on514245   5.190   1.892  -0.005  0.3972  0.6523 -0.2754
 2354ntf    on514246   4.874   1.871   0.125  0.0480 -0.3058  0.3484
 2354ntf    on514247   4.929   2.107   0.179  0.4138 -0.0944  0.0902
 2354ntf    fn414248   4.965   1.995   0.470 -0.5162 -0.7547 -0.0231
 2354ntf    fn414249   4.770   2.006   0.391 -0.4422 -0.4690  0.1626
 2354ntf    fn414250   4.875   1.816   0.411 -0.2274 -0.8347  0.0785
 2355ntf    cn114251   2.121   2.903   1.394  0.1109  0.1202 -0.2182
 2355ntf    sn214252   1.975   3.000   1.346  0.0454  0.0068 -0.2489
 2355ntf    nn314253   2.045   3.140   1.363  0.0631 -0.0127 -0.1643
 2355ntf    sn214254   2.129   3.226   1.263 -0.1453  0.3670 -0.0152
 2355ntf    cn114255   2.013   3.360   1.222 -0.2123  0.4340  0.3919
 2355ntf    fn414256   2.236   2.953   1.353  0.2418  0.0270  0.0326
 2355ntf    fn414257   2.134   2.883   1.524 -0.1475  0.2791 -0.1659
 2355ntf    fn414258   2.127   2.778   1.350 -0.0268  0.2795 -0.6943
 2355ntf    on514259   1.943   2.958   1.212  0.5302 -0.6091 -0.1736
 2355ntf    on514260   1.893   2.974   1.461  0.4207  0.4431  0.1248
 2355ntf    on514261   2.151   3.176   1.129  0.7414  0.8577 -0.0602
 2355ntf    on514262   2.240   3.294   1.326 -0.0127  0.2964 -0.1691
 2355ntf    fn414263   2.066   3.443   1.134  0.3773 -0.0362  0.2997
 2355ntf    fn414264   1.905   3.310   1.162  0.2091 -0.0000 -0.0140
 2355ntf    fn414265   1.977   3.429   1.328  0.1508  1.0428  0.1222
 2356ntf    cn114266   4.506   1.730   2.226 -0.0570 -0.0746 -0.1027
 2356ntf    sn214267   4.658   1.806   2.291 -0.2966  0.1140  0.2399
 2356ntf    nn314268   4.753   1.783   2.168 -0.3034 -0.0731  0.2678
 2356ntf    sn214269   4.885   1.698   2.163 -0.2203  0.0317  0.6108
 2356ntf    cn114270   4.826   1.531   2.123  0.0101  0.1152 -0.0980
 2356ntf    fn414271   4.520   1.600   2.208 -0.1116 -0.0129 -0.6124
 2356ntf    fn414272   4.401   1.740   2.306  0.1075 -0.2326  0.1345
 2356ntf    fn414273   4.477   1.790   2.112 -0.3992 -0.0031  0.0198
 2356ntf    on514274   4.613   1.942   2.303  0.6302  0.4080  0.4658
 2356ntf    on514275   4.685   1.736   2.415  0.7331 -0.4579 -0.2985
 2356ntf    on514276   4.960   1.683   2.285  0.2200  0.2060  0.3625
 2356ntf    on514277   4.964   1.734   2.047 -0.8500 -0.3389  0.0610
 2356ntf    fn414278   4.717   1.489   2.185 -0.2602  0.2189 -0.4993
 2356ntf    fn414279   4.800   1.510   1.995 -0.5301  0.0567  0.0202
 2356ntf    fn414280   4.922   1.443   2.150  0.2885  0.4596  0.0400
 2357ntf    cn114281   6.178   2.017   4.666  0.4923  0.2914 -0.1425
 2357ntf    sn214282   6.133   1.891   4.543 -0.0326 -0.2882  0.6332
 2357ntf    nn314283   5.977   1.914   4.541  0.0786  0.4727 -0.1828
 2357ntf    sn214284   5.858   1.858   4.627  0.5890 -0.2796  0.0442
 2357ntf    cn114285   5.814   2.007   4.721  0.1040 -0.2986 -0.1521
 2357ntf    fn414286   6.124   2.134   4.638  0.1985  0.4417  1.0085
 2357ntf    fn414287   6.129   1.991   4.786  0.7516 -0.3181 -0.1613
 2357ntf    fn414288   6.309   2.027   4.685  0.4222 -0.3596  0.7318
 2357ntf    on514289   6.197   1.934   4.421 -0.0685 -0.1368  0.6670
 2357ntf    on514290   6.180   1.763   4.588 -0.3156 -0.7317 -0.3002
 2357ntf    on514291   5.890   1.760   4.728 -0.1161 -0.7031 -0.1406
 2357ntf    on514292   5.743   1.835   4.543  0.5789 -0.0873  0.0046
 2357ntf    fn414293   5.749   1.988   4.834  0.3959  0.4361  0.1450
 2357ntf    fn414294   5.915   2.082   4.761 -0.4031  0.2395  0.1347
 2357ntf    fn414295   5.741   2.088   4.646  0.7733  0.2689 -0.2020
 2358ntf    cn114296   5.143   0.317   5.321  0.1898  0.1554  0.0619
 2358ntf    sn214297   5.253   0.430   5.411 -0.0033  0.4769 -0.0991
 2358ntf    nn314298   5.273   0.538   5.300  0.0375  0.2091 -0.3532
 2358ntf    sn214299   5.277   0.694   5.314  0.0252  0.1736  0.0457
 2358ntf    cn114300   5.103   0.723   5.356 -0.0503  0.1466 -0.2438
 2358ntf    fn414301   5.028   0.373   5.285  0.1318 -0.1936 -0.3027
 2358ntf    fn414302   5.200   0.264   5.214  0.4993  0.5507  0.0292
 2358ntf    fn414303   5.114   0.213   5.397  0.1561 -0.0671 -0.2551
 2358ntf    on514304   5.176   0.468   5.527  0.3079  0.6689  0.0463
 2358ntf    on514305   5.371   0.350   5.435  0.1694  0.5400 -0.7378
 2358ntf    on514306   5.303   0.758   5.187  0.1107  0.1363  0.0449
 2358ntf    on514307   5.352   0.749   5.424  0.0624 -0.4097  0.3119
 2358ntf    fn414308   5.082   0.852   5.339  0.5821  0.3633  0.5586
 2358ntf    fn414309   5.024   0.650   5.279 -0.0081 -0.7385  0.5251
 2358ntf    fn414310   5.069   0.710   5.484  0.5047  0.6994 -0.0343
 2359ntf    cn114311   5.570   0.158   4.021  0.1232  0.1181  0.0675
 2359ntf    sn214312   5.657   0.158   4.181  0.3281  0.0668 -0.0421
 2359ntf    nn314313   5.552   0.246   4.258 -0.2307 -0.5475 -0.0905
 2359ntf    sn214314   5.441   0.210   4.363 -0.3798 -0.0812 -0.0821
 2359ntf    cn114315   5.410   0.373   4.437 -0.0240 -0.0053 -0.0962
 2359ntf    fn414316   5.577   0.273   3.957 -0.8727  0.2013  0.1026
 2359ntf    fn414317   5.616   0.062   3.942 -0.2559  0.3153 -0.3933
 2359ntf    fn414318   5.442   0.133   4.042  0.0370  0.4997 -0.0078
 2359ntf    on514319   5.660   0.019   4.218  0.7880  0.1766  0.3414
 2359ntf    on514320   5.783   0.222   4.150  0.4377 -0.3258 -0.4073
 2359ntf    on514321   5.486   0.130   4.475  0.1018 -0.5240 -0.5854
 2359ntf    on514322   5.314   0.186   4.300 -0.1656 -0.5780 -0.3272
 2359ntf    fn414323   5.285   0.386   4.478  0.0247  0.3942 -0.0771
 2359ntf    fn414324   5.486   0.399   4.542  0.4116 -0.6465 -0.2446
 2359ntf    fn414325   5.440   0.476   4.361 -0.2635  0.3560  0.2953
 2360ntf    cn114326   3.163   0.282   2.774  0.3352  0.0837  0.7077
 2360ntf    sn214327   3.119   0.434   2.864 -0.2415  0.3503 -0.0132
 2360ntf    nn314328   2.975   0.393   2.914  0.1801 -0.6828  0.3990
 2360ntf    sn214329   2.920   0.386   3.060  0.0971 -0.3043  0.3884
 2360ntf    cn114330   2.898   0.564   3.089  0.1148 -0.2577  0.1189
 2360ntf    fn414331   3.276   0.294   2.705 -0.1722  0.0678 -0.1376
 2360ntf    fn414332   3.174   0.175   2.850  0.1130 -0.2050  0.3344
 2360ntf    fn414333   3.065   0.252   2.691  0.7920 -0.0323  0.2039
 2360ntf    on514334   3.227   0.443   2.960 -0.0091  0.3041 -0.2717
 2360ntf    on514335   3.106   0.537   2.765 -0.7108  0.3505  0.0468
 2360ntf    on514336   3.016   0.340   3.157  0.1593  0.0797  0.5085
 2360ntf    on514337   2.783   0.340   3.057 -0.0706  0.1786  0.5412
 2360ntf    fn414338   2.831   0.618   2.989  0.3761  0.1057  0.1371
 2360ntf    fn414339   2.825   0.590   3.196  0.6152 -1.3483  0.7495
 2360ntf    fn414340   3.014   0.629   3.092 -0.5149  0.8918  0.0853
 2361ntf    cn114341   3.477   3.374   1.780 -0.3021 -0.2258  0.1452
 2361ntf    sn214342   3.615   3.256   1.771 -0.1855 -0.0734 -0.0559
 2361ntf    nn314343   3.737   3.345   1.727 -0.6547  0.6660  0.1135
 2361ntf    sn214344   3.790   3.388   1.585 -0.1149  0.2128  0.1720
 2361ntf    cn114345   3.970   3.390   1.602 -0.0620 -0.3919 -0.2601
 2361ntf    fn414346   3.360   3.319   1.807 -0.4620 -0.1694 -0.4175
 2361ntf    fn414347   3.496   3.466   1.874  0.2253 -0.5132  0.3234
 2361ntf    fn414348   3.462   3.442   1.668  0.2603 -0.0712  0.1582
 2361ntf    on514349   3.624   3.215   1.909  1.1535  1.0108  0.1984
 2361ntf    on514350   3.557   3.165   1.675 -0.5609  0.1474 -0.0415
 2361ntf    on514351   3.752   3.523   1.551 -0.3153 -0.0819 -0.8030
 2361ntf    on514352   3.751   3.294   1.483 -0.0179 -0.0883  0.4113
 2361ntf    fn414353   4.011   3.269   1.637  0.0853 -0.2106  0.2098
 2361ntf    fn414354   4.032   3.410   1.487  0.0707 -0.0260 -0.1286
 2361ntf    fn414355   4.006   3.474   1.699 -0.5264 -0.2148 -0.2392
 2362ntf    cn114356   6.485   2.200   4.997  0.0235  0.1057  0.0050
 2362ntf    sn214357   6.485   2.106   5.153 -0.0605 -0.0326 -0.0778
 2362ntf    nn314358   6.515   1.962   5.099  0.0515  0.2502 -0.7772
 2362ntf    sn214359   6.432   1.830   5.114  0.3306  0.1248 -0.2890
 2362ntf    cn114360   6.482   1.725   4.974 -0.1727 -0.3500 -0.1190
 2362ntf    fn414361   6.464   2.330   5.008 -0.2409  0.0589  0.0640
 2362ntf    fn414362   6.602   2.199   4.935  0.0579  0.8772  0.0564
 2362ntf    fn414363   6.397   2.141   4.918 -0.3826  0.0970  0.4575
 2362ntf    on514364   6.598   2.148   5.232  0.3390 -0.0988 -0.6161
 2362ntf    on514365   6.350   2.130   5.198 -0.0152  0.6909 -0.3163
 2362ntf    on514366   6.291   1.846   5.086  0.2589  0.5764  0.3211
 2362ntf    on514367   6.468   1.750   5.228  0.4169  0.4995 -0.0543
 2362ntf    fn414368   6.572   1.639   5.019 -0.4160 -0.0606  0.9567
 2362ntf    fn414369   6.378   1.671   4.913 -0.0891 -0.3638 -0.2514
 2362ntf    fn414370   6.531   1.805   4.880 -0.1559  0.0152  0.1986
 2363ntf    cn114371   4.751   1.012   3.608  0.3097 -0.3469 -0.0576
 2363ntf    sn214372   4.895   1.013   3.719  0.0170 -0.2280  0.3220
 2363ntf    nn314373   4.957   0.871   3.695 -0.7381 -0.5517  0.2654
 2363ntf    sn214374   5.027   0.765   3.787  0.1428  0.0104  0.2490
 2363ntf    cn114375   5.199   0.785   3.731  0.1376  0.1580  0.2840
 2363ntf    fn414376   4.779   1.011   3.479 -0.1366  0.7432 -0.1758
 2363ntf    fn414377   4.684   0.902   3.637 -0.8535  0.2429 -0.4442
 2363ntf    fn414378   4.674   1.119   3.620  0.9443  0.1038  0.0338
 2363ntf    on514379   4.977   1.117   3.662 -0.0681 -0.0669  0.4911
 2363ntf    on514380   4.831   1.038   3.846  0.0489  0.5006  0.2025
 2363ntf    on514381   5.002   0.629   3.748 -0.0339  0.1244 -0.0385
 2363ntf    on514382   5.033   0.797   3.928  0.1728 -0.3695  0.3341
 2363ntf    fn414383   5.285   0.734   3.817 -0.2531 -0.2612  0.4274
 2363ntf    fn414384   5.221   0.717   3.620  0.2306 -0.7243  0.8370
 2363ntf    fn414385   5.243   0.909   3.715 -0.0223  0.2213  0.3313
 2364ntf    cn114386   0.483   4.329   3.196  0.2433 -0.1207 -0.0043
 2364ntf    sn214387   0.444   4.405   3.036 -0.0612 -0.0663  0.0965
 2364ntf    nn314388   0.296   4.445   3.072  0.1013  0.3323  0.3263
 2364ntf    sn214389   0.210   4.560   3.009 -0.5193 -0.3857 -0.1578
 2364ntf    cn114390   0.111   4.482   2.878 -0.3530 -0.2299 -0.3764
 2364ntf    fn414391   0.429   4.395   3.297 -0.4875 -0.0157 -0.4656
 2364ntf    fn414392   0.443   4.203   3.199  0.1768 -0.0974  0.1138
 2364ntf    fn414393   0.613   4.333   3.224  0.1122 -0.1936  0.6412
 2364ntf    on514394   0.524   4.524   3.028  0.0213 -0.0664  0.8740
 2364ntf    on514395   0.449   4.301   2.936  0.8118 -0.3759  0.4573
 2364ntf    on514396   0.288   4.656   2.935 -0.5806  0.3234  0.6877
 2364ntf    on514397   0.106   4.606   3.097 -0.0246 -0.1884  0.3294
 2364ntf    fn414398   0.038   4.384   2.927 -0.4696  0.0680  0.0407
 2364ntf    fn414399   0.032   4.569   2.818  0.1399  0.4084 -0.1141
 2364ntf    fn414400   0.181   4.430   2.778 -0.3035 -1.0316  0.0683
 2365ntf    cn114401   4.542   6.635   1.573  0.1824 -0.6404 -0.1180
 2365ntf    sn214402   4.461   6.696   1.724  0.0360 -0.0958 -0.4128
 2365ntf    nn314403   4.311   6.678   1.682  0.0018 -0.7986 -0.0110
 2365ntf    sn214404   4.200   6.623   1.778 -0.0506 -0.4087  0.1549
 2365ntf    cn114405   4.216   6.745   1.912 -0.0615 -0.4694  0.2117
 2365ntf    fn414406   4.526   6.504   1.558 -0.0727 -0.6663  0.3468
 2365ntf    fn414407   4.504   6.694   1.461  0.2837  0.0278  0.1944
 2365ntf    fn414408   4.674   6.644   1.570  0.1784 -0.3587  0.4867
 2365ntf    on514409   4.512   6.619   1.835 -0.1657  0.1875 -0.1221
 2365ntf    on514410   4.501   6.834   1.719 -0.4271  0.0718  0.3084
 2365ntf    on514411   4.225   6.487   1.822 -0.0885 -0.3813  0.2611
 2365ntf    on514412   4.068   6.641   1.724  0.0026 -0.0523  0.1445
 2365ntf    fn414413   4.333   6.759   1.973  0.0389 -0.3536 -0.0069
 2365ntf    fn414414   4.180   6.863   1.864 -0.4441 -0.3565  0.7666
 2365ntf    fn414415   4.125   6.738   2.008 -0.0005 -0.3794  0.2758
 2366ntf    cn114416   6.732   0.084   5.297  0.0265 -0.1253  0.2917
 2366ntf    sn214417   6.823   0.106   5.140  0.1122  0.0418  0.3638
 2366ntf    nn314418   6.960   0.155   5.198  0.0586 -0.4347  0.9050
 2366ntf    sn214419   7.103   0.089   5.195  0.2550  0.0037  0.4415
 2366ntf    cn114420   7.094  -0.003   5.352 -0.3046  0.0786  0.4559
 2366ntf    fn414421   6.801   0.138   5.396  0.2089 -0.3801  0.3046
 2366ntf    fn414422   6.617   0.149   5.287  0.2198  0.1481 -0.2156
 2366ntf    fn414423   6.711  -0.041   5.333 -0.1207 -0.2532 -0.2293
 2366ntf    on514424   6.829  -0.023   5.076 -0.4981  0.3200 -0.2616
 2366ntf    on514425   6.759   0.216   5.073 -0.0157 -0.0041  0.4092
 2366ntf    on514426   7.202   0.190   5.218  0.0745  0.3795 -0.4160
 2366ntf    on514427   7.138  -0.009   5.095 -0.3200  0.5596 -0.3204
 2366ntf    fn414428   7.097   0.092   5.444  0.3099  0.2651  0.2466
 2366ntf    fn414429   6.985  -0.078   5.360 -0.2108 -0.1251 -0.1239
 2366ntf    fn414430   7.195  -0.083   5.379 -0.2377  0.1236  0.3384
 2367ntf    cn114431   3.661   6.724   3.690 -0.0383  0.2874  0.1279
 2367ntf    sn214432   3.731   6.577   3.608  0.0418  0.3452  0.0938
 2367ntf    nn314433   3.707   6.624   3.460 -0.0141  0.2056  0.0587
 2367ntf    sn214434   3.586   6.587   3.367  0.0824 -0.2134  0.0979
 2367ntf    cn114435   3.679   6.482   3.252  0.0936 -0.2825  0.1692
 2367ntf    fn414436   3.699   6.834   3.627 -0.1926  0.2818  0.0242
 2367ntf    fn414437   3.529   6.725   3.691 -0.0446 -0.0793  0.0703
 2367ntf    fn414438   3.686   6.739   3.819 -0.0211  0.4302  0.1080
 2367ntf    on514439   3.872   6.577   3.641  0.0880  0.5294 -0.0993
 2367ntf    on514440   3.652   6.463   3.648  0.2379  0.2636  0.2513
 2367ntf    on514441   3.544   6.700   3.289  0.8600  0.2472  0.3376
 2367ntf    on514442   3.479   6.509   3.426  0.3102 -0.5792  0.0278
 2367ntf    fn414443   3.608   6.402   3.174 -0.1595 -0.1585  0.2722
 2367ntf    fn414444   3.740   6.567   3.170 -1.1693  0.2907 -0.2198
 2367ntf    fn414445   3.773   6.412   3.312  0.2482  0.0014  0.2614
 2368ntf    cn114446   2.458   3.884   4.992  0.1402  0.0837  0.1255
 2368ntf    sn214447   2.518   3.718   4.947 -0.2460  0.0147 -0.1398
 2368ntf    nn314448   2.653   3.716   5.027 -0.0561 -0.3579 -0.4698
 2368ntf    sn214449   2.693   3.676   5.173 -0.6433  0.0990 -0.1826
 2368ntf    cn114450   2.848   3.770   5.189 -0.3106 -0.5348  0.3535
 2368ntf    fn414451   2.360   3.928   4.914  0.0361  0.2938  0.3743
 2368ntf    fn414452   2.418   3.895   5.117  0.0975 -0.3718  0.1531
 2368ntf    fn414453   2.552   3.975   4.970  0.2741 -0.1989 -0.5241
 2368ntf    on514454   2.425   3.625   5.007  0.6831 -0.9169 -0.1254
 2368ntf    on514455   2.529   3.717   4.804  0.5172 -0.4060 -0.0812
 2368ntf    on514456   2.735   3.539   5.182 -0.5025  0.1214 -0.5156
 2368ntf    on514457   2.605   3.722   5.278  0.1311 -0.2819  0.6449
 2368ntf    fn414458   2.822   3.899   5.182 -0.0560 -0.4945  0.1531
 2368ntf    fn414459   2.911   3.757   5.305  0.8154  0.8825 -0.0694
 2368ntf    fn414460   2.949   3.741   5.109 -0.2903 -0.1442  0.2381
 2369ntf    cn114461   4.868   5.008   2.951  0.2023  0.1667  0.1076
 2369ntf    sn214462   4.739   5.052   2.830  0.3705  0.0864 -0.1029
 2369ntf    nn314463   4.658   5.167   2.900  0.2076 -0.2288  0.2245
 2369ntf    sn214464   4.550   5.148   3.013  0.0463  0.2069  0.1453
 2369ntf    cn114465   4.393   5.189   2.931 -0.0502  0.1437  0.2972
 2369ntf    fn414466   4.824   4.987   3.073  0.2905 -0.3763  0.0459
 2369ntf    fn414467   4.926   4.894   2.919 -0.2464 -0.2618  0.8198
 2369ntf    fn414468   4.963   5.100   2.953  0.0983  0.2722  0.1831
 2369ntf    on514469   4.814   5.104   2.718  0.7544  0.0142  0.1162
 2369ntf    on514470   4.672   4.926   2.811 -0.2434  0.5048 -0.7588
 2369ntf    on514471   4.562   5.259   3.105  0.0268  0.1202  0.2522
 2369ntf    on514472   4.537   5.015   3.068  0.1439 -0.0385 -0.4132
 2369ntf    fn414473   4.409   5.307   2.874  0.7109  0.0214  0.2422
 2369ntf    fn414474   4.366   5.098   2.839  0.1559  0.2528  0.1282
 2369ntf    fn414475   4.285   5.204   3.006 -0.3403 -0.1792 -0.0470
 2370ntf    cn114476   3.299   3.979   0.047  0.2480 -0.1843 -0.1966
 2370ntf    sn214477   3.363   3.848  -0.061  0.2225 -0.2025 -0.1899
 2370ntf    nn314478   3.249   3.744  -0.034  0.2485 -0.1421  0.1529
 2370ntf    sn214479   3.247   3.622   0.066 -0.1700 -0.0389  0.2723
 2370ntf    cn114480   3.309   3.484  -0.035 -0.0372  0.0961  0.1704
 2370ntf    fn414481   3.280   3.932   0.169 -0.3724  0.8707  0.1318
 2370ntf    fn414482   3.380   4.083   0.064 -0.1887  0.1043  0.1308
 2370ntf    fn414483   3.188   4.035   0.002 -0.0676 -0.1686  0.6006
 2370ntf    on514484   3.364   3.906  -0.193 -0.2113  0.1949 -0.0176
 2370ntf    on514485   3.491   3.819  -0.000  0.2846  0.0954 -0.1776
 2370ntf    on514486   3.113   3.573   0.091  0.0894 -0.8284  0.1368
 2370ntf    on514487   3.329   3.626   0.184 -0.2567 -0.3854  0.3457
 2370ntf    fn414488   3.353   3.378   0.030  0.6939  0.2082 -0.1265
 2370ntf    fn414489   3.242   3.450  -0.144  0.7251  0.9065 -0.5748
 2370ntf    fn414490   3.420   3.535  -0.087 -0.1964  0.2720  0.0000
 2371ntf    cn114491   3.457   6.524   6.894  0.1728  0.0201 -0.9203
 2371ntf    sn214492   3.320   6.466   6.789 -0.3330 -0.5580  0.0459
 2371ntf    nn314493   3.262   6.351   6.879  0.3020 -0.3940  0.6793
 2371ntf    sn214494   3.115   6.297   6.893 -0.0084  0.2461 -0.0500
 2371ntf    cn114495   3.052   6.422   7.008 -0.3733 -0.2073  0.2452
 2371ntf    fn414496   3.412   6.553   7.015  0.6152  0.4691 -0.8590
 2371ntf    fn414497   3.543   6.426   6.916  0.5784  0.4543 -0.5624
 2371ntf    fn414498   3.520   6.632   6.851  0.2881  0.4946  0.3876
 2371ntf    on514499   3.232   6.580   6.776 -0.1022 -0.4252 -0.3695
 2371ntf    on514500   3.382   6.421   6.667 -0.1554  0.6244 -0.3094
 2371ntf    on514501   3.107   6.170   6.961 -0.2173 -0.0787 -0.6696
 2371ntf    on514502   3.037   6.307   6.772 -0.5072  0.3897  0.2807
 2371ntf    fn414503   3.023   6.533   6.942 -0.6144 -0.1688  0.4120
 2371ntf    fn414504   2.934   6.393   7.060 -0.4450 -0.3109  0.0216
 2371ntf    fn414505   3.136   6.454   7.105 -0.0581 -0.9422  0.2200
 2372ntf    cn114506   1.039   2.664   5.521 -0.1561  0.4309  0.1880
 2372ntf    sn214507   1.178   2.718   5.625  0.2005 -0.1134  0.0049
 2372ntf    nn314508   1.098   2.768   5.751 -0.1580  0.1425 -0.3229
 2372ntf    sn214509   1.108   2.891   5.848 -0.2419  0.0493 -0.1956
 2372ntf    cn114510   1.159   2.805   6.000  0.0054 -0.3494 -0.5011
 2372ntf    fn414511   0.953   2.759   5.489 -0.3728  0.1892  0.0492
 2372ntf    fn414512   1.077   2.602   5.410 -0.2361  0.3604  0.2006
 2372ntf    fn414513   0.966   2.572   5.581 -0.0546  0.1496 -0.1105
 2372ntf    on514514   1.249   2.595   5.650  0.2616 -0.0467  0.1633
 2372ntf    on514515   1.244   2.815   5.541  0.0219 -0.2278 -0.2697
 2372ntf    on514516   0.978   2.943   5.881 -0.1975 -0.0794  0.1830
 2372ntf    on514517   1.215   2.986   5.826 -0.2617  0.1471  0.1254
 2372ntf    fn414518   1.144   2.882   6.107 -0.2458 -0.1798 -0.6547
 2372ntf    fn414519   1.084   2.698   6.024 -0.2935 -0.0338 -0.0073
 2372ntf    fn414520   1.288   2.777   5.992 -0.0382 -0.6135 -0.2736
 2373ntf    cn114521   6.472   0.267   4.332 -0.0941  0.2151 -0.1680
 2373ntf    sn214522   6.608   0.376   4.384  0.0448 -0.0690  0.0711
 2373ntf    nn314523   6.533   0.514   4.395  0.0732 -0.0777  0.3743
 2373ntf    sn214524   6.575   0.623   4.500  0.4191 -0.2006  0.3646
 2373ntf    cn114525   6.540   0.763   4.390  0.0673  0.0083  0.7406
 2373ntf    fn414526   6.522   0.156   4.281 -0.4890  0.1408 -0.4028
 2373ntf    fn414527   6.411   0.223   4.441  0.1043 -0.0994 -0.1829
 2373ntf    fn414528   6.386   0.311   4.242 -0.1708 -0.1405 -0.2715
 2373ntf    on514529   6.654   0.326   4.511 -0.0872  0.6492  0.4035
 2373ntf    on514530   6.701   0.382   4.274 -0.1124 -0.0029 -0.0588
 2373ntf    on514531   6.714   0.656   4.520  0.3428  0.3073  0.0602
 2373ntf    on514532   6.477   0.639   4.604 -0.5546 -0.1503 -0.5483
 2373ntf    fn414533   6.604   0.761   4.274 -0.1361 -0.3867  0.6340
 2373ntf    fn414534   6.410   0.764   4.366  0.2161  0.2259 -0.1367
 2373ntf    fn414535   6.572   0.879   4.445 -0.4652  0.2130  0.6290
 2374ntf    cn114536   2.330   5.457   5.732 -0.1720  0.1179  0.1647
 2374ntf    sn214537   2.380   5.343   5.599 -0.3975  0.0714  0.1193
 2374ntf    nn314538   2.393   5.208   5.676 -0.0072  0.0103 -0.0536
 2374ntf    sn214539   2.346   5.062   5.642  0.0213 -0.0353  0.1003
 2374ntf    cn114540   2.491   5.004   5.549 -0.3429 -0.3624 -0.2713
 2374ntf    fn414541   2.356   5.581   5.696 -0.6908  0.1337 -0.1704
 2374ntf    fn414542   2.201   5.446   5.759 -0.2528 -0.4255 -0.4097
 2374ntf    fn414543   2.384   5.441   5.851  0.3837 -0.0419 -0.1064
 2374ntf    on514544   2.281   5.354   5.494 -0.1950 -0.0047 -0.0810
 2374ntf    on514545   2.505   5.400   5.557 -0.3224 -0.3606 -0.2446
 2374ntf    on514546   2.242   5.054   5.542 -0.0086 -0.1020  0.1369
 2374ntf    on514547   2.351   4.964   5.747 -0.5466 -0.1884 -0.0097
 2374ntf    fn414548   2.599   4.989   5.625 -0.4577  0.3823  0.0474
 2374ntf    fn414549   2.474   4.886   5.493 -0.3043 -0.3838 -0.2391
 2374ntf    fn414550   2.527   5.089   5.454 -0.0037 -0.2089 -0.0086
 2375ntf    cn114551   3.438   3.664   2.606  0.2238 -0.0542 -0.0355
 2375ntf    sn214552   3.350   3.807   2.536  0.0646  0.0322  0.3411
 2375ntf    nn314553   3.351   3.775   2.383  0.3502  0.1244  0.3228
 2375ntf    sn214554   3.459   3.814   2.275  0.0934 -0.2167 -0.0599
 2375ntf    cn114555   3.363   3.820   2.121  0.1947 -0.1362 -0.1198
 2375ntf    fn414556   3.458   3.680   2.735  0.3546  0.2987 -0.0992
 2375ntf    fn414557   3.375   3.549   2.586 -0.3842  0.2202  0.2932
 2375ntf    fn414558   3.557   3.644   2.550  0.3256  0.2330  0.0799
 2375ntf    on514559   3.216   3.790   2.587  0.0267  0.4254  0.3773
 2375ntf    on514560   3.426   3.924   2.573  0.7977 -0.3035 -0.0714
 2375ntf    on514561   3.559   3.711   2.260 -0.5303 -0.8759  0.2158
 2375ntf    on514562   3.508   3.949   2.283  0.4098 -0.3806  0.8674
 2375ntf    fn414563   3.287   3.929   2.114  0.6531  0.1330 -1.0536
 2375ntf    fn414564   3.445   3.828   2.018 -0.0630  0.2357 -0.2994
 2375ntf    fn414565   3.282   3.719   2.097 -0.0136  0.1525 -0.6587
 2376ntf    cn114566   6.790   6.930   1.760 -0.0328  0.4738 -0.2367
 2376ntf    sn214567   6.900   6.896   1.620  0.2212  0.0828  0.0571
 2376ntf    nn314568   7.021   6.988   1.659  0.2054  0.1344 -0.0172
 2376ntf    sn214569   7.059   7.138   1.631 -0.0792  0.1760 -0.1835
 2376ntf    cn114570   7.205   7.111   1.527 -0.0415 -0.4183  0.0188
 2376ntf    fn414571   6.686   6.848   1.769  0.3483 -0.0433 -0.5379
 2376ntf    fn414572   6.854   6.924   1.876 -0.4208 -0.3589 -0.0565
 2376ntf    fn414573   6.743   7.054   1.751  0.4838  0.6742 -0.1885
 2376ntf    on514574   6.934   6.757   1.643 -0.0699  0.0136  0.0674
 2376ntf    on514575   6.822   6.935   1.505  0.2418 -0.7532 -0.2529
 2376ntf    on514576   7.123   7.198   1.745  0.5743 -0.4206 -0.2310
 2376ntf    on514577   6.974   7.217   1.545 -0.5686 -0.5008 -0.3346
 2376ntf    fn414578   7.165   7.054   1.414 -0.0739  0.0057 -0.1845
 2376ntf    fn414579   7.266   7.226   1.505 -0.4281 -0.1780  0.1986
 2376ntf    fn414580   7.298   7.030   1.573  0.1004 -0.2544  0.0217
 2377ntf    cn114581   0.018   1.718   0.488  0.3574 -0.2201 -0.2277
 2377ntf    sn214582  -0.010   1.580   0.603  0.1570 -0.2037 -0.2567
 2377ntf    nn314583   0.033   1.645   0.739  0.2085 -0.0642 -0.3401
 2377ntf    sn214584  -0.039   1.754   0.826  0.2421 -0.0257 -0.3609
 2377ntf    cn114585   0.103   1.841   0.899  0.0108 -0.1539  0.2461
 2377ntf    fn414586  -0.082   1.804   0.492  0.5949  0.0754 -0.5958
 2377ntf    fn414587   0.134   1.778   0.508  0.4197 -0.3985 -0.0390
 2377ntf    fn414588   0.015   1.673   0.364 -0.2814  0.3866 -0.4353
 2377ntf    on514589  -0.150   1.551   0.582  0.3282 -0.9886 -0.3710
 2377ntf    on514590   0.078   1.471   0.567  0.7260  0.1624  0.0212
 2377ntf    on514591  -0.097   1.696   0.944 -0.8310 -0.1331 -0.9319
 2377ntf    on514592  -0.107   1.862   0.759  0.0707 -0.0433 -0.2138
 2377ntf    fn414593   0.175   1.896   0.802 -0.1834 -0.3967 -0.0374
 2377ntf    fn414594   0.075   1.943   0.978 -0.2037  0.3411 -0.4592
 2377ntf    fn414595   0.186   1.768   0.972  0.3912  0.1889  0.1641
 2378ntf    cn114596   5.906   3.648   6.027 -0.2111  0.6065 -0.1779
 2378ntf    sn214597   6.083   3.606   6.022 -0.3061  0.1633  0.0978
 2378ntf    nn314598   6.136   3.713   5.920  0.0505 -0.0717  0.0369
 2378ntf    sn214599   6.183   3.701   5.770 -0.3565 -0.1033 -0.0883
 2378ntf    cn114600   6.329   3.809   5.771 -0.7001  0.3657 -0.2841
 2378ntf    fn414601   5.840   3.569   6.111  0.0206  0.0492 -0.5133
 2378ntf    fn414602   5.894   3.771   6.073  0.0490  0.4373  0.3581
 2378ntf    fn414603   5.838   3.645   5.914 -0.2562 -0.3409 -0.1388
 2378ntf    on514604   6.127   3.632   6.156  0.9836 -0.2351 -0.2333
 2378ntf    on514605   6.089   3.469   5.977 -0.1960  0.2916 -0.2828
 2378ntf    on514606   6.092   3.760   5.675 -0.1622 -0.2237 -0.3509
 2378ntf    on514607   6.236   3.570   5.739  0.1186  0.2329 -0.7115
 2378ntf    fn414608   6.370   3.833   5.648 -0.0494  0.7098 -0.0048
 2378ntf    fn414609   6.313   3.922   5.838  0.1523  0.3488 -0.0420
 2378ntf    fn414610   6.435   3.754   5.827 -0.5440 -0.0520 -0.9785
 2379ntf    cn114611   5.095   1.768   5.923 -0.3720 -0.0779 -0.2289
 2379ntf    sn214612   5.211   1.721   5.791 -0.0294  0.2759 -0.0574
 2379ntf    nn314613   5.149   1.815   5.682 -0.3637  0.0131 -0.0979
 2379ntf    sn214614   5.048   1.766   5.573 -0.2142 -0.0572 -0.2049
 2379ntf    cn114615   5.177   1.711   5.458  0.1325  0.1645  0.0776
 2379ntf    fn414616   5.117   1.681   6.020  0.4463  0.0751 -0.2702
 2379ntf    fn414617   5.114   1.891   5.969 -0.6113 -0.1623  0.0986
 2379ntf    fn414618   4.966   1.759   5.893 -0.2809  0.0754 -0.6878
 2379ntf    on514619   5.341   1.752   5.845  0.1109 -0.1198 -0.1620
 2379ntf    on514620   5.174   1.582   5.784  0.1429  0.2114  0.2886
 2379ntf    on514621   4.995   1.885   5.511  0.4101  0.0982 -0.4411
 2379ntf    on514622   4.964   1.654   5.606  0.4290 -0.5115 -0.1032
 2379ntf    fn414623   5.246   1.815   5.411  0.6386 -0.1675  0.0784
 2379ntf    fn414624   5.265   1.639   5.525  0.0527 -0.4958 -0.5178
 2379ntf    fn414625   5.140   1.634   5.357 -0.0453 -0.1978  0.4185
 2380ntf    cn114626   4.816   5.529   5.978 -0.0242 -0.4472 -0.3545
 2380ntf    sn214627   4.665   5.630   5.980  0.0521 -0.3437  0.2143
 2380ntf    nn314628   4.713   5.742   5.881  0.3140 -0.1319  0.5767
 2380ntf    sn214629   4.777   5.884   5.901 -0.0355  0.1567 -0.2982
 2380ntf    cn114630   4.900   5.861   5.769  0.0544 -0.0483 -0.1798
 2380ntf    fn414631   4.819   5.419   6.052  0.3656  0.2923  0.7610
 2380ntf    fn414632   4.848   5.490   5.856  0.3024 -0.2928 -0.3181
 2380ntf    fn414633   4.919   5.605   6.011 -0.8098  0.5330 -0.0936
 2380ntf    on514634   4.571   5.554   5.902  0.0212  0.1028 -0.1890
 2380ntf    on514635   4.638   5.658   6.119  0.0687  0.5440  0.0434
 2380ntf    on514636   4.857   5.911   6.018 -0.5967 -0.7096  0.3012
 2380ntf    on514637   4.695   5.990   5.850 -0.1992 -0.1848 -0.7473
 2380ntf    fn414638   4.982   5.763   5.804  0.0379 -0.2596 -0.7201
 2380ntf    fn414639   4.845   5.832   5.653  0.4210  0.0521 -0.3817
 2380ntf    fn414640   4.978   5.967   5.751  0.0433 -0.1392 -0.7946
 2381ntf    cn114641   6.117   3.601   3.913 -0.1632 -0.3378  0.2565
 2381ntf    sn214642   6.165   3.738   4.022  0.0947 -0.3091  0.1086
 2381ntf    nn314643   6.045   3.742   4.124  0.0782 -0.3780  0.0914
 2381ntf    sn214644   6.012   3.628   4.227 -0.1322 -0.0244  0.4175
 2381ntf    cn114645   6.062   3.704   4.384 -0.0884  0.4240  0.1888
 2381ntf    fn414646   6.027   3.516   3.959 -0.5537  0.3961  0.8745
 2381ntf    fn414647   6.063   3.655   3.805  0.0675 -0.4641  0.0786
 2381ntf    fn414648   6.219   3.528   3.870  0.0701  0.0806  0.0874
 2381ntf    on514649   6.294   3.708   4.079  0.0785  0.1232  0.3837
 2381ntf    on514650   6.173   3.857   3.941  0.1402 -0.3263  0.0876
 2381ntf    on514651   6.105   3.518   4.213  0.6805  0.6303  0.5669
 2381ntf    on514652   5.871   3.604   4.238 -0.1511 -0.0018  0.2310
 2381ntf    fn414653   5.977   3.804   4.404 -0.1614  0.3907  0.0432
 2381ntf    fn414654   6.053   3.628   4.492  0.4117 -0.0480 -0.0965
 2381ntf    fn414655   6.186   3.750   4.386  0.1911 -0.3137 -0.0808
 2382ntf    cn114656   2.730   2.040   3.315  0.0856  0.5658 -0.3728
 2382ntf    sn214657   2.703   1.890   3.215  0.0158 -0.0315  0.5305
 2382ntf    nn314658   2.798   1.926   3.095 -0.7959  0.0368 -0.0979
 2382ntf    sn214659   2.764   1.994   2.958  0.1693  0.1302 -0.2990
 2382ntf    cn114660   2.920   2.084   2.933  0.0721  0.2162 -0.5997
 2382ntf    fn414661   2.849   2.043   3.372  0.1310  0.1097 -0.4374
 2382ntf    fn414662   2.719   2.145   3.234 -0.2793  1.0137  0.2503
 2382ntf    fn414663   2.630   2.059   3.400 -0.0322 -0.2050 -0.3262
 2382ntf    on514664   2.757   1.785   3.298  0.3486  0.0748  0.4516
 2382ntf    on514665   2.561   1.880   3.193  0.0107  0.4840  0.2966
 2382ntf    on514666   2.661   2.095   2.951 -0.0161 -0.0278  0.1359
 2382ntf    on514667   2.759   1.902   2.846 -0.3440 -0.3160  0.0860
 2382ntf    fn414668   3.013   2.024   3.004 -0.4622 -0.0522 -0.1207
 2382ntf    fn414669   2.965   2.104   2.810  0.9266 -0.1045 -0.3451
 2382ntf    fn414670   2.917   2.207   2.981 -0.2750 -0.1125  0.2403
 2383ntf    cn114671   3.406   6.981   0.846  0.0209 -0.0830 -0.0565
 2383ntf    sn214672   3.514   7.118   0.795  0.3362 -0.3343 -0.0633
 2383ntf    nn314673   3.508   7.213   0.919 -0.2218  0.2091 -0.5021
 2383ntf    sn214674   3.427   7.347   0.937 -0.4577 -0.0403  0.3455
 2383ntf    cn114675   3.458   7.376   1.114  0.4456 -0.1282  0.2084
 2383ntf    fn414676   3.406   6.887   0.753  0.1606 -0.5217  0.3874
 2383ntf    fn414677   3.450   6.913   0.950 -0.1563 -0.6711 -0.3599
 2383ntf    fn414678   3.281   7.023   0.861 -0.0973 -0.4161 -0.1140
 2383ntf    on514679   3.640   7.047   0.792  0.5422  0.0035  0.5126
 2383ntf    on514680   3.460   7.161   0.668  0.5252 -0.1553 -0.0842
 2383ntf    on514681   3.284   7.340   0.925 -0.4647 -0.5414  0.7052
 2383ntf    on514682   3.493   7.460   0.875  0.1791 -0.5302  0.1141
 2383ntf    fn414683   3.420   7.497   1.151  0.4087  0.0805 -0.4884
 2383ntf    fn414684   3.395   7.290   1.193  0.5123 -0.4535 -0.0854
 2383ntf    fn414685   3.585   7.363   1.149  0.4920 -0.1393  0.0391
 2384ntf    cn114686   2.671   6.340   1.469  0.1688  0.3511  0.4510
 2384ntf    sn214687   2.495   6.298   1.478  0.1194  0.3415 -0.4489
 2384ntf    nn314688   2.506   6.161   1.554 -0.5266  0.4597 -0.1356
 2384ntf    sn214689   2.390   6.077   1.618 -0.1695  0.1697  0.1344
 2384ntf    cn114690   2.366   5.966   1.476 -0.0683  0.1072  0.1655
 2384ntf    fn414691   2.745   6.231   1.480 -0.3247 -0.0298  0.0740
 2384ntf    fn414692   2.700   6.390   1.349 -0.5764 -0.1169  0.0694
 2384ntf    fn414693   2.709   6.430   1.558  0.1912  0.7764  0.0223
 2384ntf    on514694   2.427   6.396   1.558 -0.3474 -0.2432 -0.1163
 2384ntf    on514695   2.460   6.280   1.339  0.0414  0.7977 -0.4912
 2384ntf    on514696   2.261   6.137   1.639  0.1431  0.8727  0.0906
 2384ntf    on514697   2.440   5.981   1.714  0.2033 -0.2793 -0.5048
 2384ntf    fn414698   2.263   5.889   1.506 -0.2690  0.0804 -0.5852
 2384ntf    fn414699   2.344   6.031   1.363 -0.0336 -0.5089 -0.1986
 2384ntf    fn414700   2.475   5.893   1.465 -0.2065 -0.0878  0.0989
 2385ntf    cn114701   2.158   0.851   1.610  0.0859 -0.1110 -0.4023
 2385ntf    sn214702   2.157   0.707   1.722  0.2050  0.2192  0.0253
 2385ntf    nn314703   2.303   0.651   1.714  0.4392  0.8570 -0.2437
 2385ntf    sn214704   2.414   0.671   1.823  0.0825  0.0113  0.2861
 2385ntf    cn114705   2.385   0.524   1.925 -0.0112 -0.3197 -0.2158
 2385ntf    fn414706   2.133   0.816   1.485  0.1186 -0.6241 -0.2713
 2385ntf    fn414707   2.067   0.940   1.645  0.5162  0.3255 -0.3773
 2385ntf    fn414708   2.269   0.924   1.608  0.2445 -0.3402 -0.1703
 2385ntf    on514709   2.113   0.759   1.850  0.7122 -0.5523  0.5225
 2385ntf    on514710   2.066   0.613   1.662  0.7324 -0.2726 -0.0027
 2385ntf    on514711   2.402   0.782   1.914 -0.2122  0.0058  0.2539
 2385ntf    on514712   2.543   0.635   1.771 -0.2256 -0.1253 -0.3870
 2385ntf    fn414713   2.382   0.410   1.858  0.0155 -0.0406 -0.6922
 2385ntf    fn414714   2.477   0.503   2.018 -0.1007  0.7320  0.1232
 2385ntf    fn414715   2.272   0.523   1.994  0.0238 -0.2150 -0.1567
 2386ntf    cn114716   6.684   3.334   3.320  0.2139  0.3990 -0.1405
 2386ntf    sn214717   6.689   3.480   3.212 -0.0862  0.2049 -0.4178
 2386ntf    nn314718   6.808   3.564   3.271 -0.0223 -0.2599  0.1303
 2386ntf    sn214719   6.787   3.670   3.384  0.0451  0.1571 -0.2448
 2386ntf    cn114720   6.948   3.750   3.362  0.1996 -0.1099 -0.0923
 2386ntf    fn414721   6.635   3.366   3.439 -0.5165  0.2660 -0.3975
 2386ntf    fn414722   6.623   3.231   3.263  0.2547  0.6538 -0.6492
 2386ntf    fn414723   6.806   3.290   3.346  0.0235 -0.1787 -0.2061
 2386ntf    on514724   6.722   3.415   3.087  0.5719  0.3304 -0.3087
 2386ntf    on514725   6.559   3.534   3.240 -0.2575 -0.3952 -0.0149
 2386ntf    on514726   6.798   3.613   3.516  0.5095  0.9631  0.0722
 2386ntf    on514727   6.695   3.778   3.357 -0.7261 -0.3397  0.3313
 2386ntf    fn414728   6.966   3.851   3.445  0.5951  0.1230 -0.4549
 2386ntf    fn414729   7.057   3.676   3.371  0.3414  0.0828 -0.2065
 2386ntf    fn414730   6.957   3.809   3.244  0.3863 -0.2725 -0.1607
 2387ntf    cn114731   6.257   2.648   4.485  0.0473  0.1501 -0.0348
 2387ntf    sn214732   6.116   2.723   4.398  0.1981  0.2389 -0.2039
 2387ntf    nn314733   6.058   2.810   4.515 -0.6929  0.0241 -0.4746
 2387ntf    sn214734   5.950   2.773   4.622 -0.1307 -0.3691 -0.0344
 2387ntf    cn114735   5.828   2.889   4.552  0.4888  0.3280  0.0290
 2387ntf    fn414736   6.360   2.730   4.495 -0.0092  0.3252 -0.8109
 2387ntf    fn414737   6.226   2.604   4.606  0.2626  0.1270  0.0131
 2387ntf    fn414738   6.298   2.541   4.419  0.1767  0.2500 -0.1170
 2387ntf    on514739   6.188   2.811   4.309  0.3855 -0.2471 -0.5379
 2387ntf    on514740   6.032   2.618   4.345 -0.3696  0.1100  0.9290
 2387ntf    on514741   5.969   2.824   4.756 -0.2767  0.2457 -0.2435
 2387ntf    on514742   5.886   2.645   4.605 -0.1599 -0.4327  0.5223
 2387ntf    fn414743   5.720   2.909   4.625 -0.0297  0.0156 -0.6447
 2387ntf    fn414744   5.873   3.013   4.542  0.0618  0.4912  0.0998
 2387ntf    fn414745   5.770   2.850   4.440  0.4254 -0.3372  0.2897
 2388ntf    cn114746   2.965   5.394   4.188  0.1835 -0.4004 -0.5005
 2388ntf    sn214747   3.084   5.382   4.052 -0.0283 -0.1468 -0.7091
 2388ntf    nn314748   3.019   5.489   3.958  0.5094  0.5761 -0.2707
 2388ntf    sn214749   3.087   5.539   3.825  0.2233  0.1352 -0.5869
 2388ntf    cn114750   3.001   5.698   3.804 -0.1182 -0.0195 -0.3685
 2388ntf    fn414751   2.986   5.292   4.269 -0.0453  0.0941  0.1924
 2388ntf    fn414752   2.977   5.499   4.268 -0.1864 -0.3439 -0.5141
 2388ntf    fn414753   2.840   5.375   4.149  0.3501 -0.4714 -1.0090
 2388ntf    on514754   3.206   5.410   4.123 -0.8440  0.5701  0.4409
 2388ntf    on514755   3.064   5.246   4.010  0.1025 -0.2195 -0.5378
 2388ntf    on514756   3.048   5.456   3.714 -0.1511  0.2773 -0.5618
 2388ntf    on514757   3.219   5.597   3.830  0.1494  0.2645  0.0552
 2388ntf    fn414758   2.880   5.681   3.753 -0.0729  0.6596 -0.7148
 2388ntf    fn414759   2.980   5.760   3.919 -0.0665 -0.0905 -0.3208
 2388ntf    fn414760   3.057   5.792   3.730 -0.2880  0.2118 -0.2041
 2389ntf    cn114761   2.873   2.445   1.371  0.0616 -0.1278  0.0030
 2389ntf    sn214762   2.932   2.512   1.530 -0.1210 -0.1460  0.0794
 2389ntf    nn314763   3.014   2.631   1.468 -0.5820  0.1675  0.0743
 2389ntf    sn214764   2.993   2.787   1.463  0.0081  0.2415 -0.1200
 2389ntf    cn114765   3.030   2.799   1.285 -0.1974 -0.0115 -0.1796
 2389ntf    fn414766   2.786   2.347   1.385  0.3308 -0.4312 -0.4343
 2389ntf    fn414767   2.815   2.542   1.303 -0.0053 -0.1710 -0.0008
 2389ntf    fn414768   2.974   2.403   1.296  0.1780  0.3405 -0.1098
 2389ntf    on514769   2.814   2.552   1.601  0.0364  0.0762  0.2189
 2389ntf    on514770   3.013   2.404   1.581  0.1562  0.0255  0.0057
 2389ntf    on514771   3.100   2.860   1.526  0.1292  0.0633 -0.1161
 2389ntf    on514772   2.861   2.845   1.463 -0.0872  0.0331 -0.6608
 2389ntf    fn414773   2.954   2.717   1.213 -0.3018 -0.1367  0.0721
 2389ntf    fn414774   2.999   2.921   1.245  0.4913  0.1221 -0.3044
 2389ntf    fn414775   3.152   2.770   1.243 -0.3014 -0.3105 -0.2797
 2390ntf    cn114776   5.636   3.710   1.174 -0.1972  0.0182 -0.2804
 2390ntf    sn214777   5.546   3.672   1.328  0.0743 -0.2884 -0.1980
 2390ntf    nn314778   5.611   3.529   1.343  0.0421 -0.2976 -0.1443
 2390ntf    sn214779   5.659   3.455   1.472  0.0950 -0.2185 -0.1191
 2390ntf    cn114780   5.840   3.462   1.454  0.1149  0.0258  0.1521
 2390ntf    fn414781   5.767   3.710   1.195 -0.2337 -0.0816 -0.0480
 2390ntf    fn414782   5.608   3.624   1.077 -0.1292  0.0470 -0.3250
 2390ntf    fn414783   5.612   3.834   1.134 -0.6643  0.0406  0.0507
 2390ntf    on514784   5.592   3.780   1.411 -0.7302 -0.0333 -0.0777
 2390ntf    on514785   5.407   3.669   1.293 -0.0590  0.0502  0.3063
 2390ntf    on514786   5.627   3.315   1.458 -0.5393  0.0102 -0.9809
 2390ntf    on514787   5.618   3.524   1.592 -0.5563 -0.0465 -0.4374
 2390ntf    fn414788   5.894   3.583   1.452 -0.4758  0.2874 -0.1448
 2390ntf    fn414789   5.903   3.392   1.547  0.0355 -0.3526 -0.0755
 2390ntf    fn414790   5.883   3.401   1.345  0.1229 -0.1758  0.2661
 2391ntf    cn114791   3.787   4.118   1.499 -0.1975  0.0100 -0.1980
 2391ntf    sn214792   3.925   4.234   1.516 -0.2803  0.0943 -0.1010
 2391ntf    nn314793   4.009   4.181   1.638 -0.1779  0.4428 -0.0188
 2391ntf    sn214794   4.164   4.178   1.662 -0.1700 -0.3062 -0.1516
 2391ntf    cn114795   4.201   4.000   1.661 -0.1901 -0.3093 -0.4600
 2391ntf    fn414796   3.700   4.127   1.598 -0.3901  0.0255 -0.3679
 2391ntf    fn414797   3.717   4.152   1.392  0.1339 -0.3373 -0.5298
 2391ntf    fn414798   3.825   3.992   1.481 -0.4685 -0.1048  0.0166
 2391ntf    on514799   4.001   4.206   1.396  0.1711  0.0423  0.1945
 2391ntf    on514800   3.864   4.364   1.527 -0.7019 -0.0349 -0.8607
 2391ntf    on514801   4.187   4.209   1.801 -0.0230 -0.4487 -0.1444
 2391ntf    on514802   4.249   4.238   1.563 -0.2660  0.1586  0.0446
 2391ntf    fn414803   4.318   3.957   1.704 -0.3235 -0.4116 -0.1962
 2391ntf    fn414804   4.109   3.943   1.738 -0.1786  0.3145  0.0258
 2391ntf    fn414805   4.180   3.944   1.543  0.2053 -0.2342 -0.5664
 2392ntf    cn114806   2.626   4.555   1.711  0.0232 -0.1939  0.3532
 2392ntf    sn214807   2.500   4.465   1.615 -0.0310  0.2632 -0.0098
 2392ntf    nn314808   2.539   4.544   1.486  0.7589  0.3248  0.2564
 2392ntf    sn214809   2.558   4.489   1.340 -0.0731  0.2177  0.1819
 2392ntf    cn114810   2.737   4.511   1.319 -0.0595  0.1551  0.2284
 2392ntf    fn414811   2.577   4.677   1.727  0.3014  0.0284 -0.4344
 2392ntf    fn414812   2.641   4.492   1.826  0.2969 -0.5650  0.1173
 2392ntf    fn414813   2.743   4.558   1.650 -0.1795  1.2343 -0.0007
 2392ntf    on514814   2.538   4.326   1.630 -0.5890  0.1035 -0.0530
 2392ntf    on514815   2.369   4.499   1.663  0.0415 -0.4048  0.6933
 2392ntf    on514816   2.500   4.577   1.242  0.0219 -0.1693 -0.2233
 2392ntf    on514817   2.548   4.345   1.332  0.7079  0.1182  0.8505
 2392ntf    fn414818   2.780   4.483   1.197  0.0948 -0.4629  0.4231
 2392ntf    fn414819   2.778   4.634   1.347  0.3419  0.0915 -0.0708
 2392ntf    fn414820   2.796   4.426   1.402 -0.3185 -0.3183 -0.0695
 2393ntf    cn114821   1.355   4.556   1.109 -0.0006  0.2316 -0.6385
 2393ntf    sn214822   1.361   4.565   1.291  0.1706  0.0493 -0.6348
 2393ntf    nn314823   1.517   4.572   1.309  0.0887  0.5536 -0.1030
 2393ntf    sn214824   1.613   4.526   1.424 -0.2196  0.0644 -0.0384
 2393ntf    cn114825   1.511   4.562   1.570  0.2038  0.3544  0.1885
 2393ntf    fn414826   1.402   4.663   1.046  0.5599  0.3783  0.0164
 2393ntf    fn414827   1.434   4.459   1.066 -0.2087 -0.3858  0.3564
 2393ntf    fn414828   1.234   4.530   1.063  0.0662 -0.6901 -0.3169
 2393ntf    on514829   1.301   4.694   1.316 -0.2033 -0.1760 -0.3747
 2393ntf    on514830   1.285   4.449   1.330  0.1571  0.1812 -0.2677
 2393ntf    on514831   1.716   4.626   1.436 -0.0448 -0.0794 -0.3432
 2393ntf    on514832   1.656   4.388   1.428 -0.1211  0.0951 -0.0383
 2393ntf    fn414833   1.442   4.674   1.557 -1.0728 -0.4482 -0.1456
 2393ntf    fn414834   1.427   4.467   1.608  0.0846  0.3937  0.0237
 2393ntf    fn414835   1.593   4.581   1.672  0.0459 -0.2342  0.4299
 2394ntf    cn114836   0.714   3.239   3.383  0.5537 -0.0957  0.0135
 2394ntf    sn214837   0.622   3.281   3.533  0.1005 -0.0209 -0.2843
 2394ntf    nn314838   0.740   3.267   3.636  0.0705 -0.0508 -0.2543
 2394ntf    sn214839   0.799   3.355   3.752  0.1961 -0.1421 -0.2488
 2394ntf    cn114840   0.715   3.273   3.892  0.2587  0.0106 -0.1224
 2394ntf    fn414841   0.778   3.123   3.386  0.3512 -0.1937  0.5111
 2394ntf    fn414842   0.642   3.244   3.272  0.1941  0.2419  0.2617
 2394ntf    fn414843   0.805   3.333   3.362 -0.1618  0.5460 -0.2325
 2394ntf    on514844   0.580   3.417   3.507  0.1141 -0.0651 -0.5311
 2394ntf    on514845   0.517   3.183   3.547  0.2267 -0.0842  0.2664
 2394ntf    on514846   0.749   3.490   3.755 -0.8684 -0.5293  0.1750
 2394ntf    on514847   0.936   3.334   3.791 -0.0019 -0.3366  0.3632
 2394ntf    fn414848   0.754   3.147   3.882 -0.7518 -0.2880 -0.3445
 2394ntf    fn414849   0.762   3.315   4.008  0.4786 -0.3942 -0.0637
 2394ntf    fn414850   0.584   3.289   3.885  0.2693 -0.0410 -0.5013
 2395ntf    cn114851   6.436   3.696   4.916 -0.2641  0.0788  0.1538
 2395ntf    sn214852   6.609   3.669   4.865 -0.3082  0.0375  0.0278
 2395ntf    nn314853   6.692   3.769   4.953 -0.6671  0.2545  0.1231
 2395ntf    sn214854   6.782   3.727   5.075  0.0378 -0.0572 -0.5024
 2395ntf    cn114855   6.784   3.878   5.176  0.0689 -0.1860 -0.3122
 2395ntf    fn414856   6.347   3.628   4.846 -0.2199  0.2099 -0.0316
 2395ntf    fn414857   6.413   3.662   5.042  0.1431  0.2929  0.2888
 2395ntf    fn414858   6.398   3.823   4.911 -0.1115  0.1097 -0.2705
 2395ntf    on514859   6.626   3.528   4.890  0.0688  0.0148 -0.3631
 2395ntf    on514860   6.611   3.715   4.728  0.6313 -0.1504 -0.0248
 2395ntf    on514861   6.924   3.708   5.056  0.1891 -0.1697  0.6604
 2395ntf    on514862   6.714   3.635   5.162 -0.6427  0.6371 -0.2951
 2395ntf    fn414863   6.875   3.867   5.271 -0.1802 -0.2326 -0.0762
 2395ntf    fn414864   6.807   3.986   5.105  0.1309  0.4787  0.6955
 2395ntf    fn414865   6.667   3.903   5.233  0.3201  0.2676  0.0096
 2396ntf    cn114866   2.636   5.208   4.485 -0.1389  0.0960 -0.0238
 2396ntf    sn214867   2.473   5.203   4.404 -0.0259 -0.0580 -0.2416
 2396ntf    nn314868   2.504   5.114   4.278 -0.0858  0.1112 -0.3770
 2396ntf    sn214869   2.423   4.997   4.211  0.1758 -0.3105  0.0337
 2396ntf    cn114870   2.345   5.085   4.072  0.1953 -0.0428  0.1893
 2396ntf    fn414871   2.696   5.090   4.490 -0.6991 -0.2160 -0.4616
 2396ntf    fn414872   2.722   5.282   4.419 -0.1419  0.0608 -0.0665
 2396ntf    fn414873   2.622   5.250   4.610  0.1683  0.2672 -0.0466
 2396ntf    on514874   2.392   5.138   4.503  0.2924 -0.1928 -0.0695
 2396ntf    on514875   2.440   5.341   4.379  0.1903  0.2986  1.3369
 2396ntf    on514876   2.308   4.949   4.283 -0.3541  0.5551 -0.2277
 2396ntf    on514877   2.521   4.905   4.158 -0.1446 -0.5098 -0.2174
 2396ntf    fn414878   2.268   5.180   4.123  0.9018  0.3117  0.5992
 2396ntf    fn414879   2.417   5.135   3.974 -0.0140 -0.4167 -0.1576
 2396ntf    fn414880   2.264   5.001   4.008  0.4621 -0.1237 -0.0398
 2397ntf    cn114881   5.790   3.620   0.139 -0.1631  0.3210 -0.2928
 2397ntf    sn214882   5.960   3.634   0.202 -0.1974  0.0970 -0.1464
 2397ntf    nn314883   6.020   3.749   0.113 -0.0079  0.1926  0.1049
 2397ntf    sn214884   6.064   3.896   0.145 -0.0220  0.1942  0.1166
 2397ntf    cn114885   6.227   3.850   0.211 -0.1875  0.0093  0.3993
 2397ntf    fn414886   5.794   3.620   0.007 -0.2501  0.2574 -0.2959
 2397ntf    fn414887   5.728   3.510   0.178 -0.2510  0.5411  0.2028
 2397ntf    fn414888   5.706   3.712   0.187 -0.4234  0.1357 -0.3902
 2397ntf    on514889   5.950   3.657   0.344 -0.5079 -0.1546 -0.1248
 2397ntf    on514890   6.019   3.508   0.162 -0.3400 -0.0038 -0.0374
 2397ntf    on514891   5.981   3.963   0.241 -0.1639 -0.0833  0.1891
 2397ntf    on514892   6.092   3.971   0.025  0.0820 -0.2920 -0.1687
 2397ntf    fn414893   6.294   3.762   0.137 -0.4300  0.2618 -0.1267
 2397ntf    fn414894   6.301   3.959   0.213  0.1679 -0.2120 -0.3597
 2397ntf    fn414895   6.214   3.794   0.330  0.0250  0.6595  0.7323
 2398ntf    cn114896   4.466   6.811   4.188 -0.3317 -0.2718  0.2183
 2398ntf    sn214897   4.525   6.688   4.308  0.2343 -0.3232 -0.1053
 2398ntf    nn314898   4.664   6.646   4.250 -0.0965 -0.3207 -0.9152
 2398ntf    sn214899   4.801   6.722   4.262 -0.3446 -0.0302  0.1570
 2398ntf    cn114900   4.874   6.632   4.402 -0.0230  0.2406  0.1657
 2398ntf    fn414901   4.567   6.874   4.130 -0.3815 -0.3424  0.0533
 2398ntf    fn414902   4.404   6.747   4.090 -0.2095 -0.1612  0.0683
 2398ntf    fn414903   4.384   6.905   4.230 -0.1602  0.1078 -0.2797
 2398ntf    on514904   4.536   6.756   4.435  0.5398 -0.8196  0.1369
 2398ntf    on514905   4.426   6.584   4.301 -0.2708  0.1073  0.5078
 2398ntf    on514906   4.795   6.858   4.312 -0.3021  0.0125  0.0476
 2398ntf    on514907   4.885   6.680   4.152 -0.1828  0.2153  0.1842
 2398ntf    fn414908   4.884   6.502   4.379  0.2420  0.1754  0.6561
 2398ntf    fn414909   4.996   6.670   4.436  0.4006 -0.4947 -0.5003
 2398ntf    fn414910   4.802   6.644   4.512  1.0193  0.8670  0.7953
 2399ntf    cn114911   0.265   5.463   2.774 -0.0974  0.2933 -0.2609
 2399ntf    sn214912   0.420   5.481   2.681  0.0070  0.0332 -0.1373
 2399ntf    nn314913   0.503   5.360   2.738 -0.0892 -0.2337 -0.5582
 2399ntf    sn214914   0.649   5.346   2.793 -0.4434  0.1503  0.5026
 2399ntf    cn114915   0.727   5.286   2.640 -0.2369  0.4379  0.4918
 2399ntf    fn414916   0.186   5.367   2.729 -0.4512  0.4233  0.0790
 2399ntf    fn414917   0.290   5.450   2.903  0.7784  0.9349 -0.3500
 2399ntf    fn414918   0.197   5.576   2.766 -0.6417  0.0123  0.3142
 2399ntf    on514919   0.391   5.456   2.542  0.6381 -0.5045 -0.1789
 2399ntf    on514920   0.474   5.608   2.722 -0.2994  0.0541  0.2084
 2399ntf    on514921   0.667   5.226   2.870  0.3345  0.1417  0.3221
 2399ntf    on514922   0.724   5.464   2.831 -0.6551  0.2279  0.6805
 2399ntf    fn414923   0.854   5.321   2.631 -0.2492  0.4490  0.3591
 2399ntf    fn414924   0.729   5.153   2.639 -0.6183  0.4308 -0.1564
 2399ntf    fn414925   0.661   5.325   2.532 -0.2203 -0.5732  0.0983
 2400ntf    cn114926   0.399   2.432   5.730  0.0216 -0.3593  0.2361
 2400ntf    sn214927   0.254   2.527   5.676  0.1784 -0.2414  0.0258
 2400ntf    nn314928   0.181   2.540   5.814 -0.6761 -0.1716 -0.4248
 2400ntf    sn214929   0.142   2.666   5.900  0.1103 -0.0551 -0.2304
 2400ntf    cn114930   0.282   2.651   6.015  0.0100 -0.5417 -0.1700
 2400ntf    fn414931   0.519   2.481   5.709 -0.2454  0.2414  0.0974
 2400ntf    fn414932   0.383   2.397   5.857  0.2520 -1.0298  0.0850
 2400ntf    fn414933   0.404   2.318   5.664  0.1837 -0.0515 -0.2849
 2400ntf    on514934   0.304   2.652   5.625  0.3466 -0.0270  0.7034
 2400ntf    on514935   0.179   2.448   5.582  0.2514 -0.3990  0.0999
 2400ntf    on514936   0.026   2.646   5.983  0.3120 -0.8411 -0.1271
 2400ntf    on514937   0.171   2.792   5.837 -0.3073  0.2327  0.1555
 2400ntf    fn414938   0.285   2.531   6.070  0.0288 -0.5309 -0.1473
 2400ntf    fn414939   0.401   2.665   5.959  0.0689  0.9351  0.2938
 2400ntf    fn414940   0.271   2.743   6.109  0.0257  0.2091 -0.8927
 2401ntf    cn114941   1.725   3.650   5.948 -0.0019 -0.0144 -0.2596
 2401ntf    sn214942   1.668   3.542   5.814 -0.0485 -0.3259  0.0105
 2401ntf    nn314943   1.804   3.499   5.749  0.0321 -0.0116 -0.0302
 2401ntf    sn214944   1.867   3.539   5.611  0.2240  0.5191  0.2102
 2401ntf    cn114945   2.023   3.613   5.669  0.1400  0.7382  0.1585
 2401ntf    fn414946   1.777   3.573   6.042 -0.2376 -0.3047 -0.3646
 2401ntf    fn414947   1.827   3.720   5.900  0.1461 -0.4544 -0.5951
 2401ntf    fn414948   1.637   3.733   6.001  0.2475  0.1276 -0.0653
 2401ntf    on514949   1.606   3.441   5.896 -0.0062 -0.1146  0.3036
 2401ntf    on514950   1.577   3.634   5.749  0.4774  0.1244 -0.0894
 2401ntf    on514951   1.803   3.646   5.539 -0.2694 -0.1963 -0.4203
 2401ntf    on514952   1.919   3.427   5.537  0.0412  0.2349  0.5087
 2401ntf    fn414953   2.104   3.528   5.730 -0.1661  0.1363 -0.2613
 2401ntf    fn414954   2.109   3.647   5.574  0.1727 -0.1858 -0.1549
 2401ntf    fn414955   2.007   3.717   5.749  0.0586  0.5463  0.3906
 2402ntf    cn114956   3.130   1.294   4.186  0.1958  0.1181  0.0051
 2402ntf    sn214957   3.206   1.143   4.120 -0.0386  0.0477 -0.1030
 2402ntf    nn314958   3.147   1.039   4.222  0.1776  0.0487  0.0238
 2402ntf    sn214959   3.199   0.989   4.361  0.3144  0.4664  0.1253
 2402ntf    cn114960   3.244   0.817   4.324  0.0677  0.4542 -0.1193
 2402ntf    fn414961   3.169   1.314   4.311  0.2547  0.0901 -0.0088
 2402ntf    fn414962   3.162   1.403   4.119  0.1859  0.4073  0.4617
 2402ntf    fn414963   2.998   1.284   4.193  0.2054  0.3671  0.6345
 2402ntf    on514964   3.160   1.117   3.986  0.0531 -0.4477 -0.0388
 2402ntf    on514965   3.344   1.182   4.134 -0.0412 -0.1962  0.6399
 2402ntf    on514966   3.078   0.979   4.440  0.2455 -0.3209 -0.0710
 2402ntf    on514967   3.315   1.056   4.415  0.7514 -0.2267  0.0538
 2402ntf    fn414968   3.332   0.820   4.226 -0.2449 -0.2018 -0.4255
 2402ntf    fn414969   3.297   0.751   4.425 -0.1434 -0.5266 -0.6371
 2402ntf    fn414970   3.139   0.742   4.294 -0.0594  0.5782  0.0105
 2403ntf    cn114971   0.711   6.538   5.686 -0.4506  0.0149  0.3723
 2403ntf    sn214972   0.566   6.430   5.701 -0.3453 -0.2061 -0.1681
 2403ntf    nn314973   0.621   6.295   5.642  0.0299 -0.0672 -0.1384
 2403ntf    sn214974   0.563   6.210   5.524 -0.2033 -0.0271 -0.0534
 2403ntf    cn114975   0.643   6.283   5.378 -0.2479 -0.0974 -0.1133
 2403ntf    fn414976   0.770   6.522   5.568 -0.1507 -0.1485  0.5440
 2403ntf    fn414977   0.684   6.668   5.693  0.0146  0.1137  0.4123
 2403ntf    fn414978   0.798   6.528   5.785 -0.0095  0.1130 -0.0024
 2403ntf    on514979   0.525   6.419   5.839 -0.0928 -0.4419 -0.1093
 2403ntf    on514980   0.471   6.501   5.620 -0.7817 -0.5016  0.0756
 2403ntf    on514981   0.426   6.219   5.479 -0.1211 -0.5964 -0.4401
 2403ntf    on514982   0.613   6.075   5.533 -0.3055 -0.1024 -0.6024
 2403ntf    fn414983   0.771   6.289   5.411 -0.2534 -0.0916 -0.0927
 2403ntf    fn414984   0.622   6.208   5.271  0.0908  0.0953 -0.3159
 2403ntf    fn414985   0.602   6.405   5.346  0.6592  0.3050  0.2288
 2404ntf    cn114986   0.146   1.842   1.905 -0.2157  0.2127  0.5342
 2404ntf    sn214987   0.035   1.940   1.799  0.0831  0.1210  0.1340
 2404ntf    nn314988   0.072   2.085   1.845 -0.3182  0.4223 -0.4744
 2404ntf    sn214989   0.188   2.174   1.789  0.3931 -0.2727 -0.1187
 2404ntf    cn114990   0.115   2.235   1.634  0.2435  0.2348  0.1495
 2404ntf    fn414991   0.271   1.885   1.910 -0.1953  0.2302 -0.0649
 2404ntf    fn414992   0.089   1.847   2.024  0.5422  0.2834  0.8929
 2404ntf    fn414993   0.144   1.721   1.851  0.4546  0.3148  0.2706
 2404ntf    on514994   0.059   1.909   1.660 -0.4196 -0.9716  0.2765
 2404ntf    on514995  -0.094   1.898   1.849  0.1095  0.1266  0.2058
 2404ntf    on514996   0.306   2.106   1.741  0.6474 -0.1659  0.3435
 2404ntf    on514997   0.210   2.292   1.870  0.1973 -0.3266  0.0133
 2404ntf    fn414998  -0.004   2.291   1.645  0.0494 -0.1405  0.0042
 2404ntf    fn414999   0.189   2.329   1.580  0.2135  0.0685 -0.1821
 2404ntf    fn415000   0.117   2.144   1.538 -0.2063  0.2012  0.1697
 2405ntf    cn115001   5.470   1.039   6.566 -0.3498 -0.1566 -0.1250
 2405ntf    sn215002   5.641   1.067   6.622 -0.3065  0.1514 -0.4080
 2405ntf    nn315003   5.625   0.986   6.755 -0.5250 -0.0670 -0.5662
 2405ntf    sn215004   5.614   0.831   6.775  0.2951 -0.0844 -0.1980
 2405ntf    cn115005   5.753   0.793   6.885 -0.2594 -0.5495  0.3532
 2405ntf    fn415006   5.438   0.911   6.570 -0.4140 -0.1314  0.1637
 2405ntf    fn415007   5.381   1.094   6.647 -0.2636 -0.1522 -0.0333
 2405ntf    fn415008   5.445   1.071   6.440  0.1558 -0.2888 -0.2629
 2405ntf    on515009   5.728   1.020   6.517  0.2403 -0.1697  0.1843
 2405ntf    on515010   5.656   1.207   6.653 -0.1904 -0.0189  0.3124
 2405ntf    on515011   5.631   0.749   6.657 -0.4085 -0.2236 -0.2076
 2405ntf    on515012   5.500   0.802   6.859  0.7271 -0.3977  0.2890
 2405ntf    fn415013   5.796   0.668   6.880  0.1079 -0.4176  0.0880
 2405ntf    fn415014   5.860   0.861   6.846 -0.8416  0.4059  0.3933
 2405ntf    fn415015   5.736   0.829   7.011  0.0018  0.2449  0.1664
 2406ntf    cn115016   5.887   2.490   0.438 -0.1408  0.3515  0.1382
 2406ntf    sn215017   5.950   2.629   0.338 -0.2118  0.2653 -0.0268
 2406ntf    nn315018   6.098   2.642   0.388 -0.2492  0.4232  0.0436
 2406ntf    sn215019   6.232   2.683   0.317 -0.3594  0.2439 -0.2671
 2406ntf    cn115020   6.269   2.850   0.380  0.0360 -0.0173  0.1966
 2406ntf    fn415021   5.954   2.380   0.409 -0.1615  0.4996 -0.4784
 2406ntf    fn415022   5.896   2.514   0.568 -0.1720  0.0341  0.1989
 2406ntf    fn415023   5.760   2.465   0.411  0.1727 -0.5337 -0.5752
 2406ntf    on515024   5.933   2.582   0.203  0.2229  0.3773 -0.1227
 2406ntf    on515025   5.861   2.733   0.383 -0.6650 -0.0724 -0.1313
 2406ntf    on515026   6.230   2.694   0.173 -0.3465  0.6507 -0.2382
 2406ntf    on515027   6.337   2.604   0.376 -0.2245  0.3241 -0.3968
 2406ntf    fn415028   6.355   2.914   0.303 -0.1408  0.1978  0.1803
 2406ntf    fn415029   6.161   2.926   0.385 -0.1040 -0.2214  0.2732
 2406ntf    fn415030   6.322   2.841   0.501  0.1887 -0.5524  0.0951
 2407ntf    cn115031   0.573   0.409   0.240  0.5027 -0.1221  0.0795
 2407ntf    sn215032   0.485   0.286   0.341 -0.0810 -0.0852 -0.3797
 2407ntf    nn315033   0.336   0.297   0.293 -0.0109  0.0974 -0.5545
 2407ntf    sn215034   0.227   0.402   0.337  0.1884  0.0891 -0.0398
 2407ntf    cn115035   0.112   0.309   0.443  0.2284  0.0481 -0.0318
 2407ntf    fn415036   0.570   0.363   0.116  0.1758 -0.3989  0.1884
 2407ntf    fn415037   0.526   0.532   0.241  0.8636  0.0179  0.0102
 2407ntf    fn415038   0.704   0.408   0.259  0.5297 -0.6232 -0.1086
 2407ntf    on515039   0.546   0.163   0.297  0.5614  0.0832  0.0248
 2407ntf    on515040   0.508   0.333   0.475  0.2245 -0.5574 -0.2633
 2407ntf    on515041   0.131   0.427   0.232 -0.1656 -0.5336  0.1275
 2407ntf    on515042   0.263   0.505   0.431 -0.0253 -0.0852  0.2351
 2407ntf    fn415043   0.031   0.392   0.508  0.3095 -0.3963  0.6392
 2407ntf    fn415044   0.034   0.217   0.388 -0.1987  0.6119 -0.3936
 2407ntf    fn415045   0.180   0.247   0.537  0.2210  0.4601  0.2501
 2408ntf    cn115046   0.179   3.769   6.484 -0.1082  0.5802 -0.3903
 2408ntf    sn215047   0.057   3.902   6.501 -0.2681  0.3486  0.3478
 2408ntf    nn315048   0.047   3.940   6.349  0.2432 -0.4578  0.1108
 2408ntf    sn215049  -0.052   3.872   6.247  0.0278 -0.1368  0.1052
 2408ntf    cn115050  -0.160   4.015   6.216  0.2065 -0.1290 -0.4989
 2408ntf    fn415051   0.301   3.804   6.446  0.0227  0.0716 -0.4553
 2408ntf    fn415052   0.194   3.700   6.597 -0.4645 -0.1965 -0.8096
 2408ntf    fn415053   0.144   3.672   6.401  0.2985  0.0454  0.0470
 2408ntf    on515054  -0.053   3.839   6.569  0.2197  0.0692  0.8893
 2408ntf    on515055   0.126   4.004   6.576  0.5060 -0.1198  0.2816
 2408ntf    on515056  -0.149   3.776   6.293  0.4917 -0.4193  0.4997
 2408ntf    on515057   0.019   3.855   6.122  0.5680  0.5770  0.3081
 2408ntf    fn415058  -0.263   3.983   6.140 -0.0231 -0.2879 -0.1203
 2408ntf    fn415059  -0.200   4.065   6.332  0.6738 -0.4756 -0.1844
 2408ntf    fn415060  -0.095   4.115   6.158  0.0127  0.1503 -0.2406
 2409ntf    cn115061   1.331   1.361   1.173 -0.0125 -0.0198  0.0784
 2409ntf    sn215062   1.481   1.463   1.193 -0.0664  0.0144  0.3060
 2409ntf    nn315063   1.428   1.593   1.122  0.1533 -0.1682 -0.2009
 2409ntf    sn215064   1.517   1.712   1.072 -0.0055 -0.0987 -0.3160
 2409ntf    cn115065   1.570   1.644   0.912 -0.3299 -0.7971 -0.1311
 2409ntf    fn415066   1.296   1.366   1.045  0.3451  0.1020 -0.0166
 2409ntf    fn415067   1.353   1.232   1.194 -0.2721 -0.1669 -0.5064
 2409ntf    fn415068   1.230   1.403   1.247  0.0922  0.0320  0.1916
 2409ntf    on515069   1.488   1.490   1.334  0.6744  1.1946  0.0543
 2409ntf    on515070   1.590   1.398   1.124  0.1940  0.5661  0.1962
 2409ntf    on515071   1.636   1.734   1.150 -0.2450  0.7844 -0.1846
 2409ntf    on515072   1.438   1.829   1.040 -0.0391 -0.1439 -0.3982
 2409ntf    fn415073   1.666   1.554   0.925  0.1882 -0.1670  0.4960
 2409ntf    fn415074   1.468   1.590   0.849 -0.0634 -1.0158 -0.3790
 2409ntf    fn415075   1.621   1.736   0.832 -0.0293 -0.6149  0.2688
 2410ntf    cn115076   4.143   0.067   2.506  0.4427  0.3691  0.1682
 2410ntf    sn215077   4.283  -0.049   2.493  0.1702  0.0390  0.1540
 2410ntf    nn315078   4.353  -0.029   2.632  0.1327  0.1772  0.1540
 2410ntf    sn215079   4.426  -0.132   2.725 -0.1184 -0.1823 -0.0449
 2410ntf    cn115080   4.603  -0.104   2.694 -0.0687  0.1018  0.4860
 2410ntf    fn415081   4.062   0.041   2.607  0.5551  0.1264  0.1975
 2410ntf    fn415082   4.181   0.190   2.536 -0.5615  0.7733 -0.1746
 2410ntf    fn415083   4.076   0.077   2.393  0.7395 -0.2582 -0.0683
 2410ntf    on515084   4.213  -0.171   2.463 -0.7251  0.5004  0.3375
 2410ntf    on515085   4.365   0.008   2.389  0.2490 -0.3126  0.0223
 2410ntf    on515086   4.395  -0.267   2.685  0.1130 -0.1294 -0.4081
 2410ntf    on515087   4.413  -0.097   2.865 -0.0053 -0.2321 -0.0218
 2410ntf    fn415088   4.643   0.014   2.739 -0.0118  0.0577  0.5527
 2410ntf    fn415089   4.675  -0.198   2.753 -0.2773 -0.1721  0.3087
 2410ntf    fn415090   4.632  -0.115   2.566 -0.2059  0.3126  0.4366
 2411ntf    cn115091   0.950   3.794   6.364 -0.0034  0.1179  0.0727
 2411ntf    sn215092   0.981   3.905   6.223 -0.3934  0.0926 -0.0340
 2411ntf    nn315093   0.880   4.020   6.261 -0.1793  0.0693  0.6212
 2411ntf    sn215094   0.795   4.109   6.163  0.5800 -0.1846 -0.2833
 2411ntf    cn115095   0.632   4.028   6.169  0.4429  0.0527 -0.8059
 2411ntf    fn415096   0.824   3.754   6.377 -0.0528  0.1065 -0.4115
 2411ntf    fn415097   1.012   3.678   6.366 -0.6479 -0.2351 -0.0120
 2411ntf    fn415098   0.978   3.856   6.477  0.1283  0.3226 -0.0701
 2411ntf    on515099   1.118   3.940   6.249 -0.4639 -0.1493  0.6963
 2411ntf    on515100   0.938   3.821   6.115 -0.0127 -0.1848  0.0287
 2411ntf    on515101   0.825   4.104   6.022 -0.3275 -0.0381 -0.4912
 2411ntf    on515102   0.768   4.238   6.220  0.2724 -0.4108  0.0873
 2411ntf    fn415103   0.574   4.035   6.287  0.4043 -0.1857 -0.8101
 2411ntf    fn415104   0.554   4.086   6.079  0.0332  0.6950 -0.0501
 2411ntf    fn415105   0.633   3.899   6.141  0.5033 -0.0928 -0.1447
 2412ntf    cn115106   6.016   3.373   1.016  0.3028 -0.1439 -0.1259
 2412ntf    sn215107   6.020   3.200   1.072  0.3081 -0.1148 -0.0355
 2412ntf    nn315108   6.053   3.126   0.937 -0.4802 -0.3931 -0.0791
 2412ntf    sn215109   6.142   3.001   0.907 -0.4701 -0.4189  0.0567
 2412ntf    cn115110   6.037   2.930   0.776 -0.8766  0.5106 -0.1312
 2412ntf    fn415111   5.904   3.435   1.050  0.2223 -0.2786 -0.1430
 2412ntf    fn415112   6.111   3.451   1.065 -0.4246  0.6047  0.1257
 2412ntf    fn415113   6.023   3.381   0.884  0.2553 -0.5328 -0.1543
 2412ntf    on515114   6.119   3.195   1.177  0.8003  0.1512 -0.4819
 2412ntf    on515115   5.885   3.185   1.121 -0.1393  0.7589 -0.9639
 2412ntf    on515116   6.151   2.900   1.009 -0.2010 -0.2953  0.1565
 2412ntf    on515117   6.268   3.044   0.853 -0.2165  0.1751  1.1019
 2412ntf    fn415118   6.011   3.018   0.682 -0.1479  0.4989 -0.3508
 2412ntf    fn415119   6.089   2.821   0.723 -0.1819  0.4536  0.6446
 2412ntf    fn415120   5.926   2.890   0.836 -0.3985 -0.4332  0.1479
 2413ntf    cn115121   1.624   3.959   4.644 -0.3964 -0.0542  0.2947
 2413ntf    sn215122   1.673   4.065   4.783  0.1239  0.1163 -0.0157
 2413ntf    nn315123   1.718   4.192   4.702 -0.1562 -0.1112 -0.5385
 2413ntf    sn215124   1.625   4.315   4.669  0.0270  0.1177 -0.2055
 2413ntf    cn115125   1.632   4.427   4.812 -0.2807 -0.0790 -0.0350
 2413ntf    fn415126   1.506   3.981   4.589 -0.0214  0.4472 -0.3277
 2413ntf    fn415127   1.708   3.973   4.542 -0.8108 -0.1354 -0.0639
 2413ntf    fn415128   1.639   3.832   4.678  0.3317 -0.2118 -0.5483
 2413ntf    on515129   1.555   4.065   4.866 -0.0453 -0.3777 -0.2492
 2413ntf    on515130   1.779   3.986   4.840  0.3943  0.1658 -0.4457
 2413ntf    on515131   1.490   4.272   4.644  0.1518 -0.3718 -0.0614
 2413ntf    on515132   1.690   4.387   4.563  0.0742  0.5586  0.1172
 2413ntf    fn415133   1.581   4.379   4.924 -0.2471  0.6636  0.3097
 2413ntf    fn415134   1.756   4.460   4.846 -0.2351 -0.1072 -0.1746
 2413ntf    fn415135   1.572   4.544   4.793  0.3028  0.3184  0.5139
 2414ntf    cn115136   0.272   3.152   6.543 -0.2999  0.0795  0.1697
 2414ntf    sn215137   0.320   3.178   6.370 -0.2334 -0.0348  0.1703
 2414ntf    nn315138   0.459   3.106   6.365 -0.0665  0.2787  0.2620
 2414ntf    sn215139   0.589   3.140   6.284  0.0365  0.3388  0.4526
 2414ntf    cn115140   0.532   3.102   6.116  0.1978  0.1994  0.4293
 2414ntf    fn415141   0.322   3.233   6.635 -0.4622  0.3663  0.0059
 2414ntf    fn415142   0.142   3.159   6.563 -0.2301  0.3523  0.5550
 2414ntf    fn415143   0.310   3.032   6.583 -0.5518  0.0542  0.3329
 2414ntf    on515144   0.222   3.094   6.305  0.0328  0.3180 -0.7040
 2414ntf    on515145   0.311   3.321   6.350 -0.3683 -0.0925 -0.1957
 2414ntf    on515146   0.698   3.048   6.306  0.3501  0.5902 -0.0410
 2414ntf    on515147   0.626   3.279   6.269 -0.4785  0.3899 -0.3618
 2414ntf    fn415148   0.480   2.981   6.122 -0.0174  0.2797  0.2031
 2414ntf    fn415149   0.435   3.185   6.081 -0.0428 -0.1985  0.1502
 2414ntf    fn415150   0.624   3.106   6.021 -0.0189  0.0909  0.2131
 2415ntf    cn115151   0.897   5.683   5.004 -0.2269  0.1035 -0.6450
 2415ntf    sn215152   0.972   5.560   5.115  0.0912  0.4179 -0.5063
 2415ntf    nn315153   1.113   5.620   5.147 -0.0984  0.7713 -0.3354
 2415ntf    sn215154   1.152   5.715   5.265  0.0749  0.1440  0.1151
 2415ntf    cn115155   1.284   5.823   5.200  0.0176 -0.2394 -0.6457
 2415ntf    fn415156   0.773   5.657   4.965 -0.3620  0.2353 -0.3154
 2415ntf    fn415157   0.897   5.800   5.066  0.3569 -0.1030 -0.2457
 2415ntf    fn415158   0.972   5.694   4.896  0.7190 -0.5400 -0.0736
 2415ntf    on515159   0.878   5.551   5.224  0.6318 -0.3849 -0.1003
 2415ntf    on515160   0.977   5.441   5.034  0.3354 -0.2315  0.4488
 2415ntf    on515161   1.216   5.650   5.377 -0.3222 -0.1359  0.1786
 2415ntf    on515162   1.046   5.797   5.317 -0.1769 -0.2891  0.2885
 2415ntf    fn415163   1.400   5.764   5.179  0.3266  0.0654  0.1547
 2415ntf    fn415164   1.241   5.882   5.090 -0.5115  0.7065  0.0569
 2415ntf    fn415165   1.313   5.927   5.276 -0.1221 -0.5983 -0.0895
 2416ntf    cn115166   5.413   0.903   4.130  0.0903  0.0194 -0.0043
 2416ntf    sn215167   5.446   1.078   4.096 -0.0726  0.0041 -0.2436
 2416ntf    nn315168   5.601   1.088   4.122 -0.1086  0.5657 -0.2313
 2416ntf    sn215169   5.717   1.113   4.020  0.2321 -0.1101 -0.0120
 2416ntf    cn115170   5.862   1.115   4.130  0.0818 -0.1755  0.1863
 2416ntf    fn415171   5.446   0.878   4.256 -0.3917  0.8792  0.2984
 2416ntf    fn415172   5.285   0.871   4.119  0.0403  0.0919  0.3670
 2416ntf    fn415173   5.487   0.822   4.056  0.0699  0.4885 -0.5442
 2416ntf    on515174   5.406   1.096   3.958  0.1376 -0.4665 -0.3679
 2416ntf    on515175   5.371   1.134   4.205  0.1736 -0.0006 -0.0715
 2416ntf    on515176   5.719   1.245   3.961  0.3649 -0.4306 -0.7468
 2416ntf    on515177   5.735   1.006   3.925  0.1497  0.6150 -0.8656
 2416ntf    fn415178   5.869   1.227   4.201  0.3501  0.0717 -0.2267
 2416ntf    fn415179   5.870   1.022   4.223 -0.3294  0.1042  0.5071
 2416ntf    fn415180   5.976   1.111   4.063  0.2918 -0.2365  0.5466
 2417ntf    cn115181   5.851   1.296   1.257  0.3214  0.5313  0.3613
 2417ntf    sn215182   6.032   1.276   1.251  0.2529 -0.0014 -0.0468
 2417ntf    nn315183   6.080   1.348   1.382  1.1232  0.3021 -0.5242
 2417ntf    sn215184   6.099   1.502   1.406  0.1622  0.3373  0.0533
 2417ntf    cn115185   6.280   1.500   1.414  0.1641 -0.2757 -0.0545
 2417ntf    fn415186   5.789   1.255   1.147  0.6800  0.2708  0.2537
 2417ntf    fn415187   5.796   1.241   1.364  0.3254  0.0612  0.1245
 2417ntf    fn415188   5.825   1.425   1.268 -0.0475  0.5102 -0.2144
 2417ntf    on515189   6.057   1.136   1.273 -0.2865 -0.1165 -0.1301
 2417ntf    on515190   6.082   1.332   1.128 -0.0889 -0.2013 -0.2805
 2417ntf    on515191   6.063   1.548   1.538 -0.8261 -0.9308  0.2468
 2417ntf    on515192   6.064   1.591   1.299 -0.2208 -0.4140 -0.4560
 2417ntf    fn415193   6.337   1.461   1.301  0.1884  0.1808 -0.2034
 2417ntf    fn415194   6.318   1.626   1.435 -0.7549 -0.1071  0.6676
 2417ntf    fn415195   6.339   1.440   1.516 -0.0676  0.4894  0.5473
 2418ntf    cn115196   0.064   4.628   1.134 -0.2172  0.0887  0.0275
 2418ntf    sn215197  -0.091   4.535   1.156 -0.1155 -0.0194  0.3027
 2418ntf    nn315198  -0.151   4.614   1.278  0.5098  0.5617  0.2406
 2418ntf    sn215199  -0.214   4.757   1.276 -0.1539  0.2680  0.0375
 2418ntf    cn115200  -0.393   4.723   1.263 -0.1060  0.0469 -0.0450
 2418ntf    fn415201   0.143   4.559   1.053  0.0273 -0.0663  0.3918
 2418ntf    fn415202   0.060   4.753   1.091 -0.1170 -0.1606 -0.7246
 2418ntf    fn415203   0.129   4.633   1.249  0.3449  0.1470 -0.2881
 2418ntf    on515204  -0.154   4.550   1.027 -0.1305  0.1671  0.3308
 2418ntf    on515205  -0.053   4.403   1.199  0.0410  0.1560  0.7108
 2418ntf    on515206  -0.190   4.838   1.159  0.0618 -0.2845 -0.3013
 2418ntf    on515207  -0.208   4.831   1.400  0.0303  0.2013  0.0679
 2418ntf    fn415208  -0.437   4.673   1.378  0.2906 -0.0189  0.0829
 2418ntf    fn415209  -0.463   4.832   1.241  0.0329  0.0414 -0.5205
 2418ntf    fn415210  -0.426   4.633   1.172 -0.1422  0.4955 -0.4808
 2419ntf    cn115211   4.173   4.529   4.950  0.2908  0.4046 -0.3085
 2419ntf    sn215212   4.202   4.653   5.080  0.0288  0.1345  0.0089
 2419ntf    nn315213   4.359   4.653   5.070  0.0434  0.3815  0.2330
 2419ntf    sn215214   4.468   4.596   5.167 -0.1669  0.1155  0.3148
 2419ntf    cn115215   4.438   4.417   5.152 -0.4161  0.1873 -0.0694
 2419ntf    fn415216   4.046   4.518   4.916  0.2435  0.1749 -0.0632
 2419ntf    fn415217   4.230   4.570   4.838  0.1845  0.2131 -0.4342
 2419ntf    fn415218   4.228   4.413   4.982 -0.2942  0.3143  0.3796
 2419ntf    on515219   4.142   4.766   5.013  0.0694 -0.2374 -0.6710
 2419ntf    on515220   4.144   4.605   5.203  0.2098  0.4750  0.2270
 2419ntf    on515221   4.453   4.628   5.306 -0.8007  0.3709  0.1903
 2419ntf    on515222   4.600   4.616   5.111 -0.5143  0.2423 -0.4787
 2419ntf    fn415223   4.448   4.382   5.025 -0.3000  0.8462 -0.2484
 2419ntf    fn415224   4.521   4.350   5.230 -0.5785 -0.1358 -0.1736
 2419ntf    fn415225   4.316   4.384   5.192 -0.2286 -0.4371 -0.0029
 2420ntf    cn115226   5.731   4.541   2.587 -0.0020  0.2929 -0.1720
 2420ntf    sn215227   5.731   4.372   2.654 -0.1372  0.3765  0.0409
 2420ntf    nn315228   5.758   4.306   2.514  0.4290  0.0060  0.3195
 2420ntf    sn215229   5.901   4.280   2.456  0.4259  0.2405  0.2049
 2420ntf    cn115230   5.920   4.109   2.514 -0.2356  0.2363  0.4153
 2420ntf    fn415231   5.686   4.636   2.668 -0.0538  0.3958 -0.3210
 2420ntf    fn415232   5.854   4.570   2.551  0.0285  0.3021 -0.0624
 2420ntf    fn415233   5.652   4.541   2.481 -0.0952  0.0067 -0.1037
 2420ntf    on515234   5.837   4.378   2.751  0.0616 -0.3043 -0.1248
 2420ntf    on515235   5.598   4.354   2.706 -0.0084 -0.2487  0.1615
 2420ntf    on515236   6.022   4.341   2.506  0.4188  0.1974  0.2733
 2420ntf    on515237   5.896   4.262   2.313  0.2602 -0.1212  0.2540
 2420ntf    fn415238   6.046   4.074   2.532 -0.3314 -0.3608 -0.0315
 2420ntf    fn415239   5.856   4.090   2.628 -0.1196 -0.2385  0.4064
 2420ntf    fn415240   5.865   4.020   2.432  0.2400  0.0967  0.2388
 2421ntf    cn115241   3.215   1.346   6.144  0.1037  0.3243  0.1264
 2421ntf    sn215242   3.306   1.192   6.115 -0.2163  0.1410  0.0833
 2421ntf    nn315243   3.380   1.233   5.982 -0.1272  0.3702  0.2031
 2421ntf    sn215244   3.334   1.242   5.832  0.4487  0.0310  0.0015
 2421ntf    cn115245   3.334   1.423   5.811 -0.2671 -0.0020 -0.3199
 2421ntf    fn415246   3.304   1.442   6.161 -0.0234  0.4856 -0.1206
 2421ntf    fn415247   3.149   1.372   6.033  0.4827 -0.1650 -0.2183
 2421ntf    fn415248   3.126   1.355   6.242 -0.1361  0.0176 -0.0610
 2421ntf    on515249   3.396   1.179   6.227 -0.1332 -0.3195 -0.0335
 2421ntf    on515250   3.213   1.085   6.090 -0.0951  0.0946 -0.1757
 2421ntf    on515251   3.195   1.210   5.810  0.5651 -0.3433 -0.1794
 2421ntf    on515252   3.441   1.206   5.743  0.6142  0.2921  0.0964
 2421ntf    fn415253   3.453   1.479   5.826 -0.5510  0.3411  0.6852
 2421ntf    fn415254   3.293   1.451   5.688 -0.2699  0.1042 -0.2945
 2421ntf    fn415255   3.253   1.484   5.896 -0.0552 -0.4629  0.2159
 2422ntf    cn115256   1.149   0.655   5.528 -0.1717  0.0862 -0.4823
 2422ntf    sn215257   1.309   0.567   5.537 -0.2844 -0.0973 -0.2358
 2422ntf    nn315258   1.274   0.480   5.662  0.0744  0.0347 -0.0430
 2422ntf    sn215259   1.322   0.335   5.697  0.0408  0.0594  0.1083
 2422ntf    cn115260   1.203   0.231   5.607 -0.3713  0.4455  0.2053
 2422ntf    fn415261   1.047   0.570   5.530  0.0784 -0.2177 -0.3482
 2422ntf    fn415262   1.132   0.738   5.630 -0.1458 -0.2775 -0.1781
 2422ntf    fn415263   1.132   0.729   5.420 -0.7918  0.2188 -0.2976
 2422ntf    on515264   1.307   0.489   5.415  0.2385 -0.5230  0.0281
 2422ntf    on515265   1.410   0.669   5.554 -0.1859 -0.2061 -0.1717
 2422ntf    on515266   1.278   0.314   5.833  0.1705  0.5904  0.2358
 2422ntf    on515267   1.453   0.285   5.664 -0.0232 -0.5936  0.8064
 2422ntf    fn415268   1.219   0.100   5.606 -0.3400  0.4481  0.3068
 2422ntf    fn415269   1.089   0.244   5.673 -0.4822 -0.8460  0.2957
 2422ntf    fn415270   1.181   0.278   5.486 -0.4310  0.1774  0.1111
 2423ntf    cn115271   2.763   1.377   7.012 -0.6430  0.6148  0.3853
 2423ntf    sn215272   2.926   1.378   7.092 -0.3888  0.2239 -0.1197
 2423ntf    nn315273   3.018   1.457   6.992 -0.2962  0.7035  0.3368
 2423ntf    sn215274   3.160   1.524   7.001 -0.0164  0.1072  0.4148
 2423ntf    cn115275   3.252   1.389   6.920  0.0445  0.4647 -0.1160
 2423ntf    fn415276   2.768   1.324   6.891  0.1913 -0.0837  0.7154
 2423ntf    fn415277   2.679   1.306   7.086 -0.3011  0.2790  0.4554
 2423ntf    fn415278   2.706   1.496   7.008 -0.1916  0.8222  0.0446
 2423ntf    on515279   2.895   1.441   7.219  1.2948  0.4405  0.2091
 2423ntf    on515280   2.951   1.236   7.090  0.1528  0.3195 -0.3156
 2423ntf    on515281   3.213   1.523   7.135  0.2328  0.0753  0.3161
 2423ntf    on515282   3.174   1.646   6.926 -0.0830  0.2043  0.5592
 2423ntf    fn415283   3.381   1.415   6.906 -0.0185  0.5714 -0.4979
 2423ntf    fn415284   3.246   1.273   6.984 -0.6844  0.7566  0.3674
 2423ntf    fn415285   3.213   1.358   6.798  0.2282 -0.7847  0.1325
 2424ntf    cn115286   4.949   6.724   6.542 -0.1950  0.1716 -0.1878
 2424ntf    sn215287   5.075   6.731   6.673 -0.0654 -0.0861 -0.2984
 2424ntf    nn315288   5.186   6.651   6.596 -0.1305 -0.0574 -0.4229
 2424ntf    sn215289   5.312   6.706   6.520  0.1455  0.1649  0.1836
 2424ntf    cn115290   5.319   6.568   6.402  0.1497  0.1857  0.1599
 2424ntf    fn415291   4.842   6.786   6.588 -0.0123  0.4139 -0.0833
 2424ntf    fn415292   4.978   6.779   6.425  0.1891  0.0840 -0.1366
 2424ntf    fn415293   4.912   6.599   6.517  0.6724 -0.1864  0.2780
 2424ntf    on515294   5.087   6.873   6.694 -0.3044 -0.0828 -0.1851
 2424ntf    on515295   5.011   6.652   6.776  0.1581 -0.6302 -0.5723
 2424ntf    on515296   5.434   6.692   6.596  0.6361  0.2207 -0.5831
 2424ntf    on515297   5.294   6.821   6.435  0.4903 -0.5888 -0.9327
 2424ntf    fn415298   5.217   6.558   6.318  0.3601 -0.6524 -0.0033
 2424ntf    fn415299   5.427   6.573   6.326  0.0271 -0.1729 -0.0416
 2424ntf    fn415300   5.319   6.453   6.468  0.2667  0.0595 -0.0577
 2425ntf    cn115301   0.592   0.082   1.250  0.4574  0.2504  0.0923
 2425ntf    sn215302   0.521   0.031   1.091  0.0029  0.0656  0.3523
 2425ntf    nn315303   0.644   0.016   0.995 -0.2349  0.4660 -0.0177
 2425ntf    sn215304   0.718   0.118   0.901  0.2464  0.0590 -0.0809
 2425ntf    cn115305   0.679   0.067   0.730  0.3663 -0.1741 -0.0394
 2425ntf    fn415306   0.495   0.098   1.339 -0.0825 -0.1803 -0.4099
 2425ntf    fn415307   0.682  -0.002   1.299  0.0743  0.2264  0.7763
 2425ntf    fn415308   0.655   0.198   1.237 -0.1827  0.5784 -0.1355
 2425ntf    on515309   0.471  -0.103   1.113 -0.0327  0.0732  0.3157
 2425ntf    on515310   0.422   0.130   1.055 -0.2434 -0.2725  0.0927
 2425ntf    on515311   0.862   0.119   0.916  0.2429  0.0395 -0.0460
 2425ntf    on515312   0.658   0.248   0.911 -0.7510 -0.3730 -0.3541
 2425ntf    fn415313   0.741  -0.047   0.707  0.6123 -0.0895  0.1927
 2425ntf    fn415314   0.550   0.043   0.716  0.2517  0.3810  0.0462
 2425ntf    fn415315   0.721   0.155   0.640  0.5250 -0.3134 -0.1024
 2426ntf    cn115316   4.594   4.438   0.478  0.0371  0.2689 -0.0993
 2426ntf    sn215317   4.585   4.440   0.297  0.1485  0.2194 -0.1059
 2426ntf    nn315318   4.485   4.325   0.260  0.4889 -0.1704  0.1894
 2426ntf    sn215319   4.328   4.324   0.264  0.4825 -0.1129 -0.0223
 2426ntf    cn115320   4.290   4.386   0.097  0.4812 -0.5958 -0.2024
 2426ntf    fn415321   4.476   4.427   0.536 -0.3533  1.0880 -0.7154
 2426ntf    fn415322   4.669   4.339   0.523  0.5166  0.6102 -0.1348
 2426ntf    fn415323   4.643   4.548   0.535 -0.2956  0.3891 -0.0418
 2426ntf    on515324   4.530   4.571   0.269  0.4361  0.3701  0.0296
 2426ntf    on515325   4.720   4.416   0.255  0.0707 -0.2240 -0.1089
 2426ntf    on515326   4.269   4.417   0.358  0.2173 -0.1249 -0.1772
 2426ntf    on515327   4.286   4.186   0.255  0.4290 -0.1229  0.3597
 2426ntf    fn415328   4.349   4.333  -0.009  0.4490  0.2906 -0.6671
 2426ntf    fn415329   4.164   4.364   0.065  0.4320 -0.3880 -0.1505
 2426ntf    fn415330   4.315   4.516   0.092  0.0994 -0.4869  0.5563
 2427ntf    cn115331   4.089   1.512   5.960  0.2258  0.2404  0.1112
 2427ntf    sn215332   4.270   1.530   5.963  0.2555  0.0299 -0.3419
 2427ntf    nn315333   4.308   1.463   5.827  0.3105  0.4686 -0.5446
 2427ntf    sn215334   4.354   1.314   5.808 -0.3120  0.2335 -0.2296
 2427ntf    cn115335   4.262   1.287   5.654 -0.0507 -0.0432 -0.3383
 2427ntf    fn415336   4.037   1.391   5.976  0.4895  0.1666  0.4370
 2427ntf    fn415337   4.034   1.583   6.058 -0.2638 -0.1979  0.1536
 2427ntf    fn415338   4.038   1.565   5.851  0.8402 -0.1470 -0.3711
 2427ntf    on515339   4.294   1.672   5.966  0.0837  0.0580 -0.3126
 2427ntf    on515340   4.313   1.461   6.083  0.3389  0.6912  0.0181
 2427ntf    on515341   4.301   1.212   5.896  0.5359 -0.1940 -0.2057
 2427ntf    on515342   4.489   1.310   5.758 -0.0711 -0.2087  0.4339
 2427ntf    fn415343   4.131   1.293   5.672  0.0368 -0.1483  0.3747
 2427ntf    fn415344   4.305   1.375   5.565 -0.1002  0.2799 -0.0445
 2427ntf    fn415345   4.293   1.166   5.610 -0.1470 -0.5027  0.8238
 2428ntf    cn115346   4.927   2.331   2.901 -0.5717  0.2812  0.4240
 2428ntf    sn215347   4.870   2.401   2.744  0.1826  0.3037  0.1564
 2428ntf    nn315348   4.721   2.353   2.730  0.2128  0.0910  0.5558
 2428ntf    sn215349   4.594   2.406   2.804 -0.0635 -0.2801  0.3475
 2428ntf    cn115350   4.544   2.528   2.679  0.2573 -0.4205  0.0810
 2428ntf    fn415351   4.989   2.216   2.879 -0.3279  0.4359  0.2962
 2428ntf    fn415352   4.999   2.410   2.979 -0.5521 -0.0781  0.7791
 2428ntf    fn415353   4.829   2.286   2.977 -0.7161 -0.2787 -0.0845
 2428ntf    on515354   4.877   2.541   2.777  0.0081  0.3090  0.1669
 2428ntf    on515355   4.962   2.346   2.647 -1.0145 -0.4179 -0.5940
 2428ntf    on515356   4.622   2.471   2.930 -0.3334  0.0454  0.2406
 2428ntf    on515357   4.476   2.322   2.806 -0.7074  0.6076  0.2682
 2428ntf    fn415358   4.456   2.613   2.729  0.3430 -0.4189  0.2312
 2428ntf    fn415359   4.640   2.597   2.621  0.0293 -0.3150 -0.1691
 2428ntf    fn415360   4.476   2.469   2.582  0.3598 -0.4000 -0.0034
 2429ntf    cn115361   4.351   2.226   2.325 -0.2474  0.2802  0.0607
 2429ntf    sn215362   4.183   2.273   2.374 -0.2246  0.1599  0.2569
 2429ntf    nn315363   4.113   2.274   2.234 -0.2983 -0.0320  0.2914
 2429ntf    sn215364   3.997   2.187   2.174 -0.1511 -0.1451  0.1693
 2429ntf    cn115365   3.850   2.292   2.200 -0.1142 -0.1123  0.2445
 2429ntf    fn415366   4.400   2.299   2.227  0.3073 -0.5902 -0.3275
 2429ntf    fn415367   4.440   2.233   2.423 -0.2262  0.7192  0.0098
 2429ntf    fn415368   4.359   2.100   2.283 -0.0380  0.2444  0.2019
 2429ntf    on515369   4.137   2.171   2.465 -0.7380 -0.0122 -0.1902
 2429ntf    on515370   4.198   2.406   2.429 -0.1868  0.3570 -0.2275
 2429ntf    on515371   3.966   2.067   2.248 -0.0055 -0.3486 -0.1002
 2429ntf    on515372   4.002   2.180   2.030  0.1469  0.3101  0.1580
 2429ntf    fn415373   3.844   2.322   2.328  0.0051 -0.8339  0.4237
 2429ntf    fn415374   3.861   2.401   2.126  0.3797 -0.2256  0.1419
 2429ntf    fn415375   3.734   2.240   2.165 -0.0757 -0.1875  0.2281
 2430ntf    cn115376   3.469   0.842   5.324  0.4359 -0.2146 -0.3174
 2430ntf    sn215377   3.345   0.768   5.214  0.1020  0.0382 -0.1125
 2430ntf    nn315378   3.345   0.869   5.094 -0.0538 -0.1109 -0.2376
 2430ntf    sn215379   3.451   0.874   4.978 -0.1110 -0.0891 -0.2889
 2430ntf    cn115380   3.351   0.922   4.834 -0.4008  0.0727 -0.0345
 2430ntf    fn415381   3.566   0.893   5.249  0.0962  0.6443 -0.1872
 2430ntf    fn415382   3.412   0.946   5.382  0.7060 -0.1767 -0.1170
 2430ntf    fn415383   3.524   0.754   5.405  0.7045  0.0487 -0.2115
 2430ntf    on515384   3.398   0.636   5.189 -0.6965 -0.2132 -0.5004
 2430ntf    on515385   3.222   0.780   5.288 -0.2837  0.3696 -0.7994
 2430ntf    on515386   3.514   0.752   4.934  0.0516  0.0901 -0.5572
 2430ntf    on515387   3.539   0.987   4.993 -0.2147 -0.0105 -0.2682
 2430ntf    fn415388   3.435   0.960   4.739 -0.1555 -0.6293 -0.1032
 2430ntf    fn415389   3.283   0.820   4.783  0.0986 -0.2821  0.0115
 2430ntf    fn415390   3.260   1.018   4.847  0.0134  0.4681 -0.0326
 2431ntf    cn115391   6.488   6.567   3.620 -0.5896 -0.2356 -0.2337
 2431ntf    sn215392   6.458   6.478   3.775 -0.3605  0.0394 -0.0314
 2431ntf    nn315393   6.500   6.588   3.879 -0.0052 -0.0454 -0.0838
 2431ntf    sn215394   6.463   6.602   4.031  0.0011  0.3706 -0.1183
 2431ntf    cn115395   6.381   6.761   4.005 -0.4635  0.0524 -0.5997
 2431ntf    fn415396   6.479   6.494   3.510  0.6370 -0.2149 -0.3554
 2431ntf    fn415397   6.403   6.669   3.608  0.0111  0.3020  0.0245
 2431ntf    fn415398   6.606   6.627   3.623 -0.7249  0.0280 -0.0513
 2431ntf    on515399   6.316   6.455   3.764 -0.2526 -0.5361 -0.2399
 2431ntf    on515400   6.537   6.357   3.775  0.6449  0.6818  0.4351
 2431ntf    on515401   6.581   6.629   4.110  0.0847 -0.2190 -0.0367
 2431ntf    on515402   6.357   6.515   4.075  0.2697 -0.1732 -0.5377
 2431ntf    fn415403   6.252   6.748   3.975 -0.4292 -0.3920 -0.5532
 2431ntf    fn415404   6.371   6.832   4.116 -0.7088 -0.4565 -0.2953
 2431ntf    fn415405   6.428   6.842   3.911 -0.1861  0.6337  0.0354
 2432ntf    cn115406   4.274   2.950   3.125 -0.1201  0.3062  0.1557
 2432ntf    sn215407   4.123   3.037   3.176 -0.4940  0.0169 -0.4433
 2432ntf    nn315408   4.054   3.028   3.035 -0.2860  0.3349 -0.5666
 2432ntf    sn215409   4.049   3.130   2.916  0.0178  0.3134 -0.5971
 2432ntf    cn115410   3.928   3.254   2.969 -0.2667 -0.2285  0.0320
 2432ntf    fn415411   4.244   2.826   3.088  0.0912  0.1937  0.3588
 2432ntf    fn415412   4.330   3.002   3.016 -0.2914  0.1822  0.0075
 2432ntf    fn415413   4.367   2.946   3.219 -0.1506 -0.0815  0.1748
 2432ntf    on515414   4.064   2.951   3.275  0.4710  0.1331  0.2403
 2432ntf    on515415   4.172   3.164   3.223  0.4411 -0.6296  0.3586
 2432ntf    on515416   3.985   3.065   2.804 -0.2343  0.3100 -0.4502
 2432ntf    on515417   4.169   3.206   2.890 -0.5095  1.5244  0.4225
 2432ntf    fn415418   3.806   3.205   2.978 -0.3284  0.0832  1.0017
 2432ntf    fn415419   3.959   3.305   3.087  0.4940  0.3434 -0.4070
 2432ntf    fn415420   3.921   3.357   2.887 -0.0069  0.0012  0.2950
 2433ntf    cn115421   6.224   3.078   3.264 -0.0902  0.3889 -0.2197
 2433ntf    sn215422   6.069   3.165   3.303 -0.0918  0.2139  0.1712
 2433ntf    nn315423   6.123   3.261   3.415  0.7045 -0.2081  0.1578
 2433ntf    sn215424   6.148   3.416   3.404 -0.0340 -0.1047 -0.0893
 2433ntf    cn115425   6.294   3.418   3.512 -0.1142 -0.1237  0.0203
 2433ntf    fn415426   6.314   3.168   3.228  0.1924  0.2846  0.2164
 2433ntf    fn415427   6.276   3.008   3.364 -0.7381  0.8805  0.4757
 2433ntf    fn415428   6.214   2.996   3.161 -0.0540  0.0382  0.0542
 2433ntf    on515429   6.029   3.224   3.178 -0.3812  0.4057  0.3544
 2433ntf    on515430   5.993   3.060   3.364 -0.3473  0.4402  0.2425
 2433ntf    on515431   6.044   3.492   3.469  0.2677  0.3607 -0.1514
 2433ntf    on515432   6.199   3.470   3.281 -0.6593 -0.1414 -0.3695
 2433ntf    fn415433   6.273   3.424   3.642  0.2710  0.0961  0.0728
 2433ntf    fn415434   6.368   3.310   3.491 -0.3502 -0.2644 -0.0893
 2433ntf    fn415435   6.374   3.518   3.480 -0.0370 -0.1213  0.2197
 2434ntf    cn115436   5.852   2.828   6.260 -0.1178 -0.1240 -0.0074
 2434ntf    sn215437   5.765   2.972   6.327 -0.0094 -0.2520  0.4083
 2434ntf    nn315438   5.869   3.026   6.431  0.1355  0.1469  0.0591
 2434ntf    sn215439   5.990   3.125   6.424  0.2712 -0.0026  0.2410
 2434ntf    cn115440   5.921   3.270   6.509  0.4097  0.1569  0.0821
 2434ntf    fn415441   5.770   2.735   6.212  0.6196 -0.5476 -0.4718
 2434ntf    fn415442   5.931   2.870   6.163 -0.1373  0.7139  0.3340
 2434ntf    fn415443   5.920   2.762   6.352 -0.1921  0.4776  0.4829
 2434ntf    on515444   5.740   3.041   6.203 -0.3801 -0.1968  0.5112
 2434ntf    on515445   5.648   2.916   6.391 -0.0978 -0.4804  0.0488
 2434ntf    on515446   6.017   3.171   6.290 -0.6469 -0.4068 -0.0858
 2434ntf    on515447   6.097   3.085   6.512  0.4134 -0.2230 -0.0304
 2434ntf    fn415448   5.829   3.325   6.431  0.3979 -0.5560 -0.4138
 2434ntf    fn415449   5.859   3.233   6.619 -0.0901  0.2771 -0.1563
 2434ntf    fn415450   6.016   3.359   6.535  0.2995  0.3757 -0.2504
 2435ntf    cn115451   0.531   4.763   4.247 -0.1695  0.2070  0.1389
 2435ntf    sn215452   0.488   4.589   4.274 -0.3596  0.1875 -0.3007
 2435ntf    nn315453   0.388   4.601   4.394 -0.0083  0.0488  0.0090
 2435ntf    sn215454   0.236   4.562   4.403 -0.0077  0.0116 -0.1305
 2435ntf    cn115455   0.207   4.668   4.548 -0.2196 -0.2009 -0.0162
 2435ntf    fn415456   0.605   4.784   4.139 -0.0432 -0.0164  0.1809
 2435ntf    fn415457   0.433   4.851   4.239 -0.1694  0.1400 -0.6649
 2435ntf    fn415458   0.613   4.800   4.345 -0.3192  0.1353  0.2919
 2435ntf    on515459   0.427   4.553   4.148 -0.8054 -0.0542 -0.0189
 2435ntf    on515460   0.619   4.536   4.304 -0.4270  0.3442  0.2714
 2435ntf    on515461   0.208   4.426   4.440  0.1347  0.1952  0.6842
 2435ntf    on515462   0.145   4.626   4.311 -0.4935  0.1645  0.4470
 2435ntf    fn415463   0.078   4.672   4.575 -0.1433 -0.0569  0.3430
 2435ntf    fn415464   0.268   4.619   4.655 -0.7331 -0.5059  0.1386
 2435ntf    fn415465   0.255   4.792   4.540  0.6365 -0.5124  0.1790
 2436ntf    cn115466   1.625   6.082   0.287  0.2508 -0.2743 -0.2045
 2436ntf    sn215467   1.621   5.936   0.180  0.3855 -0.2910 -0.1867
 2436ntf    nn315468   1.761   5.875   0.217  0.2034 -0.7834 -0.2933
 2436ntf    sn215469   1.902   5.887   0.148  0.1306  0.1694 -0.2977
 2436ntf    cn115470   1.938   5.716   0.098 -0.1311 -0.1025  0.4269
 2436ntf    fn415471   1.740   6.147   0.275  0.2505 -0.2149  0.1166
 2436ntf    fn415472   1.536   6.177   0.264 -0.2271 -0.5256  0.5992
 2436ntf    fn415473   1.625   6.042   0.413  0.0826  0.6554  0.0993
 2436ntf    on515474   1.517   5.850   0.230  0.3219  0.3922  0.8637
 2436ntf    on515475   1.593   5.997   0.052  0.1863  0.5064  0.2355
 2436ntf    on515476   2.001   5.918   0.247 -0.1253  0.3280 -0.0889
 2436ntf    on515477   1.897   5.962   0.025  0.4312 -0.1127 -0.4843
 2436ntf    fn415478   2.049   5.694   0.029 -0.9514 -0.4976 -0.8127
 2436ntf    fn415479   1.946   5.641   0.206  0.4743 -0.4642  0.1415
 2436ntf    fn415480   1.842   5.678   0.015 -0.1133  0.7405  0.0126
 2437ntf    cn115481   2.572   2.050   1.411 -0.2061 -0.3105 -0.1593
 2437ntf    sn215482   2.402   2.022   1.468 -0.1379  0.0504  0.2290
 2437ntf    nn315483   2.324   2.126   1.380  0.4553  0.5736  0.3160
 2437ntf    sn215484   2.185   2.198   1.397  0.0528 -0.1633  0.1872
 2437ntf    cn115485   2.082   2.097   1.286  0.1276  0.2777 -0.2837
 2437ntf    fn415486   2.587   2.011   1.285  0.6683  0.0394 -0.1696
 2437ntf    fn415487   2.602   2.179   1.407 -0.4560 -0.2322  0.4242
 2437ntf    fn415488   2.659   1.979   1.481 -0.4655 -0.1492  0.3254
 2437ntf    on515489   2.375   1.885   1.431  1.0786 -0.0226 -0.4502
 2437ntf    on515490   2.411   2.063   1.606 -0.1719  0.3441  0.1439
 2437ntf    on515491   2.188   2.329   1.338  0.1727 -0.2926 -0.0957
 2437ntf    on515492   2.122   2.181   1.526  0.2957  0.1411  0.3477
 2437ntf    fn415493   1.967   2.157   1.260 -0.1337  0.3295  0.9069
 2437ntf    fn415494   2.142   2.075   1.170  0.1304  0.1052 -0.2487
 2437ntf    fn415495   2.061   1.978   1.339  0.6566  0.0040 -0.6797
 2438ntf    cn115496   2.428   2.802   1.930 -0.1892  0.4191 -0.2841
 2438ntf    sn215497   2.301   2.732   2.041 -0.0507  0.2706 -0.2193
 2438ntf    nn315498   2.308   2.581   1.999  0.5847  0.2889 -0.1895
 2438ntf    sn215499   2.410   2.474   2.054 -0.0058 -0.0372  0.2874
 2438ntf    cn115500   2.319   2.403   2.194 -0.3637  0.1536  0.1526
 2438ntf    fn415501   2.551   2.758   1.950 -0.5100 -0.4468 -0.1441
 2438ntf    fn415502   2.402   2.769   1.805 -0.5477 -0.1806 -0.0575
 2438ntf    fn415503   2.437   2.933   1.937 -0.7388  0.4637 -0.3897
 2438ntf    on515504   2.352   2.768   2.171 -0.5849 -0.6104  0.2434
 2438ntf    on515505   2.189   2.802   1.984 -0.1601  0.3931  0.1428
 2438ntf    on515506   2.530   2.518   2.120  0.0174  0.0173  0.2089
 2438ntf    on515507   2.422   2.361   1.965 -0.0278 -0.1174  0.3855
 2438ntf    fn415508   2.286   2.486   2.292  0.0789  0.5152 -0.0032
 2438ntf    fn415509   2.210   2.340   2.153 -0.5059  0.5603 -0.0998
 2438ntf    fn415510   2.397   2.311   2.248  0.3941  0.3572 -0.5835
 2439ntf    cn115511   4.028   4.625   6.210  0.2193  0.3013 -0.6392
 2439ntf    sn215512   3.902   4.705   6.313  0.1140  0.0044 -0.5374
 2439ntf    nn315513   3.903   4.854   6.261 -0.2050  0.2184  0.0518
 2439ntf    sn215514   3.869   4.900   6.115 -0.0433  0.0831 -0.0295
 2439ntf    cn115515   4.014   4.998   6.069  0.3179 -0.4013  0.0725
 2439ntf    fn415516   4.000   4.602   6.083 -0.1898 -0.0671 -0.4795
 2439ntf    fn415517   4.138   4.700   6.215 -0.2591  0.9699  0.0129
 2439ntf    fn415518   4.055   4.507   6.263  0.1369  0.3828 -0.4131
 2439ntf    on515519   3.781   4.627   6.298  0.0500 -0.1112  0.5043
 2439ntf    on515520   3.967   4.694   6.441  0.0618 -0.6648 -0.5664
 2439ntf    on515521   3.767   5.003   6.115 -0.3828 -0.2497 -0.0097
 2439ntf    on515522   3.876   4.798   6.014  0.2009  0.2197 -0.1504
 2439ntf    fn415523   4.081   5.059   6.165 -0.2696 -0.0816  0.2806
 2439ntf    fn415524   4.102   4.914   6.016  0.6269  0.1622 -0.3281
 2439ntf    fn415525   3.981   5.082   5.973 -0.2222 -0.4197  0.2427
 2440ntf    cn115526   2.840   1.815   4.191  0.3431 -0.0015 -0.0075
 2440ntf    sn215527   2.841   1.776   4.368 -0.0876  0.1537  0.0318
 2440ntf    nn315528   2.826   1.919   4.430 -0.6571  0.0549  0.1330
 2440ntf    sn215529   2.851   1.956   4.581 -0.5114  0.1832  0.0785
 2440ntf    cn115530   3.006   2.048   4.559 -0.2704 -0.2495 -0.0599
 2440ntf    fn415531   2.937   1.900   4.166  0.0995  0.0283 -0.8841
 2440ntf    fn415532   2.873   1.707   4.122  0.4300  0.1030 -0.1306
 2440ntf    fn415533   2.723   1.865   4.154  0.1877  0.0992  0.6054
 2440ntf    on515534   2.721   1.697   4.379  0.0869 -0.1897 -0.4934
 2440ntf    on515535   2.970   1.713   4.386 -0.2357 -0.0464  0.4247
 2440ntf    on515536   2.889   1.848   4.670 -0.0771  0.6081  0.4143
 2440ntf    on515537   2.765   2.049   4.649 -0.4822  0.1106  0.2164
 2440ntf    fn415538   3.096   1.980   4.489  0.0837 -0.3212  0.4602
 2440ntf    fn415539   2.989   2.158   4.486  0.2627 -0.0661  0.0812
 2440ntf    fn415540   3.061   2.075   4.676  0.0467 -0.4112 -0.1692
 2441ntf    cn115541   1.040   2.064   6.917  0.0803  0.0667 -0.2195
 2441ntf    sn215542   0.943   2.215   6.887  0.0529  0.0937 -0.0009
 2441ntf    nn315543   0.957   2.279   7.029 -0.0383 -0.0975  0.0930
 2441ntf    sn215544   0.857   2.378   7.100  0.1226 -0.0365  0.2345
 2441ntf    cn115545   0.971   2.492   7.184 -0.0968 -0.1259  0.6556
 2441ntf    fn415546   1.024   1.975   6.821 -0.5417  0.1988 -0.2427
 2441ntf    fn415547   1.169   2.096   6.923  0.3482 -1.0993  0.5102
 2441ntf    fn415548   1.011   2.005   7.032  0.5372 -0.2478 -0.2603
 2441ntf    on515549   1.033   2.279   6.794  1.1906 -1.1960  0.1791
 2441ntf    on515550   0.811   2.167   6.855 -0.0686  0.1932  0.3545
 2441ntf    on515551   0.794   2.312   7.212 -0.1442 -0.1834 -0.0024
 2441ntf    on515552   0.776   2.459   7.013 -0.1626 -0.8083 -0.2299
 2441ntf    fn415553   0.921   2.613   7.203  0.4606  0.2508 -0.2560
 2441ntf    fn415554   0.997   2.441   7.304 -0.9930 -0.4228  0.7305
 2441ntf    fn415555   1.086   2.503   7.120 -0.6631  0.6872 -0.2545
 2442ntf    cn115556   1.291   5.065   4.670 -0.2306  0.0394 -0.1570
 2442ntf    sn215557   1.373   4.957   4.550  0.4511  0.1763  0.1847
 2442ntf    nn315558   1.328   5.012   4.410  0.1563 -0.1639  0.1462
 2442ntf    sn215559   1.401   5.123   4.327 -0.1020  0.0866  0.2556
 2442ntf    cn115560   1.520   5.031   4.225 -0.2582  0.1558  0.0097
 2442ntf    fn415561   1.302   5.029   4.797 -0.0108 -0.6040 -0.3569
 2442ntf    fn415562   1.334   5.190   4.665  0.6179 -0.2246  0.3216
 2442ntf    fn415563   1.164   5.090   4.640 -0.3512  0.5655  0.7520
 2442ntf    on515564   1.516   4.962   4.574  0.3635  0.6829  0.6068
 2442ntf    on515565   1.310   4.831   4.577  0.1034  0.2814 -0.1342
 2442ntf    on515566   1.492   5.211   4.396  0.0552 -0.3565  0.6183
 2442ntf    on515567   1.315   5.188   4.231 -0.2001 -0.6079 -0.1345
 2442ntf    fn415568   1.478   5.002   4.103  0.7964 -0.1813 -0.2857
 2442ntf    fn415569   1.625   5.110   4.204  0.3243 -0.4902  0.4347
 2442ntf    fn415570   1.572   4.919   4.273 -0.4826  0.2034  0.3663
 2443ntf    cn115571   6.393   0.838   3.618 -0.0692  0.0097  0.4318
 2443ntf    sn215572   6.275   0.968   3.573  0.1815  0.1595  0.2076
 2443ntf    nn315573   6.287   1.070   3.692 -0.0612  0.4388 -0.0060
 2443ntf    sn215574   6.211   1.097   3.827  0.1891  0.3095  0.1612
 2443ntf    cn115575   6.072   1.192   3.758  0.0558  0.0799  0.1140
 2443ntf    fn415576   6.500   0.884   3.681  0.4268 -0.2415 -0.2177
 2443ntf    fn415577   6.336   0.750   3.700  0.1018 -0.5700 -0.0598
 2443ntf    fn415578   6.441   0.769   3.516 -0.6662 -0.0352  0.1757
 2443ntf    on515579   6.316   1.007   3.441 -0.1936 -0.2834 -0.0426
 2443ntf    on515580   6.147   0.902   3.571 -0.0493  0.6087 -0.1268
 2443ntf    on515581   6.277   1.193   3.912  0.5724  0.3948 -0.2254
 2443ntf    on515582   6.154   0.981   3.890 -0.3719  0.4003 -0.1703
 2443ntf    fn415583   6.118   1.295   3.689  0.3731 -0.1173  0.0282
 2443ntf    fn415584   6.006   1.114   3.673 -0.5124  0.0236  0.5971
 2443ntf    fn415585   5.989   1.243   3.848 -0.4159 -0.6719  0.1194
 2444ntf    cn115586   6.638   6.044   1.325  0.3040  0.2296 -0.3810
 2444ntf    sn215587   6.592   6.147   1.467  0.6108  0.0571 -0.1569
 2444ntf    nn315588   6.462   6.077   1.522  0.3364  0.0753 -0.7774
 2444ntf    sn215589   6.311   6.118   1.520  0.3450  0.1413 -0.2378
 2444ntf    cn115590   6.276   6.141   1.697  0.1366  0.1652 -0.2815
 2444ntf    fn415591   6.748   6.087   1.265  0.3600  0.2175 -0.2868
 2444ntf    fn415592   6.667   5.920   1.362  0.1993  0.2575 -0.2044
 2444ntf    fn415593   6.550   6.039   1.226  0.1848  0.6898 -0.2990
 2444ntf    on515594   6.703   6.116   1.554  0.2188 -0.0880  0.3017
 2444ntf    on515595   6.572   6.281   1.418  0.0929  0.0956  0.1513
 2444ntf    on515596   6.229   6.009   1.473  0.3784  0.0971 -0.1922
 2444ntf    on515597   6.285   6.248   1.461  0.3259  0.2106 -0.0776
 2444ntf    fn415598   6.337   6.247   1.746 -0.2617  0.3895 -0.2696
 2444ntf    fn415599   6.146   6.163   1.709  0.1442  0.1532 -0.1701
 2444ntf    fn415600   6.300   6.033   1.770 -0.2966 -0.0909 -0.5127
 2445ntf    cn115601   0.141   3.105   1.197 -0.0814  0.3075 -0.0739
 2445ntf    sn215602  -0.021   3.024   1.206 -0.0012  0.1611  0.0495
 2445ntf    nn315603  -0.034   2.929   1.082 -0.1089 -0.2098  0.3426
 2445ntf    sn215604  -0.063   2.775   1.076 -0.1375 -0.1882 -0.1348
 2445ntf    cn115605   0.102   2.722   1.020  0.2068  0.5530  0.1659
 2445ntf    fn415606   0.170   3.143   1.073 -0.1851  0.0924 -0.1646
 2445ntf    fn415607   0.157   3.210   1.275 -0.0027 -0.0556  0.4007
 2445ntf    fn415608   0.243   3.026   1.226 -0.6636 -0.5628 -0.3759
 2445ntf    on515609  -0.012   2.963   1.337  0.3910 -0.0401 -0.0692
 2445ntf    on515610  -0.111   3.136   1.200 -0.0559  0.1498  0.6117
 2445ntf    on515611  -0.161   2.740   0.976 -0.3395 -0.0084  0.0000
 2445ntf    on515612  -0.086   2.700   1.197  0.1653 -0.0397  0.0172
 2445ntf    fn415613   0.095   2.593   0.988  0.5349  0.4554  0.4846
 2445ntf    fn415614   0.157   2.789   0.920  0.6587 -0.1418 -0.0583
 2445ntf    fn415615   0.189   2.722   1.119 -0.0905 -0.0715  0.4310
 2446ntf    cn115616   0.738   2.326   4.992  0.1017 -0.2623  0.3062
 2446ntf    sn215617   0.715   2.485   5.077  0.0109 -0.0069 -0.1948
 2446ntf    nn315618   0.686   2.562   4.943 -0.5317 -0.4217 -0.3179
 2446ntf    sn215619   0.589   2.680   4.907  0.1475  0.1840 -0.1961
 2446ntf    cn115620   0.468   2.590   4.804 -0.2834  0.7829 -0.2212
 2446ntf    fn415621   0.633   2.296   4.918  0.4185 -0.0187 -0.2490
 2446ntf    fn415622   0.832   2.328   4.899 -0.4761  0.3743 -0.2741
 2446ntf    fn415623   0.768   2.220   5.065  0.4374 -0.4192 -0.0496
 2446ntf    on515624   0.605   2.473   5.169  0.1610 -0.1166 -0.0282
 2446ntf    on515625   0.840   2.519   5.142  0.0700 -0.2072 -0.2039
 2446ntf    on515626   0.661   2.773   4.823  0.7792 -0.1710 -0.0498
 2446ntf    on515627   0.509   2.730   5.015  0.2286  0.1421 -0.1167
 2446ntf    fn415628   0.508   2.562   4.681 -0.6045 -0.2593 -0.0937
 2446ntf    fn415629   0.443   2.470   4.854  0.3627  0.5831 -0.3667
 2446ntf    fn415630   0.347   2.643   4.800 -0.4751  0.3743  0.1439
 2447ntf    cn115631   2.053   0.832   5.438  0.4849  0.3844 -0.1190
 2447ntf    sn215632   1.960   0.973   5.507  0.2555  0.1258  0.1048
 2447ntf    nn315633   1.997   0.945   5.657 -0.0663 -0.1553  0.1310
 2447ntf    sn215634   2.004   1.048   5.775  0.3763 -0.2384  0.1776
 2447ntf    cn115635   1.826   1.040   5.811  0.3292 -0.2107 -0.0471
 2447ntf    fn415636   2.032   0.810   5.309  0.3454 -0.3905  0.0333
 2447ntf    fn415637   2.183   0.852   5.453  0.4348  0.4152  0.2866
 2447ntf    fn415638   2.029   0.715   5.494  0.0941  0.3340 -0.3832
 2447ntf    on515639   2.026   1.082   5.439  0.0499  0.6544  0.7455
 2447ntf    on515640   1.829   0.925   5.473  0.4552 -0.1153 -0.3465
 2447ntf    on515641   2.029   1.186   5.743  1.0329 -0.3927 -0.0039
 2447ntf    on515642   2.064   1.003   5.898 -0.0638 -0.5681  0.2726
 2447ntf    fn415643   1.778   0.917   5.816  0.2534 -0.1846 -0.1299
 2447ntf    fn415644   1.803   1.097   5.928 -0.1144 -0.2347 -0.1233
 2447ntf    fn415645   1.755   1.105   5.720  0.2796 -0.6747 -0.3433
 2448ntf    cn115646   5.352   5.228   1.327  0.2598 -0.4782  0.5664
 2448ntf    sn215647   5.414   5.084   1.234  0.2147 -0.1106 -0.0405
 2448ntf    nn315648   5.530   5.030   1.325  0.2169  0.6183  0.3956
 2448ntf    sn215649   5.509   4.909   1.423 -0.0406  0.1805 -0.1946
 2448ntf    cn115650   5.685   4.872   1.449 -0.1485 -0.1468  0.0768
 2448ntf    fn415651   5.300   5.201   1.446  0.2091  0.2539  0.7131
 2448ntf    fn415652   5.449   5.316   1.346  0.2212 -0.3329  0.1020
 2448ntf    fn415653   5.260   5.285   1.252  0.1657 -0.5576  0.6218
 2448ntf    on515654   5.297   5.002   1.213  0.1212 -0.0887  0.3923
 2448ntf    on515655   5.471   5.143   1.116  0.2581 -0.3406 -0.1340
 2448ntf    on515656   5.469   4.788   1.356 -0.1934  0.0496  0.1359
 2448ntf    on515657   5.457   4.938   1.554  0.0578 -0.1556 -0.0811
 2448ntf    fn415658   5.756   4.982   1.470 -0.3936 -0.0031  0.1499
 2448ntf    fn415659   5.706   4.783   1.544  0.0407  0.0429  0.2152
 2448ntf    fn415660   5.742   4.822   1.340 -0.2958  0.2864 -0.2029
 2449ntf    cn115661   3.298   6.785   4.384  0.2639 -0.1168 -0.0900
 2449ntf    sn215662   3.414   6.925   4.375 -0.1074  0.1925 -0.0951
 2449ntf    nn315663   3.416   6.984   4.520  0.0666  0.3292 -0.1533
 2449ntf    sn215664   3.504   6.944   4.643 -0.0991 -0.0496 -0.1557
 2449ntf    cn115665   3.370   6.919   4.762 -0.0950  0.0825 -0.1237
 2449ntf    fn415666   3.312   6.692   4.291 -0.2270 -0.2294 -0.0533
 2449ntf    fn415667   3.321   6.712   4.492 -0.3916  0.1628  0.2457
 2449ntf    fn415668   3.170   6.817   4.393  0.2011 -0.3334 -0.2194
 2449ntf    on515669   3.538   6.873   4.323 -0.2134 -0.1098 -0.0503
 2449ntf    on515670   3.335   7.010   4.289 -0.1727 -0.2514 -0.4823
 2449ntf    on515671   3.579   7.060   4.686 -0.1351  0.0302 -0.3084
 2449ntf    on515672   3.574   6.819   4.625 -0.2988 -0.1392 -0.3041
 2449ntf    fn415673   3.400   6.890   4.888  0.1593  0.3301 -0.1251
 2449ntf    fn415674   3.288   7.022   4.771  0.0970  0.2295 -0.0435
 2449ntf    fn415675   3.293   6.817   4.728  0.0061 -0.1928  0.4610
 2450ntf    cn115676   3.532   5.760   3.181 -0.1986  0.1256  0.3681
 2450ntf    sn215677   3.533   5.939   3.154  0.0263  0.0606 -0.0632
 2450ntf    nn315678   3.685   5.970   3.179 -0.0074  0.1543  0.0300
 2450ntf    sn215679   3.796   6.000   3.072  0.0397 -0.1028  0.0058
 2450ntf    cn115680   3.802   6.181   3.084 -0.3279 -0.0930  0.0312
 2450ntf    fn415681   3.543   5.734   3.310 -0.5381 -0.1481  0.3451
 2450ntf    fn415682   3.413   5.713   3.148  0.0342 -0.0931 -0.1763
 2450ntf    fn415683   3.623   5.695   3.109 -0.2025 -0.0227  0.4959
 2450ntf    on515684   3.480   5.945   3.020 -0.3627  0.1802  0.0965
 2450ntf    on515685   3.454   5.996   3.260 -0.8314 -0.6298 -0.3303
 2450ntf    on515686   3.760   5.992   2.932  0.0358 -0.1762  0.0109
 2450ntf    on515687   3.925   5.941   3.101  0.2971  0.7969  0.7391
 2450ntf    fn415688   3.912   6.218   3.021 -0.0418 -0.5426  0.2639
 2450ntf    fn415689   3.695   6.246   3.039  0.0686  0.3220 -0.3193
 2450ntf    fn415690   3.819   6.209   3.212 -0.3133 -0.0325  0.0162
 2451ntf    cn115691   2.515   5.175   2.128  0.6059  0.1520 -0.4035
 2451ntf    sn215692   2.677   5.231   2.067  0.5708  0.5054 -0.1735
 2451ntf    nn315693   2.761   5.099   2.070 -0.1054  0.0718  0.1903
 2451ntf    sn215694   2.862   5.060   2.184 -0.0508  0.0118  0.1217
 2451ntf    cn115695   2.858   4.879   2.172 -0.3023 -0.0212  0.6755
 2451ntf    fn415696   2.478   5.061   2.070  0.5925 -0.0129 -0.0740
 2451ntf    fn415697   2.522   5.149   2.258 -0.0922  0.0887 -0.3740
 2451ntf    fn415698   2.419   5.265   2.122  0.1828 -0.2173  0.5544
 2451ntf    on515699   2.642   5.264   1.931 -0.2516  0.4061  0.0048
 2451ntf    on515700   2.706   5.344   2.152 -0.4849  0.1803  0.6505
 2451ntf    on515701   2.811   5.075   2.318 -0.2252  0.3287  0.0215
 2451ntf    on515702   3.000   5.092   2.158 -0.0144  0.3266  0.7011
 2451ntf    fn415703   2.734   4.836   2.190 -0.4286 -0.1591 -0.4667
 2451ntf    fn415704   2.901   4.833   2.056  0.2081 -0.0652  0.8782
 2451ntf    fn415705   2.938   4.814   2.256  0.1891 -0.0340  0.2003
 2452ntf    cn115706   7.013   4.220   3.286  0.0168 -0.1551  0.4254
 2452ntf    sn215707   6.862   4.288   3.361  0.0137  0.1183  0.1737
 2452ntf    nn315708   6.862   4.201   3.492  0.5544  0.0720  0.1426
 2452ntf    sn215709   6.738   4.155   3.576  0.5775  0.0905  0.1867
 2452ntf    cn115710   6.792   4.205   3.742  0.5126  0.5537  0.0702
 2452ntf    fn415711   7.118   4.267   3.351 -0.1702 -0.3159  0.8472
 2452ntf    fn415712   7.013   4.090   3.307  0.3473 -0.2007  0.1501
 2452ntf    fn415713   7.027   4.248   3.158 -0.1759 -0.9008  0.2422
 2452ntf    on515714   6.893   4.427   3.382 -0.0328  0.1925 -0.2252
 2452ntf    on515715   6.762   4.256   3.261 -0.2116  0.0623  0.4136
 2452ntf    on515716   6.730   4.012   3.587  0.4285  0.0112 -0.8547
 2452ntf    on515717   6.616   4.227   3.546  0.6767  0.3555  0.4078
 2452ntf    fn415718   6.911   4.159   3.777  0.3309 -0.3391 -0.4796
 2452ntf    fn415719   6.803   4.337   3.745 -0.1315  0.6129  0.0614
 2452ntf    fn415720   6.698   4.176   3.831  0.5598  0.0492 -0.0459
 2453ntf    cn115721   6.643   4.547   6.191  0.2812  0.3550  0.6178
 2453ntf    sn215722   6.529   4.422   6.258  0.3850 -0.0117  0.1126
 2453ntf    nn315723   6.427   4.522   6.324 -0.0977 -0.5231  0.1514
 2453ntf    sn215724   6.295   4.588   6.271  0.0776 -0.1422  0.1830
 2453ntf    cn115725   6.177   4.548   6.403  0.1947 -0.4062  0.2081
 2453ntf    fn415726   6.584   4.653   6.139  0.1392  0.0008  0.0505
 2453ntf    fn415727   6.739   4.587   6.273  1.0384 -0.3079  0.0677
 2453ntf    fn415728   6.715   4.496   6.092 -0.5285 -0.3596  0.3913
 2453ntf    on515729   6.476   4.340   6.151 -0.5362 -0.1359  0.6526
 2453ntf    on515730   6.612   4.353   6.353  0.3884 -1.0344 -0.6148
 2453ntf    on515731   6.228   4.531   6.157 -0.3403 -0.7513  0.7257
 2453ntf    on515732   6.297   4.732   6.277 -0.0527 -0.1124 -0.3823
 2453ntf    fn415733   6.067   4.619   6.385 -0.0799 -0.6789  0.7851
 2453ntf    fn415734   6.126   4.426   6.395  0.5918 -0.5478 -0.2195
 2453ntf    fn415735   6.220   4.576   6.525  0.7666  0.0295 -0.0899
 2454ntf    cn115736   4.775   1.576   1.353  0.2607 -0.2228 -0.1382
 2454ntf    sn215737   4.649   1.521   1.234  0.0428  0.0060 -0.0156
 2454ntf    nn315738   4.537   1.478   1.336  0.0007  0.0401 -0.0474
 2454ntf    sn215739   4.420   1.568   1.387 -0.2171 -0.2236 -0.0784
 2454ntf    cn115740   4.279   1.529   1.279 -0.4835  0.4059  0.0325
 2454ntf    fn415741   4.751   1.701   1.392 -0.5442 -0.6325  0.7163
 2454ntf    fn415742   4.774   1.500   1.462 -0.2583 -0.4586 -0.3043
 2454ntf    fn415743   4.900   1.575   1.310  0.3816 -0.0083  0.2040
 2454ntf    on515744   4.623   1.641   1.159  0.6490  0.4570  0.4812
 2454ntf    on515745   4.713   1.410   1.167 -0.1264  0.2635 -0.6061
 2454ntf    on515746   4.429   1.712   1.375  0.5602 -0.3018 -0.4435
 2454ntf    on515747   4.367   1.521   1.513  1.0007  0.0022  0.5298
 2454ntf    fn415748   4.169   1.595   1.310 -0.3035  0.6904  0.0613
 2454ntf    fn415749   4.316   1.548   1.153  0.4707  0.3245  0.2905
 2454ntf    fn415750   4.246   1.401   1.290 -0.5259  0.4436  0.3375
 2455ntf    cn115751   5.223   5.769   0.584  0.3828 -0.1596 -0.4984
 2455ntf    sn215752   5.052   5.807   0.536  0.3317  0.4374  0.1394
 2455ntf    nn315753   4.976   5.872   0.657 -0.2563 -0.1732  0.1045
 2455ntf    sn215754   4.981   6.022   0.701 -0.2242 -0.1660  0.0767
 2455ntf    cn115755   4.824   6.084   0.634  0.0588  0.2482 -0.2163
 2455ntf    fn415756   5.281   5.882   0.622 -0.5734  0.0197  0.4761
 2455ntf    fn415757   5.245   5.684   0.682  0.5077  0.1918 -0.2184
 2455ntf    fn415758   5.296   5.717   0.486  0.4267 -0.6192 -0.2247
 2455ntf    on515759   5.071   5.882   0.414  0.4811  0.9843  0.4996
 2455ntf    on515760   4.994   5.676   0.515  0.5935  0.3527 -0.0716
 2455ntf    on515761   5.077   6.113   0.643 -0.2663 -0.0490  0.1889
 2455ntf    on515762   4.947   6.039   0.840  0.5572 -0.4920  0.3101
 2455ntf    fn415763   4.726   6.014   0.690  0.2113  0.6257  0.5294
 2455ntf    fn415764   4.805   6.212   0.661  0.0097  0.2128 -0.0811
 2455ntf    fn415765   4.810   6.070   0.503  0.7913  0.9252 -0.3673
 2456ntf    cn115766   5.727   6.350   6.161 -0.2473  0.3595 -0.3815
 2456ntf    sn215767   5.688   6.271   6.002  0.1774 -0.1746 -0.2242
 2456ntf    nn315768   5.649   6.398   5.919 -0.0941  0.1239  0.3500
 2456ntf    sn215769   5.548   6.413   5.800 -0.1794  0.0570  0.4141
 2456ntf    cn115770   5.396   6.428   5.898 -0.1359 -0.2279  0.5260
 2456ntf    fn415771   5.787   6.464   6.129 -0.0275  0.3656  0.0493
 2456ntf    fn415772   5.619   6.384   6.228  0.1390  0.5520  0.1521
 2456ntf    fn415773   5.818   6.290   6.237 -1.0415 -0.4876 -0.0885
 2456ntf    on515774   5.807   6.201   5.963 -0.0762 -0.4739 -0.4727
 2456ntf    on515775   5.582   6.184   6.050 -0.0551  0.4211  0.3501
 2456ntf    on515776   5.524   6.291   5.726  0.9635  0.3677 -0.5127
 2456ntf    on515777   5.577   6.532   5.723  0.2937 -0.3360 -0.0306
 2456ntf    fn415778   5.395   6.507   6.004  0.3765  0.2016  0.2187
 2456ntf    fn415779   5.301   6.460   5.812  0.1415 -0.4493  0.1352
 2456ntf    fn415780   5.364   6.307   5.941 -0.2724 -0.1715  0.5829
 2457ntf    cn115781   6.989   0.450   5.864 -0.2398 -0.7354  0.3075
 2457ntf    sn215782   7.063   0.432   6.029 -0.0800  0.0875  0.3287
 2457ntf    nn315783   7.200   0.366   5.993 -0.4580 -0.0109 -0.9897
 2457ntf    sn215784   7.228   0.214   5.967  0.3478 -0.0635  0.1086
 2457ntf    cn115785   7.325   0.194   6.120  0.0230  0.0550  0.3308
 2457ntf    fn415786   6.871   0.508   5.854  0.1162 -0.1516 -0.6159
 2457ntf    fn415787   7.069   0.526   5.791 -0.4695 -0.1561  0.6527
 2457ntf    fn415788   6.966   0.332   5.808 -0.2323 -0.6333  0.0858
 2457ntf    on515789   7.066   0.570   6.070  0.3432  0.2439 -0.2151
 2457ntf    on515790   6.967   0.345   6.094 -0.1518 -0.3293 -0.3281
 2457ntf    on515791   7.315   0.190   5.854  0.0337  0.4507 -0.2457
 2457ntf    on515792   7.118   0.123   5.985 -0.3902  0.5919 -1.0001
 2457ntf    fn415793   7.370   0.071   6.138 -0.1782 -0.1212 -0.3202
 2457ntf    fn415794   7.427   0.279   6.126  0.4129 -0.3170 -0.7733
 2457ntf    fn415795   7.250   0.233   6.221 -0.2789  0.2555  0.0299
 2458ntf    cn115796   2.191   4.146   3.014  0.1817  0.2876 -0.1089
 2458ntf    sn215797   2.212   3.969   2.978 -0.5601  0.1786 -0.0240
 2458ntf    nn315798   2.095   3.911   3.066 -0.7323  0.5035 -0.0386
 2458ntf    sn215799   2.101   3.853   3.211  0.1097 -0.2292 -0.3505
 2458ntf    cn115800   2.136   3.677   3.183 -0.1080 -0.3345  0.0286
 2458ntf    fn415801   2.166   4.173   3.141  0.2597  1.0902 -0.2601
 2458ntf    fn415802   2.296   4.219   2.978 -0.0295  0.3227 -0.6616
 2458ntf    fn415803   2.090   4.202   2.949  0.4330  0.2252 -0.5565
 2458ntf    on515804   2.189   3.960   2.836 -0.1302  0.3978 -0.1113
 2458ntf    on515805   2.345   3.940   3.026 -0.5934  0.0828  0.0102
 2458ntf    on515806   1.967   3.861   3.266  0.3716 -0.1677  0.2879
 2458ntf    on515807   2.210   3.901   3.292 -0.2621 -0.2095  0.1478
 2458ntf    fn415808   2.260   3.642   3.153  0.1811  0.4588  0.2503
 2458ntf    fn415809   2.104   3.606   3.290 -0.1368  0.1764  0.3637
 2458ntf    fn415810   2.062   3.631   3.084  0.4416 -0.2486 -0.4257
 2459ntf    cn115811   4.616   1.704   3.169  0.2478 -0.6356 -0.1389
 2459ntf    sn215812   4.485   1.678   3.292 -0.0430  0.3980 -0.2172
 2459ntf    nn315813   4.408   1.559   3.224 -0.1012 -0.3336  1.0840
 2459ntf    sn215814   4.262   1.556   3.167  0.3137  0.2644 -0.0473
 2459ntf    cn115815   4.249   1.379   3.128  0.0301  0.2038  0.3171
 2459ntf    fn415816   4.574   1.700   3.043 -0.2750 -0.6939  0.0325
 2459ntf    fn415817   4.677   1.821   3.174 -0.6990 -0.1231 -0.3277
 2459ntf    fn415818   4.711   1.615   3.188  0.3259 -0.4231  0.4802
 2459ntf    on515819   4.557   1.636   3.410  0.0143 -0.0586 -0.4117
 2459ntf    on515820   4.411   1.801   3.307 -0.1415  0.2218  0.8297
 2459ntf    on515821   4.250   1.606   3.032 -0.3269 -0.4493 -0.2677
 2459ntf    on515822   4.155   1.585   3.259  0.3507  0.1468  0.0342
 2459ntf    fn415823   4.330   1.342   3.030 -0.0387  0.1754  0.2710
 2459ntf    fn415824   4.273   1.301   3.232  0.2849 -0.4241 -0.2009
 2459ntf    fn415825   4.126   1.348   3.089  0.1172  0.4706 -0.1773
 2460ntf    cn115826   3.259   0.340   3.951  0.0051  0.1451  0.2041
 2460ntf    sn215827   3.194   0.271   3.796  0.2348 -0.1013  0.2162
 2460ntf    nn315828   3.065   0.197   3.845 -0.1115  0.3666  0.0210
 2460ntf    sn215829   2.914   0.231   3.815 -0.2389 -0.1540  0.0487
 2460ntf    cn115830   2.907   0.159   3.649 -0.0298  0.1489 -0.0933
 2460ntf    fn415831   3.172   0.420   4.010  0.1973  0.1893  0.4289
 2460ntf    fn415832   3.289   0.246   4.039 -0.1422 -0.0266  0.0739
 2460ntf    fn415833   3.365   0.415   3.926  0.1613  0.0074  0.4483
 2460ntf    on515834   3.178   0.381   3.703 -0.4412  0.1158  0.5847
 2460ntf    on515835   3.296   0.175   3.762 -0.2900 -0.5258 -0.1715
 2460ntf    on515836   2.892   0.374   3.817 -0.7410 -0.2249 -0.2356
 2460ntf    on515837   2.826   0.143   3.887 -0.3034 -0.8381 -0.8612
 2460ntf    fn415838   2.786   0.134   3.603 -0.0167 -0.7908  0.3556
 2460ntf    fn415839   2.963   0.237   3.558 -0.1778  0.4339  0.0608
 2460ntf    fn415840   2.965   0.041   3.630  0.0379  0.2030 -0.2262
 2461ntf    cn115841   5.591   5.397   4.235  0.1783  0.0789  0.8340
 2461ntf    sn215842   5.771   5.422   4.222  0.0991  0.1856 -0.1585
 2461ntf    nn315843   5.813   5.272   4.235  1.0751  0.4069 -0.6896
 2461ntf    sn215844   5.853   5.191   4.363 -0.0378  0.2741 -0.4139
 2461ntf    cn115845   5.845   5.020   4.303  0.2226  0.2799 -0.4654
 2461ntf    fn415846   5.528   5.510   4.206 -0.1940 -0.3366 -0.0116
 2461ntf    fn415847   5.549   5.306   4.148  0.4822  1.0031 -0.3020
 2461ntf    fn415848   5.551   5.372   4.358 -1.0561 -0.6501  0.3051
 2461ntf    on515849   5.799   5.473   4.090 -0.2784  0.1306 -0.2630
 2461ntf    on515850   5.812   5.495   4.339  0.1772 -0.4640  0.2256
 2461ntf    on515851   5.751   5.172   4.463  0.5121 -0.2296  0.0602
 2461ntf    on515852   5.983   5.200   4.426 -0.3358  0.1948  0.2198
 2461ntf    fn415853   5.743   4.996   4.222 -0.0540 -0.0562 -0.0212
 2461ntf    fn415854   5.958   4.995   4.239  0.0948 -0.6813 -0.3329
 2461ntf    fn415855   5.835   4.927   4.397  0.3251 -0.0470 -0.7750
 2462ntf    cn115856   2.591   4.406   2.238  0.2084  0.3745  0.0811
 2462ntf    sn215857   2.700   4.306   2.343 -0.1003  0.1409  0.1796
 2462ntf    nn315858   2.809   4.260   2.240  0.0228  0.2339  0.2682
 2462ntf    sn215859   2.934   4.167   2.252 -0.4225 -0.4049 -0.0021
 2462ntf    cn115860   2.894   4.035   2.133  0.3414 -0.0551 -0.6546
 2462ntf    fn415861   2.641   4.524   2.206  0.7999  0.0140 -0.3399
 2462ntf    fn415862   2.579   4.342   2.123  0.3434  0.8209 -0.1855
 2462ntf    fn415863   2.468   4.430   2.282  0.3745 -0.2205  0.9028
 2462ntf    on515864   2.754   4.405   2.433 -0.5493 -0.1350  0.7653
 2462ntf    on515865   2.617   4.200   2.396  0.1195 -0.2748 -0.3006
 2462ntf    on515866   2.951   4.108   2.383  0.0127  0.2326  0.2303
 2462ntf    on515867   3.055   4.227   2.202 -0.6023 -0.3969 -0.4307
 2462ntf    fn415868   2.771   3.989   2.148  0.2216  0.2692 -0.6404
 2462ntf    fn415869   2.896   4.086   2.011 -0.2936  1.0367 -0.2275
 2462ntf    fn415870   2.976   3.931   2.138  0.0914 -0.2386 -0.3869
 2463ntf    cn115871   4.499   2.129   6.415 -0.3711  0.4049  0.3180
 2463ntf    sn215872   4.638   2.163   6.302 -0.2753 -0.2687  0.2298
 2463ntf    nn315873   4.665   2.019   6.245 -0.0914 -0.0459 -0.2413
 2463ntf    sn215874   4.768   1.906   6.279  0.1112  0.2048 -0.0145
 2463ntf    cn115875   4.851   1.900   6.117  0.0862 -0.0477 -0.0178
 2463ntf    fn415876   4.539   2.085   6.533  0.3951 -0.2618 -0.1834
 2463ntf    fn415877   4.431   2.239   6.445 -0.8223  0.2095  0.0159
 2463ntf    fn415878   4.415   2.036   6.375  0.4468 -0.1088 -0.2367
 2463ntf    on515879   4.589   2.255   6.202 -0.3217  0.1815  0.6642
 2463ntf    on515880   4.739   2.219   6.387 -0.2973 -0.0094  0.0869
 2463ntf    on515881   4.715   1.773   6.295  0.4142  0.1248  0.3373
 2463ntf    on515882   4.868   1.938   6.378  0.0396  0.3691  0.0044
 2463ntf    fn415883   4.938   1.801   6.118 -0.2090 -0.3130 -0.1239
 2463ntf    fn415884   4.766   1.870   6.019 -0.2708  0.6249  0.0830
 2463ntf    fn415885   4.913   2.011   6.084  0.1494 -0.0569  0.0679
 2464ntf    cn115886   3.479   4.047   4.172  0.0235  0.2551 -0.2762
 2464ntf    sn215887   3.644   4.115   4.207 -0.0848  0.5043 -0.2476
 2464ntf    nn315888   3.654   4.207   4.080 -0.1542  0.0618 -0.5732
 2464ntf    sn215889   3.635   4.362   4.079  0.2718  0.1152 -0.2044
 2464ntf    cn115890   3.752   4.406   3.947  0.0515  0.1999 -0.3713
 2464ntf    fn415891   3.393   4.136   4.125 -0.3545  0.1984  0.3060
 2464ntf    fn415892   3.478   3.954   4.078  0.1489 -0.1558  0.1246
 2464ntf    fn415893   3.407   3.993   4.268  0.2477  0.0530 -0.2199
 2464ntf    on515894   3.633   4.196   4.326  0.6072 -0.4217  0.4570
 2464ntf    on515895   3.730   4.000   4.202 -0.4870  0.1456  0.7317
 2464ntf    on515896   3.691   4.431   4.194 -0.2287 -0.2205  0.2437
 2464ntf    on515897   3.513   4.407   4.019  0.4790  0.3213 -0.4731
 2464ntf    fn415898   3.861   4.330   3.956 -0.2044 -0.0971  0.2826
 2464ntf    fn415899   3.700   4.381   3.828  0.4434 -0.4550 -0.4100
 2464ntf    fn415900   3.789   4.533   3.949 -0.1939  0.2676 -0.0643
 2465ntf    cn115901   4.765   6.077   5.389  0.0132 -0.0771 -0.0997
 2465ntf    sn215902   4.668   5.996   5.258  0.0700  0.0395 -0.2152
 2465ntf    nn315903   4.776   6.005   5.144 -0.6333  0.3233 -0.8607
 2465ntf    sn215904   4.794   6.099   5.020  0.2371  0.1349 -0.8830
 2465ntf    cn115905   4.933   6.018   4.936  0.5358 -0.0883 -0.1762
 2465ntf    fn415906   4.792   6.203   5.357 -0.6382  0.1791  0.3347
 2465ntf    fn415907   4.712   6.092   5.509 -0.1578  0.5718 -0.2513
 2465ntf    fn415908   4.880   6.013   5.402  0.0869  0.2039  0.6482
 2465ntf    on515909   4.656   5.858   5.298  0.5549  0.1785  0.4377
 2465ntf    on515910   4.543   6.064   5.237  0.1323  0.0698 -0.4829
 2465ntf    on515911   4.847   6.225   5.066 -0.4363  0.1012  0.0113
 2465ntf    on515912   4.678   6.096   4.934 -0.2001  0.4818 -0.3096
 2465ntf    fn415913   4.976   6.095   4.837 -0.6807  0.7231 -0.1025
 2465ntf    fn415914   5.034   5.988   5.016  0.0394 -0.8454  0.1745
 2465ntf    fn415915   4.894   5.906   4.879  0.3797 -0.1101 -0.0268
 2466ntf    cn115916   0.163   2.343   3.048  0.4961  0.2574  0.0780
 2466ntf    sn215917   0.240   2.218   3.156  0.2909  0.1077  0.0518
 2466ntf    nn315918   0.391   2.263   3.160  0.3956 -0.2671  0.3700
 2466ntf    sn215919   0.502   2.237   3.053  0.3105  0.2554  0.1501
 2466ntf    cn115920   0.603   2.138   3.168 -0.0234 -0.0738  0.1618
 2466ntf    fn415921   0.158   2.466   3.096  0.1743  0.1137  0.4252
 2466ntf    fn415922   0.221   2.359   2.930  0.4362  0.4868  0.0790
 2466ntf    fn415923   0.041   2.303   3.016  0.4339 -0.3715  1.0387
 2466ntf    on515924   0.167   2.239   3.278  0.2357  0.1872  0.0058
 2466ntf    on515925   0.215   2.088   3.100  0.3821  0.0437  0.1595
 2466ntf    on515926   0.594   2.345   3.024  0.2046  0.1934 -0.4315
 2466ntf    on515927   0.474   2.147   2.944  0.4819  0.6055 -0.1877
 2466ntf    fn415928   0.600   2.179   3.293  0.1786  0.2142  0.0736
 2466ntf    fn415929   0.547   2.019   3.177 -0.4009  0.1391  0.7001
 2466ntf    fn415930   0.730   2.124   3.132 -0.0491  0.2655 -0.0673
 2467ntf    cn115931   1.574   5.595   2.877 -0.3397 -0.1208  0.2292
 2467ntf    sn215932   1.471   5.630   2.731  0.0189 -0.1976 -0.0432
 2467ntf    nn315933   1.379   5.737   2.800 -0.5224 -0.1106 -0.8909
 2467ntf    sn215934   1.392   5.892   2.816  0.0413 -0.2459  0.0680
 2467ntf    cn115935   1.277   5.937   2.950  0.0693 -0.5486  0.1934
 2467ntf    fn415936   1.689   5.546   2.833 -0.4287 -0.7160  0.6397
 2467ntf    fn415937   1.590   5.702   2.954 -0.4470  0.2529 -0.2633
 2467ntf    fn415938   1.510   5.504   2.950 -0.3839 -0.5003 -0.2775
 2467ntf    on515939   1.560   5.681   2.630  0.2914 -0.7416 -0.0807
 2467ntf    on515940   1.399   5.508   2.704 -0.3592  0.0545 -0.1827
 2467ntf    on515941   1.336   5.966   2.705  0.6781 -0.0515 -0.1299
 2467ntf    on515942   1.512   5.947   2.873  0.0577 -0.3063  0.0920
 2467ntf    fn415943   1.313   5.889   3.068  0.2980 -0.1232  0.2967
 2467ntf    fn415944   1.270   6.068   2.965  0.3481 -0.4918 -0.1450
 2467ntf    fn415945   1.153   5.899   2.923 -0.0549  0.2251 -0.3694
 2468ntf    cn115946   0.534   3.844   1.293 -0.6270 -0.4724 -0.0121
 2468ntf    sn215947   0.508   3.847   1.113 -0.0614  0.5089 -0.0813
 2468ntf    nn315948   0.567   3.991   1.095  0.3552  0.3928  0.3231
 2468ntf    sn215949   0.635   4.050   0.965  0.1816  0.2088  0.1489
 2468ntf    cn115950   0.577   4.221   0.949 -0.2513  0.0631  0.1404
 2468ntf    fn415951   0.480   3.735   1.347 -0.2000 -0.5850  0.1877
 2468ntf    fn415952   0.661   3.829   1.327 -0.7139 -0.3328  0.3867
 2468ntf    fn415953   0.486   3.951   1.355  0.5980  0.2169 -0.2325
 2468ntf    on515954   0.591   3.748   1.049 -1.1990 -0.0889 -0.6486
 2468ntf    on515955   0.367   3.827   1.091  0.1330  0.1875 -1.0601
 2468ntf    on515956   0.597   3.976   0.847  0.0320  0.3694  0.0956
 2468ntf    on515957   0.777   4.071   0.979  0.2056  0.2804 -0.2135
 2468ntf    fn415958   0.653   4.287   0.863 -0.0319  0.4064  0.5910
 2468ntf    fn415959   0.449   4.237   0.920 -0.2680 -0.1100  0.1183
 2468ntf    fn415960   0.586   4.297   1.058  0.0269  0.5378 -0.2105
 2469ntf    cn115961   2.414   5.175   1.415 -0.0551  0.2863  0.0264
 2469ntf    sn215962   2.470   5.166   1.242  0.4876 -0.2147  0.2248
 2469ntf    nn315963   2.382   5.273   1.168  0.4152 -0.2551  0.2524
 2469ntf    sn215964   2.235   5.270   1.112  0.3718  0.0299  0.3531
 2469ntf    cn115965   2.261   5.274   0.932 -0.4000 -0.0283  0.2400
 2469ntf    fn415966   2.389   5.298   1.455 -0.6386  0.1340  0.1472
 2469ntf    fn415967   2.298   5.112   1.431  0.1138 -0.0102  0.0966
 2469ntf    fn415968   2.497   5.117   1.500 -0.2624  0.0262  0.0536
 2469ntf    on515969   2.608   5.203   1.260  0.7224 -0.7694 -0.3835
 2469ntf    on515970   2.447   5.032   1.195  0.0551 -0.0967  0.0945
 2469ntf    on515971   2.179   5.398   1.150  0.3102  0.2551 -0.4840
 2469ntf    on515972   2.165   5.148   1.140 -0.6732  0.4972 -0.1487
 2469ntf    fn415973   2.345   5.182   0.890 -0.3006  0.4037 -0.5221
 2469ntf    fn415974   2.149   5.257   0.864 -0.2211 -0.0007 -0.0607
 2469ntf    fn415975   2.314   5.392   0.905  0.3994 -0.3108  0.5644
 2470ntf    cn115976   1.618   2.719   0.432  0.0099 -0.0113 -0.1302
 2470ntf    sn215977   1.522   2.821   0.547  0.0293 -0.2198  0.0724
 2470ntf    nn315978   1.427   2.703   0.586 -0.1891 -0.2251 -0.4714
 2470ntf    sn215979   1.280   2.686   0.639 -0.0114  0.0620  0.1178
 2470ntf    cn115980   1.197   2.670   0.478  0.3032 -0.0533 -0.0337
 2470ntf    fn415981   1.705   2.642   0.496  0.1429  0.0276 -0.2616
 2470ntf    fn415982   1.536   2.640   0.364 -0.4436 -0.2175  0.6443
 2470ntf    fn415983   1.700   2.790   0.355  0.3098 -0.3569 -0.1365
 2470ntf    on515984   1.608   2.855   0.658 -0.2196  0.1338  0.1569
 2470ntf    on515985   1.459   2.925   0.469 -0.2919 -0.5651 -0.1293
 2470ntf    on515986   1.225   2.803   0.703  0.1671 -0.0546  0.4864
 2470ntf    on515987   1.255   2.560   0.706 -0.3025  0.1487  0.1723
 2470ntf    fn415988   1.215   2.781   0.408  0.3062 -0.0172  0.0246
 2470ntf    fn415989   1.236   2.569   0.401 -0.0990  0.2282 -0.6105
 2470ntf    fn415990   1.065   2.665   0.483  0.3157 -0.1468  0.2280
 2471ntf    cn115991   4.858   1.929   3.472  0.3234 -0.2106 -0.1298
 2471ntf    sn215992   5.020   1.958   3.394  0.2685  0.2375 -0.0803
 2471ntf    nn315993   5.013   1.946   3.238  0.1975  0.2622 -0.0791
 2471ntf    sn215994   5.119   1.877   3.144 -0.2486  0.0696 -0.4407
 2471ntf    cn115995   5.051   1.711   3.114 -0.4090  0.0719 -0.0963
 2471ntf    fn415996   4.868   1.951   3.602  0.0008  0.2212 -0.1767
 2471ntf    fn415997   4.763   2.007   3.423 -0.0278 -0.2955  0.4108
 2471ntf    fn415998   4.807   1.807   3.459 -0.3561  0.0949 -0.3812
 2471ntf    on515999   5.047   2.089   3.447 -0.0661 -0.0494  0.8334
 2471ntf    on516000   5.103   1.851   3.445  0.0109  0.0755  0.0008
 2471ntf    on516001   5.255   1.849   3.183 -0.3364  0.3048  0.0447
 2471ntf    on516002   5.103   1.939   3.015  0.4441 -0.1300 -0.6258
 2471ntf    fn416003   4.933   1.734   3.057 -0.3048  0.3589 -0.1978
 2471ntf    fn416004   5.121   1.637   3.030 -0.5626  0.2250 -0.3622
 2471ntf    fn416005   5.024   1.646   3.225 -0.5193  0.1905 -0.0529
 2472ntf    cn116006   2.421   5.516   0.624 -0.0162 -0.0282  0.4425
 2472ntf    sn216007   2.404   5.691   0.670 -0.3347  0.0881 -0.1062
 2472ntf    nn316008   2.483   5.696   0.805 -0.1074  0.6093 -0.2554
 2472ntf    sn216009   2.635   5.717   0.839 -0.0940  0.3821 -0.1725
 2472ntf    cn116010   2.673   5.556   0.914 -0.3215  0.0844 -0.6936
 2472ntf    fn416011   2.312   5.448   0.656 -0.2972  0.0167 -0.3842
 2472ntf    fn416012   2.425   5.508   0.492  0.3971  0.4610  0.4228
 2472ntf    fn416013   2.519   5.442   0.672  0.0984 -0.1262  0.0641
 2472ntf    on516014   2.454   5.765   0.556 -0.0996  0.2011  0.0694
 2472ntf    on516015   2.261   5.701   0.684 -0.3776  0.3810 -0.7257
 2472ntf    on516016   2.660   5.801   0.954  0.2319  0.2315 -0.1306
 2472ntf    on516017   2.725   5.725   0.726 -0.2998 -0.2580 -0.3858
 2472ntf    fn416018   2.589   5.457   0.886 -0.3210 -0.2422  0.4158
 2472ntf    fn416019   2.793   5.505   0.890 -0.0630  0.2558  0.1987
 2472ntf    fn416020   2.669   5.568   1.046 -0.0031 -0.3380 -0.6429
 2473ntf    cn116021   1.747   0.613   2.706 -0.2297 -0.2134  0.0803
 2473ntf    sn216022   1.674   0.728   2.585  0.2031 -0.0199  0.0006
 2473ntf    nn316023   1.651   0.621   2.472  0.1767  0.0509 -0.0612
 2473ntf    sn216024   1.516   0.589   2.398  0.1477  0.0776 -0.0200
 2473ntf    cn116025   1.541   0.689   2.248  0.1809  0.0216 -0.0516
 2473ntf    fn416026   1.695   0.492   2.693  0.1074 -0.4274  0.7046
 2473ntf    fn416027   1.878   0.602   2.688 -0.1456  0.2583  0.3911
 2473ntf    fn416028   1.724   0.654   2.829 -0.3041 -0.1312  0.0399
 2473ntf    on516029   1.563   0.768   2.668 -0.0548 -1.0607  0.1706
 2473ntf    on516030   1.778   0.823   2.558 -0.1595  0.1884 -0.6890
 2473ntf    on516031   1.396   0.646   2.455  0.0951 -0.0733  0.0208
 2473ntf    on516032   1.512   0.453   2.350  0.5948 -0.2758  0.9229
 2473ntf    fn416033   1.654   0.655   2.187 -0.3016 -0.5765 -0.6344
 2473ntf    fn416034   1.441   0.680   2.162  0.0531  0.4205  0.0517
 2473ntf    fn416035   1.551   0.817   2.280 -0.1292  0.0943 -0.2362
 2474ntf    cn116036   2.725   3.631   6.225 -0.0096  0.5154 -0.1403
 2474ntf    sn216037   2.613   3.631   6.368 -0.0717  0.3278 -0.1897
 2474ntf    nn316038   2.708   3.559   6.470  0.7424  0.8779 -0.5531
 2474ntf    sn216039   2.769   3.622   6.601  0.0978  0.0672  0.1462
 2474ntf    cn116040   2.646   3.568   6.724  0.0282  0.0765  0.0811
 2474ntf    fn416041   2.671   3.695   6.123  0.4146  0.6014 -0.3163
 2474ntf    fn416042   2.843   3.685   6.255  0.0670  0.2056  0.1242
 2474ntf    fn416043   2.755   3.511   6.181 -0.4043  0.3651 -0.0008
 2474ntf    on516044   2.596   3.773   6.382  0.2047  0.3408  0.0069
 2474ntf    on516045   2.501   3.552   6.323 -0.2736 -0.1688  1.1242
 2474ntf    on516046   2.761   3.762   6.635 -0.1536  0.1615 -0.2940
 2474ntf    on516047   2.886   3.555   6.652  0.1988 -0.1523 -0.3690
 2474ntf    fn416048   2.526   3.624   6.715 -0.0269 -0.1038 -0.3549
 2474ntf    fn416049   2.634   3.436   6.723  0.6424  0.0189 -0.4857
 2474ntf    fn416050   2.693   3.607   6.841 -0.3030  0.0459  0.2231
 2475ntf    cn116051   0.197   0.296   2.401  0.0950  0.1629  0.5278
 2475ntf    sn216052   0.342   0.205   2.341 -0.2872 -0.0053 -0.1523
 2475ntf    nn316053   0.433   0.313   2.272 -0.0884 -0.2853 -0.3352
 2475ntf    sn216054   0.471   0.328   2.120  0.1200 -0.1762 -0.2733
 2475ntf    cn116055   0.512   0.504   2.110  0.2767 -0.2065 -0.1633
 2475ntf    fn416056   0.098   0.215   2.433 -0.5637  0.7039 -0.1033
 2475ntf    fn416057   0.222   0.374   2.505 -0.0976  0.0187  0.6816
 2475ntf    fn416058   0.143   0.374   2.308  0.4391  0.3788  0.5046
 2475ntf    on516059   0.407   0.145   2.455 -0.0428  0.2055 -0.1792
 2475ntf    on516060   0.284   0.108   2.251  0.0932  0.1016 -0.5195
 2475ntf    on516061   0.363   0.303   2.027 -0.0949 -0.0730 -0.0530
 2475ntf    on516062   0.592   0.259   2.084  0.0323 -0.7028  0.4098
 2475ntf    fn416063   0.591   0.524   2.005  0.4629  0.3709  0.0796
 2475ntf    fn416064   0.408   0.582   2.087  0.3241 -0.0541  0.1352
 2475ntf    fn416065   0.567   0.549   2.222 -0.5091  0.4895 -0.0505
 2476ntf    cn116066   0.692   3.079   6.963 -0.1324  0.1961  0.0534
 2476ntf    sn216067   0.833   3.163   6.884  0.2961 -0.3152  0.2735
 2476ntf    nn316068   0.959   3.098   6.952  0.5538  0.3098  0.3970
 2476ntf    sn216069   1.055   2.986   6.898  0.0571 -0.0334  0.2162
 2476ntf    cn116070   1.105   2.904   7.052  0.4032  0.2810  0.2726
 2476ntf    fn416071   0.673   2.955   6.922 -0.0478  0.1401  0.1826
 2476ntf    fn416072   0.712   3.075   7.093  0.2960  0.1357 -0.0108
 2476ntf    fn416073   0.581   3.145   6.935 -0.4955 -0.5078 -0.1839
 2476ntf    on516074   0.811   3.124   6.747  0.0988  0.5357  0.0615
 2476ntf    on516075   0.801   3.297   6.927  0.0674 -0.1039 -0.5458
 2476ntf    on516076   1.183   3.038   6.856  0.2673 -0.1645  0.6888
 2476ntf    on516077   0.999   2.879   6.819  0.5473 -0.0224 -0.1507
 2476ntf    fn416078   1.148   2.991   7.143  0.1600  0.4933  0.1848
 2476ntf    fn416079   1.012   2.830   7.110  0.5464  0.0036  0.1489
 2476ntf    fn416080   1.204   2.818   7.032 -0.4320 -0.5462 -0.3752
 2477ntf    cn116081   1.002   6.018   3.199 -0.0787  0.0279  0.8472
 2477ntf    sn216082   1.091   6.052   3.354  0.6592  0.0134  0.4265
 2477ntf    nn316083   1.007   6.177   3.397  0.3253 -0.0621  0.0061
 2477ntf    sn216084   0.998   6.242   3.540 -0.1351 -0.0041 -0.0466
 2477ntf    cn116085   0.820   6.271   3.563 -0.2088 -0.3999 -0.1124
 2477ntf    fn416086   1.069   5.934   3.122  0.3280  0.6551  0.5075
 2477ntf    fn416087   0.880   5.968   3.213 -0.0582 -0.1462  0.4188
 2477ntf    fn416088   0.991   6.131   3.132  0.3082 -0.4145  0.0179
 2477ntf    on516089   1.070   5.922   3.412 -0.7169 -0.0676 -0.2120
 2477ntf    on516090   1.220   6.096   3.307  0.1388  0.5380 -0.5490
 2477ntf    on516091   1.055   6.374   3.536  0.6058 -0.3345 -0.5498
 2477ntf    on516092   1.032   6.158   3.653 -0.0504 -0.0306 -0.0920
 2477ntf    fn416093   0.759   6.154   3.549 -0.2037 -0.3943 -0.1860
 2477ntf    fn416094   0.778   6.313   3.681  0.0554 -0.8500  0.1429
 2477ntf    fn416095   0.772   6.353   3.471 -0.3650  0.3869  0.6617
 2478ntf    cn116096   6.822   4.959   6.020  0.3764 -0.0333 -0.6432
 2478ntf    sn216097   6.692   5.085   6.010  0.1909 -0.1444  0.2426
 2478ntf    nn316098   6.729   5.185   6.125 -0.1647 -0.5500  0.7087
 2478ntf    sn216099   6.626   5.243   6.228 -0.5107  0.1389 -0.0190
 2478ntf    cn116100   6.691   5.410   6.259 -0.0880  0.0724 -0.5280
 2478ntf    fn416101   6.939   4.993   6.071  0.0432  0.1207  0.0329
 2478ntf    fn416102   6.773   4.859   6.092 -0.2600  0.3439 -0.5479
 2478ntf    fn416103   6.849   4.907   5.901  0.4583 -0.1791 -0.5618
 2478ntf    on516104   6.722   5.138   5.879 -0.2941 -0.0475  0.1686
 2478ntf    on516105   6.576   5.002   6.030 -0.2293  0.4484  0.3088
 2478ntf    on516106   6.623   5.185   6.360 -0.1334  0.0256 -0.0583
 2478ntf    on516107   6.498   5.275   6.170 -0.0885  0.3234 -0.8603
 2478ntf    fn416108   6.612   5.492   6.327 -0.4960 -0.5094 -0.2931
 2478ntf    fn416109   6.806   5.417   6.325 -0.7496  0.0736  0.6524
 2478ntf    fn416110   6.702   5.474   6.144  0.3888 -0.1470 -0.6066
 2479ntf    cn116111   2.217   1.654   4.133  0.4914 -0.4056  0.1353
 2479ntf    sn216112   2.309   1.808   4.162  0.0238 -0.0191 -0.4125
 2479ntf    nn316113   2.191   1.911   4.162 -0.0907 -0.1494 -0.2418
 2479ntf    sn216114   2.142   2.007   4.048  0.2750  0.4817  0.1253
 2479ntf    cn116115   2.002   2.099   4.118  0.2841  0.3689  0.2912
 2479ntf    fn416116   2.290   1.547   4.103  0.5113 -0.3815  0.0966
 2479ntf    fn416117   2.148   1.611   4.237  0.1939 -0.0700  0.0759
 2479ntf    fn416118   2.136   1.667   4.029  0.2545  0.4192  0.4195
 2479ntf    on516119   2.363   1.789   4.294 -0.5746  0.6770 -0.0649
 2479ntf    on516120   2.401   1.818   4.051 -0.0237  0.1711 -0.4346
 2479ntf    on516121   2.094   1.941   3.929  0.2820  0.2963  0.2265
 2479ntf    on516122   2.231   2.117   4.017 -0.0017  0.6593 -0.0459
 2479ntf    fn416123   1.930   2.168   4.030 -0.0029 -0.2378  0.0413
 2479ntf    fn416124   1.910   2.017   4.167  0.1838  0.0556 -0.3941
 2479ntf    fn416125   2.038   2.183   4.213  0.3339  0.2088  0.4141
 2480ntf    cn116126   2.247   3.231   0.323  0.0317  0.2789  0.1719
 2480ntf    sn216127   2.141   3.239   0.175 -0.0059  0.1214  0.1900
 2480ntf    nn316128   2.252   3.197   0.072 -0.4998 -0.5216 -0.0899
 2480ntf    sn216129   2.283   3.252  -0.071  0.2298 -0.1046  0.2231
 2480ntf    cn116130   2.432   3.352  -0.039 -0.0462  0.6243 -0.7114
 2480ntf    fn416131   2.180   3.186   0.428 -0.5230  0.2480 -0.1894
 2480ntf    fn416132   2.349   3.148   0.310 -0.2806 -0.1843  0.6391
 2480ntf    fn416133   2.304   3.349   0.342  0.1112  0.3163 -0.2788
 2480ntf    on516134   2.037   3.139   0.189 -0.2054  0.2742 -0.1910
 2480ntf    on516135   2.104   3.378   0.172 -0.5612 -0.0110  0.6599
 2480ntf    on516136   2.196   3.356  -0.121 -0.0655 -0.1338  0.6771
 2480ntf    on516137   2.324   3.145  -0.159  0.0733  0.1024 -0.1041
 2480ntf    fn416138   2.541   3.280  -0.020 -0.4907  0.1561  0.1363
 2480ntf    fn416139   2.454   3.432  -0.142  0.3762 -0.2496 -1.3098
 2480ntf    fn416140   2.412   3.427   0.068  0.6269 -0.2824  0.0684
 2481ntf    cn116141   4.433   6.441   0.355  0.2186  0.2058 -0.0585
 2481ntf    sn216142   4.287   6.434   0.247 -0.0299  0.0609  0.2832
 2481ntf    nn316143   4.178   6.426   0.359  0.4907  0.2543  0.8075
 2481ntf    sn216144   4.094   6.545   0.416 -0.0205  0.3272 -0.0973
 2481ntf    cn116145   3.998   6.608   0.274 -0.0602 -0.2049 -0.3077
 2481ntf    fn416146   4.409   6.521   0.458 -0.0849 -0.0782  0.0922
 2481ntf    fn416147   4.484   6.327   0.399 -0.1171  0.0383 -0.1017
 2481ntf    fn416148   4.530   6.496   0.284 -0.0336  0.1028 -0.4820
 2481ntf    on516149   4.289   6.556   0.170  0.3190 -0.3695 -0.3934
 2481ntf    on516150   4.302   6.314   0.169  0.5093  0.6881 -0.6025
 2481ntf    on516151   4.167   6.659   0.464  0.7338  0.1154 -0.7269
 2481ntf    on516152   3.996   6.492   0.508 -0.0180  0.1298 -0.2093
 2481ntf    fn416153   3.870   6.605   0.306  0.0956 -0.4449  0.3165
 2481ntf    fn416154   4.034   6.732   0.247  0.4266 -0.1869  0.3781
 2481ntf    fn416155   4.011   6.528   0.169  0.2891 -0.1889 -0.2800
 2482ntf    cn116156   6.166   2.397   6.287  0.0609  0.1175  0.0501
 2482ntf    sn216157   6.192   2.351   6.113  0.0635 -0.1372  0.1179
 2482ntf    nn316158   6.320   2.263   6.133 -0.1334 -0.4110  0.1874
 2482ntf    sn216159   6.473   2.300   6.128 -0.1956 -0.1765 -0.0254
 2482ntf    cn116160   6.508   2.234   5.962 -0.0017  0.0951 -0.0925
 2482ntf    fn416161   6.040   2.383   6.326  0.0425  0.0920 -0.0209
 2482ntf    fn416162   6.250   2.346   6.376  0.0562 -0.1956 -0.1235
 2482ntf    fn416163   6.172   2.528   6.307  0.0298  0.0431  0.5719
 2482ntf    on516164   6.081   2.260   6.095 -0.5141  0.4676  0.5717
 2482ntf    on516165   6.203   2.468   6.030 -0.9996  0.0434  0.2092
 2482ntf    on516166   6.551   2.213   6.213 -0.1504  0.0274  0.1413
 2482ntf    on516167   6.500   2.441   6.124  0.2423 -0.2591  0.0515
 2482ntf    fn416168   6.441   2.121   5.946  0.0818  0.0545 -0.1550
 2482ntf    fn416169   6.461   2.314   5.868  0.1974  0.5326  0.1755
 2482ntf    fn416170   6.631   2.213   5.920 -0.3238 -0.5233 -0.7515
 2483ntf    cn116171   6.018   4.442   1.678 -0.1607  0.1176  0.2875
 2483ntf    sn216172   6.042   4.282   1.760 -0.1863  0.0707  0.2048
 2483ntf    nn316173   6.027   4.192   1.632 -0.1461 -0.2137  0.3997
 2483ntf    sn216174   5.897   4.115   1.590  0.1086 -0.2563 -0.3244
 2483ntf    cn116175   5.946   4.062   1.423 -0.2793 -0.4458 -0.3802
 2483ntf    fn416176   6.117   4.484   1.601 -0.6435  0.0257 -0.4013
 2483ntf    fn416177   5.910   4.446   1.601  0.5930  0.0829 -0.7940
 2483ntf    fn416178   5.999   4.536   1.770  0.6156  0.9236 -0.3594
 2483ntf    on516179   6.181   4.285   1.797 -0.2098  0.2836  0.2737
 2483ntf    on516180   5.944   4.264   1.864  0.2030 -0.4952  0.4792
 2483ntf    on516181   5.788   4.209   1.579  0.3154 -0.0413 -0.5396
 2483ntf    on516182   5.873   3.984   1.647 -0.2748 -0.1440 -0.2210
 2483ntf    fn416183   5.866   3.971   1.370 -0.6138 -0.2404 -0.2363
 2483ntf    fn416184   5.944   4.166   1.341  0.2580  0.2133  0.4305
 2483ntf    fn416185   6.070   4.016   1.422 -0.0613  0.1208 -0.0697
 2484ntf    cn116186   5.458   1.250   5.164  0.4147 -0.2128 -0.2677
 2484ntf    sn216187   5.516   1.220   4.995  0.5259 -0.1143 -0.2470
 2484ntf    nn316188   5.458   1.346   4.921  0.8042  0.0803 -0.1321
 2484ntf    sn216189   5.371   1.348   4.791  0.4955 -0.0022  0.0731
 2484ntf    cn116190   5.235   1.233   4.829  0.2500  0.0606 -0.5988
 2484ntf    fn416191   5.328   1.229   5.177  0.4513 -0.3491 -0.1149
 2484ntf    fn416192   5.520   1.173   5.252  0.2224 -0.2914 -0.1995
 2484ntf    fn416193   5.487   1.373   5.204 -0.2860 -0.3142  0.5889
 2484ntf    on516194   5.660   1.221   5.008  0.4913  0.4834  0.0994
 2484ntf    on516195   5.460   1.095   4.949 -0.0474  0.0108  0.1035
 2484ntf    on516196   5.439   1.290   4.678  0.1169  0.0032 -0.1600
 2484ntf    on516197   5.315   1.478   4.761  0.1022 -0.2228 -0.1667
 2484ntf    fn416198   5.195   1.242   4.955  0.2298  0.1401 -0.6114
 2484ntf    fn416199   5.125   1.256   4.760 -0.2906 -0.1794  0.1718
 2484ntf    fn416200   5.266   1.108   4.800  0.0124 -0.4509  1.2071
 2485ntf    cn116201   0.418   6.077   6.791  0.0260 -0.0764  0.0698
 2485ntf    sn216202   0.400   6.044   6.969 -0.1049  0.0041  0.0713
 2485ntf    nn316203   0.492   6.158   7.026 -0.0004 -0.1423  0.1989
 2485ntf    sn216204   0.632   6.132   7.091  0.0049 -0.4026  0.0843
 2485ntf    cn116205   0.580   6.088   7.260 -0.0458 -0.4612  0.0535
 2485ntf    fn416206   0.545   6.066   6.755  0.2371  0.1142  0.7501
 2485ntf    fn416207   0.360   5.984   6.716 -0.2025 -0.1505  0.3379
 2485ntf    fn416208   0.367   6.193   6.755  0.2062  0.2003  0.6909
 2485ntf    on516209   0.260   6.070   6.989 -0.1262  0.2917 -0.4347
 2485ntf    on516210   0.444   5.907   6.978 -0.1626 -0.0178  0.0196
 2485ntf    on516211   0.713   6.249   7.114  0.2722 -0.6261  0.2884
 2485ntf    on516212   0.705   6.015   7.051 -0.1566 -0.5225  0.1383
 2485ntf    fn416213   0.555   6.200   7.327 -0.3986 -0.2259 -0.4620
 2485ntf    fn416214   0.471   6.013   7.260  0.1585 -0.7576  0.0505
 2485ntf    fn416215   0.671   6.016   7.323  0.3026  0.1139  0.2248
 2486ntf    cn116216   5.345   6.806   5.164  0.1432  0.0157 -0.3388
 2486ntf    sn216217   5.164   6.807   5.169  0.1504 -0.5911  0.0878
 2486ntf    nn316218   5.131   6.694   5.274 -0.3489 -0.6193 -0.0974
 2486ntf    sn216219   5.099   6.707   5.427 -0.4425 -0.3557 -0.1377
 2486ntf    cn116220   5.249   6.622   5.486 -0.0339  0.3924 -0.0825
 2486ntf    fn416221   5.393   6.683   5.158 -0.1506 -0.1569  0.7170
 2486ntf    fn416222   5.407   6.878   5.072  0.2199  0.1183 -0.2088
 2486ntf    fn416223   5.393   6.838   5.283  0.1012 -0.3733 -0.2192
 2486ntf    on516224   5.127   6.938   5.216  0.7995 -0.2976 -0.2156
 2486ntf    on516225   5.140   6.770   5.032  0.1942  0.5925 -0.2460
 2486ntf    on516226   4.994   6.618   5.469 -0.3495 -0.0538  0.7581
 2486ntf    on516227   5.103   6.839   5.485 -0.4187 -0.8743  1.0826
 2486ntf    fn416228   5.360   6.689   5.461  0.1574  0.0604 -0.1237
 2486ntf    fn416229   5.244   6.609   5.617 -0.3024  0.1606 -0.1151
 2486ntf    fn416230   5.256   6.499   5.439  0.2530  0.5098 -0.3551
 2487ntf    cn116231   5.032   3.501   0.145 -0.4183 -0.4391  0.1561
 2487ntf    sn216232   4.854   3.535   0.152 -0.2681  0.4498 -0.2202
 2487ntf    nn316233   4.796   3.448   0.036  0.0641  0.0450 -0.0861
 2487ntf    sn216234   4.650   3.389   0.027 -0.0565  0.3037  0.1979
 2487ntf    cn116235   4.683   3.213   0.056 -0.2963  0.1972 -0.1735
 2487ntf    fn416236   5.080   3.379   0.168  0.2041 -0.0804  0.8336
 2487ntf    fn416237   5.079   3.544   0.030  0.0813  0.0589  0.5409
 2487ntf    fn416238   5.098   3.574   0.234  0.3442 -0.2706 -0.5418
 2487ntf    on516239   4.827   3.484   0.284 -0.0158  0.0150 -0.3351
 2487ntf    on516240   4.856   3.678   0.137  0.1845  0.4765  0.0760
 2487ntf    on516241   4.613   3.389  -0.112  0.0277  0.1305  0.1755
 2487ntf    on516242   4.555   3.423   0.130  0.2358 -0.9202  0.8950
 2487ntf    fn416243   4.580   3.138   0.018 -0.0901 -0.1452 -0.0626
 2487ntf    fn416244   4.786   3.159  -0.006 -0.3335  0.3193 -0.3397
 2487ntf    fn416245   4.705   3.191   0.185  0.3578  0.6820 -0.2009
 2488ntf    cn116246   1.305   1.624   3.154  0.0304  0.0524 -0.0329
 2488ntf    sn216247   1.333   1.458   3.085  0.4281  0.0643  0.1005
 2488ntf    nn316248   1.468   1.409   3.147  0.1053  0.4000  1.0823
 2488ntf    sn216249   1.611   1.393   3.083 -0.3049  0.1195  0.2289
 2488ntf    cn116250   1.691   1.536   3.160  0.0316  0.1138 -0.1069
 2488ntf    fn416251   1.416   1.694   3.141  0.3402 -0.5281 -0.5673
 2488ntf    fn416252   1.209   1.695   3.096 -0.1309 -0.1788 -0.0490
 2488ntf    fn416253   1.277   1.622   3.283 -0.0419  0.3172 -0.0427
 2488ntf    on516254   1.222   1.378   3.128  0.0030  0.8347  0.4555
 2488ntf    on516255   1.343   1.485   2.943  0.2297  0.2325  0.1177
 2488ntf    on516256   1.618   1.402   2.939 -0.0462 -0.1197  0.2270
 2488ntf    on516257   1.670   1.278   3.147 -0.2235  0.2834  0.4508
 2488ntf    fn416258   1.821   1.541   3.138  0.0748 -0.6857 -0.0305
 2488ntf    fn416259   1.653   1.654   3.113 -0.3920  0.2426  0.5357
 2488ntf    fn416260   1.673   1.546   3.291 -0.1003  0.2075 -0.1320
 2489ntf    cn116261   1.743   2.075   3.488 -0.0584 -0.1323  0.3781
 2489ntf    sn216262   1.615   1.948   3.507  0.0628 -0.2628  0.3268
 2489ntf    nn316263   1.674   1.873   3.632  0.6062 -0.0079  0.2245
 2489ntf    sn216264   1.638   1.910   3.780 -0.2277 -0.0206  0.0316
 2489ntf    cn116265   1.493   1.811   3.827 -0.1892 -0.0522  0.0836
 2489ntf    fn416266   1.726   2.154   3.383 -0.0772 -0.5448  0.0698
 2489ntf    fn416267   1.761   2.161   3.587 -0.3120  0.0515  0.2668
 2489ntf    fn416268   1.863   2.023   3.468 -0.1242 -0.1820  0.1023
 2489ntf    on516269   1.498   2.029   3.533  0.3619  0.3151 -0.1133
 2489ntf    on516270   1.613   1.873   3.384  0.0705  0.0062  0.1630
 2489ntf    on516271   1.600   2.048   3.800  0.8262  0.3008 -0.1395
 2489ntf    on516272   1.743   1.859   3.865 -0.0568 -0.1626 -0.2651
 2489ntf    fn416273   1.516   1.681   3.838 -0.4338 -0.0991  0.0359
 2489ntf    fn416274   1.446   1.840   3.947 -0.0071  0.1052  0.1173
 2489ntf    fn416275   1.394   1.822   3.740 -0.0851 -0.6194 -0.1145
 2490ntf    cn116276   3.996   0.454   2.497  0.0722 -0.1492 -0.2258
 2490ntf    sn216277   3.925   0.598   2.583 -0.1953 -0.2370 -0.2990
 2490ntf    nn316278   3.839   0.535   2.699  0.3353 -0.0703  0.1898
 2490ntf    sn216279   3.685   0.505   2.691  0.2776  0.2743 -0.0466
 2490ntf    cn116280   3.614   0.666   2.736 -0.1081  0.1881 -0.3485
 2490ntf    fn416281   4.052   0.497   2.386  0.1231 -0.0863 -0.1757
 2490ntf    fn416282   4.074   0.384   2.578  0.0658  0.0990 -0.0022
 2490ntf    fn416283   3.909   0.359   2.464 -0.1363 -0.1377  0.2686
 2490ntf    on516284   4.033   0.666   2.650 -0.5682  0.3766 -0.3117
 2490ntf    on516285   3.860   0.678   2.483  0.0409  0.5312  0.1546
 2490ntf    on516286   3.638   0.410   2.789 -0.2359  0.5685 -0.0077
 2490ntf    on516287   3.630   0.491   2.559  0.2327 -0.0586  0.0046
 2490ntf    fn416288   3.482   0.668   2.731 -0.1601 -0.2547  0.6046
 2490ntf    fn416289   3.656   0.704   2.855 -0.0183 -0.0463 -0.3034
 2490ntf    fn416290   3.664   0.755   2.652  0.3970  0.0446 -0.2037
 2491ntf    cn116291   0.110   2.324   6.834 -0.2427  0.0088 -0.3830
 2491ntf    sn216292   0.210   2.291   6.685 -0.0737  0.2696 -0.3285
 2491ntf    nn316293   0.103   2.332   6.577 -0.2117 -0.1483 -0.3528
 2491ntf    sn216294   0.071   2.479   6.531 -0.0096 -0.0531 -0.1948
 2491ntf    cn116295   0.169   2.479   6.378 -0.3053 -0.3426 -0.3859
 2491ntf    fn416296   0.160   2.275   6.947 -0.6078 -0.5154 -0.4463
 2491ntf    fn416297   0.094   2.453   6.859  0.0636  0.0672 -0.4821
 2491ntf    fn416298  -0.011   2.271   6.824 -0.2158 -0.1290  0.0133
 2491ntf    on516299   0.333   2.366   6.694 -0.1242  0.2606  0.5735
 2491ntf    on516300   0.218   2.148   6.673  0.9577  0.3383 -0.5521
 2491ntf    on516301   0.115   2.579   6.624 -0.1945  0.5949 -0.7978
 2491ntf    on516302  -0.069   2.490   6.495  0.0795  0.1835 -0.4641
 2491ntf    fn416303   0.281   2.409   6.388 -0.1671 -0.0926 -0.1670
 2491ntf    fn416304   0.101   2.429   6.276 -0.6937 -0.2726 -0.1631
 2491ntf    fn416305   0.205   2.601   6.344  0.4422 -0.5532 -0.3691
 2492ntf    cn116306   4.414   0.832   0.405  0.6054  0.2853  0.3567
 2492ntf    sn216307   4.277   0.744   0.487  0.1181  0.2798 -0.4555
 2492ntf    nn316308   4.165   0.850   0.458 -0.0457  0.0896 -0.5173
 2492ntf    sn216309   4.069   0.927   0.556  0.0636 -0.3439 -0.0689
 2492ntf    cn116310   3.951   0.980   0.429  0.0938 -0.2203 -0.0453
 2492ntf    fn416311   4.397   0.823   0.274 -0.3079 -0.1810  0.5018
 2492ntf    fn416312   4.419   0.962   0.429 -0.2825  0.4875 -0.4929
 2492ntf    fn416313   4.529   0.781   0.448  0.9559  0.6239 -0.1658
 2492ntf    on516314   4.268   0.619   0.415 -0.0211  0.0817 -0.0918
 2492ntf    on516315   4.321   0.745   0.624 -0.1377  0.2144 -0.3729
 2492ntf    on516316   4.123   1.048   0.614 -0.5686 -0.3199  0.4737
 2492ntf    on516317   3.977   0.854   0.639 -0.3579 -0.1152 -0.3320
 2492ntf    fn416318   4.004   1.064   0.341  0.5890 -0.1531  0.3124
 2492ntf    fn416319   3.908   0.874   0.364  0.3044 -0.0906 -0.3967
 2492ntf    fn416320   3.847   1.043   0.483  0.1257 -0.1871 -0.0224
 2493ntf    cn116321   5.976   4.687   3.149 -0.2210  0.2403  0.2499
 2493ntf    sn216322   6.120   4.732   3.251  0.0452  0.1085 -0.0680
 2493ntf    nn316323   6.039   4.761   3.383 -0.1000 -0.4056 -0.0385
 2493ntf    sn216324   5.969   4.895   3.427  0.0548 -0.3306 -0.0157
 2493ntf    cn116325   5.795   4.842   3.439 -0.1817  0.4558  0.0986
 2493ntf    fn416326   5.991   4.627   3.033 -0.2288  0.2935  0.2210
 2493ntf    fn416327   5.899   4.614   3.228 -0.3718  0.2461  0.1098
 2493ntf    fn416328   5.911   4.802   3.135  0.3474  0.5350  0.0066
 2493ntf    on516329   6.193   4.608   3.253 -0.1601 -0.0081  0.3007
 2493ntf    on516330   6.177   4.839   3.174 -0.9491  0.5024 -0.2679
 2493ntf    on516331   5.959   5.002   3.331  0.3885 -0.2328  0.0586
 2493ntf    on516332   5.996   4.938   3.561 -0.1455 -0.5519  0.0973
 2493ntf    fn416333   5.773   4.743   3.525  0.3841 -0.1008 -0.3829
 2493ntf    fn416334   5.719   4.942   3.481  0.2211  0.6907  0.2737
 2493ntf    fn416335   5.741   4.800   3.326  0.2256  1.1075 -0.3437
 2494ntf    cn116336   2.559   4.750   6.447  0.2173  0.0051  0.1925
 2494ntf    sn216337   2.406   4.846   6.468  0.1184 -0.0885 -0.0892
 2494ntf    nn316338   2.328   4.813   6.336  0.2080 -0.3795 -0.0700
 2494ntf    sn216339   2.214   4.707   6.316  0.1166 -0.2396 -0.2926
 2494ntf    cn116340   2.074   4.814   6.359  0.5154  0.3517 -0.4465
 2494ntf    fn416341   2.531   4.622   6.431 -0.3197  0.1577 -0.1098
 2494ntf    fn416342   2.630   4.776   6.339 -0.3958  0.0001 -0.2158
 2494ntf    fn416343   2.633   4.760   6.556 -0.3234 -0.6366  0.6296
 2494ntf    on516344   2.349   4.789   6.588 -0.5310  0.3323 -0.1954
 2494ntf    on516345   2.453   4.983   6.465 -0.1175 -0.0230 -0.8147
 2494ntf    on516346   2.203   4.601   6.413 -0.1641 -0.0333 -0.0985
 2494ntf    on516347   2.178   4.680   6.179 -0.3045 -0.2192 -0.1868
 2494ntf    fn416348   1.967   4.737   6.372  0.6183  0.2680 -0.0835
 2494ntf    fn416349   2.090   4.869   6.479 -0.4178 -0.4360  0.0578
 2494ntf    fn416350   2.050   4.914   6.277 -0.0028  0.4215 -0.2170
 2495ntf    cn116351   1.431   3.511   1.390  0.0389 -0.2451  0.4081
 2495ntf    sn216352   1.540   3.434   1.513  0.4671  0.2161  0.3188
 2495ntf    nn316353   1.545   3.548   1.621  0.4638 -0.0902  0.6432
 2495ntf    sn216354   1.478   3.533   1.762 -0.3001 -0.7429  0.2201
 2495ntf    cn116355   1.592   3.644   1.851 -0.3393 -0.1387 -0.4777
 2495ntf    fn416356   1.480   3.628   1.352 -0.4131 -0.2686 -0.2733
 2495ntf    fn416357   1.404   3.434   1.286  0.2486  0.1963  0.0231
 2495ntf    fn416358   1.313   3.545   1.439 -0.0883 -0.0340 -0.0341
 2495ntf    on516359   1.460   3.322   1.554  0.0572  0.3487 -0.1095
 2495ntf    on516360   1.654   3.404   1.430 -0.0161  0.5147 -0.4630
 2495ntf    on516361   1.492   3.403   1.822  0.2125 -0.5567  0.5156
 2495ntf    on516362   1.352   3.599   1.786  0.0495 -0.0642  0.1976
 2495ntf    fn416363   1.539   3.668   1.970  0.5549 -0.1970 -0.0627
 2495ntf    fn416364   1.712   3.592   1.871 -0.2402  0.4809  0.6163
 2495ntf    fn416365   1.613   3.760   1.792  0.1853  0.1879  0.3410
 2496ntf    cn116366   4.548   1.737   5.226  0.1451  0.0678  0.3398
 2496ntf    sn216367   4.490   1.589   5.314  0.5115 -0.3523 -0.1181
 2496ntf    nn316368   4.622   1.513   5.351  0.3078 -0.3888  0.5519
 2496ntf    sn216369   4.701   1.397   5.281  0.0721 -0.1128 -0.1762
 2496ntf    cn116370   4.866   1.453   5.332 -0.0631 -0.1067  0.2619
 2496ntf    fn416371   4.599   1.823   5.313  0.3226  0.1063  0.1978
 2496ntf    fn416372   4.643   1.702   5.140  0.2350 -0.7670  0.7735
 2496ntf    fn416373   4.446   1.788   5.159  0.1665 -0.0383  0.2262
 2496ntf    on516374   4.435   1.651   5.432 -0.2941 -0.0413 -0.6481
 2496ntf    on516375   4.395   1.536   5.220  0.1881  0.2996 -0.1684
 2496ntf    on516376   4.713   1.417   5.138  1.3978  0.7657  0.0438
 2496ntf    on516377   4.679   1.267   5.340 -0.1134 -0.3809 -0.8224
 2496ntf    fn416378   4.965   1.405   5.257 -0.6961  0.1716 -0.7728
 2496ntf    fn416379   4.878   1.584   5.323  0.0548 -0.1399 -0.1172
 2496ntf    fn416380   4.893   1.414   5.455  0.1788 -0.1268  0.2041
 2497ntf    cn116381   5.022   4.846   5.465  0.0797 -0.0515  0.1865
 2497ntf    sn216382   5.013   4.913   5.634 -0.0531  0.1713  0.0904
 2497ntf    nn316383   4.876   4.990   5.627 -0.3635 -0.3428  0.4264
 2497ntf    sn216384   4.728   4.938   5.629 -0.3760 -0.3213  0.0968
 2497ntf    cn116385   4.689   4.977   5.802 -0.1978  0.2167  0.0193
 2497ntf    fn416386   4.982   4.936   5.377  0.6871 -0.0594 -0.0977
 2497ntf    fn416387   5.145   4.799   5.448  0.0274 -0.2430  0.3213
 2497ntf    fn416388   4.935   4.748   5.446  0.6688 -0.5455 -0.0054
 2497ntf    on516389   5.015   4.799   5.722 -0.2010  0.4625  0.4733
 2497ntf    on516390   5.120   5.010   5.626  0.0499  0.0583  0.1040
 2497ntf    on516391   4.703   4.797   5.614  0.3450 -0.3971 -0.4962
 2497ntf    on516392   4.642   5.019   5.547 -0.3752 -0.1571  0.2575
 2497ntf    fn416393   4.573   4.923   5.835  0.2090 -0.2510  0.7317
 2497ntf    fn416394   4.773   4.923   5.890  0.3972 -0.1825 -0.7822
 2497ntf    fn416395   4.682   5.105   5.834 -0.0563  0.0798  0.6231
 2498ntf    cn116396   5.769   0.348   3.422  0.2278  0.2623  0.0171
 2498ntf    sn216397   5.701   0.496   3.342  0.0419  0.2424  0.1375
 2498ntf    nn316398   5.718   0.481   3.187  0.4399  0.9024  0.1135
 2498ntf    sn216399   5.831   0.410   3.104 -0.0411  0.2680 -0.0080
 2498ntf    cn116400   5.908   0.544   3.008  0.3226 -0.1678 -0.3321
 2498ntf    fn416401   5.736   0.231   3.369  0.2587  0.0368  0.4835
 2498ntf    fn416402   5.901   0.354   3.412  0.2997 -0.0996  0.6868
 2498ntf    fn416403   5.750   0.342   3.553  0.1184  0.2558  0.0007
 2498ntf    on516404   5.561   0.489   3.376 -0.0828  0.5852 -0.2957
 2498ntf    on516405   5.773   0.607   3.399 -0.1147  0.1544  0.5073
 2498ntf    on516406   5.778   0.318   3.006  0.0715 -0.0693  0.2451
 2498ntf    on516407   5.946   0.357   3.174  0.1009 -0.1858 -0.5730
 2498ntf    fn416408   5.944   0.647   3.084 -0.6964  0.0600 -0.1460
 2498ntf    fn416409   6.014   0.501   2.943  0.1511  0.5726 -1.1121
 2498ntf    fn416410   5.826   0.588   2.914  0.3886 -0.0904 -0.3535
 2499ntf    cn116411   0.292   2.130   3.945  0.1984  0.3091 -0.1121
 2499ntf    sn216412   0.112   2.153   3.956  0.1851  0.1546 -0.0068
 2499ntf    nn316413   0.071   2.006   3.922 -0.2760  0.2824 -0.0104
 2499ntf    sn216414   0.039   1.897   4.031 -0.0358  0.0420 -0.1777
 2499ntf    cn116415   0.127   1.752   3.968 -0.2511 -0.1989  0.0716
 2499ntf    fn416416   0.355   2.244   3.969 -0.0043  0.2793  0.5767
 2499ntf    fn416417   0.343   2.041   4.027 -0.3833  0.2980  0.2482
 2499ntf    fn416418   0.318   2.098   3.819  0.3724  0.3094 -0.0765
 2499ntf    on516419   0.082   2.194   4.091  0.6685  0.2522  0.0712
 2499ntf    on516420   0.088   2.240   3.843  0.4723 -0.2401 -0.3746
 2499ntf    on516421  -0.099   1.857   4.042 -0.1919  0.6312  0.0704
 2499ntf    on516422   0.107   1.910   4.157  0.2503  0.3149 -0.3597
 2499ntf    fn416423   0.090   1.637   4.022 -0.3876 -0.3254 -0.2865
 2499ntf    fn416424   0.109   1.730   3.838  0.4383  0.3572 -0.1235
 2499ntf    fn416425   0.257   1.763   3.985 -0.2874  0.2592  0.0531
 2500ntf    cn116426   4.358   0.941   2.096  0.0973  0.4433 -0.3074
 2500ntf    sn216427   4.311   0.879   1.932  0.2534  0.0135 -0.1904
 2500ntf    nn316428   4.350   0.728   1.947 -0.0421 -0.0692 -0.2418
 2500ntf    sn216429   4.459   0.637   1.879  0.2191  0.1052 -0.0569
 2500ntf    cn116430   4.508   0.530   2.017  0.0005  0.0402 -0.0293
 2500ntf    fn416431   4.291   0.883   2.194  0.8811  0.0271 -0.0110
 2500ntf    fn416432   4.484   0.920   2.130 -0.0033  0.2119 -0.0739
 2500ntf    fn416433   4.336   1.070   2.116 -0.1660  0.2323  0.8128
 2500ntf    on516434   4.169   0.901   1.917  0.3289  0.7323  0.1146
 2500ntf    on516435   4.388   0.966   1.847 -0.2421  0.1530 -0.5034
 2500ntf    on516436   4.583   0.698   1.838 -0.0766  0.5404 -0.3108
 2500ntf    on516437   4.403   0.545   1.783  0.1394  0.2426 -0.1428
 2500ntf    fn416438   4.556   0.414   1.974  0.3564 -0.1172  0.7775
 2500ntf    fn416439   4.614   0.568   2.087 -0.0575  0.0859  0.0331
 2500ntf    fn416440   4.407   0.501   2.097 -0.3644 -0.3665 -0.6250
 2501ntf    cn116441   3.490   6.325   2.297  0.0978 -0.2850  0.5797
 2501ntf    sn216442   3.653   6.403   2.320  0.0187  0.0618 -0.0063
 2501ntf    nn316443   3.732   6.370   2.189 -0.8641 -0.2117 -0.4813
 2501ntf    sn216444   3.746   6.438   2.049  0.0889  0.0771 -0.2555
 2501ntf    cn116445   3.894   6.543   2.058  0.1630 -0.0303 -0.2244
 2501ntf    fn416446   3.394   6.380   2.370 -0.0723 -0.1488  0.2550
 2501ntf    fn416447   3.449   6.339   2.172  0.1258  0.3005  0.6345
 2501ntf    fn416448   3.491   6.195   2.322  0.0769 -0.2153  0.9531
 2501ntf    on516449   3.626   6.545   2.322 -0.1986  0.0319 -0.7195
 2501ntf    on516450   3.698   6.339   2.442 -0.6998 -0.3366  0.0591
 2501ntf    on516451   3.637   6.529   2.024  0.1307  0.1898 -0.0211
 2501ntf    on516452   3.768   6.338   1.947 -0.1155 -0.5798  0.3408
 2501ntf    fn416453   3.900   6.630   1.958 -0.0806  0.1746 -0.0611
 2501ntf    fn416454   3.897   6.609   2.173  0.0264 -0.2817 -0.0749
 2501ntf    fn416455   4.002   6.467   2.052  0.2510  0.1009 -0.3179
 2502ntf    cn116456   1.302   4.009   6.675 -0.5888 -0.3064  0.1408
 2502ntf    sn216457   1.300   3.983   6.855  0.0725 -0.0574  0.1891
 2502ntf    nn316458   1.394   4.098   6.904  0.1801  0.0651 -0.3013
 2502ntf    sn216459   1.349   4.247   6.929 -0.1303 -0.0171 -0.3722
 2502ntf    cn116460   1.303   4.227   7.103  0.0740  0.2686 -0.2854
 2502ntf    fn416461   1.313   4.138   6.648  0.2138 -0.2778  0.5566
 2502ntf    fn416462   1.404   3.945   6.620 -0.5407 -0.6527  0.6319
 2502ntf    fn416463   1.190   3.971   6.617 -0.5072 -0.7102  0.2439
 2502ntf    on516464   1.160   3.988   6.890  0.0624  0.0561  0.1340
 2502ntf    on516465   1.365   3.856   6.874 -0.0875 -0.1835 -0.0958
 2502ntf    on516466   1.231   4.286   6.855 -0.0288 -0.2430 -0.6586
 2502ntf    on516467   1.464   4.333   6.935 -0.1949  0.0598 -0.2350
 2502ntf    fn416468   1.251   4.110   7.137 -0.1674  0.3404 -0.4097
 2502ntf    fn416469   1.409   4.232   7.183 -0.3152  0.4547  0.2306
 2502ntf    fn416470   1.218   4.320   7.143  0.0048 -0.1735  0.6389
 2503ntf    cn116471   0.057   6.389   4.798  0.0300 -0.0881 -0.3031
 2503ntf    sn216472   0.111   6.525   4.690 -0.1163  0.0500 -0.2035
 2503ntf    nn316473   0.179   6.445   4.573 -0.2130 -0.1835 -0.0994
 2503ntf    sn216474   0.120   6.423   4.429 -0.2580  0.1643 -0.1338
 2503ntf    cn116475   0.170   6.250   4.402 -0.6448 -0.0293  0.3900
 2503ntf    fn416476  -0.042   6.423   4.878  0.6960  0.0143  0.4887
 2503ntf    fn416477   0.000   6.292   4.727 -0.3681  0.0944 -0.2339
 2503ntf    fn416478   0.158   6.340   4.868 -0.5154 -0.1891  0.4199
 2503ntf    on516479  -0.011   6.596   4.664 -0.6715 -0.7890  0.0796
 2503ntf    on516480   0.205   6.583   4.783  0.3620 -0.3126 -0.4505
 2503ntf    on516481   0.191   6.506   4.335  0.3463  0.0656  0.2247
 2503ntf    on516482  -0.023   6.414   4.417 -0.2315 -0.1940 -0.1864
 2503ntf    fn416483   0.168   6.224   4.273 -0.6729  0.0111  0.3824
 2503ntf    fn416484   0.293   6.228   4.446 -0.3348 -0.0848 -0.5011
 2503ntf    fn416485   0.090   6.167   4.468 -0.5029 -0.1015  0.4705
 2504ntf    cn116486   5.565   4.665   4.204 -0.3373 -0.4254  0.0110
 2504ntf    sn216487   5.446   4.631   4.070 -0.4139  0.2473 -0.0932
 2504ntf    nn316488   5.558   4.588   3.970 -0.5444 -0.0040 -0.1328
 2504ntf    sn216489   5.614   4.446   3.933  0.0457  0.1600  0.1107
 2504ntf    cn116490   5.791   4.483   3.951 -0.0082  0.3562  0.2564
 2504ntf    fn416491   5.616   4.553   4.252  0.0555 -0.0204  0.5374
 2504ntf    fn416492   5.668   4.733   4.156 -0.6282  0.1637  0.2208
 2504ntf    fn416493   5.520   4.729   4.310  0.1994  0.4344 -0.2668
 2504ntf    on516494   5.352   4.530   4.111  0.1749 -0.2861 -0.0576
 2504ntf    on516495   5.397   4.764   4.040 -0.9039 -0.0420 -0.5913
 2504ntf    on516496   5.600   4.410   3.794  0.0480  0.3726  0.0553
 2504ntf    on516497   5.590   4.341   4.029  0.5963 -0.0317  0.0388
 2504ntf    fn416498   5.853   4.565   3.868  0.6168 -0.0736  0.2912
 2504ntf    fn416499   5.834   4.527   4.068  0.8932 -0.1127  0.1125
 2504ntf    fn416500   5.851   4.367   3.927 -0.5743  0.2130 -0.5485
 2505ntf    cn116501   6.561   5.661   4.283 -0.1525  0.1199  0.3730
 2505ntf    sn216502   6.450   5.517   4.282 -0.2303  0.1832 -0.0752
 2505ntf    nn316503   6.391   5.524   4.136  0.0529  0.0438 -0.1973
 2505ntf    sn216504   6.246   5.492   4.087 -0.0799  0.1018  0.1534
 2505ntf    cn116505   6.159   5.644   4.135 -0.2291 -0.0511  0.3708
 2505ntf    fn416506   6.609   5.708   4.397 -0.3766 -0.0213  0.5284
 2505ntf    fn416507   6.665   5.639   4.206 -0.5409 -0.2100 -0.0635
 2505ntf    fn416508   6.500   5.767   4.233 -0.6560 -0.1196  0.4714
 2505ntf    on516509   6.525   5.397   4.308 -0.5761  0.0236  0.1965
 2505ntf    on516510   6.353   5.559   4.381 -0.4820 -0.0430 -0.2226
 2505ntf    on516511   6.177   5.392   4.164 -0.0975 -0.1776 -0.2223
 2505ntf    on516512   6.225   5.485   3.944 -0.8157  0.4424  0.2390
 2505ntf    fn416513   6.040   5.646   4.077 -0.1660  0.3592  0.2497
 2505ntf    fn416514   6.138   5.661   4.264 -0.6251 -0.4355  0.3588
 2505ntf    fn416515   6.224   5.747   4.083 -0.0564 -0.2148  0.2615
 2506ntf    cn116516   1.248   4.468   3.120 -0.0734 -0.0139 -0.0001
 2506ntf    sn216517   1.093   4.465   3.214 -0.0004  0.1349  0.1285
 2506ntf    nn316518   1.070   4.311   3.237 -0.0645  0.1187 -0.0398
 2506ntf    sn216519   0.969   4.216   3.163 -0.0695  0.0309  0.0800
 2506ntf    cn116520   1.092   4.092   3.110 -0.0201  0.2002 -0.2056
 2506ntf    fn416521   1.276   4.592   3.081  0.0448 -0.0799 -0.1219
 2506ntf    fn416522   1.347   4.421   3.195  0.3386 -0.3391 -0.7352
 2506ntf    fn416523   1.242   4.399   3.008  0.3432 -0.1533  0.0627
 2506ntf    on516524   1.128   4.534   3.336  0.4604  0.1034  0.0142
 2506ntf    on516525   0.997   4.519   3.121  0.0433 -0.3078 -0.1790
 2506ntf    on516526   0.902   4.253   3.041 -0.0074 -0.1035  0.0045
 2506ntf    on516527   0.882   4.153   3.259  0.5736  0.5263  1.0001
 2506ntf    fn416528   1.039   3.990   3.045  0.0336 -0.0509  0.1367
 2506ntf    fn416529   1.180   4.145   3.027  0.6240 -0.6427 -0.0788
 2506ntf    fn416530   1.164   4.050   3.212  0.0518 -0.4008 -0.5018
 2507ntf    cn116531   0.312   3.276   2.121 -0.2600  0.4411  0.2396
 2507ntf    sn216532   0.340   3.109   2.188 -0.2978  0.2208 -0.2916
 2507ntf    nn316533   0.464   3.070   2.100 -0.1808 -0.2090  0.0590
 2507ntf    sn216534   0.471   2.961   1.987 -0.0062 -0.2600  0.1180
 2507ntf    cn116535   0.399   3.040   1.840  0.2774  0.2236  0.2359
 2507ntf    fn416536   0.346   3.300   1.996  0.4367 -0.0646  0.3237
 2507ntf    fn416537   0.186   3.311   2.142 -0.4220  0.3894 -0.6307
 2507ntf    fn416538   0.383   3.370   2.182  0.3973 -0.0235  0.2052
 2507ntf    on516539   0.372   3.115   2.328 -0.3381  0.5103 -0.2951
 2507ntf    on516540   0.229   3.030   2.142 -0.1629  0.1633 -0.5225
 2507ntf    on516541   0.396   2.840   2.011 -0.2808 -0.0957  0.0992
 2507ntf    on516542   0.608   2.945   1.945 -0.2885 -0.3199 -0.8008
 2507ntf    fn416543   0.462   3.149   1.798  0.1577  0.2089  0.0144
 2507ntf    fn416544   0.397   2.953   1.740  0.4596  0.2813  0.1805
 2507ntf    fn416545   0.273   3.079   1.851  0.3020  0.4406 -0.2242
 2508ntf    cn116546   2.531   4.046   6.018 -0.3340  0.0023  0.0677
 2508ntf    sn216547   2.407   3.978   5.904 -0.1965 -0.1838  0.0274
 2508ntf    nn316548   2.479   3.860   5.829 -0.0061 -0.0446 -0.0110
 2508ntf    sn216549   2.466   3.839   5.674  0.1030  0.3591 -0.0760
 2508ntf    cn116550   2.489   3.659   5.664  0.2268  0.3530  0.3066
 2508ntf    fn416551   2.509   4.168   6.064  0.6957  0.2863 -0.1714
 2508ntf    fn416552   2.553   3.986   6.135 -0.0864 -0.3396 -0.1523
 2508ntf    fn416553   2.649   4.050   5.959 -0.6126 -0.5144 -0.5339
 2508ntf    on516554   2.296   3.936   5.986 -0.1108  0.5528  0.5383
 2508ntf    on516555   2.401   4.102   5.830  0.2447  0.0631  0.4026
 2508ntf    on516556   2.583   3.892   5.607  0.0822  0.2641 -0.1863
 2508ntf    on516557   2.336   3.863   5.616 -0.2536 -0.1751  0.4949
 2508ntf    fn416558   2.483   3.612   5.541 -0.2456  0.0034  0.4608
 2508ntf    fn416559   2.603   3.621   5.718  0.1330 -0.4167 -0.0293
 2508ntf    fn416560   2.393   3.603   5.736 -0.4412  0.3511 -0.5746
 2509ntf    cn116561   3.160   4.571   6.286 -0.2369 -0.1395 -0.0183
 2509ntf    sn216562   2.981   4.602   6.290 -0.1943  0.1127 -0.1098
 2509ntf    nn316563   2.973   4.741   6.216 -0.4633  0.3536  0.3672
 2509ntf    sn216564   2.933   4.775   6.068 -0.3210 -0.1635  0.2070
 2509ntf    cn116565   2.876   4.947   6.085 -0.4320 -0.2116  0.3223
 2509ntf    fn416566   3.184   4.446   6.322 -0.4765  0.0330  0.7464
 2509ntf    fn416567   3.208   4.582   6.163 -0.0116 -0.4302  0.0414
 2509ntf    fn416568   3.230   4.650   6.364 -0.2062 -0.2300  0.0463
 2509ntf    on516569   2.917   4.491   6.223  0.0744 -0.5533  0.7267
 2509ntf    on516570   2.961   4.605   6.433 -0.4308 -0.1711 -0.1349
 2509ntf    on516571   2.829   4.697   6.005 -0.0435 -0.3500 -0.0216
 2509ntf    on516572   3.048   4.793   5.983 -0.9831 -0.2002 -0.7062
 2509ntf    fn416573   2.835   4.988   5.966  0.1376 -0.4308  0.0489
 2509ntf    fn416574   2.772   4.952   6.166 -0.1686  0.2806  0.6352
 2509ntf    fn416575   2.963   5.032   6.136 -0.2945 -0.0472 -0.1817
 2510ntf    cn116576   3.886   2.970   4.972 -0.2679 -0.1355 -0.3398
 2510ntf    sn216577   3.963   2.990   4.808 -0.0724  0.0676 -0.2247
 2510ntf    nn316578   4.064   3.099   4.857  0.1865 -0.3101  0.0900
 2510ntf    sn216579   4.215   3.132   4.829  0.0477  0.1522 -0.1333
 2510ntf    cn116580   4.215   3.311   4.862 -0.5243  0.0959  0.1854
 2510ntf    fn416581   3.820   2.856   4.981  0.0325 -0.2779  0.1267
 2510ntf    fn416582   3.967   2.971   5.077 -0.1388  0.3042 -0.4405
 2510ntf    fn416583   3.806   3.073   4.996  0.2619  0.3369 -0.5737
 2510ntf    on516584   4.016   2.858   4.785  0.0901  0.0597  0.1858
 2510ntf    on516585   3.865   3.043   4.717 -0.1536  0.2952 -0.0062
 2510ntf    on516586   4.250   3.134   4.689 -0.4308  0.0879 -0.2553
 2510ntf    on516587   4.303   3.073   4.927 -0.3502 -0.1265  0.0591
 2510ntf    fn416588   4.337   3.363   4.864 -0.0784 -0.9160  0.4010
 2510ntf    fn416589   4.159   3.376   4.762 -0.8351 -0.6611 -0.1410
 2510ntf    fn416590   4.156   3.335   4.977 -0.1723 -0.4280  0.4848
 2511ntf    cn116591   4.113   5.194   3.710  0.6472 -0.0584  0.0331
 2511ntf    sn216592   4.141   5.313   3.575  0.4272 -0.0561 -0.0099
 2511ntf    nn316593   4.024   5.416   3.594  0.3144 -0.2329  0.2614
 2511ntf    sn216594   3.993   5.504   3.721 -0.0512 -0.0581  0.0524
 2511ntf    cn116595   3.902   5.648   3.657 -0.2859 -0.4311 -0.4698
 2511ntf    fn416596   4.198   5.093   3.706  0.9511  0.1973 -0.0730
 2511ntf    fn416597   4.128   5.256   3.826  0.5228 -0.1923  0.1209
 2511ntf    fn416598   3.994   5.136   3.709  0.5400  0.1642 -0.4641
 2511ntf    on516599   4.271   5.372   3.595  0.4656 -0.0614 -0.2432
 2511ntf    on516600   4.126   5.241   3.451 -0.4504 -0.5015  0.3418
 2511ntf    on516601   4.110   5.562   3.781 -0.2229  0.2270  0.1111
 2511ntf    on516602   3.886   5.450   3.801  0.1619 -0.3502  0.1421
 2511ntf    fn416603   3.793   5.628   3.586 -0.4930 -0.6086 -0.1032
 2511ntf    fn416604   3.862   5.711   3.767  0.7512  0.8004 -0.7737
 2511ntf    fn416605   3.981   5.731   3.591 -0.6303  0.4148  0.1554
 2512ntf    cn116606   2.851   0.570   0.019 -0.3789  0.0790 -0.0149
 2512ntf    sn216607   2.991   0.567   0.136 -0.1786 -0.0642 -0.2558
 2512ntf    nn316608   3.115   0.526   0.049  0.1982  0.1951  0.1598
 2512ntf    sn216609   3.204   0.613  -0.046  0.0876  0.0041 -0.1174
 2512ntf    cn116610   3.362   0.598   0.042  0.0555 -0.0975 -0.0761
 2512ntf    fn416611   2.838   0.453  -0.041  0.2551 -0.0662  0.1201
 2512ntf    fn416612   2.739   0.594   0.084 -0.4425 -0.0455 -0.0770
 2512ntf    fn416613   2.855   0.666  -0.072 -0.1133 -0.1233 -0.2210
 2512ntf    on516614   2.994   0.702   0.187  0.5791 -0.0154 -0.4257
 2512ntf    on516615   2.948   0.463   0.226  0.1059 -0.2101 -0.2881
 2512ntf    on516616   3.185   0.756  -0.055  0.7229  0.0810 -0.2822
 2512ntf    on516617   3.230   0.549  -0.173 -0.1535  0.2769 -0.3051
 2512ntf    fn416618   3.411   0.475   0.044 -0.1439 -0.1755 -0.0286
 2512ntf    fn416619   3.461   0.659  -0.022  0.1371  0.1596  0.2890
 2512ntf    fn416620   3.351   0.629   0.170  0.7916  0.3404 -0.1110
 2513ntf    cn116621   5.305   1.097   1.576  0.1909  0.2196 -0.0172
 2513ntf    sn216622   5.342   0.929   1.636  0.2274  0.2299 -0.0106
 2513ntf    nn316623   5.286   0.936   1.783 -0.4895 -0.1622 -0.2581
 2513ntf    sn216624   5.176   0.848   1.852 -0.1704  0.0123  0.4842
 2513ntf    cn116625   5.231   0.851   2.025  0.3424 -0.0153  0.3246
 2513ntf    fn416626   5.174   1.117   1.570  0.1542  0.1243  0.4127
 2513ntf    fn416627   5.358   1.183   1.662  0.2656  0.4888 -0.3318
 2513ntf    fn416628   5.350   1.129   1.456 -0.4887 -0.3005 -0.4170
 2513ntf    on516629   5.262   0.849   1.546 -0.3276  0.5049  0.2338
 2513ntf    on516630   5.485   0.919   1.629  0.2669  0.2528  0.6925
 2513ntf    on516631   5.188   0.708   1.817 -0.6164  0.1707 -0.3410
 2513ntf    on516632   5.048   0.914   1.851 -0.1951 -0.0376  0.3909
 2513ntf    fn416633   5.352   0.798   2.037  0.4507  0.2455  0.3972
 2513ntf    fn416634   5.228   0.974   2.074  0.8162  0.2356 -0.2602
 2513ntf    fn416635   5.155   0.788   2.114 -0.3101  0.5423  0.1695
 2514ntf    cn116636   2.444   6.616   5.577 -0.1196 -0.3543  0.2558
 2514ntf    sn216637   2.410   6.794   5.567 -0.1667 -0.3743  0.0258
 2514ntf    nn316638   2.554   6.854   5.588 -0.2691 -0.3272  0.6168
 2514ntf    sn216639   2.662   6.898   5.483 -0.6000 -0.6212  0.1475
 2514ntf    cn116640   2.613   7.072   5.470  0.2606 -0.3784  0.1097
 2514ntf    fn416641   2.536   6.593   5.669  0.6357  0.4605 -0.2819
 2514ntf    fn416642   2.330   6.553   5.600 -0.5356  0.4487  0.4371
 2514ntf    fn416643   2.493   6.570   5.463  0.1261 -0.3723  0.3695
 2514ntf    on516644   2.341   6.810   5.442 -0.7803  0.6551  0.4852
 2514ntf    on516645   2.327   6.820   5.682  0.0655 -0.4176  0.2037
 2514ntf    on516646   2.639   6.843   5.352  1.0722  0.2121 -0.5236
 2514ntf    on516647   2.797   6.900   5.535 -0.8259 -0.0235  0.7252
 2514ntf    fn416648   2.572   7.123   5.585  0.4703  0.5208 -0.2025
 2514ntf    fn416649   2.721   7.145   5.445  0.0987 -0.0452  0.3721
 2514ntf    fn416650   2.535   7.102   5.368  0.2343  0.3289  0.3304
 2515ntf    cn116651   6.762   0.775   0.749  0.2395  0.6097 -0.3556
 2515ntf    sn216652   6.848   0.637   0.667 -0.1436  0.1394  0.0241
 2515ntf    nn316653   6.767   0.510   0.710  0.0073  0.0142 -0.0576
 2515ntf    sn216654   6.633   0.460   0.645  0.1227  0.1219 -0.3794
 2515ntf    cn116655   6.533   0.449   0.796  0.2306 -0.2437 -0.3332
 2515ntf    fn416656   6.637   0.789   0.708  0.0757 -0.1086 -0.1188
 2515ntf    fn416657   6.742   0.758   0.879  0.0429  0.3102 -0.4229
 2515ntf    fn416658   6.818   0.893   0.729  0.1544  0.6199 -0.5350
 2515ntf    on516659   6.845   0.683   0.531 -0.0416 -0.2910 -0.1250
 2515ntf    on516660   6.974   0.650   0.737 -0.1174  0.6092 -0.1077
 2515ntf    on516661   6.640   0.325   0.596  0.4086 -0.0345  0.0820
 2515ntf    on516662   6.562   0.547   0.555 -0.0951  0.4687  0.1248
 2515ntf    fn416663   6.405   0.423   0.772  0.1525 -0.2579  0.0864
 2515ntf    fn416664   6.566   0.358   0.887  0.1942 -0.0086 -0.0842
 2515ntf    fn416665   6.527   0.565   0.859 -0.2715 -0.5333  0.1720
 2516ntf    cn116666   5.219   2.222   1.612  0.3661 -0.1106 -0.2090
 2516ntf    sn216667   5.143   2.086   1.519 -0.3098  0.1800 -0.0910
 2516ntf    nn316668   5.236   1.962   1.545 -0.3532  0.2485  0.3941
 2516ntf    sn216669   5.213   1.847   1.650 -0.0265 -0.1316  0.0567
 2516ntf    cn116670   5.167   1.714   1.536  0.0661  0.0067 -0.1430
 2516ntf    fn416671   5.161   2.339   1.592 -0.1195 -0.3492 -0.2062
 2516ntf    fn416672   5.215   2.198   1.742  0.0791 -0.4012 -0.2709
 2516ntf    fn416673   5.346   2.232   1.577  0.4724 -0.5894  0.0236
 2516ntf    on516674   5.016   2.081   1.586 -0.2148  0.1519  0.0880
 2516ntf    on516675   5.148   2.131   1.382  0.0333  0.5222  0.0317
 2516ntf    on516676   5.100   1.864   1.739  0.1192 -0.0716  0.2323
 2516ntf    on516677   5.340   1.820   1.713  0.0646 -0.8844 -0.4393
 2516ntf    fn416678   5.121   1.612   1.607  0.4568 -0.3519 -0.3899
 2516ntf    fn416679   5.077   1.747   1.445 -0.3464 -0.4772  0.0845
 2516ntf    fn416680   5.271   1.665   1.469  0.2162  0.0651  0.0463
 2517ntf    cn116681   4.686   5.824   3.620 -0.1720  0.6058  0.0209
 2517ntf    sn216682   4.774   5.894   3.477  0.3087 -0.5681 -0.2682
 2517ntf    nn316683   4.785   6.048   3.504 -0.7498 -0.5251 -0.0536
 2517ntf    sn216684   4.705   6.163   3.433 -0.1526 -0.1274 -0.0877
 2517ntf    cn116685   4.547   6.183   3.522  0.0552  0.8250  0.0800
 2517ntf    fn416686   4.651   5.699   3.597 -0.0361  0.6300 -0.3198
 2517ntf    fn416687   4.765   5.822   3.726 -0.2579  0.1307  0.0782
 2517ntf    fn416688   4.581   5.901   3.644 -0.2795  0.4084  0.1918
 2517ntf    on516689   4.905   5.834   3.490  0.2507 -0.6055  0.1514
 2517ntf    on516690   4.690   5.843   3.371  0.0314 -0.3767 -0.1410
 2517ntf    on516691   4.672   6.136   3.295  0.0083 -0.4115 -0.0701
 2517ntf    on516692   4.773   6.287   3.463 -0.1528 -0.1859  0.1553
 2517ntf    fn416693   4.487   6.297   3.494 -0.3865  0.5358 -0.1768
 2517ntf    fn416694   4.456   6.093   3.489  0.1845  0.3932  0.8909
 2517ntf    fn416695   4.559   6.178   3.653 -0.0479 -0.1651  0.0628
 2518ntf    cn116696   2.085   1.296   4.677 -0.0910 -0.1820 -0.2468
 2518ntf    sn216697   1.982   1.421   4.758 -0.0374 -0.2849 -0.0181
 2518ntf    nn316698   2.020   1.383   4.905  0.1259 -0.0418  0.0037
 2518ntf    sn216699   2.105   1.469   5.005  0.3375  0.1560 -0.3441
 2518ntf    cn116700   2.277   1.419   4.971  0.3887  0.2211 -0.1828
 2518ntf    fn416701   2.205   1.295   4.733 -0.3458  0.2035  0.3116
 2518ntf    fn416702   2.044   1.170   4.684  0.2778 -0.2900  0.0063
 2518ntf    fn416703   2.098   1.322   4.548  0.1374 -0.2335 -0.2354
 2518ntf    on516704   2.039   1.542   4.702 -0.8277  0.0595 -0.1000
 2518ntf    on516705   1.847   1.389   4.718  0.0592 -0.5676 -0.1161
 2518ntf    on516706   2.082   1.426   5.141 -0.0546  0.7534 -0.2148
 2518ntf    on516707   2.106   1.612   4.986  0.1219  0.2048 -0.0033
 2518ntf    fn416708   2.279   1.287   4.966  0.2844  0.2396 -0.8288
 2518ntf    fn416709   2.327   1.472   4.860 -0.0898  0.1723 -0.4253
 2518ntf    fn416710   2.355   1.451   5.073  0.5697  0.3104 -0.3481
 2519ntf    cn116711   6.736   5.625   3.101 -0.3561 -0.1445  0.1563
 2519ntf    sn216712   6.823   5.500   3.200  0.0718  0.1370  0.1382
 2519ntf    nn316713   6.776   5.366   3.134  0.2753  0.0389  0.1907
 2519ntf    sn216714   6.847   5.267   3.035  0.0043 -0.1667  0.2014
 2519ntf    cn116715   6.780   5.328   2.878 -0.2581 -0.0880  0.3424
 2519ntf    fn416716   6.782   5.748   3.118 -0.5774 -0.0907  0.3727
 2519ntf    fn416717   6.756   5.602   2.972  0.0755  0.2685  0.1466
 2519ntf    fn416718   6.606   5.615   3.123 -0.4530  0.1969 -0.2337
 2519ntf    on516719   6.963   5.531   3.187  0.0057  0.1559 -0.5687
 2519ntf    on516720   6.770   5.528   3.331  0.2120  0.3095  0.1591
 2519ntf    on516721   6.808   5.129   3.051 -0.3789 -0.0861 -0.0310
 2519ntf    on516722   6.989   5.282   3.016 -0.0272  0.3262  0.3487
 2519ntf    fn416723   6.801   5.245   2.777  0.0699  0.4964 -0.0815
 2519ntf    fn416724   6.648   5.337   2.875 -0.2365  0.1200 -0.5116
 2519ntf    fn416725   6.816   5.448   2.836 -0.4470 -0.0634  0.2514
 2520ntf    cn116726   0.422   3.678   0.426  0.1110 -0.0522 -0.2126
 2520ntf    sn216727   0.597   3.728   0.435  0.1587 -0.2527 -0.0414
 2520ntf    nn316728   0.664   3.591   0.397 -0.2415 -0.3748 -0.3195
 2520ntf    sn216729   0.796   3.550   0.473 -0.2330  0.1769 -0.0304
 2520ntf    cn116730   0.887   3.455   0.347 -0.0190  0.3833 -0.0311
 2520ntf    fn416731   0.393   3.569   0.494  0.0095  0.2993  0.3092
 2520ntf    fn416732   0.333   3.770   0.460  0.0501 -0.2306  0.1061
 2520ntf    fn416733   0.386   3.653   0.301 -0.2757 -0.1371 -0.0839
 2520ntf    on516734   0.617   3.828   0.334 -0.2562 -0.1253  0.0017
 2520ntf    on516735   0.604   3.759   0.576  0.2626  0.3661 -0.1827
 2520ntf    on516736   0.769   3.464   0.586 -0.2503  0.0668 -0.1182
 2520ntf    on516737   0.885   3.661   0.493  0.3241 -0.3937  0.6811
 2520ntf    fn416738   0.843   3.331   0.338  0.2619  0.2349  0.5638
 2520ntf    fn416739   0.873   3.526   0.236 -0.4511  0.0363 -0.2008
 2520ntf    fn416740   1.016   3.442   0.374 -0.1066  0.2138  0.3134
 2521ntf    cn116741   0.812   0.843   5.638 -0.6120 -0.1937 -0.5673
 2521ntf    sn216742   0.800   1.006   5.719  0.2652 -0.2099 -0.3959
 2521ntf    nn316743   0.692   1.079   5.632 -0.2785 -0.2184  0.2650
 2521ntf    sn216744   0.536   1.094   5.636 -0.2463  0.1080  0.2946
 2521ntf    cn116745   0.493   1.053   5.464 -0.0819  0.2184  0.2262
 2521ntf    fn416746   0.836   0.748   5.726 -0.0456  0.4765  0.0141
 2521ntf    fn416747   0.700   0.816   5.574 -0.6571 -0.7726 -0.2461
 2521ntf    fn416748   0.901   0.843   5.540 -0.3064  0.7837 -0.3074
 2521ntf    on516749   0.757   0.983   5.854  0.4411 -0.1151 -0.3240
 2521ntf    on516750   0.931   1.065   5.703  0.4857 -0.6928 -0.3990
 2521ntf    on516751   0.488   1.227   5.667  0.1350  0.1900  0.5332
 2521ntf    on516752   0.474   0.983   5.703  0.0927 -0.0039  0.4223
 2521ntf    fn416753   0.525   0.928   5.435  0.8540  0.4951  0.0491
 2521ntf    fn416754   0.365   1.067   5.430 -0.1413  0.1841  0.4364
 2521ntf    fn416755   0.560   1.132   5.382  0.1716  0.0653  0.2873
 2522ntf    cn116756   3.024   6.332   5.934 -0.0439 -0.1229 -0.0117
 2522ntf    sn216757   3.086   6.258   5.779  0.3725 -0.1042  0.1449
 2522ntf    nn316758   3.134   6.115   5.823 -0.9289 -0.4299  0.5382
 2522ntf    sn216759   3.094   5.968   5.785 -0.4276 -0.4038 -0.1077
 2522ntf    cn116760   3.094   5.870   5.939 -0.2451 -0.3683 -0.0855
 2522ntf    fn416761   3.124   6.350   6.018 -0.1926 -0.2879  0.1990
 2522ntf    fn416762   2.969   6.450   5.912 -0.3847 -0.3876 -0.6066
 2522ntf    fn416763   2.933   6.259   5.994 -0.0320 -0.1665 -0.0469
 2522ntf    on516764   2.964   6.264   5.704  0.0503 -0.9719  0.5867
 2522ntf    on516765   3.203   6.335   5.745 -0.1424  0.8703  0.5289
 2522ntf    on516766   3.201   5.903   5.714 -0.0441  0.0224  0.0744
 2522ntf    on516767   2.959   5.950   5.737 -0.9483  0.3799  1.0014
 2522ntf    fn416768   3.019   5.914   6.038  0.1221  0.3388 -0.1120
 2522ntf    fn416769   3.071   5.741   5.922 -0.6605 -0.3133  0.0451
 2522ntf    fn416770   3.216   5.880   5.989  0.0078  0.9049 -0.8924
 2523ntf    cn116771   3.328   1.824   6.134  0.0912 -0.3277 -0.0288
 2523ntf    sn216772   3.337   1.997   6.078 -0.1887 -0.2460  0.1758
 2523ntf    nn316773   3.355   1.982   5.922 -0.1982  0.0295  0.1469
 2523ntf    sn216774   3.488   1.963   5.841 -0.1751 -0.1315  0.2222
 2523ntf    cn116775   3.458   1.787   5.805 -0.1322 -0.0510 -0.2038
 2523ntf    fn416776   3.435   1.787   6.202  0.1430 -0.5343 -0.2236
 2523ntf    fn416777   3.221   1.794   6.205 -0.1807  0.2252 -0.2000
 2523ntf    fn416778   3.318   1.747   6.027  0.1606 -0.0264 -0.2570
 2523ntf    on516779   3.204   2.049   6.094 -0.1972 -0.2260  0.0444
 2523ntf    on516780   3.447   2.049   6.155 -0.1662 -0.5583  0.3541
 2523ntf    on516781   3.614   1.962   5.911  0.0173  0.3718 -0.1172
 2523ntf    on516782   3.485   2.019   5.708 -0.4901  0.0685  0.3130
 2523ntf    fn416783   3.489   1.702   5.901 -0.2360  0.5304  0.3450
 2523ntf    fn416784   3.337   1.759   5.760 -0.1878  0.2175 -0.2238
 2523ntf    fn416785   3.534   1.760   5.700 -0.3515  0.3958 -0.4816
 2524ntf    cn116786   5.377   2.276   4.864 -0.0542 -0.1128 -0.2742
 2524ntf    sn216787   5.393   2.296   5.044 -0.0827 -0.0645 -0.2769
 2524ntf    nn316788   5.252   2.250   5.096  0.2198 -0.1135  0.5051
 2524ntf    sn216789   5.192   2.113   5.145 -0.1727 -0.2890 -0.4479
 2524ntf    cn116790   5.157   2.029   4.988 -0.1434 -0.7359 -0.2164
 2524ntf    fn416791   5.472   2.344   4.802  0.1640 -0.1280  0.0419
 2524ntf    fn416792   5.401   2.152   4.823 -0.0959 -0.1145 -0.2943
 2524ntf    fn416793   5.259   2.320   4.824  0.1569  0.5229 -0.2086
 2524ntf    on516794   5.509   2.220   5.084  0.2192  0.5233 -0.0333
 2524ntf    on516795   5.409   2.437   5.066 -0.5265  0.0860 -0.8952
 2524ntf    on516796   5.062   2.129   5.204 -0.0374  0.1855 -0.2731
 2524ntf    on516797   5.283   2.021   5.209 -0.0708  0.2640  0.2081
 2524ntf    fn416798   5.268   2.021   4.916  0.5156 -0.7895  0.7905
 2524ntf    fn416799   5.111   1.905   4.998 -0.8005 -0.4972 -0.2104
 2524ntf    fn416800   5.061   2.095   4.925 -0.1609 -0.9632 -0.4320
 2525ntf    cn116801   4.480   0.270   3.624 -0.0840  0.0330  0.1397
 2525ntf    sn216802   4.607   0.214   3.507 -0.0418  0.4026  0.0055
 2525ntf    nn316803   4.605   0.058   3.528  1.0844  0.3111 -0.4988
 2525ntf    sn216804   4.712  -0.054   3.500  0.5840 -0.2824 -0.0518
 2525ntf    cn116805   4.628  -0.101   3.346  0.2956 -0.4960  0.1669
 2525ntf    fn416806   4.514   0.227   3.744 -0.0911  0.1088  0.1689
 2525ntf    fn416807   4.457   0.400   3.626 -0.0729  0.0424 -0.2147
 2525ntf    fn416808   4.365   0.208   3.601  0.2490 -0.3091 -0.6519
 2525ntf    on516809   4.550   0.258   3.382  0.2037  0.3116 -0.1390
 2525ntf    on516810   4.723   0.284   3.553 -0.1699  0.3557  0.4004
 2525ntf    on516811   4.705  -0.169   3.586 -0.0525  0.0269  0.3197
 2525ntf    on516812   4.840   0.004   3.471  0.9367 -0.9620  0.1424
 2525ntf    fn416813   4.684  -0.203   3.283  0.4698 -0.1934 -0.1757
 2525ntf    fn416814   4.497  -0.121   3.347  0.2941 -0.5641 -0.7129
 2525ntf    fn416815   4.652  -0.002   3.261 -0.0715 -0.2928  0.2977
 2526ntf    cn116816   4.903   5.924   2.567 -0.1725  0.2158 -0.1564
 2526ntf    sn216817   4.964   6.095   2.552 -0.0689  0.1921 -0.0050
 2526ntf    nn316818   5.016   6.119   2.698 -0.6239 -0.0088  0.2274
 2526ntf    sn216819   5.022   6.250   2.784 -0.0672  0.0474  0.1062
 2526ntf    cn116820   4.903   6.189   2.908 -0.4085  0.1198 -0.1863
 2526ntf    fn416821   4.988   5.845   2.630 -0.4095  0.1218  0.0451
 2526ntf    fn416822   4.787   5.911   2.629  0.0028 -0.3319  0.0632
 2526ntf    fn416823   4.871   5.865   2.453  0.4441 -0.7378  0.1489
 2526ntf    on516824   5.069   6.079   2.455 -0.1625  0.1486 -0.0998
 2526ntf    on516825   4.850   6.176   2.517 -0.2515 -0.0180  0.0983
 2526ntf    on516826   4.959   6.366   2.725 -0.6803 -0.1575  0.3501
 2526ntf    on516827   5.149   6.264   2.850 -0.1459 -0.3611  0.3477
 2526ntf    fn416828   4.944   6.073   2.954  0.0122  0.3851  0.1150
 2526ntf    fn416829   4.893   6.262   3.018  0.8931 -0.0267  0.0418
 2526ntf    fn416830   4.781   6.169   2.860 -0.3761 -0.1461 -0.1560
 2527ntf    cn116831   5.392   6.764   1.588  0.0372 -0.0235 -0.4082
 2527ntf    sn216832   5.265   6.806   1.465 -0.1699  0.2678 -0.0960
 2527ntf    nn316833   5.353   6.805   1.335 -0.2141  0.2164 -0.1252
 2527ntf    sn216834   5.431   6.924   1.269  0.2438 -0.0181 -0.0089
 2527ntf    cn116835   5.594   6.844   1.256  0.3815  0.2182  0.2300
 2527ntf    fn416836   5.466   6.869   1.619  0.1612 -0.2217 -0.0165
 2527ntf    fn416837   5.349   6.704   1.698  0.0742  0.2666 -0.2332
 2527ntf    fn416838   5.475   6.681   1.527 -0.6434 -0.6281 -0.5254
 2527ntf    on516839   5.172   6.697   1.467  0.1953 -0.0491 -0.1762
 2527ntf    on516840   5.213   6.934   1.507  0.3702  0.4695 -0.0216
 2527ntf    on516841   5.454   7.034   1.360 -0.1887  0.0395  0.0305
 2527ntf    on516842   5.394   6.955   1.133  0.1536  0.1386  0.0505
 2527ntf    fn416843   5.647   6.838   1.376 -0.3785 -0.2020  0.5574
 2527ntf    fn416844   5.576   6.721   1.210 -0.1182  0.3111  0.1623
 2527ntf    fn416845   5.682   6.907   1.180  0.3278  0.1835  0.1394
 2528ntf    cn116846   6.310   6.740   6.287 -0.1769 -0.1571  0.2884
 2528ntf    sn216847   6.241   6.578   6.334 -0.2256 -0.2944 -0.2486
 2528ntf    nn316848   6.376   6.506   6.300 -0.0825 -0.4701  0.6678
 2528ntf    sn216849   6.463   6.401   6.378  0.7437 -0.2302  0.0956
 2528ntf    cn116850   6.614   6.376   6.282  0.4244 -0.0543 -0.4574
 2528ntf    fn416851   6.398   6.787   6.373  0.0023  0.3323 -0.1554
 2528ntf    fn416852   6.371   6.731   6.170  0.0583 -0.1296  0.4091
 2528ntf    fn416853   6.213   6.830   6.273 -0.1281 -0.1608 -0.0769
 2528ntf    on516854   6.213   6.575   6.475  0.6312  0.4580 -0.0527
 2528ntf    on516855   6.129   6.558   6.246 -0.5338  0.4076 -0.0258
 2528ntf    on516856   6.396   6.275   6.358  0.4092  0.0277 -0.4226
 2528ntf    on516857   6.503   6.436   6.512  0.5575  0.5641 -0.0467
 2528ntf    fn416858   6.711   6.302   6.333  0.1420 -0.0746  0.0558
 2528ntf    fn416859   6.592   6.330   6.160  0.2820 -0.2079 -0.3742
 2528ntf    fn416860   6.673   6.493   6.266  0.5207 -0.0424 -0.0147
 2529ntf    cn116861   2.950   3.169   6.636  0.2925  0.1669  0.3915
 2529ntf    sn216862   2.927   2.990   6.611  0.3429  0.1817  0.2369
 2529ntf    nn316863   2.977   2.977   6.463  0.4190 -0.2935  0.3052
 2529ntf    sn216864   2.887   2.909   6.354  0.6268 -0.1208  0.0270
 2529ntf    cn116865   3.018   2.831   6.254  0.5766 -0.0194 -0.1191
 2529ntf    fn416866   2.896   3.209   6.750  0.3173  0.0914  0.4299
 2529ntf    fn416867   3.075   3.211   6.644  0.3141  0.1955 -0.0486
 2529ntf    fn416868   2.894   3.235   6.536  0.4073  0.7038  0.6750
 2529ntf    on516869   3.021   2.925   6.699  0.4083  0.1831  0.1675
 2529ntf    on516870   2.786   2.970   6.633  0.3961  0.2268  0.6285
 2529ntf    on516871   2.824   3.003   6.264  0.6223  0.3714  0.5424
 2529ntf    on516872   2.806   2.799   6.399 -0.0636  0.1762 -0.4712
 2529ntf    fn416873   3.068   2.731   6.325  0.4797  0.0297  0.0176
 2529ntf    fn416874   2.971   2.782   6.141  0.3492 -0.0762 -0.0006
 2529ntf    fn416875   3.119   2.911   6.226 -0.0216  0.7222 -0.1815
 2530ntf    cn116876   3.287   6.147   4.795 -0.1296 -0.1584 -0.2779
 2530ntf    sn216877   3.451   6.126   4.871 -0.3614  0.2519  0.3455
 2530ntf    nn316878   3.543   6.142   4.746 -0.2668 -0.3414  0.3372
 2530ntf    sn216879   3.662   6.054   4.694 -0.0694  0.0243  0.1627
 2530ntf    cn116880   3.593   6.001   4.534 -0.0287 -0.5871  0.3433
 2530ntf    fn416881   3.273   6.270   4.747 -0.0531 -0.1952 -0.3932
 2530ntf    fn416882   3.250   6.068   4.696  0.7016 -0.4366 -0.3696
 2530ntf    fn416883   3.188   6.132   4.881  0.2619  0.4790  0.2993
 2530ntf    on516884   3.454   6.240   4.960  0.0815  0.1764  0.4298
 2530ntf    on516885   3.445   5.991   4.923  0.0158  0.4686  0.9645
 2530ntf    on516886   3.692   5.928   4.759 -0.8222 -0.2056  0.0741
 2530ntf    on516887   3.772   6.136   4.650 -0.0595 -0.4456 -0.7338
 2530ntf    fn416888   3.597   6.096   4.441 -0.2637 -0.6624  0.2561
 2530ntf    fn416889   3.643   5.894   4.474 -0.3786 -0.1569 -0.7422
 2530ntf    fn416890   3.464   5.974   4.546 -0.0008 -0.4355  1.0588
 2531ntf    cn116891   3.614   1.349   2.225  0.3458 -0.1595 -0.1720
 2531ntf    sn216892   3.755   1.448   2.284 -0.1544  0.2377  0.3774
 2531ntf    nn316893   3.749   1.422   2.438 -0.5628 -0.3333  0.2666
 2531ntf    sn216894   3.861   1.430   2.548 -0.0342  0.5498 -0.3255
 2531ntf    cn116895   3.771   1.529   2.672  0.2156  0.2394  0.1036
 2531ntf    fn416896   3.632   1.223   2.260 -0.4018 -0.1282  0.3540
 2531ntf    fn416897   3.500   1.383   2.282  0.4428  0.3564 -0.2773
 2531ntf    fn416898   3.592   1.365   2.096  0.5697  0.4751 -0.1395
 2531ntf    on516899   3.869   1.392   2.215 -0.4820 -0.0283  0.0449
 2531ntf    on516900   3.720   1.579   2.234  0.7795  0.1504 -0.5364
 2531ntf    on516901   3.977   1.509   2.519 -0.1469  0.6657 -0.4622
 2531ntf    on516902   3.882   1.299   2.605  0.1082  0.5268 -0.4314
 2531ntf    fn416903   3.665   1.459   2.709  0.1781  0.0747 -0.3139
 2531ntf    fn416904   3.842   1.550   2.782  0.2325 -0.6436  0.2663
 2531ntf    fn416905   3.733   1.650   2.636 -0.1056  0.0527 -0.1836
 2532ntf    cn116906   5.283   0.172   0.752  0.1450 -0.9379 -0.0078
 2532ntf    sn216907   5.194   0.311   0.676  0.6201 -0.5431  0.1561
 2532ntf    nn316908   5.243   0.281   0.530 -0.3920  0.0738 -0.3174
 2532ntf    sn216909   5.314   0.382   0.433  0.2069 -0.1100 -0.0741
 2532ntf    cn116910   5.451   0.286   0.360  0.3028 -0.1129  0.1106
 2532ntf    fn416911   5.267   0.165   0.883  0.1875  0.6916  0.0959
 2532ntf    fn416912   5.239   0.056   0.705 -0.1586 -0.5934 -0.5753
 2532ntf    fn416913   5.412   0.184   0.723  0.0463  0.0331 -0.0606
 2532ntf    on516914   5.055   0.285   0.700  0.2708  0.5304 -0.6478
 2532ntf    on516915   5.253   0.418   0.754  0.0871 -0.0064 -0.1753
 2532ntf    on516916   5.387   0.494   0.486 -0.0056  0.0900 -0.2053
 2532ntf    on516917   5.235   0.398   0.313  0.0449  0.8251  0.1562
 2532ntf    fn416918   5.514   0.228   0.461  0.5397  0.2021  0.1456
 2532ntf    fn416919   5.407   0.187   0.285  0.1284  0.1319 -0.1130
 2532ntf    fn416920   5.535   0.358   0.287 -0.5907  0.3301 -0.4881
 2533ntf    cn116921   1.697   6.846   1.402 -0.1683  0.0304  0.2263
 2533ntf    sn216922   1.603   6.747   1.282 -0.1428  0.2223  0.0472
 2533ntf    nn316923   1.655   6.829   1.159 -0.3457 -0.1043 -0.2570
 2533ntf    sn216924   1.784   6.792   1.078 -0.2083  0.0646 -0.1156
 2533ntf    cn116925   1.740   6.624   1.023 -0.2707  0.0814 -0.1153
 2533ntf    fn416926   1.828   6.832   1.402 -0.2227 -0.5084  0.3004
 2533ntf    fn416927   1.668   6.975   1.397 -0.5709 -0.0435  0.5964
 2533ntf    fn416928   1.659   6.825   1.527 -0.3280 -0.5214  0.0872
 2533ntf    on516929   1.646   6.610   1.294  0.1663  0.3306  0.1808
 2533ntf    on516930   1.465   6.771   1.316 -0.2577  0.1141 -0.3416
 2533ntf    on516931   1.895   6.785   1.170 -0.1851  0.1623 -0.1364
 2533ntf    on516932   1.799   6.872   0.959 -0.9049  0.0198 -0.2378
 2533ntf    fn416933   1.612   6.615   0.994 -0.3131  0.2354  0.0220
 2533ntf    fn416934   1.804   6.597   0.910  0.1018  0.1345  0.0822
 2533ntf    fn416935   1.774   6.525   1.104  0.1929  0.2568 -0.0891
 2534ntf    cn116936   3.933   2.508   6.866 -0.0584 -0.3052 -0.2303
 2534ntf    sn216937   4.107   2.471   6.829  0.1911  0.6174 -0.0175
 2534ntf    nn316938   4.088   2.412   6.685  0.0144  0.1739  0.1835
 2534ntf    sn216939   4.166   2.444   6.553  0.1230 -0.1498  0.1693
 2534ntf    cn116940   4.059   2.572   6.482  0.3476 -0.2487 -0.3499
 2534ntf    fn416941   3.921   2.559   6.987  0.0674  0.5797 -0.5750
 2534ntf    fn416942   3.882   2.591   6.776 -0.1546  0.2982  0.3709
 2534ntf    fn416943   3.858   2.400   6.856  0.0764 -0.3688 -0.5592
 2534ntf    on516944   4.179   2.595   6.842  0.1679  0.6992 -0.6852
 2534ntf    on516945   4.124   2.366   6.928 -1.1364 -0.1358 -0.5608
 2534ntf    on516946   4.158   2.335   6.458  0.3908 -0.1493  0.1444
 2534ntf    on516947   4.291   2.516   6.566  0.0695 -0.0807  0.2991
 2534ntf    fn416948   4.136   2.658   6.416  0.2026  0.0523 -0.1308
 2534ntf    fn416949   3.968   2.514   6.406  0.4035 -0.4640 -0.2530
 2534ntf    fn416950   3.993   2.634   6.578 -0.0066 -0.1803 -0.6370
 2535ntf    cn116951   4.398   1.288   6.977 -0.4080  0.2290  0.0277
 2535ntf    sn216952   4.450   1.461   6.951 -0.5041  0.1983 -0.3779
 2535ntf    nn316953   4.345   1.525   7.048 -0.1924 -0.1411  0.1923
 2535ntf    sn216954   4.219   1.612   7.013 -0.0026 -0.0362 -0.2445
 2535ntf    cn116955   4.284   1.765   6.942 -0.5204  0.2538 -0.0990
 2535ntf    fn416956   4.273   1.255   6.950 -0.4272  0.3140  0.0092
 2535ntf    fn416957   4.465   1.209   6.895  0.2690  0.1543  0.6339
 2535ntf    fn416958   4.430   1.253   7.100 -0.0065 -0.1399 -0.1780
 2535ntf    on516959   4.585   1.465   7.003 -0.4764  0.0642 -0.4371
 2535ntf    on516960   4.430   1.490   6.811 -0.3437 -0.0753 -0.4589
 2535ntf    on516961   4.153   1.669   7.129  0.1258  0.3757 -0.3739
 2535ntf    on516962   4.129   1.558   6.914 -0.6282 -0.1178  0.3509
 2535ntf    fn416963   4.384   1.816   7.011 -0.1358 -0.4700 -0.1148
 2535ntf    fn416964   4.337   1.741   6.823 -0.0416 -0.1239  0.1916
 2535ntf    fn416965   4.188   1.854   6.920 -0.2705  0.4999 -0.2072
 2536ntf    cn116966   6.602   2.220   3.161  0.5172  0.0702 -0.2190
 2536ntf    sn216967   6.527   2.266   3.001 -0.2751 -0.6950 -0.0778
 2536ntf    nn316968   6.393   2.185   2.996 -0.3141 -0.6607  0.3452
 2536ntf    sn216969   6.370   2.039   2.941 -0.2100 -0.4340 -0.3138
 2536ntf    cn116970   6.283   2.067   2.784 -0.4120 -0.0246 -0.1333
 2536ntf    fn416971   6.610   2.088   3.168 -0.4747  0.0043 -0.1009
 2536ntf    fn416972   6.724   2.270   3.173  0.3689  0.2973  0.3562
 2536ntf    fn416973   6.529   2.257   3.265  0.7984  0.1877 -0.0633
 2536ntf    on516974   6.514   2.409   3.011 -0.1054 -0.6866  0.0337
 2536ntf    on516975   6.622   2.231   2.898 -0.3170 -0.1535 -0.3015
 2536ntf    on516976   6.275   1.958   3.014  0.1927 -0.5920  0.0344
 2536ntf    on516977   6.487   1.960   2.913 -0.0344 -0.2327 -0.1560
 2536ntf    fn416978   6.368   2.077   2.683  0.3419  0.8671  0.5749
 2536ntf    fn416979   6.193   1.975   2.753 -0.1164 -0.1880 -0.5121
 2536ntf    fn416980   6.208   2.175   2.783 -0.1170  0.1925  0.6232
 2537ntf    cn116981   4.780   5.190   4.702  0.2102  0.0175 -0.6355
 2537ntf    sn216982   4.881   5.039   4.707  0.1921  0.0234  0.0978
 2537ntf    nn316983   5.021   5.096   4.749  0.3175 -0.4130  0.2772
 2537ntf    sn216984   5.059   5.159   4.887 -0.2598 -0.1091  0.2956
 2537ntf    cn116985   5.200   5.054   4.933 -0.0115  0.0168 -0.1813
 2537ntf    fn416986   4.660   5.167   4.652 -0.0241 -0.1721  0.0071
 2537ntf    fn416987   4.771   5.249   4.820 -0.4972 -0.0424 -0.6586
 2537ntf    fn416988   4.836   5.277   4.619  0.1571  0.4398 -0.2325
 2537ntf    on516989   4.815   4.951   4.800 -0.1563  0.6426  0.4427
 2537ntf    on516990   4.884   4.998   4.568 -0.4185  0.3494 -0.0154
 2537ntf    on516991   4.968   5.146   4.999 -0.2011  0.3076  0.3924
 2537ntf    on516992   5.112   5.293   4.877  0.2790 -0.3155  0.3657
 2537ntf    fn416993   5.280   5.116   5.018 -0.0448  0.2562 -0.3235
 2537ntf    fn416994   5.170   4.941   4.994  0.4068 -0.1219 -0.2290
 2537ntf    fn416995   5.271   5.019   4.827 -0.1534  0.2962 -0.3705
 2538ntf    cn116996   6.129   1.496   6.126  0.1486  0.2401 -0.0612
 2538ntf    sn216997   6.049   1.333   6.120 -0.0210  0.3200  0.0159
 2538ntf    nn316998   5.971   1.335   5.984  0.2207  0.6956 -0.1173
 2538ntf    sn216999   5.982   1.224   5.874 -0.0749  0.0584  0.4879
 2538ntf    cn117000   6.129   1.290   5.789  0.0187 -0.1131  0.5159
 2538ntf    fn417001   6.044   1.597   6.138  0.1887  0.3053 -0.3344
 2538ntf    fn417002   6.209   1.502   6.232  0.0470 -0.2252  0.0468
 2538ntf    fn417003   6.216   1.507   6.028  0.4691  0.2080  0.2164
 2538ntf    on517004   6.162   1.245   6.143  0.0469  0.2218 -0.6790
 2538ntf    on517005   5.952   1.341   6.226 -0.4761 -0.4903 -0.3356
 2538ntf    on517006   5.870   1.235   5.784  0.4234 -0.0096 -0.1509
 2538ntf    on517007   6.027   1.092   5.911  0.1732  0.0199  0.0648
 2538ntf    fn417008   6.111   1.418   5.759  0.5521 -0.1157  0.1731
 2538ntf    fn417009   6.238   1.279   5.864  0.1145 -0.8254  0.2794
 2538ntf    fn417010   6.155   1.236   5.671 -0.5584 -0.3706  0.5022
 2539ntf    cn117011   3.800   4.757   2.559 -0.1181 -0.0006  0.3500
 2539ntf    sn217012   3.624   4.762   2.517 -0.1398 -0.3150  0.3949
 2539ntf    nn317013   3.555   4.768   2.658 -0.2133  0.0239  0.3469
 2539ntf    sn217014   3.446   4.868   2.711 -0.1292  0.3272 -0.0500
 2539ntf    cn117015   3.422   4.806   2.880 -0.3738 -0.0119 -0.2099
 2539ntf    fn417016   3.879   4.736   2.454 -0.2059  0.3542  0.2123
 2539ntf    fn417017   3.835   4.874   2.610  0.4624 -0.1059  0.2089
 2539ntf    fn417018   3.821   4.659   2.646 -0.1519 -0.5195 -0.2173
 2539ntf    on517019   3.609   4.884   2.440  0.9640 -0.0365  0.6033
 2539ntf    on517020   3.600   4.640   2.444 -0.4585  0.1099 -0.2221
 2539ntf    on517021   3.322   4.843   2.642 -0.3164  0.4707  0.2360
 2539ntf    on517022   3.480   5.008   2.718 -0.0936  0.3038  0.2302
 2539ntf    fn417023   3.376   4.682   2.876  0.2985 -0.2758  0.1456
 2539ntf    fn417024   3.542   4.793   2.933 -0.2745  0.6285 -0.2701
 2539ntf    fn417025   3.344   4.881   2.955 -0.6868 -0.4614 -0.0761
 2540ntf    cn117026   3.387   3.104   3.996 -0.4213  0.0394 -0.5561
 2540ntf    sn217027   3.336   3.231   4.115  0.2680 -0.1352 -0.0735
 2540ntf    nn317028   3.472   3.296   4.159 -0.0083  0.4016 -0.0088
 2540ntf    sn217029   3.533   3.323   4.301  0.0545 -0.1744  0.0755
 2540ntf    cn117030   3.628   3.469   4.250 -0.2539  0.1685  0.4740
 2540ntf    fn417031   3.293   3.017   3.961 -0.3059  0.0448 -0.8893
 2540ntf    fn417032   3.436   3.153   3.884  0.2526 -0.2010 -0.3684
 2540ntf    fn417033   3.493   3.035   4.035 -0.1643  0.4421 -0.5436
 2540ntf    on517034   3.259   3.318   4.030 -0.5113 -0.1324  0.6179
 2540ntf    on517035   3.264   3.165   4.221 -0.2889 -0.2527 -0.5228
 2540ntf    on517036   3.629   3.219   4.330  0.3495  0.1979  0.4409
 2540ntf    on517037   3.450   3.367   4.411  0.3131  0.0110  0.1962
 2540ntf    fn417038   3.679   3.436   4.133 -0.8816 -0.6326  0.4168
 2540ntf    fn417039   3.559   3.581   4.230  0.0268  0.1420 -0.6909
 2540ntf    fn417040   3.725   3.498   4.335 -0.1242 -0.2561  0.4737
 2541ntf    cn117041   5.497   5.931   6.803 -0.0936 -0.2463 -0.4497
 2541ntf    sn217042   5.664   5.970   6.742 -0.3241  0.2859 -0.7409
 2541ntf    nn317043   5.738   5.850   6.812  0.2226  0.7876 -0.4521
 2541ntf    sn217044   5.843   5.751   6.752  0.1088  0.3150  0.1178
 2541ntf    cn117045   5.764   5.589   6.728  0.1382  0.3056  0.0852
 2541ntf    fn417046   5.458   5.805   6.793 -0.7649 -0.0149 -0.7829
 2541ntf    fn417047   5.474   5.951   6.932 -0.2873  0.4968 -0.5963
 2541ntf    fn417048   5.404   6.003   6.743 -0.3250 -0.5487 -0.4548
 2541ntf    on517049   5.640   5.966   6.600  0.3002 -0.3492 -0.8337
 2541ntf    on517050   5.702   6.099   6.795 -0.3982  0.3240 -0.7797
 2541ntf    on517051   5.929   5.721   6.864 -0.1013  0.1459  0.2353
 2541ntf    on517052   5.911   5.785   6.629  0.4664 -0.0229  0.2186
 2541ntf    fn417053   5.670   5.561   6.818 -0.0317  0.1727 -0.1320
 2541ntf    fn417054   5.699   5.587   6.613  0.3019 -0.5704  0.0040
 2541ntf    fn417055   5.847   5.486   6.728  0.3834  0.5010  0.2632
 2542ntf    cn117056   1.195   2.418   1.605 -0.4094 -0.0283  0.3887
 2542ntf    sn217057   1.342   2.327   1.661 -0.2670  0.0539  0.1500
 2542ntf    nn317058   1.452   2.439   1.658  0.0744 -0.2930 -0.6132
 2542ntf    sn217059   1.609   2.429   1.649  0.1360 -0.1569  0.1930
 2542ntf    cn117060   1.660   2.523   1.796  0.5332 -0.2300  0.1015
 2542ntf    fn417061   1.085   2.350   1.631 -0.7688  0.3731 -0.0641
 2542ntf    fn417062   1.173   2.536   1.661  0.0104  0.0431  0.4070
 2542ntf    fn417063   1.197   2.429   1.474 -0.5778  0.3570  0.4164
 2542ntf    on517064   1.309   2.284   1.795 -0.5356 -0.3978 -0.0595
 2542ntf    on517065   1.352   2.227   1.558 -0.6416  0.6390 -0.4617
 2542ntf    on517066   1.660   2.505   1.538 -0.4762 -0.0899 -0.0519
 2542ntf    on517067   1.669   2.298   1.656  0.5412  0.0569  0.7718
 2542ntf    fn417068   1.585   2.497   1.902 -0.2086 -1.3386 -0.6718
 2542ntf    fn417069   1.786   2.494   1.825  0.6276 -0.0367 -0.1082
 2542ntf    fn417070   1.653   2.655   1.786 -0.0036 -0.2927 -0.4089
 2543ntf    cn117071   4.159   4.729   4.013  0.3256  0.2124  0.0237
 2543ntf    sn217072   4.157   4.586   4.125  0.3441  0.2500  0.0724
 2543ntf    nn317073   4.257   4.629   4.237  0.0420  0.5350  0.2313
 2543ntf    sn217074   4.224   4.705   4.371  0.0117  0.1672  0.4335
 2543ntf    cn117075   4.358   4.828   4.372 -0.0060  0.1893 -0.0926
 2543ntf    fn417076   4.058   4.728   3.927  0.1219 -0.2588  0.2626
 2543ntf    fn417077   4.152   4.838   4.088  0.3251 -0.0412  0.3943
 2543ntf    fn417078   4.268   4.729   3.938  0.4638  0.7815  0.2247
 2543ntf    on517079   4.019   4.583   4.166  0.1379  0.4338 -0.5853
 2543ntf    on517080   4.210   4.473   4.052 -0.4169 -0.4505  0.5868
 2543ntf    on517081   4.245   4.625   4.489 -0.2279 -0.0757  0.3115
 2543ntf    on517082   4.104   4.784   4.366  0.1087  0.3315  0.6807
 2543ntf    fn417083   4.319   4.954   4.374 -0.5857  0.0193 -0.4367
 2543ntf    fn417084   4.444   4.818   4.472  0.2802  0.2402 -0.3313
 2543ntf    fn417085   4.438   4.821   4.266 -0.2808  0.1747 -0.2996
 2544ntf    cn117086   2.756   6.088   3.625  0.1608 -0.3639 -0.2766
 2544ntf    sn217087   2.641   6.069   3.765 -0.0478 -0.1154 -0.4122
 2544ntf    nn317088   2.610   6.217   3.808  0.7479 -0.0162 -0.1521
 2544ntf    sn217089   2.674   6.292   3.930  0.1311  0.1898  0.0475
 2544ntf    cn117090   2.576   6.223   4.067 -0.0562  0.0532 -0.1552
 2544ntf    fn417091   2.800   5.969   3.588  0.5564 -0.2772 -0.0934
 2544ntf    fn417092   2.706   6.153   3.521 -0.2687 -0.2598 -0.0090
 2544ntf    fn417093   2.864   6.152   3.666  0.0785 -0.2135 -0.2931
 2544ntf    on517094   2.534   6.009   3.690  0.1649 -0.0095 -0.8054
 2544ntf    on517095   2.702   5.993   3.871 -0.5123  0.1608  0.0566
 2544ntf    on517096   2.647   6.433   3.935 -0.4046  0.1138 -0.5171
 2544ntf    on517097   2.815   6.262   3.937  0.2552  0.7494 -0.0252
 2544ntf    fn417098   2.461   6.287   4.083  0.1198  0.4222 -0.3374
 2544ntf    fn417099   2.555   6.093   4.053  0.3603 -0.0540  0.2031
 2544ntf    fn417100   2.628   6.238   4.187 -0.1902 -0.1552 -0.0702
 2545ntf    cn117101   0.163   1.485   3.257  0.3916  0.3285  0.0816
 2545ntf    sn217102   0.072   1.500   3.413  0.1259  0.0913 -0.0499
 2545ntf    nn317103  -0.019   1.372   3.417  0.4527 -0.1532 -0.3713
 2545ntf    sn217104  -0.037   1.249   3.513 -0.0100  0.2918  0.1179
 2545ntf    cn117105  -0.032   1.122   3.384 -0.3846 -0.2258  0.6076
 2545ntf    fn417106   0.265   1.569   3.252  0.1728  0.6409  0.7653
 2545ntf    fn417107   0.207   1.361   3.241  0.0715  0.1896  0.2684
 2545ntf    fn417108   0.083   1.493   3.152  0.1297  0.1919  0.2687
 2545ntf    on517109   0.173   1.501   3.515  0.0061 -0.0620  0.0713
 2545ntf    on517110  -0.001   1.622   3.390 -0.5668 -0.3530 -0.2563
 2545ntf    on517111  -0.168   1.240   3.572  0.0681 -0.6355  0.1571
 2545ntf    on517112   0.078   1.206   3.589 -0.4059 -0.2989  0.3930
 2545ntf    fn417113   0.084   1.126   3.320 -0.2117  0.0746  0.9367
 2545ntf    fn417114  -0.037   1.002   3.440  0.2308 -0.3083  0.4978
 2545ntf    fn417115  -0.131   1.126   3.296 -0.0616 -0.2209  0.2412
 2546ntf    cn117116   0.750   4.267   2.034  0.4734  0.3296 -0.1388
 2546ntf    sn217117   0.811   4.106   1.976  0.0789  0.1845 -0.1513
 2546ntf    nn317118   0.769   4.003   2.087 -0.3461  0.2418 -0.2561
 2546ntf    sn217119   0.804   3.850   2.101 -0.3244  0.2815  0.1447
 2546ntf    cn117120   0.689   3.758   1.995 -0.0742 -0.4903  0.5371
 2546ntf    fn417121   0.812   4.302   2.146 -0.2003 -0.5744  0.5293
 2546ntf    fn417122   0.778   4.362   1.946  0.2151  0.0594 -0.5133
 2546ntf    fn417123   0.621   4.273   2.060  0.5719 -0.5372  0.6098
 2546ntf    on517124   0.741   4.088   1.852 -0.3292  0.6687  0.0063
 2546ntf    on517125   0.954   4.116   1.957  0.1947  0.2842  0.7201
 2546ntf    on517126   0.782   3.803   2.235 -0.1666  0.0316  0.0846
 2546ntf    on517127   0.931   3.813   2.044 -0.0513  0.0877  0.8704
 2546ntf    fn417128   0.562   3.793   2.011  0.0185  0.0038  0.2130
 2546ntf    fn417129   0.716   3.786   1.868 -0.4667 -0.6130  0.4236
 2546ntf    fn417130   0.705   3.627   2.008  0.0721 -0.4072  1.2530
 2547ntf    cn117131   3.539   4.986   1.698  0.0118  0.1847 -0.1424
 2547ntf    sn217132   3.492   4.811   1.681  0.3130  0.1006 -0.1248
 2547ntf    nn317133   3.463   4.822   1.527 -0.4968 -0.1306  0.0084
 2547ntf    sn217134   3.374   4.721   1.446 -0.1491 -0.4512  0.0213
 2547ntf    cn117135   3.500   4.619   1.365 -0.0064 -0.1120 -0.1860
 2547ntf    fn417136   3.488   5.049   1.802 -0.0707 -0.4759  0.2215
 2547ntf    fn417137   3.672   4.986   1.700  0.0038 -0.2609  0.4842
 2547ntf    fn417138   3.506   5.057   1.591  0.6536  0.7470  0.0195
 2547ntf    on517139   3.601   4.727   1.723  0.1298 -0.1325 -0.1170
 2547ntf    on517140   3.376   4.796   1.766  0.0922 -0.2879 -0.4916
 2547ntf    on517141   3.312   4.787   1.334 -0.2797 -0.6898 -0.0468
 2547ntf    on517142   3.287   4.629   1.516  0.0712 -0.1256  0.7331
 2547ntf    fn417143   3.603   4.682   1.311  0.1801 -0.1148  0.1693
 2547ntf    fn417144   3.552   4.537   1.454  0.4611  0.4213  0.0330
 2547ntf    fn417145   3.441   4.542   1.274 -0.0526 -0.5336  0.2004
 2548ntf    cn117146   6.752   0.039   2.466  0.1411  0.2219 -0.3379
 2548ntf    sn217147   6.648   0.186   2.490 -0.3258 -0.1697  0.0535
 2548ntf    nn317148   6.717   0.265   2.373  0.0108 -0.0560  0.3300
 2548ntf    sn217149   6.720   0.422   2.368 -0.0487 -0.0654 -0.0303
 2548ntf    cn117150   6.563   0.446   2.279 -0.1823 -0.1169  0.1895
 2548ntf    fn417151   6.734  -0.030   2.355  0.2018 -0.2043 -0.0859
 2548ntf    fn417152   6.880   0.072   2.476  0.1057  0.1110  0.6377
 2548ntf    fn417153   6.735  -0.049   2.563 -0.1975 -0.4256 -0.9776
 2548ntf    on517154   6.514   0.134   2.474 -0.3447 -0.2041  0.3273
 2548ntf    on517155   6.687   0.228   2.622  0.3469  1.0285 -0.5144
 2548ntf    on517156   6.826   0.473   2.286 -0.2503 -0.3306 -0.4598
 2548ntf    on517157   6.698   0.491   2.493 -0.5644 -0.1347 -0.0809
 2548ntf    fn417158   6.463   0.415   2.360 -0.3672 -0.4718 -0.1718
 2548ntf    fn417159   6.546   0.576   2.259  0.0830 -0.1880 -0.5034
 2548ntf    fn417160   6.564   0.380   2.165  0.1729 -0.0808  0.1701
 2549ntf    cn117161   6.493   5.515   0.888  0.0177 -0.0034 -0.0023
 2549ntf    sn217162   6.506   5.615   1.039 -0.0396  0.5334 -0.3498
 2549ntf    nn317163   6.661   5.611   1.067 -0.0762 -0.2054 -0.2275
 2549ntf    sn217164   6.746   5.507   1.147 -0.1733  0.0281  0.1818
 2549ntf    cn117165   6.769   5.604   1.299 -0.2069 -0.1266  0.2859
 2549ntf    fn417166   6.543   5.584   0.787 -0.2661 -0.0605 -0.1833
 2549ntf    fn417167   6.555   5.398   0.894  0.1228  0.0550  0.0698
 2549ntf    fn417168   6.368   5.504   0.848  0.1134 -0.3888 -0.1980
 2549ntf    on517169   6.462   5.745   0.996 -0.2799  0.5456 -0.0702
 2549ntf    on517170   6.419   5.557   1.138  0.1021 -0.6338 -0.8967
 2549ntf    on517171   6.879   5.493   1.093 -0.1752  0.1368  0.1488
 2549ntf    on517172   6.668   5.391   1.183  0.0046 -0.1332  0.0484
 2549ntf    fn417173   6.861   5.698   1.287 -0.0108 -0.3571 -0.0468
 2549ntf    fn417174   6.663   5.670   1.343 -0.2329 -0.0604  0.1210
 2549ntf    fn417175   6.821   5.528   1.395 -0.0154 -0.1571  0.1589
 2550ntf    cn117176   0.117   6.972   3.478  0.1480 -0.1298 -0.1903
 2550ntf    sn217177   0.298   6.968   3.494  0.1429 -0.1777 -0.1494
 2550ntf    nn317178   0.330   6.947   3.342 -0.1249  0.3085 -0.2719
 2550ntf    sn217179   0.453   7.001   3.261  0.1831  0.4303  0.2754
 2550ntf    cn117180   0.518   6.842   3.202  0.0878  0.4541  0.1076
 2550ntf    fn417181   0.069   6.855   3.440 -0.4223  0.0308  0.0262
 2550ntf    fn417182   0.063   7.001   3.595  0.4685  0.3688 -0.1619
 2550ntf    fn417183   0.074   7.065   3.394  0.3750  0.1519  0.0016
 2550ntf    on517184   0.310   7.100   3.549 -0.5467 -0.0729 -0.2456
 2550ntf    on517185   0.323   6.855   3.581 -0.0374 -0.3606 -0.3331
 2550ntf    on517186   0.571   7.051   3.328  0.5766 -0.2814  0.1262
 2550ntf    on517187   0.419   7.056   3.133 -0.2258 -0.2656  0.0809
 2550ntf    fn417188   0.422   6.757   3.169 -0.2549  0.8511  0.0757
 2550ntf    fn417189   0.585   6.858   3.089  0.1985 -0.2206  0.0709
 2550ntf    fn417190   0.600   6.787   3.290 -0.4855  0.1394  0.4512
 2551ntf    cn117191   3.380   5.216   3.073  0.2612 -0.3480  0.0541
 2551ntf    sn217192   3.235   5.309   3.130  0.1480 -0.5660  0.1254
 2551ntf    nn317193   3.189   5.226   3.255  0.1530 -0.2067  0.3698
 2551ntf    sn217194   3.043   5.172   3.277 -0.1207  0.3326 -0.1081
 2551ntf    cn117195   2.938   5.321   3.269 -0.1669  0.3399  0.5839
 2551ntf    fn417196   3.448   5.278   2.979  0.3802 -0.1031  0.3016
 2551ntf    fn417197   3.465   5.203   3.173  0.1404  0.7547  0.3147
 2551ntf    fn417198   3.350   5.092   3.037 -0.1468 -0.1989 -0.1237
 2551ntf    on517199   3.296   5.435   3.164 -0.0836 -0.3705 -0.1721
 2551ntf    on517200   3.157   5.315   3.009 -0.3941 -0.4518  0.4714
 2551ntf    on517201   3.032   5.125   3.413  0.3011 -0.0890 -0.2182
 2551ntf    on517202   2.997   5.081   3.175  0.0242 -0.1131  0.2256
 2551ntf    fn417203   2.975   5.416   3.354  0.5411  0.3780  0.2358
 2551ntf    fn417204   2.936   5.382   3.152 -0.0206 -1.1291 -0.2095
 2551ntf    fn417205   2.812   5.292   3.299 -0.2881  0.1867 -0.0744
 2552ntf    cn117206   2.363   4.413   0.229 -0.2128  0.0204  0.2546
 2552ntf    sn217207   2.259   4.297   0.135 -0.0336  0.0626  0.0039
 2552ntf    nn317208   2.345   4.170   0.169 -0.3709 -0.1040  0.2459
 2552ntf    sn217209   2.473   4.121   0.090 -0.3509 -0.0474  0.2434
 2552ntf    cn117210   2.401   3.978   0.004 -0.0563 -0.0827  0.0562
 2552ntf    fn417211   2.307   4.533   0.224  0.6234  0.3996 -0.1286
 2552ntf    fn417212   2.389   4.374   0.353 -0.1667 -0.1195  0.2015
 2552ntf    fn417213   2.481   4.428   0.172 -0.0512  0.1161  0.6148
 2552ntf    on517214   2.142   4.285   0.218  0.0105 -0.3375  0.0116
 2552ntf    on517215   2.245   4.333  -0.004  0.4442  0.1062 -0.0368
 2552ntf    on517216   2.568   4.057   0.178 -0.1883  0.1614  0.2196
 2552ntf    on517217   2.527   4.214  -0.005 -1.1798  0.8948  0.6730
 2552ntf    fn417218   2.295   4.013  -0.067  0.2669  0.0900 -0.3441
 2552ntf    fn417219   2.480   3.899  -0.067  0.5331  0.0357  0.5709
 2552ntf    fn417220   2.359   3.897   0.100  0.5500 -0.0623  0.3430
 2553ntf    cn117221   4.722   0.988   0.219 -0.1484  0.0729 -0.1938
 2553ntf    sn217222   4.886   1.001   0.140 -0.2199  0.2310 -0.3143
 2553ntf    nn317223   4.911   1.151   0.180 -0.3256  0.3503 -0.6897
 2553ntf    sn217224   5.036   1.244   0.167  0.2411 -0.2782  0.1650
 2553ntf    cn117225   5.114   1.217   0.329  0.2604  0.3832  0.2686
 2553ntf    fn417226   4.639   1.081   0.176 -0.1599  0.5747  0.8845
 2553ntf    fn417227   4.670   0.867   0.204 -0.4750  0.2031 -0.1217
 2553ntf    fn417228   4.728   0.998   0.351 -0.0683 -0.6591 -0.1372
 2553ntf    on517229   4.961   0.920   0.232 -0.4407  0.3881  0.0069
 2553ntf    on517230   4.867   0.959   0.003  0.1908  0.9470 -0.5930
 2553ntf    on517231   4.995   1.382   0.172 -0.1821 -0.3970 -0.0072
 2553ntf    on517232   5.141   1.209   0.075 -0.1434  0.2285 -0.4733
 2553ntf    fn417233   5.035   1.242   0.433 -0.1216  0.2703  0.0073
 2553ntf    fn417234   5.151   1.092   0.350  0.1008  0.3759  0.5138
 2553ntf    fn417235   5.226   1.287   0.337  0.6074 -0.1873  0.4276
 2554ntf    cn117236   6.968   6.907   6.422 -0.0969 -0.0644  0.5511
 2554ntf    sn217237   6.792   6.924   6.463 -0.1538 -0.1492  0.3425
 2554ntf    nn317238   6.781   7.062   6.537  0.0592  0.3459 -0.5363
 2554ntf    sn217239   6.662   7.120   6.620 -0.0153 -0.4028 -0.1193
 2554ntf    cn117240   6.563   7.201   6.491 -0.2785 -0.6674 -0.0870
 2554ntf    fn417241   7.050   6.945   6.518  0.7820  0.0411 -0.2231
 2554ntf    fn417242   7.005   6.785   6.386 -0.4232 -0.1508  0.5076
 2554ntf    fn417243   6.996   6.978   6.314 -0.6181 -0.2602  0.2819
 2554ntf    on517244   6.732   6.927   6.331 -0.1603  0.3359  0.3525
 2554ntf    on517245   6.764   6.808   6.543 -0.2496 -0.1412  0.3216
 2554ntf    on517246   6.707   7.223   6.711 -0.4602 -0.1769 -0.1512
 2554ntf    on517247   6.573   7.016   6.666 -0.2766 -0.0063  0.2885
 2554ntf    fn417248   6.508   7.120   6.402 -0.1912 -0.4151 -0.3703
 2554ntf    fn417249   6.467   7.272   6.549  0.1669  0.1992 -0.3877
 2554ntf    fn417250   6.639   7.287   6.425 -0.3706 -0.4776  0.0543
 2555ntf    cn117251   0.094   4.835   6.396 -0.0963 -0.0888 -0.1544
 2555ntf    sn217252   0.258   4.798   6.327  0.0025 -0.3461  0.2151
 2555ntf    nn317253   0.342   4.921   6.378  0.3537 -0.2660 -0.5445
 2555ntf    sn217254   0.472   4.914   6.466  0.2807  0.1725 -0.4022
 2555ntf    cn117255   0.429   5.048   6.582  0.0624  0.1643 -0.4734
 2555ntf    fn417256   0.080   4.824   6.527 -0.1249  0.4797 -0.1043
 2555ntf    fn417257   0.055   4.960   6.377 -0.0328  0.0484  0.5854
 2555ntf    fn417258   0.000   4.749   6.360 -0.0451 -0.0772 -0.3144
 2555ntf    on517259   0.277   4.663   6.372 -0.0830 -0.2559  0.5218
 2555ntf    on517260   0.232   4.812   6.186  0.4520  0.3444  0.1912
 2555ntf    on517261   0.590   4.958   6.396  0.5921 -0.0193 -0.0054
 2555ntf    on517262   0.482   4.795   6.547  0.0107  0.1394 -0.4179
 2555ntf    fn417263   0.532   5.056   6.664 -0.4261  0.1943  0.1386
 2555ntf    fn417264   0.419   5.171   6.535 -0.1566  0.3762  0.1222
 2555ntf    fn417265   0.324   5.019   6.658  0.4724  0.2830  0.1427
 2556ntf    cn117266   2.437   0.471   6.510 -0.1093  0.3701  0.0664
 2556ntf    sn217267   2.269   0.501   6.449 -0.0671 -0.1218 -0.3024
 2556ntf    nn317268   2.279   0.399   6.330  0.0518  0.1254 -0.5071
 2556ntf    sn217269   2.254   0.244   6.331 -0.3742  0.1883  0.3367
 2556ntf    cn117270   2.075   0.236   6.360 -0.3741  0.1203  0.3218
 2556ntf    fn417271   2.514   0.459   6.403 -0.0106  0.4445  0.1287
 2556ntf    fn417272   2.493   0.572   6.574  0.6022 -0.1819  0.3273
 2556ntf    fn417273   2.448   0.362   6.584 -0.2654  0.0158 -0.4233
 2556ntf    on517274   2.192   0.457   6.563  0.1311  0.1697 -0.0535
 2556ntf    on517275   2.272   0.643   6.421  0.0975  0.0453  0.5270
 2556ntf    on517276   2.317   0.163   6.432  0.1026  0.4190  0.2284
 2556ntf    on517277   2.279   0.201   6.195  1.0752  0.8216  0.3876
 2556ntf    fn417278   2.015   0.295   6.257  0.3880 -0.0762 -0.2455
 2556ntf    fn417279   2.029   0.113   6.374  0.3379 -0.0333  1.4231
 2556ntf    fn417280   2.032   0.300   6.468  0.2149  0.0882  0.5775
 2557ntf    cn117281   1.357   5.449   5.893  0.3201 -0.2288  0.1258
 2557ntf    sn217282   1.403   5.336   6.029  0.2178 -0.2431  0.1482
 2557ntf    nn317283   1.466   5.431   6.137  0.0385  0.5766 -0.4541
 2557ntf    sn217284   1.619   5.433   6.170  0.0495  0.1920 -0.4751
 2557ntf    cn117285   1.605   5.535   6.320 -0.2334  0.3139 -0.5836
 2557ntf    fn417286   1.313   5.391   5.783  0.9644  0.2183 -0.3749
 2557ntf    fn417287   1.270   5.540   5.932  0.2992 -0.4510  0.6024
 2557ntf    fn417288   1.464   5.513   5.847 -0.2495  0.2039 -0.6025
 2557ntf    on517289   1.273   5.289   6.070  0.0343 -0.1236 -0.2831
 2557ntf    on517290   1.486   5.239   5.961 -0.3050 -0.7172  0.1832
 2557ntf    on517291   1.692   5.500   6.066 -0.4436  0.5637 -0.5854
 2557ntf    on517292   1.675   5.308   6.216 -0.0023  0.2457 -0.2645
 2557ntf    fn417293   1.573   5.662   6.297 -0.5145  0.4333  0.4287
 2557ntf    fn417294   1.506   5.498   6.399  0.1832  0.4080 -0.0066
 2557ntf    fn417295   1.716   5.534   6.393 -0.4141  0.1578 -0.3120
 2558ntf    cn117296   3.138   4.442   5.297  1.1257 -0.3857  0.1095
 2558ntf    sn217297   3.130   4.622   5.280 -0.3249 -0.4448  0.0214
 2558ntf    nn317298   3.050   4.658   5.411 -0.0333 -0.1082  0.1112
 2558ntf    sn217299   2.922   4.744   5.441  0.2185  0.2354  0.2052
 2558ntf    cn117300   2.996   4.909   5.455 -0.0251  0.3545  0.0943
 2558ntf    fn417301   3.170   4.380   5.184 -0.0651 -0.3754 -0.2479
 2558ntf    fn417302   3.227   4.397   5.384  0.4156 -0.4084  0.8371
 2558ntf    fn417303   3.022   4.387   5.329  0.9669 -0.2664 -0.2571
 2558ntf    on517304   3.272   4.649   5.290 -0.3326 -0.3035 -0.2529
 2558ntf    on517305   3.056   4.640   5.158 -0.3694 -0.3036  0.0683
 2558ntf    on517306   2.875   4.721   5.575  0.4562 -0.5507  0.1590
 2558ntf    on517307   2.828   4.753   5.332  0.0301  0.3891  0.3819
 2558ntf    fn417308   2.903   5.001   5.478 -0.3223  0.0487  0.1145
 2558ntf    fn417309   3.085   4.922   5.552  0.0949 -0.7555  0.1405
 2558ntf    fn417310   3.060   4.959   5.351 -0.1049 -0.6587 -0.4534
 2559ntf    cn117311   6.145   0.805   0.634 -0.0081  0.4976  0.1477
 2559ntf    sn217312   6.172   0.806   0.455  0.1533 -0.0204  0.1697
 2559ntf    nn317313   6.056   0.906   0.418 -0.2905 -0.8290 -0.6897
 2559ntf    sn217314   6.059   1.006   0.297 -0.2950 -0.1776 -0.1565
 2559ntf    cn117315   5.997   0.892   0.170 -0.2757 -0.0609 -0.2701
 2559ntf    fn417316   6.226   0.716   0.688 -0.2267  0.1402 -0.1141
 2559ntf    fn417317   6.173   0.924   0.686  0.0275  0.3230  0.5312
 2559ntf    fn417318   6.020   0.777   0.666  0.0913 -0.2594 -0.1120
 2559ntf    on517319   6.306   0.856   0.440  0.2001 -0.2916 -0.3715
 2559ntf    on517320   6.148   0.667   0.423  0.2385 -0.0162  0.0878
 2559ntf    on517321   6.188   1.044   0.244 -0.2635 -0.1032 -0.0296
 2559ntf    on517322   5.954   1.104   0.307 -0.2025 -0.1096  0.1673
 2559ntf    fn417323   5.998   0.956   0.054  0.4239 -0.0048 -0.2370
 2559ntf    fn417324   6.064   0.778   0.156  0.0078  0.0563  0.1207
 2559ntf    fn417325   5.870   0.856   0.173 -0.2298 -0.2327 -0.3945
 2560ntf    cn117326   5.490   0.156   6.373  0.0859 -0.1203 -0.4750
 2560ntf    sn217327   5.636   0.259   6.338  0.4524 -0.4848 -0.0515
 2560ntf    nn317328   5.715   0.222   6.468  0.3811 -0.4927 -0.0110
 2560ntf    sn217329   5.855   0.270   6.521  0.1623  0.3746 -0.1958
 2560ntf    cn117330   5.969   0.176   6.416 -0.1682 -0.3413  0.0706
 2560ntf    fn417331   5.524   0.028   6.373  0.1943 -0.0939 -0.0984
 2560ntf    fn417332   5.434   0.175   6.492 -0.3474 -0.3189 -0.6454
 2560ntf    fn417333   5.386   0.162   6.292 -0.2279 -0.6036 -0.1107
 2560ntf    on517334   5.680   0.193   6.217 -0.4063 -0.1386 -0.5698
 2560ntf    on517335   5.583   0.393   6.323  0.4253 -0.5977 -1.0442
 2560ntf    on517336   5.882   0.212   6.651 -0.2602  0.3506 -0.1160
 2560ntf    on517337   5.891   0.408   6.503  0.0902  0.3994 -0.1526
 2560ntf    fn417338   6.074   0.126   6.479 -0.1108 -0.3918 -0.0640
 2560ntf    fn417339   5.912   0.067   6.367 -0.3314  0.1206 -0.7901
 2560ntf    fn417340   6.011   0.239   6.307 -0.2775 -0.5051 -0.0656
 2561ntf    cn117341   3.918   1.204   6.587  0.0111  0.0913 -0.4640
 2561ntf    sn217342   3.880   1.036   6.645 -0.0265  0.2972  0.1121
 2561ntf    nn317343   3.860   1.081   6.795  0.3639  0.9403 -0.0248
 2561ntf    sn217344   3.952   1.050   6.918 -0.2898 -0.2208  0.1832
 2561ntf    cn117345   3.845   0.937   7.011  0.1780 -0.4515  0.4452
 2561ntf    fn417346   3.934   1.224   6.457 -0.4695 -0.2895 -0.5809
 2561ntf    fn417347   3.827   1.297   6.611  0.1570  0.2507 -0.5221
 2561ntf    fn417348   4.027   1.255   6.643  0.2820 -0.2470 -0.6856
 2561ntf    on517349   3.755   1.021   6.575  0.3713 -0.6204 -0.4061
 2561ntf    on517350   3.991   0.955   6.604  0.2486  0.6618  0.1364
 2561ntf    on517351   3.966   1.168   6.999 -0.1634  0.3339 -0.6353
 2561ntf    on517352   4.067   0.967   6.892 -0.5136 -0.2847 -0.6331
 2561ntf    fn417353   3.887   0.912   7.134  0.1731 -0.2673  0.4844
 2561ntf    fn417354   3.721   0.984   7.016  0.4717  0.3412  0.4871
 2561ntf    fn417355   3.829   0.816   6.960 -0.0707 -0.1120 -0.2967
 2562ntf    cn117356   1.676   4.276   3.918 -0.2192  0.0917 -0.2665
 2562ntf    sn217357   1.618   4.448   3.922 -0.3866  0.0374 -0.3330
 2562ntf    nn317358   1.663   4.491   3.778  0.2535  0.7461  0.0740
 2562ntf    sn217359   1.601   4.461   3.638  0.1918 -0.0970  0.2744
 2562ntf    cn117360   1.501   4.612   3.622 -0.0438 -0.2760  0.0334
 2562ntf    fn417361   1.792   4.249   3.860 -0.3794  0.5563 -0.8106
 2562ntf    fn417362   1.693   4.227   4.040  0.0865  0.2634 -0.2398
 2562ntf    fn417363   1.583   4.202   3.859 -0.4930 -0.3363  0.6848
 2562ntf    on517364   1.475   4.449   3.938 -0.3576  0.0875 -0.0602
 2562ntf    on517365   1.702   4.522   4.014 -0.4817 -0.0046 -0.2115
 2562ntf    on517366   1.516   4.345   3.627  0.3537 -0.1545 -0.4739
 2562ntf    on517367   1.700   4.473   3.534 -0.4274  0.4289 -0.2689
 2562ntf    fn417368   1.468   4.637   3.496  0.5471 -0.1380 -0.0952
 2562ntf    fn417369   1.391   4.621   3.695  0.0535 -1.1332  0.2857
 2562ntf    fn417370   1.560   4.726   3.656 -0.6385 -0.1008  0.5214
 2563ntf    cn117371   4.198   5.780   0.622  0.1561 -0.4563  0.3772
 2563ntf    sn217372   4.343   5.713   0.708  0.5050 -0.1338  0.0516
 2563ntf    nn317373   4.315   5.561   0.679 -0.2004  0.1128 -0.5975
 2563ntf    sn217374   4.305   5.434   0.772  0.2610  0.2111 -0.4081
 2563ntf    cn117375   4.471   5.365   0.750  0.2255  0.0601 -0.1935
 2563ntf    fn417376   4.091   5.713   0.659 -0.0733  0.0470  0.6403
 2563ntf    fn417377   4.183   5.911   0.638  0.0616 -0.3757 -0.3040
 2563ntf    fn417378   4.202   5.749   0.493 -0.5456 -0.1784  0.2815
 2563ntf    on517379   4.456   5.769   0.639  0.5753 -0.3602 -0.0173
 2563ntf    on517380   4.323   5.757   0.844  0.1748 -0.6365  0.1684
 2563ntf    on517381   4.211   5.340   0.716  0.1991 -0.0613  0.1534
 2563ntf    on517382   4.313   5.460   0.913 -0.3682  0.1450 -0.3568
 2563ntf    fn417383   4.559   5.444   0.810 -0.0348  0.0197  0.2438
 2563ntf    fn417384   4.489   5.245   0.803 -0.4660  0.0661  0.0642
 2563ntf    fn417385   4.505   5.358   0.622 -0.2668  0.4218 -0.3461
 2564ntf    cn117386   3.914   4.456   3.355  0.4818  0.1831  0.2862
 2564ntf    sn217387   3.912   4.631   3.305 -0.3098  0.1044  0.0361
 2564ntf    nn317388   3.876   4.702   3.440  0.0941  0.1477  0.1197
 2564ntf    sn217389   3.945   4.835   3.487  0.1486  0.2108 -0.1396
 2564ntf    cn117390   4.070   4.766   3.599 -0.1010  0.0863  0.0635
 2564ntf    fn417391   3.791   4.415   3.383  0.3536  0.3906  0.0321
 2564ntf    fn417392   3.967   4.378   3.263  0.3031  0.4932 -0.0820
 2564ntf    fn417393   3.987   4.435   3.464  0.3532 -0.4670  0.2491
 2564ntf    on517394   4.048   4.645   3.261 -0.2656  0.5154  0.2955
 2564ntf    on517395   3.805   4.628   3.208 -0.5409 -0.1932  0.2946
 2564ntf    on517396   3.849   4.891   3.579  0.5518  0.5798  0.0628
 2564ntf    on517397   4.004   4.914   3.381 -0.3569  0.5089 -0.2028
 2564ntf    fn417398   4.146   4.860   3.652 -0.1723  0.1984 -0.0336
 2564ntf    fn417399   4.020   4.696   3.700  0.0382 -0.1819 -0.0521
 2564ntf    fn417400   4.153   4.679   3.544  0.1190  0.0761  0.4072
 2565ntf    cn117401   4.793   3.867   5.910  0.4090  0.0796 -0.2372
 2565ntf    sn217402   4.672   3.769   6.004  0.2463  0.2375 -0.2815
 2565ntf    nn317403   4.649   3.644   5.912 -0.2082  0.6304 -0.7159
 2565ntf    sn217404   4.520   3.586   5.845 -0.0991 -0.2513 -0.1931
 2565ntf    cn117405   4.545   3.406   5.851 -0.2304 -0.2624  0.0314
 2565ntf    fn417406   4.824   3.989   5.949  0.1891  0.2231 -0.5036
 2565ntf    fn417407   4.911   3.808   5.910 -0.1123 -0.9963  0.3913
 2565ntf    fn417408   4.750   3.876   5.785 -0.2392 -0.7554 -0.0919
 2565ntf    on517409   4.748   3.738   6.122 -0.3909  0.4435  0.1951
 2565ntf    on517410   4.558   3.858   6.011  0.2576  0.2195  0.1735
 2565ntf    on517411   4.517   3.615   5.703 -0.2260 -0.9292 -0.3302
 2565ntf    on517412   4.393   3.592   5.913  0.0008  0.2849 -0.0441
 2565ntf    fn417413   4.544   3.351   5.971 -0.2278 -0.2545  0.0348
 2565ntf    fn417414   4.459   3.338   5.776 -0.4213  0.6672 -0.6114
 2565ntf    fn417415   4.666   3.388   5.801 -0.2110  0.0196 -0.0294
 2566ntf    cn117416   6.154   5.743   2.532  0.0207  0.1390 -0.0200
 2566ntf    sn217417   6.066   5.862   2.425 -0.6348 -0.4230 -0.1077
 2566ntf    nn317418   5.921   5.863   2.486 -0.5849  0.4892  0.0038
 2566ntf    sn217419   5.806   5.764   2.448 -0.2871  0.0769  0.1744
 2566ntf    cn117420   5.709   5.858   2.326 -0.1017 -0.3583 -0.3146
 2566ntf    fn417421   6.161   5.776   2.660 -0.0934 -0.3670  0.1163
 2566ntf    fn417422   6.092   5.627   2.537  0.1752  0.0262 -0.5676
 2566ntf    fn417423   6.277   5.725   2.484 -0.1410 -0.2762 -0.2825
 2566ntf    on517424   6.143   5.982   2.449 -1.0437 -0.2354  0.2808
 2566ntf    on517425   6.079   5.805   2.293 -0.0693  0.5354 -0.4722
 2566ntf    on517426   5.723   5.746   2.565 -0.3467  0.7487  0.2395
 2566ntf    on517427   5.843   5.641   2.382 -0.6031 -0.1453  0.4052
 2566ntf    fn417428   5.776   5.898   2.220 -0.0092  0.2189 -0.0410
 2566ntf    fn417429   5.608   5.789   2.276 -0.2217 -0.4035 -0.0147
 2566ntf    fn417430   5.665   5.967   2.387  0.2137 -0.0451 -0.6441
 2567ntf    cn117431   0.925   1.179   6.923 -0.3221 -0.0032 -0.4940
 2567ntf    sn217432   1.045   1.250   7.039 -0.5200 -0.2246 -0.1506
 2567ntf    nn317433   1.156   1.272   6.930 -0.1337 -0.7949  0.1251
 2567ntf    sn217434   1.308   1.296   6.961 -0.1855 -0.2300 -0.0432
 2567ntf    cn117435   1.388   1.140   6.911  0.2451 -0.1260  0.3106
 2567ntf    fn417436   0.958   1.057   6.884 -0.5869 -0.3184  0.2420
 2567ntf    fn417437   0.805   1.170   6.979 -0.1949 -0.5224 -0.2957
 2567ntf    fn417438   0.916   1.244   6.809 -0.4753  0.0155 -0.4711
 2567ntf    on517439   0.988   1.371   7.093 -0.5662  0.0389 -0.7783
 2567ntf    on517440   1.074   1.142   7.129  0.6474  0.2362  0.0470
 2567ntf    on517441   1.344   1.306   7.101  0.0118 -0.1565 -0.0984
 2567ntf    on517442   1.345   1.402   6.871 -0.5984 -0.4317 -0.4525
 2567ntf    fn417443   1.374   1.044   7.000  0.7778 -0.0933  0.4301
 2567ntf    fn417444   1.330   1.093   6.801  0.7624  0.0241 -0.0310
 2567ntf    fn417445   1.516   1.150   6.881  0.2514 -0.1016  0.3452
 2568ntf    cn117446   0.658   5.159   3.811 -0.6630 -0.0773  0.0373
 2568ntf    sn217447   0.767   5.093   3.681 -0.4575  0.2125  0.0608
 2568ntf    nn317448   0.846   5.217   3.626 -0.1187  0.0340  0.1403
 2568ntf    sn217449   0.808   5.325   3.519  0.1066 -0.3824 -0.3669
 2568ntf    cn117450   0.859   5.251   3.361  0.5531 -0.4777 -0.1785
 2568ntf    fn417451   0.721   5.214   3.913  0.1003 -0.4774 -0.2029
 2568ntf    fn417452   0.574   5.249   3.765 -0.3238  0.4133  0.3706
 2568ntf    fn417453   0.581   5.060   3.852 -0.8711 -0.1923 -0.6115
 2568ntf    on517454   0.861   5.011   3.754 -0.4901  0.1961  0.0848
 2568ntf    on517455   0.680   5.019   3.593 -0.3312  0.1023  0.0272
 2568ntf    on517456   0.890   5.443   3.535  0.3331 -0.5646 -0.1822
 2568ntf    on517457   0.667   5.348   3.500  0.0628 -0.5055 -0.1882
 2568ntf    fn417458   0.982   5.204   3.372  0.3808 -0.7215  0.7567
 2568ntf    fn417459   0.779   5.150   3.330 -0.0863  0.0945 -0.4187
 2568ntf    fn417460   0.868   5.327   3.253  0.3318  0.3442  0.3701
 2569ntf    cn117461   6.027   0.433   5.321 -0.1021  0.0748 -0.0875
 2569ntf    sn217462   6.014   0.398   5.499  0.1552  0.3709 -0.0089
 2569ntf    nn317463   6.091   0.526   5.546 -0.2226  0.6678 -0.1947
 2569ntf    sn217464   6.069   0.603   5.681 -0.0667  0.2538  0.0671
 2569ntf    cn117465   6.201   0.728   5.675  0.4123 -0.2500  0.0910
 2569ntf    fn417466   6.145   0.401   5.270  0.1222  0.1450  0.3865
 2569ntf    fn417467   5.930   0.371   5.256  0.0998 -0.2372 -0.0903
 2569ntf    fn417468   6.009   0.561   5.290  0.3090  0.0433 -0.4701
 2569ntf    on517469   5.874   0.386   5.529  0.1680  0.2342  0.0005
 2569ntf    on517470   6.093   0.280   5.524 -0.2063  0.0109 -0.5300
 2569ntf    on517471   6.096   0.525   5.800 -0.1372 -0.0391 -0.1102
 2569ntf    on517472   5.944   0.676   5.681  0.1192  0.5771 -0.2814
 2569ntf    fn417473   6.200   0.814   5.775  0.3088  0.0351 -0.1535
 2569ntf    fn417474   6.323   0.677   5.683  0.1262 -0.9808 -0.1224
 2569ntf    fn417475   6.189   0.796   5.562  0.3790 -1.1191 -0.4410
 2570ntf    cn117476   6.057   2.353   6.655  0.1899 -0.3876  0.1404
 2570ntf    sn217477   6.175   2.308   6.786  0.0616  0.1524  0.4461
 2570ntf    nn317478   6.087   2.203   6.863 -0.1377  0.2926  0.4111
 2570ntf    sn217479   6.107   2.049   6.889  0.0187  0.2702  0.1639
 2570ntf    cn117480   5.936   1.991   6.899  0.0857 -0.0060 -0.2680
 2570ntf    fn417481   6.067   2.270   6.553  0.1599 -0.1825 -0.0288
 2570ntf    fn417482   5.934   2.342   6.703  0.0904  0.0490 -0.0128
 2570ntf    fn417483   6.074   2.476   6.610 -0.6719 -0.3527 -0.1065
 2570ntf    on517484   6.293   2.258   6.720 -0.0017 -0.0320  0.4713
 2570ntf    on517485   6.199   2.431   6.858  0.3709  0.1797  0.3002
 2570ntf    on517486   6.160   2.018   7.020 -0.5672  0.4795  0.4516
 2570ntf    on517487   6.152   1.980   6.771  0.0055 -0.1124  0.3795
 2570ntf    fn417488   5.861   2.055   6.988  0.5000  0.9715 -0.6160
 2570ntf    fn417489   5.872   1.996   6.783  0.5008  0.3000 -0.4874
 2570ntf    fn417490   5.927   1.861   6.924  0.4948 -0.0883 -0.5496
 2571ntf    cn117491   1.659   3.453   3.064 -0.2073 -0.0369 -0.2234
 2571ntf    sn217492   1.560   3.459   3.217  0.1334  0.2534 -0.0115
 2571ntf    nn317493   1.418   3.467   3.150 -0.1354 -0.3572  0.4796
 2571ntf    sn217494   1.303   3.570   3.178  0.0393 -0.0595  0.1148
 2571ntf    cn117495   1.349   3.704   3.065  0.2791  0.1254  0.4284
 2571ntf    fn417496   1.787   3.471   3.093 -0.3575  0.3280  0.2490
 2571ntf    fn417497   1.646   3.335   3.007  0.3802 -0.2754  0.1261
 2571ntf    fn417498   1.627   3.545   2.974  0.0340  0.2105 -0.0600
 2571ntf    on517499   1.580   3.330   3.278  0.0281  0.2205 -0.0456
 2571ntf    on517500   1.615   3.571   3.290  0.3058  0.1513  0.0158
 2571ntf    on517501   1.302   3.624   3.312  0.0712 -0.3478  0.2315
 2571ntf    on517502   1.178   3.534   3.116  0.5255 -1.0536 -0.3133
 2571ntf    fn417503   1.478   3.731   3.076  0.2994  0.2441 -0.0456
 2571ntf    fn417504   1.330   3.666   2.939 -0.1175  1.0695  0.1981
 2571ntf    fn417505   1.289   3.821   3.078  0.1781  0.0832  0.3489
 2572ntf    cn117506   1.518   0.659   1.562  0.4138 -0.1793 -0.1697
 2572ntf    sn217507   1.517   0.811   1.661  0.1963 -0.4393  0.2329
 2572ntf    nn317508   1.423   0.905   1.577 -0.8411 -1.1742  0.5568
 2572ntf    sn217509   1.271   0.900   1.540 -0.7094  0.0939 -0.2081
 2572ntf    cn117510   1.231   1.077   1.550 -0.0442  0.2506 -0.2790
 2572ntf    fn417511   1.395   0.617   1.536  0.2623  0.2774 -0.1919
 2572ntf    fn417512   1.595   0.680   1.457  0.3078 -0.3892 -0.2890
 2572ntf    fn417513   1.570   0.549   1.616 -0.4299 -0.1608  0.7180
 2572ntf    on517514   1.458   0.779   1.788 -0.0872  0.0137  0.2175
 2572ntf    on517515   1.656   0.849   1.666  0.0585 -0.0093  1.0265
 2572ntf    on517516   1.187   0.851   1.646 -0.0998 -0.5109  0.0035
 2572ntf    on517517   1.238   0.865   1.404  0.2817  0.9131 -0.6724
 2572ntf    fn417518   1.247   1.131   1.431  0.3676  0.0237 -0.3263
 2572ntf    fn417519   1.109   1.105   1.593  0.2558 -0.4260  1.0589
 2572ntf    fn417520   1.313   1.137   1.635  0.1870 -0.2598 -0.1403
 2573ntf    cn117521   2.425   4.570   4.999  0.3847  0.2935  0.1050
 2573ntf    sn217522   2.273   4.567   4.899  0.3259  0.3854  0.1892
 2573ntf    nn317523   2.229   4.420   4.931 -0.6905  0.5345 -0.4612
 2573ntf    sn217524   2.108   4.380   5.023 -0.2876  0.5298  0.0716
 2573ntf    cn117525   2.164   4.434   5.187  0.0553 -0.2323  0.2105
 2573ntf    fn417526   2.388   4.582   5.126  0.9290 -0.4375  0.3337
 2573ntf    fn417527   2.505   4.466   4.987  0.7415  0.4618  0.9257
 2573ntf    fn417528   2.500   4.677   4.979  0.2512  0.4883  0.6112
 2573ntf    on517529   2.201   4.678   4.955 -0.1803  0.0388  0.2276
 2573ntf    on517530   2.330   4.588   4.768 -0.4458  0.0920 -0.1976
 2573ntf    on517531   2.095   4.237   5.037  0.0443  0.5007  0.1124
 2573ntf    on517532   1.986   4.452   5.000 -0.1981  0.6735  0.0419
 2573ntf    fn417533   2.167   4.565   5.206 -0.3675 -0.1338 -0.3980
 2573ntf    fn417534   2.084   4.382   5.279 -0.1980 -0.0250  0.1084
 2573ntf    fn417535   2.285   4.386   5.212  0.2780 -0.0009 -0.4054
 2574ntf    cn117536   0.283   3.279   3.780 -0.0608  0.3242  0.3609
 2574ntf    sn217537   0.145   3.214   3.879 -0.0645  0.1310  0.2300
 2574ntf    nn317538   0.203   3.234   4.024 -0.0704 -0.0297  0.2552
 2574ntf    sn217539   0.280   3.132   4.114 -0.3264 -0.3038  0.1661
 2574ntf    cn117540   0.140   3.063   4.206 -0.2041 -0.6155  0.1190
 2574ntf    fn417541   0.256   3.284   3.650  0.6926  0.0281  0.1853
 2574ntf    fn417542   0.328   3.399   3.813 -0.1276  0.4465  0.0165
 2574ntf    fn417543   0.389   3.200   3.785 -0.2379  0.0863  0.3909
 2574ntf    on517544   0.039   3.310   3.862 -0.0725  0.0224 -0.3560
 2574ntf    on517545   0.123   3.079   3.835  0.9167 -0.1567  0.5906
 2574ntf    on517546   0.360   3.201   4.212 -0.5222  0.3525 -0.1303
 2574ntf    on517547   0.339   3.021   4.043 -0.1020 -0.3354  0.3971
 2574ntf    fn417548   0.168   2.978   4.304  0.8068 -0.3895  0.0349
 2574ntf    fn417549   0.070   3.163   4.257  0.4101 -0.3762  0.5033
 2574ntf    fn417550   0.065   2.993   4.122 -0.2446 -0.3112 -0.0974
 2575ntf    cn117551   0.806   0.905   5.200  0.1417 -0.1370  0.1370
 2575ntf    sn217552   0.748   0.800   5.063 -0.1803 -0.0229  0.1844
 2575ntf    nn317553   0.621   0.723   5.114 -0.4463  0.4033  0.1613
 2575ntf    sn217554   0.529   0.620   5.039 -0.1283  0.1838  0.0729
 2575ntf    cn117555   0.386   0.726   5.003 -0.4032 -0.1536  0.1735
 2575ntf    fn417556   0.922   0.965   5.180  0.0728  0.1626  0.6289
 2575ntf    fn417557   0.718   1.000   5.226 -0.1115 -0.2025 -0.4510
 2575ntf    fn417558   0.821   0.839   5.313 -0.8095  0.0129  0.3541
 2575ntf    on517559   0.723   0.897   4.960 -0.5349  0.0842  0.3696
 2575ntf    on517560   0.862   0.714   5.038 -0.1816  0.2527 -0.8056
 2575ntf    on517561   0.475   0.511   5.116 -0.0452 -0.0113 -0.1453
 2575ntf    on517562   0.573   0.584   4.907  0.0880  0.1847  0.1430
 2575ntf    fn417563   0.343   0.792   5.109  0.6262  0.9321 -0.0618
 2575ntf    fn417564   0.418   0.824   4.921  0.0611 -0.2134  0.2825
 2575ntf    fn417565   0.282   0.673   4.940 -0.1480 -0.0141 -0.3678
 2576ntf    cn117566   2.299   3.250   4.197  0.0745  0.0161  0.3065
 2576ntf    sn217567   2.235   3.420   4.193 -0.0574 -0.0354  0.2257
 2576ntf    nn317568   2.290   3.463   4.052 -0.0289  0.3223  0.3455
 2576ntf    sn217569   2.228   3.433   3.911  0.1676  0.2120  0.2825
 2576ntf    cn117570   2.160   3.597   3.870  0.0150  0.0463 -0.1386
 2576ntf    fn417571   2.430   3.245   4.218  0.0342 -0.0622  0.5465
 2576ntf    fn417572   2.241   3.173   4.288 -0.0740  0.5421  0.6607
 2576ntf    fn417573   2.273   3.189   4.083  0.7567  0.0196  0.1429
 2576ntf    on517574   2.094   3.401   4.211  0.0193 -0.5949  0.2429
 2576ntf    on517575   2.311   3.482   4.299 -0.1051 -0.7707  0.6979
 2576ntf    on517576   2.113   3.347   3.904  0.4816 -0.1640 -0.3638
 2576ntf    on517577   2.332   3.411   3.813  0.1993 -0.0157  0.3665
 2576ntf    fn417578   2.263   3.679   3.882  0.1644 -0.1721  0.0947
 2576ntf    fn417579   2.111   3.612   3.749 -0.2328 -0.0482 -0.0502
 2576ntf    fn417580   2.064   3.635   3.953 -0.3981 -0.6600 -0.2922
 2577ntf    cn117581   1.564   0.826   6.917 -0.5957 -0.0229 -0.1182
 2577ntf    sn217582   1.508   0.700   7.036  0.3511 -0.1770  0.1735
 2577ntf    nn317583   1.619   0.696   7.147  0.5202  0.0939  0.0160
 2577ntf    sn217584   1.607   0.745   7.295 -0.0088 -0.0194  0.0103
 2577ntf    cn117585   1.532   0.601   7.378  0.0941  0.0976  0.3070
 2577ntf    fn417586   1.674   0.785   6.855 -0.2507  0.1324  0.3842
 2577ntf    fn417587   1.481   0.862   6.820 -0.4707  0.4592 -0.0485
 2577ntf    fn417588   1.601   0.938   6.976 -0.1454 -0.0213 -0.3966
 2577ntf    on517589   1.379   0.751   7.074  0.3795  0.1072 -0.1055
 2577ntf    on517590   1.502   0.580   6.958 -0.4932 -0.2064  0.2747
 2577ntf    on517591   1.529   0.864   7.317 -0.3656 -0.2105 -0.2064
 2577ntf    on517592   1.738   0.743   7.355  0.0639 -0.2764 -0.1539
 2577ntf    fn417593   1.498   0.624   7.504 -0.7195  0.9584 -0.0576
 2577ntf    fn417594   1.421   0.566   7.314  0.1276  0.5712 -0.0177
 2577ntf    fn417595   1.612   0.496   7.378  0.2977  0.2445 -0.4637
 2578ntf    cn117596   4.564   0.420   0.119  0.1504  0.0082 -0.2555
 2578ntf    sn217597   4.469   0.265   0.128 -0.2388  0.2615  0.0028
 2578ntf    nn317598   4.525   0.194   0.000 -0.8991 -0.2778  0.0101
 2578ntf    sn217599   4.471   0.192  -0.147 -0.2454 -0.3415 -0.2324
 2578ntf    cn117600   4.547   0.033  -0.193  0.0308 -0.2624 -0.0480
 2578ntf    fn417601   4.680   0.407   0.182 -0.0521 -0.7796 -0.0353
 2578ntf    fn417602   4.591   0.468  -0.001  0.3451  0.0268 -0.2042
 2578ntf    fn417603   4.494   0.515   0.177 -0.0600 -0.0762 -0.3711
 2578ntf    on517604   4.516   0.205   0.250 -0.4813 -0.0445 -0.0548
 2578ntf    on517605   4.329   0.299   0.118 -0.0870  0.7445 -0.5787
 2578ntf    on517606   4.528   0.291  -0.234 -0.0140  0.2270  0.5596
 2578ntf    on517607   4.331   0.160  -0.164 -0.3644  0.1186 -0.1248
 2578ntf    fn417608   4.483  -0.068  -0.137 -0.1923 -0.3752 -0.4999
 2578ntf    fn417609   4.534   0.022  -0.325 -0.1898  0.3845 -0.0831
 2578ntf    fn417610   4.674   0.019  -0.158 -0.0080  0.0059  0.2006
 2579ntf    cn117611   4.893   4.984   0.358  0.2299 -0.0603 -0.1192
 2579ntf    sn217612   5.007   5.064   0.474 -0.2708  0.2980  0.1285
 2579ntf    nn317613   5.082   5.147   0.364 -0.1151 -0.3995 -0.2993
 2579ntf    sn217614   5.225   5.212   0.369 -0.2071 -0.2098 -0.0615
 2579ntf    cn117615   5.169   5.379   0.412  0.3718  0.0634 -0.3606
 2579ntf    fn417616   4.842   4.872   0.406  0.5470  0.0192  0.4059
 2579ntf    fn417617   4.791   5.057   0.316  0.2932  0.1187  0.0371
 2579ntf    fn417618   4.958   4.952   0.247  0.6784  0.6972 -0.0790
 2579ntf    on517619   4.926   5.144   0.562  0.2799  0.7533  0.2279
 2579ntf    on517620   5.085   4.954   0.525  0.0522  0.0781 -0.8123
 2579ntf    on517621   5.285   5.226   0.238 -0.4992 -0.5632 -0.2370
 2579ntf    on517622   5.300   5.153   0.476 -0.2257 -0.4988 -0.2050
 2579ntf    fn417623   5.098   5.372   0.523 -0.1625  0.7532 -0.6535
 2579ntf    fn417624   5.276   5.454   0.434  0.0226  0.4504  0.0321
 2579ntf    fn417625   5.091   5.440   0.324 -0.2926  0.0609  0.2111
 2580ntf    cn117626   0.756   0.828   2.231 -0.3653  0.2731  0.0361
 2580ntf    sn217627   0.877   0.713   2.158 -0.1377  0.5550 -0.0356
 2580ntf    nn317628   0.888   0.610   2.276  0.9957  0.9176  0.1852
 2580ntf    sn217629   1.013   0.518   2.300  0.1899 -0.2112  0.1344
 2580ntf    cn117630   0.928   0.365   2.348 -0.1082 -0.1154 -0.0817
 2580ntf    fn417631   0.633   0.783   2.221 -0.0585 -0.5194 -0.2117
 2580ntf    fn417632   0.771   0.855   2.360 -0.1470  0.0706  0.0549
 2580ntf    fn417633   0.756   0.945   2.170 -0.2458  0.1544 -0.1908
 2580ntf    on517634   0.813   0.664   2.038  0.2872  0.0380 -0.0526
 2580ntf    on517635   0.984   0.803   2.125  0.0098  0.5006  0.2923
 2580ntf    on517636   1.096   0.557   2.411  0.7003 -0.0304 -0.3107
 2580ntf    on517637   1.081   0.493   2.176  0.3011 -0.0845  0.1701
 2580ntf    fn417638   0.841   0.374   2.448  0.5542  0.3664  0.4630
 2580ntf    fn417639   0.853   0.317   2.250 -0.0541 -0.0491 -0.1554
 2580ntf    fn417640   1.013   0.271   2.386 -0.4066 -0.1822  0.4275
 2581ntf    cn117641   1.501   5.213   6.848  0.2840 -0.2117  0.2521
 2581ntf    sn217642   1.458   5.050   6.918 -0.1750 -0.1757  0.0582
 2581ntf    nn317643   1.454   5.075   7.073  0.1420 -0.6183  0.1373
 2581ntf    sn217644   1.576   5.101   7.169  0.1381 -0.0468 -0.0088
 2581ntf    cn117645   1.542   5.004   7.319  0.0027  0.4090  0.2590
 2581ntf    fn417646   1.628   5.218   6.813  0.2371 -0.5522  0.0256
 2581ntf    fn417647   1.441   5.215   6.730  0.0155  0.1141  0.3911
 2581ntf    fn417648   1.474   5.326   6.911 -0.3477  0.0608 -0.4860
 2581ntf    on517649   1.327   5.013   6.871 -0.0181  0.1450 -0.6472
 2581ntf    on517650   1.564   4.965   6.871  0.4956  0.8155 -0.2578
 2581ntf    on517651   1.567   5.239   7.210  0.0923  0.0476 -0.3360
 2581ntf    on517652   1.707   5.055   7.132  0.0144  0.0809 -0.6151
 2581ntf    fn417653   1.518   4.875   7.301 -0.4509  0.5492 -0.1850
 2581ntf    fn417654   1.640   5.027   7.405  0.5095  0.2545 -0.2706
 2581ntf    fn417655   1.430   5.043   7.377 -0.3502 -0.4724  0.1890
 2582ntf    cn117656   1.149   0.007   6.725  0.1812  0.1428  0.3396
 2582ntf    sn217657   1.230   0.103   6.856  0.3439  0.0796  0.2855
 2582ntf    nn317658   1.373   0.042   6.834  0.1172 -0.2310 -0.3277
 2582ntf    sn217659   1.453  -0.056   6.927  0.1456  0.0351 -0.0705
 2582ntf    cn117660   1.539   0.060   7.037  0.3209 -0.1389 -0.0230
 2582ntf    fn417661   1.215  -0.005   6.611 -0.0037 -0.3337  0.2800
 2582ntf    fn417662   1.116  -0.117   6.759 -0.3029  0.2216  0.1691
 2582ntf    fn417663   1.034   0.060   6.689  0.2545 -0.2884 -0.5506
 2582ntf    on517664   1.224   0.238   6.806 -0.1785  0.2712  0.8534
 2582ntf    on517665   1.166   0.073   6.982  0.5075 -0.5148  0.2297
 2582ntf    on517666   1.560  -0.116   6.850  0.0299 -0.0216 -0.1892
 2582ntf    on517667   1.374  -0.141   7.012 -0.2695  0.5283  0.0350
 2582ntf    fn417668   1.468   0.124   7.129 -0.2103 -0.5314 -0.1577
 2582ntf    fn417669   1.643   0.002   7.095 -0.0392 -0.4550  0.3115
 2582ntf    fn417670   1.592   0.157   6.964  0.4405 -0.1549  0.0422
 2583ntf    cn117671   1.331   2.832   3.496 -0.1449  0.3689 -0.2942
 2583ntf    sn217672   1.285   2.764   3.334  0.1480  0.1045 -0.2670
 2583ntf    nn317673   1.354   2.624   3.347  0.3309  0.2050 -0.1503
 2583ntf    sn217674   1.424   2.535   3.238 -0.0665 -0.2109 -0.0669
 2583ntf    cn117675   1.587   2.614   3.240  0.0167 -0.4011  0.6394
 2583ntf    fn417676   1.269   2.943   3.532 -0.1638  0.2982 -0.1035
 2583ntf    fn417677   1.302   2.756   3.601 -0.5283  0.6624 -0.1847
 2583ntf    fn417678   1.459   2.865   3.494  0.0411 -0.3195 -0.1213
 2583ntf    on517679   1.142   2.749   3.344  0.2177 -0.2464  0.2062
 2583ntf    on517680   1.344   2.846   3.231  0.8889 -0.2863 -0.1600
 2583ntf    on517681   1.369   2.529   3.104  0.1950 -0.6618 -0.1560
 2583ntf    on517682   1.456   2.405   3.291 -0.0281 -0.1583  0.0397
 2583ntf    fn417683   1.589   2.746   3.249  0.4969 -0.3669  0.0339
 2583ntf    fn417684   1.662   2.579   3.344  0.4998 -0.0235  0.4231
 2583ntf    fn417685   1.658   2.589   3.132 -0.5732  0.4604  0.0397
 2584ntf    cn117686   0.540   0.537   3.952 -0.2666  0.1480 -0.6125
 2584ntf    sn217687   0.654   0.502   4.090 -0.5848  0.1333 -0.3508
 2584ntf    nn317688   0.633   0.636   4.169 -0.3660  0.1420 -0.3067
 2584ntf    sn217689   0.699   0.777   4.148 -0.0427  0.0871  0.3084
 2584ntf    cn117690   0.758   0.802   4.318 -0.2036  0.3518  0.3260
 2584ntf    fn417691   0.570   0.646   3.884  0.0293  0.4238 -0.0518
 2584ntf    fn417692   0.540   0.435   3.869  0.4195 -0.6055  0.2826
 2584ntf    fn417693   0.414   0.558   3.986 -0.0449  0.7080 -0.1099
 2584ntf    on517694   0.602   0.387   4.159  0.0456  0.3441  0.4870
 2584ntf    on517695   0.786   0.476   4.038 -0.8492 -0.1363 -0.9030
 2584ntf    on517696   0.601   0.882   4.133  0.1699  0.3124  0.4949
 2584ntf    on517697   0.813   0.782   4.060  0.0684  0.4008  0.4706
 2584ntf    fn417698   0.825   0.916   4.333  0.4289 -0.0568  0.6240
 2584ntf    fn417699   0.656   0.813   4.400 -0.3216 -0.0524  0.2347
 2584ntf    fn417700   0.834   0.707   4.370 -0.3781 -0.1364 -0.2965
 2585ntf    cn117701   1.717   3.476   6.477  0.1741  0.1570 -0.2036
 2585ntf    sn217702   1.738   3.618   6.589  0.0595 -0.0622  0.0960
 2585ntf    nn317703   1.747   3.739   6.490  0.8210 -0.2671 -0.0860
 2585ntf    sn217704   1.848   3.859   6.489  0.2301  0.2319 -0.3115
 2585ntf    cn117705   1.748   4.011   6.503  0.2777  0.2199  0.1598
 2585ntf    fn417706   1.624   3.489   6.384  0.0517  0.5095 -0.0332
 2585ntf    fn417707   1.833   3.456   6.418 -0.1037 -0.7609 -0.4598
 2585ntf    fn417708   1.692   3.359   6.533  0.3001  0.3187  0.2000
 2585ntf    on517709   1.623   3.621   6.677  0.2542 -0.6934  0.3780
 2585ntf    on517710   1.866   3.578   6.641  0.1697  0.4703  0.2331
 2585ntf    on517711   1.887   3.875   6.351  0.2683  0.8021 -0.2394
 2585ntf    on517712   1.942   3.878   6.596  0.1569  0.4150 -0.2789
 2585ntf    fn417713   1.672   4.010   6.611 -0.0583 -0.1404 -0.0771
 2585ntf    fn417714   1.812   4.123   6.532 -0.0653  0.4092  0.1767
 2585ntf    fn417715   1.663   4.025   6.403  0.0578 -0.0117  0.3132
 2586ntf    cn117716   3.037   2.520   3.677 -0.0930 -0.6289  0.0993
 2586ntf    sn217717   2.873   2.564   3.613  0.0360  0.1232  0.2778
 2586ntf    nn317718   2.814   2.631   3.742  0.2331 -0.1388  0.5051
 2586ntf    sn217719   2.773   2.779   3.777 -0.0541 -0.0672 -0.1251
 2586ntf    cn117720   2.605   2.760   3.844 -0.0364 -0.1596 -0.1065
 2586ntf    fn417721   3.017   2.434   3.775  0.3255 -0.6251  0.1920
 2586ntf    fn417722   3.112   2.466   3.582  0.2316  0.4159 -0.2525
 2586ntf    fn417723   3.106   2.618   3.735 -0.2451 -0.7780  0.5411
 2586ntf    on517724   2.910   2.656   3.508 -0.3308 -0.0445  0.0013
 2586ntf    on517725   2.805   2.443   3.576  0.0112  0.3386 -0.4000
 2586ntf    on517726   2.761   2.871   3.667 -0.0300 -0.0076 -0.0781
 2586ntf    on517727   2.833   2.823   3.900 -0.2292  0.2458 -0.1524
 2586ntf    fn417728   2.519   2.745   3.745 -0.8878 -0.3281  0.6487
 2586ntf    fn417729   2.611   2.657   3.927 -0.3361  0.5282  0.7766
 2586ntf    fn417730   2.566   2.852   3.929  0.2383 -0.3187  0.1936
 2587ntf    cn117731   4.144   2.016   4.789 -0.4424 -0.2088 -0.0276
 2587ntf    sn217732   4.246   1.877   4.731 -0.2862 -0.1430  0.0862
 2587ntf    nn317733   4.378   1.913   4.807 -0.1897  0.7210 -0.4710
 2587ntf    sn217734   4.515   1.954   4.742  0.1694  0.3196  0.0283
 2587ntf    cn117735   4.568   1.788   4.690  0.1665  0.2027  0.3925
 2587ntf    fn417736   4.219   2.107   4.850  0.4797 -0.7670 -0.3134
 2587ntf    fn417737   4.090   2.083   4.689 -0.0297  0.2529  0.0534
 2587ntf    fn417738   4.050   1.977   4.873  0.0043 -0.3685  0.4093
 2587ntf    on517739   4.180   1.761   4.783  0.3082 -0.2379  0.6368
 2587ntf    on517740   4.248   1.888   4.587  0.4030 -0.8067  0.0400
 2587ntf    on517741   4.607   1.995   4.846  0.2222  0.3492 -0.0301
 2587ntf    on517742   4.515   2.039   4.626 -0.4090  0.8336  0.4017
 2587ntf    fn417743   4.484   1.746   4.596  0.8945  0.2011 -0.2721
 2587ntf    fn417744   4.691   1.783   4.641  0.1975  0.3010  0.4607
 2587ntf    fn417745   4.544   1.698   4.784  0.2083  0.4416  0.6306
 2588ntf    cn117746   3.758   2.695   5.789 -0.1442  0.1191  0.0051
 2588ntf    sn217747   3.678   2.756   5.940 -0.1834 -0.2354  0.1280
 2588ntf    nn317748   3.539   2.684   5.941 -0.0227 -0.5491 -0.3127
 2588ntf    sn217749   3.461   2.635   6.068  0.0289  0.0173 -0.0624
 2588ntf    cn117750   3.518   2.464   6.085 -0.1643 -0.0526 -0.1143
 2588ntf    fn417751   3.675   2.685   5.686 -0.0472 -0.1808 -0.0444
 2588ntf    fn417752   3.860   2.766   5.743 -0.2259  0.4048  0.2630
 2588ntf    fn417753   3.800   2.571   5.803  0.3068  0.2835  0.1120
 2588ntf    on517754   3.773   2.710   6.038  0.6077 -0.1891 -0.6073
 2588ntf    on517755   3.674   2.897   5.909 -0.5138 -0.3255 -0.2425
 2588ntf    on517756   3.318   2.630   6.047  0.0370  0.3263 -0.1939
 2588ntf    on517757   3.491   2.700   6.193  0.1407 -0.4153  0.1372
 2588ntf    fn417758   3.647   2.445   6.062 -0.0956  0.0963  0.1479
 2588ntf    fn417759   3.512   2.425   6.212  1.2993  0.3353  0.1002
 2588ntf    fn417760   3.457   2.374   6.009 -0.3241 -0.5184  0.5505
 2589ntf    cn117761   5.712   0.536   1.146  0.2352 -0.6689 -0.2672
 2589ntf    sn217762   5.811   0.530   1.298 -0.0198  0.0519 -0.0713
 2589ntf    nn317763   5.946   0.514   1.220 -0.3499  0.0174 -0.6421
 2589ntf    sn217764   6.061   0.621   1.206  0.0767 -0.3044  0.2891
 2589ntf    cn117765   6.208   0.523   1.162  0.1384  0.0971 -0.4123
 2589ntf    fn417766   5.741   0.445   1.054 -0.0372 -0.7083 -0.3147
 2589ntf    fn417767   5.584   0.512   1.170  0.0829  0.9112  0.6242
 2589ntf    fn417768   5.721   0.656   1.091 -0.0487 -0.3676  0.3394
 2589ntf    on517769   5.783   0.653   1.369  0.0642  0.4383 -0.7077
 2589ntf    on517770   5.774   0.404   1.357  0.3975  0.0146  0.1169
 2589ntf    on517771   6.104   0.689   1.325  0.0163 -0.2967  0.3062
 2589ntf    on517772   6.046   0.704   1.089  0.4486 -1.0468 -0.2956
 2589ntf    fn417773   6.307   0.607   1.137 -0.0651  0.4249 -0.1338
 2589ntf    fn417774   6.240   0.445   1.264  0.2539  0.2781 -0.3096
 2589ntf    fn417775   6.189   0.454   1.051 -0.1432  0.1045 -0.3685
 2590ntf    cn117776   5.194   5.221   6.062  0.0906 -0.2370  0.1752
 2590ntf    sn217777   5.336   5.129   5.996  0.0269 -0.0303 -0.2527
 2590ntf    nn317778   5.411   5.091   6.128 -0.2222  0.4440  0.0286
 2590ntf    sn217779   5.515   5.173   6.212  0.0199  0.1421  0.0270
 2590ntf    cn117780   5.411   5.244   6.343 -0.4692  0.5695 -0.5890
 2590ntf    fn417781   5.236   5.337   6.110  0.5243 -0.3671  0.1044
 2590ntf    fn417782   5.103   5.244   5.968  0.0186 -0.3849  0.2071
 2590ntf    fn417783   5.126   5.153   6.153 -0.1001 -0.1509  0.0984
 2590ntf    on517784   5.265   5.013   5.945 -0.2867 -0.0966  0.3214
 2590ntf    on517785   5.401   5.218   5.903 -0.3373  0.1794 -0.3115
 2590ntf    on517786   5.572   5.290   6.149 -0.0880 -0.0106 -0.3567
 2590ntf    on517787   5.601   5.086   6.288 -0.4635 -0.0914  0.3094
 2590ntf    fn417788   5.475   5.350   6.391  0.0307  0.2710 -0.5882
 2590ntf    fn417789   5.293   5.286   6.300 -0.4551  0.7232 -0.4788
 2590ntf    fn417790   5.392   5.158   6.441  0.1842  0.2765 -0.7140
 2591ntf    cn117791   6.615   2.983   2.692  0.1165 -0.2987  0.1329
 2591ntf    sn217792   6.776   2.904   2.721  0.1946 -0.1696  0.0522
 2591ntf    nn317793   6.860   3.036   2.727  0.3141 -0.2622  0.4300
 2591ntf    sn217794   7.006   3.081   2.691  0.1321  0.0024  0.0218
 2591ntf    cn117795   7.077   3.064   2.857  0.7565  0.0017 -0.2440
 2591ntf    fn417796   6.608   3.062   2.586 -0.1586  0.0612  0.4174
 2591ntf    fn417797   6.518   2.895   2.672  0.4274 -0.4551 -0.7241
 2591ntf    fn417798   6.576   3.059   2.793  0.0054 -0.4298  0.1889
 2591ntf    on517799   6.772   2.832   2.846 -0.4762  0.0443  0.1576
 2591ntf    on517800   6.799   2.828   2.600  0.1144 -0.0516 -0.0370
 2591ntf    on517801   7.005   3.223   2.663  0.1494 -0.0273 -0.1303
 2591ntf    on517802   7.080   2.994   2.604  0.4844  0.4720 -0.1558
 2591ntf    fn417803   7.003   3.136   2.939  0.5872 -0.6740  0.2046
 2591ntf    fn417804   7.067   2.941   2.907  0.2480 -0.1705 -0.7544
 2591ntf    fn417805   7.200   3.111   2.871  0.6182  0.2835  0.0137
 2592ntf    cn117806   3.725   5.629   6.539 -0.0163  0.0255  0.1003
 2592ntf    sn217807   3.690   5.708   6.380  0.3167  0.1557  0.0914
 2592ntf    nn317808   3.534   5.688   6.373  0.3814 -0.4943  0.4807
 2592ntf    sn217809   3.456   5.572   6.303 -0.0702  0.0713  0.0375
 2592ntf    cn117810   3.331   5.540   6.431 -0.1012  0.1959  0.0394
 2592ntf    fn417811   3.851   5.591   6.554 -0.1855 -0.3735  0.5601
 2592ntf    fn417812   3.698   5.711   6.639 -0.2339 -0.2066  0.2355
 2592ntf    fn417813   3.654   5.517   6.551  0.0697 -0.0456 -0.0601
 2592ntf    on517814   3.735   5.844   6.403  0.2564  0.2114 -0.1150
 2592ntf    on517815   3.768   5.623   6.294  0.2850 -0.1331  0.3502
 2592ntf    on517816   3.516   5.442   6.284  0.3935  0.1430  0.9601
 2592ntf    on517817   3.368   5.620   6.199  0.0671  0.6705  0.1933
 2592ntf    fn417818   3.261   5.431   6.405  0.3290  0.1250 -0.8471
 2592ntf    fn417819   3.403   5.525   6.541 -0.3259 -0.6441  0.0773
 2592ntf    fn417820   3.235   5.630   6.446  0.1317  0.4837 -0.1917
 2593ntf    cn117821   0.062   4.607   5.478 -0.3554  0.5152  0.1984
 2593ntf    sn217822   0.055   4.671   5.308  0.2840  0.6306  0.2103
 2593ntf    nn317823   0.161   4.572   5.247  0.0903  0.6930 -0.2323
 2593ntf    sn217824   0.311   4.598   5.209  0.2398  0.0125 -0.1128
 2593ntf    cn117825   0.290   4.715   5.072 -0.2021  0.2780  0.1802
 2593ntf    fn417826  -0.047   4.640   5.545 -0.5185  0.3145  0.0333
 2593ntf    fn417827   0.072   4.475   5.490  0.4047  0.5735  0.2654
 2593ntf    fn417828   0.161   4.656   5.551  0.0911  0.0055 -0.0517
 2593ntf    on517829  -0.080   4.643   5.264  0.6498 -0.1780 -0.4292
 2593ntf    on517830   0.096   4.809   5.317  0.0238  0.6720  0.7924
 2593ntf    on517831   0.375   4.481   5.154  0.5120  0.3953 -0.6140
 2593ntf    on517832   0.382   4.676   5.307  0.0481  0.0304  0.0126
 2593ntf    fn417833   0.183   4.676   5.005  0.0652 -0.5934  0.2469
 2593ntf    fn417834   0.269   4.841   5.107 -0.0972  0.2022  0.5211
 2593ntf    fn417835   0.382   4.712   4.977 -0.6385 -0.3067 -0.2262
 2594ntf    cn117836   0.366   1.190   6.542 -0.1870  0.1057  0.2300
 2594ntf    sn217837   0.332   1.367   6.516  0.1529  0.1353 -0.0185
 2594ntf    nn317838   0.356   1.371   6.361 -0.2712 -0.5690 -0.1066
 2594ntf    sn217839   0.268   1.432   6.246 -0.1067 -0.0280  0.0521
 2594ntf    cn117840   0.209   1.274   6.178 -0.0724 -0.0649  0.1090
 2594ntf    fn417841   0.317   1.115   6.445 -0.4391  0.1073  0.3559
 2594ntf    fn417842   0.495   1.167   6.555 -0.1774  0.2503  0.4064
 2594ntf    fn417843   0.316   1.142   6.655 -0.6448 -0.1285 -0.0683
 2594ntf    on517844   0.194   1.384   6.556  0.2941  1.0381  0.1197
 2594ntf    on517845   0.436   1.443   6.580  0.4346 -0.4152  0.1819
 2594ntf    on517846   0.354   1.480   6.140  0.1467 -0.3400  0.1151
 2594ntf    on517847   0.155   1.515   6.277 -0.2853 -0.0706 -0.4645
 2594ntf    fn417848   0.146   1.202   6.269 -0.2106  0.4304  0.4093
 2594ntf    fn417849   0.130   1.294   6.074  0.5754 -1.0934 -0.6028
 2594ntf    fn417850   0.310   1.203   6.130 -0.4064 -0.0115 -0.6747
 2595ntf    cn117851   4.412   3.452   1.221  0.2349  0.2366  0.1625
 2595ntf    sn217852   4.355   3.465   1.049  0.0189 -0.0113  0.2138
 2595ntf    nn317853   4.491   3.520   0.992 -0.2765  0.1264 -0.3625
 2595ntf    sn217854   4.599   3.432   0.920  0.0925 -0.1167  0.4821
 2595ntf    cn117855   4.540   3.422   0.748  0.0665  0.0093  0.4836
 2595ntf    fn417856   4.520   3.379   1.236 -0.2597 -0.4749  0.3081
 2595ntf    fn417857   4.446   3.566   1.280  0.0599  0.2755  0.1910
 2595ntf    fn417858   4.334   3.390   1.308 -0.2310  0.1389 -0.3211
 2595ntf    on517859   4.306   3.335   1.012 -0.0006  0.0023  0.1925
 2595ntf    on517860   4.266   3.579   1.054 -0.4757 -0.3671 -0.3855
 2595ntf    on517861   4.621   3.295   0.962 -0.0409 -0.4072 -0.3655
 2595ntf    on517862   4.721   3.508   0.911  0.1764 -0.2844  0.2001
 2595ntf    fn417863   4.623   3.370   0.660  0.1275  0.8164  0.0559
 2595ntf    fn417864   4.430   3.349   0.750 -0.4232  0.7310  0.3363
 2595ntf    fn417865   4.504   3.536   0.692 -0.3341 -0.6346 -0.5837
 2596ntf    cn117866   2.332   0.886   2.544  0.3917  0.0955 -0.4866
 2596ntf    sn217867   2.241   1.035   2.597 -0.0719 -0.3922  0.0989
 2596ntf    nn317868   2.207   1.092   2.455  0.3350  0.4793  0.3445
 2596ntf    sn217869   2.157   1.237   2.422 -0.0083  0.2866  0.0227
 2596ntf    cn117870   1.996   1.198   2.346  0.1601 -0.0760 -0.1548
 2596ntf    fn417871   2.264   0.807   2.462  0.0937  0.0096 -0.1589
 2596ntf    fn417872   2.445   0.919   2.484  0.5602  0.3884 -0.0145
 2596ntf    fn417873   2.363   0.810   2.647 -0.2557 -0.5120 -0.7353
 2596ntf    on517874   2.138   0.987   2.685 -0.1743 -0.8167 -0.2476
 2596ntf    on517875   2.348   1.110   2.659 -0.0536 -0.1920 -0.1725
 2596ntf    on517876   2.236   1.315   2.330 -0.1712  0.6672  0.2028
 2596ntf    on517877   2.100   1.309   2.533  0.0722  0.3295  0.0356
 2596ntf    fn417878   1.933   1.307   2.305  0.1404  0.1645  0.4918
 2596ntf    fn417879   1.990   1.124   2.237  0.3062 -0.4917  0.1171
 2596ntf    fn417880   1.905   1.138   2.421 -0.0931  0.1257 -0.2982
 2597ntf    cn117881   4.333   3.055   6.162  0.2497  0.1082  0.3408
 2597ntf    sn217882   4.359   2.916   6.275  0.5211 -0.2725 -0.1850
 2597ntf    nn317883   4.516   2.913   6.277  0.5554  0.9886 -0.2209
 2597ntf    sn217884   4.607   2.944   6.401 -0.1327  0.1949  0.4999
 2597ntf    cn117885   4.582   2.811   6.522  0.2013  0.0085  0.3652
 2597ntf    fn417886   4.206   3.088   6.145  0.5479  0.6289 -1.0149
 2597ntf    fn417887   4.393   3.160   6.215 -0.1197  0.2222  0.5338
 2597ntf    fn417888   4.389   3.052   6.042  0.1993 -0.2129  0.3250
 2597ntf    on517889   4.285   2.943   6.395  0.5369 -0.2667 -0.1763
 2597ntf    on517890   4.302   2.813   6.192 -0.2064  0.2666 -0.3601
 2597ntf    on517891   4.573   3.069   6.464 -0.1657 -0.0860  1.0452
 2597ntf    on517892   4.746   2.933   6.362 -0.1570 -0.0285  0.4789
 2597ntf    fn417893   4.610   2.693   6.469  0.2536  0.4156 -0.5488
 2597ntf    fn417894   4.648   2.819   6.637 -0.2273 -0.0584  0.6153
 2597ntf    fn417895   4.455   2.816   6.556  0.0939  0.0051 -0.0310
 2598ntf    cn117896   6.123   5.183   5.184 -0.0796 -0.2621 -0.0404
 2598ntf    sn217897   6.234   5.112   5.309 -0.0836 -0.0280  0.0969
 2598ntf    nn317898   6.157   4.975   5.312 -0.3452  0.1231  0.2525
 2598ntf    sn217899   6.092   4.900   5.434 -0.3347 -0.2323  0.0413
 2598ntf    cn117900   5.959   4.806   5.353 -0.0401 -0.4587 -0.1826
 2598ntf    fn417901   6.000   5.135   5.181 -0.2037  0.0488  0.1412
 2598ntf    fn417902   6.127   5.315   5.188  0.1577 -0.2791  0.3287
 2598ntf    fn417903   6.166   5.150   5.063  0.0690 -0.3328  0.0298
 2598ntf    on517904   6.368   5.116   5.254 -0.3084 -0.3826 -0.4872
 2598ntf    on517905   6.212   5.191   5.428 -0.5759  0.0585 -0.0501
 2598ntf    on517906   6.016   4.970   5.535  0.3850  0.4390  0.1346
 2598ntf    on517907   6.184   4.800   5.483  0.0474  0.4020  0.6406
 2598ntf    fn417908   5.855   4.885   5.329  0.2260 -0.0678 -0.0657
 2598ntf    fn417909   5.985   4.749   5.237  0.5281  0.4474 -0.5140
 2598ntf    fn417910   5.919   4.711   5.435 -0.0419 -0.0005  0.3591
 2599ntf    cn117911   4.464   3.767   2.990 -0.0183 -0.2972  0.1734
 2599ntf    sn217912   4.534   3.601   2.963  0.5694 -0.0324  0.0701
 2599ntf    nn317913   4.430   3.544   2.861  0.8678  0.0649 -0.2915
 2599ntf    sn217914   4.429   3.573   2.707 -0.1857  0.4561 -0.2191
 2599ntf    cn117915   4.320   3.441   2.644  0.0286  0.1316  0.0866
 2599ntf    fn417916   4.334   3.755   3.010 -0.1653  0.1250 -0.4897
 2599ntf    fn417917   4.524   3.832   3.088 -0.0825 -0.6501  0.4483
 2599ntf    fn417918   4.470   3.844   2.883 -0.0953 -0.4842  0.0338
 2599ntf    on517919   4.663   3.629   2.905  0.4325 -0.0770 -0.2588
 2599ntf    on517920   4.525   3.543   3.095  0.7431  0.2724  0.2195
 2599ntf    on517921   4.551   3.544   2.637 -0.1332 -0.3640  0.2009
 2599ntf    on517922   4.357   3.695   2.682 -0.3921  0.3847  0.0273
 2599ntf    fn417923   4.315   3.455   2.512 -0.4516  0.2784  0.1211
 2599ntf    fn417924   4.361   3.317   2.668 -0.5330 -0.0877 -0.0810
 2599ntf    fn417925   4.201   3.437   2.700 -0.0435 -0.5705 -0.1024
 2600ntf    cn117926   4.759   0.728   6.138  0.0518 -0.0586  0.1551
 2600ntf    sn217927   4.906   0.737   6.244  0.0264  0.4367  0.1481
 2600ntf    nn317928   5.011   0.801   6.146 -0.4285  0.2864 -0.4356
 2600ntf    sn217929   5.150   0.867   6.176 -0.2820 -0.3264  0.2424
 2600ntf    cn117930   5.264   0.730   6.139  0.1578  0.1864 -0.3200
 2600ntf    fn417931   4.749   0.829   6.053 -0.3504 -0.4292 -0.2421
 2600ntf    fn417932   4.763   0.617   6.065  0.1064 -0.0389  0.1277
 2600ntf    fn417933   4.649   0.707   6.208  0.3090  0.0239  0.5861
 2600ntf    on517934   4.861   0.828   6.346 -0.3271  0.1009  0.2919
 2600ntf    on517935   4.938   0.600   6.276 -0.1484  0.4414  0.3442
 2600ntf    on517936   5.180   0.898   6.314  0.0547 -0.5655  0.2247
 2600ntf    on517937   5.184   0.969   6.080 -0.0281 -0.6752 -0.0423
 2600ntf    fn417938   5.362   0.769   6.060  0.4420  0.4187  0.1459
 2600ntf    fn417939   5.322   0.678   6.246  0.0822 -0.0333 -0.3843
 2600ntf    fn417940   5.209   0.630   6.072 -0.1263  0.2243 -0.1457
 2601ntf    cn117941   6.840   0.741   3.860  0.2497 -0.3285  0.1625
 2601ntf    sn217942   6.985   0.642   3.812  0.2297 -0.2558 -0.0538
 2601ntf    nn317943   6.961   0.623   3.659 -0.1609 -0.2179  0.0032
 2601ntf    sn217944   6.981   0.499   3.564 -0.2901 -0.1311 -0.1389
 2601ntf    cn117945   6.807   0.471   3.521 -0.3759 -0.0246  0.1350
 2601ntf    fn417946   6.727   0.696   3.808 -0.0940  0.0703  0.5655
 2601ntf    fn417947   6.815   0.745   3.989  0.4834 -0.2976  0.2069
 2601ntf    fn417948   6.853   0.871   3.837 -0.4627 -0.1713  0.6203
 2601ntf    on517949   7.101   0.726   3.827 -0.4139  0.7468 -0.6248
 2601ntf    on517950   6.982   0.520   3.890 -0.0589 -0.0509  0.2590
 2601ntf    on517951   7.029   0.382   3.634 -0.0604  0.2036  0.2650
 2601ntf    on517952   7.045   0.561   3.451 -0.9221  0.0720 -0.3913
 2601ntf    fn417953   6.799   0.409   3.404 -0.7293 -0.1751  0.2380
 2601ntf    fn417954   6.741   0.395   3.607 -0.5300  0.1565  0.1792
 2601ntf    fn417955   6.720   0.570   3.507 -0.5461 -0.1301  0.4415
 2602ntf    cn117956   2.234   5.255   2.955 -0.7873 -0.0335  0.2007
 2602ntf    sn217957   2.216   5.103   2.858 -0.2888  0.2435 -0.3297
 2602ntf    nn317958   2.357   5.102   2.789 -0.1191 -0.7045  0.0116
 2602ntf    sn217959   2.457   4.983   2.766  0.4390 -0.2129 -0.1131
 2602ntf    cn117960   2.544   5.003   2.924  0.4193  0.0737 -0.1364
 2602ntf    fn417961   2.235   5.364   2.880 -0.0277 -0.1151  0.0882
 2602ntf    fn417962   2.122   5.261   3.027 -0.7057  0.4211  0.2952
 2602ntf    fn417963   2.335   5.254   3.040 -0.1958  0.1086 -0.4969
 2602ntf    on517964   2.184   5.006   2.959 -0.3569 -0.1244 -0.7014
 2602ntf    on517965   2.111   5.128   2.762 -0.1770  0.1624 -0.4733
 2602ntf    on517966   2.565   5.011   2.674  0.4559  0.2533  0.0460
 2602ntf    on517967   2.404   4.849   2.769  1.2339 -0.5281  0.0680
 2602ntf    fn417968   2.482   4.950   3.029 -0.1560  0.2560 -0.3810
 2602ntf    fn417969   2.659   4.940   2.911  0.6066  0.3188  0.3177
 2602ntf    fn417970   2.577   5.125   2.962 -0.3425  0.1336  0.3686
 2603ntf    cn117971   2.579   1.876   2.110  0.3542  0.0575 -0.0088
 2603ntf    sn217972   2.741   1.879   2.192  0.2621 -0.1233  0.1797
 2603ntf    nn317973   2.712   1.977   2.311 -0.0150 -0.0848  0.0822
 2603ntf    sn217974   2.741   1.968   2.465 -0.2315 -0.0662  0.1242
 2603ntf    cn117975   2.755   2.146   2.498 -0.1665  0.0063 -0.2967
 2603ntf    fn417976   2.535   1.994   2.069 -0.2917 -0.3391 -0.5029
 2603ntf    fn417977   2.583   1.786   2.013 -0.0032 -0.0833  0.1044
 2603ntf    fn417978   2.482   1.830   2.188 -0.3856  0.1515 -0.8434
 2603ntf    on517979   2.734   1.739   2.225 -1.3758 -0.1945 -0.3567
 2603ntf    on517980   2.829   1.919   2.085  0.0127 -0.1771 -0.0489
 2603ntf    on517981   2.871   1.913   2.494 -0.0903  0.2105  0.0110
 2603ntf    on517982   2.629   1.931   2.549 -0.8411 -0.0100 -0.6495
 2603ntf    fn417983   2.644   2.212   2.474 -0.4223 -0.3344 -0.0568
 2603ntf    fn417984   2.790   2.188   2.619  0.5999 -0.0075 -0.5072
 2603ntf    fn417985   2.840   2.202   2.412  0.0328  0.0272 -0.0875
 2604ntf    cn117986   4.137   6.470   6.405  0.4478  0.2027  0.1608
 2604ntf    sn217987   4.028   6.331   6.450  0.2482  0.1118 -0.5883
 2604ntf    nn317988   4.102   6.283   6.580 -0.4210 -0.1356 -0.2934
 2604ntf    sn217989   4.079   6.340   6.724 -0.0372 -0.1142 -0.2407
 2604ntf    cn117990   3.961   6.220   6.793 -0.1458  0.0246 -0.1824
 2604ntf    fn417991   4.093   6.531   6.296  0.0701 -0.3533 -0.0092
 2604ntf    fn417992   4.135   6.563   6.499 -0.2574  0.4850 -0.1263
 2604ntf    fn417993   4.258   6.425   6.377  0.2148 -0.2617 -0.1238
 2604ntf    on517994   3.895   6.383   6.471  0.2789  0.2743 -0.7869
 2604ntf    on517995   4.050   6.245   6.336  0.5796 -0.5742 -0.0129
 2604ntf    on517996   4.013   6.469   6.726  0.2659  0.0357  0.3891
 2604ntf    on517997   4.197   6.323   6.806 -0.1571 -0.4290 -0.1331
 2604ntf    fn417998   3.955   6.209   6.925 -0.0161  0.9460 -0.0892
 2604ntf    fn417999   3.839   6.253   6.756 -0.4609 -0.2215  0.6221
 2604ntf    fn418000   3.970   6.101   6.737 -0.2058 -0.3378  0.5629
 2605ntf    cn118001   2.292   1.283   0.904  0.0428  0.1458 -0.0038
 2605ntf    sn218002   2.218   1.426   0.820 -0.0694 -0.0001 -0.1545
 2605ntf    nn318003   2.065   1.393   0.831 -0.0170 -0.2803 -0.2585
 2605ntf    sn218004   1.980   1.295   0.742 -0.0042 -0.2036 -0.3549
 2605ntf    cn118005   1.915   1.405   0.612 -0.0690  0.3064  0.1019
 2605ntf    fn418006   2.214   1.247   1.004 -0.3277  0.3284 -0.2228
 2605ntf    fn418007   2.297   1.175   0.827  0.2066 -0.1000  0.3531
 2605ntf    fn418008   2.406   1.314   0.962  0.1119 -0.3980  0.1532
 2605ntf    on518009   2.258   1.534   0.907 -0.3703  0.3402 -0.4317
 2605ntf    on518010   2.287   1.428   0.693 -0.6707 -0.0301 -0.4873
 2605ntf    on518011   1.865   1.244   0.813 -0.0569  0.2885 -0.0764
 2605ntf    on518012   2.064   1.198   0.678  0.0995 -0.2867 -0.0970
 2605ntf    fn418013   1.988   1.408   0.502 -0.0467 -0.1241  0.1030
 2605ntf    fn418014   1.790   1.380   0.577  0.0525 -0.2040  0.0176
 2605ntf    fn418015   1.916   1.527   0.663 -0.4124  0.4332 -0.1935
 2606ntf    cn118016   5.883   0.154   4.852 -0.6696 -0.3779 -0.1367
 2606ntf    sn218017   5.886   0.259   4.704  0.0587  0.0205  0.1482
 2606ntf    nn318018   5.993   0.368   4.738  0.1272 -0.2188  0.7110
 2606ntf    sn218019   5.974   0.510   4.802  0.0643  0.0891  0.0206
 2606ntf    cn118020   6.106   0.489   4.926  0.2197 -0.2851 -0.2059
 2606ntf    fn418021   5.830   0.217   4.956  0.3291 -0.1480  0.2528
 2606ntf    fn418022   5.816   0.041   4.844 -0.9464 -0.2471  0.3004
 2606ntf    fn418023   6.006   0.118   4.887 -0.2375  0.8868 -0.3059
 2606ntf    on518024   5.937   0.176   4.598 -0.1749 -0.2933  0.2793
 2606ntf    on518025   5.748   0.299   4.695 -0.0843 -0.4940  0.0012
 2606ntf    on518026   5.864   0.528   4.894 -0.1050  0.2669 -0.2156
 2606ntf    on518027   6.018   0.628   4.731 -0.1242  0.3618  0.3535
 2606ntf    fn418028   6.157   0.599   4.979 -0.0656  0.1269 -0.7670
 2606ntf    fn418029   6.065   0.416   5.028  0.7116  0.0335  0.2254
 2606ntf    fn418030   6.205   0.415   4.879  0.4543 -0.4087  0.4766
 2607ntf    cn118031   3.263   1.450   2.675  0.0882  0.1462  0.2906
 2607ntf    sn218032   3.123   1.392   2.573  0.3294  0.0486  0.0138
 2607ntf    nn318033   3.183   1.259   2.516 -0.4008 -0.2660 -0.0299
 2607ntf    sn218034   3.122   1.179   2.396 -0.2824 -0.1842 -0.1454
 2607ntf    cn118035   3.235   1.228   2.262  0.0713  0.2991  0.3289
 2607ntf    fn418036   3.240   1.566   2.734 -0.4704  0.0795  0.2103
 2607ntf    fn418037   3.299   1.373   2.776 -0.1347 -0.7383 -0.2912
 2607ntf    fn418038   3.365   1.470   2.593 -0.1065  0.4442  0.1202
 2607ntf    on518039   3.018   1.368   2.668  0.1754  0.6094 -0.0088
 2607ntf    on518040   3.104   1.498   2.477 -0.4200 -0.5138 -0.4674
 2607ntf    on518041   2.986   1.213   2.362 -0.3014 -0.1601 -0.0438
 2607ntf    on518042   3.145   1.036   2.405 -0.6849 -0.2115  0.4944
 2607ntf    fn418043   3.186   1.192   2.145  0.1406 -0.2830  0.4717
 2607ntf    fn418044   3.237   1.360   2.264 -0.2330  0.3204 -0.4162
 2607ntf    fn418045   3.359   1.182   2.273 -0.0181 -0.1652 -0.5087
 2608ntf    cn118046   6.778   6.974   0.842 -0.5634 -0.1575  0.0203
 2608ntf    sn218047   6.895   6.920   0.970 -0.1760  0.0296 -0.2526
 2608ntf    nn318048   6.910   6.767   0.934 -0.0497  0.0437 -0.2614
 2608ntf    sn218049   6.821   6.652   0.993 -0.3380  0.3998  0.0083
 2608ntf    cn118050   6.885   6.638   1.162  0.4867 -0.0645 -0.3384
 2608ntf    fn418051   6.660   6.914   0.849 -0.2724 -0.8277 -0.6684
 2608ntf    fn418052   6.749   7.102   0.862  0.1773  0.0039  0.0872
 2608ntf    fn418053   6.826   6.954   0.721 -0.1426  0.0906  0.1448
 2608ntf    on518054   7.020   6.980   0.933 -0.3359  0.3173 -0.3259
 2608ntf    on518055   6.838   6.954   1.098  0.8916 -0.3446  0.3341
 2608ntf    on518056   6.852   6.521   0.941 -0.6453  0.2991  0.0762
 2608ntf    on518057   6.682   6.687   1.004 -0.4838 -0.2787  0.3425
 2608ntf    fn418058   6.824   6.537   1.222  0.5190 -0.2242 -0.5709
 2608ntf    fn418059   7.014   6.606   1.165  0.3943 -0.4169  0.0801
 2608ntf    fn418060   6.863   6.739   1.245 -0.1115 -0.2426 -0.2778
 2609ntf    cn118061   4.538   4.280   4.739 -0.2021  0.3476 -0.2157
 2609ntf    sn218062   4.623   4.137   4.665 -0.4257  0.1579 -0.1047
 2609ntf    nn318063   4.598   4.151   4.511  0.1010 -0.1049 -0.2173
 2609ntf    sn218064   4.488   4.085   4.420  0.2794 -0.0066 -0.5052
 2609ntf    cn118065   4.572   3.934   4.363 -0.0729 -0.3458 -0.1280
 2609ntf    fn418066   4.548   4.281   4.871 -0.2598 -0.1501 -0.2027
 2609ntf    fn418067   4.587   4.395   4.698  0.4647  0.1570  0.0248
 2609ntf    fn418068   4.410   4.280   4.706 -0.3015 -0.0267  0.1643
 2609ntf    on518069   4.759   4.164   4.704 -0.0777 -0.7344 -0.6689
 2609ntf    on518070   4.567   4.019   4.728  0.1272 -0.0832 -0.0567
 2609ntf    on518071   4.465   4.165   4.302 -0.0240  0.9489  0.1820
 2609ntf    on518072   4.371   4.045   4.493  0.4424 -0.1894 -0.3432
 2609ntf    fn418073   4.520   3.891   4.250  0.4658 -0.1930 -0.4374
 2609ntf    fn418074   4.702   3.952   4.348 -0.0814 -0.2828 -0.1298
 2609ntf    fn418075   4.555   3.839   4.453 -0.5925 -0.6920 -0.5859
 2610ntf    cn118076   5.093   2.608   0.701  0.0115  0.0003 -0.5006
 2610ntf    sn218077   4.976   2.692   0.812  0.4570 -0.1764  0.1087
 2610ntf    nn318078   5.055   2.815   0.869  0.7373 -0.4525  0.3194
 2610ntf    sn218079   5.101   2.946   0.796  0.1421 -0.3848  0.0598
 2610ntf    cn118080   4.972   3.054   0.863  0.1586 -0.4215  0.1498
 2610ntf    fn418081   5.047   2.499   0.641 -0.2370  0.0462 -0.3909
 2610ntf    fn418082   5.129   2.688   0.602  0.1215  0.2327 -0.2735
 2610ntf    fn418083   5.205   2.572   0.762 -0.4155  0.3485  0.4949
 2610ntf    on518084   4.872   2.730   0.720 -0.0398 -0.1911  0.6603
 2610ntf    on518085   4.960   2.596   0.918 -0.4580 -0.0580  0.0787
 2610ntf    on518086   5.072   2.939   0.655  0.3444 -0.5353  0.0246
 2610ntf    on518087   5.226   3.003   0.840  0.0885  0.0801 -0.3764
 2610ntf    fn418088   5.007   3.178   0.834 -0.1722 -0.1850  0.7478
 2610ntf    fn418089   4.847   3.032   0.824  0.0053  0.1533  0.3154
 2610ntf    fn418090   4.976   3.059   0.995 -0.5201  0.3380  0.1500
 2611ntf    cn118091   4.911   5.737   4.476 -0.2674  0.0740 -0.3064
 2611ntf    sn218092   4.878   5.763   4.299 -0.3160  0.0198 -0.3053
 2611ntf    nn318093   5.002   5.690   4.236 -0.2031 -0.0587  0.0083
 2611ntf    sn218094   5.135   5.751   4.180 -0.1405 -0.1676  0.0373
 2611ntf    cn118095   5.087   5.766   4.005  0.2666 -0.0576 -0.0674
 2611ntf    fn418096   5.001   5.819   4.527  0.5638 -0.8259 -0.2806
 2611ntf    fn418097   4.803   5.766   4.545  0.3431  0.4187  0.5187
 2611ntf    fn418098   4.953   5.615   4.505  0.0724  0.3716  0.4664
 2611ntf    on518099   4.760   5.681   4.280 -0.0919 -0.5349  0.6616
 2611ntf    on518100   4.871   5.906   4.289  0.2702  0.0427 -0.4380
 2611ntf    on518101   5.242   5.654   4.178 -0.6498 -0.7493  0.7440
 2611ntf    on518102   5.172   5.884   4.222 -0.3471  0.1663 -0.8152
 2611ntf    fn418103   5.186   5.805   3.927  0.2265  0.0979 -0.0420
 2611ntf    fn418104   5.051   5.649   3.955  0.5052 -0.1516 -0.0190
 2611ntf    fn418105   4.992   5.857   3.993 -0.3624 -0.7593 -0.4584
 2612ntf    cn118106   4.050   3.592   3.748 -0.4431 -0.2372 -0.1186
 2612ntf    sn218107   4.087   3.426   3.814  0.4983 -0.0389 -0.1257
 2612ntf    nn318108   4.185   3.375   3.703  0.2095 -0.2384 -0.2900
 2612ntf    sn218109   4.339   3.350   3.723  0.2451 -0.0081 -0.2760
 2612ntf    cn118110   4.337   3.227   3.856 -0.2311 -0.5812 -0.8083
 2612ntf    fn418111   3.966   3.591   3.646 -0.9064 -0.1381  0.2580
 2612ntf    fn418112   4.002   3.672   3.842  0.3022 -0.1870  0.2315
 2612ntf    fn418113   4.160   3.654   3.709 -0.5065  0.0189  0.1059
 2612ntf    on518114   4.136   3.456   3.946  0.4575  0.0281 -0.1252
 2612ntf    on518115   3.961   3.356   3.815  0.1223  0.6286  0.8789
 2612ntf    on518116   4.403   3.468   3.775 -0.0009  0.0389 -0.0787
 2612ntf    on518117   4.394   3.281   3.609  0.2679 -0.4414 -0.0036
 2612ntf    fn418118   4.296   3.263   3.976  0.6063 -0.0541 -0.6783
 2612ntf    fn418119   4.250   3.138   3.810 -0.7244 -0.4836 -0.0731
 2612ntf    fn418120   4.445   3.156   3.882 -0.1385 -0.2285 -0.2248
 2613ntf    cn118121   1.618   5.802   1.189  0.1876  0.0751  0.1208
 2613ntf    sn218122   1.591   5.745   1.018  0.0641  0.2107  0.0947
 2613ntf    nn318123   1.551   5.595   1.041 -0.3524  0.2615 -0.2980
 2613ntf    sn218124   1.621   5.457   1.014 -0.1270  0.2853  0.1615
 2613ntf    cn118125   1.467   5.363   0.987  0.0056  0.2610 -0.5201
 2613ntf    fn418126   1.711   5.748   1.266 -0.2420 -0.1139  0.5089
 2613ntf    fn418127   1.632   5.933   1.183 -0.4753  0.1665  0.4668
 2613ntf    fn418128   1.502   5.790   1.253 -0.0460  0.2099 -0.2736
 2613ntf    on518129   1.482   5.821   0.963  0.2753  0.0095 -0.6179
 2613ntf    on518130   1.723   5.767   0.964 -0.3219  0.7489 -0.6518
 2613ntf    on518131   1.666   5.396   1.137  0.5359 -0.0364 -0.2386
 2613ntf    on518132   1.701   5.446   0.895 -0.5737  0.0637 -0.1212
 2613ntf    fn418133   1.383   5.373   1.088  0.0037 -0.1279 -0.4825
 2613ntf    fn418134   1.389   5.396   0.886  0.0994  0.1013 -0.6442
 2613ntf    fn418135   1.496   5.234   0.976 -0.3966  0.1511 -0.3028
 2614ntf    cn118136   0.506   0.873   2.601 -0.5899 -0.0393  0.0964
 2614ntf    sn218137   0.562   0.991   2.727  0.3481 -0.2450 -0.1187
 2614ntf    nn318138   0.427   1.001   2.807  0.0435 -0.8524 -0.5422
 2614ntf    sn218139   0.309   1.105   2.800  0.6595 -0.1061 -0.0959
 2614ntf    cn118140   0.353   1.218   2.935 -0.2511  0.1937 -0.0449
 2614ntf    fn418141   0.390   0.912   2.551 -0.2955  0.2562 -0.3594
 2614ntf    fn418142   0.590   0.843   2.503 -0.4617 -0.1575  0.2411
 2614ntf    fn418143   0.494   0.752   2.654  0.1356  0.0341  0.4401
 2614ntf    on518144   0.663   0.928   2.807 -0.1285 -0.3816  0.3825
 2614ntf    on518145   0.599   1.102   2.643 -0.4781 -0.2365 -0.4854
 2614ntf    on518146   0.182   1.046   2.835  0.4619  0.3151 -0.1015
 2614ntf    on518147   0.316   1.178   2.676 -0.1307 -0.4619 -0.3553
 2614ntf    fn418148   0.442   1.306   2.894  0.3629 -0.2634  0.2830
 2614ntf    fn418149   0.251   1.285   2.986 -0.3387 -0.1167  0.1957
 2614ntf    fn418150   0.416   1.163   3.038 -0.0504 -0.0708 -0.3079
 2615ntf    cn118151   0.239   3.501   1.778 -0.4400 -0.3889  0.4104
 2615ntf    sn218152   0.128   3.420   1.659 -0.1250  0.1353 -0.2468
 2615ntf    nn318153   0.007   3.517   1.680 -0.1243  0.1208 -0.1755
 2615ntf    sn218154  -0.137   3.483   1.733  0.0257 -0.1385  0.0703
 2615ntf    cn118155  -0.137   3.504   1.913 -0.1302 -0.1278  0.0692
 2615ntf    fn418156   0.349   3.428   1.788  0.0356  0.1292 -0.8147
 2615ntf    fn418157   0.273   3.622   1.738 -0.1651 -0.2813  0.9530
 2615ntf    fn418158   0.182   3.512   1.897 -0.0702  0.4685  0.5147
 2615ntf    on518159   0.200   3.435   1.535  0.3669  0.3366  0.0592
 2615ntf    on518160   0.124   3.285   1.712  0.6123  0.4133  0.5375
 2615ntf    on518161  -0.179   3.346   1.719  0.0947 -0.0716 -0.9026
 2615ntf    on518162  -0.233   3.579   1.685 -0.0847 -0.0722  0.4267
 2615ntf    fn418163  -0.133   3.633   1.941  0.2256 -0.0390 -0.3796
 2615ntf    fn418164  -0.246   3.450   1.964 -0.1762 -0.0695  0.0320
 2615ntf    fn418165  -0.032   3.451   1.975  0.0107 -0.0083 -0.0673
 2616ntf    cn118166   4.508   4.140   3.187 -0.1810 -0.2199 -0.0689
 2616ntf    sn218167   4.679   4.198   3.201 -0.3481  0.1704  0.3778
 2616ntf    nn318168   4.693   4.236   3.353  0.0772  0.6101  0.2350
 2616ntf    sn218169   4.798   4.173   3.451  0.2069 -0.1720 -0.3930
 2616ntf    cn118170   4.940   4.284   3.422 -0.0570  0.1532 -0.4432
 2616ntf    fn418171   4.416   4.234   3.196 -0.1856 -0.2942  0.7495
 2616ntf    fn418172   4.492   4.070   3.076 -0.1794 -0.1880 -0.0895
 2616ntf    fn418173   4.478   4.052   3.282  0.0365 -0.5323 -0.2852
 2616ntf    on518174   4.767   4.096   3.150 -0.2006  0.4033  0.1615
 2616ntf    on518175   4.673   4.321   3.125  0.3355 -0.4672 -0.7418
 2616ntf    on518176   4.845   4.040   3.421 -0.1841 -0.4125  0.0520
 2616ntf    on518177   4.760   4.200   3.587 -0.2483  0.2336 -0.5964
 2616ntf    fn418178   4.913   4.408   3.458  0.1129  0.0709 -0.0312
 2616ntf    fn418179   5.043   4.243   3.493 -0.2944  0.2448 -0.0430
 2616ntf    fn418180   4.978   4.277   3.295 -0.3002 -0.4558 -0.4892
 2617ntf    cn118181   1.740   1.057   6.290 -0.1146 -0.1362  0.0980
 2617ntf    sn218182   1.790   0.919   6.397 -0.4884 -0.1708  0.2288
 2617ntf    nn318183   1.856   0.820   6.295  0.2779  0.1793  0.3751
 2617ntf    sn218184   1.795   0.694   6.225 -0.0582  0.5582 -0.0204
 2617ntf    cn118185   1.827   0.564   6.348  0.1637  0.0058 -0.6542
 2617ntf    fn418186   1.807   1.170   6.310 -0.3837 -0.0494  0.5328
 2617ntf    fn418187   1.752   1.022   6.163 -0.0082 -0.1575  0.1135
 2617ntf    fn418188   1.620   1.110   6.308  0.0205  0.2931 -0.2433
 2617ntf    on518189   1.900   0.972   6.475 -0.3772  0.3270 -0.2598
 2617ntf    on518190   1.673   0.876   6.470 -0.4463 -0.5794  0.0569
 2617ntf    on518191   1.870   0.649   6.110 -0.4790  0.4149 -0.2422
 2617ntf    on518192   1.652   0.689   6.210  0.0385 -0.8345 -0.7271
 2617ntf    fn418193   1.958   0.551   6.369 -0.0066 -0.5515  0.1259
 2617ntf    fn418194   1.773   0.592   6.465  0.7504  0.1281 -0.4048
 2617ntf    fn418195   1.780   0.444   6.319 -0.1862 -0.0754  0.2174
 2618ntf    cn118196   2.209   6.268   6.422  0.4075 -0.1822  0.1509
 2618ntf    sn218197   2.265   6.415   6.513  0.0312  0.0278  0.0475
 2618ntf    nn318198   2.230   6.527   6.409 -0.0270 -0.2821 -0.2695
 2618ntf    sn218199   2.119   6.638   6.403  0.3734  0.1442  0.1333
 2618ntf    cn118200   2.165   6.769   6.520  0.0946  0.2966  0.0756
 2618ntf    fn418201   2.260   6.256   6.300 -0.1740 -0.4845 -0.0694
 2618ntf    fn418202   2.246   6.157   6.483  0.3642 -0.0426  0.4343
 2618ntf    fn418203   2.078   6.256   6.411  0.4297 -0.3322  0.0444
 2618ntf    on518204   2.187   6.419   6.634  0.1541 -0.8170  0.1589
 2618ntf    on518205   2.407   6.398   6.533 -0.0333 -0.2690  0.2570
 2618ntf    on518206   1.989   6.593   6.447  0.6828 -0.2836  0.6224
 2618ntf    on518207   2.129   6.693   6.270 -0.4278 -0.7557 -0.3129
 2618ntf    fn418208   2.166   6.728   6.645  0.0525 -0.0034 -0.0214
 2618ntf    fn418209   2.288   6.810   6.490 -0.1934  1.0484 -0.0974
 2618ntf    fn418210   2.090   6.877   6.504  0.1990  0.3712  0.0834
 2619ntf    cn118211   5.916   6.476   1.080 -0.2474  0.3088  0.2165
 2619ntf    sn218212   6.001   6.509   0.923  0.0455 -0.1711  0.2722
 2619ntf    nn318213   5.905   6.609   0.849  0.1505 -0.1683  0.1395
 2619ntf    sn218214   5.898   6.765   0.859  0.1235 -0.1717  0.1777
 2619ntf    cn118215   5.913   6.824   0.687  0.1157  0.0915  0.2665
 2619ntf    fn418216   5.933   6.572   1.170  0.0170  0.3507  0.1234
 2619ntf    fn418217   5.787   6.448   1.065 -0.2040  0.1074  0.2066
 2619ntf    fn418218   5.967   6.363   1.127  0.1051  0.3069 -0.1695
 2619ntf    on518219   6.132   6.555   0.963  0.2182  0.0367 -0.5143
 2619ntf    on518220   6.001   6.382   0.854 -0.7209 -0.3138  0.5269
 2619ntf    on518221   6.001   6.841   0.926 -0.0925 -0.3174  0.6708
 2619ntf    on518222   5.766   6.808   0.896  0.0054 -0.6800  0.3444
 2619ntf    fn418223   5.868   6.947   0.675  0.8780  0.3557  0.0913
 2619ntf    fn418224   6.038   6.822   0.643  0.1203 -0.0332  0.2845
 2619ntf    fn418225   5.851   6.750   0.596 -0.0576  0.4609  0.0826
 2620ntf    cn118226   0.292   1.076   2.279 -0.0025 -0.1728  0.2605
 2620ntf    sn218227   0.176   1.187   2.194  0.1050 -0.1293  0.1703
 2620ntf    nn318228   0.267   1.310   2.157  0.2445 -0.2506  0.1125
 2620ntf    sn218229   0.240   1.394   2.028  0.0316 -0.3817  0.0717
 2620ntf    cn118230   0.317   1.294   1.897 -0.0654 -0.3350 -0.0219
 2620ntf    fn418231   0.385   1.153   2.333  0.1546  0.0033 -0.2538
 2620ntf    fn418232   0.244   0.994   2.371 -0.1124 -0.1991  0.1791
 2620ntf    fn418233   0.355   1.003   2.188  1.0246  0.3883  0.5039
 2620ntf    on518234   0.138   1.111   2.078 -0.3949 -0.2171  0.3892
 2620ntf    on518235   0.074   1.214   2.292 -0.3999  0.0768 -0.4113
 2620ntf    on518236   0.313   1.518   2.028  0.2725 -0.5241  0.3977
 2620ntf    on518237   0.099   1.403   1.998 -0.0347 -0.3888  0.3763
 2620ntf    fn418238   0.233   1.202   1.853 -0.4643  0.3938 -0.8044
 2620ntf    fn418239   0.353   1.359   1.788  0.1663 -0.0901  0.1981
 2620ntf    fn418240   0.417   1.220   1.941  0.0967 -0.1635 -0.1032
 2621ntf    cn118241   4.953   2.711   1.671  0.1277  0.0362 -0.2700
 2621ntf    sn218242   4.838   2.643   1.795  0.5484 -0.3268 -0.0795
 2621ntf    nn318243   4.696   2.699   1.760  0.4429 -0.4127  0.2087
 2621ntf    sn218244   4.604   2.625   1.656  0.3575  0.2163 -0.1672
 2621ntf    cn118245   4.474   2.751   1.640  0.0546 -0.1515 -0.6238
 2621ntf    fn418246   4.961   2.842   1.689  0.1150 -0.0960  0.7901
 2621ntf    fn418247   5.077   2.667   1.682  0.3031  0.5890  0.0588
 2621ntf    fn418248   4.919   2.677   1.548  0.1868 -0.0422 -0.2644
 2621ntf    on518249   4.847   2.500   1.779 -0.0888 -0.3942  0.1319
 2621ntf    on518250   4.893   2.696   1.917  0.1278 -0.9520  0.3843
 2621ntf    on518251   4.524   2.519   1.711  0.6917 -0.0935 -0.2783
 2621ntf    on518252   4.653   2.619   1.521  0.6594 -0.8367 -0.0173
 2621ntf    fn418253   4.394   2.736   1.536 -0.8334  0.4799 -0.0527
 2621ntf    fn418254   4.394   2.775   1.743  0.1022 -0.9912 -0.3851
 2621ntf    fn418255   4.540   2.864   1.621 -0.2282  0.1382  0.0739
 2622ntf    cn118256   2.285   2.326   6.699 -0.0525 -0.0043 -0.0684
 2622ntf    sn218257   2.464   2.312   6.673 -0.0831 -0.3303 -0.1087
 2622ntf    nn318258   2.504   2.196   6.771 -0.2097 -0.0316  0.3025
 2622ntf    sn218259   2.591   2.200   6.902 -0.0444 -0.3337  0.2042
 2622ntf    cn118260   2.520   2.066   7.002  0.1900 -0.1213  0.6542
 2622ntf    fn418261   2.260   2.352   6.827  0.0121  0.1018 -0.0779
 2622ntf    fn418262   2.237   2.416   6.615 -0.9015 -0.1556  0.2447
 2622ntf    fn418263   2.219   2.215   6.672 -0.6567  0.2037  0.5235
 2622ntf    on518264   2.481   2.267   6.537 -0.1870  0.0038 -0.2325
 2622ntf    on518265   2.512   2.445   6.703  0.2156 -0.4630  0.0051
 2622ntf    on518266   2.567   2.314   6.987  0.1047  0.2075 -0.4672
 2622ntf    on518267   2.723   2.145   6.881  0.3482  0.4520  0.5777
 2622ntf    fn418268   2.532   1.950   6.939 -0.3412  0.1997 -0.0465
 2622ntf    fn418269   2.597   2.057   7.110  0.7717 -0.0674  0.2509
 2622ntf    fn418270   2.394   2.072   7.041  0.1301  0.0589  0.4304
 2623ntf    cn118271   6.766   0.095   3.351 -0.3090 -0.0183 -0.0047
 2623ntf    sn218272   6.632   0.160   3.246 -0.1109 -0.0837 -0.3003
 2623ntf    nn318273   6.540   0.224   3.356 -0.1060 -0.1480 -0.2583
 2623ntf    sn218274   6.415   0.170   3.433  0.2478 -0.3002  0.2178
 2623ntf    cn118275   6.451   0.188   3.610  0.1637  0.0037  0.2045
 2623ntf    fn418276   6.878   0.103   3.281 -0.5286 -0.3597 -0.4025
 2623ntf    fn418277   6.782   0.177   3.454 -0.9767  0.1830 -0.0538
 2623ntf    fn418278   6.736  -0.028   3.390 -0.2594  0.1276  0.4978
 2623ntf    on518279   6.710   0.260   3.177 -0.0921 -0.4945 -0.8794
 2623ntf    on518280   6.589   0.049   3.165  0.4987 -0.4951 -0.0710
 2623ntf    on518281   6.381   0.030   3.418 -0.2953 -0.1638  0.1430
 2623ntf    on518282   6.301   0.255   3.410  0.2995 -0.2358  0.1988
 2623ntf    fn418283   6.548   0.107   3.649  0.1618  0.0857  0.3808
 2623ntf    fn418284   6.495   0.308   3.645 -0.1678  0.2074 -0.0691
 2623ntf    fn418285   6.345   0.165   3.687  0.0796 -0.3863 -0.0241
 2624ntf    cn118286   0.941   6.821   6.541  0.1465  0.1162  0.1116
 2624ntf    sn218287   0.829   6.814   6.398 -0.0478 -0.2172  0.2789
 2624ntf    nn318288   0.695   6.761   6.460 -0.1874  0.0646  0.2201
 2624ntf    sn218289   0.555   6.819   6.501 -0.1283  0.0437  0.4518
 2624ntf    cn118290   0.466   6.798   6.344  0.5737 -0.1371  0.0745
 2624ntf    fn418291   0.941   6.705   6.604 -0.3850  0.5310  0.8850
 2624ntf    fn418292   1.069   6.845   6.517  0.1872  0.0079  0.2195
 2624ntf    fn418293   0.905   6.900   6.640  0.3986  0.3985 -0.0211
 2624ntf    on518294   0.818   6.950   6.351 -0.3701 -0.4938 -0.4645
 2624ntf    on518295   0.897   6.723   6.308 -0.8261 -0.0475 -0.4962
 2624ntf    on518296   0.545   6.960   6.530  0.3123  0.1742 -0.0138
 2624ntf    on518297   0.495   6.732   6.599  0.1126 -0.7181 -0.0752
 2624ntf    fn418298   0.339   6.832   6.353  0.6429  0.0844  0.2385
 2624ntf    fn418299   0.527   6.866   6.249  0.6525  0.4368  0.5283
 2624ntf    fn418300   0.465   6.676   6.293  0.3637 -0.1124  0.0240
 2625ntf    cn118301   0.050   5.499   1.748  0.3043  0.3887 -0.0461
 2625ntf    sn218302   0.228   5.523   1.723  0.1664  0.7990 -0.6516
 2625ntf    nn318303   0.227   5.673   1.771  0.0861  0.7718 -0.5683
 2625ntf    sn218304   0.330   5.733   1.874  0.1353 -0.3123  0.0348
 2625ntf    cn118305   0.233   5.727   2.028 -0.0737 -0.1518 -0.0909
 2625ntf    fn418306   0.024   5.517   1.877  0.1195  0.1171 -0.0426
 2625ntf    fn418307  -0.024   5.582   1.676 -0.5094 -0.3289 -0.0569
 2625ntf    fn418308   0.010   5.376   1.720  0.3038  0.2429  0.5780
 2625ntf    on518309   0.275   5.426   1.818  0.2751  1.4211 -0.0612
 2625ntf    on518310   0.239   5.504   1.581 -0.3031 -0.5043 -0.5222
 2625ntf    on518311   0.356   5.873   1.857  0.1820 -0.2443  0.6460
 2625ntf    on518312   0.447   5.654   1.902  0.2294  0.0010  0.5344
 2625ntf    fn418313   0.180   5.609   2.056  0.0077 -0.1453  0.0899
 2625ntf    fn418314   0.310   5.775   2.124 -0.4165  0.3392 -0.0560
 2625ntf    fn418315   0.130   5.810   2.026 -0.0951 -0.1366  1.1628
 2626ntf    cn118316   3.303   4.551   3.195  0.1208  0.2490 -0.0174
 2626ntf    sn218317   3.126   4.592   3.181  0.0611 -0.0045 -0.0058
 2626ntf    nn318318   3.081   4.555   3.327  0.4808  0.3394  0.2143
 2626ntf    sn218319   2.979   4.627   3.423 -0.0205 -0.2879  0.1544
 2626ntf    cn118320   3.100   4.725   3.516 -0.0359  0.1363 -0.2706
 2626ntf    fn418321   3.320   4.422   3.173  0.2357  0.1279  0.7653
 2626ntf    fn418322   3.379   4.619   3.110  0.0523 -0.0160 -0.2942
 2626ntf    fn418323   3.341   4.565   3.321 -0.4073  0.0213  0.1686
 2626ntf    on518324   3.123   4.735   3.166 -1.4024 -0.0498 -0.2416
 2626ntf    on518325   3.080   4.510   3.072  0.3418 -0.1039 -0.0512
 2626ntf    on518326   2.923   4.533   3.517 -1.1375  0.1015 -0.1017
 2626ntf    on518327   2.887   4.724   3.367  0.2122 -0.1957 -0.0703
 2626ntf    fn418328   3.183   4.653   3.590  0.1242  0.4775 -0.1151
 2626ntf    fn418329   3.168   4.792   3.424  0.2950 -0.2060 -0.2799
 2626ntf    fn418330   3.039   4.811   3.595 -0.2005 -0.4622  0.2544
 2627ntf    cn118331   0.214   1.672   4.535  0.1670  0.2528 -0.1447
 2627ntf    sn218332   0.371   1.595   4.585 -0.0124 -0.2752 -0.3893
 2627ntf    nn318333   0.331   1.508   4.708 -0.2152 -0.2243 -0.4191
 2627ntf    sn218334   0.279   1.360   4.710 -0.5098 -0.1188 -0.0347
 2627ntf    cn118335   0.416   1.265   4.781 -0.2751  0.0275 -0.2925
 2627ntf    fn418336   0.163   1.741   4.636  0.0664 -0.4047  0.2574
 2627ntf    fn418337   0.214   1.751   4.429  0.2901  0.1147 -0.2485
 2627ntf    fn418338   0.123   1.580   4.510  0.6048 -0.2529  0.1056
 2627ntf    on518339   0.416   1.527   4.466  0.1373 -0.1644 -0.3969
 2627ntf    on518340   0.441   1.716   4.623 -0.2517 -0.1181 -0.4486
 2627ntf    on518341   0.261   1.301   4.579  0.7604 -0.1218 -0.2178
 2627ntf    on518342   0.171   1.347   4.805 -0.7745  0.0031 -0.3152
 2627ntf    fn418343   0.529   1.280   4.712 -0.3230  0.1711 -0.3392
 2627ntf    fn418344   0.448   1.308   4.901  0.1312  0.2125 -0.4631
 2627ntf    fn418345   0.398   1.134   4.786  0.0675  0.0035  0.5048
 2628ntf    cn118346   1.444   1.779   0.531  0.1509  0.1970 -0.4748
 2628ntf    sn218347   1.441   1.960   0.518 -0.2348  0.2856  0.6739
 2628ntf    nn318348   1.481   2.010   0.662 -0.0261  0.3555  0.5932
 2628ntf    sn218349   1.559   2.137   0.710  0.4485  0.2023  0.2305
 2628ntf    cn118350   1.697   2.057   0.798  0.3093 -0.3015 -0.0041
 2628ntf    fn418351   1.409   1.708   0.426  0.3157 -0.1826 -0.2761
 2628ntf    fn418352   1.562   1.735   0.573 -0.1710  0.2724  0.5509
 2628ntf    fn418353   1.358   1.737   0.622 -0.1099  0.7780 -0.4504
 2628ntf    on518354   1.539   1.995   0.418 -0.8673  0.3935  0.0830
 2628ntf    on518355   1.303   1.990   0.489 -0.1798  0.1121  0.2243
 2628ntf    on518356   1.475   2.206   0.804 -0.1378 -0.0669 -0.0906
 2628ntf    on518357   1.622   2.219   0.609  0.5669 -0.0911  0.0636
 2628ntf    fn418358   1.800   2.136   0.824  0.1940 -0.3361  0.5638
 2628ntf    fn418359   1.661   1.999   0.911  0.7505 -0.3628  0.1053
 2628ntf    fn418360   1.738   1.960   0.718  0.6040 -0.1892  0.0116
 2629ntf    cn118361   4.004   2.846   1.518 -0.2051  0.0754  0.0791
 2629ntf    sn218362   3.948   2.721   1.398 -0.2097  0.0654  0.0913
 2629ntf    nn318363   3.865   2.636   1.501  0.2024  0.0523  0.4138
 2629ntf    sn218364   3.839   2.482   1.511  0.4196  0.0097  0.3206
 2629ntf    cn118365   3.707   2.463   1.388 -0.1318 -0.0637  0.9212
 2629ntf    fn418366   4.079   2.945   1.474 -0.7957  0.5066  0.0325
 2629ntf    fn418367   3.898   2.902   1.574 -0.2946  0.1424 -0.1586
 2629ntf    fn418368   4.071   2.795   1.620  0.1069  0.4869  0.0795
 2629ntf    on518369   3.872   2.800   1.305 -0.3178  0.6339  0.6524
 2629ntf    on518370   4.073   2.666   1.352 -0.2522  0.0818 -0.0406
 2629ntf    on518371   3.778   2.447   1.637 -0.2750  0.0776  0.0079
 2629ntf    on518372   3.944   2.397   1.461 -0.1882 -0.4718 -0.1473
 2629ntf    fn418373   3.625   2.367   1.427 -0.6634 -0.0892 -0.2178
 2629ntf    fn418374   3.630   2.567   1.359 -0.0120 -0.2739 -0.1703
 2629ntf    fn418375   3.756   2.425   1.272 -0.5805  0.1309  0.6665
 2630ntf    cn118376   2.925   6.799   4.523  0.4072 -0.2078  0.5645
 2630ntf    sn218377   2.786   6.766   4.636 -0.2888  0.4596 -0.0776
 2630ntf    nn318378   2.855   6.686   4.752 -0.3669  0.2283 -0.1884
 2630ntf    sn218379   2.813   6.680   4.903 -0.0077  0.1830 -0.0894
 2630ntf    cn118380   2.751   6.510   4.906  0.3907  0.0388  0.0045
 2630ntf    fn418381   2.994   6.907   4.555  0.0021  0.0195  0.6809
 2630ntf    fn418382   3.012   6.700   4.516 -0.2017 -0.7237  0.1270
 2630ntf    fn418383   2.887   6.822   4.398  0.5160 -0.0537  0.5597
 2630ntf    on518384   2.745   6.901   4.663  0.1807  0.6052 -0.0883
 2630ntf    on518385   2.696   6.678   4.565 -0.2504  0.5329 -0.2183
 2630ntf    on518386   2.695   6.760   4.927  0.0340  0.1866  0.1050
 2630ntf    on518387   2.925   6.685   4.995  0.1502  0.3387 -0.2884
 2630ntf    fn418388   2.653   6.498   4.819  0.4527 -0.1987 -0.0352
 2630ntf    fn418389   2.846   6.425   4.870  0.1440 -0.0043 -0.5499
 2630ntf    fn418390   2.714   6.483   5.031 -0.1961  0.1404 -0.1473
 2631ntf    cn118391   6.875   5.176   6.963  0.0070 -0.0622  0.2058
 2631ntf    sn218392   6.806   5.074   7.097  0.1633 -0.2515  0.1414
 2631ntf    nn318393   6.754   4.947   7.021 -0.2140 -0.0237  0.0188
 2631ntf    sn218394   6.804   4.798   7.029  0.2254  0.1241  0.0448
 2631ntf    cn118395   6.932   4.814   6.901 -0.0863  0.4466 -0.2328
 2631ntf    fn418396   6.792   5.195   6.862  0.2664 -0.6629 -0.1268
 2631ntf    fn418397   6.916   5.296   7.000  0.6896 -0.4436  0.7162
 2631ntf    fn418398   6.987   5.117   6.925 -0.0109  0.3033 -0.4344
 2631ntf    on518399   6.911   5.057   7.194  0.2019  0.1292  0.1646
 2631ntf    on518400   6.691   5.152   7.133 -0.3454 -0.9968  0.1599
 2631ntf    on518401   6.713   4.708   6.962 -0.1813  0.3022  0.3499
 2631ntf    on518402   6.859   4.745   7.151 -0.1236  0.2130  0.2414
 2631ntf    fn418403   7.005   4.704   6.887  0.2426  0.5874  0.3181
 2631ntf    fn418404   6.877   4.841   6.784 -0.7606  0.1992  0.0209
 2631ntf    fn418405   7.022   4.906   6.930  0.1026  0.2384 -0.1486
 2632ntf    cn118406   0.072   3.929   1.948  0.3361 -0.4523 -0.3045
 2632ntf    sn218407   0.009   4.060   1.839  0.5566 -0.1255 -0.0407
 2632ntf    nn318408  -0.077   4.138   1.944  0.5261 -0.1028 -0.0826
 2632ntf    sn218409  -0.051   4.283   1.998  0.3542 -0.1134  0.0288
 2632ntf    cn118410  -0.095   4.368   1.843  0.0092  0.3198  0.3611
 2632ntf    fn418411  -0.026   3.855   1.996 -0.1963  0.3999 -0.0675
 2632ntf    fn418412   0.156   3.845   1.888  0.0872 -0.7006 -0.3058
 2632ntf    fn418413   0.138   3.980   2.050 -0.2979 -0.4117  0.0870
 2632ntf    on518414   0.125   4.131   1.790  0.0297  0.3012 -0.6865
 2632ntf    on518415  -0.082   4.001   1.744 -0.2555  0.5916  0.2830
 2632ntf    on518416   0.085   4.325   2.021  0.3583 -0.1771  0.1268
 2632ntf    on518417  -0.155   4.327   2.088 -0.1457 -0.0417 -0.5723
 2632ntf    fn418418  -0.011   4.470   1.834  0.5126 -0.0596  0.6957
 2632ntf    fn418419  -0.080   4.285   1.741  0.3241  0.4746  0.2790
 2632ntf    fn418420  -0.220   4.408   1.850 -0.0188  0.2579  0.2049
 2633ntf    cn118421   4.246   5.448   2.715  0.4372  0.3212  0.4497
 2633ntf    sn218422   4.097   5.552   2.697  0.3248  0.0655 -0.1169
 2633ntf    nn318423   4.111   5.602   2.549 -0.7897 -0.3611 -0.3741
 2633ntf    sn218424   4.180   5.735   2.500 -0.0253 -0.5166  0.2713
 2633ntf    cn118425   4.039   5.849   2.494  0.1214 -0.3590 -0.1396
 2633ntf    fn418426   4.270   5.439   2.844 -0.0864 -0.7993  0.4862
 2633ntf    fn418427   4.227   5.325   2.669  0.2156  0.4534  0.1812
 2633ntf    fn418428   4.358   5.494   2.662  0.5340 -0.4726 -0.0619
 2633ntf    on518429   3.994   5.452   2.708  0.4775 -0.0371  0.4107
 2633ntf    on518430   4.097   5.653   2.799 -0.5293  0.0008 -0.0512
 2633ntf    on518431   4.224   5.736   2.363 -0.2778 -0.4072  0.1919
 2633ntf    on518432   4.272   5.793   2.594 -0.0022  0.1858 -0.1827
 2633ntf    fn418433   3.953   5.818   2.398  0.1154  0.2540 -0.3379
 2633ntf    fn418434   3.980   5.859   2.612  0.5322 -0.1805  0.0509
 2633ntf    fn418435   4.076   5.972   2.463 -0.0571 -0.2504  0.0770
 2634ntf    cn118436   1.879   2.383   6.803  0.1804 -0.6166  0.3234
 2634ntf    sn218437   1.797   2.230   6.747 -0.5763 -0.1266  0.0818
 2634ntf    nn318438   1.811   2.137   6.873  0.1178  0.0682  0.1570
 2634ntf    sn218439   1.726   2.008   6.901  0.2714 -0.1312 -0.2775
 2634ntf    cn118440   1.840   1.868   6.877  0.3889 -0.0499 -0.1941
 2634ntf    fn418441   1.882   2.465   6.699  0.3521 -0.4077  0.4946
 2634ntf    fn418442   1.815   2.452   6.895  0.2027 -0.2174  0.0423
 2634ntf    fn418443   2.004   2.368   6.845  0.2875 -0.2722  0.1315
 2634ntf    on518444   1.665   2.278   6.717 -0.3508  0.1694 -0.4544
 2634ntf    on518445   1.873   2.178   6.636 -0.6274  0.1458 -0.0814
 2634ntf    on518446   1.620   1.976   6.808  0.0067  0.3490 -0.1451
 2634ntf    on518447   1.691   2.002   7.041 -0.6358  0.2445 -0.4795
 2634ntf    fn418448   1.880   1.869   6.752  0.1936  0.7375 -0.2572
 2634ntf    fn418449   1.949   1.872   6.952  0.4018 -0.0499 -0.2131
 2634ntf    fn418450   1.800   1.744   6.900  0.1858  0.0803  0.1748
 2635ntf    cn118451   1.599   0.421   1.242  0.0473  0.2398  0.2776
 2635ntf    sn218452   1.552   0.531   1.105 -0.0054 -0.1561 -0.0229
 2635ntf    nn318453   1.434   0.444   1.048  0.3007 -0.1281 -0.7096
 2635ntf    sn218454   1.278   0.449   1.059  0.3600  0.0853  0.1085
 2635ntf    cn118455   1.245   0.473   0.882 -0.1623  0.4035  0.2472
 2635ntf    fn418456   1.587   0.292   1.218  0.9611  0.1765  0.1199
 2635ntf    fn418457   1.727   0.436   1.274  0.1899 -0.2245 -0.0727
 2635ntf    fn418458   1.528   0.447   1.351 -0.4880  0.1280 -0.0465
 2635ntf    on518459   1.509   0.660   1.152 -0.3790 -0.1237 -0.4465
 2635ntf    on518460   1.681   0.523   1.041 -0.1000  0.3285 -0.2735
 2635ntf    on518461   1.219   0.564   1.123 -0.1189  0.0857 -0.3276
 2635ntf    on518462   1.223   0.319   1.091  0.0912  0.2463  0.3073
 2635ntf    fn418463   1.257   0.358   0.818 -1.1015  0.2918  0.2549
 2635ntf    fn418464   1.124   0.526   0.871 -0.4647 -0.2739  0.2844
 2635ntf    fn418465   1.327   0.558   0.822 -0.4745  0.3941 -0.1966
 2636ntf    cn118466   6.489   5.861   6.215 -0.2037 -0.0543 -0.0808
 2636ntf    sn218467   6.408   5.859   6.052 -0.5403  0.5069  0.0781
 2636ntf    nn318468   6.333   5.722   6.053 -0.1418  0.2894  0.7342
 2636ntf    sn218469   6.186   5.688   6.009  0.1738 -0.1327 -0.0211
 2636ntf    cn118470   6.219   5.671   5.832 -0.2458  0.0159 -0.1146
 2636ntf    fn418471   6.554   5.974   6.238  0.1367 -0.1837 -0.4000
 2636ntf    fn418472   6.398   5.849   6.310 -0.4771  0.8544 -0.2105
 2636ntf    fn418473   6.562   5.752   6.233 -0.8999 -0.4249  0.5343
 2636ntf    on518474   6.326   5.978   6.050 -0.6621  0.4192 -0.1334
 2636ntf    on518475   6.516   5.865   5.957 -0.4532  0.6763  0.1846
 2636ntf    on518476   6.084   5.790   6.006 -0.0745 -0.3966 -0.5571
 2636ntf    on518477   6.145   5.556   6.048  0.8730 -0.2636  0.2770
 2636ntf    fn418478   6.267   5.780   5.774  0.3676 -0.1602  0.0628
 2636ntf    fn418479   6.297   5.568   5.804 -0.3336 -0.0167 -0.2416
 2636ntf    fn418480   6.106   5.637   5.770 -0.0396 -0.2463 -0.3535
 2637ntf    cn118481   0.306   5.616   3.616 -0.2732  0.3032  0.2283
 2637ntf    sn218482   0.240   5.779   3.663 -0.1734  0.2976  0.3844
 2637ntf    nn318483   0.302   5.787   3.808  0.5438  0.4272  0.0772
 2637ntf    sn218484   0.344   5.915   3.888 -0.1603  0.4140  0.4751
 2637ntf    cn118485   0.183   5.930   3.972 -0.2135  0.1870  0.4145
 2637ntf    fn418486   0.244   5.574   3.507 -0.1330  0.5695  0.0460
 2637ntf    fn418487   0.432   5.628   3.578 -0.1181 -0.3960  0.5129
 2637ntf    fn418488   0.297   5.517   3.703 -0.2265 -0.1634 -0.2939
 2637ntf    on518489   0.307   5.868   3.572 -0.0115 -0.1394  0.0741
 2637ntf    on518490   0.097   5.769   3.664 -0.1641  0.1429  0.9884
 2637ntf    on518491   0.376   6.041   3.828  0.3705 -0.1968 -0.5459
 2637ntf    on518492   0.422   5.871   4.002 -0.8089  0.2657  0.8672
 2637ntf    fn418493   0.157   5.812   4.027  0.5749  0.1031  0.6216
 2637ntf    fn418494   0.177   6.025   4.064 -0.0763  0.4568  0.1461
 2637ntf    fn418495   0.082   5.949   3.889 -0.0535  0.4293  0.2749
 2638ntf    cn118496   5.711   6.287   1.613  0.2207 -0.0648  0.3431
 2638ntf    sn218497   5.619   6.147   1.683 -0.0783  0.1921  0.4648
 2638ntf    nn318498   5.626   6.190   1.834 -0.1561  0.1883  0.4697
 2638ntf    sn218499   5.516   6.151   1.939 -0.3124 -0.2738  0.1385
 2638ntf    cn118500   5.617   6.046   2.047  0.3327  0.1177 -0.0783
 2638ntf    fn418501   5.835   6.292   1.659  0.2643 -0.4745  0.2770
 2638ntf    fn418502   5.714   6.281   1.481  0.1770  0.0853  0.3350
 2638ntf    fn418503   5.656   6.400   1.654 -0.4025 -0.4143  0.4877
 2638ntf    on518504   5.497   6.173   1.610 -0.0494  0.1782  0.4124
 2638ntf    on518505   5.706   6.038   1.649 -0.1112  0.1525  0.5053
 2638ntf    on518506   5.412   6.060   1.898  0.2486 -0.8353 -0.0369
 2638ntf    on518507   5.481   6.266   2.020 -0.4839 -0.4132  0.2643
 2638ntf    fn418508   5.656   5.931   1.996  0.2400  0.0208  0.0659
 2638ntf    fn418509   5.722   6.120   2.079  0.2682  0.0464  0.3084
 2638ntf    fn418510   5.551   6.019   2.159  0.6133 -0.0031  0.0590
 2639ntf    cn118511   0.605   6.429   1.397 -0.1081 -0.0897  0.2590
 2639ntf    sn218512   0.507   6.515   1.524 -0.0708  0.2734  0.0447
 2639ntf    nn318513   0.601   6.637   1.553 -0.0970  0.3635 -0.2431
 2639ntf    sn218514   0.705   6.658   1.669 -0.0608  0.2887 -0.2616
 2639ntf    cn118515   0.604   6.740   1.796  0.3637 -0.2879  0.4564
 2639ntf    fn418516   0.620   6.502   1.288  0.4152 -0.5048  0.0490
 2639ntf    fn418517   0.725   6.412   1.451 -0.0050  0.2350  0.1338
 2639ntf    fn418518   0.562   6.311   1.356  0.4399 -0.3436  0.3907
 2639ntf    on518519   0.387   6.550   1.453 -0.0125  0.3820  0.0011
 2639ntf    on518520   0.500   6.414   1.628  0.4889  0.5766  0.3817
 2639ntf    on518521   0.802   6.760   1.639  0.9108 -0.3730  0.5302
 2639ntf    on518522   0.749   6.544   1.746 -0.1140  0.2305 -0.3174
 2639ntf    fn418523   0.662   6.745   1.915  0.3173  0.3247  0.4552
 2639ntf    fn418524   0.577   6.868   1.774  0.1187 -0.3609  0.3310
 2639ntf    fn418525   0.490   6.676   1.819  0.0269  0.2670  0.3431
 2640ntf    cn118526   6.502   5.938   2.162 -0.7271  0.2295  0.7000
 2640ntf    sn218527   6.513   5.757   2.152 -0.3570  0.2984 -0.3340
 2640ntf    nn318528   6.534   5.706   2.299  0.3972 -0.1183 -0.5775
 2640ntf    sn218529   6.515   5.564   2.363 -0.2304 -0.0577 -0.6227
 2640ntf    cn118530   6.671   5.482   2.317 -0.0598 -0.3530  0.4461
 2640ntf    fn418531   6.613   5.999   2.200  0.0375 -0.6117 -0.1101
 2640ntf    fn418532   6.467   5.986   2.043  0.5644 -0.3209  0.0841
 2640ntf    fn418533   6.416   5.989   2.248 -0.5968  0.2611  0.8112
 2640ntf    on518534   6.381   5.731   2.101 -0.1471 -0.5608 -0.4497
 2640ntf    on518535   6.621   5.719   2.065 -0.4714  0.0476 -0.3675
 2640ntf    on518536   6.409   5.485   2.305 -0.0622 -0.2361 -0.6900
 2640ntf    on518537   6.509   5.559   2.507 -0.0882 -0.1856 -0.6219
 2640ntf    fn418538   6.691   5.373   2.389 -0.3502 -0.6512  0.0809
 2640ntf    fn418539   6.667   5.440   2.192 -0.4206  0.0877  0.3059
 2640ntf    fn418540   6.777   5.558   2.338 -0.7263  0.6887  0.1348
 2641ntf    cn118541   1.774   4.768   1.872  0.5716  0.4192  0.0599
 2641ntf    sn218542   1.825   4.747   2.046 -0.4023  0.1812  0.3234
 2641ntf    nn318543   1.809   4.592   2.067 -0.3852  0.1138 -0.1473
 2641ntf    sn218544   1.911   4.489   2.127 -0.0331  0.3793 -0.2848
 2641ntf    cn118545   1.924   4.372   1.989  0.2351  0.1554 -0.0704
 2641ntf    fn418546   1.817   4.886   1.833  0.0522  0.4213 -0.5289
 2641ntf    fn418547   1.817   4.673   1.790 -0.0935 -0.1072  0.3059
 2641ntf    fn418548   1.645   4.769   1.842  0.6190 -0.3362 -0.1894
 2641ntf    on518549   1.959   4.798   2.059 -0.2448 -0.3243  0.7281
 2641ntf    on518550   1.725   4.821   2.118  0.0078  0.0361  1.0471
 2641ntf    on518551   1.849   4.408   2.229 -0.2421  0.1507 -0.5932
 2641ntf    on518552   2.042   4.542   2.154 -0.1858  0.5210  0.1971
 2641ntf    fn418553   1.982   4.423   1.881  0.2649  0.3594  0.0411
 2641ntf    fn418554   1.993   4.265   2.026 -0.4520 -0.2660  0.0148
 2641ntf    fn418555   1.803   4.335   1.948  0.3584 -0.3951  0.0632
 2642ntf    cn118556   5.983   4.407   5.313 -0.3602 -0.2227 -0.3786
 2642ntf    sn218557   6.073   4.275   5.228 -0.0414 -0.2037 -0.0687
 2642ntf    nn318558   6.209   4.345   5.192 -0.1190 -0.1757 -0.3099
 2642ntf    sn218559   6.236   4.468   5.098 -0.0085 -0.0808 -0.1554
 2642ntf    cn118560   6.389   4.404   5.023  0.0002  0.0104 -0.2167
 2642ntf    fn418561   5.949   4.515   5.243 -0.1172  0.1777  0.1143
 2642ntf    fn418562   5.876   4.348   5.364  0.1009 -0.2510  0.5647
 2642ntf    fn418563   6.055   4.447   5.416 -0.2597  0.3621 -0.6683
 2642ntf    on518564   6.085   4.174   5.330  0.3050  0.0592  0.1552
 2642ntf    on518565   5.995   4.232   5.115 -0.1974 -0.3541  0.0946
 2642ntf    on518566   6.293   4.583   5.164 -0.3639 -0.1549  0.2877
 2642ntf    on518567   6.151   4.486   4.984 -0.4958 -0.3162  0.1647
 2642ntf    fn418568   6.471   4.497   4.979 -0.4657  0.1891 -0.7243
 2642ntf    fn418569   6.450   4.331   5.115  0.0877  0.1232 -0.1855
 2642ntf    fn418570   6.366   4.330   4.916 -0.2530 -0.3496  0.0814
 2643ntf    cn118571   5.597   4.119   3.183 -0.3705 -0.2258 -0.2920
 2643ntf    sn218572   5.594   3.941   3.220  0.3127 -0.0596  0.6123
 2643ntf    nn318573   5.674   3.890   3.095  0.3306  0.2087  0.5134
 2643ntf    sn218574   5.805   3.804   3.077  0.0385 -0.1113 -0.1137
 2643ntf    cn118575   5.755   3.649   3.158 -0.1805 -0.0658 -0.1613
 2643ntf    fn418576   5.567   4.194   3.287  0.2032  0.3774 -0.5554
 2643ntf    fn418577   5.716   4.159   3.140 -0.1716 -0.4973 -0.0007
 2643ntf    fn418578   5.512   4.159   3.090 -0.4943 -0.3757 -0.2439
 2643ntf    on518579   5.664   3.930   3.345  0.3173 -0.8054  0.5487
 2643ntf    on518580   5.454   3.905   3.217  0.1452  0.5784  0.7529
 2643ntf    on518581   5.916   3.831   3.165  0.6449  0.3865 -1.0214
 2643ntf    on518582   5.835   3.770   2.940  0.4041  0.1519 -0.0990
 2643ntf    fn418583   5.640   3.601   3.112 -0.1678 -0.1793 -0.0759
 2643ntf    fn418584   5.843   3.552   3.140 -0.1102 -0.0514  0.1035
 2643ntf    fn418585   5.746   3.664   3.289 -0.4012  0.6174 -0.2492
 2644ntf    cn118586   0.392   0.860   6.737 -0.1545 -0.2161  0.3005
 2644ntf    sn218587   0.212   0.833   6.723 -0.0909 -0.4003 -0.1825
 2644ntf    nn318588   0.186   0.736   6.844  0.0870 -0.3105 -0.0707
 2644ntf    sn218589   0.147   0.778   6.990  0.2545  0.2242 -0.1784
 2644ntf    cn118590   0.296   0.731   7.083 -0.1448 -0.1529  0.2727
 2644ntf    fn418591   0.450   0.745   6.766  0.1201 -0.1160  0.1515
 2644ntf    fn418592   0.444   0.917   6.630  0.1116  0.1400  0.6133
 2644ntf    fn418593   0.431   0.943   6.833  0.4935 -0.4063  0.2053
 2644ntf    on518594   0.146   0.961   6.735 -0.3459 -0.5023 -0.5112
 2644ntf    on518595   0.194   0.769   6.596  0.5685  0.4519 -0.7161
 2644ntf    on518596   0.036   0.697   7.033  0.4701 -0.1962 -0.4079
 2644ntf    on518597   0.151   0.918   7.027 -0.8324  0.0515  0.6348
 2644ntf    fn418598   0.279   0.743   7.214  0.1260  0.3707  0.2617
 2644ntf    fn418599   0.344   0.608   7.074  0.0419 -0.0656  0.0859
 2644ntf    fn418600   0.392   0.817   7.056 -0.4054  0.2827  0.7128
 2645ntf    cn118601   3.444   4.874   4.272 -0.2584  0.0143  0.3750
 2645ntf    sn218602   3.426   4.966   4.428 -0.1336  0.0904  0.3446
 2645ntf    nn318603   3.300   4.892   4.487 -0.1294  0.0730  0.3322
 2645ntf    sn218604   3.271   4.821   4.624 -0.4758  0.4278  0.4460
 2645ntf    cn118605   3.104   4.758   4.589 -0.4145  0.1949  0.5734
 2645ntf    fn418606   3.558   4.894   4.207 -0.3108 -0.3341  0.1769
 2645ntf    fn418607   3.442   4.743   4.291  0.3426 -0.0574 -0.0448
 2645ntf    fn418608   3.348   4.904   4.186 -0.1320 -0.1896  0.1635
 2645ntf    on518609   3.549   4.947   4.501 -0.0585 -0.1558  0.1548
 2645ntf    on518610   3.399   5.102   4.390 -0.7859 -0.2854 -0.5797
 2645ntf    on518611   3.252   4.902   4.741  0.0824 -0.3463  1.0820
 2645ntf    on518612   3.351   4.702   4.634 -0.4781  0.4108  0.2703
 2645ntf    fn418613   3.015   4.850   4.622 -0.2091  0.5553  0.1275
 2645ntf    fn418614   3.078   4.747   4.460  0.5175  0.0797  0.3887
 2645ntf    fn418615   3.079   4.643   4.650  0.4229 -0.1480  0.2815
 2646ntf    cn118616   3.312   1.041   3.090 -0.0882  0.2077  0.2294
 2646ntf    sn218617   3.332   1.079   3.267 -0.3187  0.2720  0.2428
 2646ntf    nn318618   3.458   1.173   3.258  0.0013 -0.1332  0.4050
 2646ntf    sn218619   3.612   1.148   3.259  0.0649  0.2098 -0.0556
 2646ntf    cn118620   3.641   1.149   3.439 -0.0999  0.2713 -0.0298
 2646ntf    fn418621   3.424   1.017   3.024 -0.2250  0.4977 -0.1089
 2646ntf    fn418622   3.231   0.938   3.070 -0.0594  0.1413  0.4521
 2646ntf    fn418623   3.269   1.149   3.027 -0.1652  0.1247  0.1401
 2646ntf    on518624   3.210   1.152   3.290 -0.8140 -0.3493 -0.3771
 2646ntf    on518625   3.349   0.952   3.333 -0.3511  0.0757 -0.1253
 2646ntf    on518626   3.696   1.257   3.216 -0.2994  0.1502 -0.9249
 2646ntf    on518627   3.658   1.015   3.225 -0.0133  0.0373  0.5013
 2646ntf    fn418628   3.569   1.064   3.509  0.2460 -0.2053 -0.2509
 2646ntf    fn418629   3.768   1.125   3.467 -0.1348 -0.1686 -0.2371
 2646ntf    fn418630   3.614   1.267   3.494  0.2060  0.1451  0.3964
 2647ntf    cn118631   5.904   6.762   5.028 -0.1743 -0.1699  0.1888
 2647ntf    sn218632   5.863   6.621   5.135  0.2898 -0.0440  0.5367
 2647ntf    nn318633   6.004   6.554   5.144  0.3810  0.0877  0.0887
 2647ntf    sn218634   6.056   6.407   5.124 -0.0151 -0.0880  0.3400
 2647ntf    cn118635   6.195   6.402   5.242 -0.0845  0.0014  0.4271
 2647ntf    fn418636   6.028   6.803   5.046 -0.2673  0.0225  0.3927
 2647ntf    fn418637   5.894   6.723   4.902  0.0504 -0.1042  0.1508
 2647ntf    fn418638   5.824   6.866   5.039  0.2191  0.2295 -0.6252
 2647ntf    on518639   5.822   6.690   5.255 -0.3315 -0.2680  0.4596
 2647ntf    on518640   5.775   6.542   5.052  0.2934  0.1209  0.3766
 2647ntf    on518641   6.127   6.382   5.002  0.1211 -0.2240  0.4463
 2647ntf    on518642   5.967   6.307   5.177 -0.9210  0.2856 -0.4593
 2647ntf    fn418643   6.267   6.291   5.244  0.1628  0.1487 -0.0759
 2647ntf    fn418644   6.287   6.495   5.218  0.0257 -0.3037 -0.3725
 2647ntf    fn418645   6.150   6.419   5.365 -0.2103  0.1798  0.3575
 2648ntf    cn118646   5.124   3.016   6.753 -0.2802 -0.3646  0.3472
 2648ntf    sn218647   5.289   2.944   6.778 -0.0001  0.2884  0.4017
 2648ntf    nn318648   5.241   2.836   6.882  0.1852 -0.1658  0.0218
 2648ntf    sn218649   5.273   2.833   7.036 -0.4726 -0.4269  0.1535
 2648ntf    cn118650   5.229   2.657   7.051 -0.2820 -0.5177 -0.3384
 2648ntf    fn418651   5.071   3.078   6.857 -0.0938  0.1637  0.1275
 2648ntf    fn418652   5.117   3.100   6.651 -0.4729 -0.3883  0.3399
 2648ntf    fn418653   5.036   2.920   6.730 -0.1051 -0.3314 -0.5057
 2648ntf    on518654   5.321   2.884   6.651  0.3386  0.3644  0.4486
 2648ntf    on518655   5.371   3.052   6.826  0.5774 -0.1677  0.4545
 2648ntf    on518656   5.179   2.892   7.128 -0.6193  0.1834 -0.3796
 2648ntf    on518657   5.413   2.834   7.067 -0.6608  0.3952  1.0236
 2648ntf    fn418658   5.120   2.619   6.987 -0.1709 -0.5091 -0.5337
 2648ntf    fn418659   5.332   2.582   7.014  0.6647  0.5130  0.1330
 2648ntf    fn418660   5.217   2.629   7.179 -0.1403  0.1062 -0.1822
 2649ntf    cn118661   6.390   6.656   2.513  0.3392  0.0141 -0.0138
 2649ntf    sn218662   6.212   6.681   2.539  0.4241  0.1543  0.4474
 2649ntf    nn318663   6.206   6.698   2.695  0.3088 -0.4497  0.5126
 2649ntf    sn218664   6.187   6.831   2.776  0.3501 -0.1353  0.0055
 2649ntf    cn118665   6.006   6.845   2.796  0.3927  0.1364  0.2080
 2649ntf    fn418666   6.458   6.770   2.525 -0.1881  0.3413 -0.1118
 2649ntf    fn418667   6.450   6.570   2.594 -0.1771 -0.0473  0.3042
 2649ntf    fn418668   6.408   6.616   2.388  0.3276 -0.4584  0.1350
 2649ntf    on518669   6.182   6.794   2.455  1.0085 -0.3954 -0.5197
 2649ntf    on518670   6.154   6.555   2.499  0.3405  0.2043  0.4138
 2649ntf    on518671   6.225   6.951   2.705  0.5046 -0.3477 -0.2699
 2649ntf    on518672   6.238   6.820   2.910  0.1833 -0.3926  0.0477
 2649ntf    fn418673   5.983   6.958   2.861  0.2963  0.3435 -0.1844
 2649ntf    fn418674   5.933   6.840   2.686  0.5528  0.0305  0.1045
 2649ntf    fn418675   5.963   6.752   2.879  0.2189 -0.2902 -0.3540
 2650ntf    cn118676   6.287   0.113   1.660 -0.4002  0.1364  0.6634
 2650ntf    sn218677   6.145   0.006   1.699 -0.0645 -0.4585  0.2650
 2650ntf    nn318678   6.115  -0.059   1.559 -0.1964  0.5902 -0.1958
 2650ntf    sn218679   5.984  -0.059   1.473 -0.4152 -0.1265  0.1326
 2650ntf    cn118680   6.003   0.092   1.374 -0.3187  0.0212  0.3763
 2650ntf    fn418681   6.290   0.145   1.532 -0.1597  0.1116  0.6622
 2650ntf    fn418682   6.271   0.230   1.720  0.1235  0.2827  0.5149
 2650ntf    fn418683   6.409   0.070   1.688  0.4416  1.5383 -0.7137
 2650ntf    on518684   6.175  -0.088   1.805  0.5803 -0.0603  0.4429
 2650ntf    on518685   6.056   0.111   1.740  0.7519  0.2737  0.1813
 2650ntf    on518686   5.858  -0.045   1.542 -0.3552  0.7016  0.0868
 2650ntf    on518687   5.998  -0.158   1.369  0.2953  0.7562 -0.6272
 2650ntf    fn418688   6.120   0.097   1.312 -0.2390 -0.1236  0.5161
 2650ntf    fn418689   5.914   0.132   1.285  0.3285  0.1284 -0.2310
 2650ntf    fn418690   6.000   0.194   1.459 -0.0182  0.0621  0.3404
 2651ntf    cn118691   4.112   3.762   0.719  0.2885  0.3680 -0.1071
 2651ntf    sn218692   3.945   3.730   0.655  0.1327  0.1515  0.3996
 2651ntf    nn318693   3.870   3.854   0.716 -0.2593 -0.2450  0.7260
 2651ntf    sn218694   3.744   3.936   0.672  0.3209  0.0685 -0.3834
 2651ntf    cn118695   3.624   3.866   0.789  0.5627 -0.2382 -0.3189
 2651ntf    fn418696   4.172   3.854   0.647  0.4439  0.1144 -0.3001
 2651ntf    fn418697   4.107   3.805   0.845 -0.5610 -0.0851  0.0196
 2651ntf    fn418698   4.188   3.654   0.723 -0.4222 -0.1704 -0.8113
 2651ntf    on518699   3.965   3.723   0.512  0.4042 -0.5718  0.4662
 2651ntf    on518700   3.915   3.607   0.723 -0.0014 -0.0731 -0.0608
 2651ntf    on518701   3.681   3.914   0.544  0.3920  0.1985 -0.4417
 2651ntf    on518702   3.757   4.071   0.722 -0.2693  0.0834 -0.2660
 2651ntf    fn418703   3.585   3.741   0.766  0.1290 -0.1038 -0.3263
 2651ntf    fn418704   3.688   3.856   0.904  0.2390 -0.1790 -0.1320
 2651ntf    fn418705   3.515   3.935   0.820  0.5209 -0.0816 -0.8124
 2652ntf    cn118706   3.876   5.311   1.661 -0.2953 -0.0814 -0.0411
 2652ntf    sn218707   3.837   5.460   1.757  0.5005 -0.1279  0.3637
 2652ntf    nn318708   3.782   5.397   1.889 -0.4675  0.0339  0.0432
 2652ntf    sn218709   3.662   5.300   1.919 -0.4439 -0.0160 -0.0259
 2652ntf    cn118710   3.585   5.407   2.044 -0.0922 -0.0379  0.2099
 2652ntf    fn418711   3.956   5.320   1.555  0.0513 -0.0837  0.2170
 2652ntf    fn418712   3.929   5.220   1.741 -0.0321 -0.1559 -0.2959
 2652ntf    fn418713   3.765   5.254   1.618 -0.7191  0.3714  0.4504
 2652ntf    on518714   3.966   5.522   1.774  0.7605 -0.5862  0.0951
 2652ntf    on518715   3.731   5.530   1.688  0.4530 -0.5885 -0.0401
 2652ntf    on518716   3.696   5.179   1.990 -0.7262 -0.4559 -0.6324
 2652ntf    on518717   3.567   5.293   1.811 -0.2179 -0.0295 -0.2263
 2652ntf    fn418718   3.551   5.527   2.001  0.3018  0.1298  0.3567
 2652ntf    fn418719   3.471   5.347   2.074 -0.1874  0.1730  0.2681
 2652ntf    fn418720   3.655   5.426   2.155 -0.4906  0.3211  0.3989
 2653ntf    cn118721   5.648   5.784   3.276  0.0026  0.2344 -0.0385
 2653ntf    sn218722   5.724   5.642   3.362  0.0044  0.2971  0.0640
 2653ntf    nn318723   5.591   5.580   3.419 -0.0221  0.0734 -0.2404
 2653ntf    sn218724   5.539   5.591   3.566 -0.0276 -0.3307 -0.2105
 2653ntf    cn118725   5.438   5.440   3.568 -0.4301 -0.0665 -0.2735
 2653ntf    fn418726   5.591   5.751   3.162 -0.3932 -0.7794  0.4370
 2653ntf    fn418727   5.550   5.844   3.342 -0.0925 -0.2214  0.2452
 2653ntf    fn418728   5.730   5.883   3.244  0.0831  0.0220 -0.4863
 2653ntf    on518729   5.784   5.552   3.267  0.1259  0.0413  0.3843
 2653ntf    on518730   5.815   5.700   3.457  0.3557  0.2132 -0.2224
 2653ntf    on518731   5.447   5.697   3.600 -0.0970 -0.5000  0.1367
 2653ntf    on518732   5.642   5.566   3.664  0.3939 -0.3338 -0.6538
 2653ntf    fn418733   5.356   5.445   3.465 -0.6814  0.7211 -0.0360
 2653ntf    fn418734   5.510   5.332   3.540 -0.1229 -0.1147  0.6721
 2653ntf    fn418735   5.361   5.439   3.676 -0.4965 -0.1023 -0.3217
 2654ntf    cn118736   1.981   0.013   3.474 -0.7900  0.6275 -0.3538
 2654ntf    sn218737   1.905  -0.152   3.467 -0.3058  0.4044 -0.4151
 2654ntf    nn318738   1.954  -0.176   3.320  0.2882 -0.2410 -0.1197
 2654ntf    sn218739   1.877  -0.118   3.196 -0.0392  0.0755  0.2291
 2654ntf    cn118740   2.001  -0.169   3.073 -0.1475  0.0455  0.1309
 2654ntf    fn418741   1.911   0.109   3.417  0.1495  1.2119 -0.5499
 2654ntf    fn418742   2.000   0.055   3.598 -0.2181 -0.2188 -0.1445
 2654ntf    fn418743   2.103   0.013   3.422 -0.3195 -0.0829  0.6903
 2654ntf    on518744   1.967  -0.242   3.561 -0.2234  0.2030 -0.6598
 2654ntf    on518745   1.762  -0.133   3.475 -0.3237  0.2060 -0.2397
 2654ntf    on518746   1.883   0.025   3.185 -1.0788  0.1090 -0.0441
 2654ntf    on518747   1.753  -0.178   3.152 -0.1053  0.7330 -0.5120
 2654ntf    fn418748   1.987  -0.299   3.054 -0.4154  0.0553  0.2702
 2654ntf    fn418749   1.985  -0.111   2.955 -0.2335 -0.0705  0.0862
 2654ntf    fn418750   2.128  -0.152   3.108 -0.1884 -0.3782  0.4883
 2655ntf    cn118751   2.734   0.240   5.972 -0.5163 -0.3543  0.0158
 2655ntf    sn218752   2.878   0.130   5.991 -0.2785 -0.0470 -0.0036
 2655ntf    nn318753   2.993   0.224   5.941 -0.5100  0.1854 -0.0999
 2655ntf    sn218754   3.113   0.288   6.019 -0.4243  0.2172 -0.2563
 2655ntf    cn118755   3.248   0.175   5.973 -0.3881  0.1300  0.0634
 2655ntf    fn418756   2.698   0.256   5.846  0.0416 -0.3425 -0.1464
 2655ntf    fn418757   2.623   0.206   6.035 -0.2357 -0.5021  0.4361
 2655ntf    fn418758   2.759   0.363   6.012  0.2772 -0.5894  0.2763
 2655ntf    on518759   2.864   0.088   6.128  0.4876  0.2837  0.1795
 2655ntf    on518760   2.855   0.034   5.886  0.3892  0.0903 -0.2775
 2655ntf    on518761   3.113   0.281   6.163  0.2801  0.2991 -0.2476
 2655ntf    on518762   3.162   0.413   5.967 -0.4508  0.3828  0.1171
 2655ntf    fn418763   3.365   0.204   6.028 -0.4291 -0.4280  0.4621
 2655ntf    fn418764   3.229   0.049   6.011 -0.8974  0.2748  0.2941
 2655ntf    fn418765   3.280   0.179   5.845  0.1153 -0.7326  0.1500
 2656ntf    cn118766   3.624   4.361   0.179 -0.0623 -0.4604  0.0246
 2656ntf    sn218767   3.583   4.454   0.028  0.2680 -0.2075  0.0898
 2656ntf    nn318768   3.691   4.566   0.005 -0.5083  0.3734 -0.7897
 2656ntf    sn218769   3.742   4.661   0.119 -0.3217 -0.1117 -0.4689
 2656ntf    cn118770   3.772   4.817   0.032  0.1483  0.2438  0.3189
 2656ntf    fn418771   3.753   4.333   0.171  0.1568  0.5844 -0.2448
 2656ntf    fn418772   3.610   4.423   0.295 -0.3138 -0.6407  0.0913
 2656ntf    fn418773   3.546   4.256   0.195  0.1120 -0.4928  0.6987
 2656ntf    on518774   3.589   4.365  -0.085 -0.0738  0.0259 -0.1137
 2656ntf    on518775   3.456   4.510   0.064  0.4984  0.2415  0.2143
 2656ntf    on518776   3.873   4.624   0.169 -0.3446  0.4411  0.0046
 2656ntf    on518777   3.652   4.696   0.225  0.2848  0.0378  0.0058
 2656ntf    fn418778   3.662   4.845  -0.036  0.4648  0.7658  0.0049
 2656ntf    fn418779   3.803   4.917   0.113  0.2008  0.5395 -0.0644
 2656ntf    fn418780   3.864   4.808  -0.063  0.2306 -0.0601  0.4276
 2657ntf    cn118781   3.524   2.662   2.564  0.2826 -0.2063  0.1733
 2657ntf    sn218782   3.551   2.775   2.425  0.0865 -0.2207  0.1227
 2657ntf    nn318783   3.403   2.805   2.382  0.1815 -0.0459 -0.0823
 2657ntf    sn218784   3.350   2.937   2.315 -0.0728  0.0467  0.3024
 2657ntf    cn118785   3.295   3.032   2.460 -0.1362  0.2008  0.1776
 2657ntf    fn418786   3.418   2.681   2.642  0.4039  0.2759  0.2242
 2657ntf    fn418787   3.507   2.541   2.513 -0.0911 -0.0912  0.0233
 2657ntf    fn418788   3.619   2.654   2.656  0.1747  0.4038  0.3370
 2657ntf    on518789   3.614   2.894   2.478  0.2892  0.0794 -0.7760
 2657ntf    on518790   3.634   2.701   2.333  0.0754  0.6215 -0.5779
 2657ntf    on518791   3.224   2.903   2.254  0.3447 -0.1333 -0.4669
 2657ntf    on518792   3.438   3.033   2.252 -0.5932  0.2249 -0.1595
 2657ntf    fn418793   3.287   3.163   2.439  0.0543  0.2290  0.2683
 2657ntf    fn418794   3.179   2.982   2.498 -0.0718 -0.6098 -0.6722
 2657ntf    fn418795   3.383   3.021   2.559 -0.4545  0.0348  0.4420
 2658ntf    cn118796   0.981   6.946   3.466  0.0084 -0.5921  0.0295
 2658ntf    sn218797   1.126   7.037   3.527 -0.2244 -0.0600 -0.2020
 2658ntf    nn318798   1.088   7.176   3.465 -0.4263 -0.0143  0.0188
 2658ntf    sn218799   1.111   7.323   3.515  0.2323 -0.2167  0.3192
 2658ntf    cn118800   1.237   7.360   3.389 -0.4891  0.4167 -0.2283
 2658ntf    fn418801   0.978   6.958   3.334  0.3141  0.3389  0.0988
 2658ntf    fn418802   0.998   6.819   3.499  0.0443 -0.6712 -0.2894
 2658ntf    fn418803   0.864   6.992   3.505  0.3290  0.1285  0.1537
 2658ntf    on518804   1.122   7.031   3.671  0.3185  0.1996 -0.1741
 2658ntf    on518805   1.234   6.972   3.457 -0.0088  0.0834 -0.0044
 2658ntf    on518806   1.181   7.341   3.640 -0.2657  0.2732  0.5266
 2658ntf    on518807   0.996   7.406   3.490  0.0257 -0.2949  1.0095
 2658ntf    fn418808   1.235   7.486   3.350  0.1416  0.4333 -0.2214
 2658ntf    fn418809   1.356   7.341   3.445 -0.7579 -0.1502  0.1527
 2658ntf    fn418810   1.245   7.291   3.277 -0.2612  0.0774 -0.0089
 2659ntf    cn118811   3.184   4.056   6.182  0.0907  0.2872 -0.4394
 2659ntf    sn218812   3.355   4.020   6.231 -0.1337  0.0574  0.1962
 2659ntf    nn318813   3.410   4.165   6.256 -0.1531  0.2090 -0.5945
 2659ntf    sn218814   3.454   4.267   6.146  0.5444  0.2898 -0.2497
 2659ntf    cn118815   3.633   4.242   6.163  0.4935 -0.0247 -0.1787
 2659ntf    fn418816   3.099   3.955   6.194  0.5765 -0.0971 -0.2252
 2659ntf    fn418817   3.135   4.157   6.253 -0.2403  0.2246 -0.5754
 2659ntf    fn418818   3.169   4.098   6.058  0.3709 -0.1884 -0.6346
 2659ntf    on518819   3.333   3.940   6.348  0.5356 -0.4048  0.0128
 2659ntf    on518820   3.413   3.945   6.122  0.2111  0.4076  0.1364
 2659ntf    on518821   3.429   4.406   6.175  0.3798  0.2781 -0.3333
 2659ntf    on518822   3.432   4.238   6.006 -0.5057  0.6374 -0.1648
 2659ntf    fn418823   3.713   4.312   6.085  0.1312 -0.0462 -0.5684
 2659ntf    fn418824   3.678   4.272   6.284  0.2306  0.0183 -0.0922
 2659ntf    fn418825   3.649   4.113   6.136  0.1988 -0.1787  0.3567
 2660ntf    cn118826   0.769   4.627   2.192  0.0318 -0.6491  0.0939
 2660ntf    sn218827   0.931   4.629   2.274  0.0040 -0.0496  0.1391
 2660ntf    nn318828   0.967   4.772   2.220  0.1432 -0.0841  0.1401
 2660ntf    sn218829   1.104   4.847   2.236  0.0594  0.1909 -0.4296
 2660ntf    cn118830   1.176   4.793   2.077 -0.0600  0.0734 -0.4435
 2660ntf    fn418831   0.696   4.517   2.203 -0.5759 -0.2629  0.0267
 2660ntf    fn418832   0.687   4.724   2.229  0.6365  0.1551 -0.6401
 2660ntf    fn418833   0.787   4.656   2.064 -0.0266  0.7031  0.3727
 2660ntf    on518834   0.890   4.622   2.412  0.0573 -0.3842  0.1390
 2660ntf    on518835   0.994   4.517   2.209  0.5261 -0.1338  0.7853
 2660ntf    on518836   1.197   4.797   2.334 -0.0146  0.5004 -0.2024
 2660ntf    on518837   1.082   4.989   2.222  0.2249  0.2679  0.0723
 2660ntf    fn418838   1.302   4.832   2.079  0.0567 -0.3066 -0.1199
 2660ntf    fn418839   1.176   4.661   2.069  0.2715  0.0138  0.3796
 2660ntf    fn418840   1.118   4.836   1.966 -0.4285 -0.2259 -0.3708
 2661ntf    cn118841   3.999   4.815   1.113  0.1665 -0.2103 -0.3449
 2661ntf    sn218842   3.954   4.942   0.991  0.2375 -0.2057 -0.3667
 2661ntf    nn318843   3.872   4.851   0.891  0.1166  0.1351 -0.5777
 2661ntf    sn218844   3.744   4.885   0.807 -0.0325  0.1405 -0.3498
 2661ntf    cn118845   3.632   4.777   0.901  0.0291  0.2631 -0.1368
 2661ntf    fn418846   3.893   4.752   1.161 -0.0585  0.4824  0.0851
 2661ntf    fn418847   4.085   4.725   1.067  0.8978  0.1249  0.3434
 2661ntf    fn418848   4.048   4.876   1.219  0.1187 -0.5383 -0.1323
 2661ntf    on518849   3.883   5.047   1.060  0.7177 -0.4194  0.4637
 2661ntf    on518850   4.078   4.986   0.932 -0.0358  0.4712 -0.4341
 2661ntf    on518851   3.742   4.822   0.677 -0.4543 -0.6990  0.0583
 2661ntf    on518852   3.692   5.019   0.811 -0.2665  0.0443 -0.1547
 2661ntf    fn418853   3.625   4.813   1.028  0.0193  0.3705 -0.1677
 2661ntf    fn418854   3.508   4.791   0.859 -0.1538 -0.4449  0.1468
 2661ntf    fn418855   3.673   4.653   0.883  0.0375  0.2069  0.2445
 2662ntf    cn118856   6.471   2.537   1.674  0.1234 -0.5062  0.0249
 2662ntf    sn218857   6.402   2.681   1.761  0.0084 -0.2620 -0.4683
 2662ntf    nn318858   6.263   2.637   1.819 -0.1179  0.3134 -0.3255
 2662ntf    sn218859   6.136   2.598   1.736 -0.2840  0.0363  0.0529
 2662ntf    cn118860   6.016   2.671   1.852  0.0868  0.0239  0.4431
 2662ntf    fn418861   6.381   2.477   1.598 -0.7490  0.0213  0.6226
 2662ntf    fn418862   6.576   2.573   1.602  0.0617 -0.0812  0.1443
 2662ntf    fn418863   6.506   2.436   1.753  0.5623 -0.3757 -0.0014
 2662ntf    on518864   6.489   2.701   1.874 -0.2718 -0.2050 -0.2640
 2662ntf    on518865   6.403   2.782   1.658  0.0772 -0.8100 -1.0086
 2662ntf    on518866   6.117   2.455   1.740 -0.2695  0.0404  0.2972
 2662ntf    on518867   6.106   2.671   1.615  0.2221  0.1118 -0.0267
 2662ntf    fn418868   5.997   2.800   1.833 -0.4640 -0.0402  0.5601
 2662ntf    fn418869   5.894   2.626   1.828  0.2168  0.0647 -0.2971
 2662ntf    fn418870   6.046   2.646   1.979 -0.2399 -0.2030  0.4743
 2663ntf    cn118871   4.641   6.179   1.743 -0.3039  0.4029 -0.1729
 2663ntf    sn218872   4.739   6.178   1.897 -0.2207  0.1749 -0.2273
 2663ntf    nn318873   4.657   6.070   1.976  0.0958 -0.1048 -0.2802
 2663ntf    sn218874   4.548   6.093   2.087  0.1686 -0.0397 -0.2227
 2663ntf    cn118875   4.566   5.933   2.170 -0.1286 -0.0703 -0.2174
 2663ntf    fn418876   4.676   6.288   1.676 -0.5043  0.4044 -0.2766
 2663ntf    fn418877   4.677   6.087   1.655 -0.2699 -0.0967  0.3594
 2663ntf    fn418878   4.510   6.173   1.757 -0.3081 -0.4787 -0.5353
 2663ntf    on518879   4.870   6.134   1.858 -0.0795 -0.0708  0.5175
 2663ntf    on518880   4.724   6.312   1.947  0.0884 -0.0256  0.4090
 2663ntf    on518881   4.413   6.102   2.037  0.1943  0.5585 -0.1977
 2663ntf    on518882   4.580   6.187   2.192 -0.0336  0.6751 -0.7890
 2663ntf    fn418883   4.593   5.835   2.085  0.3133 -0.1049 -0.0411
 2663ntf    fn418884   4.658   5.930   2.265 -0.0214 -0.3586 -0.3281
 2663ntf    fn418885   4.451   5.897   2.225  0.0131  0.4407  0.4243
 2664ntf    cn118886   1.545   5.335   3.242  0.3761  0.5949  0.0112
 2664ntf    sn218887   1.619   5.178   3.298 -0.2268  0.2632 -0.1080
 2664ntf    nn318888   1.685   5.240   3.425 -0.0289 -0.7375  0.2855
 2664ntf    sn218889   1.611   5.254   3.563 -0.1274 -0.2061  0.1818
 2664ntf    cn118890   1.623   5.436   3.569 -0.1728 -0.1611 -0.9159
 2664ntf    fn418891   1.635   5.431   3.255  1.0718 -0.0394 -0.0624
 2664ntf    fn418892   1.499   5.335   3.118 -0.4355 -0.4216  0.2910
 2664ntf    fn418893   1.451   5.373   3.327 -0.2650 -0.4637 -0.2020
 2664ntf    on518894   1.512   5.082   3.311  0.0342 -0.0857 -0.5248
 2664ntf    on518895   1.718   5.152   3.196  0.0926 -0.5875  0.4177
 2664ntf    on518896   1.702   5.211   3.667 -0.0801 -0.7619 -0.0836
 2664ntf    on518897   1.472   5.223   3.579 -0.2866  0.3974 -0.0133
 2664ntf    fn418898   1.743   5.490   3.573 -0.1855 -0.1719 -0.2759
 2664ntf    fn418899   1.562   5.490   3.464 -0.6113  0.1880 -0.4856
 2664ntf    fn418900   1.561   5.474   3.680  0.0473  0.7271 -1.0925
 2665ntf    cn118901   2.400   2.102   5.928 -0.1565  0.0496  0.0205
 2665ntf    sn218902   2.350   1.928   5.906  0.0809 -0.0106 -0.0497
 2665ntf    nn318903   2.483   1.862   5.956  0.2888  0.5257  0.1146
 2665ntf    sn218904   2.591   1.788   5.870 -0.0619  0.1796 -0.0301
 2665ntf    cn118905   2.729   1.894   5.923 -0.0542  0.2212 -0.1331
 2665ntf    fn418906   2.515   2.129   5.868  0.1883  0.0141  0.6463
 2665ntf    fn418907   2.310   2.187   5.880  0.0433  0.2629  0.0226
 2665ntf    fn418908   2.413   2.128   6.057 -0.2604  0.0750  0.0258
 2665ntf    on518909   2.234   1.902   5.989  0.4690  0.3020  0.6037
 2665ntf    on518910   2.328   1.925   5.764  0.5619  0.5878 -0.1402
 2665ntf    on518911   2.579   1.814   5.729 -0.2578 -0.1001 -0.0659
 2665ntf    on518912   2.633   1.656   5.910 -1.0911 -0.1641 -0.0636
 2665ntf    fn418913   2.736   2.010   5.860 -0.5256  0.5452  0.4071
 2665ntf    fn418914   2.727   1.917   6.053  0.4234 -0.6019  0.0258
 2665ntf    fn418915   2.849   1.841   5.905  0.0062  0.1978  0.3315
 2666ntf    cn118916   2.465   2.859   5.546 -0.2371 -0.1962  0.3371
 2666ntf    sn218917   2.287   2.823   5.533 -0.2482 -0.0587  0.1129
 2666ntf    nn318918   2.218   2.940   5.612 -0.4433 -0.1428  0.0655
 2666ntf    sn218919   2.078   2.940   5.683 -0.4132 -0.0329  0.1249
 2666ntf    cn118920   2.113   2.858   5.841 -0.4722 -0.4230 -0.0638
 2666ntf    fn418921   2.513   2.949   5.462 -0.1480 -0.4150  0.1526
 2666ntf    fn418922   2.497   2.899   5.668  0.2733 -0.3864  0.2691
 2666ntf    fn418923   2.536   2.748   5.530  0.0540  0.0458 -0.0586
 2666ntf    on518924   2.268   2.834   5.391 -0.5946  0.0673  0.1692
 2666ntf    on518925   2.299   2.689   5.584  0.1837 -0.1487 -0.2164
 2666ntf    on518926   1.985   2.855   5.613  0.1510 -0.4633 -0.1077
 2666ntf    on518927   2.032   3.074   5.711  0.3306  0.1089  0.6824
 2666ntf    fn418928   2.186   2.942   5.911  0.1075 -0.8129 -0.1925
 2666ntf    fn418929   2.004   2.828   5.911 -0.3744 -0.6762 -0.0189
 2666ntf    fn418930   2.183   2.746   5.835 -0.0878 -0.1920  0.0664
 2667ntf    cn118931   2.046   5.363   0.002 -0.3390 -0.1645 -0.1885
 2667ntf    sn218932   2.217   5.359  -0.057 -0.3068  0.3306 -0.1316
 2667ntf    nn318933   2.259   5.497  -0.119 -0.4173  0.2693 -0.3438
 2667ntf    sn218934   2.287   5.528  -0.270  0.0963 -0.1195 -0.3271
 2667ntf    cn118935   2.267   5.708  -0.271  0.1916 -0.1071 -0.0838
 2667ntf    fn418936   2.006   5.243   0.041  0.0148 -0.2787 -0.1776
 2667ntf    fn418937   2.036   5.434   0.113  0.0894 -0.2984 -0.0639
 2667ntf    fn418938   1.960   5.423  -0.079 -0.3327  0.0413 -0.0437
 2667ntf    on518939   2.284   5.342   0.070 -0.5134  0.3489 -0.0216
 2667ntf    on518940   2.218   5.245  -0.146  0.4968  0.1694  0.0736
 2667ntf    on518941   2.181   5.482  -0.356  0.4691 -0.2283 -0.7363
 2667ntf    on518942   2.425   5.518  -0.312  0.3421  0.9160  0.2215
 2667ntf    fn418943   2.194   5.763  -0.176  0.0118  0.2294 -0.4126
 2667ntf    fn418944   2.377   5.781  -0.256  0.1456 -0.0012 -0.2507
 2667ntf    fn418945   2.224   5.757  -0.387 -0.0667  0.3701  0.2085
 2668ntf    cn118946   1.034   2.920   2.303 -0.0825 -0.0604 -0.0711
 2668ntf    sn218947   1.069   2.899   2.480 -0.3614 -0.0939 -0.0194
 2668ntf    nn318948   1.013   2.754   2.499  0.0697 -0.1792  0.6382
 2668ntf    sn218949   1.103   2.629   2.465  0.0442 -0.0118 -0.0599
 2668ntf    cn118950   1.124   2.540   2.622  0.3791 -0.4252 -0.3382
 2668ntf    fn418951   0.909   2.887   2.272  0.0867 -0.2090 -0.6108
 2668ntf    fn418952   1.064   3.041   2.260  0.4895 -0.4527 -0.7985
 2668ntf    fn418953   1.118   2.847   2.231 -0.0417 -0.3185  0.2384
 2668ntf    on518954   1.209   2.925   2.506 -0.4412  0.0755  0.2520
 2668ntf    on518955   0.980   2.993   2.543  0.3673  0.3895  0.3078
 2668ntf    on518956   1.236   2.657   2.418  0.1198 -0.2347  0.0183
 2668ntf    on518957   1.029   2.524   2.400 -0.3925  0.0791  0.2803
 2668ntf    fn418958   1.203   2.435   2.610  0.3274 -0.4989 -0.0435
 2668ntf    fn418959   1.163   2.618   2.722  0.0688 -0.4718 -0.1783
 2668ntf    fn418960   1.005   2.491   2.652  0.4500 -0.3115  0.1306
 2669ntf    cn118961   3.638   6.358   5.600 -0.2116 -0.1614 -0.4213
 2669ntf    sn218962   3.692   6.525   5.649  0.2660 -0.4172 -0.0703
 2669ntf    nn318963   3.702   6.506   5.805  0.6838  0.5825  0.0320
 2669ntf    sn218964   3.829   6.473   5.891  0.2942 -0.1018  0.3548
 2669ntf    cn118965   3.885   6.644   5.916  0.0104  0.0492 -0.0290
 2669ntf    fn418966   3.734   6.267   5.604 -0.2439 -0.1984 -0.4857
 2669ntf    fn418967   3.537   6.321   5.676 -0.2330  0.1792 -0.2837
 2669ntf    fn418968   3.593   6.357   5.475 -0.3806 -0.1742 -0.3594
 2669ntf    on518969   3.813   6.540   5.573  0.4093 -0.7718  0.0844
 2669ntf    on518970   3.586   6.619   5.622  0.5133  0.0361  0.5206
 2669ntf    on518971   3.938   6.414   5.817 -0.4450 -0.4130 -0.5083
 2669ntf    on518972   3.805   6.415   6.020 -0.2252 -0.6449  0.0187
 2669ntf    fn418973   3.799   6.710   5.992 -0.1853 -0.0215 -0.1889
 2669ntf    fn418974   4.006   6.644   5.969  0.0449 -0.6537 -0.1004
 2669ntf    fn418975   3.886   6.715   5.804  0.3620  0.7425  0.4014
 2670ntf    cn118976   3.967   3.715   6.562 -0.1864 -0.0799 -0.0821
 2670ntf    sn218977   4.070   3.565   6.563 -0.1880 -0.0794  0.3485
 2670ntf    nn318978   4.131   3.578   6.707  0.0514  0.4540  0.2016
 2670ntf    sn218979   4.246   3.489   6.767  0.0260  0.0983 -0.2729
 2670ntf    cn118980   4.212   3.510   6.944  0.0771 -0.1241 -0.2358
 2670ntf    fn418981   3.877   3.704   6.659  0.0435  0.0335  0.1450
 2670ntf    fn418982   4.041   3.810   6.616  0.0156 -0.4308  0.2655
 2670ntf    fn418983   3.908   3.754   6.450  0.0433 -0.2423 -0.2592
 2670ntf    on518984   3.980   3.454   6.542 -0.1252 -0.1194  0.2897
 2670ntf    on518985   4.167   3.577   6.457 -0.0415 -0.0985  0.4809
 2670ntf    on518986   4.378   3.547   6.755  0.2129 -0.3493 -0.3817
 2670ntf    on518987   4.227   3.347   6.753  0.3408  0.0515 -0.2249
 2670ntf    fn418988   4.216   3.398   7.015  0.0464  0.4471  0.6883
 2670ntf    fn418989   4.290   3.599   7.003 -0.0955  0.1124 -0.3678
 2670ntf    fn418990   4.087   3.544   6.970  0.3977  0.6493  0.3428
 2671ntf    cn118991   2.590   2.247   0.740 -0.0264  0.1418 -0.6308
 2671ntf    sn218992   2.585   2.232   0.559  0.0134 -0.2951 -0.5963
 2671ntf    nn318993   2.460   2.323   0.532  0.0175  0.1827  0.9195
 2671ntf    sn218994   2.312   2.272   0.528  0.0573  0.1279 -0.0066
 2671ntf    cn118995   2.291   2.246   0.349 -0.5657  0.2909  0.0396
 2671ntf    fn418996   2.638   2.365   0.775  0.1179 -0.3777  1.0126
 2671ntf    fn418997   2.471   2.235   0.795  0.4335 -0.0222  0.3411
 2671ntf    fn418998   2.667   2.156   0.798 -0.5263  0.1130 -0.0030
 2671ntf    on518999   2.708   2.300   0.528 -0.1765  0.2602 -0.1238
 2671ntf    on519000   2.579   2.090   0.532  0.3447 -0.2927 -0.6947
 2671ntf    on519001   2.222   2.380   0.561 -0.3975 -0.2006 -0.1608
 2671ntf    on519002   2.287   2.143   0.587 -0.0848  0.5048  0.7696
 2671ntf    fn419003   2.310   2.356   0.278 -0.8182  0.3357  0.0409
 2671ntf    fn419004   2.374   2.152   0.305 -0.6513  0.1909  0.0904
 2671ntf    fn419005   2.169   2.205   0.318 -0.4909 -0.0279  0.1630
 2672ntf    cn119006   2.165   6.112   3.413  0.2447 -0.1172  0.4934
 2672ntf    sn219007   2.081   6.181   3.559  0.0226  0.3853  0.1332
 2672ntf    nn319008   2.079   6.051   3.648  1.1750  0.0661 -0.2933
 2672ntf    sn219009   2.111   6.039   3.801  0.2496 -0.4337 -0.1343
 2672ntf    cn119010   1.953   5.972   3.862  0.1401  0.4969  0.6145
 2672ntf    fn419011   2.293   6.088   3.434  0.2858 -0.2624  0.0810
 2672ntf    fn419012   2.113   6.003   3.360 -0.1613  0.1770  0.2763
 2672ntf    fn419013   2.158   6.196   3.311 -0.4880 -0.4760  0.2375
 2672ntf    on519014   2.155   6.290   3.616  0.7022  0.4568 -0.8535
 2672ntf    on519015   1.947   6.203   3.510  0.0390  0.1315 -0.0319
 2672ntf    on519016   2.125   6.155   3.885  1.0378 -0.7807  0.2276
 2672ntf    on519017   2.208   5.936   3.832  0.3924 -0.2385  0.0691
 2672ntf    fn419018   1.926   5.855   3.808  0.3171  0.5810  0.3422
 2672ntf    fn419019   1.957   5.950   3.993 -0.3108 -0.4037  0.4758
 2672ntf    fn419020   1.843   6.041   3.836 -0.1907 -0.2568  0.0123
 2673ntf    cn119021   1.191   1.720   4.306 -0.0529 -0.2873  0.0070
 2673ntf    sn219022   1.125   1.717   4.136 -0.1975 -0.5269  0.0680
 2673ntf    nn319023   1.229   1.619   4.069  0.5100  0.1836  0.1123
 2673ntf    sn219024   1.210   1.482   3.995  0.0349  0.0638  0.4497
 2673ntf    cn119025   1.375   1.409   4.022  0.1792  0.1274 -0.2359
 2673ntf    fn419026   1.210   1.600   4.358  0.0620 -0.4824 -0.4771
 2673ntf    fn419027   1.312   1.773   4.319 -0.0190 -0.3695  0.0312
 2673ntf    fn419028   1.105   1.777   4.388  0.0372  0.0958 -0.1601
 2673ntf    on519029   0.998   1.652   4.153 -0.4495 -0.0252  0.0954
 2673ntf    on519030   1.120   1.855   4.096 -0.6903 -0.5747 -0.0399
 2673ntf    on519031   1.208   1.497   3.852 -0.4610  0.1160  0.4610
 2673ntf    on519032   1.119   1.386   4.053 -0.5734  0.2649 -0.1629
 2673ntf    fn419033   1.389   1.283   3.986  0.3325 -0.2757  1.1472
 2673ntf    fn419034   1.457   1.488   3.956 -0.1019  0.7752  0.1775
 2673ntf    fn419035   1.408   1.408   4.150 -0.5687 -0.0047 -0.0400
 2674ntf    cn119036   1.669   6.387   0.563  0.1067 -0.0397 -0.0045
 2674ntf    sn219037   1.650   6.568   0.563 -0.0287 -0.0542  0.1564
 2674ntf    nn319038   1.532   6.572   0.459  0.1913 -0.0744 -0.0931
 2674ntf    sn219039   1.377   6.585   0.475  0.1835 -0.1536 -0.1048
 2674ntf    cn119040   1.323   6.453   0.362 -0.1039  0.1501 -0.3248
 2674ntf    fn419041   1.749   6.334   0.654  0.1036 -0.2514 -0.1251
 2674ntf    fn419042   1.550   6.330   0.565  0.1606 -0.1543 -0.0683
 2674ntf    fn419043   1.714   6.345   0.446  0.5860  0.7049 -0.0977
 2674ntf    on519044   1.614   6.591   0.701 -0.5267  0.3104 -0.0286
 2674ntf    on519045   1.781   6.613   0.525 -0.3263  0.4103 -0.3329
 2674ntf    on519046   1.328   6.701   0.405  0.4421  0.1633  0.2345
 2674ntf    on519047   1.310   6.542   0.595 -0.4402  0.2076 -0.3177
 2674ntf    fn419048   1.384   6.474   0.247  0.1748  0.1359 -0.1803
 2674ntf    fn419049   1.346   6.327   0.393 -0.1758  0.1470 -0.2807
 2674ntf    fn419050   1.199   6.462   0.317  0.0041 -0.0589 -0.6622
 2675ntf    cn119051   4.001   2.265   3.760  0.4265 -0.2654  0.5993
 2675ntf    sn219052   4.176   2.216   3.752  0.3889 -0.2972 -0.0766
 2675ntf    nn319053   4.250   2.347   3.797  0.6953 -0.5510  0.1558
 2675ntf    sn219054   4.303   2.464   3.707  0.0679 -0.0399  0.4431
 2675ntf    cn119055   4.412   2.533   3.835  0.2577  0.3015  0.0967
 2675ntf    fn419056   3.959   2.273   3.885 -0.4006  0.2142  0.2994
 2675ntf    fn419057   3.973   2.375   3.692  0.0866 -0.5345  0.3016
 2675ntf    fn419058   3.936   2.166   3.703 -0.2701  0.2838  0.4253
 2675ntf    on519059   4.177   2.112   3.851 -0.6566 -0.2373  0.0104
 2675ntf    on519060   4.195   2.160   3.621  0.1215 -0.3609 -0.0888
 2675ntf    on519061   4.217   2.572   3.667 -0.2080 -0.3080  0.3027
 2675ntf    on519062   4.406   2.433   3.611  0.1252  0.1459  0.4440
 2675ntf    fn419063   4.340   2.530   3.946  0.5188  0.2896  0.2660
 2675ntf    fn419064   4.525   2.468   3.859  0.0070 -0.3125 -0.3689
 2675ntf    fn419065   4.458   2.657   3.830  0.0406  0.3701 -0.2492
 2676ntf    cn119066   3.128   1.833   1.014 -0.1312 -0.1793  0.2412
 2676ntf    sn219067   3.089   1.658   1.042 -0.2247 -0.1656  0.1954
 2676ntf    nn319068   3.052   1.608   0.898  0.0677  0.1586  0.0082
 2676ntf    sn219069   2.914   1.583   0.827  0.0260  0.3627  0.0170
 2676ntf    cn119070   2.852   1.428   0.899 -0.2062  0.5043  0.1239
 2676ntf    fn419071   3.234   1.855   0.938 -0.0444 -0.2613  0.3377
 2676ntf    fn419072   3.028   1.898   0.957 -0.1119 -0.2756  0.0956
 2676ntf    fn419073   3.157   1.891   1.129  0.4555 -0.1557  0.0891
 2676ntf    on519074   3.211   1.602   1.095  0.1075  0.9091  0.5758
 2676ntf    on519075   2.976   1.672   1.130 -0.3851 -0.2518  0.0040
 2676ntf    on519076   2.933   1.548   0.688  0.4217 -0.0327  0.1693
 2676ntf    on519077   2.807   1.678   0.851  0.3356  0.5176  0.8240
 2676ntf    fn419078   2.754   1.385   0.822 -0.0751  0.2188  0.1151
 2676ntf    fn419079   2.943   1.333   0.886 -0.4100  0.4420 -0.9151
 2676ntf    fn419080   2.809   1.434   1.024 -0.4044 -0.0373  0.0818
 2677ntf    cn119081   3.880   2.500   4.132 -0.1763  0.3573 -0.2866
 2677ntf    sn219082   3.860   2.529   4.310  0.1543 -0.2059 -0.1526
 2677ntf    nn319083   3.888   2.388   4.373  0.2373 -0.3741 -0.5639
 2677ntf    sn219084   3.977   2.347   4.496 -0.1455 -0.1528 -0.2092
 2677ntf    cn119085   3.844   2.317   4.616 -0.0969 -0.0600 -0.1316
 2677ntf    fn419086   4.005   2.470   4.101  0.0599  0.3988  0.5884
 2677ntf    fn419087   3.804   2.402   4.086  0.3105 -0.1818  0.0395
 2677ntf    fn419088   3.851   2.608   4.062  0.3040  0.7786  0.1523
 2677ntf    on519089   3.950   2.635   4.350  0.1830 -0.5164  0.6285
 2677ntf    on519090   3.720   2.563   4.321 -0.0219 -0.9698  0.0344
 2677ntf    on519091   4.051   2.458   4.552 -0.0205  0.1307 -0.9200
 2677ntf    on519092   4.038   2.217   4.483 -0.5107 -0.4397  0.8916
 2677ntf    fn419093   3.893   2.297   4.738 -0.4038 -0.3171 -0.0496
 2677ntf    fn419094   3.761   2.419   4.624 -0.2455 -0.2024  0.1685
 2677ntf    fn419095   3.776   2.214   4.569  0.0718  0.0362 -0.5931
 2678ntf    cn119096   0.699   6.661   0.848 -0.6003 -0.3285  0.1880
 2678ntf    sn219097   0.535   6.590   0.814 -0.5117 -0.4061 -0.0853
 2678ntf    nn319098   0.568   6.437   0.803  0.5014 -0.1972 -0.0255
 2678ntf    sn219099   0.473   6.313   0.809 -0.0742  0.2092 -0.5396
 2678ntf    cn119100   0.451   6.263   0.636  0.0717  0.0027 -0.4993
 2678ntf    fn419101   0.796   6.618   0.769  0.1560  0.2187  0.8073
 2678ntf    fn419102   0.713   6.793   0.846 -0.2315 -0.3731 -0.1235
 2678ntf    fn419103   0.739   6.619   0.966  0.0206 -0.1940  0.0270
 2678ntf    on519104   0.442   6.624   0.920 -0.3826 -0.4967  0.0570
 2678ntf    on519105   0.500   6.636   0.682  0.5767 -0.3059 -0.3430
 2678ntf    on519106   0.340   6.351   0.849 -0.1095 -0.1223 -0.3334
 2678ntf    on519107   0.543   6.201   0.867 -0.8764 -0.0782 -0.1168
 2678ntf    fn419108   0.394   6.359   0.565  0.1555 -0.2764 -0.9501
 2678ntf    fn419109   0.568   6.231   0.583  0.6621  0.4229  0.5340
 2678ntf    fn419110   0.365   6.162   0.634  0.0575  0.0095 -0.2687
 2679ntf    cn119111   0.874   0.822   6.522  0.4432 -0.0558  0.0975
 2679ntf    sn219112   0.835   0.660   6.449 -0.4528  0.1842  0.0248
 2679ntf    nn319113   0.810   0.701   6.300 -0.3145  1.0017  0.2193
 2679ntf    sn219114   0.908   0.752   6.188 -0.1528 -0.0634 -0.1360
 2679ntf    cn119115   0.899   0.620   6.063 -0.1955 -0.3899  0.2084
 2679ntf    fn419116   0.912   0.901   6.423  0.6002 -0.3276 -0.0586
 2679ntf    fn419117   0.769   0.890   6.568  0.4541  0.1728 -0.2119
 2679ntf    fn419118   0.971   0.819   6.611 -0.1293  0.3428  0.7489
 2679ntf    on519119   0.956   0.581   6.460 -0.6967 -0.1451  0.3658
 2679ntf    on519120   0.716   0.612   6.515 -0.6270 -0.0280 -0.4394
 2679ntf    on519121   1.049   0.755   6.218 -0.1182 -0.2672 -0.2687
 2679ntf    on519122   0.846   0.868   6.130 -1.2021 -0.2539  0.5548
 2679ntf    fn419123   0.962   0.650   5.951 -0.0554 -0.4220  0.2784
 2679ntf    fn419124   0.950   0.504   6.100  0.1536 -0.1275  0.5583
 2679ntf    fn419125   0.776   0.593   6.022 -0.2623  0.3452 -0.0926
 2680ntf    cn119126   1.121   0.032   2.472  0.1408  0.2430 -0.3068
 2680ntf    sn219127   1.192   0.001   2.637 -0.3228 -0.1612 -0.1786
 2680ntf    nn319128   1.204   0.153   2.676  0.2755 -0.4663  0.8583
 2680ntf    sn219129   1.187   0.236   2.808 -0.2991 -0.1286  0.5748
 2680ntf    cn119130   1.353   0.310   2.814 -0.3948  0.1316  0.0593
 2680ntf    fn419131   1.126  -0.080   2.402 -0.4613  0.0144  0.0035
 2680ntf    fn419132   0.994   0.067   2.482  0.0526 -0.0035 -0.5473
 2680ntf    fn419133   1.182   0.133   2.413 -0.3494  0.6827 -0.0687
 2680ntf    on519134   1.097  -0.079   2.710 -0.1047 -0.4237 -0.1807
 2680ntf    on519135   1.315  -0.064   2.599 -0.3164  0.0752 -0.5687
 2680ntf    on519136   1.190   0.152   2.925  0.8534  0.0579  0.6965
 2680ntf    on519137   1.099   0.350   2.800 -0.3222 -0.2135 -0.4057
 2680ntf    fn419138   1.373   0.376   2.927  0.1115  0.4803 -0.2276
 2680ntf    fn419139   1.455   0.228   2.794 -0.1476  0.4883 -0.1559
 2680ntf    fn419140   1.362   0.396   2.714  0.0113 -0.1286 -0.1331
 2681ntf    cn119141   3.154   3.881   0.850  0.2110 -0.2255  0.2324
 2681ntf    sn219142   3.013   3.983   0.796  0.4456 -0.1887 -0.3231
 2681ntf    nn319143   3.088   4.103   0.730 -0.0527  0.2429 -0.1123
 2681ntf    sn219144   3.109   4.126   0.576  0.5009 -0.2418 -0.1128
 2681ntf    cn119145   3.255   4.023   0.542  0.3870 -0.3044 -0.4124
 2681ntf    fn419146   3.132   3.755   0.816  0.4028 -0.1620 -0.1328
 2681ntf    fn419147   3.263   3.924   0.789 -0.2537  0.2951 -0.2473
 2681ntf    fn419148   3.169   3.890   0.981  0.7234 -0.0614  0.1631
 2681ntf    on519149   2.927   3.899   0.716 -0.1408  0.1077 -0.0105
 2681ntf    on519150   2.957   4.020   0.924  0.1525 -0.6244 -0.3211
 2681ntf    on519151   3.156   4.261   0.556 -0.3385  0.1808  0.6948
 2681ntf    on519152   3.001   4.079   0.492 -0.2699  0.5512  0.4191
 2681ntf    fn419153   3.246   3.892   0.561  0.0379 -0.3195 -0.6725
 2681ntf    fn419154   3.305   4.026   0.419  0.5661 -0.5053 -0.3460
 2681ntf    fn419155   3.340   4.069   0.632 -0.6627  0.5973  0.1356
 2682ntf    cn119156   5.381   2.913   3.608  0.1493 -0.0641  0.2042
 2682ntf    sn219157   5.344   3.060   3.708 -0.3183 -0.0474  0.0076
 2682ntf    nn319158   5.207   3.006   3.763 -0.3132 -0.2484 -0.1750
 2682ntf    sn219159   5.067   3.077   3.755 -0.1677  0.0620  0.0193
 2682ntf    cn119160   5.019   3.079   3.930  0.3574 -0.0662  0.1653
 2682ntf    fn419161   5.297   2.888   3.509  0.0992 -0.2253  0.2870
 2682ntf    fn419162   5.504   2.914   3.561  0.0594 -0.4898 -0.0448
 2682ntf    fn419163   5.374   2.806   3.686 -0.1430  0.0755  0.3725
 2682ntf    on519164   5.442   3.063   3.813 -0.3397 -0.1877  0.0324
 2682ntf    on519165   5.340   3.167   3.611  0.6885  0.3312  0.3746
 2682ntf    on519166   4.972   2.982   3.703  0.0161  0.2082 -0.5927
 2682ntf    on519167   5.061   3.217   3.718  1.0640  0.2243  0.3873
 2682ntf    fn419168   5.052   2.969   3.996  0.5749 -0.2492 -0.2443
 2682ntf    fn419169   5.079   3.175   3.999  0.3973  0.3075 -0.3817
 2682ntf    fn419170   4.890   3.098   3.950  0.4959  0.2999  0.7675
 2683ntf    cn119171   4.590   6.313   6.594 -0.5906 -0.3105  0.0733
 2683ntf    sn219172   4.684   6.183   6.680  0.2355  0.2013 -0.0479
 2683ntf    nn319173   4.797   6.152   6.575  0.0861 -0.0426 -0.1377
 2683ntf    sn219174   4.909   6.043   6.591 -0.0041 -0.1794 -0.4207
 2683ntf    cn119175   5.020   6.136   6.701 -0.0923 -0.5292 -0.0350
 2683ntf    fn419176   4.668   6.409   6.549 -0.7927 -0.1976 -0.0364
 2683ntf    fn419177   4.516   6.273   6.492  0.1261 -0.9299 -0.2088
 2683ntf    fn419178   4.510   6.370   6.682 -0.4327  0.0541 -0.0207
 2683ntf    on519179   4.742   6.232   6.803 -0.7250 -0.1753  0.5652
 2683ntf    on519180   4.583   6.081   6.696  0.3478 -0.0207 -0.7267
 2683ntf    on519181   4.979   6.021   6.467  0.3908 -0.1731 -0.1982
 2683ntf    on519182   4.879   5.931   6.676 -0.2923 -0.3708 -0.7713
 2683ntf    fn419183   4.967   6.151   6.821  0.4165  0.4071  0.0788
 2683ntf    fn419184   5.137   6.075   6.718  0.2549  0.1116 -0.0814
 2683ntf    fn419185   5.043   6.257   6.653  0.2494 -0.5312  0.1174
 2684ntf    cn119186   0.341   2.874   0.109  0.2532  0.4911  0.3758
 2684ntf    sn219187   0.295   2.710   0.173 -0.1614  0.3479 -0.2765
 2684ntf    nn319188   0.195   2.750   0.287  0.0046  0.4568 -0.1678
 2684ntf    sn219189   0.067   2.667   0.324  0.2618 -0.0808 -0.4778
 2684ntf    cn119190   0.137   2.584   0.470  0.0772  0.1503 -0.2566
 2684ntf    fn419191   0.400   2.953   0.198  0.6435  0.4017  0.2025
 2684ntf    fn419192   0.424   2.872   0.005 -0.0214  0.0234  0.1609
 2684ntf    fn419193   0.233   2.942   0.077  0.2392  0.3792  0.1835
 2684ntf    on519194   0.239   2.651   0.054  0.6099 -0.8490 -0.0659
 2684ntf    on519195   0.423   2.662   0.221 -0.5427 -0.7160 -0.3002
 2684ntf    on519196   0.032   2.555   0.240 -0.5994 -0.1930  0.0167
 2684ntf    on519197  -0.052   2.736   0.369  0.5612  0.6633 -0.8012
 2684ntf    fn419198   0.155   2.672   0.567  0.0827 -0.5974  0.4256
 2684ntf    fn419199   0.060   2.487   0.516 -0.3419  0.0170 -1.2075
 2684ntf    fn419200   0.254   2.527   0.446  0.0722 -0.4250  1.0136
 2685ntf    cn119201   4.837   0.375   4.769 -0.2991  0.4656  0.1712
 2685ntf    sn219202   4.779   0.543   4.731 -0.1019  0.4898 -0.0233
 2685ntf    nn319203   4.699   0.515   4.599 -0.4196 -0.0840  0.2902
 2685ntf    sn219204   4.549   0.469   4.585 -0.4432  0.1013 -0.0642
 2685ntf    cn119205   4.578   0.312   4.498 -0.1439  0.1747 -0.0985
 2685ntf    fn419206   4.735   0.291   4.769 -0.0601  0.1716 -0.1468
 2685ntf    fn419207   4.918   0.319   4.680 -0.1164 -0.4415  0.9007
 2685ntf    fn419208   4.904   0.370   4.883 -0.5002  0.5771  0.2955
 2685ntf    on519209   4.712   0.598   4.846 -0.4347 -0.0932  0.0619
 2685ntf    on519210   4.903   0.611   4.701 -0.0469  0.0805 -0.7525
 2685ntf    on519211   4.489   0.530   4.469 -0.2713 -0.3812 -0.4125
 2685ntf    on519212   4.470   0.428   4.698  0.5719 -0.2465  0.5379
 2685ntf    fn419213   4.463   0.250   4.479 -0.1755  0.0657  0.4333
 2685ntf    fn419214   4.631   0.340   4.380 -1.1273  0.4036 -0.4901
 2685ntf    fn419215   4.663   0.226   4.552 -0.5876 -0.2364 -0.0514
 2686ntf    cn119216   1.663   4.309   0.692 -0.0324 -0.5915 -0.0999
 2686ntf    sn219217   1.712   4.390   0.537 -0.1733 -0.0538  0.1342
 2686ntf    nn319218   1.850   4.456   0.573 -0.1426  0.2764 -0.5761
 2686ntf    sn219219   1.888   4.605   0.604  0.0449  0.1548 -0.2197
 2686ntf    cn119220   1.909   4.660   0.432 -0.2177 -0.0656 -0.3222
 2686ntf    fn419221   1.542   4.257   0.679 -0.4434  0.4434 -0.4656
 2686ntf    fn419222   1.751   4.219   0.733 -0.0259 -0.5040  0.0763
 2686ntf    fn419223   1.648   4.396   0.790  0.1580 -0.5242 -0.1308
 2686ntf    on519224   1.729   4.290   0.434  0.3055 -0.0707  0.2268
 2686ntf    on519225   1.608   4.486   0.514  0.2744  0.3515 -0.2277
 2686ntf    on519226   2.017   4.625   0.666  0.0182 -0.2692 -0.0305
 2686ntf    on519227   1.785   4.684   0.666 -0.0574  0.1453 -0.3764
 2686ntf    fn419228   1.795   4.649   0.365 -0.2990  0.4999 -0.2843
 2686ntf    fn419229   1.958   4.783   0.427  0.0522 -0.1214  0.7642
 2686ntf    fn419230   1.989   4.572   0.373  0.1408 -0.1524  0.2931
 2687ntf    cn119231   3.431   6.923   0.016  0.5980  0.0339 -0.2466
 2687ntf    sn219232   3.400   7.092  -0.042  0.0790  0.1826  0.4515
 2687ntf    nn319233   3.452   7.072  -0.189  0.4729 -0.4207  0.6659
 2687ntf    sn219234   3.361   7.066  -0.316  0.4663 -0.0410  0.6500
 2687ntf    cn119235   3.461   6.960  -0.425 -0.6379 -0.2358 -0.1929
 2687ntf    fn419236   3.547   6.875  -0.026  0.7997 -0.0576  0.3910
 2687ntf    fn419237   3.426   6.906   0.148 -0.3544 -0.7211 -0.3719
 2687ntf    fn419238   3.334   6.841  -0.021  0.2899 -0.0611  0.7252
 2687ntf    on519239   3.258   7.098  -0.022 -0.0384 -0.3554 -0.1941
 2687ntf    on519240   3.486   7.168   0.047  0.0312  0.3866  0.3235
 2687ntf    on519241   3.351   7.192  -0.386  0.5589 -0.0165  0.6806
 2687ntf    on519242   3.246   6.979  -0.309  0.7918 -0.5019  0.3299
 2687ntf    fn419243   3.549   7.019  -0.503 -0.6975  0.9369  0.6017
 2687ntf    fn419244   3.527   6.870  -0.355 -0.1852  0.1899 -0.0693
 2687ntf    fn419245   3.374   6.897  -0.502 -0.2262  0.0076 -0.8627
 2688ntf    cn119246   0.866   1.136   3.362  0.0571 -0.3653  0.0032
 2688ntf    sn219247   0.955   1.275   3.437 -0.3220 -0.1606  0.0760
 2688ntf    nn319248   0.859   1.331   3.548  0.5638  0.5160  0.5156
 2688ntf    sn219249   0.748   1.442   3.546  0.0778  0.0300 -0.0498
 2688ntf    cn119250   0.826   1.577   3.641 -0.3062  0.3505 -0.1877
 2688ntf    fn419251   0.935   1.057   3.282 -0.1583 -0.5716  0.0169
 2688ntf    fn419252   0.816   1.058   3.457  0.2283 -0.3634  0.0943
 2688ntf    fn419253   0.762   1.179   3.293  0.1628  0.3877  0.3106
 2688ntf    on519254   1.068   1.222   3.508  0.5617  0.6072 -0.7297
 2688ntf    on519255   0.992   1.367   3.332 -0.2615 -0.5912 -0.2798
 2688ntf    on519256   0.631   1.410   3.624 -0.1207 -0.0977 -0.4005
 2688ntf    on519257   0.734   1.509   3.419 -0.1805  0.0749  0.0021
 2688ntf    fn419258   0.948   1.606   3.599 -0.2289 -0.0686 -0.2646
 2688ntf    fn419259   0.758   1.690   3.632 -0.3790  0.3114 -0.1373
 2688ntf    fn419260   0.832   1.550   3.770 -0.2470 -0.2263 -0.3069
 2689ntf    cn119261   5.436   1.396   1.122 -0.0027 -0.0640  0.3428
 2689ntf    sn219262   5.493   1.444   0.956 -0.1239 -0.4665  0.1836
 2689ntf    nn319263   5.419   1.357   0.849 -0.0849 -0.4278  0.1257
 2689ntf    sn219264   5.481   1.239   0.765 -0.1131 -0.0332 -0.4590
 2689ntf    cn119265   5.564   1.344   0.642 -0.0411  0.2925 -0.1341
 2689ntf    fn419266   5.493   1.468   1.217 -0.5131  0.1640  0.4763
 2689ntf    fn419267   5.308   1.421   1.144 -0.0458  0.1309 -0.1162
 2689ntf    fn419268   5.475   1.276   1.161 -0.6946 -0.7126 -0.8884
 2689ntf    on519269   5.439   1.577   0.946  0.0826 -0.4037 -0.1217
 2689ntf    on519270   5.637   1.429   0.963 -0.0663 -0.3633 -0.6578
 2689ntf    on519271   5.385   1.157   0.696  0.1814  0.0613 -0.9834
 2689ntf    on519272   5.593   1.180   0.834  0.0336  0.5145 -0.2260
 2689ntf    fn419273   5.478   1.406   0.563 -0.1615  0.8800  0.4466
 2689ntf    fn419274   5.645   1.440   0.684  0.0461  0.1320  0.0682
 2689ntf    fn419275   5.636   1.265   0.564 -0.4241 -0.4297  0.2292
 2690ntf    cn119276   6.687   5.243   3.897 -0.0602  0.1033  0.2032
 2690ntf    sn219277   6.796   5.111   3.960  0.0646  0.2452  0.2841
 2690ntf    nn319278   6.696   4.991   3.943 -0.0635  0.3010  0.6346
 2690ntf    sn219279   6.715   4.838   3.969  0.1189  0.1828 -0.1715
 2690ntf    cn119280   6.551   4.805   4.041  0.1710  0.1883 -0.0485
 2690ntf    fn419281   6.649   5.224   3.772  0.1757 -0.4460  0.2113
 2690ntf    fn419282   6.577   5.260   3.969 -0.4747  0.2497 -0.4567
 2690ntf    fn419283   6.748   5.359   3.886 -0.0256  0.1069  0.4245
 2690ntf    on519284   6.908   5.117   3.870 -0.1511 -0.2906 -0.0272
 2690ntf    on519285   6.822   5.163   4.092 -0.5708  0.0927  0.4757
 2690ntf    on519286   6.816   4.798   4.063 -0.3279 -0.6901 -0.0448
 2690ntf    on519287   6.703   4.752   3.854 -0.6929 -0.2228  0.2055
 2690ntf    fn419288   6.460   4.770   3.951  0.0383 -0.2457  0.2513
 2690ntf    fn419289   6.552   4.703   4.124 -0.2276 -0.0129 -0.2821
 2690ntf    fn419290   6.495   4.904   4.109 -0.1200 -0.2234  0.3174
 2691ntf    cn119291   3.382   2.115   3.807  0.0974 -0.3456  0.2159
 2691ntf    sn219292   3.371   1.938   3.850 -0.3497 -0.3093  0.2447
 2691ntf    nn319293   3.519   1.897   3.821 -0.1714  0.0265  0.6811
 2691ntf    sn219294   3.586   1.769   3.883  0.1164 -0.1857 -0.0557
 2691ntf    cn119295   3.725   1.758   3.767  0.0328  0.2794 -0.2014
 2691ntf    fn419296   3.427   2.146   3.687  0.0429  0.1570  0.3233
 2691ntf    fn419297   3.260   2.165   3.806  0.0831 -0.3878 -0.5323
 2691ntf    fn419298   3.456   2.186   3.891 -0.2591  0.4402 -0.1312
 2691ntf    on519299   3.325   1.949   3.986  0.2977 -0.0015  0.4410
 2691ntf    on519300   3.280   1.883   3.752 -0.0677  0.0320 -0.2138
 2691ntf    on519301   3.522   1.641   3.864 -0.1928 -0.0156 -0.1697
 2691ntf    on519302   3.666   1.794   4.001 -0.8973 -0.0629  0.6206
 2691ntf    fn419303   3.814   1.856   3.778  0.3957 -0.0904  0.1845
 2691ntf    fn419304   3.792   1.644   3.764 -0.1804  0.1259  0.7111
 2691ntf    fn419305   3.678   1.780   3.645 -0.6256 -0.3116 -0.0607
 2692ntf    cn119306   6.891   5.629   0.608 -0.0521  0.1939  0.2870
 2692ntf    sn219307   7.069   5.632   0.571 -0.1731  0.2731 -0.2999
 2692ntf    nn319308   7.085   5.783   0.527 -0.0054  0.2426 -0.3424
 2692ntf    sn219309   7.096   5.847   0.385 -0.1639 -0.1260 -0.5222
 2692ntf    cn119310   7.276   5.840   0.361 -0.1088 -0.3723 -0.0464
 2692ntf    fn419311   6.850   5.503   0.619  0.2897  0.0226 -0.3252
 2692ntf    fn419312   6.870   5.693   0.721  0.0111  0.3426  0.2142
 2692ntf    fn419313   6.810   5.682   0.517 -0.0201 -0.2395  0.0022
 2692ntf    on519314   7.130   5.600   0.697 -0.1358  0.2162 -0.3325
 2692ntf    on519315   7.086   5.539   0.463  0.3907 -0.2644  0.2498
 2692ntf    on519316   7.061   5.986   0.390  0.2074 -0.0507 -0.0365
 2692ntf    on519317   7.047   5.772   0.272  0.2289 -1.2512  0.0400
 2692ntf    fn419318   7.332   5.725   0.396  0.3779 -0.2428 -0.3826
 2692ntf    fn419319   7.319   5.864   0.238 -0.4735  0.0634 -0.0873
 2692ntf    fn419320   7.348   5.924   0.433  0.5338 -0.8084 -0.1594
 2693ntf    cn119321   4.299   4.364   2.495 -0.1286 -0.0709 -0.1111
 2693ntf    sn219322   4.325   4.544   2.509 -0.4049 -0.0203 -0.2370
 2693ntf    nn319323   4.389   4.579   2.370 -0.4178  0.3472 -0.1520
 2693ntf    sn219324   4.320   4.642   2.243 -0.3718  0.2574 -0.2219
 2693ntf    cn119325   4.431   4.574   2.116  0.2111  0.3600  0.2261
 2693ntf    fn419326   4.213   4.323   2.403 -0.2960  0.5784 -0.2496
 2693ntf    fn419327   4.416   4.309   2.466 -0.0691 -0.0486  0.0879
 2693ntf    fn419328   4.263   4.302   2.606 -0.4541 -0.0088 -0.1806
 2693ntf    on519329   4.192   4.592   2.538 -0.2574  0.0190  0.3970
 2693ntf    on519330   4.424   4.550   2.614 -0.7534  0.3791  0.0661
 2693ntf    on519331   4.353   4.781   2.226 -0.5306  0.2530 -0.5601
 2693ntf    on519332   4.189   4.592   2.210 -0.2569 -0.2703  0.1016
 2693ntf    fn419333   4.538   4.647   2.093  0.3341  0.2463  0.4299
 2693ntf    fn419334   4.467   4.449   2.141 -0.2289  0.1187 -0.3206
 2693ntf    fn419335   4.370   4.568   1.999  0.0656  0.0769  0.3143
 2694ntf    cn119336   1.074   1.462   6.193  0.4677  0.0241 -0.3676
 2694ntf    sn219337   1.178   1.475   6.044  0.2493 -0.6014 -0.5783
 2694ntf    nn319338   1.129   1.618   6.003  0.4387 -0.3021  0.2068
 2694ntf    sn219339   1.201   1.758   6.008  0.0240 -0.0657 -0.2469
 2694ntf    cn119340   1.053   1.858   6.040 -0.0153 -0.1764 -0.0809
 2694ntf    fn419341   0.972   1.544   6.171  0.3921  0.0654  0.1379
 2694ntf    fn419342   1.022   1.344   6.219  0.6829 -0.0037 -0.0510
 2694ntf    fn419343   1.135   1.503   6.303 -0.2611  0.3877 -0.0887
 2694ntf    on519344   1.313   1.458   6.093  0.1012 -0.0859  0.0311
 2694ntf    on519345   1.128   1.375   5.954  0.3243 -1.0399 -0.1359
 2694ntf    on519346   1.259   1.809   5.886  0.6984 -0.4430 -0.0884
 2694ntf    on519347   1.272   1.780   6.132 -0.7626 -0.0581  0.2105
 2694ntf    fn419348   0.973   1.841   5.936  0.2660  0.0750 -0.3395
 2694ntf    fn419349   0.982   1.813   6.142 -0.1989  0.4968  0.0949
 2694ntf    fn419350   1.084   1.986   6.058  0.3865 -0.2948  0.0767
 2695ntf    cn119351   0.812   1.817   5.299  0.0030 -0.1824  0.0403
 2695ntf    sn219352   0.967   1.850   5.389  0.0718 -0.2785 -0.0429
 2695ntf    nn319353   1.076   1.827   5.279  0.2620  0.4964 -0.0219
 2695ntf    sn219354   1.177   1.710   5.251 -0.3140 -0.0918  0.3603
 2695ntf    cn119355   1.120   1.665   5.084 -0.4151  0.0437  0.3585
 2695ntf    fn419356   0.806   1.884   5.185  0.1692 -0.3404 -0.0616
 2695ntf    fn419357   0.812   1.694   5.251  0.0511 -0.2250  0.1483
 2695ntf    fn419358   0.703   1.834   5.371 -0.0555 -0.2424 -0.0350
 2695ntf    on519359   0.947   1.989   5.424 -0.7884 -0.4212  0.0493
 2695ntf    on519360   0.968   1.752   5.494 -0.0764 -0.6773 -0.4121
 2695ntf    on519361   1.172   1.580   5.315 -0.3702 -0.3012 -0.0637
 2695ntf    on519362   1.308   1.767   5.237 -0.3470 -0.1342 -0.1562
 2695ntf    fn419363   1.146   1.757   4.991 -0.0384 -0.6381 -0.2205
 2695ntf    fn419364   1.169   1.551   5.039  0.3546  0.3908  0.2959
 2695ntf    fn419365   0.991   1.647   5.063 -0.3914  0.2715  0.0063
 2696ntf    cn119366   2.642   3.980   4.284  0.2944 -0.3576  0.0132
 2696ntf    sn219367   2.791   4.082   4.305  0.0318  0.0275 -0.0019
 2696ntf    nn319368   2.753   4.205   4.215  0.0289 -0.1185 -0.1992
 2696ntf    sn219369   2.699   4.346   4.257 -0.1265 -0.2085 -0.0924
 2696ntf    cn119370   2.721   4.436   4.100  0.6959 -0.1511  0.0514
 2696ntf    fn419371   2.530   4.047   4.298  0.2640 -0.3455 -0.2725
 2696ntf    fn419372   2.641   3.926   4.163  0.7060 -0.0047 -0.1496
 2696ntf    fn419373   2.640   3.874   4.364 -0.1041 -0.2948  0.0867
 2696ntf    on519374   2.791   4.112   4.447 -0.1553 -0.2847  0.0655
 2696ntf    on519375   2.900   4.001   4.258  0.5358  0.3213  0.6363
 2696ntf    on519376   2.784   4.421   4.345 -0.1244 -0.4367  0.0998
 2696ntf    on519377   2.557   4.356   4.280 -0.2329 -0.9078 -0.4334
 2696ntf    fn419378   2.652   4.376   4.005 -0.7133  0.6751  0.5127
 2696ntf    fn419379   2.691   4.565   4.114  0.2517 -0.2695  0.2183
 2696ntf    fn419380   2.850   4.442   4.073  0.7562  0.2119  0.4015
 2697ntf    cn119381   6.987   6.121   6.364  0.0709 -0.1018 -0.2877
 2697ntf    sn219382   7.100   5.991   6.421 -0.0819 -0.0525  0.1297
 2697ntf    nn319383   7.237   6.067   6.406 -0.0973 -0.0424  0.0420
 2697ntf    sn219384   7.350   6.050   6.298  0.1739 -0.0001  0.3165
 2697ntf    cn119385   7.322   6.202   6.203  0.2592 -0.0706  0.1794
 2697ntf    fn419386   6.863   6.078   6.347 -0.3370  0.8897  0.0970
 2697ntf    fn419387   6.972   6.220   6.451  0.0770  0.4897 -0.9459
 2697ntf    fn419388   7.019   6.166   6.244  0.3961 -0.4835 -0.3468
 2697ntf    on519389   7.068   5.971   6.560  0.0261  0.1616  0.1870
 2697ntf    on519390   7.087   5.883   6.327  0.0324  0.0972 -0.0598
 2697ntf    on519391   7.340   5.947   6.198  0.4293 -0.0068  0.2982
 2697ntf    on519392   7.483   6.068   6.349  0.0427  0.0752  0.6339
 2697ntf    fn419393   7.398   6.201   6.095  0.2306 -0.0878  0.1593
 2697ntf    fn419394   7.197   6.221   6.162  0.3891  0.1392 -0.1290
 2697ntf    fn419395   7.340   6.312   6.274  0.4761  0.1713 -0.2407
 2698ntf    cn119396   3.047   5.614   2.237 -0.0260 -0.1471 -0.0153
 2698ntf    sn219397   2.975   5.750   2.332 -0.0564 -0.0327 -0.2016
 2698ntf    nn319398   3.000   5.867   2.231 -0.1130  0.1717  0.0179
 2698ntf    sn219399   3.126   5.958   2.212 -0.1373  0.1262 -0.3701
 2698ntf    cn119400   3.070   6.096   2.316  0.2775 -0.0815  0.1333
 2698ntf    fn419401   3.038   5.493   2.290  0.4053 -0.2698 -0.2213
 2698ntf    fn419402   2.994   5.614   2.116  0.1307 -0.6868 -0.0872
 2698ntf    fn419403   3.177   5.621   2.213  0.0285  0.1714  0.3650
 2698ntf    on519404   2.833   5.722   2.337 -0.0443 -0.0337  0.1875
 2698ntf    on519405   3.052   5.736   2.453 -0.5129  0.1462  0.1127
 2698ntf    on519406   3.134   6.016   2.080 -0.0121  1.2357  0.1117
 2698ntf    on519407   3.244   5.908   2.278 -0.5133  0.4864  0.5796
 2698ntf    fn419408   2.943   6.122   2.288  0.1873  0.2965  0.8657
 2698ntf    fn419409   3.070   6.062   2.444 -0.7460 -0.0738  0.1471
 2698ntf    fn419410   3.137   6.209   2.300  0.5250 -0.2735 -0.2018
 2699ntf    cn119411   5.228   6.526   3.959  0.2951  0.2188  0.6146
 2699ntf    sn219412   5.350   6.457   3.843 -0.2970  0.1094  0.0470
 2699ntf    nn319413   5.428   6.592   3.824 -0.1529  0.0885  0.4688
 2699ntf    sn219414   5.580   6.629   3.811 -0.0577 -0.4109  0.1200
 2699ntf    cn119415   5.603   6.678   3.985  0.0549 -0.6803  0.1814
 2699ntf    fn419416   5.127   6.444   3.985  0.2773 -0.0262 -0.1747
 2699ntf    fn419417   5.293   6.563   4.068  0.2989  0.8956  0.3844
 2699ntf    fn419418   5.183   6.639   3.907  0.4685 -0.0894 -0.2273
 2699ntf    on519419   5.411   6.349   3.917 -0.6212 -0.1679 -0.0905
 2699ntf    on519420   5.267   6.428   3.729  0.1144 -0.2144 -0.1724
 2699ntf    on519421   5.602   6.752   3.738  0.0534 -0.8266 -0.5518
 2699ntf    on519422   5.678   6.526   3.789 -0.1791 -0.6127  0.5192
 2699ntf    fn419423   5.520   6.769   4.033  0.2521 -0.3658 -0.0639
 2699ntf    fn419424   5.591   6.572   4.062  0.0100 -0.7135  0.1283
 2699ntf    fn419425   5.726   6.716   4.015 -0.0102 -0.0389 -0.3307
 2700ntf    cn119426   1.575   3.362   2.654  0.7435  0.2548 -0.1039
 2700ntf    sn219427   1.559   3.419   2.482 -0.1197 -0.1953 -0.1798
 2700ntf    nn319428   1.707   3.418   2.430 -0.0904 -0.5153 -0.0946
 2700ntf    sn219429   1.775   3.350   2.306 -0.1583 -0.3629 -0.2156
 2700ntf    cn119430   1.788   3.490   2.191 -0.2039  0.0116  0.2307
 2700ntf    fn419431   1.683   3.421   2.702  0.3767  0.6051  0.3050
 2700ntf    fn419432   1.475   3.389   2.738  0.4239  0.1653 -0.4546
 2700ntf    fn419433   1.609   3.236   2.679 -0.0856  0.1996  0.8393
 2700ntf    on519434   1.461   3.327   2.430 -0.1181  0.0883 -0.6816
 2700ntf    on519435   1.518   3.555   2.502  0.1364 -0.2253  0.5975
 2700ntf    on519436   1.698   3.251   2.236 -0.4853 -0.3373  0.1039
 2700ntf    on519437   1.915   3.323   2.328  0.0384  0.5481 -0.2969
 2700ntf    fn419438   1.841   3.458   2.074 -0.1326 -0.0792  0.2875
 2700ntf    fn419439   1.669   3.542   2.167  0.2782  0.6610 -0.8130
 2700ntf    fn419440   1.859   3.588   2.244  0.9240 -0.7015  0.0780
   7.01367   7.01367   7.01367
