Converted from moscito
 1728
    1SOL     ow    1   2.059   1.696   1.528  0.4840 -0.0257 -0.0552
    1SOL     hw    2   2.069   1.751   1.605  1.2601 -0.9460  0.5172
    1SOL     hw    3   2.004   1.622   1.557  1.0682 -0.5565 -0.2803
    1SOL     vw    4   2.053   1.693   1.542 -0.0037  0.0187 -0.0126
    2SOL     ow    5   0.443   2.160   1.869 -0.1965  0.2673  0.0578
    2SOL     hw    6   0.538   2.171   1.866 -0.2358  0.9366  0.9114
    2SOL     hw    7   0.425   2.094   1.802  0.7000  1.2135 -1.1668
    2SOL     vw    8   0.453   2.153   1.860  0.0191  0.0094 -0.0325
    3SOL     ow    9   1.681   2.050   5.042  0.7698 -0.5563 -0.4101
    3SOL     hw   10   1.595   2.051   5.000 -0.1582 -1.0298  1.3455
    3SOL     hw   11   1.740   2.088   4.978 -1.2126  2.1944 -0.7904
    3SOL     vw   12   1.677   2.055   5.028 -0.0907  0.1158 -0.0298
    4SOL     ow   13   0.701   1.092   6.067  0.5727  0.2969 -0.2257
    4SOL     hw   14   0.633   1.046   6.117  0.1717 -0.0495 -1.0636
    4SOL     hw   15   0.690   1.059   5.977  2.1640 -0.1185 -0.2854
    4SOL     vw   16   0.690   1.081   6.061  0.0226 -0.0097 -0.0031
    5SOL     ow   17   0.594   1.329   6.267  0.4202 -0.7424 -0.0749
    5SOL     hw   18   0.510   1.357   6.231  1.0368  1.0501 -0.2444
    5SOL     hw   19   0.571   1.270   6.339 -1.0230  0.4016  0.4593
    5SOL     vw   20   0.580   1.325   6.272 -0.0026 -0.0221 -0.0432
    6SOL     ow   21   0.471   2.205   3.410  0.0177 -0.3787 -0.0685
    6SOL     hw   22   0.424   2.225   3.491  2.0619  1.5282  0.7421
    6SOL     hw   23   0.548   2.155   3.439  1.6440  1.6989 -0.5033
    6SOL     vw   24   0.475   2.201   3.425 -0.0050 -0.0199 -0.1168
    7SOL     ow   25   1.404   1.514   1.633  0.0683  0.2016  0.1748
    7SOL     hw   26   1.405   1.603   1.669 -0.6230 -0.7025  2.6163
    7SOL     hw   27   1.493   1.483   1.644  0.4039  0.6939 -1.0317
    7SOL     vw   28   1.416   1.522   1.639  0.0428  0.0262 -0.0544
    8SOL     ow   29   0.271   1.380   4.076  0.2799  0.8520  0.3680
    8SOL     hw   30   0.202   1.319   4.103 -0.6435  1.1430 -1.1897
    8SOL     hw   31   0.353   1.334   4.095 -0.3237  0.3690  1.9769
    8SOL     vw   32   0.272   1.366   4.082  0.0102  0.0183 -0.0212
    9SOL     ow   33   1.392   1.055   6.175 -0.2252  0.5770  0.3179
    9SOL     hw   34   1.481   1.083   6.197 -0.2829  1.6235 -0.6415
    9SOL     hw   35   1.338   1.133   6.189 -0.8165  0.2491 -0.0665
    9SOL     vw   36   1.396   1.069   6.180  0.0446  0.0066 -0.0217
   10SOL     ow   37   1.460   1.952   0.671  0.2428  0.0512  0.5451
   10SOL     hw   38   1.522   1.879   0.671  1.3994  0.9090 -1.8822
   10SOL     hw   39   1.496   2.014   0.608 -1.3032  2.2166  1.6605
   10SOL     vw   40   1.473   1.950   0.663 -0.0067  0.0072 -0.0083
   11SOL     ow   41   0.842   2.073   0.138 -0.0513  0.0624  0.3521
   11SOL     hw   42   0.815   2.162   0.161  0.9143  0.6616 -0.7451
   11SOL     hw   43   0.863   2.032   0.222 -2.9567 -0.0209  1.1515
   11SOL     vw   44   0.842   2.079   0.152  0.0569  0.0157 -0.0062
   12SOL     ow   45   0.044   0.950   4.330  0.5377 -0.4531  0.1730
   12SOL     hw   46  -0.027   0.888   4.343  0.8210 -0.5767  1.2075
   12SOL     hw   47   0.015   1.030   4.374 -0.2881  0.5453 -2.0475
   12SOL     vw   48   0.031   0.953   4.338  0.0070  0.0223 -0.0322
   13SOL     ow   49   1.043   1.303   3.139 -0.3360 -0.1384 -0.2284
   13SOL     hw   50   1.119   1.333   3.088 -1.1805  0.7667 -1.0091
   13SOL     hw   51   1.005   1.233   3.086  0.3579 -1.1081  0.5226
   13SOL     vw   52   1.048   1.298   3.125  0.0384 -0.0650 -0.0989
   14SOL     ow   53   1.064   0.930   3.759  0.4209 -0.1962 -0.8892
   14SOL     hw   54   1.075   0.922   3.664 -0.3302 -0.8693 -0.9308
   14SOL     hw   55   0.977   0.894   3.775 -0.4764  2.0663 -0.2501
   14SOL     vw   56   1.054   0.924   3.748  0.0436  0.0253  0.0135
   15SOL     ow   57   0.580  -0.010   4.383  0.1541 -0.3763 -0.1654
   15SOL     hw   58   0.627  -0.047   4.308 -1.3901  0.1934 -1.4732
   15SOL     hw   59   0.544   0.072   4.351  0.2731  0.4001  1.5358
   15SOL     vw   60   0.582  -0.004   4.369  0.0087  0.0249  0.0134
   16SOL     ow   61   0.954   1.598   3.318 -0.4489 -0.6690  0.0143
   16SOL     hw   62   0.904   1.640   3.388 -0.4360 -0.7287  0.0594
   16SOL     hw   63   1.012   1.666   3.285  0.5373 -1.0136  0.9859
   16SOL     vw   64   0.955   1.612   3.323 -0.0240 -0.0334  0.0069
   17SOL     ow   65   1.532   0.638   1.241  0.0382 -0.1716  0.2412
   17SOL     hw   66   1.484   0.700   1.187 -1.4600 -0.1460  1.5292
   17SOL     hw   67   1.518   0.668   1.331  3.6596  0.6735  0.7040
   17SOL     vw   68   1.524   0.650   1.246 -0.0153  0.0020 -0.0281
   18SOL     ow   69   0.430   1.960   2.765 -1.0120 -0.3666 -0.0537
   18SOL     hw   70   0.344   1.917   2.763 -1.2481 -0.0231  1.4023
   18SOL     hw   71   0.482   1.907   2.826 -0.7286  0.3629  0.3491
   18SOL     vw   72   0.425   1.947   2.773  0.0199  0.0032  0.0541
   19SOL     ow   73   0.799   0.490   5.629 -0.1035  0.8541  0.7750
   19SOL     hw   74   0.842   0.520   5.549 -0.6049  0.4116  0.3347
   19SOL     hw   75   0.706   0.508   5.615 -0.1614  1.0870  1.4029
   19SOL     vw   76   0.793   0.497   5.617 -0.0032 -0.1023 -0.0734
   20SOL     ow   77   1.683   1.344   0.386 -0.1332 -0.7659  0.3283
   20SOL     hw   78   1.723   1.278   0.330  2.8692  2.0398 -1.2098
   20SOL     hw   79   1.742   1.351   0.461 -0.5173 -0.0529  0.5734
   20SOL     vw   80   1.696   1.336   0.388 -0.0258  0.0299  0.0358
   21SOL     ow   81   1.308   0.420   1.893  0.5550 -0.2925  0.0350
   21SOL     hw   82   1.314   0.344   1.836  1.9938 -0.6224  0.5949
   21SOL     hw   83   1.222   0.412   1.934  0.2402 -1.0119 -0.7352
   21SOL     vw   84   1.297   0.409   1.891  0.0017  0.0519 -0.0046
   22SOL     ow   85   0.444   0.973   0.624  0.1237  0.0211 -0.0396
   22SOL     hw   86   0.498   1.045   0.590 -2.1484  1.5389 -0.6795
   22SOL     hw   87   0.388   0.949   0.550 -0.5789 -0.9902  0.7983
   22SOL     vw   88   0.443   0.979   0.609  0.0358 -0.0329  0.0636
   23SOL     ow   89   1.886   1.910   2.646 -0.3432 -0.1071  0.1214
   23SOL     hw   90   1.806   1.952   2.614  0.0385  0.7577  0.2607
   23SOL     hw   91   1.911   1.850   2.576 -0.1001  0.9790 -0.7659
   23SOL     vw   92   1.879   1.908   2.632 -0.0063  0.0409  0.0447
   24SOL     ow   93   1.158   0.295   4.089  0.2148 -0.3470 -0.2339
   24SOL     hw   94   1.183   0.202   4.089  0.7716 -0.2039 -0.8102
   24SOL     hw   95   1.170   0.323   4.179 -0.3523 -0.9348  0.0375
   24SOL     vw   96   1.163   0.286   4.101 -0.0646  0.0653  0.0329
   25SOL     ow   97   0.313   0.145   2.014 -0.4786  0.7170 -0.3702
   25SOL     hw   98   0.278   0.226   2.050 -0.8638  0.6726 -0.6441
   25SOL     hw   99   0.408   0.154   2.023 -0.5791  0.2519  1.6429
   25SOL     vw  100   0.321   0.157   2.020 -0.0265  0.0411 -0.0706
   26SOL     ow  101   1.277   0.394   0.317 -0.1778 -0.0564  0.1626
   26SOL     hw  102   1.300   0.423   0.405 -0.1790  0.3667  0.0302
   26SOL     hw  103   1.181   0.395   0.315 -0.2014 -0.9732  0.4431
   26SOL     vw  104   1.267   0.398   0.328 -0.0230  0.0243 -0.0072
   27SOL     ow  105   0.985   2.003   6.135  0.1046 -0.6339 -0.0854
   27SOL     hw  106   1.007   2.001   6.042 -0.3597  4.0763 -0.5291
   27SOL     hw  107   1.070   2.010   6.179  0.2472  1.9311 -0.6260
   27SOL     vw  108   0.999   2.003   6.128 -0.0520  0.0733 -0.0002
   28SOL     ow  109   0.222   2.118   1.040 -0.4768 -0.1644  0.2857
   28SOL     hw  110   0.310   2.131   1.075 -0.8294 -1.6705  1.8559
   28SOL     hw  111   0.227   2.037   0.990 -0.9269 -0.1495  0.2116
   28SOL     vw  112   0.234   2.109   1.038  0.0409 -0.0565 -0.0058
   29SOL     ow  113   2.027   0.437   5.567  0.3578  0.6454  0.6065
   29SOL     hw  114   1.938   0.415   5.597  0.8397 -1.9824  0.2918
   29SOL     hw  115   2.012   0.491   5.489 -0.9458  1.1131  1.1427
   29SOL     vw  116   2.013   0.441   5.561 -0.0076 -0.0534 -0.0482
   30SOL     ow  117   1.115   0.303   2.823  0.1852 -0.7443  0.2578
   30SOL     hw  118   1.113   0.230   2.761  1.0430 -1.9857  1.6461
   30SOL     hw  119   1.203   0.302   2.859 -0.2408  0.0541  1.3742
   30SOL     vw  120   1.126   0.293   2.819 -0.0063 -0.1118  0.0881
   31SOL     ow  121   2.139   0.133   5.453 -0.5359 -0.2243  0.0055
   31SOL     hw  122   2.090   0.051   5.452 -0.0654 -0.5173 -1.2563
   31SOL     hw  123   2.218   0.115   5.401  0.2130  0.6536  0.7885
   31SOL     vw  124   2.143   0.120   5.446  0.0029  0.0254  0.0288
   32SOL     ow  125   2.090   1.288   5.615  0.8641  0.4985 -0.3378
   32SOL     hw  126   2.030   1.321   5.548 -0.4569  0.0154  0.5643
   32SOL     hw  127   2.154   1.358   5.627 -1.7922  2.8122  1.4441
   32SOL     vw  128   2.091   1.302   5.608 -0.0347 -0.0144 -0.0310
   33SOL     ow  129   2.163   0.257   0.111  0.7453 -0.5076  0.0300
   33SOL     hw  130   2.192   0.175   0.072  1.9362  0.8241 -2.0367
   33SOL     hw  131   2.082   0.279   0.064  1.9183  0.8539 -1.4328
   33SOL     vw  132   2.156   0.249   0.100  0.0366 -0.0503 -0.0877
   34SOL     ow  133   1.055   0.611   4.696 -0.4912 -0.5914  0.1139
   34SOL     hw  134   1.090   0.573   4.615 -0.8887 -1.2962  0.2647
   34SOL     hw  135   1.071   0.544   4.762  0.0691  0.0938  0.6787
   34SOL     vw  136   1.062   0.597   4.694 -0.0081 -0.0127  0.0446
   35SOL     ow  137   0.500   0.256   3.256  0.0662 -0.0459 -0.6560
   35SOL     hw  138   0.520   0.325   3.319  0.1125 -1.9783  1.5735
   35SOL     hw  139   0.407   0.267   3.236 -0.8594 -1.2806  2.3771
   35SOL     vw  140   0.491   0.266   3.261 -0.0035  0.0631  0.0211
   36SOL     ow  141   1.519   2.037   2.110  0.4959 -0.1154  0.1845
   36SOL     hw  142   1.532   1.959   2.163 -0.0020 -0.9548 -0.8963
   36SOL     hw  143   1.605   2.054   2.071  0.5627 -0.2139  0.2902
   36SOL     vw  144   1.532   2.029   2.112  0.0238  0.0385  0.0197
   37SOL     ow  145   0.643   1.238   0.616  0.0525  0.0758  0.1233
   37SOL     hw  146   0.652   1.287   0.698 -1.1393  0.5596 -0.0118
   37SOL     hw  147   0.706   1.280   0.556  0.1050  0.4740  0.4516
   37SOL     vw  148   0.652   1.250   0.619  0.0220 -0.0461  0.0157
   38SOL     ow  149   1.598   0.348   1.159 -0.2223  0.3058 -0.1290
   38SOL     hw  150   1.616   0.310   1.245  0.5912  1.3871  0.2077
   38SOL     hw  151   1.590   0.273   1.100 -0.5311 -0.4345  0.8449
   38SOL     vw  152   1.599   0.333   1.162  0.0124  0.0132 -0.0021
   39SOL     ow  153   0.177   0.036   0.802 -0.1023 -0.5174 -0.0441
   39SOL     hw  154   0.273   0.030   0.795 -0.2743 -5.2682 -3.8918
   39SOL     hw  155   0.153   0.102   0.737  0.4863 -0.4875 -0.2418
   39SOL     vw  156   0.187   0.044   0.792 -0.1190 -0.0310 -0.0817
   40SOL     ow  157   1.604   0.568   1.844  0.5459 -0.3662  0.0611
   40SOL     hw  158   1.682   0.601   1.889  0.6038  0.5383 -0.6853
   40SOL     hw  159   1.637   0.502   1.783  1.0863  1.7428 -2.0482
   40SOL     vw  160   1.619   0.564   1.842  0.0494  0.0260 -0.0241
   41SOL     ow  161   1.763   0.602   4.951  0.3497  0.6615 -0.2208
   41SOL     hw  162   1.706   0.658   5.004  0.0786 -0.6337  0.9200
   41SOL     hw  163   1.823   0.662   4.909 -0.3156  1.8601  0.4903
   41SOL     vw  164   1.763   0.617   4.952  0.0077  0.0836  0.1082
   42SOL     ow  165   1.647   0.376   4.778  0.1166  0.1839 -0.8374
   42SOL     hw  166   1.561   0.413   4.756 -0.6384 -0.7037  0.5021
   42SOL     hw  167   1.655   0.298   4.723  0.3449  0.6000 -1.4029
   42SOL     vw  168   1.637   0.371   4.768  0.0297 -0.0253  0.0637
   43SOL     ow  169   0.834   0.741   5.819  0.0295  0.4815  0.1565
   43SOL     hw  170   0.743   0.735   5.793  0.2520  0.4601 -0.6364
   43SOL     hw  171   0.877   0.790   5.749  1.0100 -1.2658 -0.5517
   43SOL     vw  172   0.828   0.746   5.806 -0.0012  0.0330  0.0536
   44SOL     ow  173   0.385   1.769   1.333 -0.0128 -0.4152 -0.3834
   44SOL     hw  174   0.337   1.849   1.354  0.4780  0.3494 -2.0344
   44SOL     hw  175   0.341   1.701   1.384 -0.7800  0.7986  0.6417
   44SOL     vw  176   0.373   1.770   1.343 -0.0219  0.0437 -0.0303
   45SOL     ow  177   2.085   1.484   4.829  0.3435  0.3800  0.4996
   45SOL     hw  178   2.012   1.524   4.782  0.7074  1.7204  1.0261
   45SOL     hw  179   2.060   1.392   4.838 -0.7036  0.5550 -0.4134
   45SOL     vw  180   2.072   1.478   4.824  0.0302  0.0696 -0.0033
   46SOL     ow  181   0.207   1.752   0.360 -0.1283  0.3483  0.3334
   46SOL     hw  182   0.291   1.707   0.349  0.3105  1.0325  0.8036
   46SOL     hw  183   0.166   1.748   0.274  1.4733  2.1394 -0.5791
   46SOL     vw  184   0.213   1.745   0.347  0.0204  0.0519 -0.0033
   47SOL     ow  185   2.011   0.901   4.460 -0.2415 -0.3838  0.4406
   47SOL     hw  186   1.997   0.806   4.456  5.0974 -1.4304 -0.3575
   47SOL     hw  187   2.032   0.918   4.552  0.1727 -0.2557  0.3237
   47SOL     vw  188   2.012   0.890   4.472  0.1951  0.0435 -0.0088
   48SOL     ow  189   0.269   1.789   3.451 -0.1436 -0.2028 -0.2194
   48SOL     hw  190   0.309   1.865   3.493  3.6721 -1.4583 -1.1618
   48SOL     hw  191   0.344   1.735   3.424 -2.6074 -3.3158 -1.4060
   48SOL     vw  192   0.284   1.792   3.453 -0.0607 -0.0167  0.0956
   49SOL     ow  193   0.185   0.685   4.381 -0.0837 -0.0812  0.3073
   49SOL     hw  194   0.164   0.672   4.474 -0.2073  0.5088  0.3680
   49SOL     hw  195   0.203   0.597   4.348 -0.4316 -0.3447  0.7967
   49SOL     vw  196   0.185   0.672   4.389 -0.0185 -0.0662 -0.0672
   50SOL     ow  197   1.028   0.585   2.848  0.9797  0.4185  0.4389
   50SOL     hw  198   1.099   0.581   2.913  0.2743 -0.3082  1.1876
   50SOL     hw  199   0.979   0.664   2.872  0.7402  0.1701  0.7736
   50SOL     vw  200   1.031   0.595   2.860 -0.0231  0.0058 -0.0007
   51SOL     ow  201   2.006   0.279   2.719  0.3810 -0.0499  0.2952
   51SOL     hw  202   1.916   0.246   2.719  1.4268 -3.2221 -0.3210
   51SOL     hw  203   2.027   0.291   2.811 -0.8982  1.5825  0.4182
   51SOL     vw  204   1.997   0.276   2.731  0.0332 -0.0287 -0.0229
   52SOL     ow  205   1.636   1.045   3.281  0.1241 -0.1704  0.6034
   52SOL     hw  206   1.557   1.021   3.329 -1.0152  1.1745 -0.5256
   52SOL     hw  207   1.619   1.016   3.191 -0.4254  2.7992 -0.3417
   52SOL     vw  208   1.623   1.038   3.275  0.0253  0.0644  0.0026
   53SOL     ow  209   0.819   0.738   4.710  0.3440 -0.2414  0.0852
   53SOL     hw  210   0.754   0.699   4.768 -0.8779  0.1322 -0.9693
   53SOL     hw  211   0.851   0.665   4.657  2.4017 -0.8275  1.9922
   53SOL     vw  212   0.814   0.723   4.710  0.0336  0.0585  0.0639
   54SOL     ow  213   0.758   1.672   4.273  0.2109 -0.2640 -0.1303
   54SOL     hw  214   0.797   1.736   4.213 -1.1029  0.7112  0.0014
   54SOL     hw  215   0.730   1.600   4.217  2.6565 -1.2803 -0.1608
   54SOL     vw  216   0.759   1.671   4.258  0.0065 -0.0306  0.0188
   55poe    c31  217   0.353   2.201   3.002 -0.0228  0.7301  0.0348
   55poe     o2  218   0.472   2.234   3.072  0.0504  0.3912  0.0726
   55poe    c23  219   0.585   2.204   2.993  0.1792  0.4324  0.2427
   55poe    c23  220   0.702   2.282   3.055  0.7419  0.1366 -0.4357
   55poe     o2  221   0.711   2.269   3.196 -0.3876  0.1978 -0.3519
   55poe    c23  222   0.835   2.315   3.244 -0.3661 -0.0178 -0.2009
   55poe    c23  223   0.825   2.365   3.389 -0.3991 -0.3734 -0.0786
   55poe     o2  224   0.714   2.452   3.403 -0.4036 -0.3928  0.0054
   55poe    c23  225   0.735   2.549   3.504 -0.1848 -1.1698  0.7225
   55poe    c23  226   0.611   2.617   3.564 -0.1641 -0.9243  0.4894
   55poe     o2  227   0.539   2.680   3.460  0.1691 -1.0758  0.1644
   55poe    c31  228   0.450   2.773   3.517 -0.0151 -1.1919  0.0664
   56poe    c31  229   1.174   2.192   4.115 -0.5077  0.0052  0.7059
   56poe     o2  230   1.247   2.312   4.128  0.1191 -0.2378 -0.4254
   56poe    c23  231   1.379   2.311   4.077  0.1450 -0.4938 -0.3549
   56poe    c23  232   1.447   2.429   4.148  0.1245 -0.7085  0.0248
   56poe     o2  233   1.421   2.559   4.100 -0.0679 -0.4941  0.6912
   56poe    c23  234   1.549   2.614   4.077 -0.4549 -0.1686 -0.8459
   56poe    c23  235   1.532   2.766   4.065 -0.5871 -0.1221 -0.1242
   56poe     o2  236   1.421   2.776   3.979 -0.5981 -0.3987 -0.1426
   56poe    c23  237   1.368   2.907   3.979 -0.1422 -0.2118  0.2942
   56poe    c23  238   1.249   2.894   3.882 -0.2001 -0.2339  0.3682
   56poe     o2  239   1.176   2.778   3.916 -0.4409 -0.1163  0.2542
   56poe    c31  240   1.047   2.770   3.858 -0.2325 -0.1329 -0.2112
   57poe    c31  241   1.419   1.099   0.545 -0.5506 -0.0030  0.5129
   57poe     o2  242   1.420   1.239   0.554 -0.2869  0.0112  0.2721
   57poe    c23  243   1.428   1.297   0.682 -0.1202  0.0230  0.2562
   57poe    c23  244   1.371   1.437   0.655 -0.0357 -0.1653 -0.9344
   57poe     o2  245   1.445   1.501   0.553  0.2914  0.1116 -0.5269
   57poe    c23  246   1.402   1.635   0.546  0.8549  0.3496  0.3675
   57poe    c23  247   1.487   1.668   0.422  0.2898  0.1978 -0.0661
   57poe     o2  248   1.493   1.564   0.325  0.1246 -0.1391  0.2823
   57poe    c23  249   1.371   1.547   0.258  0.3198  0.3818 -0.2128
   57poe    c23  250   1.366   1.410   0.188  0.3418  0.3592 -0.1698
   57poe     o2  251   1.425   1.318   0.278 -0.2349  0.0390 -0.1161
   57poe    c31  252   1.442   1.199   0.205  0.3639  0.2486 -0.3250
   58poe    c31  253   0.570   1.497   0.405 -0.2729  0.0123  0.4511
   58poe     o2  254   0.482   1.597   0.359  0.0492  0.0699 -0.0512
   58poe    c23  255   0.541   1.649   0.242 -0.4057  0.1313 -0.2594
   58poe    c23  256   0.561   1.798   0.276 -0.2884 -0.0776  0.6337
   58poe     o2  257   0.445   1.879   0.272 -0.1604  0.0711 -0.4115
   58poe    c23  258   0.475   2.016   0.285 -0.0091  0.0132 -0.1425
   58poe    c23  259   0.340   2.088   0.297  0.1046  0.1735  0.1742
   58poe     o2  260   0.256   2.037   0.399  0.2062 -0.3674 -0.0095
   58poe    c23  261   0.130   2.096   0.380  0.1668 -0.1351  0.9354
   58poe    c23  262   0.039   2.069   0.502 -0.4039 -0.2052  0.4967
   58poe     o2  263   0.061   1.935   0.541 -0.1886 -0.3007  0.0528
   58poe    c31  264  -0.025   1.903   0.648  0.3736 -0.7016  0.3914
   59poe    c31  265   1.184   2.079   0.856  0.0920  0.2900 -0.1609
   59poe     o2  266   1.286   2.002   0.915 -0.0593  0.5818  0.4914
   59poe    c23  267   1.233   1.913   1.011  0.3475 -0.2527 -0.0494
   59poe    c23  268   1.356   1.839   1.068  0.5527  0.1621  0.0476
   59poe     o2  269   1.436   1.815   0.955 -0.1053 -0.7080 -0.2475
   59poe    c23  270   1.548   1.735   0.985  0.1830 -0.3928 -0.4682
   59poe    c23  271   1.616   1.689   0.855  1.1208 -0.9088  0.1959
   59poe     o2  272   1.695   1.793   0.800  0.0150 -0.1116  0.0910
   59poe    c23  273   1.737   1.752   0.672  0.7526  0.5413  0.1206
   59poe    c23  274   1.791   1.849   0.565  0.6151  0.1322 -0.3248
   59poe     o2  275   1.681   1.920   0.513 -0.0124 -0.5754  0.0163
   59poe    c31  276   1.708   1.981   0.389 -0.5607  0.1135  0.2228
   60poe    c31  277   0.442   0.607   1.732 -0.2363 -0.0869 -0.0481
   60poe     o2  278   0.506   0.709   1.805  0.1742 -0.3544 -0.0316
   60poe    c23  279   0.449   0.722   1.934 -0.1945  0.6716 -0.2919
   60poe    c23  280   0.532   0.829   2.008  0.4735 -0.0819  0.0614
   60poe     o2  281   0.540   0.947   1.932 -0.0591 -0.1198 -0.0568
   60poe    c23  282   0.644   1.027   1.983  0.1074 -0.0716 -0.4705
   60poe    c23  283   0.691   1.110   1.863 -0.5752  0.3284 -0.4606
   60poe     o2  284   0.706   1.015   1.760  0.3949 -0.1674  0.1280
   60poe    c23  285   0.741   1.068   1.634  0.2147 -0.1863  0.0689
   60poe    c23  286   0.767   0.939   1.554  0.1219 -0.1289 -0.0534
   60poe     o2  287   0.659   0.849   1.555 -0.5180  0.6249 -0.7205
   60poe    c31  288   0.688   0.751   1.458 -0.5809  0.0388 -0.1492
   61poe    c31  289   0.152   0.200   0.314  0.0327 -0.0893  0.1440
   61poe     o2  290   0.098   0.330   0.319  0.0843 -0.0385 -0.5092
   61poe    c23  291   0.203   0.424   0.311 -0.1704  0.3006  0.0841
   61poe    c23  292   0.145   0.566   0.314  0.4605  0.5737 -0.4511
   61poe     o2  293   0.032   0.561   0.230 -0.0819  0.5000  0.2728
   61poe    c23  294   0.023   0.660   0.130  0.5139 -0.0554 -0.3395
   61poe    c23  295  -0.117   0.657   0.066  0.3548  0.2077 -0.0043
   61poe     o2  296  -0.144   0.528   0.016 -0.1385  0.1630  0.3690
   61poe    c23  297  -0.275   0.525  -0.034 -0.0661  0.4460  0.1591
   61poe    c23  298  -0.298   0.395  -0.114  0.8680  0.1390  0.3807
   61poe     o2  299  -0.295   0.275  -0.040  0.3324 -0.3456 -0.3747
   61poe    c31  300  -0.359   0.170  -0.109  0.0313 -0.4113 -0.0002
   62poe    c31  301   1.870   1.320   3.080 -0.2408  0.2071 -0.6202
   62poe     o2  302   1.895   1.232   3.187 -0.2863  0.7695 -0.1441
   62poe    c23  303   2.031   1.203   3.209 -0.4683  0.1421  0.1857
   62poe    c23  304   2.032   1.067   3.281  0.3771  0.0855  0.0716
   62poe     o2  305   1.917   1.046   3.360 -0.0007 -0.2970 -0.5815
   62poe    c23  306   1.934   0.947   3.459  0.4522  0.4751  0.1219
   62poe    c23  307   1.826   0.962   3.568  0.0676 -0.1396 -0.1685
   62poe     o2  308   1.695   0.921   3.537 -0.2404  0.3431  0.4625
   62poe    c23  309   1.631   0.859   3.646 -0.5875  0.0814  0.1154
   62poe    c23  310   1.513   0.768   3.607 -0.5528  0.0991 -0.0321
   62poe     o2  311   1.556   0.639   3.571  0.5555  0.3637  0.3237
   62poe    c31  312   1.459   0.566   3.501  0.6749  0.3436  0.1794
   63poe    c31  313   0.514   0.537   0.446 -0.4054  0.2507  0.1823
   63poe     o2  314   0.550   0.645   0.529 -0.1606  0.2531  0.0745
   63poe    c23  315   0.663   0.697   0.462 -0.3239  0.2362 -0.2138
   63poe    c23  316   0.770   0.761   0.552 -0.4209  0.1912 -0.0666
   63poe     o2  317   0.715   0.852   0.645  0.1356 -0.2143  0.6744
   63poe    c23  318   0.807   0.901   0.740  0.4111  0.0016  0.3029
   63poe    c23  319   0.735   0.985   0.848 -0.2081 -0.3567  0.1752
   63poe     o2  320   0.609   0.933   0.885 -0.5210  0.5499  0.4198
   63poe    c23  321   0.615   0.837   0.988 -0.3617  0.0024 -0.0883
   63poe    c23  322   0.474   0.776   0.994 -0.5563  0.3849 -0.7352
   63poe     o2  323   0.437   0.745   0.861 -0.0344  0.1049 -0.8165
   63poe    c31  324   0.395   0.611   0.854 -0.4615  0.1963 -0.1044
   64poe    c31  325   1.815   2.012   1.540  0.1496 -0.2187 -0.5584
   64poe     o2  326   1.932   1.957   1.483  0.2118 -0.0699 -0.5772
   64poe    c23  327   2.027   2.061   1.485 -0.3345  0.4293  0.0926
   64poe    c23  328   2.165   2.010   1.439 -0.1952  0.4428  0.4930
   64poe     o2  329   2.141   1.944   1.317  0.0029  0.6797  0.3241
   64poe    c23  330   2.255   1.880   1.265 -0.2478  0.3376  0.1866
   64poe    c23  331   2.216   1.769   1.166 -0.1367  0.6452 -0.2088
   64poe     o2  332   2.117   1.684   1.221  0.3193  0.2644  0.0291
   64poe    c23  333   2.007   1.676   1.133  0.0781 -0.6224  0.4019
   64poe    c23  334   1.881   1.637   1.212 -0.2423 -0.0461  0.1806
   64poe     o2  335   1.842   1.742   1.298 -0.1732 -0.2320  0.4383
   64poe    c31  336   1.715   1.720   1.356 -0.0184  0.1588  0.9392
   65poe    c31  337   1.796   1.357   5.406 -0.3263 -1.3044  0.6828
   65poe     o2  338   1.928   1.310   5.398  0.2809  0.4145 -0.0113
   65poe    c23  339   1.954   1.234   5.282  0.0859  0.2971  0.0209
   65poe    c23  340   2.106   1.211   5.268  0.0503  0.0352  0.0591
   65poe     o2  341   2.161   1.125   5.365 -0.2550 -0.1883  0.0333
   65poe    c23  342   2.297   1.124   5.331 -0.2254  0.3211  0.1284
   65poe    c23  343   2.362   1.030   5.435 -0.4514  0.0771  0.0488
   65poe     o2  344   2.306   1.064   5.560 -0.3646 -0.8975  0.3637
   65poe    c23  345   2.359   1.013   5.680  0.3740  0.5099  0.6627
   65poe    c23  346   2.302   1.086   5.803 -0.2293  0.4947  0.3941
   65poe     o2  347   2.164   1.084   5.774 -0.1705 -0.2984  0.1496
   65poe    c31  348   2.079   1.114   5.883 -0.0217 -0.3889  0.2914
   66poe    c31  349   0.584   1.628   5.053  0.3356  0.0076 -0.0254
   66poe     o2  350   0.692   1.553   5.104  0.4752  0.1889 -0.0541
   66poe    c23  351   0.818   1.603   5.065  0.3212 -0.0143 -0.8347
   66poe    c23  352   0.924   1.492   5.075 -0.0424 -0.2843  0.1673
   66poe     o2  353   0.896   1.441   5.203 -0.7290 -0.6466 -0.1215
   66poe    c23  354   0.971   1.326   5.235  0.0313 -0.1881 -0.2484
   66poe    c23  355   0.942   1.316   5.386  0.5188  0.9169 -0.0715
   66poe     o2  356   0.802   1.308   5.379  0.5606 -0.1690  0.2194
   66poe    c23  357   0.734   1.341   5.499  0.4026  0.0666  0.0661
   66poe    c23  358   0.583   1.368   5.486  0.3658 -0.0758  0.2013
   66poe     o2  359   0.574   1.440   5.365 -0.3585 -0.0349  0.2747
   66poe    c31  360   0.442   1.445   5.317 -0.5440 -0.8254  0.6806
   67poe    c31  361   0.584   0.509   5.895  0.0019  1.2588 -0.0427
   67poe     o2  362   0.723   0.484   5.885 -0.1801  0.1025  0.1827
   67poe    c23  363   0.754   0.392   5.987 -0.0383  0.3779  0.3896
   67poe    c23  364   0.905   0.363   5.977 -0.2095 -0.1610 -0.7773
   67poe     o2  365   0.976   0.458   5.901  0.0191  0.1287 -0.2081
   67poe    c23  366   1.112   0.435   5.874 -0.0285 -0.0766 -0.2752
   67poe    c23  367   1.177   0.562   5.816 -0.2193  0.2057  0.1204
   67poe     o2  368   1.092   0.611   5.715 -0.4533 -0.3931  0.0188
   67poe    c23  369   1.145   0.724   5.649 -0.4394  0.0286  0.7381
   67poe    c23  370   1.036   0.783   5.557 -0.2940 -0.6912  0.0891
   67poe     o2  371   0.946   0.863   5.632 -0.5685 -0.4700 -0.4680
   67poe    c31  372   0.871   0.946   5.548 -0.7914  0.2079  0.3906
   68poe    c31  373   2.266   1.158   4.047 -0.1018 -0.4715  0.1062
   68poe     o2  374   2.261   1.297   4.027  0.4645 -0.5304 -0.4988
   68poe    c23  375   2.238   1.306   3.888 -0.4633 -0.0250 -0.3242
   68poe    c23  376   2.242   1.448   3.827  0.2734 -0.2032 -0.7054
   68poe     o2  377   2.365   1.508   3.862 -0.0593  0.2585 -0.3152
   68poe    c23  378   2.427   1.573   3.754 -0.1512  0.5556 -0.1882
   68poe    c23  379   2.577   1.599   3.782 -0.0562 -0.4374  0.2650
   68poe     o2  380   2.573   1.640   3.917  0.1625  0.3502  0.0367
   68poe    c23  381   2.663   1.749   3.925  0.5444  0.0009  0.5814
   68poe    c23  382   2.652   1.804   4.068 -1.2097 -0.2043  0.5478
   68poe     o2  383   2.678   1.698   4.157  0.2904 -0.3173  0.0091
   68poe    c31  384   2.660   1.731   4.293 -0.4116 -0.0438 -0.1436
   69poe    c31  385   1.533   0.749   1.572  0.3048  0.0516 -0.3888
   69poe     o2  386   1.447   0.762   1.461  0.0865 -0.4081 -0.2791
   69poe    c23  387   1.384   0.887   1.441  0.6487 -0.1468 -0.4547
   69poe    c23  388   1.305   0.898   1.309 -0.3660  0.0027  0.1570
   69poe     o2  389   1.387   0.866   1.200 -0.3908  0.6706 -0.0640
   69poe    c23  390   1.329   0.881   1.072 -0.4651  0.0642 -0.1068
   69poe    c23  391   1.432   0.837   0.967 -0.9564 -0.1215 -0.5130
   69poe     o2  392   1.464   0.700   0.977 -0.0155  0.1352  0.1766
   69poe    c23  393   1.538   0.655   0.866  0.0343 -0.2842  0.3772
   69poe    c23  394   1.691   0.665   0.878  0.0684 -0.1011 -0.1810
   69poe     o2  395   1.736   0.573   0.975  0.6880  0.7716  0.3822
   69poe    c31  396   1.871   0.540   0.952  0.4491 -0.0229  0.0629
   70poe    c31  397   1.776   1.550   4.706 -0.0032 -0.5082 -0.2400
   70poe     o2  398   1.896   1.622   4.720 -0.3885 -0.0037  0.5972
   70poe    c23  399   1.875   1.755   4.677  0.1992 -0.1452 -0.1647
   70poe    c23  400   2.010   1.809   4.626  0.0307  0.1666 -0.2848
   70poe     o2  401   2.100   1.771   4.728 -0.1864 -0.2591 -0.2493
   70poe    c23  402   2.212   1.856   4.725 -0.3923  0.0025 -0.5797
   70poe    c23  403   2.326   1.825   4.824 -0.4784 -0.1793 -0.5374
   70poe     o2  404   2.363   1.690   4.808  0.1624 -0.0531 -0.1590
   70poe    c23  405   2.460   1.650   4.902 -0.3189 -0.2216  0.2721
   70poe    c23  406   2.493   1.499   4.893  0.4966 -0.0455  0.1978
   70poe     o2  407   2.372   1.427   4.885  0.4618  0.0345 -0.0271
   70poe    c31  408   2.385   1.302   4.949  0.5879  0.0063 -0.1091
   71poe    c31  409   1.291   0.542   0.653  0.1482 -0.1883  0.9272
   71poe     o2  410   1.330   0.446   0.558 -0.1256 -0.0230  0.6455
   71poe    c23  411   1.374   0.331   0.626  0.1455  0.0267  0.5546
   71poe    c23  412   1.498   0.268   0.558  0.1011  0.4462  0.0793
   71poe     o2  413   1.493   0.251   0.418  0.3308 -0.1085  0.1369
   71poe    c23  414   1.617   0.217   0.361  0.0199 -0.2916 -0.4303
   71poe    c23  415   1.629   0.262   0.214  0.0930 -0.1908 -0.3936
   71poe     o2  416   1.505   0.234   0.151  0.0585 -0.6411 -0.1322
   71poe    c23  417   1.508   0.282   0.019 -0.2692 -0.4883 -0.0851
   71poe    c23  418   1.379   0.225  -0.043  0.0582 -0.6699 -0.6138
   71poe     o2  419   1.278   0.242   0.055  0.4526  0.3758 -0.3698
   71poe    c31  420   1.152   0.192   0.017  0.4337  0.3452 -0.2663
   72poe    c31  421   1.883   0.584   5.298  0.2926 -0.3398  0.0696
   72poe     o2  422   2.010   0.542   5.343  0.0442 -0.6708  0.4796
   72poe    c23  423   2.078   0.491   5.230  0.1497 -0.1444  0.3009
   72poe    c23  424   2.229   0.498   5.260  0.1877  0.5694 -0.0456
   72poe     o2  425   2.248   0.425   5.379  0.3579  0.2319 -0.2790
   72poe    c23  426   2.345   0.495   5.453  0.5916 -0.1625 -0.2110
   72poe    c23  427   2.407   0.391   5.548  0.2094 -0.3026 -0.1109
   72poe     o2  428   2.301   0.350   5.631  0.0939  0.2039 -0.0056
   72poe    c23  429   2.355   0.283   5.742 -0.4236  0.1785  0.2361
   72poe    c23  430   2.242   0.217   5.823 -0.1371 -0.5063  0.0843
   72poe     o2  431   2.130   0.191   5.742 -0.3629 -0.2173  0.3030
   72poe    c31  432   2.009   0.181   5.814 -0.4910 -0.2320  0.0877
   73poe    c31  433   1.337   1.714   5.747  0.0294 -0.0194  0.3557
   73poe     o2  434   1.306   1.772   5.622  0.3115 -0.0264  0.2824
   73poe    c23  435   1.355   1.680   5.527 -0.1159 -0.0948  0.1247
   73poe    c23  436   1.273   1.681   5.396 -0.4512 -0.2506  0.3325
   73poe     o2  437   1.284   1.816   5.359 -1.0845 -0.2059  0.3043
   73poe    c23  438   1.198   1.847   5.252  0.0640 -0.9160 -0.8464
   73poe    c23  439   1.231   1.995   5.229  0.1621 -0.6038  1.1706
   73poe     o2  440   1.182   2.051   5.349 -0.0408 -0.2843  0.9420
   73poe    c23  441   1.250   2.174   5.362  0.1651 -0.2979  0.0038
   73poe    c23  442   1.230   2.230   5.504 -0.0711 -0.4711  0.0394
   73poe     o2  443   1.279   2.127   5.588  0.1276 -0.5719 -0.1966
   73poe    c31  444   1.328   2.184   5.707 -0.4591  0.7213 -0.5526
   74poe    c31  445   2.113   2.101   0.966 -0.3615 -0.2291  0.7320
   74poe     o2  446   2.199   2.197   1.022 -0.0306 -0.0735 -0.0344
   74poe    c23  447   2.119   2.309   1.055  0.7132  0.5921 -0.4470
   74poe    c23  448   2.217   2.383   1.149  0.1775 -0.0762  0.6641
   74poe     o2  449   2.335   2.395   1.073 -0.3507  0.2606 -0.1272
   74poe    c23  450   2.438   2.460   1.144  0.1280 -0.4188 -0.1901
   74poe    c23  451   2.566   2.486   1.062  0.3002 -0.3747  0.0888
   74poe     o2  452   2.620   2.367   1.011  0.1328 -0.2025 -0.4945
   74poe    c23  453   2.730   2.401   0.930  0.6962  0.1918  0.4382
   74poe    c23  454   2.773   2.290   0.832 -0.1137 -0.5101  0.8637
   74poe     o2  455   2.669   2.270   0.739  0.4673 -0.4010  0.1797
   74poe    c31  456   2.716   2.200   0.626  0.3832  0.0496 -0.1364
   75poe    c31  457   1.866   1.773   2.359  0.0867  0.6432  0.1605
   75poe     o2  458   1.921   1.728   2.482  0.6670 -0.5121 -0.5005
   75poe    c23  459   1.880   1.599   2.521 -0.5844 -0.0212 -0.1461
   75poe    c23  460   1.918   1.575   2.669 -0.3098  0.1782 -0.1834
   75poe     o2  461   1.848   1.662   2.756 -0.4041 -0.0454 -0.0373
   75poe    c23  462   1.775   1.597   2.858 -0.6028  0.1596 -0.0498
   75poe    c23  463   1.675   1.706   2.901 -0.0279  0.7078 -0.0929
   75poe     o2  464   1.756   1.817   2.936  0.1116  0.5428  0.1072
   75poe    c23  465   1.669   1.918   2.981 -0.1441  0.2884  0.1884
   75poe    c23  466   1.759   2.035   3.024  0.3293 -0.0203  0.0395
   75poe     o2  467   1.864   2.035   2.929  0.7827  0.2668  0.5315
   75poe    c31  468   1.960   2.133   2.957  0.9042  0.1130  0.6544
   76poe    c31  469   1.504   0.960   5.819  0.2906  0.4507  0.2138
   76poe     o2  470   1.490   0.904   5.947  0.3245 -0.1015 -0.0194
   76poe    c23  471   1.599   0.824   5.987  0.3688 -0.0628 -0.0640
   76poe    c23  472   1.595   0.792   6.137 -0.0627  0.1683 -0.0234
   76poe     o2  473   1.462   0.748   6.158 -0.1373  0.1960 -0.4264
   76poe    c23  474   1.426   0.721   6.292 -0.0968 -0.0123 -0.4562
   76poe    c23  475   1.272   0.724   6.293 -0.0901  0.1274  0.1604
   76poe     o2  476   1.228   0.834   6.217 -0.4787 -0.3193 -0.2669
   76poe    c23  477   1.100   0.820   6.160 -0.7235 -0.5401  0.3301
   76poe    c23  478   1.095   0.937   6.061  0.6348 -0.7974 -0.0712
   76poe     o2  479   1.212   0.963   5.987  0.6352 -0.3708  0.0777
   76poe    c31  480   1.168   1.030   5.870 -0.2533 -0.1991  0.5005
   77poe    c31  481   2.000   0.178   3.741 -0.2128  0.1375 -0.2538
   77poe     o2  482   1.957   0.270   3.643 -0.7492  0.0795 -0.0761
   77poe    c23  483   1.914   0.396   3.687  0.1560  0.1796  0.5543
   77poe    c23  484   1.904   0.500   3.574 -0.2832 -0.4993 -0.0403
   77poe     o2  485   1.868   0.426   3.459 -0.5891  0.2543 -0.4408
   77poe    c23  486   1.889   0.491   3.336  0.1525 -0.3804 -0.6590
   77poe    c23  487   1.845   0.386   3.233 -0.0088 -0.5406 -0.4285
   77poe     o2  488   1.930   0.286   3.285  0.0675 -0.3024 -0.0938
   77poe    c23  489   1.918   0.165   3.213  0.1230 -0.4860  0.2018
   77poe    c23  490   1.991   0.058   3.295  0.0561 -0.7900 -0.1329
   77poe     o2  491   1.951   0.071   3.430 -0.2730 -0.4011 -0.2660
   77poe    c31  492   1.983  -0.047   3.499 -0.1248 -0.3153 -0.1880
   78poe    c31  493   1.823   2.106   1.879  0.3325 -0.2077  0.0454
   78poe     o2  494   1.736   2.158   1.978  0.2129  0.0102 -0.1743
   78poe    c23  495   1.724   2.297   1.963  0.1693  0.0061 -0.1773
   78poe    c23  496   1.666   2.384   2.076 -0.1013 -0.3490 -0.0409
   78poe     o2  497   1.534   2.346   2.110 -0.2932 -0.0191 -0.4004
   78poe    c23  498   1.485   2.440   2.204  0.3788 -0.0696  0.0137
   78poe    c23  499   1.332   2.423   2.209  0.3611  0.1012  0.0535
   78poe     o2  500   1.299   2.286   2.205 -0.0793  0.1956  0.3462
   78poe    c23  501   1.163   2.250   2.211  0.0125 -0.2710 -0.3315
   78poe    c23  502   1.151   2.096   2.203 -0.1622 -0.2534 -0.4130
   78poe     o2  503   1.231   2.049   2.096  0.1582 -0.0495 -0.2650
   78poe    c31  504   1.218   1.911   2.071 -0.2728 -0.0840  0.1191
   79poe    c31  505   1.667   0.894   5.174 -0.2427 -0.2715  0.1833
   79poe     o2  506   1.607   0.783   5.110  0.3818 -0.6439  0.2381
   79poe    c23  507   1.499   0.735   5.186  0.2383 -0.7386 -0.0237
   79poe    c23  508   1.433   0.621   5.106 -0.2038 -0.0425 -0.6567
   79poe     o2  509   1.527   0.518   5.088 -0.0363 -0.0923  0.4544
   79poe    c23  510   1.455   0.397   5.092 -0.0881 -0.0736  0.0818
   79poe    c23  511   1.552   0.288   5.140 -0.1257 -0.1928 -0.1137
   79poe     o2  512   1.656   0.292   5.045 -0.3818 -0.0488 -0.3905
   79poe    c23  513   1.762   0.213   5.093 -0.2937  0.4591  0.2637
   79poe    c23  514   1.880   0.225   4.995  0.0358  0.4703  0.6597
   79poe     o2  515   1.913   0.360   4.970 -0.0520  0.3282 -0.2682
   79poe    c31  516   2.008   0.375   4.867  0.7792 -0.3173  0.3847
   80poe    c31  517   0.650   1.851   3.043 -0.5832  0.1386  0.4120
   80poe     o2  518   0.598   1.819   2.916  0.2573 -0.0072  0.0958
   80poe    c23  519   0.690   1.736   2.849  0.4192 -0.0554  0.3753
   80poe    c23  520   0.626   1.646   2.742  0.0504  0.2663  0.3230
   80poe     o2  521   0.554   1.722   2.648 -0.0058  0.0567  0.1946
   80poe    c23  522   0.514   1.646   2.536 -0.3069  0.0086  0.3313
   80poe    c23  523   0.416   1.717   2.441 -0.3883 -0.3337  0.1598
   80poe     o2  524   0.460   1.851   2.430 -0.9713 -0.1290  0.2977
   80poe    c23  525   0.368   1.935   2.364 -0.4662 -0.3064 -0.6426
   80poe    c23  526   0.419   2.078   2.384  0.2806 -0.6703  0.0735
   80poe     o2  527   0.460   2.088   2.519 -0.0217 -0.1851  0.1308
   80poe    c31  528   0.475   2.221   2.563 -0.3020 -0.5140  1.2448
   81poe    c31  529   2.092   0.585   4.384 -0.0897  0.1198  0.2167
   81poe     o2  530   1.988   0.659   4.443 -0.1759 -0.0886  0.3295
   81poe    c23  531   1.860   0.601   4.429 -0.0333 -0.3214 -0.0087
   81poe    c23  532   1.765   0.675   4.525  0.0209  0.4708 -0.5496
   81poe     o2  533   1.743   0.813   4.511 -0.2014  0.5261  0.2974
   81poe    c23  534   1.625   0.843   4.583 -0.6457 -0.3914 -0.0447
   81poe    c23  535   1.594   0.987   4.539  0.4357 -0.1860 -0.1551
   81poe     o2  536   1.718   1.054   4.547  0.3975 -0.1158 -0.1505
   81poe    c23  537   1.710   1.195   4.555 -0.1397 -0.1535  0.0630
   81poe    c23  538   1.850   1.248   4.517 -0.3446  0.2263 -0.1718
   81poe     o2  539   1.889   1.175   4.403 -0.4260  0.0081 -0.0611
   81poe    c31  540   1.918   1.273   4.305  0.1424 -0.1301 -0.0347
   82poe    c31  541   0.105   2.081   3.295  0.0576  0.2934 -0.7827
   82poe     o2  542   0.064   1.946   3.290  0.3169  0.1585  0.3142
   82poe    c23  543  -0.077   1.936   3.295  0.3237 -0.4788 -0.4527
   82poe    c23  544  -0.114   1.790   3.265 -0.6029 -0.4822  0.6189
   82poe     o2  545  -0.032   1.704   3.341  0.6658 -0.0283 -0.2046
   82poe    c23  546  -0.069   1.568   3.337  0.3150  0.0880 -1.0643
   82poe    c23  547   0.046   1.487   3.400 -0.4265  0.2421  0.5426
   82poe     o2  548   0.169   1.544   3.361 -0.4168 -0.0881  0.0793
   82poe    c23  549   0.264   1.446   3.394  0.2123  0.6191  0.3992
   82poe    c23  550   0.398   1.501   3.341  0.2773  0.3373  0.2652
   82poe     o2  551   0.439   1.604   3.429  0.0479  0.3575  0.3489
   82poe    c31  552   0.579   1.616   3.420  0.0618 -0.2552 -0.3336
   83poe    c31  553   0.615   1.488   4.524 -0.4315  0.1843 -0.4463
   83poe     o2  554   0.752   1.521   4.509 -0.2563 -0.2841  0.1273
   83poe    c23  555   0.805   1.496   4.637  0.1832 -0.0886 -0.0146
   83poe    c23  556   0.956   1.523   4.640  0.2127 -0.2505 -0.0389
   83poe     o2  557   0.966   1.646   4.571  0.7637  0.0835  0.6248
   83poe    c23  558   1.098   1.682   4.540  0.5849  0.2805  0.0905
   83poe    c23  559   1.080   1.808   4.453  0.2934 -0.0744 -0.3655
   83poe     o2  560   1.006   1.784   4.335 -0.1497 -0.3140 -0.0411
   83poe    c23  561   1.028   1.900   4.258  0.7927 -0.4869 -0.0359
   83poe    c23  562   0.996   1.863   4.112 -0.1152  0.5817 -0.1134
   83poe     o2  563   0.862   1.822   4.096 -0.0241  0.1546  0.2013
   83poe    c31  564   0.811   1.812   3.964  0.0769  0.3169  0.1487
   84poe    c31  565   1.835   1.936   6.066 -0.7474 -0.0768 -0.2071
   84poe     o2  566   1.892   1.807   6.054  0.0211  0.2550 -0.1941
   84poe    c23  567   1.913   1.777   5.918  0.4504 -0.0021 -0.0718
   84poe    c23  568   1.997   1.653   5.881  0.0690 -0.3975  0.3767
   84poe     o2  569   1.999   1.569   5.995 -0.5326  0.0898  0.7509
   84poe    c23  570   2.121   1.505   6.020 -0.3693  0.1085  0.0118
   84poe    c23  571   2.085   1.426   6.147  0.1395 -0.6462 -0.3005
   84poe     o2  572   2.015   1.512   6.234  0.9544 -0.4166  0.1359
   84poe    c23  573   1.948   1.457   6.345  0.3567  0.3278  0.1564
   84poe    c23  574   1.844   1.561   6.391  0.5188  0.5291  0.0711
   84poe     o2  575   1.817   1.648   6.284 -0.3078 -0.0602 -0.2149
   84poe    c31  576   1.704   1.723   6.322  0.1762  0.4263  0.3080
   85poe    c31  577   1.952   1.364   2.190 -0.5457 -0.0199 -0.5271
   85poe     o2  578   1.823   1.344   2.245 -0.3425 -0.4302 -0.1896
   85poe    c23  579   1.834   1.238   2.336 -0.1670 -0.3002 -0.0574
   85poe    c23  580   1.698   1.224   2.407 -0.2039 -0.5584 -0.1768
   85poe     o2  581   1.582   1.228   2.327 -0.5395 -0.4503  0.3066
   85poe    c23  582   1.545   1.093   2.315 -0.3852 -0.4651 -0.0220
   85poe    c23  583   1.491   1.085   2.171 -0.1422 -0.5376 -0.1088
   85poe     o2  584   1.583   1.156   2.092  0.1678  0.1718  0.8727
   85poe    c23  585   1.539   1.179   1.960  0.7172  0.0867  0.6690
   85poe    c23  586   1.627   1.294   1.910 -0.5579  0.7846 -0.0202
   85poe     o2  587   1.680   1.381   2.007 -0.2416 -0.2643  0.7591
   85poe    c31  588   1.718   1.501   1.944  0.0881 -0.5838  0.3415
   86poe    c31  589   2.294   1.237   2.464  0.6614  0.5203 -0.4295
   86poe     o2  590   2.257   1.201   2.333  0.1910  0.6963 -0.3472
   86poe    c23  591   2.194   1.075   2.326  0.6541  0.4161  0.4334
   86poe    c23  592   2.260   0.993   2.214 -0.6770  0.1292 -0.1614
   86poe     o2  593   2.287   1.089   2.115  0.2408  0.0731  0.0224
   86poe    c23  594   2.367   1.042   2.009 -0.6099 -0.5098 -0.3788
   86poe    c23  595   2.393   1.165   1.919 -0.2348 -0.1840  0.1638
   86poe     o2  596   2.418   1.277   2.000 -0.0637  0.3425 -0.6107
   86poe    c23  597   2.431   1.399   1.930 -0.4246  0.4763 -0.4450
   86poe    c23  598   2.448   1.488   2.055 -0.1372 -0.1041 -0.0706
   86poe     o2  599   2.364   1.434   2.154  0.3059  0.2525  0.5049
   86poe    c31  600   2.325   1.543   2.235  0.1150  0.8401 -0.3759
   87poe    c31  601   2.066   0.893   0.741  0.3830 -0.5011 -0.0908
   87poe     o2  602   2.186   0.965   0.756  0.1063  0.0227 -0.3470
   87poe    c23  603   2.212   0.963   0.894 -0.4146  0.1650 -0.2453
   87poe    c23  604   2.350   1.028   0.914 -0.2717 -0.1966 -0.0361
   87poe     o2  605   2.362   1.128   0.815  0.0518 -0.6713 -0.4776
   87poe    c23  606   2.492   1.184   0.812 -0.4937  0.6446 -0.0700
   87poe    c23  607   2.485   1.265   0.682 -0.1904  0.4761 -0.1900
   87poe     o2  608   2.399   1.196   0.594  0.2672  0.2068 -0.4372
   87poe    c23  609   2.377   1.257   0.468 -0.1462 -0.2274 -0.5786
   87poe    c23  610   2.263   1.169   0.414 -0.1386 -0.5049 -0.1490
   87poe     o2  611   2.165   1.145   0.513 -0.3205 -0.3156 -0.2826
   87poe    c31  612   2.036   1.128   0.459 -0.3545  0.2319 -0.3765
   88poe    c31  613   2.114   0.672   2.784 -0.1060 -0.1626  0.3479
   88poe     o2  614   2.103   0.575   2.682 -0.2947 -0.2380  0.4388
   88poe    c23  615   2.067   0.621   2.553  0.3963 -0.8972 -0.0011
   88poe    c23  616   1.941   0.551   2.499  0.0420  0.0553 -0.4251
   88poe     o2  617   1.988   0.425   2.457  0.3195 -0.0199  0.0957
   88poe    c23  618   1.948   0.398   2.324  0.0619  0.4436  0.0757
   88poe    c23  619   1.943   0.245   2.307  0.7032  0.4143  0.1340
   88poe     o2  620   2.048   0.185   2.381  0.3199 -0.2595  0.1443
   88poe    c23  621   2.021   0.047   2.386 -0.1134 -0.1608  0.5693
   88poe    c23  622   2.128  -0.006   2.483  0.1112 -0.1254  0.3419
   88poe     o2  623   2.129   0.064   2.606 -0.6220  0.1577  0.1899
   88poe    c31  624   2.211   0.003   2.702  0.0434  0.5053 -0.1563
   89poe    c31  625   0.925   0.100   1.173 -0.2073 -0.5856  0.0137
   89poe     o2  626   1.052   0.103   1.233 -0.0895  0.0829 -0.2606
   89poe    c23  627   1.141   0.146   1.133  0.0729 -0.1297 -0.2089
   89poe    c23  628   1.277   0.179   1.196 -0.1347 -0.5760  0.4832
   89poe     o2  629   1.231   0.256   1.304 -0.0887  0.2861 -0.1025
   89poe    c23  630   1.317   0.355   1.357 -0.4436  0.6010 -0.1116
   89poe    c23  631   1.232   0.424   1.466  0.0142  0.6543  0.2135
   89poe     o2  632   1.129   0.335   1.504  0.2852  0.0135 -0.5062
   89poe    c23  633   1.028   0.412   1.565 -0.1083 -0.2689 -0.8050
   89poe    c23  634   0.903   0.323   1.582 -0.1492 -0.1079 -0.2619
   89poe     o2  635   0.882   0.253   1.462  0.2953 -0.7902  0.0527
   89poe    c31  636   0.746   0.258   1.426  0.3303 -0.0513  0.0067
   90poe    c31  637   0.518   0.244   5.371 -0.2837 -0.5286  0.2455
   90poe     o2  638   0.580   0.117   5.366  0.0965 -0.3273 -0.2519
   90poe    c23  639   0.663   0.101   5.254 -0.1811  0.1170 -0.5271
   90poe    c23  640   0.740  -0.025   5.298 -0.5081  0.1199  0.0560
   90poe     o2  641   0.654  -0.137   5.308  0.0989 -0.2533  1.3528
   90poe    c23  642   0.723  -0.258   5.331 -0.0107 -0.7454 -0.6944
   90poe    c23  643   0.615  -0.352   5.388 -0.3199 -0.0348 -0.0787
   90poe     o2  644   0.558  -0.286   5.499  0.3821  0.3344  0.0676
   90poe    c23  645   0.439  -0.343   5.548  0.0013  0.6863 -0.4380
   90poe    c23  646   0.406  -0.267   5.678 -0.0001  0.0974 -0.0887
   90poe     o2  647   0.375  -0.133   5.644  0.1945  0.0751 -0.3585
   90poe    c31  648   0.341  -0.057   5.758 -0.1683  0.2875 -0.6066
   91poe    c31  649   1.379   1.491   3.877 -0.4578  0.0987  0.1914
   91poe     o2  650   1.381   1.625   3.833  0.1221  0.0219 -0.0263
   91poe    c23  651   1.252   1.682   3.830  0.1225  0.0531  0.4678
   91poe    c23  652   1.277   1.831   3.797 -0.3861  0.0814  0.1963
   91poe     o2  653   1.388   1.858   3.880  0.0372  0.2559 -0.4122
   91poe    c23  654   1.439   1.986   3.849  0.0784  0.2710 -0.2815
   91poe    c23  655   1.585   1.958   3.810  0.0470 -0.6513  0.2340
   91poe     o2  656   1.634   1.863   3.903  0.6221  0.0490  0.6554
   91poe    c23  657   1.757   1.813   3.856  0.1780 -0.2182 -0.2428
   91poe    c23  658   1.765   1.703   3.963  0.2191 -0.3264 -0.3564
   91poe     o2  659   1.653   1.618   3.955  0.2285 -0.3788  0.0396
   91poe    c31  660   1.681   1.487   4.000 -0.3021 -0.3915  0.3328
   92poe    c31  661   0.838   1.151   0.089  0.1085 -0.7281  0.2650
   92poe     o2  662   0.849   1.211  -0.039  0.2483 -0.6031  0.3345
   92poe    c23  663   0.969   1.284  -0.031 -0.4505  0.5361  0.7388
   92poe    c23  664   0.992   1.342  -0.172 -0.2833 -0.4025  0.3676
   92poe     o2  665   0.863   1.393  -0.197  0.0896  0.2190 -0.3282
   92poe    c23  666   0.861   1.407  -0.337 -0.2197  0.5453 -0.2933
   92poe    c23  667   0.714   1.434  -0.376 -0.3258 -0.0609 -0.3175
   92poe     o2  668   0.635   1.334  -0.316  0.3145 -0.3267  0.1032
   92poe    c23  669   0.505   1.323  -0.371  0.3832  0.2849 -0.1915
   92poe    c23  670   0.411   1.421  -0.299  0.4284  0.1404  0.0639
   92poe     o2  671   0.401   1.388  -0.162 -0.2084  0.0084 -0.0144
   92poe    c31  672   0.295   1.477  -0.134 -0.5050 -0.5511  0.6546
   93poe    c31  673   0.710   1.318   3.170 -0.5038  0.1995  0.1196
   93poe     o2  674   0.808   1.340   3.268 -0.1274 -0.2544 -0.1501
   93poe    c23  675   0.796   1.241   3.368 -0.2740  0.2475  0.3307
   93poe    c23  676   0.883   1.293   3.484  0.0747  0.0088  0.1753
   93poe     o2  677   1.013   1.312   3.430  0.1777  0.0200  0.4269
   93poe    c23  678   1.096   1.376   3.524  0.2499 -0.1255  0.4625
   93poe    c23  679   1.230   1.403   3.452 -0.3217  0.8387 -0.2606
   93poe     o2  680   1.206   1.477   3.335 -0.0464  0.6762 -0.4188
   93poe    c23  681   1.315   1.477   3.244 -0.1186  0.2403 -0.5085
   93poe    c23  682   1.278   1.579   3.134 -0.1079  0.0575 -0.6819
   93poe     o2  683   1.152   1.550   3.078 -0.0164 -0.8531 -0.4316
   93poe    c31  684   1.119   1.644   2.978 -0.2205  0.1704  0.5842
   94poe    c31  685  -0.010   0.439   1.583 -0.8538  0.6667  0.4529
   94poe     o2  686  -0.052   0.568   1.621  0.3358  1.2548 -0.1538
   94poe    c23  687  -0.058   0.596   1.759 -0.3586 -0.9533  0.2994
   94poe    c23  688  -0.177   0.689   1.785 -0.4893 -0.9809 -0.2005
   94poe     o2  689  -0.189   0.774   1.674  0.2309 -0.2610  0.2656
   94poe    c23  690  -0.305   0.854   1.684  0.4865  0.2293 -0.5253
   94poe    c23  691  -0.319   0.932   1.552  0.3022  0.4449 -0.3794
   94poe     o2  692  -0.205   0.898   1.477  0.7800  0.9193  0.1196
   94poe    c23  693  -0.157   0.996   1.388  0.4150  0.5032 -0.5459
   94poe    c23  694  -0.254   1.029   1.273 -0.6458  0.0320  0.2012
   94poe     o2  695  -0.252   0.926   1.177 -0.2439 -0.1123  0.3627
   94poe    c31  696  -0.342   0.944   1.070  0.2383  0.4577  0.0486
   95poe    c31  697   1.941   2.031   4.215  0.4742 -0.2748 -0.0226
   95poe     o2  698   1.954   2.167   4.179  0.2535 -0.2818 -0.1293
   95poe    c23  699   1.830   2.214   4.130  0.5158 -0.0380 -0.5713
   95poe    c23  700   1.837   2.366   4.148  0.0924 -0.1547  0.6752
   95poe     o2  701   1.959   2.398   4.086 -0.5375  0.2296 -0.3980
   95poe    c23  702   1.997   2.531   4.112  0.1232  0.0645 -0.5033
   95poe    c23  703   2.151   2.534   4.105  0.1305  0.3600 -0.2800
   95poe     o2  704   2.197   2.427   4.185 -0.1284  0.4106 -0.0607
   95poe    c23  705   2.319   2.386   4.126 -0.1195  0.2131  0.0945
   95poe    c23  706   2.365   2.267   4.213  0.2508  0.3576  0.0972
   95poe     o2  707   2.266   2.167   4.228 -0.3993  0.9699 -0.0542
   95poe    c31  708   2.306   2.046   4.289 -0.8322  0.4972 -0.7004
   96poe    c31  709   0.299   0.603   2.913 -0.0524 -0.2810 -0.3588
   96poe     o2  710   0.325   0.729   2.854 -0.0877 -0.2394 -0.2862
   96poe    c23  711   0.254   0.760   2.736 -0.3268  0.5871  0.0711
   96poe    c23  712   0.336   0.868   2.662  0.4989 -0.0235  0.0754
   96poe     o2  713   0.349   0.968   2.761  0.0097  0.2043 -0.0876
   96poe    c23  714   0.396   1.092   2.716 -0.1916  0.3145  0.0023
   96poe    c23  715   0.376   1.191   2.832  0.1225  0.5435 -0.1331
   96poe     o2  716   0.440   1.147   2.950  0.1139  0.0988 -0.2925
   96poe    c23  717   0.364   1.157   3.068  0.3933  0.4297 -0.1381
   96poe    c23  718   0.406   1.040   3.158  0.1550  0.3153 -0.1753
   96poe     o2  719   0.380   0.920   3.087  0.6381  0.3379 -0.3900
   96poe    c31  720   0.398   0.808   3.171 -0.0598 -0.0250 -0.7151
   97poe    c31  721   1.883   0.970   5.573 -0.2605 -0.1140 -0.4248
   97poe     o2  722   2.020   0.947   5.550 -0.1360  0.0418  0.1545
   97poe    c23  723   2.048   0.809   5.539 -0.5283  0.0305 -0.7165
   97poe    c23  724   2.070   0.727   5.668 -0.1509  1.0137 -0.1470
   97poe     o2  725   2.195   0.732   5.732 -0.1834 -0.4459  0.0523
   97poe    c23  726   2.204   0.629   5.828 -0.0969 -0.6364 -0.1611
   97poe    c23  727   2.334   0.639   5.909 -0.1834 -1.0707  0.0341
   97poe     o2  728   2.332   0.543   6.013  0.7955 -0.6624  0.4495
   97poe    c23  729   2.438   0.564   6.103  0.4998  0.5703  0.5293
   97poe    c23  730   2.470   0.429   6.170  0.0153  0.0346 -0.2949
   97poe     o2  731   2.520   0.330   6.083 -0.0954 -0.3616  0.0903
   97poe    c31  732   2.542   0.205   6.145 -0.2772 -0.0898  0.7124
   98poe    c31  733   1.528   1.864   1.777 -0.1445 -0.3528  0.0796
   98poe     o2  734   1.466   1.786   1.677  0.0199  0.1022 -0.3841
   98poe    c23  735   1.390   1.876   1.601 -0.0697  0.1285 -0.2641
   98poe    c23  736   1.276   1.804   1.527  0.1568 -0.7144  0.1971
   98poe     o2  737   1.202   1.715   1.607 -0.5552  0.0568  0.4136
   98poe    c23  738   1.063   1.739   1.611 -0.6114 -0.2382  0.2681
   98poe    c23  739   1.019   1.635   1.717 -0.2069 -0.4435  0.2389
   98poe     o2  740   1.061   1.507   1.678  0.4273 -0.1313 -0.1184
   98poe    c23  741   1.023   1.394   1.754  0.1202  0.3103  0.3854
   98poe    c23  742   1.099   1.280   1.683 -0.2967  0.1452  0.2065
   98poe     o2  743   1.230   1.316   1.648 -0.2714  0.1835  0.3375
   98poe    c31  744   1.288   1.198   1.595 -0.4205  0.1696  0.2048
   99poe    c31  745   1.331   1.113   3.700 -0.0561 -0.3696  0.1173
   99poe     o2  746   1.277   1.111   3.830 -0.0326  0.3128  0.1424
   99poe    c23  747   1.369   1.145   3.931  0.1648  0.0713  0.0442
   99poe    c23  748   1.292   1.162   4.063 -0.0443 -0.2991 -0.0297
   99poe     o2  749   1.194   1.061   4.051  0.0584 -0.4101  0.0584
   99poe    c23  750   1.117   1.054   4.169 -0.1955 -0.9985 -0.1380
   99poe    c23  751   1.018   0.937   4.154 -0.5831 -0.6681 -0.1971
   99poe     o2  752   0.959   0.945   4.027  0.3366 -0.4310 -0.6115
   99poe    c23  753   0.881   0.828   4.018 -0.3878 -0.0152  0.2330
   99poe    c23  754   0.784   0.831   3.899  0.0002  0.6168 -0.0754
   99poe     o2  755   0.852   0.797   3.780 -0.2242  0.3540 -0.1309
   99poe    c31  756   0.772   0.797   3.664 -0.6610 -0.0301  0.1687
  100poe    c31  757   0.835   1.970   0.515 -0.8307 -0.1216 -0.2241
  100poe     o2  758   0.893   1.903   0.405  0.0158 -0.0240  0.1487
  100poe    c23  759   0.931   1.768   0.412 -0.2751 -0.1224 -0.0977
  100poe    c23  760   1.013   1.712   0.294  0.0687 -0.5614  0.3462
  100poe     o2  761   0.937   1.737   0.178  0.1591 -0.8326  0.2283
  100poe    c23  762   0.996   1.696   0.057 -0.0661  0.0111 -0.1677
  100poe    c23  763   0.889   1.693  -0.054  0.2869  0.0155 -0.5109
  100poe     o2  764   0.801   1.803  -0.052  0.0212 -0.2054  0.4173
  100poe    c23  765   0.720   1.808  -0.168  0.0352  0.4788  0.4354
  100poe    c23  766   0.599   1.900  -0.141 -0.3338  0.1486 -0.0902
  100poe     o2  767   0.660   2.008  -0.074  0.0654 -0.2849  0.2548
  100poe    c31  768   0.577   2.123  -0.071 -0.0238 -0.3410 -0.0042
  101poe    c31  769   2.031   2.051   5.100 -0.1291  0.2250  0.1852
  101poe     o2  770   1.953   1.935   5.087  0.2616 -0.0248  0.0681
  101poe    c23  771   2.017   1.815   5.047 -0.5525 -0.3405 -0.3027
  101poe    c23  772   1.921   1.697   5.075  0.0891 -0.6327  0.7278
  101poe     o2  773   1.789   1.741   5.053  0.3153 -0.1683  0.2787
  101poe    c23  774   1.691   1.641   5.071  0.0354 -0.0414 -0.4937
  101poe    c23  775   1.555   1.671   5.007 -0.2016 -0.0310  0.0161
  101poe     o2  776   1.552   1.806   4.965  0.0094  0.1162  0.4654
  101poe    c23  777   1.420   1.836   4.927  0.0503  0.2005  0.3890
  101poe    c23  778   1.404   1.969   4.852  0.1425  0.0025  0.0167
  101poe     o2  779   1.436   2.081   4.932  1.0588 -0.0660 -0.2433
  101poe    c31  780   1.370   2.184   4.862  0.1105 -0.3945  0.1472
  102poe    c31  781   0.176   1.692   1.575 -0.5131  0.3017  0.4751
  102poe     o2  782   0.224   1.621   1.464  0.3548  0.3098  0.8351
  102poe    c23  783   0.160   1.500   1.430 -0.1596  0.6752  0.4752
  102poe    c23  784   0.228   1.460   1.298  0.1225  0.5284  0.6607
  102poe     o2  785   0.366   1.447   1.321  0.2089  0.7597  0.2941
  102poe    c23  786   0.449   1.454   1.208  0.0912  0.1787  0.1676
  102poe    c23  787   0.595   1.467   1.258  0.2710 -0.0440 -0.2940
  102poe     o2  788   0.631   1.598   1.297  0.1952 -0.0604 -0.1708
  102poe    c23  789   0.742   1.598   1.384  0.0851  0.5100 -0.0255
  102poe    c23  790   0.809   1.735   1.373  0.1405  0.4624 -0.2848
  102poe     o2  791   0.717   1.842   1.370 -0.4176  0.0013  0.2477
  102poe    c31  792   0.785   1.963   1.346 -0.2413 -0.1656 -0.1009
  103poe    c31  793   0.541   0.567   4.806 -0.2194  0.1557 -0.0104
  103poe     o2  794   0.642   0.645   4.865 -0.0001 -0.0489 -0.1126
  103poe    c23  795   0.649   0.612   5.002 -0.5827  0.3028  0.0020
  103poe    c23  796   0.760   0.698   5.065 -0.1777 -0.1964 -0.0250
  103poe     o2  797   0.891   0.699   5.013 -0.1503 -0.4378  0.0427
  103poe    c23  798   0.977   0.745   5.115  0.2160 -0.5950 -0.1959
  103poe    c23  799   1.114   0.769   5.047  0.1281 -0.1527 -0.2178
  103poe     o2  800   1.092   0.842   4.928  0.0224  0.6197  0.2709
  103poe    c23  801   1.217   0.882   4.877  0.1740 -0.3178 -0.0989
  103poe    c23  802   1.193   0.986   4.766  0.4980  0.0328  0.1582
  103poe     o2  803   1.067   0.943   4.720  0.4198 -0.0879  0.4766
  103poe    c31  804   1.063   0.988   4.586  0.8246  0.1287  0.5368
  104poe    c31  805   1.345   0.150   3.042  0.6638  0.2273 -0.2042
  104poe     o2  806   1.270   0.269   3.038  0.0596 -0.1064  0.7530
  104poe    c23  807   1.197   0.304   3.154 -0.1921  0.2080  0.5002
  104poe    c23  808   1.093   0.417   3.145 -0.6427 -0.2474 -0.1155
  104poe     o2  809   0.979   0.384   3.068 -0.7560 -0.0830 -0.0185
  104poe    c23  810   0.858   0.436   3.120 -0.2345  1.1525  0.0073
  104poe    c23  811   0.749   0.397   3.019  0.0517  0.0220  0.1212
  104poe     o2  812   0.778   0.432   2.885 -0.0775  0.0916  0.1114
  104poe    c23  813   0.708   0.336   2.808 -0.7674  0.6621  0.0143
  104poe    c23  814   0.757   0.361   2.665  0.0204 -0.6785  0.0270
  104poe     o2  815   0.897   0.345   2.669  0.0798 -0.4285 -0.7684
  104poe    c31  816   0.934   0.330   2.534  0.6833  0.0607 -0.6615
  105poe    c31  817   0.338   2.243   4.638 -0.1626  0.1495 -0.2693
  105poe     o2  818   0.469   2.286   4.665 -0.2407  0.3914 -0.2699
  105poe    c23  819   0.497   2.322   4.798 -0.3981  0.3602 -0.2283
  105poe    c23  820   0.613   2.421   4.775 -0.2209  0.2120  0.0180
  105poe     o2  821   0.701   2.349   4.692 -0.5557 -0.2173  0.0289
  105poe    c23  822   0.832   2.401   4.699 -0.5107 -0.2462 -0.5934
  105poe    c23  823   0.923   2.324   4.601  0.0169 -0.1002 -0.2202
  105poe     o2  824   0.841   2.293   4.491 -0.0983  0.1139 -0.1956
  105poe    c23  825   0.923   2.250   4.384  0.2057  0.6222 -0.1684
  105poe    c23  826   0.871   2.295   4.247  0.0686  0.1674 -0.2681
  105poe     o2  827   0.772   2.211   4.194 -0.0677  0.3125 -0.2448
  105poe    c31  828   0.746   2.245   4.059  0.3901  0.1103 -0.3852
  106poe    c31  829   0.100   0.534   4.686 -0.0373  0.3060  0.4308
  106poe     o2  830   0.132   0.653   4.616  0.0305  0.1860  0.2580
  106poe    c23  831   0.216   0.739   4.689  0.2555  0.2133 -0.0321
  106poe    c23  832   0.236   0.883   4.638 -0.3852  0.2280 -0.2501
  106poe     o2  833   0.281   0.903   4.506 -0.2910  0.3374 -0.2024
  106poe    c23  834   0.366   1.015   4.492 -0.2327  0.2976 -0.1616
  106poe    c23  835   0.454   0.982   4.370  0.2510  0.0514  0.2471
  106poe     o2  836   0.364   0.944   4.268  0.4497 -0.6839  0.3386
  106poe    c23  837   0.410   0.909   4.139  0.0726 -0.2001  0.0693
  106poe    c23  838   0.284   0.893   4.051  0.5005 -0.0365 -0.5756
  106poe     o2  839   0.218   0.792   4.123 -0.5613  0.8162 -0.3302
  106poe    c31  840   0.127   0.725   4.038 -0.4969  0.4169 -0.0874
  107poe    c31  841   0.571   0.379   2.043 -0.7645  0.5328  0.0420
  107poe     o2  842   0.531   0.287   1.944  0.3029  0.1882 -0.0786
  107poe    c23  843   0.621   0.283   1.836  0.1170  0.0929 -0.2296
  107poe    c23  844   0.726   0.173   1.856  0.0741  0.1193  0.1492
  107poe     o2  845   0.675   0.044   1.881 -0.3547  0.1865 -0.3638
  107poe    c23  846   0.763  -0.039   1.953 -0.3426 -0.1962 -0.8143
  107poe    c23  847   0.731  -0.187   1.980  0.3767 -0.2893 -0.4330
  107poe     o2  848   0.688  -0.244   1.858 -0.5557  0.0410 -0.2724
  107poe    c23  849   0.708  -0.383   1.865  0.0206  0.1253 -0.1548
  107poe    c23  850   0.661  -0.464   1.743  0.2631 -0.1758 -0.0491
  107poe     o2  851   0.694  -0.601   1.734  0.3353 -0.1844  0.3142
  107poe    c31  852   0.579  -0.675   1.698  0.2429 -0.0071  0.2407
  108poe    c31  853   1.002   1.086   2.351 -0.8779  0.4264  0.4104
  108poe     o2  854   1.104   1.115   2.444  0.3056  0.2170 -0.7940
  108poe    c23  855   1.102   1.256   2.453 -0.5441  0.1376  0.4569
  108poe    c23  856   1.214   1.303   2.549 -0.5063  0.6684  0.1542
  108poe     o2  857   1.194   1.229   2.667  0.0984  0.2806  0.0164
  108poe    c23  858   1.319   1.223   2.733  0.3426  0.1607 -0.4534
  108poe    c23  859   1.335   1.076   2.776 -0.1605  0.3375  0.3608
  108poe     o2  860   1.291   0.998   2.668 -0.7105 -0.1120  0.9044
  108poe    c23  861   1.298   0.865   2.715  0.2063 -0.2204  0.4961
  108poe    c23  862   1.235   0.770   2.611 -0.5253 -0.0119  0.7363
  108poe     o2  863   1.130   0.838   2.545  0.2217  0.0301 -0.4508
  108poe    c31  864   1.057   0.751   2.462 -0.1501  0.5518 -0.6707
  109lim     li  865   0.998   1.412   3.275 -0.3976 -0.2444  0.1297
  110lim     li  866   1.439   1.965   0.860 -0.2266 -0.0855 -0.1340
  111lim     li  867   1.777   1.913   5.113  0.0004 -0.5047  0.5109
  112lim     li  868   1.288   0.400   3.995  0.1306 -0.1737  0.2992
  113lim     li  869   2.000   1.823   1.376 -0.6618  0.3655  0.9311
  114lim     li  870   2.135   1.111   5.572  0.5589  1.0059 -1.2612
  115lim     li  871   0.286   2.253   1.891  0.3469  1.1806 -1.3762
  116lim     li  872   0.868   0.543   5.795  0.9174 -0.0029 -0.5285
  117lim     li  873   1.077   0.201   1.393 -1.2021  0.1344 -0.1483
  118lim     li  874   1.341   0.239   0.240 -0.7405  0.1403  0.4320
  119lim     li  875   0.576   0.876   1.730  0.3597  1.1433  0.0450
  120lim     li  876   2.107   0.273   2.549  0.1269 -0.2399 -1.4821
  121lim     li  877   1.853   0.986   4.434 -1.1611 -0.4173 -0.7327
  122lim     li  878   0.959   0.406   2.826 -0.1306  0.4421 -0.3470
  123lim     li  879   0.521   1.926   2.585 -0.1213  0.5100  0.5231
  124lim     li  880   1.260   1.938   5.504 -1.0876  1.0850 -0.5334
  125lim     li  881   0.816   1.663   4.455 -0.8099 -1.1335  0.5603
  126lim     li  882   2.141   0.288   5.560  1.0247  0.1327  0.8003
  127lim     li  883   2.193   0.395   0.228 -0.3093  0.4501  0.4195
  128lim     li  884   0.551   1.745   1.263 -0.4261  0.4487  0.9357
  129lim     li  885   1.899   1.851   2.821  1.0499 -0.5094 -0.3902
  130lim     li  886   1.877   0.248   3.473 -0.5161  0.0246 -0.2073
  131lim     li  887   0.121   0.006   0.974 -0.5630 -0.3090 -0.5725
  132lim     li  888   0.536   2.153   5.490  0.0906 -0.1114  0.2706
  133lim     li  889   1.504   1.733   3.928  0.1176 -0.5649 -0.3226
  134lim     li  890   0.666  -0.007   4.552 -1.4499 -0.4252  0.2212
  135lim     li  891   0.958   0.835   4.818  0.4996  0.7018 -0.0412
  136lim     li  892   0.722   1.283   6.139  0.6872  0.4024 -0.1691
  137lim     li  893   0.847   1.971   6.263 -0.8929 -0.1518  0.0424
  138lim     li  894   0.410   0.882   2.921  0.5833  0.6817  0.5200
  139lim     li  895   1.359   0.890   6.074  0.2795  0.3281 -0.1083
  140lim     li  896   0.198   1.544   4.014 -0.4659  0.5525  0.7460
  141lim     li  897   1.743   0.423   4.940 -0.3826  0.7805 -0.7339
  142lim     li  898   2.113   0.013   4.216  1.4710 -0.6071 -0.3498
  143lim     li  899   0.127   1.765   3.329 -1.2380  0.3948 -0.0890
  144lim     li  900   0.540   0.840   0.741 -0.7573  1.1341 -0.0800
  145lim     li  901   0.217   0.856   4.322 -0.7004 -0.7114  0.1019
  146lim     li  902   1.644   1.312   2.177 -1.4445 -1.0445 -0.4193
  147lim     li  903   0.230   1.883   0.493  0.0923 -0.5227  0.4772
  148lim     li  904   1.657   0.530   1.146 -0.2626 -0.0891 -0.3985
  149lim     li  905   0.561   0.088   3.270  1.6252  0.5409 -0.4583
  150lim     li  906   1.115   1.066   3.883  0.1370 -1.4744  0.4795
  151lim     li  907   1.907   1.637   6.137 -1.4024 -0.5840 -0.2101
  152lim     li  908   0.129   1.255   2.165  0.8159  0.5053 -0.4178
  153lim     li  909   2.140   0.733   1.520 -0.1563  1.0565  0.2732
  154lim     li  910   1.789   1.152   3.308  0.1078 -0.0600 -0.4506
  155lim     li  911   1.218   1.494   1.603  0.7366 -0.0160 -0.2728
  156lim     li  912   1.494   1.374   0.428  0.1638 -1.2837  0.4333
  157lim     li  913   0.707   1.404   5.242 -0.4240  0.1377  0.5400
  158lim     li  914   1.389   2.174   2.106  0.7289 -0.7831 -0.3946
  159lim     li  915   1.144   1.047   2.602 -0.9778  0.0892  0.9696
  160lim     li  916   2.257   1.544   4.787 -0.2474  0.9009 -1.0082
  161lim     li  917   1.443   0.558   1.927  0.9574 -0.3997 -0.4404
  162lim     li  918   0.000   1.124   0.679 -1.0500  0.8785  0.2894
  163ntf    cn1  919   0.886   0.844   3.302  0.1666  0.0883 -0.1204
  163ntf    sn2  920   1.056   0.860   3.363  0.0497  0.2860  0.1596
  163ntf    nn3  921   1.108   0.948   3.244 -0.1375  0.1695 -0.0089
  163ntf    sn2  922   1.255   1.000   3.221 -0.0134 -0.1847 -0.0141
  163ntf    cn1  923   1.335   0.866   3.127  0.3978 -0.1055  0.2213
  163ntf    fn4  924   0.818   0.957   3.315 -0.4746 -0.3006 -0.0028
  163ntf    fn4  925   0.879   0.815   3.173  0.2929  0.2467 -0.1632
  163ntf    fn4  926   0.818   0.748   3.364 -0.3480  0.4817 -0.0607
  163ntf    on5  927   1.043   0.925   3.491 -0.0404 -0.2315  0.4145
  163ntf    on5  928   1.105   0.725   3.359 -0.6722  0.0404 -0.6585
  163ntf    on5  929   1.332   1.001   3.343 -0.7903 -0.4381  0.4871
  163ntf    on5  930   1.272   1.104   3.124  0.3696 -0.4893 -0.2777
  163ntf    fn4  931   1.262   0.854   3.018  0.4272  0.1166  0.1759
  163ntf    fn4  932   1.460   0.888   3.089  0.5725 -0.4483  0.5909
  163ntf    fn4  933   1.323   0.752   3.193  0.4247 -0.0157  0.3819
  164ntf    cn1  934   1.928   0.524   0.558 -0.2805 -0.2596 -0.0135
  164ntf    sn2  935   2.029   0.386   0.499 -0.2803 -0.2778  0.0297
  164ntf    nn3  936   2.151   0.425   0.590 -0.2631  0.2126 -0.2055
  164ntf    sn2  937   2.212   0.355   0.716 -0.0515  0.0860 -0.3772
  164ntf    cn1  938   2.304   0.488   0.800  0.4248 -0.1839 -0.4672
  164ntf    fn4  939   1.981   0.635   0.508 -0.2221 -0.3893 -0.2369
  164ntf    fn4  940   1.805   0.501   0.516 -0.3122 -0.2680  0.0835
  164ntf    fn4  941   1.920   0.529   0.690 -0.6773  0.3168 -0.0548
  164ntf    on5  942   1.953   0.266   0.525 -0.1186 -0.3104  0.3604
  164ntf    on5  943   2.054   0.417   0.361  0.5674 -0.1369  0.2106
  164ntf    on5  944   2.308   0.258   0.671 -0.1293 -0.2513  0.1710
  164ntf    on5  945   2.125   0.316   0.824  0.2755  0.1680 -0.0826
  164ntf    fn4  946   2.353   0.569   0.708  0.5126  0.3638  0.0582
  164ntf    fn4  947   2.228   0.560   0.881 -0.1527 -0.6397 -0.5968
  164ntf    fn4  948   2.393   0.448   0.890  0.0793  0.1817  0.0458
  165ntf    cn1  949   1.724   1.242   0.920  0.1767  0.1413 -0.3853
  165ntf    sn2  950   1.825   1.289   0.776  0.0856  0.3358 -0.3857
  165ntf    nn3  951   1.929   1.382   0.849  0.1676 -0.1502  0.1243
  165ntf    sn2  952   2.082   1.401   0.816  0.0986  0.3635  0.0976
  165ntf    cn1  953   2.066   1.533   0.692  0.1680 -0.0226 -0.3237
  165ntf    fn4  954   1.667   1.342   0.984 -0.2323 -0.3336 -0.0031
  165ntf    fn4  955   1.636   1.149   0.887  0.0568  0.0241  0.2491
  165ntf    fn4  956   1.799   1.182   1.011  0.3481 -0.0908 -0.6784
  165ntf    on5  957   1.866   1.157   0.735  0.1310  0.2026  0.0808
  165ntf    on5  958   1.731   1.360   0.693 -0.2452  0.1369 -0.1852
  165ntf    on5  959   2.150   1.292   0.753 -0.3496 -0.0361  0.2975
  165ntf    on5  960   2.150   1.467   0.925  0.5407 -0.0434  0.0709
  165ntf    fn4  961   2.184   1.586   0.662  0.0701  0.0883 -0.5127
  165ntf    fn4  962   2.004   1.501   0.580  0.1469  0.5393 -0.4757
  165ntf    fn4  963   1.998   1.636   0.740 -0.1528 -0.6469  0.6059
  166ntf    cn1  964   1.890   1.373   3.672 -0.3769 -0.1120  0.0894
  166ntf    sn2  965   1.747   1.396   3.562 -0.2922 -0.2620 -0.0518
  166ntf    nn3  966   1.776   1.539   3.504 -0.3586 -0.2431 -0.0381
  166ntf    sn2  967   1.710   1.613   3.383 -0.1392 -0.4610 -0.2935
  166ntf    cn1  968   1.586   1.719   3.463  0.1452 -0.1714 -0.2344
  166ntf    fn4  969   1.909   1.464   3.766  0.3052 -0.2236  0.0642
  166ntf    fn4  970   1.895   1.251   3.722  0.0917 -0.1306  0.0045
  166ntf    fn4  971   2.004   1.382   3.604 -0.2532 -0.5666  0.2347
  166ntf    on5  972   1.757   1.296   3.458  0.2513 -0.3802  0.1112
  166ntf    on5  973   1.636   1.395   3.653  0.3196  0.2423  0.7165
  166ntf    on5  974   1.631   1.525   3.301 -0.2473  0.1711 -0.8862
  166ntf    on5  975   1.792   1.710   3.313 -0.8151  0.2702 -0.0880
  166ntf    fn4  976   1.509   1.650   3.545  0.6052 -0.2227  0.1591
  166ntf    fn4  977   1.647   1.806   3.542 -0.4270 -0.0210  0.0484
  166ntf    fn4  978   1.512   1.784   3.376  0.0743 -0.8298 -0.6684
  167ntf    cn1  979   0.219   1.513   3.010 -0.2779 -0.4235  0.4076
  167ntf    sn2  980   0.191   1.693   3.008  0.2151 -0.3465  0.2519
  167ntf    nn3  981   0.045   1.709   2.955  0.3740 -0.1117 -0.1170
  167ntf    sn2  982  -0.008   1.836   2.879  0.0951  0.0743  0.3870
  167ntf    cn1  983   0.045   1.805   2.708 -0.0469 -0.2192  0.3957
  167ntf    fn4  984   0.341   1.474   3.043  0.2669  0.8650  0.0020
  167ntf    fn4  985   0.140   1.456   3.099 -0.6904  0.0273  0.3354
  167ntf    fn4  986   0.188   1.455   2.896 -0.5040 -0.0476  0.2768
  167ntf    on5  987   0.200   1.722   3.149 -0.1545 -0.0807  0.2212
  167ntf    on5  988   0.302   1.736   2.927  0.0643 -0.4323 -0.0017
  167ntf    on5  989   0.056   1.958   2.922  0.3950  0.1565 -0.2741
  167ntf    on5  990  -0.152   1.834   2.878  0.1008 -0.2824  0.1905
  167ntf    fn4  991  -0.037   1.726   2.640 -0.2227  0.2933 -0.0006
  167ntf    fn4  992   0.047   1.913   2.631 -0.6190 -0.3217  0.2315
  167ntf    fn4  993   0.166   1.753   2.706  0.1358  0.2144 -0.1025
  168ntf    cn1  994   2.218   0.816   5.079  0.2372  0.5281 -0.0271
  168ntf    sn2  995   2.099   0.834   4.942 -0.0607  0.0536  0.1655
  168ntf    nn3  996   2.084   0.991   4.945  0.5767  0.1179  0.1365
  168ntf    sn2  997   2.022   1.082   4.834  0.0757 -0.1150  0.2200
  168ntf    cn1  998   1.850   1.079   4.891  0.1162  0.0635  0.3520
  168ntf    fn4  999   2.298   0.921   5.084  0.4360  0.3715  0.1022
  168ntf    fn4 1000   2.161   0.809   5.199  0.1656  0.0013 -0.0887
  168ntf    fn4 1001   2.294   0.709   5.062 -1.2643 -0.5978  0.1081
  168ntf    on5 1002   2.178   0.790   4.830 -0.3088  0.1357 -0.0415
  168ntf    on5 1003   1.985   0.758   4.986 -0.1419  0.1565  0.1333
  168ntf    on5 1004   2.006   1.033   4.699  0.0152 -0.0179  0.1909
  168ntf    on5 1005   2.061   1.220   4.851 -0.0460 -0.0933  0.3229
  168ntf    fn4 1006   1.780   1.180   4.842  0.0840 -0.0039  0.2603
  168ntf    fn4 1007   1.792   0.965   4.858  0.4255  0.3105 -1.0825
  168ntf    fn4 1008   1.851   1.093   5.023 -0.5264  0.3578  0.3290
  169ntf    cn1 1009   1.691   1.831   5.555 -0.0785  0.2718  0.7112
  169ntf    sn2 1010   1.652   1.966   5.439  0.0019 -0.0277  0.3361
  169ntf    nn3 1011   1.727   2.081   5.515  0.3906 -0.3583  0.4568
  169ntf    sn2 1012   1.812   2.204   5.467 -0.2227 -0.1015  0.0180
  169ntf    cn1 1013   1.730   2.329   5.571 -0.1176  0.0100 -0.0346
  169ntf    fn4 1014   1.658   1.713   5.506 -0.3517  0.5332  0.2594
  169ntf    fn4 1015   1.822   1.825   5.576  0.0429  0.1956 -0.0285
  169ntf    fn4 1016   1.624   1.844   5.668  0.0644 -0.0712  0.8364
  169ntf    on5 1017   1.712   1.929   5.313 -0.3310  0.3028  0.0771
  169ntf    on5 1018   1.509   1.970   5.453 -0.0814  0.0694 -0.5043
  169ntf    on5 1019   1.785   2.246   5.332  0.6529  0.0204 -0.1213
  169ntf    on5 1020   1.951   2.206   5.506 -0.2283 -0.2076  0.0446
  169ntf    fn4 1021   1.751   2.315   5.701  0.0205 -0.4772 -0.1057
  169ntf    fn4 1022   1.781   2.447   5.539  0.0443  0.0239  0.2679
  169ntf    fn4 1023   1.600   2.334   5.551 -0.2206  0.6178  0.7724
  170ntf    cn1 1024   0.965   2.181   1.687  0.6643 -0.1326  0.2432
  170ntf    sn2 1025   1.120   2.177   1.591  0.1252  0.2038 -0.6572
  170ntf    nn3 1026   1.224   2.163   1.708 -0.4297  0.5826 -0.1146
  170ntf    sn2 1027   1.315   2.272   1.775 -0.0695  0.2508 -0.0655
  170ntf    cn1 1028   1.452   2.278   1.655 -0.0622  0.0583 -0.0668
  170ntf    fn4 1029   0.865   2.188   1.600  0.7453 -0.2824  0.1374
  170ntf    fn4 1030   0.938   2.074   1.760 -0.1583 -0.0713  0.0349
  170ntf    fn4 1031   0.963   2.293   1.757  0.8348 -0.4273  0.7250
  170ntf    on5 1032   1.108   2.065   1.501 -0.1633 -0.0592 -0.2932
  170ntf    on5 1033   1.113   2.307   1.528 -0.1839  0.4817 -0.0581
  170ntf    on5 1034   1.381   2.224   1.894  0.2027  0.1404 -0.2579
  170ntf    on5 1035   1.266   2.407   1.778  0.1622  0.3283  0.3012
  170ntf    fn4 1036   1.513   2.161   1.655 -0.3622 -0.1034  0.4071
  170ntf    fn4 1037   1.407   2.289   1.530 -0.5395  0.0832  0.1033
  170ntf    fn4 1038   1.545   2.370   1.671  0.1328 -0.1983  0.2701
  171ntf    cn1 1039   0.518   1.877   4.683  0.1460  0.0320 -0.4008
  171ntf    sn2 1040   0.691   1.922   4.648  0.1094  0.4691 -0.0365
  171ntf    nn3 1041   0.757   1.902   4.789  0.1361  0.0510 -0.1071
  171ntf    sn2 1042   0.897   1.950   4.840  0.1932 -0.0627 -0.1585
  171ntf    cn1 1043   0.842   2.089   4.942 -0.5392 -0.1774 -0.3925
  171ntf    fn4 1044   0.443   1.957   4.757  0.3180  0.3273 -0.5426
  171ntf    fn4 1045   0.451   1.861   4.571  0.7482 -0.1938 -0.7370
  171ntf    fn4 1046   0.515   1.763   4.750 -0.1444  0.4233  0.2636
  171ntf    on5 1047   0.732   1.827   4.547  0.1802 -0.3584  0.7633
  171ntf    on5 1048   0.674   2.058   4.602 -0.5318  0.4088  0.0074
  171ntf    on5 1049   0.972   2.008   4.731  0.4506  0.5316  0.3318
  171ntf    on5 1050   0.948   1.851   4.932  0.3202 -0.1771 -0.3505
  171ntf    fn4 1051   0.819   2.193   4.863 -0.2956 -0.0462 -0.2932
  171ntf    fn4 1052   0.735   2.067   5.018 -0.2571 -0.4169 -0.0625
  171ntf    fn4 1053   0.936   2.130   5.026 -0.2338 -0.8324 -0.4103
  172ntf    cn1 1054   1.514   1.289   5.029 -0.1894 -0.1614  0.2558
  172ntf    sn2 1055   1.369   1.336   5.129  0.0877  0.3063  0.4378
  172ntf    nn3 1056   1.352   1.210   5.221 -0.1288 -0.0145 -0.0412
  172ntf    sn2 1057   1.401   1.184   5.368 -0.1658 -0.0164 -0.0293
  172ntf    cn1 1058   1.309   1.033   5.409  0.2182 -0.2024  0.1547
  172ntf    fn4 1059   1.486   1.175   4.968 -0.4851  0.3496 -0.5700
  172ntf    fn4 1060   1.554   1.378   4.940  0.2402 -0.8384 -0.2392
  172ntf    fn4 1061   1.618   1.268   5.108  0.3592  0.1981 -0.3655
  172ntf    on5 1062   1.418   1.457   5.192 -0.5643  0.5645  0.4519
  172ntf    on5 1063   1.270   1.348   5.025  0.1105  0.0664  0.3885
  172ntf    on5 1064   1.351   1.284   5.459  0.7605  0.7791 -0.3771
  172ntf    on5 1065   1.539   1.144   5.377 -0.0841  0.2856  0.0747
  172ntf    fn4 1066   1.334   1.000   5.535  0.1055  0.2372  0.2938
  172ntf    fn4 1067   1.178   1.054   5.415  0.2067 -0.1440 -0.2413
  172ntf    fn4 1068   1.333   0.933   5.326  0.3984  0.2177 -0.3106
  173ntf    cn1 1069   0.888   1.758   5.661 -0.2328  0.0691 -0.3439
  173ntf    sn2 1070   0.954   1.923   5.697  0.1287 -0.2588  0.5380
  173ntf    nn3 1071   0.838   2.018   5.648  0.5164 -0.0092  0.0877
  173ntf    sn2 1072   0.773   2.135   5.730 -0.0971 -0.2454 -0.0561
  173ntf    cn1 1073   0.913   2.249   5.750  0.1954 -0.4946 -0.6582
  173ntf    fn4 1074   0.976   1.662   5.686 -0.4668  0.0109  0.2762
  173ntf    fn4 1075   0.783   1.726   5.735  0.0975  0.1737  0.1706
  173ntf    fn4 1076   0.854   1.741   5.534 -0.8175 -0.2806 -0.1465
  173ntf    on5 1077   0.990   1.937   5.836  0.5344  0.0220  0.4055
  173ntf    on5 1078   1.065   1.923   5.606 -0.4250 -0.6508 -0.1493
  173ntf    on5 1079   0.732   2.097   5.863  0.1307  0.0762  0.1043
  173ntf    on5 1080   0.673   2.196   5.646 -0.0262  0.4029  0.3288
  173ntf    fn4 1081   1.020   2.182   5.789  0.0148 -0.1385  0.4914
  173ntf    fn4 1082   0.945   2.309   5.637 -0.1505  0.0056 -0.4961
  173ntf    fn4 1083   0.881   2.346   5.834 -0.0849 -0.4740 -0.7873
  174ntf    cn1 1084   2.247   0.082   1.619 -0.1746 -0.0683 -0.2718
  174ntf    sn2 1085   2.426   0.100   1.592 -0.1027 -0.1907  0.1085
  174ntf    nn3 1086   2.437  -0.030   1.506  0.2779  0.1390 -0.3453
  174ntf    sn2 1087   2.550  -0.139   1.500  0.3465  0.1879  0.0633
  174ntf    cn1 1088   2.706  -0.053   1.465  0.3465  0.2737  0.2685
  174ntf    fn4 1089   2.179   0.051   1.510 -0.2162 -0.5116 -0.1233
  174ntf    fn4 1090   2.229  -0.028   1.691  1.0113  0.1504  0.3835
  174ntf    fn4 1091   2.188   0.183   1.681 -0.1367 -0.0008 -0.3456
  174ntf    on5 1092   2.440   0.224   1.520 -0.2465 -0.1016  0.2318
  174ntf    on5 1093   2.477   0.096   1.727  0.1566  0.8201  0.0547
  174ntf    on5 1094   2.531  -0.228   1.389  0.1861  0.3702 -0.0551
  174ntf    on5 1095   2.577  -0.208   1.624  0.3464  0.4200  0.1924
  174ntf    fn4 1096   2.736   0.017   1.573  0.8846 -0.0485  0.3337
  174ntf    fn4 1097   2.813  -0.129   1.445  0.1921  0.3482 -0.9103
  174ntf    fn4 1098   2.693   0.026   1.359 -0.7463 -0.0001  0.1953
  175ntf    cn1 1099   1.541   0.615   5.566  0.0310  0.2628 -0.2572
  175ntf    sn2 1100   1.652   0.534   5.685 -0.1511 -0.0709 -0.3138
  175ntf    nn3 1101   1.541   0.461   5.769 -0.0879 -0.3000 -0.4260
  175ntf    sn2 1102   1.546   0.404   5.916  0.0071 -0.0666 -0.3383
  175ntf    cn1 1103   1.559   0.226   5.884 -0.2685 -0.1231 -0.1354
  175ntf    fn4 1104   1.494   0.521   5.486  0.1657  0.1855 -0.2447
  175ntf    fn4 1105   1.436   0.672   5.622  0.1562 -0.5193  0.8135
  175ntf    fn4 1106   1.612   0.707   5.503  0.4306  0.2838  0.2193
  175ntf    on5 1107   1.726   0.455   5.590  0.0784  0.0231 -0.2145
  175ntf    on5 1108   1.725   0.639   5.751 -0.0465 -0.6603  0.5294
  175ntf    on5 1109   1.423   0.426   5.988 -0.1236 -1.0349 -0.2574
  175ntf    on5 1110   1.668   0.437   5.985 -0.2521  0.4922 -0.1402
  175ntf    fn4 1111   1.523   0.153   5.989 -0.3854 -0.1319 -0.1810
  175ntf    fn4 1112   1.481   0.184   5.786 -0.1730  0.2360 -0.3635
  175ntf    fn4 1113   1.683   0.188   5.856 -0.0717  0.1932  0.2942
  176ntf    cn1 1114   1.071   1.167   0.547 -0.3931 -0.0071 -0.2898
  176ntf    sn2 1115   0.994   1.315   0.474 -0.2705  0.2489  0.0973
  176ntf    nn3 1116   0.907   1.377   0.589 -0.1541 -0.4736  0.5849
  176ntf    sn2 1117   0.943   1.482   0.699  0.2117 -0.0647  0.0800
  176ntf    cn1 1118   0.915   1.380   0.847  0.0661 -0.1169  0.0167
  176ntf    fn4 1119   0.987   1.079   0.599  0.2684 -0.5430 -0.1179
  176ntf    fn4 1120   1.141   1.109   0.451 -0.0920  0.1324 -0.1547
  176ntf    fn4 1121   1.150   1.187   0.651 -0.2877 -0.2833 -0.3148
  176ntf    on5 1122   1.105   1.398   0.434 -0.3455  0.2084 -0.1979
  176ntf    on5 1123   0.913   1.251   0.374  0.0628 -0.0451  0.0109
  176ntf    on5 1124   0.845   1.587   0.708 -0.2114 -0.3709 -0.8164
  176ntf    on5 1125   1.082   1.513   0.723  0.1844 -0.3249  0.5908
  176ntf    fn4 1126   0.797   1.321   0.842  0.0124 -0.0357  0.2782
  176ntf    fn4 1127   1.005   1.286   0.869  0.0425 -0.1648 -0.0916
  176ntf    fn4 1128   0.908   1.454   0.957 -0.2518 -0.2927  0.1160
  177ntf    cn1 1129   0.910   0.678   2.069  0.0548  0.2234 -0.4027
  177ntf    sn2 1130   0.978   0.619   1.912  0.0403 -0.1008 -0.2885
  177ntf    nn3 1131   1.130   0.657   1.930  0.1434 -0.4810 -0.3519
  177ntf    sn2 1132   1.212   0.766   1.853 -0.1517 -0.0921 -0.1173
  177ntf    cn1 1133   1.160   0.919   1.937 -0.1757  0.1407 -0.5521
  177ntf    fn4 1134   0.782   0.650   2.092 -0.0301  0.2375 -0.8642
  177ntf    fn4 1135   0.985   0.637   2.170 -0.6178  0.5838  0.2571
  177ntf    fn4 1136   0.922   0.808   2.090  0.1760  0.1867 -0.2436
  177ntf    on5 1137   0.968   0.476   1.927  0.0953 -0.0830 -0.0803
  177ntf    on5 1138   0.908   0.686   1.805  0.2971  0.1344 -0.3127
  177ntf    on5 1139   1.179   0.797   1.717  0.0356 -0.5187 -0.2618
  177ntf    on5 1140   1.352   0.748   1.883 -0.1920 -0.1805  0.0216
  177ntf    fn4 1141   1.230   1.023   1.897  0.6683 -0.2154 -0.0268
  177ntf    fn4 1142   1.034   0.950   1.910 -0.2687  0.0820 -0.1951
  177ntf    fn4 1143   1.169   0.908   2.069 -0.4503  0.6012 -0.4950
  178ntf    cn1 1144   1.348   1.470   4.291 -0.1285  0.0440 -0.0408
  178ntf    sn2 1145   1.484   1.523   4.400 -0.0450 -0.0882 -0.0799
  178ntf    nn3 1146   1.468   1.679   4.405  0.2647 -0.0578 -0.0359
  178ntf    sn2 1147   1.489   1.782   4.288 -0.0670  0.1976  0.1289
  178ntf    cn1 1148   1.659   1.843   4.308  0.0042  0.0200  0.0679
  178ntf    fn4 1149   1.359   1.525   4.172 -0.1466 -0.1205 -0.1196
  178ntf    fn4 1150   1.348   1.339   4.271 -0.6750  0.0097  0.1739
  178ntf    fn4 1151   1.228   1.498   4.338  0.0331 -0.3771  0.6438
  178ntf    on5 1152   1.461   1.460   4.527 -0.2923  0.2124  0.0264
  178ntf    on5 1153   1.597   1.478   4.322  0.3626 -0.0105  0.4623
  178ntf    on5 1154   1.406   1.898   4.311  0.1109  0.3362  0.0750
  178ntf    on5 1155   1.492   1.733   4.152  0.1272  0.8025 -0.0899
  178ntf    fn4 1156   1.654   1.942   4.395 -0.0579  0.2872 -0.2393
  178ntf    fn4 1157   1.740   1.750   4.357 -0.0163 -0.0132  0.0392
  178ntf    fn4 1158   1.716   1.883   4.196 -0.0673  0.1658  0.0837
  179ntf    cn1 1159   0.186   0.489   2.104  0.0115 -0.0523 -0.0890
  179ntf    sn2 1160   0.232   0.543   2.271  0.5104 -0.1808 -0.1834
  179ntf    nn3 1161   0.206   0.409   2.350  0.1767  0.1512  0.2761
  179ntf    sn2 1162   0.185   0.378   2.502 -0.0351  0.4009  0.2982
  179ntf    cn1 1163   0.283   0.228   2.532  0.0259  0.3815  0.0060
  179ntf    fn4 1164   0.254   0.382   2.068  0.3995  0.3548 -0.5779
  179ntf    fn4 1165   0.057   0.460   2.107 -0.0141  0.0330 -0.3232
  179ntf    fn4 1166   0.205   0.583   2.013 -0.0768  0.0971  0.0475
  179ntf    on5 1167   0.373   0.561   2.250  0.4976 -0.3433 -0.4118
  179ntf    on5 1168   0.149   0.659   2.291 -0.0716 -0.6081 -0.0895
  179ntf    on5 1169   0.050   0.339   2.538 -0.0006 -0.1860 -0.1856
  179ntf    on5 1170   0.253   0.470   2.590  0.0485  0.0992  0.5490
  179ntf    fn4 1171   0.294   0.188   2.658 -0.0822 -0.5511 -0.2764
  179ntf    fn4 1172   0.224   0.129   2.467 -0.0211  0.3990  0.0216
  179ntf    fn4 1173   0.405   0.236   2.482 -0.0491 -0.0203 -0.2484
  180ntf    cn1 1174   0.067   0.253   3.410 -0.3164  0.4386 -0.1301
  180ntf    sn2 1175   0.106   0.363   3.270 -0.0816  0.1329 -0.3064
  180ntf    nn3 1176  -0.015   0.341   3.172 -0.4656  0.1494  0.1628
  180ntf    sn2 1177  -0.014   0.238   3.054  0.0336  0.1926  0.1263
  180ntf    cn1 1178   0.098   0.311   2.931 -0.0151  0.1148  0.0359
  180ntf    fn4 1179  -0.053   0.261   3.464 -0.1730 -0.5143  0.3573
  180ntf    fn4 1180   0.080   0.125   3.380 -0.2805  0.2172  0.8211
  180ntf    fn4 1181   0.150   0.270   3.512 -0.5609 -0.0019  0.1445
  180ntf    on5 1182   0.089   0.500   3.313  0.3161 -0.1059  0.6425
  180ntf    on5 1183   0.243   0.333   3.235 -0.1571 -0.3732 -0.1837
  180ntf    on5 1184  -0.138   0.241   2.981  0.3217  0.2228 -0.3654
  180ntf    on5 1185   0.047   0.111   3.088 -0.0755  0.0222 -0.3183
  180ntf    fn4 1186   0.099   0.267   2.807  0.0381 -0.0533  0.0964
  180ntf    fn4 1187   0.077   0.442   2.919  0.4442  0.1952  0.0925
  180ntf    fn4 1188   0.224   0.292   2.965 -0.0182  0.3114  0.1654
  181ntf    cn1 1189   1.421   2.042   2.685  0.1330 -0.1632  0.1146
  181ntf    sn2 1190   1.548   2.109   2.573 -0.1112 -0.0034 -0.0682
  181ntf    nn3 1191   1.614   2.224   2.657  0.1929 -0.2942  0.0951
  181ntf    sn2 1192   1.649   2.373   2.622  0.1220 -0.2486  0.2190
  181ntf    cn1 1193   1.497   2.464   2.662  0.2826  0.2641 -0.3149
  181ntf    fn4 1194   1.352   1.941   2.636  0.2248 -0.4200  0.5085
  181ntf    fn4 1195   1.471   1.993   2.797  0.5492  0.1088  0.0517
  181ntf    fn4 1196   1.339   2.141   2.716  0.5700  0.2350  0.0273
  181ntf    on5 1197   1.654   2.013   2.555 -0.1121 -0.1714  0.8003
  181ntf    on5 1198   1.468   2.142   2.458 -0.1012 -0.7035 -0.2796
  181ntf    on5 1199   1.679   2.414   2.487 -0.2714  0.2120  0.2671
  181ntf    on5 1200   1.744   2.424   2.718  0.4159  0.0284 -0.2123
  181ntf    fn4 1201   1.409   2.447   2.565  0.1964  0.1844 -0.2242
  181ntf    fn4 1202   1.441   2.418   2.773 -0.0481 -0.1879 -0.6667
  181ntf    fn4 1203   1.513   2.593   2.687  0.3517  0.2560 -0.3181
  182ntf    cn1 1204   1.091   1.515   2.127 -0.0217 -0.1021 -0.1502
  182ntf    sn2 1205   1.272   1.506   2.113 -0.0251 -0.0486 -0.2275
  182ntf    nn3 1206   1.323   1.589   2.236  0.0842  0.3457 -0.5374
  182ntf    sn2 1207   1.475   1.616   2.266  0.0756 -0.2485  0.0527
  182ntf    cn1 1208   1.474   1.599   2.447  0.3778 -0.0306  0.0749
  182ntf    fn4 1209   1.043   1.638   2.117  0.4612  0.1150  0.1767
  182ntf    fn4 1210   1.032   1.441   2.035  0.3095 -0.0131 -0.4346
  182ntf    fn4 1211   1.041   1.458   2.236  0.1605  0.0585  0.0194
  182ntf    on5 1212   1.300   1.365   2.121  0.9543  0.1231 -0.4458
  182ntf    on5 1213   1.294   1.571   1.986  0.3355  0.3540  0.0412
  182ntf    on5 1214   1.519   1.753   2.266  0.2477 -0.3048 -0.0707
  182ntf    on5 1215   1.565   1.510   2.230 -0.6691 -0.8139 -0.1818
  182ntf    fn4 1216   1.407   1.693   2.511  0.6975  0.0495  0.2963
  182ntf    fn4 1217   1.419   1.482   2.475 -0.4725  0.2571 -0.3706
  182ntf    fn4 1218   1.596   1.605   2.498  0.3316  0.6082  0.1106
  183ntf    cn1 1219   0.110   0.870   3.535 -0.0270  0.1395  0.2012
  183ntf    sn2 1220   0.159   1.044   3.551  0.3139  0.0627  0.0034
  183ntf    nn3 1221   0.301   1.032   3.615  0.2801  0.3887  0.1405
  183ntf    sn2 1222   0.443   1.055   3.552  0.3152 -0.1089  0.0409
  183ntf    cn1 1223   0.548   1.046   3.700  0.0387 -0.6416  0.2079
  183ntf    fn4 1224   0.182   0.809   3.442 -0.0388 -0.2394  0.4364
  183ntf    fn4 1225   0.124   0.802   3.648  0.3210  0.1195  0.1477
  183ntf    fn4 1226  -0.013   0.857   3.490  0.1069 -0.2974 -0.0461
  183ntf    on5 1227   0.167   1.085   3.413 -0.1438  0.2440  0.0299
  183ntf    on5 1228   0.059   1.098   3.640 -0.2505 -0.3107 -0.3959
  183ntf    on5 1229   0.476   1.188   3.507  0.5182 -0.0802  0.2667
  183ntf    on5 1230   0.498   0.950   3.469  0.4517  0.2466 -0.3204
  183ntf    fn4 1231   0.677   1.075   3.690 -0.0030 -0.4775  0.1473
  183ntf    fn4 1232   0.505   1.127   3.796 -0.1755  0.0256 -0.4462
  183ntf    fn4 1233   0.544   0.930   3.763  0.3151 -0.4752  0.5404
  184ntf    cn1 1234   0.445   0.415   4.457 -0.1565 -0.2491  0.0121
  184ntf    sn2 1235   0.399   0.350   4.294  0.0409  0.0575 -0.1671
  184ntf    nn3 1236   0.484   0.461   4.223 -0.2407  0.2360 -0.2291
  184ntf    sn2 1237   0.623   0.458   4.150 -0.2398  0.1659 -0.2245
  184ntf    cn1 1238   0.568   0.425   3.979 -0.3025 -0.2030 -0.1343
  184ntf    fn4 1239   0.576   0.399   4.468 -0.1045  0.2175  0.1026
  184ntf    fn4 1240   0.421   0.545   4.461 -0.1015 -0.2331 -0.1839
  184ntf    fn4 1241   0.390   0.360   4.565 -1.1225  0.7453  0.0378
  184ntf    on5 1242   0.465   0.222   4.295 -0.0443  0.0138  0.2238
  184ntf    on5 1243   0.255   0.360   4.284 -0.0122 -0.1690  0.3498
  184ntf    on5 1244   0.710   0.345   4.175 -0.3888  0.0730 -0.1230
  184ntf    on5 1245   0.681   0.590   4.151  0.9017 -0.3262  0.0789
  184ntf    fn4 1246   0.666   0.431   3.891 -0.3280 -0.1560 -0.1593
  184ntf    fn4 1247   0.518   0.303   3.979 -0.0804 -0.2939 -0.4339
  184ntf    fn4 1248   0.475   0.505   3.931 -0.2428 -0.1664 -0.1883
  185ntf    cn1 1249   1.835   0.181   1.582 -0.4252 -0.5112  0.2081
  185ntf    sn2 1250   1.750   0.340   1.558  0.5458 -0.0910 -0.5389
  185ntf    nn3 1251   1.871   0.432   1.519  0.8072 -0.2355 -0.0796
  185ntf    sn2 1252   1.904   0.517   1.391  0.0219  0.0440 -0.1028
  185ntf    cn1 1253   2.022   0.409   1.304  0.1652  0.0091  0.1348
  185ntf    fn4 1254   1.742   0.092   1.612 -0.1836 -0.7547  0.2418
  185ntf    fn4 1255   1.910   0.126   1.488 -0.5735  0.0810 -0.2627
  185ntf    fn4 1256   1.912   0.183   1.690  0.1745 -0.0286 -0.2168
  185ntf    on5 1257   1.651   0.312   1.456 -0.7013  0.2588  0.5431
  185ntf    on5 1258   1.692   0.364   1.688  0.8745 -0.2274 -0.3651
  185ntf    on5 1259   1.987   0.623   1.440  0.1901  0.1470 -0.6072
  185ntf    on5 1260   1.803   0.547   1.292  0.1070  0.2622 -0.1224
  185ntf    fn4 1261   2.023   0.291   1.364  0.4116 -0.3616 -0.5816
  185ntf    fn4 1262   1.990   0.386   1.178  0.3976  0.6903 -0.0503
  185ntf    fn4 1263   2.144   0.460   1.309  0.1302  0.1118 -0.0444
  186ntf    cn1 1264   0.412   0.908   5.855 -0.0596  0.0948 -0.1333
  186ntf    sn2 1265   0.538   0.952   5.732  0.2800  0.1261  0.2228
  186ntf    nn3 1266   0.571   0.808   5.678  0.1238  0.1483  0.0677
  186ntf    sn2 1267   0.483   0.719   5.583 -0.1190  0.0780  0.3572
  186ntf    cn1 1268   0.563   0.767   5.427 -0.4346 -0.2099  0.1061
  186ntf    fn4 1269   0.469   0.829   5.944 -0.1390  0.2963  0.0985
  186ntf    fn4 1270   0.368   1.015   5.920  0.3865  0.2548 -0.0918
  186ntf    fn4 1271   0.306   0.843   5.810 -0.0527  0.0297 -0.0550
  186ntf    on5 1272   0.476   1.041   5.637 -0.1056 -0.2670  0.1063
  186ntf    on5 1273   0.649   1.006   5.806 -0.2076  0.3511  0.7962
  186ntf    on5 1274   0.348   0.766   5.560 -0.1818 -0.4843 -0.4505
  186ntf    on5 1275   0.505   0.577   5.591 -0.0625  0.0555 -0.1737
  186ntf    fn4 1276   0.693   0.752   5.443 -0.3115  0.2049 -0.4616
  186ntf    fn4 1277   0.524   0.689   5.327 -0.4656 -0.2769  0.1703
  186ntf    fn4 1278   0.551   0.894   5.392 -0.0931 -0.1691  0.1341
  187ntf    cn1 1279   0.465   1.054   5.133 -0.2751 -0.3819  0.4695
  187ntf    sn2 1280   0.559   1.179   5.041 -0.2259 -0.3414  0.5737
  187ntf    nn3 1281   0.634   1.096   4.930 -0.2718  1.2786 -0.7032
  187ntf    sn2 1282   0.771   1.117   4.858  0.2305  0.0650 -0.1322
  187ntf    cn1 1283   0.706   1.117   4.688  0.1516 -0.2556 -0.1018
  187ntf    fn4 1284   0.495   1.060   5.262  0.1030 -0.2525  0.3780
  187ntf    fn4 1285   0.335   1.078   5.128 -0.1423  0.1600 -0.4968
  187ntf    fn4 1286   0.479   0.929   5.093 -0.0865 -0.4404  0.7137
  187ntf    on5 1287   0.456   1.263   4.985  0.1147 -0.3143 -0.0176
  187ntf    on5 1288   0.655   1.237   5.132 -0.0339 -0.1310  0.2398
  187ntf    on5 1289   0.856   1.001   4.864  0.0165 -0.1024 -0.3131
  187ntf    on5 1290   0.830   1.248   4.874  0.2841  0.0619 -0.3017
  187ntf    fn4 1291   0.619   1.215   4.666 -0.3791 -0.7404 -0.1969
  187ntf    fn4 1292   0.808   1.135   4.606  0.1313  0.0675 -0.0591
  187ntf    fn4 1293   0.636   1.008   4.659 -0.1357 -0.0460 -0.2034
  188ntf    cn1 1294   1.177   0.388   5.399  0.2227 -0.0598  0.4367
  188ntf    sn2 1295   1.015   0.370   5.319  0.0653  0.0505  0.7324
  188ntf    nn3 1296   1.065   0.393   5.172 -0.5564  0.4588  0.5786
  188ntf    sn2 1297   1.005   0.351   5.033  0.3729  0.0325  0.2971
  188ntf    cn1 1298   1.101   0.204   4.988  0.2249  0.0813 -0.1809
  188ntf    fn4 1299   1.170   0.399   5.530  0.3720  0.3101  0.4149
  188ntf    fn4 1300   1.270   0.301   5.364 -0.0139 -0.0425 -0.2658
  188ntf    fn4 1301   1.230   0.507   5.374  0.3283 -0.1438  0.2569
  188ntf    on5 1302   0.979   0.234   5.349 -0.1834 -0.0923 -0.1840
  188ntf    on5 1303   0.948   0.481   5.383 -0.5906  0.1676 -0.1350
  188ntf    on5 1304   1.046   0.435   4.923 -0.3352 -0.0585 -0.0410
  188ntf    on5 1305   0.866   0.313   5.042  0.2237  0.5876  0.3676
  188ntf    fn4 1306   1.225   0.224   4.946  0.1190  0.2644 -0.4044
  188ntf    fn4 1307   1.116   0.128   5.095 -0.4415 -0.0792 -0.2000
  188ntf    fn4 1308   1.037   0.132   4.897 -0.0232  0.0900 -0.0143
  189ntf    cn1 1309   0.823   1.400   3.812 -0.4671 -0.2459 -0.4504
  189ntf    sn2 1310   0.893   1.300   3.947 -0.1498  0.4196 -0.1171
  189ntf    nn3 1311   0.771   1.227   4.012 -0.4029  0.3322 -0.6790
  189ntf    sn2 1312   0.678   1.288   4.123 -0.0539  0.1970 -0.3087
  189ntf    cn1 1313   0.728   1.207   4.278  0.1044 -0.1005 -0.5148
  189ntf    fn4 1314   0.748   1.500   3.855 -0.4747 -0.0212 -0.9698
  189ntf    fn4 1315   0.916   1.463   3.741 -0.2185  0.4034  0.4326
  189ntf    fn4 1316   0.756   1.336   3.718  0.1434 -0.6193 -0.6400
  189ntf    on5 1317   0.973   1.211   3.866 -0.0058  0.4512 -0.0099
  189ntf    on5 1318   0.977   1.385   4.028  0.2741  0.1009 -0.2199
  189ntf    on5 1319   0.539   1.251   4.113  0.1244 -0.5119 -0.2364
  189ntf    on5 1320   0.693   1.431   4.138 -0.9139  0.2883 -0.2867
  189ntf    fn4 1321   0.850   1.248   4.305 -0.0045 -0.1735  0.1021
  189ntf    fn4 1322   0.648   1.237   4.380  0.2984  0.2119 -0.4531
  189ntf    fn4 1323   0.733   1.076   4.258 -0.0903 -0.0128 -1.1723
  190ntf    cn1 1324   1.859   0.862   2.221 -0.4264  0.1072  0.0702
  190ntf    sn2 1325   1.756   0.750   2.122  0.0665 -0.2778 -0.0142
  190ntf    nn3 1326   1.631   0.761   2.217  0.1125 -0.2049  0.0375
  190ntf    sn2 1327   1.509   0.663   2.227  0.0128 -0.0883 -0.0255
  190ntf    cn1 1328   1.582   0.558   2.357 -0.3804 -0.4921 -0.1282
  190ntf    fn4 1329   1.966   0.902   2.154 -0.4669 -0.8768 -0.6067
  190ntf    fn4 1330   1.795   0.977   2.237 -0.0837  0.2864  0.1853
  190ntf    fn4 1331   1.901   0.811   2.336  0.1176 -0.1747 -0.2453
  190ntf    on5 1332   1.741   0.814   1.994 -0.1304  0.0664  0.1773
  190ntf    on5 1333   1.829   0.626   2.122  0.4032 -0.0834 -0.5883
  190ntf    on5 1334   1.477   0.576   2.117 -0.0617 -0.5520  0.3569
  190ntf    on5 1335   1.397   0.727   2.291  0.1004 -0.2180  0.2607
  190ntf    fn4 1336   1.687   0.489   2.316  0.1174  0.2516 -0.1239
  190ntf    fn4 1337   1.630   0.606   2.470 -0.0171  0.0262 -0.4968
  190ntf    fn4 1338   1.487   0.471   2.387 -0.2352 -0.5917  0.0433
  191ntf    cn1 1339   1.351   1.591   6.123  0.1192  0.4804 -0.0011
  191ntf    sn2 1340   1.357   1.430   6.038  0.1096  0.3618  0.2221
  191ntf    nn3 1341   1.504   1.407   5.988  0.0901 -0.3721  0.4952
  191ntf    sn2 1342   1.638   1.391   6.068  0.4054  0.4730  0.1460
  191ntf    cn1 1343   1.718   1.257   5.975  0.1417  0.4075  0.0129
  191ntf    fn4 1344   1.449   1.595   6.213  0.5105 -0.4181 -0.3800
  191ntf    fn4 1345   1.371   1.692   6.040  0.7616  0.2866 -0.0918
  191ntf    fn4 1346   1.233   1.610   6.180 -0.0187  0.0134 -0.1300
  191ntf    on5 1347   1.308   1.334   6.134  0.2570 -0.5598 -0.6097
  191ntf    on5 1348   1.266   1.448   5.928 -0.0127 -0.0905  0.2472
  191ntf    on5 1349   1.626   1.339   6.202 -0.1156  0.0217 -0.0699
  191ntf    on5 1350   1.727   1.503   6.051  0.3944  0.4138 -0.3146
  191ntf    fn4 1351   1.843   1.243   6.014 -0.0171  0.0607  0.4035
  191ntf    fn4 1352   1.656   1.141   5.994  0.6026  0.2253  0.4203
  191ntf    fn4 1353   1.718   1.278   5.844  0.1538 -0.2691 -0.1004
  192ntf    cn1 1354   2.097   1.356   1.534  0.2355  0.3220 -0.0329
  192ntf    sn2 1355   1.935   1.345   1.616  0.1505 -0.0938 -0.2542
  192ntf    nn3 1356   1.853   1.267   1.507 -0.0137 -0.6318  0.2505
  192ntf    sn2 1357   1.696   1.258   1.505 -0.0595  0.1513 -0.1296
  192ntf    cn1 1358   1.663   1.293   1.330 -0.4046  0.6201  0.0273
  192ntf    fn4 1359   2.187   1.427   1.600 -0.0851  0.6745  0.0320
  192ntf    fn4 1360   2.149   1.235   1.521 -0.7436 -0.1312  0.1567
  192ntf    fn4 1361   2.095   1.410   1.413  0.2770  0.1916 -0.0913
  192ntf    on5 1362   1.966   1.275   1.737  0.6291  0.4136 -0.0784
  192ntf    on5 1363   1.893   1.482   1.632 -0.6846 -0.3268 -0.3674
  192ntf    on5 1364   1.625   1.363   1.574 -0.1291 -0.7170  1.1623
  192ntf    on5 1365   1.655   1.121   1.524 -0.4438  0.2642 -0.1417
  192ntf    fn4 1366   1.537   1.289   1.290 -0.3650  0.3618 -0.0756
  192ntf    fn4 1367   1.706   1.414   1.297  0.2294  0.4882  0.3540
  192ntf    fn4 1368   1.727   1.212   1.246 -0.6428  0.1937  0.2553
  193ntf    cn1 1369   1.314   2.081   0.416  0.0480  0.1121  0.5375
  193ntf    sn2 1370   1.271   2.156   0.256 -0.0247 -0.1436  0.4356
  193ntf    nn3 1371   1.377   2.092   0.159 -0.3702  0.1366 -0.1319
  193ntf    sn2 1372   1.361   2.002   0.032 -0.1534 -0.1115  0.0152
  193ntf    cn1 1373   1.483   2.081  -0.077  0.1315 -0.2952  0.1996
  193ntf    fn4 1374   1.240   2.126   0.516 -0.0973 -0.4055  0.6708
  193ntf    fn4 1375   1.302   1.949   0.415 -0.3062  0.1451  0.0832
  193ntf    fn4 1376   1.443   2.104   0.430  0.2142 -0.5015  0.0506
  193ntf    on5 1377   1.136   2.110   0.239  0.0302  0.0945 -0.6929
  193ntf    on5 1378   1.287   2.297   0.283  0.0288 -0.0334 -0.1536
  193ntf    on5 1379   1.238   2.027  -0.039 -0.3173  0.0946  0.3713
  193ntf    on5 1380   1.415   1.869   0.042  0.0404 -0.1009 -0.8663
  193ntf    fn4 1381   1.477   2.034  -0.200 -0.5706 -0.6036  0.3454
  193ntf    fn4 1382   1.460   2.210  -0.098  0.2274 -0.3127 -0.0071
  193ntf    fn4 1383   1.608   2.065  -0.038  0.2388 -0.3037 -0.1507
  194ntf    cn1 1384   0.736   0.795   2.678 -0.3688 -0.0421 -0.0106
  194ntf    sn2 1385   0.736   0.866   2.845  0.2055  0.1083 -0.0736
  194ntf    nn3 1386   0.747   1.019   2.812  0.2711  0.2750  0.6914
  194ntf    sn2 1387   0.880   1.102   2.794  0.2806  0.0978 -0.1202
  194ntf    cn1 1388   0.808   1.250   2.716  0.0408 -0.0014 -0.0894
  194ntf    fn4 1389   0.825   0.700   2.657  0.4511  0.7348 -0.0951
  194ntf    fn4 1390   0.617   0.756   2.635 -0.4040  0.2375 -0.1693
  194ntf    fn4 1391   0.767   0.890   2.592  0.4445 -0.0233  0.2910
  194ntf    on5 1392   0.599   0.838   2.882  0.1752  0.0225 -0.2520
  194ntf    on5 1393   0.848   0.804   2.912  0.1166  0.1565  0.1219
  194ntf    on5 1394   0.966   1.054   2.690 -0.2277  0.7473 -0.8481
  194ntf    on5 1395   0.930   1.143   2.923 -0.4194  0.3327  0.0823
  194ntf    fn4 1396   0.749   1.217   2.603 -0.5190  0.4472  0.0702
  194ntf    fn4 1397   0.723   1.315   2.794 -0.0774  0.6161 -0.7336
  194ntf    fn4 1398   0.907   1.334   2.692 -0.3401  0.4336 -0.1357
  195ntf    cn1 1399   0.175   0.020   3.766  0.1564  0.0380 -0.0522
  195ntf    sn2 1400   0.203  -0.159   3.777  0.0644  0.0254 -0.0267
  195ntf    nn3 1401   0.052  -0.188   3.808 -0.0069  0.2588 -0.1594
  195ntf    sn2 1402  -0.044  -0.309   3.781 -0.1217  0.2367  0.3437
  195ntf    cn1 1403  -0.052  -0.374   3.951  0.1317  0.1979  0.3422
  195ntf    fn4 1404   0.261   0.070   3.678 -0.3859  0.2565 -0.4610
  195ntf    fn4 1405   0.055   0.044   3.717  0.5513  0.8283 -0.6720
  195ntf    fn4 1406   0.196   0.099   3.870  0.1359 -0.1894  0.1265
  195ntf    on5 1407   0.246  -0.197   3.645  0.0323  0.3042 -0.1163
  195ntf    on5 1408   0.294  -0.176   3.888  0.4211  0.0692 -0.3122
  195ntf    on5 1409   0.011  -0.407   3.691 -0.1862  1.1490 -0.7000
  195ntf    on5 1410  -0.182  -0.275   3.757 -0.1850  0.0264  0.4025
  195ntf    fn4 1411  -0.113  -0.290   4.034 -0.3625  0.0658  0.1164
  195ntf    fn4 1412  -0.105  -0.496   3.956 -0.2240  0.3082 -0.5447
  195ntf    fn4 1413   0.070  -0.395   3.996  0.2510 -0.0808 -0.1083
  196ntf    cn1 1414   1.733   0.861   0.463  0.0144  0.1627  0.1151
  196ntf    sn2 1415   1.677   0.840   0.292 -0.2397  0.5030  0.1561
  196ntf    nn3 1416   1.789   0.903   0.202 -0.0588  0.0227  0.0423
  196ntf    sn2 1417   1.773   1.034   0.117  0.5969  0.1497  0.1080
  196ntf    cn1 1418   1.911   1.001   0.004  0.4649 -0.1298  0.0273
  196ntf    fn4 1419   1.860   0.829   0.483 -0.0353 -0.0214  0.1404
  196ntf    fn4 1420   1.723   0.986   0.506 -0.1637  0.1519  0.1060
  196ntf    fn4 1421   1.670   0.782   0.549  0.5102 -0.1312  0.2157
  196ntf    on5 1422   1.684   0.697   0.271 -0.0530  0.5129  0.1509
  196ntf    on5 1423   1.544   0.897   0.290 -0.2562  0.4647  0.1431
  196ntf    on5 1424   1.816   1.148   0.194 -0.2010  0.4076  0.1833
  196ntf    on5 1425   1.656   1.037   0.032  0.4425 -0.6882  0.2762
  196ntf    fn4 1426   1.882   0.900  -0.076 -0.1987  0.5818 -0.6522
  196ntf    fn4 1427   1.944   1.100  -0.078 -0.5842  0.1468 -0.0710
  196ntf    fn4 1428   2.018   0.966   0.073  0.1498  0.2360  0.7115
  197ntf    cn1 1429   0.208   2.027   5.256  0.2139 -0.3422  0.0460
  197ntf    sn2 1430   0.245   2.198   5.304 -0.2316 -0.1571 -0.2638
  197ntf    nn3 1431   0.255   2.279   5.170  0.1978 -0.0427 -0.1653
  197ntf    sn2 1432   0.136   2.332   5.082 -0.1354 -0.0647  0.2711
  197ntf    cn1 1433   0.197   2.502   5.070  0.0212 -0.1534 -0.2010
  197ntf    fn4 1434   0.204   1.945   5.359  0.6274  0.0520  0.3791
  197ntf    fn4 1435   0.096   2.023   5.186 -0.3302  0.1852  0.8730
  197ntf    fn4 1436   0.307   1.980   5.181  0.4286  0.3859 -0.1355
  197ntf    on5 1437   0.134   2.239   5.387 -0.2204 -0.2051 -0.2256
  197ntf    on5 1438   0.374   2.180   5.366  0.0361 -0.0857 -0.7969
  197ntf    on5 1439   0.013   2.365   5.150 -0.1719 -0.1852  0.2654
  197ntf    on5 1440   0.139   2.283   4.947  0.1392  0.0812  0.2246
  197ntf    fn4 1441   0.321   2.511   5.026 -0.0681  0.2535 -0.3749
  197ntf    fn4 1442   0.115   2.569   4.990  0.5970 -0.3903 -0.9961
  197ntf    fn4 1443   0.192   2.560   5.189  0.2034  0.2268 -0.3755
  198ntf    cn1 1444   0.101   2.088   6.087  0.2168  0.1839  0.3135
  198ntf    sn2 1445   0.066   2.134   6.259  0.0287  0.1633  0.2803
  198ntf    nn3 1446  -0.062   2.047   6.287  0.0315  0.1291  0.1865
  198ntf    sn2 1447  -0.065   1.896   6.332  0.1779 -0.0109 -0.2716
  198ntf    cn1 1448  -0.184   1.913   6.469  0.2186 -0.0942 -0.2261
  198ntf    fn4 1449  -0.003   2.109   6.009  0.3689  0.3310  0.1491
  198ntf    fn4 1450   0.201   2.150   6.027  0.3656 -0.2159  0.1431
  198ntf    fn4 1451   0.120   1.958   6.072  0.2811  0.2300 -0.0120
  198ntf    on5 1452   0.186   2.106   6.333  0.4347  0.2701 -0.3333
  198ntf    on5 1453   0.010   2.268   6.263 -0.7479 -0.1405 -0.1266
  198ntf    on5 1454   0.047   1.830   6.393 -0.2471 -0.7031 -0.2312
  198ntf    on5 1455  -0.151   1.826   6.240 -0.6961  0.2052  0.3669
  198ntf    fn4 1456  -0.290   1.976   6.422  0.1695  0.2789  0.3719
  198ntf    fn4 1457  -0.217   1.797   6.523  0.3795  0.1728  0.4464
  198ntf    fn4 1458  -0.144   1.991   6.568 -0.1327 -0.1710 -0.0237
  199ntf    cn1 1459   1.348   0.266   4.499  0.1480  0.2772 -0.6420
  199ntf    sn2 1460   1.276   0.383   4.618  0.0292 -0.3090 -0.1354
  199ntf    nn3 1461   1.235   0.495   4.516  0.7700  0.1274  0.0362
  199ntf    sn2 1462   1.299   0.567   4.392 -0.0728  0.1913 -0.3723
  199ntf    cn1 1463   1.268   0.742   4.432 -0.2632  0.1877 -0.5027
  199ntf    fn4 1464   1.275   0.253   4.389 -0.3048  0.2104 -0.3355
  199ntf    fn4 1465   1.469   0.295   4.453  0.4027  0.8480  0.3648
  199ntf    fn4 1466   1.362   0.150   4.559 -0.2323  0.4634 -0.1932
  199ntf    on5 1467   1.170   0.300   4.670  0.0117 -0.0519  0.2408
  199ntf    on5 1468   1.383   0.423   4.706 -0.3554  0.6567 -0.0962
  199ntf    on5 1469   1.225   0.544   4.271 -0.0074  0.4382 -0.4599
  199ntf    on5 1470   1.442   0.551   4.394 -0.1070 -0.1036 -0.1084
  199ntf    fn4 1471   1.139   0.770   4.440 -0.2905 -0.0182 -0.2240
  199ntf    fn4 1472   1.317   0.779   4.549  0.2449 -0.8689 -0.3693
  199ntf    fn4 1473   1.322   0.818   4.337 -0.1093  0.7652  0.0389
  200ntf    cn1 1474   1.772   0.812   2.906  0.3404 -0.1621  0.4943
  200ntf    sn2 1475   1.753   0.992   2.887 -0.2767 -0.2275  0.4676
  200ntf    nn3 1476   1.903   1.035   2.865 -0.4682  0.4063  0.3878
  200ntf    sn2 1477   1.974   1.068   2.729 -0.2685  0.0255  0.3982
  200ntf    cn1 1478   2.141   1.087   2.798 -0.1957  0.0108  0.2275
  200ntf    fn4 1479   1.841   0.755   2.809 -0.4273  0.4433 -0.4276
  200ntf    fn4 1480   1.828   0.789   3.023  0.6311  0.1656  0.4220
  200ntf    fn4 1481   1.658   0.746   2.902  0.2498  0.0163  0.1006
  200ntf    on5 1482   1.672   1.010   2.769  0.1180 -0.7616  0.1134
  200ntf    on5 1483   1.694   1.039   3.010 -0.1369  0.3728  0.3110
  200ntf    on5 1484   1.955   1.200   2.674  0.3832 -0.0057  0.0865
  200ntf    on5 1485   1.984   0.959   2.635  0.1512  0.3528  0.0578
  200ntf    fn4 1486   2.189   0.979   2.857  0.1474 -0.0577 -0.1732
  200ntf    fn4 1487   2.219   1.124   2.698 -0.1466 -0.1456  0.2090
  200ntf    fn4 1488   2.149   1.191   2.880 -0.1193  0.3213 -0.1692
  201ntf    cn1 1489   2.179   1.601   5.422  0.3083  0.0214 -0.3290
  201ntf    sn2 1490   2.357   1.577   5.390  0.2888 -0.1342 -0.3232
  201ntf    nn3 1491   2.410   1.623   5.531 -0.6035 -0.1488  0.0277
  201ntf    sn2 1492   2.426   1.530   5.656 -0.1300 -0.0904  0.0115
  201ntf    cn1 1493   2.390   1.669   5.768  0.0880  0.0478 -0.0883
  201ntf    fn4 1494   2.145   1.725   5.452 -0.0558 -0.0195 -0.5721
  201ntf    fn4 1495   2.120   1.581   5.305  0.4876 -0.2321 -0.3770
  201ntf    fn4 1496   2.123   1.521   5.512  0.2047 -0.2307 -0.6155
  201ntf    on5 1497   2.363   1.437   5.356  0.8355 -0.1615 -0.1140
  201ntf    on5 1498   2.383   1.671   5.285  0.1648  0.1151 -0.1331
  201ntf    on5 1499   2.559   1.484   5.688 -0.2986 -0.9909 -0.5663
  201ntf    on5 1500   2.319   1.438   5.684 -0.1716  0.1066  0.5271
  201ntf    fn4 1501   2.479   1.766   5.758  0.3532 -0.2183 -0.3086
  201ntf    fn4 1502   2.266   1.714   5.753  0.0203  0.0295  0.4110
  201ntf    fn4 1503   2.385   1.632   5.894 -0.1912  0.2213 -0.0453
  202ntf    cn1 1504   0.253   0.611   1.333 -0.2304  0.3293 -0.1642
  202ntf    sn2 1505   0.188   0.779   1.353 -0.0920  0.3296  0.2891
  202ntf    nn3 1506   0.298   0.846   1.443  0.4297  0.1081 -0.1806
  202ntf    sn2 1507   0.281   0.927   1.577 -0.5157 -0.1098 -0.1630
  202ntf    cn1 1508   0.265   1.095   1.510  0.0314  0.1646  0.3871
  202ntf    fn4 1509   0.293   0.559   1.448  0.3476 -0.2654 -0.6201
  202ntf    fn4 1510   0.168   0.528   1.277  0.1153  0.2464 -0.5715
  202ntf    fn4 1511   0.357   0.620   1.252 -0.4692  0.3882 -0.4655
  202ntf    on5 1512   0.189   0.840   1.223  0.1485 -0.7282 -0.2067
  202ntf    on5 1513   0.061   0.767   1.421 -0.0182 -0.5002  0.2787
  202ntf    on5 1514   0.405   0.933   1.649 -0.2632 -0.9459 -0.5122
  202ntf    on5 1515   0.162   0.913   1.657 -0.5083 -0.1398 -0.1571
  202ntf    fn4 1516   0.365   1.125   1.428  0.0339  0.1404  0.3812
  202ntf    fn4 1517   0.153   1.096   1.440  0.1741  0.1539  0.1567
  202ntf    fn4 1518   0.249   1.188   1.603  0.3796  0.0523  0.5592
  203ntf    cn1 1519   0.024   2.114   2.143 -0.3047 -0.1919 -0.3038
  203ntf    sn2 1520   0.088   2.000   2.017  0.2283 -0.1338 -0.0891
  203ntf    nn3 1521  -0.047   1.950   1.954  0.3986 -0.2776 -0.3428
  203ntf    sn2 1522  -0.092   1.808   1.904  0.1019 -0.2828 -0.0682
  203ntf    cn1 1523  -0.208   1.750   2.031  0.2589 -0.1476  0.1387
  203ntf    fn4 1524  -0.084   2.061   2.199  0.0687 -0.9495 -0.2924
  203ntf    fn4 1525   0.118   2.133   2.235 -0.6251 -0.2433  0.0354
  203ntf    fn4 1526  -0.009   2.232   2.094 -0.4019 -0.1724 -0.1926
  203ntf    on5 1527   0.161   2.093   1.935  0.2296  0.2029  0.2931
  203ntf    on5 1528   0.165   1.907   2.096  0.2544  0.2622  0.3529
  203ntf    on5 1529   0.011   1.707   1.900 -0.0358 -0.4188 -0.2201
  203ntf    on5 1530  -0.172   1.826   1.786 -0.0625 -0.0121  0.0839
  203ntf    fn4 1531  -0.147   1.763   2.148  0.3061  0.3538  0.0615
  203ntf    fn4 1532  -0.325   1.812   2.026  0.1230 -0.4396 -0.4479
  203ntf    fn4 1533  -0.234   1.621   2.012  0.5072 -0.1207 -0.3855
  204ntf    cn1 1534   1.181   0.267   3.619 -0.2561  0.1040  0.1672
  204ntf    sn2 1535   1.329   0.207   3.706 -0.1577  0.0230 -0.0583
  204ntf    nn3 1536   1.448   0.230   3.605  0.0608 -0.0621  0.1789
  204ntf    sn2 1537   1.563   0.140   3.546  0.3150  0.1549  0.3413
  204ntf    cn1 1538   1.500   0.110   3.378  0.7125  0.0401  0.2119
  204ntf    fn4 1539   1.208   0.397   3.609  0.1562 -0.0092 -0.2336
  204ntf    fn4 1540   1.171   0.217   3.497 -0.1270  0.0434  0.1807
  204ntf    fn4 1541   1.060   0.257   3.671 -0.3342 -0.1545 -0.0652
  204ntf    on5 1542   1.335   0.286   3.826 -0.1736 -0.6357  0.3804
  204ntf    on5 1543   1.311   0.064   3.720 -0.0935 -0.0556 -0.7117
  204ntf    on5 1544   1.586   0.015   3.614 -0.0368 -0.0532  0.0835
  204ntf    on5 1545   1.684   0.213   3.519  0.6200 -0.3446  0.3419
  204ntf    fn4 1546   1.388   0.040   3.383  0.3968  0.4939 -0.4158
  204ntf    fn4 1547   1.465   0.220   3.313 -0.5233 -0.2357  0.3870
  204ntf    fn4 1548   1.585   0.047   3.299  0.5178 -0.0964  0.1093
  205ntf    cn1 1549   2.118   1.693   4.277  0.3040 -0.4007 -0.0054
  205ntf    sn2 1550   2.283   1.617   4.285  0.4214 -0.1524 -0.0538
  205ntf    nn3 1551   2.251   1.470   4.329 -0.1246 -0.1568 -0.4457
  205ntf    sn2 1552   2.272   1.409   4.472  0.0678  0.5530 -0.1680
  205ntf    cn1 1553   2.451   1.379   4.459 -0.0581 -0.1662 -0.2879
  205ntf    fn4 1554   2.041   1.637   4.184  0.2289 -0.2469 -0.0378
  205ntf    fn4 1555   2.059   1.679   4.394 -0.1909  0.0951 -0.1894
  205ntf    fn4 1556   2.117   1.822   4.248 -0.7706 -0.3853  0.0467
  205ntf    on5 1557   2.324   1.624   4.147 -0.3525 -0.3712 -0.3043
  205ntf    on5 1558   2.357   1.704   4.372  0.0662  0.1004 -0.0034
  205ntf    on5 1559   2.219   1.275   4.485 -0.2535  0.7281  0.3355
  205ntf    on5 1560   2.257   1.497   4.585 -1.0487  0.3317 -0.1315
  205ntf    fn4 1561   2.492   1.348   4.581  0.1205  0.2938 -0.2284
  205ntf    fn4 1562   2.470   1.267   4.390  0.1658 -0.3928  0.1359
  205ntf    fn4 1563   2.527   1.476   4.410 -0.6275  0.3711 -0.1179
  206ntf    cn1 1564   0.742   1.406   2.280  0.1622 -0.1209  0.0052
  206ntf    sn2 1565   0.615   1.401   2.150  0.0341 -0.1089  0.1292
  206ntf    nn3 1566   0.543   1.265   2.179 -0.4797  0.0325 -0.4601
  206ntf    sn2 1567   0.439   1.241   2.295 -0.1523  0.0610 -0.1597
  206ntf    cn1 1568   0.495   1.076   2.349 -0.0333  0.1810  0.0866
  206ntf    fn4 1569   0.835   1.498   2.267 -0.0618  0.1533  0.3119
  206ntf    fn4 1570   0.697   1.422   2.404  0.2917 -0.0444  0.0417
  206ntf    fn4 1571   0.805   1.290   2.280  0.0688 -0.1731  0.2872
  206ntf    on5 1572   0.538   1.522   2.167 -0.3416 -0.3571  0.2021
  206ntf    on5 1573   0.694   1.383   2.031  0.1681 -0.3602  0.2543
  206ntf    on5 1574   0.306   1.217   2.245 -0.1963  0.3138 -0.1633
  206ntf    on5 1575   0.453   1.331   2.407 -0.0650  0.2883 -0.3516
  206ntf    fn4 1576   0.419   1.014   2.437  0.1762 -0.2304 -0.0239
  206ntf    fn4 1577   0.487   0.994   2.245 -0.3415 -0.2105  0.4155
  206ntf    fn4 1578   0.618   1.075   2.396  0.0702 -1.0961 -0.1801
  207ntf    cn1 1579   0.810   2.039   3.658 -0.0136 -0.3350  0.0620
  207ntf    sn2 1580   0.818   1.980   3.486  0.0690  0.0019 -0.0500
  207ntf    nn3 1581   0.952   2.039   3.430  0.1711 -0.2758 -0.0972
  207ntf    sn2 1582   1.085   1.959   3.404  0.3470 -0.1495  0.3996
  207ntf    cn1 1583   1.183   2.083   3.313  0.1392 -0.2492  0.0384
  207ntf    fn4 1584   0.916   2.008   3.731  0.2476 -0.1294 -0.2295
  207ntf    fn4 1585   0.807   2.171   3.660  0.8752 -0.3175  0.4012
  207ntf    fn4 1586   0.703   1.994   3.722  0.1430  0.0131  0.5804
  207ntf    on5 1587   0.815   1.838   3.508  0.0098  0.0028 -0.0506
  207ntf    on5 1588   0.707   2.040   3.416 -0.0596  0.4596  0.5345
  207ntf    on5 1589   1.064   1.853   3.308 -0.7459  0.0952  0.3529
  207ntf    on5 1590   1.166   1.929   3.519  0.5913 -0.2183  0.2092
  207ntf    fn4 1591   1.313   2.059   3.318  0.1945  0.0630  0.1025
  207ntf    fn4 1592   1.145   2.082   3.186 -0.5999 -0.8860  0.2524
  207ntf    fn4 1593   1.163   2.203   3.363  0.4438 -0.3780  0.4782
  208ntf    cn1 1594   1.251   1.393   1.180 -0.0221 -0.1127 -0.3591
  208ntf    sn2 1595   1.107   1.473   1.256  0.3294  0.1692  0.0160
  208ntf    nn3 1596   0.989   1.375   1.222  0.3945 -0.0560  0.4296
  208ntf    sn2 1597   0.948   1.239   1.287 -0.1983  0.0899  0.3637
  208ntf    cn1 1598   0.839   1.170   1.158  0.0580  0.1794  0.0997
  208ntf    fn4 1599   1.350   1.475   1.149 -0.0104  0.3650  0.8873
  208ntf    fn4 1600   1.285   1.284   1.248  0.0625 -0.0675 -0.3281
  208ntf    fn4 1601   1.202   1.343   1.068 -0.4544 -0.0431 -0.2043
  208ntf    on5 1602   1.145   1.471   1.395 -0.2779  0.1510  0.1844
  208ntf    on5 1603   1.103   1.604   1.195 -0.1091 -0.0322 -0.3931
  208ntf    on5 1604   0.861   1.259   1.401 -0.5230  0.6857  0.0151
  208ntf    on5 1605   1.046   1.134   1.299 -0.1058  0.1985  0.5619
  208ntf    fn4 1606   0.905   1.164   1.043 -0.6970 -0.2715 -0.3170
  208ntf    fn4 1607   0.805   1.046   1.190 -0.4363  0.2715 -0.0677
  208ntf    fn4 1608   0.726   1.235   1.138 -0.2322 -0.1589  0.6189
  209ntf    cn1 1609   1.028   2.059   2.805  0.0386 -0.3905  0.1295
  209ntf    sn2 1610   0.926   2.169   2.703  0.0209 -0.2058  0.3458
  209ntf    nn3 1611   0.936   2.113   2.557 -0.2888  0.4993  0.0495
  209ntf    sn2 1612   0.845   2.007   2.486  0.0767  0.2223 -0.0045
  209ntf    cn1 1613   0.940   1.857   2.525 -0.6038 -0.2582 -0.1687
  209ntf    fn4 1614   1.104   1.980   2.731 -0.3601 -0.3502 -0.3297
  209ntf    fn4 1615   1.092   2.130   2.896 -0.5949  0.8227 -0.3561
  209ntf    fn4 1616   0.948   1.981   2.877  0.1801 -0.3548  0.3250
  209ntf    on5 1617   0.794   2.172   2.762 -0.0151 -0.0782  0.2597
  209ntf    on5 1618   0.993   2.297   2.709 -0.1189 -0.0939 -0.3619
  209ntf    on5 1619   0.846   2.021   2.342 -0.1716  0.1168 -0.0165
  209ntf    on5 1620   0.720   1.980   2.552  0.4445  0.0282  0.6187
  209ntf    fn4 1621   1.063   1.870   2.478 -0.3383  0.0466  0.5951
  209ntf    fn4 1622   0.948   1.830   2.655 -0.2395 -0.3269 -0.2045
  209ntf    fn4 1623   0.890   1.752   2.462 -0.0275 -0.0312 -1.0287
  210ntf    cn1 1624   2.151   0.087   4.637  0.3612 -0.0101 -0.3331
  210ntf    sn2 1625   2.010   0.100   4.523  0.0640 -0.0990  0.0193
  210ntf    nn3 1626   1.922  -0.009   4.594  0.1278 -0.0470  0.1793
  210ntf    sn2 1627   1.793   0.001   4.684  0.0638 -0.0828  0.0918
  210ntf    cn1 1628   1.666  -0.068   4.574  0.1879  0.2256 -0.2476
  210ntf    fn4 1629   2.200   0.205   4.669 -0.3611  0.2218 -0.0549
  210ntf    fn4 1630   2.110   0.039   4.754  1.2254  0.3619  0.1298
  210ntf    fn4 1631   2.257   0.015   4.603  0.1662 -0.2568 -0.4282
  210ntf    on5 1632   1.965   0.237   4.525 -0.2683 -0.2172  0.7426
  210ntf    on5 1633   2.066   0.046   4.402 -0.7149 -0.4126 -0.2089
  210ntf    on5 1634   1.746   0.135   4.707 -0.5024 -0.1148 -0.8247
  210ntf    on5 1635   1.802  -0.090   4.796 -0.1178 -0.4184 -0.1659
  210ntf    fn4 1636   1.545  -0.025   4.608  0.4750  0.7615  0.1176
  210ntf    fn4 1637   1.687  -0.037   4.447 -0.0457  0.8382 -0.1408
  210ntf    fn4 1638   1.670  -0.200   4.583 -0.1735  0.2156 -0.2226
  211ntf    cn1 1639   0.780   0.328   0.890  0.4643 -0.0416  0.1014
  211ntf    sn2 1640   0.874   0.482   0.874 -0.0583  0.2935  0.2332
  211ntf    nn3 1641   0.952   0.478   1.011 -0.0204 -0.2007  0.1964
  211ntf    sn2 1642   0.912   0.534   1.152 -0.0411 -0.0331  0.1243
  211ntf    cn1 1643   1.016   0.683   1.160 -0.2766  0.1218  0.2857
  211ntf    fn4 1644   0.729   0.319   1.012  0.2496 -0.1349  0.0059
  211ntf    fn4 1645   0.674   0.326   0.810  0.1855  0.3434  0.4570
  211ntf    fn4 1646   0.855   0.221   0.871  0.5219  0.0938 -0.4372
  211ntf    on5 1647   0.972   0.453   0.772 -0.4822  0.1530 -0.1356
  211ntf    on5 1648   0.779   0.588   0.851 -0.8085 -0.3072  0.5550
  211ntf    on5 1649   0.972   0.458   1.259  0.0010 -0.1290  0.0333
  211ntf    on5 1650   0.780   0.586   1.174 -0.0609 -0.3779  0.8327
  211ntf    fn4 1651   0.990   0.752   1.270 -0.5755 -0.2585  0.4584
  211ntf    fn4 1652   1.145   0.657   1.168 -0.1312  0.6609 -0.2579
  211ntf    fn4 1653   0.990   0.771   1.064 -0.1679 -0.0200  0.1254
  212ntf    cn1 1654   0.492   1.112   0.302  0.1594  0.1375 -0.1922
  212ntf    sn2 1655   0.370   0.984   0.261  0.1410  0.1411 -0.1491
  212ntf    nn3 1656   0.470   0.885   0.192  0.4613  0.4291 -0.1025
  212ntf    sn2 1657   0.486   0.850   0.040 -0.0608 -0.1646 -0.0254
  212ntf    cn1 1658   0.635   0.746   0.054  0.3578  0.4712  0.2708
  212ntf    fn4 1659   0.433   1.211   0.367  0.2321 -0.0184  0.1169
  212ntf    fn4 1660   0.595   1.083   0.380 -0.0212 -0.1168 -0.0458
  212ntf    fn4 1661   0.534   1.165   0.189  0.1490 -0.0587 -0.2883
  212ntf    on5 1662   0.315   0.928   0.382  0.9353 -0.9053 -0.2616
  212ntf    on5 1663   0.282   1.061   0.176  0.2518 -0.0753 -0.4608
  212ntf    on5 1664   0.529   0.960  -0.043 -0.2983  0.2242  0.3687
  212ntf    on5 1665   0.391   0.754  -0.011 -0.7312  0.2858  0.3639
  212ntf    fn4 1666   0.684   0.700  -0.059 -0.3684  0.1339  0.0888
  212ntf    fn4 1667   0.730   0.814   0.117  0.3549 -0.0801  0.8803
  212ntf    fn4 1668   0.596   0.643   0.129 -0.0801 -0.1066 -0.7322
  213ntf    cn1 1669   0.726   1.970   0.927 -0.2169  0.0977 -0.2738
  213ntf    sn2 1670   0.559   1.927   0.986  0.0053 -0.2669  0.0982
  213ntf    nn3 1671   0.504   1.901   0.841  0.2099 -0.1325 -0.0038
  213ntf    sn2 1672   0.363   1.854   0.790  0.0141  0.3110  0.1212
  213ntf    cn1 1673   0.360   1.672   0.778  0.2003  0.3227 -0.1070
  213ntf    fn4 1674   0.781   1.858   0.885  0.0637  0.2653 -0.3530
  213ntf    fn4 1675   0.724   2.052   0.824  0.4315  0.5784  0.0939
  213ntf    fn4 1676   0.805   2.020   1.020 -0.3288  0.0288 -0.1408
  213ntf    on5 1677   0.577   1.816   1.076  0.2589 -0.2275  0.0960
  213ntf    on5 1678   0.506   2.051   1.039  0.2505 -0.0653 -0.1249
  213ntf    on5 1679   0.332   1.908   0.661  0.3089  0.1946 -0.0008
  213ntf    on5 1680   0.255   1.891   0.878 -0.1176 -0.1500  0.1577
  213ntf    fn4 1681   0.251   1.628   0.719  0.3360  0.0431 -0.1515
  213ntf    fn4 1682   0.467   1.621   0.719  0.0807  0.2007 -0.2168
  213ntf    fn4 1683   0.351   1.621   0.900 -0.4207 -0.1045 -0.3305
  214ntf    cn1 1684   0.598   0.262   0.026  0.0293  0.4809  0.1901
  214ntf    sn2 1685   0.762   0.237   0.100  0.0651 -0.0444 -0.0650
  214ntf    nn3 1686   0.733   0.274   0.250  0.5078 -0.1834  0.0577
  214ntf    sn2 1687   0.721   0.180   0.375 -0.3474  0.1613  0.2401
  214ntf    cn1 1688   0.896   0.174   0.423 -0.2051 -0.1658 -0.3078
  214ntf    fn4 1689   0.513   0.164   0.052  0.3382  0.1435 -0.0629
  214ntf    fn4 1690   0.535   0.374   0.058 -0.3790  0.2359  0.2572
  214ntf    fn4 1691   0.601   0.261  -0.106  0.0640 -0.0152  0.1929
  214ntf    on5 1692   0.796   0.100   0.070 -0.0630 -0.2214  0.5822
  214ntf    on5 1693   0.840   0.339   0.034  0.0805 -0.2191 -0.3196
  214ntf    on5 1694   0.695   0.042   0.343 -0.2787  0.3138 -0.4963
  214ntf    on5 1695   0.654   0.248   0.483 -0.9022  0.4849 -0.3009
  214ntf    fn4 1696   0.928   0.070   0.498  0.8413  0.6408  0.3996
  214ntf    fn4 1697   0.961   0.170   0.307  0.4712  0.0856  0.0550
  214ntf    fn4 1698   0.923   0.283   0.494 -0.6061 -0.0171 -0.3801
  215ntf    cn1 1699   1.742   1.057   4.016 -0.1311  0.1328  0.0234
  215ntf    sn2 1700   1.694   0.915   4.119  0.2551 -0.0850 -0.0974
  215ntf    nn3 1701   1.766   0.793   4.051  0.1012 -0.2069 -0.0397
  215ntf    sn2 1702   1.917   0.756   4.066  0.2568  0.5199  0.2173
  215ntf    cn1 1703   1.949   0.760   3.887  0.3579  0.3406  0.2303
  215ntf    fn4 1704   1.718   1.033   3.888 -0.2617  0.5337 -0.0290
  215ntf    fn4 1705   1.665   1.159   4.050  0.3359  0.3994  0.2958
  215ntf    fn4 1706   1.868   1.094   4.028  0.0564 -0.3764 -0.3456
  215ntf    on5 1707   1.740   0.951   4.251  0.1595 -0.3006 -0.0051
  215ntf    on5 1708   1.553   0.903   4.094  0.2117  0.7452 -0.2746
  215ntf    on5 1709   1.943   0.616   4.092  0.2595  0.5594  0.4268
  215ntf    on5 1710   2.017   0.852   4.107 -0.0274  0.7592  0.3470
  215ntf    fn4 1711   1.884   0.662   3.827  0.3241  0.2590  0.3991
  215ntf    fn4 1712   1.896   0.869   3.832  0.4694  0.0284 -0.5050
  215ntf    fn4 1713   2.073   0.749   3.844  0.2780  0.0917  0.0632
  216ntf    cn1 1714   1.585   2.193   1.264  0.0382 -0.2030  0.4952
  216ntf    sn2 1715   1.719   2.151   1.149 -0.0821 -0.2551  0.3734
  216ntf    nn3 1716   1.697   2.271   1.050  0.5629 -0.4873 -0.0607
  216ntf    sn2 1717   1.613   2.256   0.919  0.0654  0.0623  0.1888
  216ntf    cn1 1718   1.729   2.233   0.781 -0.4984 -0.1934 -0.2488
  216ntf    fn4 1719   1.463   2.174   1.214 -0.0544 -0.0520  0.6612
  216ntf    fn4 1720   1.599   2.113   1.368  0.0725 -0.2228  0.4748
  216ntf    fn4 1721   1.595   2.316   1.312  0.6836 -0.1011  0.1132
  216ntf    on5 1722   1.839   2.166   1.227  0.2831 -0.2353 -0.1901
  216ntf    on5 1723   1.690   2.020   1.097  0.0565 -0.1138 -0.0648
  216ntf    on5 1724   1.543   2.380   0.897  0.1120  0.0195 -0.2245
  216ntf    on5 1725   1.527   2.141   0.902  0.1636  0.0561 -0.2786
  216ntf    fn4 1726   1.794   2.117   0.790 -0.4759 -0.1637 -0.0344
  216ntf    fn4 1727   1.675   2.233   0.660 -0.1157 -0.0768 -0.4227
  216ntf    fn4 1728   1.824   2.325   0.778 -0.0598 -0.6288 -0.0204
   2.24913   2.24913   6.28262
