Converted from moscito
17280
    1SOL     ow    1   1.110   4.135   2.533  0.4278  0.3059  0.0109
    1SOL     hw    2   1.123   4.101   2.621  0.5974 -1.5601 -0.6834
    1SOL     hw    3   1.055   4.213   2.545 -0.5680 -0.5942  1.6571
    1SOL     vw    4   1.104   4.141   2.546  0.3188 -0.0591  0.1365
    2SOL     ow    5   5.459   6.286   3.622 -1.6472  0.1151 -0.1043
    2SOL     hw    6   5.539   6.336   3.608  1.3232 -3.5200  1.8420
    2SOL     hw    7   5.414   6.332   3.693 -0.2920  1.2937  0.0335
    2SOL     vw    8   5.463   6.298   3.630 -1.0765 -0.2091  0.1705
    3SOL     ow    9   5.900   0.084   4.884  0.5989  0.7834  0.0650
    3SOL     hw   10   5.853   0.040   4.955  1.4149  2.0925  1.4943
    3SOL     hw   11   5.953   0.016   4.844 -2.3670 -0.7629 -1.5912
    3SOL     vw   12   5.900   0.070   4.888  0.3157  0.7521  0.0353
    4SOL     ow   13   5.136   4.983   4.297 -0.3970  0.1475  0.1843
    4SOL     hw   14   5.040   4.974   4.304 -0.6978  3.1696  1.3825
    4SOL     hw   15   5.161   5.032   4.375  1.9336  0.8883 -0.9465
    4SOL     vw   16   5.126   4.988   4.308 -0.1292  0.6440  0.1934
    5SOL     ow   17   4.730   2.115   3.292  0.0095  0.2736  0.0958
    5SOL     hw   18   4.753   2.206   3.309 -0.1386  0.1631  0.9792
    5SOL     hw   19   4.661   2.096   3.356 -0.8221 -0.1041 -0.8886
    5SOL     vw   20   4.724   2.124   3.303 -0.1197  0.2092  0.0825
    6SOL     ow   21   6.395   3.316   2.375  0.5060  0.4621  0.5272
    6SOL     hw   22   6.412   3.396   2.424 -3.2460  0.4386  2.2274
    6SOL     hw   23   6.335   3.266   2.430  1.6228 -2.9663 -1.0638
    6SOL     vw   24   6.389   3.320   2.389  0.1583  0.0067  0.5416
    7SOL     ow   25   6.212   4.369   1.541  0.5692 -0.3367  0.3840
    7SOL     hw   26   6.192   4.296   1.484 -0.4184  0.2235 -0.0186
    7SOL     hw   27   6.139   4.430   1.528  1.4453  0.7866  0.5870
    7SOL     vw   28   6.200   4.368   1.532  0.5546 -0.1147  0.3576
    8SOL     ow   29   0.745   3.147   1.919 -0.4829 -0.1211 -0.0674
    8SOL     hw   30   0.813   3.102   1.869  0.8580  2.0058 -0.3381
    8SOL     hw   31   0.726   3.226   1.867  1.1959  2.3674  2.7359
    8SOL     vw   32   0.751   3.152   1.906 -0.0845  0.4878  0.2667
    9SOL     ow   33   3.956   2.122   1.954  0.1826 -0.8148  0.2814
    9SOL     hw   34   4.012   2.146   2.027  0.7649 -0.0434 -0.3896
    9SOL     hw   35   3.920   2.037   1.977  1.0925 -1.0101  1.0356
    9SOL     vw   36   3.958   2.114   1.966  0.3794 -0.7387  0.2924
   10SOL     ow   37   6.206   1.745   4.585 -0.2418 -0.3539 -0.2542
   10SOL     hw   38   6.197   1.839   4.601  2.2173  0.0108 -0.6049
   10SOL     hw   39   6.128   1.722   4.535 -1.1878  1.3577  0.3316
   10SOL     vw   40   6.195   1.754   4.580 -0.0422 -0.0799 -0.2232
   11SOL     ow   41   1.017   5.395   5.940  0.0192 -0.2813  0.6604
   11SOL     hw   42   1.006   5.385   5.845  1.8134 -1.0344  0.4712
   11SOL     hw   43   0.941   5.445   5.969 -0.4473  0.1588 -1.2101
   11SOL     vw   44   1.006   5.400   5.931  0.1944 -0.3223  0.3886
   12SOL     ow   45   2.413   1.121   4.326  0.2647 -0.2357  0.1128
   12SOL     hw   46   2.397   1.184   4.255  1.2020 -1.7034 -1.4899
   12SOL     hw   47   2.498   1.146   4.361  2.6754 -2.7852 -3.2238
   12SOL     vw   48   2.422   1.133   4.321  0.7063 -0.7657 -0.5391
   13SOL     ow   49   3.032   4.468   3.644  0.1585  0.7809  0.5944
   13SOL     hw   50   3.063   4.388   3.602 -1.7512 -1.4888  3.1379
   13SOL     hw   51   2.946   4.485   3.604 -1.1896 -0.7940  2.5709
   13SOL     vw   52   3.024   4.460   3.633 -0.2712  0.2737  1.1907
   14SOL     ow   53   2.701   3.761   5.824 -0.3802 -0.7285 -0.1234
   14SOL     hw   54   2.640   3.708   5.774  0.2407 -0.8218 -0.7922
   14SOL     hw   55   2.745   3.815   5.759  1.2044 -1.6066  0.1732
   14SOL     vw   56   2.698   3.761   5.809 -0.0892 -0.8565 -0.1724
   15SOL     ow   57   6.152   4.214   5.013  0.6278 -0.2706 -0.1420
   15SOL     hw   58   6.174   4.125   5.042  2.1402 -0.0878 -0.6902
   15SOL     hw   59   6.146   4.208   4.918  0.1290  0.0982 -0.1380
   15SOL     vw   60   6.154   4.201   5.005  0.7615 -0.1979 -0.2139
   16SOL     ow   61   0.317   5.733   4.646 -0.1200 -0.0236 -0.6139
   16SOL     hw   62   0.326   5.791   4.721 -0.7689  1.3141 -1.5184
   16SOL     hw   63   0.257   5.780   4.587  1.3951 -0.3934 -2.5487
   16SOL     vw   64   0.310   5.747   4.648 -0.0057  0.1040 -0.9885
   17SOL     ow   65   4.523   3.942   2.642 -0.3207 -0.3391 -0.2000
   17SOL     hw   66   4.601   3.997   2.651 -0.4242 -0.2829  0.4321
   17SOL     hw   67   4.513   3.901   2.728 -1.0577 -0.2472 -0.2390
   17SOL     vw   68   4.532   3.944   2.655 -0.4315 -0.3195 -0.1218
   18SOL     ow   69   3.846   6.241   6.083  0.4468 -0.3008 -0.2865
   18SOL     hw   70   3.848   6.278   6.172  1.3417 -1.9035  0.4114
   18SOL     hw   71   3.914   6.289   6.036  1.2142 -0.6241  0.4463
   18SOL     vw   72   3.855   6.252   6.089  0.6663 -0.5550 -0.0980
   19SOL     ow   73   2.675   1.895   4.714 -0.0671 -0.4288 -0.3947
   19SOL     hw   74   2.717   1.813   4.689 -0.0753 -0.8287  0.8727
   19SOL     hw   75   2.737   1.937   4.773 -0.0104  0.5560 -1.1220
   19SOL     vw   76   2.689   1.890   4.718 -0.0607 -0.3516 -0.3235
   20SOL     ow   77   5.486   5.391   4.993  0.7769 -0.0640  0.0939
   20SOL     hw   78   5.434   5.384   4.913  0.2746 -0.4945  0.4497
   20SOL     hw   79   5.556   5.327   4.981  1.6345  0.9792 -0.6723
   20SOL     vw   80   5.488   5.382   4.981  0.8240  0.0169  0.0396
   21SOL     ow   81   0.092   6.345   1.977  0.4388 -0.0053  0.2526
   21SOL     hw   82   0.046   6.348   1.894 -0.6755 -2.8508  0.6296
   21SOL     hw   83   0.023   6.351   2.043  0.8375 -1.5305  0.8622
   21SOL     vw   84   0.077   6.346   1.975  0.3444 -0.5820  0.3828
   22SOL     ow   85   4.380   2.640   4.530 -0.9140 -0.1213 -0.3560
   22SOL     hw   86   4.453   2.596   4.488 -0.3343 -0.0447  0.5386
   22SOL     hw   87   4.360   2.714   4.472 -0.1218 -0.0025 -0.4852
   22SOL     vw   88   4.387   2.644   4.517 -0.7327 -0.0957 -0.2549
   23SOL     ow   89   1.080   4.872   1.487  0.4034  0.5316 -0.2835
   23SOL     hw   90   1.115   4.843   1.571  0.1787  0.7929 -0.1025
   23SOL     hw   91   1.076   4.967   1.493 -0.6861  0.4894 -0.1680
   23SOL     vw   92   1.084   4.881   1.499  0.2300  0.5605 -0.2444
   24SOL     ow   93   5.091   2.234   6.010  0.0158  0.0222  0.4728
   24SOL     hw   94   5.144   2.197   5.940 -1.6888 -3.1042  0.6670
   24SOL     hw   95   5.040   2.161   6.044 -1.8908  2.1319  2.6074
   24SOL     vw   96   5.091   2.220   6.005 -0.4606 -0.1119  0.7801
   25SOL     ow   97   2.607   2.671   4.483  0.2630 -0.3741  0.0666
   25SOL     hw   98   2.514   2.652   4.475  0.0877  0.4417  0.1120
   25SOL     hw   99   2.618   2.757   4.442  0.7780  0.0685  1.0790
   25SOL     vw  100   2.596   2.680   4.477  0.3077 -0.2081  0.2065
   26SOL     ow  101   0.699   0.201   6.153 -0.3562 -0.2815  0.5532
   26SOL     hw  102   0.728   0.175   6.240  1.5337 -0.4357 -0.0730
   26SOL     hw  103   0.608   0.171   6.148  0.1158 -2.0392  1.7550
   26SOL     vw  104   0.690   0.194   6.164 -0.0446 -0.5338  0.6289
   27SOL     ow  105   5.457   1.576   2.214 -0.7052  0.0110  0.0982
   27SOL     hw  106   5.473   1.525   2.135  0.0564 -0.7707  0.7403
   27SOL     hw  107   5.362   1.580   2.221 -0.7823  0.0769 -0.8345
   27SOL     vw  108   5.447   1.570   2.205 -0.6149 -0.0834  0.0600
   28SOL     ow  109   1.023   3.414   0.304 -0.3121 -0.1078 -0.2727
   28SOL     hw  110   1.112   3.379   0.308  0.0824  0.9083  0.0273
   28SOL     hw  111   0.992   3.412   0.395 -0.6422 -0.5582 -0.3909
   28SOL     vw  112   1.030   3.409   0.317 -0.3036 -0.0333 -0.2487
   29SOL     ow  113   5.730   1.447   2.328  0.4729  0.6478  0.3060
   29SOL     hw  114   5.761   1.416   2.243 -1.4138 -1.3906  0.2704
   29SOL     hw  115   5.725   1.368   2.382 -1.1888  1.4204  1.3587
   29SOL     vw  116   5.734   1.433   2.324  0.0050  0.4808  0.4401
   30SOL     ow  117   3.185   3.153   6.662  0.6761 -0.1733  0.0702
   30SOL     hw  118   3.152   3.239   6.689 -0.4764 -0.8537  0.8970
   30SOL     hw  119   3.132   3.090   6.711  1.7240 -1.3616 -0.2669
   30SOL     vw  120   3.174   3.156   6.672  0.6623 -0.4197  0.1349
   31SOL     ow  121   0.154   6.553   3.897  0.2443 -0.1697  0.0141
   31SOL     hw  122   0.189   6.606   3.825 -1.0521 -0.3465 -0.7750
   31SOL     hw  123   0.098   6.613   3.946  0.9656 -0.1029  0.7791
   31SOL     vw  124   0.151   6.568   3.894  0.1684 -0.1841  0.0108
   32SOL     ow  125   0.898   0.309   0.021  0.2884  0.5066  0.1880
   32SOL     hw  126   0.857   0.269  -0.056 -1.2617  3.2336 -0.5489
   32SOL     hw  127   0.826   0.323   0.082  0.8424  1.6283  0.6099
   32SOL     vw  128   0.883   0.305   0.019  0.1570  1.0144  0.1466
   33SOL     ow  129   3.467   5.880   6.367 -0.0884  0.7753  0.3273
   33SOL     hw  130   3.499   5.855   6.454  2.6727  2.3453 -0.1409
   33SOL     hw  131   3.395   5.939   6.384 -0.0522  0.5001  1.5389
   33SOL     vw  132   3.462   5.884   6.381  0.2806  0.9463  0.4253
   34SOL     ow  133   0.273   3.211   5.432 -0.4322  0.2286  0.0188
   34SOL     hw  134   0.276   3.248   5.344 -3.8761 -0.5056 -0.5507
   34SOL     hw  135   0.362   3.221   5.466  0.8762  0.9942 -3.3228
   34SOL     vw  136   0.285   3.218   5.425 -0.7140  0.2326 -0.4971
   35SOL     ow  137   1.504   6.890   4.171 -0.4848  0.0020 -0.5800
   35SOL     hw  138   1.421   6.864   4.211 -0.1717  0.2765  0.2694
   35SOL     hw  139   1.547   6.807   4.149 -1.6474 -0.1545 -2.5065
   35SOL     vw  140   1.499   6.876   4.173 -0.5968  0.0176 -0.7222
   36SOL     ow  141   0.237   4.238   5.956  0.4317  0.0077 -0.4703
   36SOL     hw  142   0.142   4.232   5.952  0.1830  2.3046  0.3034
   36SOL     hw  143   0.267   4.148   5.966 -1.5124 -0.9556 -2.5558
   36SOL     vw  144   0.229   4.225   5.957  0.1424  0.1836 -0.6435
   37SOL     ow  145   3.608   5.253   3.091 -0.3899 -0.8435 -0.6251
   37SOL     hw  146   3.513   5.246   3.083 -0.5281 -0.0395  0.1310
   37SOL     hw  147   3.643   5.210   3.013 -1.3430 -2.0218 -0.4261
   37SOL     vw  148   3.600   5.246   3.080 -0.5339 -0.8929 -0.4990
   38SOL     ow  149   4.435   3.968   0.248  0.2969 -0.3930 -0.3055
   38SOL     hw  150   4.435   4.011   0.162 -0.0808  0.8208  0.2738
   38SOL     hw  151   4.348   3.986   0.283  0.6096 -0.4744  0.5199
   38SOL     vw  152   4.424   3.976   0.241  0.2885 -0.2434 -0.1202
   39SOL     ow  153   3.335   1.369   2.535 -0.2424  0.4078 -0.7740
   39SOL     hw  154   3.358   1.389   2.626 -1.2154  0.9827 -0.6472
   39SOL     hw  155   3.414   1.389   2.486  0.8224 -1.3075  0.0933
   39SOL     vw  156   3.349   1.374   2.541 -0.2302  0.2573 -0.6429
   40SOL     ow  157   1.638   3.024   6.727 -0.0283  0.0595 -0.4095
   40SOL     hw  158   1.587   3.064   6.656  0.3775 -1.1224 -1.4123
   40SOL     hw  159   1.723   3.066   6.722 -0.9126  2.2958  1.4955
   40SOL     vw  160   1.642   3.035   6.717 -0.0915  0.1986 -0.2904
   41SOL     ow  161   4.506   0.111   3.263  0.1579 -0.2058  0.6839
   41SOL     hw  162   4.600   0.093   3.268  0.7685  2.2835 -0.2531
   41SOL     hw  163   4.485   0.101   3.170 -0.8094 -1.8367  1.0362
   41SOL     vw  164   4.515   0.107   3.251  0.1106 -0.0925  0.6068
   42SOL     ow  165   6.528   2.523   3.317  0.1389  0.5405  0.2509
   42SOL     hw  166   6.466   2.584   3.277 -0.7499  0.8912  2.0715
   42SOL     hw  167   6.612   2.545   3.276 -0.8140  0.3370 -1.9610
   42SOL     vw  168   6.531   2.534   3.306 -0.1042  0.5600  0.1993
   43SOL     ow  169   1.316   3.596   2.094 -0.3499 -0.6551 -0.2543
   43SOL     hw  170   1.371   3.657   2.044 -1.7445 -0.7062 -1.9681
   43SOL     hw  171   1.352   3.598   2.182  0.7855  1.2501 -0.6965
   43SOL     vw  172   1.328   3.604   2.099 -0.3842 -0.4106 -0.5388
   44SOL     ow  173   1.796   0.465   6.513  0.2093 -0.3029 -0.2522
   44SOL     hw  174   1.806   0.374   6.543  0.1983 -0.0300  0.6181
   44SOL     hw  175   1.789   0.516   6.594 -2.3024  0.1944 -0.6851
   44SOL     vw  176   1.796   0.460   6.528 -0.1236 -0.2012 -0.1943
   45SOL     ow  177   1.564   6.712   1.146 -0.8725 -0.1904  0.1288
   45SOL     hw  178   1.622   6.735   1.218 -0.1930  1.0514 -0.7906
   45SOL     hw  179   1.606   6.637   1.104 -0.5964 -0.0866  0.2219
   45SOL     vw  180   1.577   6.705   1.150 -0.7464 -0.0129  0.0198
   46SOL     ow  181   2.554   5.695   6.667  1.0125 -0.0260 -0.3753
   46SOL     hw  182   2.517   5.739   6.744  1.1481  0.2576 -0.4702
   46SOL     hw  183   2.501   5.727   6.594  0.0453 -1.2865 -0.2493
   46SOL     vw  184   2.542   5.705   6.668  0.9028 -0.1550 -0.3715
   47SOL     ow  185   5.059   0.213   3.137  0.3053 -0.5255  0.2419
   47SOL     hw  186   5.044   0.260   3.055 -4.1810 -1.2332  0.3646
   47SOL     hw  187   5.132   0.259   3.178  1.4666  1.0785 -3.2349
   47SOL     vw  188   5.067   0.226   3.132 -0.1333 -0.4072 -0.2006
   48SOL     ow  189   1.733   6.579   1.805  0.0562 -0.4920 -0.1138
   48SOL     hw  190   1.751   6.521   1.879 -2.1950 -1.5145 -0.2730
   48SOL     hw  191   1.712   6.520   1.733 -4.1736  0.2876  0.1929
   48SOL     vw  192   1.732   6.564   1.806 -0.7988 -0.5243 -0.0944
   49SOL     ow  193   3.101   1.021   5.123 -0.4255 -0.5926  0.0144
   49SOL     hw  194   3.069   1.014   5.212 -0.2385 -1.4284  0.0214
   49SOL     hw  195   3.026   1.054   5.073  0.0287  1.8448  0.7995
   49SOL     vw  196   3.087   1.024   5.128 -0.3407 -0.3814  0.1190
   50SOL     ow  197   3.224   0.854   4.929 -0.0733 -1.1332 -1.2073
   50SOL     hw  198   3.187   0.925   4.982 -2.1006 -1.4990 -2.0419
   50SOL     hw  199   3.284   0.899   4.869 -1.3165 -0.0733 -1.7145
   50SOL     vw  200   3.227   0.870   4.928 -0.5049 -1.0416 -1.3840
   51SOL     ow  201   5.515   5.537   6.563  0.4726 -0.3899  0.5185
   51SOL     hw  202   5.434   5.499   6.598  1.1770 -2.4433  0.1103
   51SOL     hw  203   5.510   5.520   6.469 -0.1979  2.6973 -0.1084
   51SOL     vw  204   5.504   5.530   6.555  0.4766 -0.2534  0.3819
   52SOL     ow  205   6.753   0.084   1.243  0.0836 -0.1563 -0.1365
   52SOL     hw  206   6.821   0.022   1.219 -0.0849  0.1329 -1.4254
   52SOL     hw  207   6.769   0.103   1.336  0.8643 -1.1841 -0.0511
   52SOL     vw  208   6.764   0.078   1.252  0.1643 -0.2538 -0.2953
   53SOL     ow  209   3.122   2.040   5.707 -0.0697 -0.7910  0.2701
   53SOL     hw  210   3.065   2.112   5.734 -1.5200 -1.3753 -1.0986
   53SOL     hw  211   3.161   2.008   5.789 -1.1476  0.0898  1.1485
   53SOL     vw  212   3.120   2.046   5.721 -0.4034 -0.7519  0.2055
   54SOL     ow  213   5.027   2.216   4.919  0.0714  0.1549  0.1935
   54SOL     hw  214   5.084   2.252   4.851 -0.9817  1.2415 -0.1411
   54SOL     hw  215   5.027   2.282   4.987 -0.9206  0.2492  0.1112
   54SOL     vw  216   5.035   2.229   4.919 -0.1984  0.3108  0.1383
   55SOL     ow  217   0.857   2.750   5.485  0.4491 -0.6976  0.5294
   55SOL     hw  218   0.779   2.762   5.432  0.5916 -0.3837  0.3888
   55SOL     hw  219   0.905   2.679   5.441 -0.6053 -2.1487  1.6125
   55SOL     vw  220   0.853   2.742   5.472  0.3288 -0.8477  0.6540
   56SOL     ow  221   3.751   4.832   3.752  0.1710 -0.4808  0.0134
   56SOL     hw  222   3.686   4.781   3.800  2.5078 -3.7971  0.0204
   56SOL     hw  223   3.736   4.809   3.660  0.0576  0.3670 -0.1841
   56SOL     vw  224   3.741   4.822   3.746  0.4644 -0.8068 -0.0117
   57SOL     ow  225   0.964   3.389   2.930  0.6414 -0.2659 -0.3297
   57SOL     hw  226   0.947   3.325   2.861  1.1655 -1.4706  0.6146
   57SOL     hw  227   1.040   3.439   2.899 -0.2808  0.4903 -1.4484
   57SOL     vw  228   0.972   3.387   2.917  0.5889 -0.3250 -0.3529
   58SOL     ow  229   5.425   6.854   6.215  0.1389  0.4211  0.3322
   58SOL     hw  230   5.410   6.929   6.158  0.8552  1.0379  0.9229
   58SOL     hw  231   5.374   6.874   6.294  2.7312  1.8573  1.7801
   58SOL     vw  232   5.416   6.867   6.218  0.5753  0.6919  0.6013
   59SOL     ow  233   3.534   6.893   2.127 -0.2849  0.3907 -0.2933
   59SOL     hw  234   3.511   6.983   2.102 -1.4560  0.1815 -0.0128
   59SOL     hw  235   3.492   6.881   2.213 -0.4015 -0.5330 -0.4784
   59SOL     vw  236   3.526   6.903   2.135 -0.4548  0.2413 -0.2807
   60SOL     ow  237   1.787   2.367   1.476  0.2514  0.2167 -0.6233
   60SOL     hw  238   1.870   2.411   1.459 -0.2269  2.3079  1.8748
   60SOL     hw  239   1.732   2.389   1.401  1.9425 -1.4233 -2.4476
   60SOL     vw  240   1.790   2.376   1.464  0.4113  0.2763 -0.5344
   61SOL     ow  241   1.794   0.141   4.154 -0.8118 -0.0408 -0.3941
   61SOL     hw  242   1.867   0.099   4.108 -2.2472 -1.6004 -1.3846
   61SOL     hw  243   1.794   0.101   4.241  0.6658  1.4157  0.3209
   61SOL     vw  244   1.804   0.130   4.159 -0.8063 -0.0544 -0.4303
   62SOL     ow  245   3.131   4.162   2.111 -0.0920 -0.6285 -0.6277
   62SOL     hw  246   3.127   4.068   2.095 -1.5177 -0.5883 -0.5957
   62SOL     hw  247   3.050   4.197   2.074  0.2656  0.5467 -0.3563
   62SOL     vw  248   3.120   4.154   2.104 -0.2329 -0.4680 -0.5877
   63SOL     ow  249   4.536   3.235   3.623 -0.3792  0.0980 -0.0328
   63SOL     hw  250   4.535   3.171   3.552  1.4776 -2.0174  1.7055
   63SOL     hw  251   4.573   3.314   3.584 -1.3867 -0.2880 -1.8910
   63SOL     vw  252   4.541   3.237   3.609 -0.2668 -0.2320 -0.0488
   64SOL     ow  253   4.631   2.739   0.713 -0.4576  0.1740 -0.4680
   64SOL     hw  254   4.566   2.685   0.669  1.4273 -2.9611  0.2791
   64SOL     hw  255   4.603   2.740   0.805 -0.6950  0.8520 -0.5422
   64SOL     vw  256   4.619   2.732   0.720 -0.2401 -0.1501 -0.3793
   65SOL     ow  257   2.231   1.293   6.641 -0.4088  0.2945 -0.8025
   65SOL     hw  258   2.148   1.290   6.593  0.5785  0.5853 -2.6330
   65SOL     hw  259   2.234   1.211   6.691 -2.0160  0.5296 -0.2804
   65SOL     vw  260   2.221   1.282   6.641 -0.4905  0.3639 -0.9751
   66SOL     ow  261   6.694   4.088   0.214  0.1324  0.5978 -0.0085
   66SOL     hw  262   6.687   4.164   0.157 -1.4756  0.4927  0.0033
   66SOL     hw  263   6.658   4.117   0.298 -3.0137 -0.8152 -0.7048
   66SOL     vw  264   6.688   4.101   0.218 -0.4950  0.3974 -0.0988
   67SOL     ow  265   2.680   6.786   2.195  0.5367 -0.1385  0.0262
   67SOL     hw  266   2.696   6.717   2.131 -1.4844 -0.9926  0.3456
   67SOL     hw  267   2.610   6.838   2.156 -0.0876 -0.1260  1.1108
   67SOL     vw  268   2.673   6.784   2.182  0.1879 -0.2499  0.2114
   68SOL     ow  269   2.843   4.894   2.771  0.8402  0.6817 -0.3088
   68SOL     hw  270   2.802   4.895   2.857 -0.9063  1.8578 -1.1016
   68SOL     hw  271   2.889   4.977   2.765  0.7416  0.7136 -0.6219
   68SOL     vw  272   2.844   4.905   2.782  0.5966  0.8414 -0.4547
   69SOL     ow  273   1.848   6.223   6.276  0.4048  0.2033 -0.0405
   69SOL     hw  274   1.862   6.196   6.367  2.8465  0.5671 -0.2598
   69SOL     hw  275   1.756   6.251   6.274  0.3765  0.5089  2.4026
   69SOL     vw  276   1.838   6.223   6.288  0.7232  0.2916  0.2530
   70SOL     ow  277   1.835   6.381   2.562  0.6387  0.1876 -0.0563
   70SOL     hw  278   1.742   6.359   2.554  0.1662  1.1553  2.0923
   70SOL     hw  279   1.867   6.380   2.472 -1.1786 -1.2260 -0.7660
   70SOL     vw  280   1.827   6.378   2.549  0.3366  0.1290  0.1335
   71SOL     ow  281   1.874   4.472   0.697 -0.5835  0.2013 -0.4208
   71SOL     hw  282   1.943   4.443   0.638 -2.2779 -4.8541 -0.3385
   71SOL     hw  283   1.794   4.472   0.643 -1.5375 -0.7505  0.9165
   71SOL     vw  284   1.872   4.468   0.682 -0.9329 -0.5908 -0.2335
   72SOL     ow  285   0.024   2.181   5.294  0.4881  0.1315 -0.2188
   72SOL     hw  286   0.023   2.271   5.260 -0.0091 -0.1936 -1.0990
   72SOL     hw  287  -0.043   2.180   5.362 -0.1674  0.2042 -0.8474
   72SOL     vw  288   0.015   2.193   5.299  0.3360  0.0982 -0.4177
   73SOL     ow  289   1.693   3.853   0.612 -0.3775  0.6077  0.0485
   73SOL     hw  290   1.693   3.941   0.575  0.3580  0.3149 -0.6832
   73SOL     hw  291   1.663   3.864   0.702 -1.8802  1.3870 -0.5244
   73SOL     vw  292   1.689   3.866   0.619 -0.4787  0.6719 -0.1236
   74SOL     ow  293   3.475   3.051   4.059  0.7917 -0.1629  0.6262
   74SOL     hw  294   3.456   2.957   4.056 -1.7712  0.2820 -1.8916
   74SOL     hw  295   3.565   3.058   4.029  0.0683 -1.7568 -2.4095
   74SOL     vw  296   3.484   3.039   4.055  0.3581 -0.3144 -0.1063
   75SOL     ow  297   3.655   2.434   0.847 -0.0285 -0.7672 -0.3479
   75SOL     hw  298   3.749   2.413   0.844  0.8220  2.0115  2.0037
   75SOL     hw  299   3.625   2.393   0.928 -0.5401 -0.5315 -0.4216
   75SOL     vw  300   3.664   2.426   0.857  0.0162 -0.3694 -0.0474
   76SOL     ow  301   2.667   2.822   4.719  0.5069 -0.1426 -0.4659
   76SOL     hw  302   2.741   2.863   4.765 -0.0949  2.8111 -1.8970
   76SOL     hw  303   2.594   2.830   4.779 -0.3590  4.0044 -1.7401
   76SOL     vw  304   2.667   2.829   4.733  0.3133  0.7943 -0.8228
   77SOL     ow  305   3.863   3.966   5.986 -0.5237 -0.3314  0.2596
   77SOL     hw  306   3.839   4.059   5.988 -2.5890 -0.8386  1.5671
   77SOL     hw  307   3.959   3.966   5.981 -0.5159  1.8488 -0.6702
   77SOL     vw  308   3.873   3.978   5.985 -0.7951 -0.1105  0.3095
   78SOL     ow  309   4.175   2.967   0.472 -0.8224 -0.0361  0.3595
   78SOL     hw  310   4.135   3.006   0.395 -0.5603 -0.1804  0.1490
   78SOL     hw  311   4.128   2.885   0.485 -1.8218  0.6492  1.1937
   78SOL     vw  312   4.164   2.961   0.464 -0.9198  0.0353  0.4418
   79SOL     ow  313   4.707   0.400   0.483  0.0963 -0.0192  0.3710
   79SOL     hw  314   4.798   0.421   0.502 -0.2452  1.9140  0.1295
   79SOL     hw  315   4.674   0.361   0.564  0.8211  0.3946  0.8727
   79SOL     vw  316   4.714   0.398   0.496  0.1469  0.2905  0.4053
   80SOL     ow  317   0.799   1.632   5.233  0.0145  0.5107 -0.3542
   80SOL     hw  318   0.705   1.641   5.249  0.0877 -0.6458  1.0048
   80SOL     hw  319   0.832   1.722   5.231 -1.2461  0.9828 -1.9307
   80SOL     vw  320   0.791   1.645   5.235 -0.1422  0.4204 -0.3831
   81SOL     ow  321   6.445   0.383   3.914  0.9439 -0.1080 -0.0971
   81SOL     hw  322   6.529   0.424   3.933 -0.4410  3.0033  0.0133
   81SOL     hw  323   6.393   0.399   3.993  0.2865 -2.1888 -0.0651
   81SOL     vw  324   6.449   0.391   3.927  0.6745  0.0279 -0.0783
   82SOL     ow  325   5.265   3.537   2.820  0.0389  0.1243  0.1781
   82SOL     hw  326   5.336   3.546   2.756  2.1916 -0.5624  2.3243
   82SOL     hw  327   5.244   3.626   2.845  0.9243  0.3267  0.2624
   82SOL     vw  328   5.272   3.550   2.815  0.4399  0.0604  0.4724
   83SOL     ow  329   6.390   2.672   5.607 -0.3006 -0.6347  0.4218
   83SOL     hw  330   6.339   2.735   5.557  0.3227 -0.9855 -0.6848
   83SOL     hw  331   6.471   2.662   5.558  2.4988  2.5000  3.7559
   83SOL     vw  332   6.394   2.679   5.594  0.1509 -0.2674  0.7157
   84SOL     ow  333   0.876   5.348   6.689  0.8293  0.2095  0.2875
   84SOL     hw  334   0.806   5.286   6.669  1.5810 -0.8805  0.9324
   84SOL     hw  335   0.952   5.315   6.641  0.8199  1.6541 -0.8010
   84SOL     vw  336   0.877   5.335   6.680  0.9273  0.2563  0.2291
   85SOL     ow  337   5.476   4.293   6.398 -0.0463  0.5991  0.0103
   85SOL     hw  338   5.512   4.290   6.310 -1.1169 -1.5103 -0.4364
   85SOL     hw  339   5.481   4.202   6.429 -0.7345  1.0816  1.6695
   85SOL     vw  340   5.481   4.280   6.391 -0.2785  0.3846  0.1702
   86SOL     ow  341   6.102   0.434   3.052  0.2943 -0.2360  0.0069
   86SOL     hw  342   6.016   0.435   3.095  0.3486 -1.2609  0.1695
   86SOL     hw  343   6.146   0.513   3.083  0.6574 -1.3550  2.5611
   86SOL     vw  344   6.097   0.445   3.062  0.3493 -0.5189  0.3654
   87SOL     ow  345   1.806   5.012   1.642 -0.0295 -0.2953  0.0702
   87SOL     hw  346   1.878   4.950   1.629  1.2627  1.4193 -1.5277
   87SOL     hw  347   1.846   5.098   1.626 -2.8380  0.6319 -3.0619
   87SOL     vw  348   1.821   5.015   1.638 -0.2295  0.0534 -0.5539
   88SOL     ow  349   2.296   6.098   5.838 -0.2147  0.8384 -0.3860
   88SOL     hw  350   2.277   6.180   5.883 -0.7765  0.6794 -0.3175
   88SOL     hw  351   2.354   6.050   5.898 -1.6053  0.2833  0.5724
   88SOL     vw  352   2.301   6.102   5.852 -0.4723  0.7441 -0.2506
   89SOL     ow  353   5.288   4.847   0.282 -0.7477  0.5080 -0.0537
   89SOL     hw  354   5.220   4.855   0.349 -0.8658 -0.7967  0.0062
   89SOL     hw  355   5.370   4.845   0.332 -0.8536 -0.7709  0.1019
   89SOL     vw  356   5.290   4.848   0.298 -0.7772  0.1671 -0.0252
   90SOL     ow  357   4.046   6.056   2.242  0.7074  0.2146 -0.0620
   90SOL     hw  358   3.982   6.039   2.311  2.3288 -0.0468  1.4579
   90SOL     hw  359   4.087   6.139   2.268  3.5635 -1.4408  1.1605
   90SOL     vw  360   4.043   6.065   2.255  1.2982 -0.0381  0.2999
   91SOL     ow  361   2.044   2.630   3.561 -0.5531 -0.1716  0.0011
   91SOL     hw  362   2.011   2.720   3.557  0.0625  0.1102  1.0658
   91SOL     hw  363   2.099   2.621   3.483  1.4911  1.2421  1.1975
   91SOL     vw  364   2.047   2.641   3.550 -0.2022  0.0521  0.2995
   92SOL     ow  365   0.763   6.809   4.727 -0.2359  0.2933 -0.4152
   92SOL     hw  366   0.788   6.775   4.641 -0.3702  0.2745 -0.4470
   92SOL     hw  367   0.778   6.904   4.720 -0.6105  0.3440 -0.5892
   92SOL     vw  368   0.768   6.817   4.715 -0.3031  0.2975 -0.4423
   93SOL     ow  369   1.508   0.326   5.061 -0.2734 -0.1419  0.6364
   93SOL     hw  370   1.600   0.342   5.043 -0.3256  2.1361  2.0090
   93SOL     hw  371   1.493   0.236   5.030  2.3829 -0.6081  0.4409
   93SOL     vw  372   1.518   0.316   5.055  0.0702  0.0971  0.7915
   94SOL     ow  373   2.768   4.536   4.402 -0.2818 -0.6628 -0.1208
   94SOL     hw  374   2.823   4.606   4.365  0.3335  0.6756  3.0527
   94SOL     hw  375   2.689   4.537   4.348  1.4131 -0.4789 -2.8101
   94SOL     vw  376   2.765   4.545   4.390  0.0230 -0.4618 -0.0570
   95SOL     ow  377   6.448   1.881   3.944 -0.3125 -0.2429  0.0765
   95SOL     hw  378   6.523   1.871   4.004  0.3997  0.0835 -0.7333
   95SOL     hw  379   6.410   1.965   3.969 -0.8326 -0.7225  0.9403
   95SOL     vw  380   6.453   1.891   3.955 -0.2871 -0.2632  0.0836
   96SOL     ow  381   3.003   4.327   3.200 -0.2895 -0.2577 -0.1207
   96SOL     hw  382   2.941   4.294   3.134  1.9105 -1.2121 -1.8635
   96SOL     hw  383   3.048   4.249   3.232  1.8642  0.5336 -0.9613
   96SOL     vw  384   3.001   4.313   3.195  0.2850 -0.2792 -0.4615
   97SOL     ow  385   0.205   1.164   4.718 -0.3721 -0.5476  0.1451
   97SOL     hw  386   0.232   1.073   4.714  1.8032  0.0407  0.0273
   97SOL     hw  387   0.285   1.211   4.744 -0.9212  1.5182 -1.6689
   97SOL     vw  388   0.220   1.158   4.721 -0.1575 -0.1974 -0.1097
   98SOL     ow  389   5.426   0.592   2.743  1.0114 -0.2271  0.8129
   98SOL     hw  390   5.402   0.556   2.658  2.7852 -2.2920  1.0968
   98SOL     hw  391   5.350   0.576   2.798  0.0292  0.7029 -0.2362
   98SOL     vw  392   5.413   0.585   2.739  1.1160 -0.3769  0.7122
   99SOL     ow  393   4.776   6.341   4.528 -0.2302  0.5824 -0.2464
   99SOL     hw  394   4.757   6.331   4.434 -2.0345 -0.6248  0.2022
   99SOL     hw  395   4.690   6.341   4.570  0.5810  0.3699  1.4836
   99SOL     vw  396   4.762   6.339   4.521 -0.3612  0.3953  0.0412
  100SOL     ow  397   5.772   3.230   0.267  1.1933  0.8603 -0.5295
  100SOL     hw  398   5.783   3.170   0.340  0.6262  1.6523  0.2192
  100SOL     hw  399   5.717   3.182   0.205 -0.0295  0.9177  0.4661
  100SOL     vw  400   5.766   3.215   0.268  0.9570  0.9725 -0.2994
  101SOL     ow  401   3.930   0.214   6.092  0.4133  0.3868  0.5163
  101SOL     hw  402   3.866   0.180   6.154 -0.1931 -0.7243 -0.6752
  101SOL     hw  403   3.950   0.139   6.035 -0.9010  1.9495 -2.1595
  101SOL     vw  404   3.924   0.199   6.092  0.1597  0.4464  0.0062
  102SOL     ow  405   6.634   5.554   3.937 -0.4777 -0.1067  0.2917
  102SOL     hw  406   6.723   5.588   3.935 -0.1789 -0.8801 -0.0313
  102SOL     hw  407   6.623   5.519   4.025 -0.9834  1.2980  0.8137
  102SOL     vw  408   6.644   5.554   3.948 -0.5047 -0.0234  0.3178
  103SOL     ow  409   2.856   2.829   0.340  0.3154 -0.7360 -0.3667
  103SOL     hw  410   2.833   2.819   0.247 -1.5156  1.0735 -0.1780
  103SOL     hw  411   2.798   2.767   0.385 -0.2035 -0.2113 -0.3033
  103SOL     vw  412   2.845   2.819   0.334  0.0054 -0.4280 -0.3334
  104SOL     ow  413   2.994   3.587   5.846 -0.6749  0.1382  0.2428
  104SOL     hw  414   2.963   3.503   5.812  0.4630 -0.3331  0.3511
  104SOL     hw  415   3.088   3.588   5.828 -0.4870  0.9303  1.1831
  104SOL     vw  416   3.002   3.576   5.839 -0.5000  0.1804  0.3810
  105SOL     ow  417   3.649   5.546   0.723 -0.1985  0.0125 -0.3327
  105SOL     hw  418   3.634   5.480   0.791  0.6172  0.5802  0.4230
  105SOL     hw  419   3.575   5.605   0.730 -1.4747 -1.3300 -1.6877
  105SOL     vw  420   3.638   5.545   0.733 -0.2592 -0.0896 -0.4118
  106SOL     ow  421   4.422   0.516   4.896  0.0518  0.1073  0.2159
  106SOL     hw  422   4.474   0.596   4.890 -0.1899  0.1441 -2.3387
  106SOL     hw  423   4.395   0.512   4.988  0.4871  2.6786  0.5318
  106SOL     vw  424   4.425   0.526   4.907  0.0775  0.4514 -0.0794
  107SOL     ow  425   2.171   1.148   1.957 -0.3021  0.2441  0.1802
  107SOL     hw  426   2.194   1.113   2.042  0.0119 -0.6549 -0.2635
  107SOL     hw  427   2.080   1.177   1.967  0.0415  1.0884  1.0885
  107SOL     vw  428   2.162   1.148   1.969 -0.2153  0.2369  0.2415
  108SOL     ow  429   4.431   5.671   4.071  0.4353  0.0634  0.2245
  108SOL     hw  430   4.353   5.615   4.075  1.0934 -0.8371  1.1032
  108SOL     hw  431   4.397   5.759   4.057 -0.6886 -0.4200 -0.1794
  108SOL     vw  432   4.416   5.675   4.070  0.3741 -0.1190  0.2871
  109SOL     ow  433   3.302   5.090   6.751 -0.3154  0.3061  0.3450
  109SOL     hw  434   3.351   5.109   6.831 -4.5290 -0.1669  3.3980
  109SOL     hw  435   3.247   5.167   6.737  0.9489  0.7688 -2.7991
  109SOL     vw  436   3.301   5.103   6.760 -0.7044  0.3047  0.3326
  110SOL     ow  437   4.235   0.576   3.887 -0.0040  0.2500  0.0482
  110SOL     hw  438   4.208   0.554   3.976  0.8236  0.0076  0.2476
  110SOL     hw  439   4.331   0.583   3.892  0.1334 -0.6501 -0.9943
  110SOL     vw  440   4.244   0.574   3.899  0.1233  0.0993 -0.0631
  111SOL     ow  441   0.257   2.172   4.267 -0.2472 -0.0288 -0.1649
  111SOL     hw  442   0.299   2.251   4.233 -2.2265  0.6382 -1.2210
  111SOL     hw  443   0.257   2.184   4.362  0.2376  0.8273 -0.2617
  111SOL     vw  444   0.263   2.184   4.276 -0.4444  0.1720 -0.3173
  112SOL     ow  445   6.029   6.561   2.707  0.3007  0.5546  0.4255
  112SOL     hw  446   5.976   6.533   2.632  0.4231 -0.8847  0.8385
  112SOL     hw  447   6.061   6.648   2.683 -0.4827  0.5384 -0.7533
  112SOL     vw  448   6.026   6.569   2.694  0.2136  0.3624  0.3245
  113SOL     ow  449   6.349   0.318   0.003 -0.6742 -0.6438 -0.2094
  113SOL     hw  450   6.336   0.223  -0.003  0.3958 -0.7385 -1.2982
  113SOL     hw  451   6.382   0.343  -0.083 -1.1350  0.7616  0.0018
  113SOL     vw  452   6.351   0.309  -0.009 -0.5939 -0.4709 -0.3252
  114SOL     ow  453   4.787   0.178   4.157 -0.5622  0.4483 -0.1569
  114SOL     hw  454   4.778   0.173   4.062 -2.7570 -1.9283  0.0816
  114SOL     hw  455   4.727   0.247   4.184  0.3090  1.3532 -0.4793
  114SOL     vw  456   4.778   0.187   4.148 -0.7370  0.2541 -0.1678
  115SOL     ow  457   3.434   3.356   4.076  0.0972  0.2629  0.1091
  115SOL     hw  458   3.421   3.433   4.131  1.0085 -0.2955  1.1383
  115SOL     hw  459   3.516   3.373   4.029 -1.0841  1.1065 -1.7758
  115SOL     vw  460   3.443   3.369   4.077  0.0615  0.3005 -0.0041
  116SOL     ow  461   0.228   4.848   5.552  0.0217  0.2503  1.5676
  116SOL     hw  462   0.136   4.821   5.556 -0.2771  1.2133  1.6286
  116SOL     hw  463   0.227   4.938   5.585  1.0734  0.0784  2.0942
  116SOL     vw  464   0.216   4.857   5.557  0.1211  0.3545  1.6453
  117SOL     ow  465   1.473   0.434   5.320 -0.3494 -0.2348 -0.2329
  117SOL     hw  466   1.544   0.424   5.383 -1.1158 -0.3322  0.6398
  117SOL     hw  467   1.395   0.447   5.374 -0.5314  3.5949 -1.0978
  117SOL     vw  468   1.472   0.435   5.335 -0.4746  0.2576 -0.2320
  118SOL     ow  469   3.898   5.610   0.526 -0.1985 -0.4595 -0.0245
  118SOL     hw  470   3.921   5.692   0.482  0.1096  0.1148  1.1582
  118SOL     hw  471   3.958   5.546   0.488 -0.3031 -0.1047 -0.8168
  118SOL     vw  472   3.909   5.613   0.515 -0.1715 -0.3369  0.0270
  119SOL     ow  473   3.722   6.334   5.178  0.4091 -0.1504  0.2665
  119SOL     hw  474   3.642   6.358   5.225 -0.7589  0.0719 -1.7175
  119SOL     hw  475   3.788   6.395   5.211 -0.5975  0.6368  0.9148
  119SOL     vw  476   3.720   6.345   5.189  0.1223 -0.0174  0.0904
  120SOL     ow  477   1.996   3.984   5.100 -0.1016 -0.2013  0.1199
  120SOL     hw  478   2.062   4.042   5.061 -0.7652 -0.4561 -1.4784
  120SOL     hw  479   1.917   4.038   5.106 -0.6797 -0.8612 -1.2300
  120SOL     vw  480   1.995   3.999   5.096 -0.2654 -0.3220 -0.2689
  121SOL     ow  481   4.858   2.405   6.068  0.3538  0.9217 -0.0975
  121SOL     hw  482   4.800   2.410   6.144  2.1629 -3.2058  1.8634
  121SOL     hw  483   4.808   2.357   6.002 -0.4959  2.7515 -0.8562
  121SOL     vw  484   4.844   2.399   6.069  0.4807  0.6185  0.0608
  122SOL     ow  485   0.469   4.719   1.785  0.2511 -0.2716 -0.0486
  122SOL     hw  486   0.550   4.671   1.805  2.1544  2.7984  0.3000
  122SOL     hw  487   0.487   4.760   1.700 -1.7522 -0.9704 -0.8696
  122SOL     vw  488   0.482   4.718   1.776  0.2379  0.0415 -0.1109
  123SOL     ow  489   5.552   1.994   4.562  0.0487 -1.2274 -0.5592
  123SOL     hw  490   5.523   1.931   4.628  0.4905 -1.8005 -0.8976
  123SOL     hw  491   5.606   2.056   4.609 -0.5083 -1.0086 -0.1927
  123SOL     vw  492   5.555   1.994   4.577  0.0339 -1.2742 -0.5555
  124SOL     ow  493   4.030   6.466   4.831 -0.3224  0.3871  0.6002
  124SOL     hw  494   4.111   6.511   4.856  0.1814  0.6896 -1.4021
  124SOL     hw  495   3.962   6.509   4.882  0.3841  2.2411  0.0551
  124SOL     vw  496   4.032   6.478   4.841 -0.1626  0.6719  0.2639
  125SOL     ow  497   3.020   1.213   5.754  0.4828  0.4854  0.1992
  125SOL     hw  498   3.073   1.286   5.723  1.3573 -0.2317 -0.0157
  125SOL     hw  499   2.964   1.191   5.680  1.9149 -0.6161 -0.6020
  125SOL     vw  500   3.019   1.220   5.740  0.7870  0.2455  0.0653
  126SOL     ow  501   2.971   1.166   3.501  0.0516 -1.0413  0.4277
  126SOL     hw  502   2.880   1.136   3.496 -0.1996 -0.1442 -0.7413
  126SOL     hw  503   2.968   1.257   3.471  1.2323 -0.7709  1.0802
  126SOL     vw  504   2.958   1.174   3.496  0.1743 -0.8872  0.3594
  127SOL     ow  505   1.528   1.205   5.123 -0.1524 -0.0241  0.3183
  127SOL     hw  506   1.458   1.195   5.187  0.2189  1.2895  0.9694
  127SOL     hw  507   1.483   1.221   5.040 -0.6387  0.1660  0.6116
  127SOL     vw  508   1.513   1.206   5.120 -0.1675  0.1742  0.4427
  128SOL     ow  509   3.129   2.650   3.384  0.4155 -0.3393 -0.0228
  128SOL     hw  510   3.209   2.601   3.372 -0.2041 -1.5523  0.5943
  128SOL     hw  511   3.098   2.669   3.296  0.5829 -1.2075 -0.2751
  128SOL     vw  512   3.135   2.646   3.371  0.3560 -0.6138  0.0253
  129SOL     ow  513   5.816   2.506   2.606  0.2955 -0.7447  0.6655
  129SOL     hw  514   5.868   2.427   2.594  0.0986 -0.5889 -1.6161
  129SOL     hw  515   5.869   2.576   2.569 -0.7219 -0.2753  0.0561
  129SOL     vw  516   5.830   2.505   2.600  0.1354 -0.6621  0.2842
  130SOL     ow  517   2.976   5.388   3.401  0.1676 -0.7331 -0.3830
  130SOL     hw  518   3.048   5.408   3.341  0.9032 -0.9329  0.4095
  130SOL     hw  519   2.930   5.315   3.361  0.5540 -0.7618 -0.7758
  130SOL     vw  520   2.979   5.381   3.388  0.3158 -0.7629 -0.3302
  131SOL     ow  521   3.226   2.410   2.553  0.1572  0.3319  0.2575
  131SOL     hw  522   3.206   2.351   2.626 -0.3046 -0.1491 -0.2523
  131SOL     hw  523   3.150   2.405   2.496  0.6662  0.4145 -0.4455
  131SOL     vw  524   3.214   2.402   2.555  0.1634  0.2793  0.0974
  132SOL     ow  525   5.029   5.872   0.361 -0.1735 -0.2682  0.1829
  132SOL     hw  526   5.027   5.915   0.275 -2.7256 -0.9608 -0.1596
  132SOL     hw  527   4.957   5.912   0.410  0.6408 -0.5680  1.7047
  132SOL     vw  528   5.019   5.883   0.356 -0.4029 -0.3991  0.3385
  133SOL     ow  529   2.153   5.318   0.417 -0.0441  0.3503  0.0514
  133SOL     hw  530   2.212   5.243   0.402 -0.4997  0.2506 -1.4103
  133SOL     hw  531   2.109   5.330   0.333 -3.2254 -0.5161  1.4635
  133SOL     vw  532   2.155   5.310   0.404 -0.5239  0.2229  0.0449
  134SOL     ow  533   6.731   3.786   4.081  0.2068  0.1086 -0.9924
  134SOL     hw  534   6.665   3.722   4.053  1.6342 -0.4584 -3.3327
  134SOL     hw  535   6.684   3.844   4.141 -1.9820 -1.2448 -1.2963
  134SOL     vw  536   6.716   3.785   4.085  0.1063 -0.1448 -1.3413
  135SOL     ow  537   4.595   0.628   0.350  0.5970 -0.0328 -0.4191
  135SOL     hw  538   4.522   0.674   0.393  0.4766 -1.7366  1.3304
  135SOL     hw  539   4.669   0.688   0.359  0.1678  0.3573  0.6828
  135SOL     vw  540   4.595   0.642   0.357  0.5245 -0.2061 -0.0429
  136SOL     ow  541   4.634   3.623   3.318 -0.5889 -0.0493 -0.1665
  136SOL     hw  542   4.669   3.552   3.263 -0.2761  0.1985 -0.2889
  136SOL     hw  543   4.605   3.689   3.255 -1.0025 -0.1213 -0.0559
  136SOL     vw  544   4.635   3.622   3.302 -0.6022 -0.0260 -0.1682
  137SOL     ow  545   2.208   3.971   2.824 -0.2606 -0.5377 -0.0760
  137SOL     hw  546   2.284   4.018   2.788 -1.2135 -0.4931 -2.1622
  137SOL     hw  547   2.164   3.935   2.748 -0.6196 -3.2972  1.3240
  137SOL     vw  548   2.212   3.972   2.809 -0.4336 -0.8960 -0.1665
  138SOL     ow  549   3.490   1.853   4.094 -0.0757  0.2632  0.8503
  138SOL     hw  550   3.492   1.882   4.003 -3.5081 -2.3043 -0.2496
  138SOL     hw  551   3.569   1.799   4.103 -1.1291 -1.9356 -1.6804
  138SOL     vw  552   3.501   1.850   4.083 -0.6676 -0.3657  0.3715
  139SOL     ow  553   2.134   1.811   2.286  0.4136  0.5521 -0.1257
  139SOL     hw  554   2.190   1.736   2.307 -2.8624 -1.4342  2.8356
  139SOL     hw  555   2.056   1.771   2.247 -1.0493  2.4735  0.6726
  139SOL     vw  556   2.131   1.796   2.284 -0.2117  0.5435  0.3703
  140SOL     ow  557   2.148   6.034   3.408 -0.1764 -0.1333  0.5216
  140SOL     hw  558   2.180   6.006   3.322 -3.2362 -1.4316 -0.3195
  140SOL     hw  559   2.216   6.093   3.440  1.8644 -0.8804 -2.0417
  140SOL     vw  560   2.161   6.038   3.401 -0.3110 -0.4029  0.0725
  141SOL     ow  561   5.836   2.145   6.155 -0.5620  0.3353  0.0705
  141SOL     hw  562   5.857   2.204   6.228  0.1387  0.2859 -0.0800
  141SOL     hw  563   5.911   2.086   6.150 -1.0552 -0.2815 -0.0725
  141SOL     vw  564   5.849   2.145   6.164 -0.5345  0.2475  0.0319
  142SOL     ow  565   4.551   0.783   1.259  0.2093 -0.5578  1.6302
  142SOL     hw  566   4.468   0.764   1.302  0.7255  0.1457  2.9841
  142SOL     hw  567   4.611   0.804   1.330  2.1943 -3.2284  0.9022
  142SOL     vw  568   4.548   0.784   1.274  0.5395 -0.8174  1.7127
  143SOL     ow  569   3.617   1.966   3.273 -0.0323  0.2540  0.0229
  143SOL     hw  570   3.576   1.982   3.188  1.3219 -0.7216 -0.8558
  143SOL     hw  571   3.594   2.042   3.325 -1.9115  0.3095 -0.8047
  143SOL     vw  572   3.608   1.978   3.268 -0.1016  0.1326 -0.2022
  144SOL     ow  573   1.776   5.197   1.890 -0.3071 -0.9246  0.3351
  144SOL     hw  574   1.831   5.233   1.959  1.5614 -1.9000 -0.5556
  144SOL     hw  575   1.782   5.259   1.818 -1.3820 -0.4478  0.6262
  144SOL     vw  576   1.784   5.210   1.890 -0.2024 -0.9904  0.2561
  145SOL     ow  577   3.851   3.285   3.497  0.0230  0.3662 -0.1394
  145SOL     hw  578   3.759   3.293   3.523 -0.6019  0.9161 -2.3244
  145SOL     hw  579   3.893   3.362   3.535 -0.3796  0.0927  0.9111
  145SOL     vw  580   3.844   3.297   3.505 -0.1127  0.4027 -0.2891
  146SOL     ow  581   5.630   2.553   1.939 -0.3672  0.5171  0.1258
  146SOL     hw  582   5.663   2.512   1.859 -0.8318  0.4032 -0.0105
  146SOL     hw  583   5.542   2.517   1.949  0.3577 -0.9309  1.7220
  146SOL     vw  584   5.623   2.543   1.930 -0.3328  0.3110  0.3184
  147SOL     ow  585   1.208   4.252   6.652  0.4590  0.4383 -0.1875
  147SOL     hw  586   1.211   4.248   6.748 -0.3408 -0.0552 -0.1727
  147SOL     hw  587   1.204   4.160   6.625  0.4325  0.5854 -0.6858
  147SOL     vw  588   1.208   4.239   6.661  0.3501  0.3924 -0.2515
  148SOL     ow  589   4.220   2.336   4.520  0.2367  0.2877 -0.3855
  148SOL     hw  590   4.287   2.277   4.485 -0.6637 -0.3712 -1.0500
  148SOL     hw  591   4.152   2.277   4.554 -0.1211  0.9406  0.0342
  148SOL     vw  592   4.220   2.320   4.520  0.0708  0.2869 -0.4179
  149SOL     ow  593   1.959   4.425   4.657 -0.5050 -0.2500  1.1865
  149SOL     hw  594   1.916   4.450   4.739 -0.4491  0.3289  1.0431
  149SOL     hw  595   2.051   4.414   4.680 -0.2899  0.9617  1.0057
  149SOL     vw  596   1.965   4.427   4.671 -0.4693 -0.0136  1.1437
  150SOL     ow  597   6.592   3.951   3.849 -0.4744  0.7694 -0.0362
  150SOL     hw  598   6.596   3.996   3.933 -1.4805 -1.9448  1.6180
  150SOL     hw  599   6.674   3.901   3.845 -0.8582  0.1319 -0.1567
  150SOL     vw  600   6.604   3.950   3.859 -0.6576  0.3271  0.1662
  151SOL     ow  601   3.096   4.836   0.847  0.0356  0.2597 -0.4481
  151SOL     hw  602   3.064   4.925   0.860 -0.6769 -0.0521  0.0418
  151SOL     hw  603   3.191   4.842   0.854 -0.0915  0.6916  1.5012
  151SOL     vw  604   3.104   4.848   0.849 -0.0752  0.2754 -0.1262
  152SOL     ow  605   6.452   3.163   4.927 -0.2811 -0.4014 -0.6955
  152SOL     hw  606   6.413   3.249   4.940 -1.2822 -0.7847 -1.0368
  152SOL     hw  607   6.424   3.113   5.004 -0.4754 -0.6744 -0.9380
  152SOL     vw  608   6.443   3.168   4.939 -0.4387 -0.4879 -0.7725
  153SOL     ow  609   4.963   6.177   0.788  0.1473 -0.1603 -1.0368
  153SOL     hw  610   4.888   6.203   0.734 -0.8450  1.0633  0.8203
  153SOL     hw  611   4.942   6.089   0.818 -0.7988  0.3644 -0.1317
  153SOL     vw  612   4.950   6.169   0.784 -0.1085  0.0703 -0.6723
  154SOL     ow  613   0.314   6.196   2.067 -0.0321  0.7417  0.2323
  154SOL     hw  614   0.343   6.112   2.102 -3.6203  0.0114  1.9314
  154SOL     hw  615   0.335   6.259   2.137 -1.3829  0.4121  0.9640
  154SOL     vw  616   0.321   6.194   2.081 -0.6838  0.6020  0.5529
  155SOL     ow  617   0.991   2.030   6.209  1.2029  0.0158 -0.6108
  155SOL     hw  618   0.943   2.088   6.150  0.5781  0.4505  0.2950
  155SOL     hw  619   1.025   1.960   6.152 -1.0033 -0.6554 -1.2172
  155SOL     vw  620   0.989   2.028   6.194  0.8294 -0.0153 -0.5710
  156SOL     ow  621   0.088   3.657   0.641  0.1817 -0.2697  0.5974
  156SOL     hw  622   0.024   3.594   0.607  1.4239 -1.8531  1.0517
  156SOL     hw  623   0.088   3.641   0.736  1.7052 -0.7780  0.5383
  156SOL     vw  624   0.079   3.646   0.649  0.5466 -0.5456  0.6496
  157SOL     ow  625   3.406   1.562   5.283 -0.0100 -0.0109  0.4322
  157SOL     hw  626   3.377   1.533   5.369 -0.3835  2.3030  1.1413
  157SOL     hw  627   3.373   1.651   5.274  2.2230  0.7844 -1.0112
  157SOL     vw  628   3.398   1.570   5.293  0.2352  0.3993  0.3352
  158SOL     ow  629   1.384   2.265   3.600  0.0581 -0.4962 -0.4967
  158SOL     hw  630   1.328   2.239   3.527  1.5117 -4.1280 -0.5164
  158SOL     hw  631   1.452   2.319   3.559 -0.7916 -0.0031 -1.2881
  158SOL     vw  632   1.386   2.269   3.585  0.1377 -0.9103 -0.6037
  159SOL     ow  633   3.614   2.901   2.172  0.1128  0.2790 -0.1236
  159SOL     hw  634   3.594   2.862   2.257  1.6170  1.2473  0.7085
  159SOL     hw  635   3.564   2.848   2.109 -2.0393  0.3359  1.4417
  159SOL     vw  636   3.605   2.889   2.175  0.0274  0.4141  0.1926
  160SOL     ow  637   1.638   1.156   6.872 -0.4673 -0.2597  0.1240
  160SOL     hw  638   1.612   1.067   6.849 -0.4217  0.1921 -1.8740
  160SOL     hw  639   1.624   1.207   6.792  2.6031  0.8736  0.1568
  160SOL     vw  640   1.633   1.151   6.858 -0.0562 -0.0505 -0.1352
  161SOL     ow  641   3.483   6.522   6.851  0.1266  0.1488 -0.1891
  161SOL     hw  642   3.425   6.489   6.920  1.3389  2.0399  1.8515
  161SOL     hw  643   3.541   6.448   6.832  0.4794 -0.1131  1.6654
  161SOL     vw  644   3.483   6.508   6.858  0.3330  0.3638  0.3250
  162SOL     ow  645   2.935   3.521   3.680 -0.8001  0.1129 -0.7634
  162SOL     hw  646   2.875   3.527   3.606 -1.3032 -0.1236 -0.3785
  162SOL     hw  647   2.981   3.438   3.667 -0.4910  0.3336 -1.1014
  162SOL     vw  648   2.933   3.511   3.669 -0.8258  0.1110 -0.7571
  163SOL     ow  649   3.173   5.933   4.171 -0.5693 -0.0527 -0.2068
  163SOL     hw  650   3.144   5.984   4.096  0.1156 -0.7923 -0.9967
  163SOL     hw  651   3.128   5.972   4.246 -0.1976  1.5972 -0.7939
  163SOL     vw  652   3.163   5.945   4.171 -0.4299  0.0675 -0.3886
  164SOL     ow  653   2.572   0.134   1.028 -0.4289  0.1621 -0.3759
  164SOL     hw  654   2.567   0.041   1.008 -1.2076  0.6200 -2.5668
  164SOL     hw  655   2.549   0.178   0.946 -0.5970  2.2875  0.7296
  164SOL     vw  656   2.568   0.128   1.015 -0.5537  0.5030 -0.5191
  165SOL     ow  657   0.904   1.968   6.483 -0.6179 -0.1406 -0.5186
  165SOL     hw  658   0.906   1.945   6.576  0.7270  1.1912 -0.1773
  165SOL     hw  659   0.880   1.887   6.439 -0.7266 -0.9405  0.9526
  165SOL     vw  660   0.901   1.954   6.489 -0.4548 -0.0705 -0.2794
  166SOL     ow  661   4.413   1.245   5.926 -0.4101 -0.0149  0.3041
  166SOL     hw  662   4.424   1.317   5.988  0.6110  0.8037 -0.7933
  166SOL     hw  663   4.471   1.267   5.853 -0.6931 -1.5490 -0.4149
  166SOL     vw  664   4.422   1.257   5.925 -0.3123 -0.1093  0.0646
  167SOL     ow  665   5.415   0.171   0.178 -0.1190  0.1567 -0.2887
  167SOL     hw  666   5.365   0.211   0.108 -0.7663 -0.0585  0.0437
  167SOL     hw  667   5.389   0.219   0.257 -0.2728 -0.3523 -0.0194
  167SOL     vw  668   5.405   0.182   0.179 -0.2246  0.0612 -0.2093
  168SOL     ow  669   2.646   5.535   2.384 -0.2800  0.5542 -0.0091
  168SOL     hw  670   2.696   5.586   2.320 -1.3953 -0.4520 -1.7693
  168SOL     hw  671   2.598   5.471   2.331 -1.2879 -0.3090  1.8586
  168SOL     vw  672   2.646   5.533   2.369 -0.5602  0.3078  0.0051
  169SOL     ow  673   0.781   3.141   2.230 -0.4399 -0.3666 -0.0817
  169SOL     hw  674   0.860   3.115   2.276  0.3898  2.5982  0.3659
  169SOL     hw  675   0.728   3.185   2.296 -3.1172 -3.2579 -0.0654
  169SOL     vw  676   0.784   3.143   2.245 -0.6837 -0.3569 -0.0205
  170SOL     ow  677   1.713   6.548   5.648  0.1031  0.1050  0.3697
  170SOL     hw  678   1.666   6.465   5.639  0.7363 -0.1746 -0.5411
  170SOL     hw  679   1.684   6.583   5.732 -1.3610 -0.2929  0.0706
  170SOL     vw  680   1.703   6.542   5.658 -0.0066  0.0157  0.2100
  171SOL     ow  681   4.876   3.227   2.248 -0.1728  0.3832 -0.3850
  171SOL     hw  682   4.781   3.222   2.240 -0.1628 -2.9136  0.2476
  171SOL     hw  683   4.909   3.191   2.166  0.2988 -4.1297  1.5206
  171SOL     vw  684   4.868   3.222   2.236 -0.1090 -0.6471 -0.0501
  172SOL     ow  685   3.517   6.153   6.151 -0.0023 -0.3831 -0.0692
  172SOL     hw  686   3.427   6.180   6.134  0.6623  2.5572  0.5391
  172SOL     hw  687   3.524   6.152   6.246  1.4088  2.9546  0.0016
  172SOL     vw  688   3.506   6.156   6.161  0.2717  0.4451  0.0205
  173SOL     ow  689   2.458   0.116   1.315  0.3997  0.1582  0.0541
  173SOL     hw  690   2.452   0.100   1.409 -0.4967 -0.4752 -0.1052
  173SOL     hw  691   2.384   0.069   1.277 -0.1172  1.6006 -0.8252
  173SOL     vw  692   2.448   0.108   1.323  0.2133  0.2649 -0.0829
  174SOL     ow  693   6.480   5.330   3.799 -0.1043  0.3024 -0.2161
  174SOL     hw  694   6.472   5.238   3.825 -0.3856  0.3843 -0.0163
  174SOL     hw  695   6.403   5.347   3.746 -2.0713  1.4465  2.7726
  174SOL     vw  696   6.469   5.320   3.796 -0.4008  0.4642  0.2047
  175SOL     ow  697   6.138   4.998   1.416  0.2624  0.3629  0.3349
  175SOL     hw  698   6.148   5.026   1.507  3.4427  0.5093  0.0501
  175SOL     hw  699   6.091   4.915   1.422 -2.4043  1.8455  1.7753
  175SOL     vw  700   6.134   4.991   1.429  0.3300  0.5779  0.4874
  176SOL     ow  701   0.744   1.238   3.667 -0.9370 -0.0466  0.1505
  176SOL     hw  702   0.811   1.229   3.735 -0.0073  0.7757 -0.6127
  176SOL     hw  703   0.779   1.189   3.593 -2.2682 -1.5398  0.4520
  176SOL     vw  704   0.758   1.230   3.666 -0.9900 -0.1351  0.0896
  177SOL     ow  705   4.072   2.071   4.545  0.2072  0.0230 -0.1509
  177SOL     hw  706   4.034   2.098   4.629 -0.9355 -2.2424  0.1225
  177SOL     hw  707   4.161   2.044   4.566  0.9675  2.2563 -0.2364
  177SOL     vw  708   4.079   2.071   4.559  0.1569  0.0188 -0.1259
  178SOL     ow  709   6.497   4.710   2.364 -0.0354  0.0433  0.1140
  178SOL     hw  710   6.431   4.780   2.363  0.8981  0.9469 -0.7440
  178SOL     hw  711   6.574   4.750   2.323  0.8924 -1.1390  0.6676
  178SOL     vw  712   6.499   4.725   2.359  0.2103  0.0067  0.0737
  179SOL     ow  713   0.407   6.243   0.274  0.3479 -0.0950  0.2529
  179SOL     hw  714   0.480   6.274   0.328 -0.8241  1.3311  1.0958
  179SOL     hw  715   0.368   6.172   0.325  1.5999 -1.4356 -0.5825
  179SOL     vw  716   0.412   6.238   0.288  0.3585 -0.0837  0.2539
  180SOL     ow  717   3.861   4.300   4.992 -0.6711 -0.4403 -0.8190
  180SOL     hw  718   3.916   4.240   4.942  1.7269  1.0843 -0.1772
  180SOL     hw  719   3.775   4.296   4.949  0.3433 -1.7568 -2.8528
  180SOL     vw  720   3.857   4.292   4.980 -0.2209 -0.4127 -1.0028
  181SOL     ow  721   3.166   0.645   1.564  0.0885 -0.2376  0.3187
  181SOL     hw  722   3.162   0.622   1.471 -0.6277  0.9427  0.0366
  181SOL     hw  723   3.204   0.568   1.607 -0.8564 -1.3316 -0.7693
  181SOL     vw  724   3.171   0.632   1.558 -0.1307 -0.2262  0.1380
  182SOL     ow  725   0.653   3.976   6.247  0.4860  0.2187  0.5797
  182SOL     hw  726   0.743   3.962   6.275  1.9265  2.2179 -2.4392
  182SOL     hw  727   0.660   3.989   6.152 -3.2436 -1.2828 -0.0686
  182SOL     vw  728   0.666   3.976   6.238  0.1840  0.2843  0.0956
  183SOL     ow  729   6.269   2.635   6.481  0.2543  0.3157 -0.1657
  183SOL     hw  730   6.337   2.573   6.453  1.5151  0.3978  2.4035
  183SOL     hw  731   6.272   2.705   6.416  0.8989 -0.8677 -1.4593
  183SOL     vw  732   6.279   2.636   6.469  0.5057  0.1705  0.0026
  184SOL     ow  733   4.067   2.752   5.749 -0.0291 -0.5486  0.6301
  184SOL     hw  734   4.079   2.763   5.654 -1.0695 -1.3502  0.3758
  184SOL     hw  735   4.148   2.712   5.779  0.5555  0.2818  0.1898
  184SOL     vw  736   4.079   2.748   5.740 -0.0892 -0.5448  0.5388
  185SOL     ow  737   2.595   6.458   4.126 -0.0005  0.4208  0.2648
  185SOL     hw  738   2.568   6.370   4.100 -0.5491  0.6639  0.0094
  185SOL     hw  739   2.622   6.501   4.045  0.6696  0.3531  0.4447
  185SOL     vw  740   2.595   6.452   4.112  0.0155  0.4439  0.2551
  186SOL     ow  741   4.908   4.676   1.801  0.0681 -0.4277  0.4637
  186SOL     hw  742   4.944   4.764   1.787 -0.0197 -0.5327 -0.4864
  186SOL     hw  743   4.858   4.657   1.721  1.8717 -2.2071 -0.3259
  186SOL     vw  744   4.906   4.685   1.789  0.2942 -0.6762  0.2342
  187SOL     ow  745   5.117   6.446   1.105 -0.4918 -0.2219  0.6834
  187SOL     hw  746   5.071   6.402   1.177 -1.1520 -0.7830 -0.0619
  187SOL     hw  747   5.150   6.527   1.144  0.1374 -1.0299  1.9001
  187SOL     vw  748   5.115   6.451   1.120 -0.4959 -0.4025  0.7457
  188SOL     ow  749   5.563   1.947   3.323 -1.1386  0.4808 -0.1856
  188SOL     hw  750   5.611   1.960   3.241  1.1593  1.1934  1.1630
  188SOL     hw  751   5.561   2.034   3.363 -1.3980 -0.0251  0.9452
  188SOL     vw  752   5.569   1.960   3.317 -0.8700  0.5080  0.1414
  189SOL     ow  753   6.202   4.941   4.830 -0.1256 -0.0457  0.3926
  189SOL     hw  754   6.123   4.975   4.789  0.1665 -0.7433 -0.7823
  189SOL     hw  755   6.271   5.003   4.806  0.3772 -1.2993 -1.6253
  189SOL     vw  756   6.201   4.953   4.822 -0.0205 -0.3033 -0.0288
  190SOL     ow  757   4.093   1.248   5.473 -0.1185 -0.1208  0.1695
  190SOL     hw  758   4.052   1.325   5.513 -1.4865 -0.8128  0.1541
  190SOL     hw  759   4.051   1.173   5.516  2.9255 -0.9406  1.9920
  190SOL     vw  760   4.082   1.248   5.484  0.1028 -0.3203  0.4082
  191SOL     ow  761   6.365   5.777   3.219  0.7008 -0.0589 -0.3298
  191SOL     hw  762   6.313   5.729   3.155  0.0576  0.5008 -0.2382
  191SOL     hw  763   6.324   5.756   3.303  1.8775 -1.2431  0.0002
  191SOL     vw  764   6.353   5.768   3.222  0.7713 -0.1411 -0.2739
  192SOL     ow  765   6.725   2.954   6.861 -0.7175  0.1100 -0.4065
  192SOL     hw  766   6.784   3.029   6.853 -2.2728  1.3925 -0.2657
  192SOL     hw  767   6.776   2.890   6.911 -0.1806  2.0225  1.6728
  192SOL     vw  768   6.739   2.955   6.867 -0.8516  0.5317 -0.1135
  193SOL     ow  769   0.268   1.861   4.304  0.1508 -0.2132  0.6919
  193SOL     hw  770   0.302   1.881   4.391 -0.7659  0.4873  0.9151
  193SOL     hw  771   0.306   1.776   4.282 -0.9136 -1.2398  2.5189
  193SOL     vw  772   0.277   1.853   4.312 -0.1106 -0.2562  0.9623
  194SOL     ow  773   2.864   4.310   3.832  0.5200  0.0938 -0.9761
  194SOL     hw  774   2.873   4.225   3.790 -1.5443 -0.7653  0.1725
  194SOL     hw  775   2.786   4.302   3.887  1.3196  2.1370  0.6079
  194SOL     vw  776   2.855   4.298   3.834  0.3532  0.2499 -0.6155
  195SOL     ow  777   5.039   6.444   1.798  0.7976  0.8163  0.4086
  195SOL     hw  778   4.994   6.409   1.721 -0.7726  1.7901  0.8324
  195SOL     hw  779   5.007   6.388   1.870  1.5203  0.5097  0.4951
  195SOL     vw  780   5.029   6.432   1.798  0.6859  0.9046  0.4759
  196SOL     ow  781   5.562   4.991   2.291  0.5150 -0.8791  0.0247
  196SOL     hw  782   5.655   5.004   2.305  0.5266 -1.2416  0.2912
  196SOL     hw  783   5.530   5.075   2.258  0.7700 -0.4845  0.7758
  196SOL     vw  784   5.570   5.004   2.289  0.5500 -0.8748  0.1589
  197SOL     ow  785   2.765   3.609   0.223 -0.1050 -0.4166 -0.4403
  197SOL     hw  786   2.844   3.567   0.190  0.8132 -0.9345  2.2045
  197SOL     hw  787   2.696   3.544   0.211  0.4880 -1.1303 -0.0563
  197SOL     vw  788   2.766   3.595   0.217  0.0944 -0.5790 -0.0407
  198SOL     ow  789   3.032   3.788   5.282  0.1662  0.1265 -0.0372
  198SOL     hw  790   3.028   3.694   5.300  0.4761  0.0770 -0.2125
  198SOL     hw  791   3.096   3.821   5.345  2.2403 -0.2576 -1.8198
  198SOL     vw  792   3.040   3.780   5.293  0.4808  0.0693 -0.2956
  199SOL     ow  793   0.266   4.709   2.881 -0.5529 -0.2277  0.1560
  199SOL     hw  794   0.317   4.754   2.948 -0.8406  0.6546 -0.2026
  199SOL     hw  795   0.242   4.625   2.921 -1.1433  0.4913  1.3466
  199SOL     vw  796   0.270   4.704   2.895 -0.6688 -0.0165  0.2660
  200SOL     ow  797   5.305   0.201   3.503 -0.0521  0.1074  0.8721
  200SOL     hw  798   5.346   0.242   3.427  1.3221 -2.7781 -0.0841
  200SOL     hw  799   5.213   0.192   3.478 -0.2262  1.7642  0.7965
  200SOL     vw  800   5.298   0.206   3.489  0.1061 -0.0547  0.7359
  201SOL     ow  801   3.555   1.701   5.887 -0.6814  0.8249 -0.5346
  201SOL     hw  802   3.516   1.736   5.807 -2.8823 -1.6962 -0.6900
  201SOL     hw  803   3.620   1.638   5.857 -2.1334 -0.7955 -0.4731
  201SOL     vw  804   3.558   1.697   5.873 -1.1635  0.2785 -0.5469
  202SOL     ow  805   0.139   0.472   2.435  0.3849  0.3839  0.6896
  202SOL     hw  806   0.134   0.436   2.523  2.1823  1.1443  1.1455
  202SOL     hw  807   0.226   0.449   2.404 -0.5340 -0.6928 -1.2921
  202SOL     vw  808   0.150   0.464   2.442  0.5008  0.3422  0.4882
  203SOL     ow  809   4.937   2.847   0.582 -0.1089 -0.0291 -0.2451
  203SOL     hw  810   4.887   2.805   0.512 -1.9362  1.1799  0.2596
  203SOL     hw  811   5.020   2.872   0.541 -0.5146 -0.7291 -1.5480
  203SOL     vw  812   4.941   2.845   0.567 -0.4034  0.0383 -0.3504
  204SOL     ow  813   1.465   5.543   6.869 -0.5678  0.4424 -0.0933
  204SOL     hw  814   1.400   5.473   6.867  0.8535 -0.9140 -0.5612
  204SOL     hw  815   1.479   5.566   6.777 -0.4589  0.7951  0.0110
  204SOL     vw  816   1.459   5.537   6.857 -0.3659  0.3099 -0.1411
  205SOL     ow  817   3.190   6.226   0.650 -0.0956 -0.2618  0.8513
  205SOL     hw  818   3.268   6.179   0.680 -0.6749 -1.8990 -0.0595
  205SOL     hw  819   3.206   6.242   0.557 -0.9627 -0.9556  0.5598
  205SOL     vw  820   3.203   6.222   0.642 -0.2865 -0.5693  0.6926
  206SOL     ow  821   3.497   5.348   1.861  0.2178 -0.0821 -0.1499
  206SOL     hw  822   3.585   5.385   1.855  0.3747 -0.4688 -0.2197
  206SOL     hw  823   3.490   5.291   1.785 -0.5309  0.8741 -0.8326
  206SOL     vw  824   3.508   5.346   1.850  0.1397 -0.0072 -0.2492
  207SOL     ow  825   1.332   4.151   3.375  0.5977 -0.7306 -0.7427
  207SOL     hw  826   1.409   4.131   3.321  0.6500 -0.0617 -0.9209
  207SOL     hw  827   1.258   4.147   3.315  0.5456 -0.9251 -0.6657
  207SOL     vw  828   1.333   4.148   3.360  0.5977 -0.6680 -0.7561
  208SOL     ow  829   6.791   5.537   2.449 -0.3922  0.1450 -0.5314
  208SOL     hw  830   6.753   5.532   2.361 -0.0352 -0.4680 -0.6507
  208SOL     hw  831   6.884   5.523   2.436 -0.6034 -2.4781  0.1820
  208SOL     vw  832   6.798   5.535   2.436 -0.3729 -0.2820 -0.4531
  209SOL     ow  833   5.998   5.265   1.412 -0.5966 -0.3662 -0.3878
  209SOL     hw  834   6.006   5.323   1.488  1.7635 -0.7662 -0.2683
  209SOL     hw  835   5.904   5.248   1.406 -0.9263  0.0759  2.1521
  209SOL     vw  836   5.987   5.270   1.422 -0.3290 -0.3605 -0.0369
  210SOL     ow  837   2.243   1.203   1.661 -0.2202 -1.1537 -0.3209
  210SOL     hw  838   2.262   1.135   1.596  1.0838 -1.9092  0.7947
  210SOL     hw  839   2.157   1.237   1.636 -0.1050 -1.9691 -1.9546
  210SOL     vw  840   2.234   1.199   1.649 -0.0330 -1.3610 -0.3893
  211SOL     ow  841   0.741   0.161   3.755 -0.3962 -0.1567 -0.1184
  211SOL     hw  842   0.801   0.186   3.685 -2.0702  1.4716 -1.0690
  211SOL     hw  843   0.736   0.065   3.748 -0.1767 -0.0822 -1.9863
  211SOL     vw  844   0.748   0.152   3.745 -0.5881  0.0680 -0.4902
  212SOL     ow  845   1.806   3.141   1.638  0.8269  0.0344 -0.1179
  212SOL     hw  846   1.793   3.206   1.570 -0.4385 -0.7747 -0.6898
  212SOL     hw  847   1.880   3.174   1.689  0.5072  1.6690 -0.6550
  212SOL     vw  848   1.814   3.154   1.636  0.6177  0.1433 -0.2642
  213SOL     ow  849   5.214   0.192   5.511 -0.1653 -0.7756 -0.1584
  213SOL     hw  850   5.289   0.134   5.493  0.9299 -0.2692  2.3399
  213SOL     hw  851   5.152   0.136   5.558 -0.3995 -0.6607 -0.3342
  213SOL     vw  852   5.216   0.177   5.515 -0.0515 -0.6936  0.1478
  214SOL     ow  853   4.542   4.589   0.940  0.3164 -0.3954 -0.6233
  214SOL     hw  854   4.521   4.526   0.872  3.7449 -0.7135 -1.5798
  214SOL     hw  855   4.545   4.537   1.021  1.3073 -1.1017 -1.1016
  214SOL     vw  856   4.540   4.574   0.942  0.8991 -0.5307 -0.8126
  215SOL     ow  857   1.043   3.717   0.228 -0.2345 -0.4368  0.8140
  215SOL     hw  858   0.955   3.717   0.191 -0.1168  1.6469  0.4316
  215SOL     hw  859   1.047   3.637   0.281 -2.1718 -0.8144  0.4453
  215SOL     vw  860   1.032   3.706   0.230 -0.4745 -0.2116  0.7149
  216SOL     ow  861   6.227   1.779   1.263  0.0782 -0.2838  0.4221
  216SOL     hw  862   6.236   1.850   1.327  2.6990  1.6758 -1.8935
  216SOL     hw  863   6.298   1.719   1.284  0.5468  0.0326 -0.2428
  216SOL     vw  864   6.237   1.780   1.274  0.4859  0.0165  0.0288
  217SOL     ow  865   1.225   0.551   0.790  0.0296 -0.3191 -0.7034
  217SOL     hw  866   1.244   0.476   0.845 -0.7444  0.1077  0.1792
  217SOL     hw  867   1.311   0.587   0.767  0.3736 -0.8220 -0.2179
  217SOL     vw  868   1.239   0.546   0.794 -0.0272 -0.3291 -0.5229
  218SOL     ow  869   4.685   5.385   1.337 -0.3211  0.0758 -0.1017
  218SOL     hw  870   4.589   5.392   1.342 -0.3453 -0.9567  3.5090
  218SOL     hw  871   4.703   5.293   1.356  1.4234  0.2460 -0.7975
  218SOL     vw  872   4.675   5.374   1.340 -0.0942 -0.0379  0.2829
  219SOL     ow  873   4.623   3.190   3.882 -0.2777 -0.0292  0.8788
  219SOL     hw  874   4.586   3.207   3.969  1.9337 -0.4232  1.9656
  219SOL     hw  875   4.718   3.186   3.896  0.1102 -0.7905 -1.4541
  219SOL     vw  876   4.631   3.192   3.895  0.0653 -0.1816  0.7144
  220SOL     ow  877   3.368   5.545   5.152 -0.1189  0.5914 -0.7684
  220SOL     hw  878   3.425   5.493   5.095 -1.4713  0.2159 -1.8358
  220SOL     hw  879   3.425   5.573   5.223  0.1515 -4.8101  1.5939
  220SOL     vw  880   3.383   5.542   5.154 -0.2618 -0.1709 -0.5975
  221SOL     ow  881   2.574   0.578   1.702 -0.1438 -0.0267  0.1146
  221SOL     hw  882   2.585   0.643   1.632  1.0658 -0.8146 -0.4570
  221SOL     hw  883   2.657   0.581   1.750  0.4060 -1.9032 -0.6121
  221SOL     vw  884   2.587   0.587   1.699  0.0883 -0.3783 -0.0567
  222SOL     ow  885   0.155   1.726   2.295 -0.4949  0.8005  0.5022
  222SOL     hw  886   0.169   1.799   2.356 -1.8179  0.5067  1.1771
  222SOL     hw  887   0.062   1.729   2.274  0.2174  2.2081 -3.2406
  222SOL     vw  888   0.145   1.736   2.301 -0.5755  0.9475  0.0974
  223SOL     ow  889   4.391   5.260   0.052  0.2885 -0.8090  0.2291
  223SOL     hw  890   4.324   5.255   0.119 -1.1162 -1.1786 -1.1489
  223SOL     hw  891   4.416   5.353   0.049 -1.5157 -0.3161 -0.4990
  223SOL     vw  892   4.386   5.272   0.061 -0.1349 -0.7925 -0.0488
  224SOL     ow  893   6.683   5.245   1.345  0.2236  0.5246  1.4512
  224SOL     hw  894   6.717   5.230   1.257  0.4846 -0.2028  1.6673
  224SOL     hw  895   6.700   5.163   1.391 -0.7353  0.5744  1.9159
  224SOL     vw  896   6.690   5.232   1.339  0.1314  0.4351  1.5411
  225SOL     ow  897   4.659   6.487   2.253  0.1685 -0.5146 -0.3090
  225SOL     hw  898   4.594   6.509   2.187 -0.8032  0.5748  0.9541
  225SOL     hw  899   4.665   6.391   2.251 -0.3565 -0.5311 -1.4705
  225SOL     vw  900   4.651   6.477   2.244 -0.0291 -0.3729 -0.2956
  226SOL     ow  901   2.078   5.251   1.247  0.1584 -0.3778 -0.0852
  226SOL     hw  902   2.088   5.173   1.192 -1.0872 -0.1295 -0.6852
  226SOL     hw  903   2.153   5.247   1.307 -0.4475 -2.6066  0.6081
  226SOL     vw  904   2.089   5.240   1.248 -0.0859 -0.6392 -0.0728
  227SOL     ow  905   4.213   3.077   6.497  0.1055 -0.0884  0.3492
  227SOL     hw  906   4.135   3.104   6.545  0.9707  0.8753  1.2486
  227SOL     hw  907   4.198   2.984   6.477 -2.6786  0.7748 -2.3328
  227SOL     vw  908   4.201   3.068   6.501 -0.1478  0.1526  0.1140
  228SOL     ow  909   5.036   6.811   3.220 -0.3664 -0.0595  0.1563
  228SOL     hw  910   4.975   6.752   3.265  0.7893 -0.6595  0.9841
  228SOL     hw  911   5.121   6.791   3.259  0.1260  1.8530  0.1150
  228SOL     vw  912   5.039   6.800   3.231 -0.1493  0.1137  0.2601
  229SOL     ow  913   1.471   2.074   6.458 -0.4537 -0.5521  0.0079
  229SOL     hw  914   1.420   2.080   6.539 -1.7248 -0.6579 -0.7650
  229SOL     hw  915   1.420   2.123   6.394  2.2437  2.6092  0.0321
  229SOL     vw  916   1.457   2.081   6.460 -0.2655 -0.1490 -0.0906
  230SOL     ow  917   1.187   4.585   1.502 -0.0786  0.2956  0.4067
  230SOL     hw  918   1.236   4.608   1.582 -1.0843 -1.1713  1.4872
  230SOL     hw  919   1.245   4.525   1.455  0.1075  0.3797  0.5252
  230SOL     vw  920   1.201   4.580   1.506 -0.1867  0.1132  0.5649
  231SOL     ow  921   2.256   5.336   4.312  0.5151 -0.0303  0.0300
  231SOL     hw  922   2.319   5.267   4.291  2.3155  1.6912 -0.4922
  231SOL     hw  923   2.245   5.332   4.407  3.8819  1.5493  0.6262
  231SOL     vw  924   2.263   5.326   4.322  1.1970  0.4053  0.0398
  232SOL     ow  925   2.693   0.673   2.837  1.1143  0.3995 -0.1238
  232SOL     hw  926   2.661   0.720   2.760  2.2078  1.6194  0.1212
  232SOL     hw  927   2.727   0.742   2.894 -0.7686 -0.3294  2.0353
  232SOL     vw  928   2.694   0.688   2.835  1.0101  0.4643  0.1934
  233SOL     ow  929   5.504   6.386   2.732  0.7739  0.4824 -0.0203
  233SOL     hw  930   5.567   6.315   2.718  0.4475  0.2385 -0.2749
  233SOL     hw  931   5.541   6.461   2.687  1.3740  0.6133  0.6847
  233SOL     vw  932   5.517   6.386   2.724  0.8101  0.4675  0.0392
  234SOL     ow  933   4.408   0.794   0.968  1.1001  0.1448 -0.3465
  234SOL     hw  934   4.440   0.785   0.878 -1.4748 -1.9321 -1.1823
  234SOL     hw  935   4.317   0.823   0.958  0.7269 -0.2440  1.5864
  234SOL     vw  936   4.400   0.796   0.955  0.7112 -0.1805 -0.2017
  235SOL     ow  937   3.686   5.360   0.475 -0.1326  0.5134 -0.0383
  235SOL     hw  938   3.603   5.316   0.458  0.6602 -0.6262 -1.1501
  235SOL     hw  939   3.752   5.299   0.443  1.1071  1.6996  0.1756
  235SOL     vw  940   3.684   5.346   0.469  0.1357  0.5195 -0.1568
  236SOL     ow  941   6.319   1.518   0.223  0.5230 -0.0267 -0.3326
  236SOL     hw  942   6.264   1.513   0.145  0.8392  0.8788 -0.6307
  236SOL     hw  943   6.277   1.460   0.286 -1.2110  1.2058 -0.2813
  236SOL     vw  944   6.306   1.510   0.221  0.3362  0.2553 -0.3652
  237SOL     ow  945   0.811   3.586   1.295 -0.6166 -0.3537 -0.0359
  237SOL     hw  946   0.717   3.576   1.308 -0.6452  1.7734  2.2708
  237SOL     hw  947   0.841   3.634   1.372  2.9282 -3.4786  0.7953
  237SOL     vw  948   0.803   3.591   1.307 -0.1526 -0.4853  0.3781
  238SOL     ow  949   0.956   2.585   2.700  0.3554 -0.1610 -0.7072
  238SOL     hw  950   0.939   2.561   2.609  1.8603 -1.5486 -0.6732
  238SOL     hw  951   0.891   2.536   2.750 -0.5042  0.6385 -1.0218
  238SOL     vw  952   0.945   2.575   2.694  0.4405 -0.2385 -0.7442
  239SOL     ow  953   1.746   1.156   0.728 -0.1142 -0.3726 -0.8498
  239SOL     hw  954   1.661   1.197   0.710 -0.3931 -0.4639  0.1872
  239SOL     hw  955   1.725   1.082   0.785  0.6879 -0.1660 -0.2610
  239SOL     vw  956   1.732   1.152   0.734 -0.0452 -0.3574 -0.6354
  240SOL     ow  957   2.719   6.172   4.974 -1.0938 -0.0822  0.2210
  240SOL     hw  958   2.657   6.227   4.927 -0.5238  1.4667  1.1662
  240SOL     hw  959   2.805   6.207   4.949 -0.5725 -2.0237 -0.8795
  240SOL     vw  960   2.722   6.184   4.965 -0.9499 -0.1340  0.2007
  241SOL     ow  961   3.515   0.945   0.649  0.1673 -0.2920 -0.7601
  241SOL     hw  962   3.434   0.902   0.622 -0.4844  0.3543  0.1302
  241SOL     hw  963   3.522   1.022   0.593  0.9061 -1.0836 -1.7892
  241SOL     vw  964   3.505   0.949   0.638  0.1788 -0.3112 -0.7784
  242SOL     ow  965   3.005   2.084   6.626  0.6826 -0.1602 -0.2014
  242SOL     hw  966   2.950   2.028   6.681  1.8455 -1.5658 -0.4082
  242SOL     hw  967   3.022   2.032   6.548  2.8742 -0.0765  0.1647
  242SOL     vw  968   3.000   2.070   6.623  1.1251 -0.3347 -0.1800
  243SOL     ow  969   0.137   6.164   0.950  0.1415 -0.0172  0.9980
  243SOL     hw  970   0.171   6.080   0.920 -0.2916 -0.0201  0.4956
  243SOL     hw  971   0.052   6.172   0.908  2.0448  2.8288 -3.0358
  243SOL     vw  972   0.131   6.154   0.940  0.3355  0.3579  0.3995
  244SOL     ow  973   5.682   5.564   5.099  0.8241  0.1920  0.5521
  244SOL     hw  974   5.744   5.514   5.046  1.3049 -0.2766  1.5301
  244SOL     hw  975   5.726   5.648   5.114 -0.5771  1.5752 -2.3048
  244SOL     vw  976   5.696   5.568   5.094  0.7026  0.3128  0.3045
  245SOL     ow  977   2.335   4.682   1.761 -0.2203 -0.1040  0.3447
  245SOL     hw  978   2.282   4.708   1.686 -1.8824  0.7263  1.7406
  245SOL     hw  979   2.421   4.719   1.743 -0.3942 -0.4608 -1.4213
  245SOL     vw  980   2.339   4.691   1.749 -0.4624 -0.0417  0.2959
  246SOL     ow  981   1.086   5.628   4.700  0.2773 -0.3704 -0.1840
  246SOL     hw  982   1.050   5.715   4.719  0.4260 -0.8296  2.6064
  246SOL     hw  983   1.011   5.578   4.666 -0.2988  0.3065  0.0648
  246SOL     vw  984   1.071   5.633   4.698  0.2209 -0.3419  0.2167
  247SOL     ow  985   1.141   0.430   0.112  0.4120  0.1442 -0.4155
  247SOL     hw  986   1.225   0.434   0.157  0.9420  1.6386 -1.4532
  247SOL     hw  987   1.103   0.348   0.140  1.7948 -0.1127  0.8326
  247SOL     vw  988   1.147   0.420   0.121  0.6644  0.3074 -0.3877
  248SOL     ow  989   1.113   5.140   4.995  0.1136 -0.6115 -0.0929
  248SOL     hw  990   1.099   5.138   5.089  2.1234 -1.6710  0.2429
  248SOL     hw  991   1.196   5.094   4.982  0.7786  1.0336 -2.2231
  248SOL     vw  992   1.122   5.133   5.006  0.4665 -0.5343 -0.3300
  249SOL     ow  993   1.798   0.149   0.635  0.1461  0.5315 -0.3573
  249SOL     hw  994   1.747   0.180   0.560  0.9564  0.5421 -0.9133
  249SOL     hw  995   1.762   0.197   0.709 -3.8831 -2.7583  0.1880
  249SOL     vw  996   1.786   0.160   0.635 -0.2786  0.0989 -0.3587
  250SOL     ow  997   4.991   5.146   3.034 -0.0240 -0.4927 -0.3138
  250SOL     hw  998   5.051   5.173   2.965 -0.5435 -0.3668 -0.7244
  250SOL     hw  999   4.916   5.109   2.987 -1.6315  2.0945  0.0492
  250SOL     vw 1000   4.989   5.145   3.019 -0.3047 -0.1347 -0.3201
  251SOL     ow 1001   6.442   2.890   6.759  0.3266 -0.3268  0.2802
  251SOL     hw 1002   6.455   2.932   6.674 -2.2321 -0.1001 -0.0706
  251SOL     hw 1003   6.452   2.797   6.742  2.1814 -0.1799  0.2809
  251SOL     vw 1004   6.445   2.883   6.746  0.2339 -0.2776  0.2339
  252SOL     ow 1005   3.712   1.912   5.980  0.6069  0.2546 -0.0557
  252SOL     hw 1006   3.742   1.935   5.892  0.6081 -1.3228 -0.4977
  252SOL     hw 1007   3.753   1.977   6.037 -0.6149  2.2700 -1.3401
  252SOL     vw 1008   3.722   1.924   5.976  0.4458  0.3124 -0.2835
  253SOL     ow 1009   2.189   2.004   0.102 -0.1669 -0.3722  0.4384
  253SOL     hw 1010   2.269   1.954   0.121  0.5079  0.6248  0.2966
  253SOL     hw 1011   2.214   2.063   0.030 -1.0308 -0.0505  0.3904
  253SOL     vw 1012   2.203   2.005   0.095 -0.1918 -0.1981  0.4134
  254SOL     ow 1013   1.457   5.771   5.745 -1.6806 -0.9606  0.0583
  254SOL     hw 1014   1.527   5.711   5.720 -1.6671 -0.9967  0.1809
  254SOL     hw 1015   1.409   5.788   5.664 -1.4063 -0.7782 -0.0663
  254SOL     vw 1016   1.460   5.766   5.731 -1.6427 -0.9413  0.0579
  255SOL     ow 1017   5.729   2.291   5.190 -0.0112 -0.1793  0.5922
  255SOL     hw 1018   5.767   2.228   5.129 -0.1576  0.7278 -0.4802
  255SOL     hw 1019   5.802   2.347   5.215 -0.5425  1.5333 -1.4292
  255SOL     vw 1020   5.743   2.290   5.185 -0.1006  0.1663  0.1841
  256SOL     ow 1021   1.996   5.282   0.956  1.0594  0.4552 -0.3941
  256SOL     hw 1022   1.986   5.195   0.917  1.8807  0.6763 -1.1559
  256SOL     hw 1023   2.091   5.296   0.957  0.9974  0.9112  0.7208
  256SOL     vw 1024   2.007   5.272   0.951  1.1594  0.5445 -0.3475
  257SOL     ow 1025   1.542   4.944   3.523 -0.2994  0.0756  0.3488
  257SOL     hw 1026   1.537   5.034   3.556  1.7249  0.4371 -0.1974
  257SOL     hw 1027   1.596   4.950   3.444 -0.3932 -1.5791  0.1228
  257SOL     vw 1028   1.548   4.957   3.517 -0.0448 -0.0949  0.2468
  258SOL     ow 1029   6.719   6.790   3.221  0.1800  0.0230 -0.8566
  258SOL     hw 1030   6.635   6.836   3.214  0.4194  1.0807  1.8547
  258SOL     hw 1031   6.715   6.747   3.306  2.1346 -0.4372 -0.9533
  258SOL     vw 1032   6.707   6.791   3.231  0.4694  0.1020 -0.5116
  259SOL     ow 1033   0.269   6.461   0.117  0.2087  0.1379  0.5130
  259SOL     hw 1034   0.195   6.464   0.057  0.6602 -2.3954 -0.3284
  259SOL     hw 1035   0.330   6.526   0.083 -1.7250  2.5967  1.4984
  259SOL     vw 1036   0.268   6.470   0.104  0.0131  0.1278  0.5320
  260SOL     ow 1037   4.494   3.707   0.013 -0.0074 -0.5320 -0.1777
  260SOL     hw 1038   4.505   3.617  -0.017  2.1544  0.1984 -1.8363
  260SOL     hw 1039   4.434   3.746  -0.050  1.0796 -0.1838 -1.0456
  260SOL     vw 1040   4.488   3.700   0.001  0.4210 -0.3896 -0.5109
  261SOL     ow 1041   5.963   1.060   4.961 -0.3267 -0.0568  0.0730
  261SOL     hw 1042   5.914   0.987   5.001  0.5509 -0.3981  0.5460
  261SOL     hw 1043   5.929   1.064   4.872  0.4876 -1.8996 -0.3745
  261SOL     vw 1044   5.952   1.051   4.955 -0.1037 -0.3449  0.0768
  262SOL     ow 1045   2.735   5.468   0.329 -0.3632  0.3634  0.6701
  262SOL     hw 1046   2.709   5.377   0.343 -1.2386  0.4185 -0.5469
  262SOL     hw 1047   2.658   5.510   0.293  0.2379  1.4458  0.6215
  262SOL     vw 1048   2.722   5.461   0.326 -0.3996  0.5136  0.5031
  263SOL     ow 1049   1.979   4.987   3.363  0.2262  0.4589  1.0294
  263SOL     hw 1050   2.031   4.975   3.283  1.0889 -0.6883  1.7184
  263SOL     hw 1051   1.889   4.992   3.332  0.6243  1.0733 -0.0919
  263SOL     vw 1052   1.974   4.986   3.348  0.3925  0.3886  0.9724
  264SOL     ow 1053   6.277   4.604   3.585 -0.1163  0.2470  0.1434
  264SOL     hw 1054   6.228   4.553   3.651 -1.9289  1.1817 -0.4046
  264SOL     hw 1055   6.367   4.573   3.594 -0.7158 -1.3370  1.4529
  264SOL     vw 1056   6.282   4.593   3.595 -0.4346  0.1609  0.2438
  265SOL     ow 1057   6.463   3.468   2.079  0.0815 -0.8630  0.4559
  265SOL     hw 1058   6.538   3.528   2.075 -0.3547 -0.3313 -0.0526
  265SOL     hw 1059   6.485   3.399   2.016 -0.1772 -0.3100 -0.2611
  265SOL     vw 1060   6.476   3.467   2.070 -0.0103 -0.7198  0.2941
  266SOL     ow 1061   5.899   0.591   0.290 -0.0553 -0.3408  0.1701
  266SOL     hw 1062   5.986   0.552   0.283  0.7401  1.4590 -0.7504
  266SOL     hw 1063   5.846   0.542   0.227  0.6931 -0.4823 -0.3647
  266SOL     vw 1064   5.904   0.579   0.281  0.1483 -0.1220 -0.0219
  267SOL     ow 1065   3.786   3.144   2.241  0.4072  0.5113 -0.5621
  267SOL     hw 1066   3.712   3.195   2.208  0.8451  0.2854 -1.9425
  267SOL     hw 1067   3.781   3.154   2.336 -1.5494  0.2877 -0.5992
  267SOL     vw 1068   3.775   3.152   2.249  0.2069  0.4519 -0.7491
  268SOL     ow 1069   4.686   5.556   6.506  0.2629  1.0714 -0.2273
  268SOL     hw 1070   4.618   5.597   6.560 -1.1203 -0.1763 -0.9573
  268SOL     hw 1071   4.671   5.589   6.418 -1.0194 -1.0575 -0.8765
  268SOL     vw 1072   4.675   5.566   6.502 -0.0889  0.6261 -0.4091
  269SOL     ow 1073   5.318   0.114   3.793  0.6684 -0.1322 -0.5219
  269SOL     hw 1074   5.311   0.053   3.866 -0.1719  1.2963  0.6544
  269SOL     hw 1075   5.237   0.165   3.796  2.0114  2.1280 -0.4088
  269SOL     vw 1076   5.306   0.113   3.803  0.7348  0.3545 -0.3518
  270SOL     ow 1077   4.369   1.516   2.016  0.4094  0.0680  0.6300
  270SOL     hw 1078   4.355   1.436   2.066  2.1566  0.6477  2.1247
  270SOL     hw 1079   4.448   1.500   1.965 -0.6606 -0.0546 -1.0932
  270SOL     vw 1080   4.377   1.504   2.016  0.4988  0.1283  0.5999
  271SOL     ow 1081   4.759   0.025   3.066  0.6878 -0.4175  0.5383
  271SOL     hw 1082   4.718  -0.059   3.041  2.0193 -0.6368 -1.0826
  271SOL     hw 1083   4.700   0.091   3.030 -0.1523 -0.6353  1.4595
  271SOL     vw 1084   4.746   0.022   3.058  0.7524 -0.4752  0.4461
  272SOL     ow 1085   0.605   1.632   5.945  0.6180  0.6653 -0.1490
  272SOL     hw 1086   0.641   1.619   6.032 -0.1164  0.9737  0.2159
  272SOL     hw 1087   0.520   1.674   5.961  1.9686  4.1315 -1.1268
  272SOL     vw 1088   0.598   1.636   5.959  0.6993  1.1632 -0.2298
  273SOL     ow 1089   3.313   0.580   4.839  0.4646 -0.4569 -0.0995
  273SOL     hw 1090   3.224   0.560   4.812 -0.1331 -0.2377  1.6049
  273SOL     hw 1091   3.347   0.496   4.871  1.2908 -0.7983 -1.7552
  273SOL     vw 1092   3.306   0.566   4.840  0.4947 -0.4730 -0.0930
  274SOL     ow 1093   4.037   4.775   1.670  0.0370  0.4580  0.7075
  274SOL     hw 1094   4.017   4.851   1.723  0.7519  1.3070 -0.2008
  274SOL     hw 1095   4.056   4.705   1.733 -1.2934  0.8347  1.5454
  274SOL     vw 1096   4.037   4.776   1.685 -0.0443  0.6199  0.6982
  275SOL     ow 1097   0.461   6.039   6.009  0.1709  0.8477  0.6972
  275SOL     hw 1098   0.419   6.123   6.031  0.2954  0.8725  0.8352
  275SOL     hw 1099   0.406   6.003   5.939  0.4990  1.3591  0.1662
  275SOL     vw 1100   0.448   6.046   6.003  0.2306  0.9184  0.6456
  276SOL     ow 1101   6.161   0.256   4.794 -0.2009  0.1532  0.3722
  276SOL     hw 1102   6.200   0.198   4.729  0.3553 -2.0123  2.4987
  276SOL     hw 1103   6.233   0.310   4.825  0.8862 -2.4053  2.7858
  276SOL     vw 1104   6.175   0.255   4.789  0.0160 -0.4701  0.9711
  277SOL     ow 1105   4.137   5.920   3.154  0.1474  0.4429  0.1326
  277SOL     hw 1106   4.095   6.005   3.146  1.6259  1.1856 -0.1109
  277SOL     hw 1107   4.107   5.871   3.077 -0.1850  0.9966 -0.0965
  277SOL     vw 1108   4.128   5.925   3.142  0.2987  0.6139  0.0702
  278SOL     ow 1109   0.399   3.841   0.577 -0.9020 -0.0361 -0.4254
  278SOL     hw 1110   0.411   3.881   0.663 -1.4509 -0.0948 -0.3150
  278SOL     hw 1111   0.483   3.799   0.558  0.3538  2.6775 -1.3536
  278SOL     vw 1112   0.411   3.841   0.586 -0.8087  0.3142 -0.5333
  279SOL     ow 1113   4.225   3.298   0.549 -0.3275 -0.3586  0.5696
  279SOL     hw 1114   4.158   3.320   0.485  0.4159 -0.6212 -0.3225
  279SOL     hw 1115   4.234   3.376   0.604  1.4635  1.2730 -1.8046
  279SOL     vw 1116   4.218   3.311   0.548  0.0067 -0.1780  0.1386
  280SOL     ow 1117   3.833   0.091   5.527  0.1783  0.6133  0.2786
  280SOL     hw 1118   3.897   0.021   5.538  0.3282  0.9245  1.5021
  280SOL     hw 1119   3.780   0.088   5.607 -0.0798  1.6217  0.1619
  280SOL     vw 1120   3.834   0.081   5.539  0.1639  0.7874  0.4246
  281SOL     ow 1121   5.151   2.808   0.147  0.5619  0.2079  0.1007
  281SOL     hw 1122   5.146   2.713   0.137  2.6322  0.0480  0.0976
  281SOL     hw 1123   5.145   2.823   0.241  0.7692  0.0159  0.1454
  281SOL     vw 1124   5.150   2.798   0.158  0.8624  0.1615  0.1062
  282SOL     ow 1125   1.034   3.877   6.866 -0.0791 -0.3781  0.0228
  282SOL     hw 1126   0.955   3.929   6.881  1.2298  1.4758  0.7332
  282SOL     hw 1127   1.063   3.902   6.778  2.3782  2.7983  1.5488
  282SOL     vw 1128   1.027   3.887   6.856  0.4178  0.2856  0.3178
  283SOL     ow 1129   6.676   5.461   5.361  0.1094  0.6296 -0.0989
  283SOL     hw 1130   6.685   5.556   5.370  2.0478  0.4265  0.5809
  283SOL     hw 1131   6.637   5.448   5.275  0.9806  2.0080 -0.7309
  283SOL     vw 1132   6.672   5.472   5.351  0.4799  0.7846 -0.0927
  284SOL     ow 1133   3.885   6.389   3.643 -0.5021  0.0197 -0.6963
  284SOL     hw 1134   3.805   6.407   3.594  0.0334  0.2815 -1.4959
  284SOL     hw 1135   3.944   6.460   3.618  1.4690 -2.3617 -3.4027
  284SOL     vw 1136   3.882   6.401   3.633 -0.1715 -0.2601 -1.1588
  285SOL     ow 1137   2.802   2.857   5.620  0.3173 -0.7319  0.2272
  285SOL     hw 1138   2.797   2.930   5.682 -1.6069  0.4715 -1.2419
  285SOL     hw 1139   2.786   2.780   5.674 -0.5664  0.2033  1.3758
  285SOL     vw 1140   2.800   2.857   5.636 -0.0532 -0.4497  0.1850
  286SOL     ow 1141   1.138   6.592   2.241  0.2673 -0.4165  0.1669
  286SOL     hw 1142   1.139   6.683   2.211  1.4740 -0.5772 -0.3421
  286SOL     hw 1143   1.088   6.594   2.322  1.7992  1.0239  1.1296
  286SOL     vw 1144   1.131   6.604   2.248  0.6287 -0.2477  0.2269
  287SOL     ow 1145   5.430   1.461   1.849  0.5173 -0.0684  0.1167
  287SOL     hw 1146   5.521   1.482   1.872  0.1523  0.6885  0.9377
  287SOL     hw 1147   5.395   1.544   1.816 -0.1941 -0.0576  0.8766
  287SOL     vw 1148   5.437   1.475   1.848  0.3753  0.0329  0.3253
  288SOL     ow 1149   3.231   4.574   3.246 -0.2569 -0.0477 -0.1787
  288SOL     hw 1150   3.323   4.561   3.269 -0.0981  1.1294 -0.1056
  288SOL     hw 1151   3.207   4.656   3.287 -1.5798 -0.7243  0.4388
  288SOL     vw 1152   3.240   4.583   3.254 -0.4104  0.0184 -0.0874
  289SOL     ow 1153   4.576   6.435   1.316 -0.2447 -0.4816  0.3956
  289SOL     hw 1154   4.568   6.447   1.410  1.2663 -0.8883  0.5950
  289SOL     hw 1155   4.647   6.372   1.305 -1.5812 -1.8519 -0.9646
  289SOL     vw 1156   4.584   6.428   1.327 -0.2217 -0.7162  0.2424
  290SOL     ow 1157   1.688   1.361   5.337  0.5165  0.1014  0.2622
  290SOL     hw 1158   1.653   1.362   5.426 -0.3489  0.2645 -0.0635
  290SOL     hw 1159   1.754   1.431   5.336 -0.6047  1.2066  0.3531
  290SOL     vw 1160   1.692   1.371   5.348  0.2545  0.2688  0.2315
  291SOL     ow 1161   1.151   2.259   2.021  0.2016  0.0886 -0.6708
  291SOL     hw 1162   1.097   2.331   1.987 -2.0093 -1.8782 -1.6565
  291SOL     hw 1163   1.098   2.180   2.004  0.7911 -1.4977  3.6958
  291SOL     vw 1164   1.137   2.258   2.014 -0.0123 -0.3802 -0.2247
  292SOL     ow 1165   2.077   3.878   3.084  0.1897  0.1712  0.2149
  292SOL     hw 1166   2.016   3.811   3.053  2.1936 -1.9069  0.4348
  292SOL     hw 1167   2.094   3.854   3.176 -0.3141  2.0296  0.8299
  292SOL     vw 1168   2.071   3.866   3.092  0.3875  0.1422  0.3251
  293SOL     ow 1169   5.491   5.126   3.382  1.0908 -0.2777 -0.6586
  293SOL     hw 1170   5.461   5.176   3.458  2.1553 -0.0734 -0.3561
  293SOL     hw 1171   5.452   5.170   3.307  0.7608  0.0636 -0.2908
  293SOL     vw 1172   5.482   5.138   3.382  1.1880 -0.2060 -0.5702
  294SOL     ow 1173   3.551   6.245   4.950  0.0039  0.2038  0.6407
  294SOL     hw 1174   3.535   6.220   4.860 -1.5095  2.8381  0.0827
  294SOL     hw 1175   3.469   6.284   4.980  0.2236 -1.2069  3.4179
  294SOL     vw 1176   3.538   6.247   4.942 -0.1668  0.3650  0.9332
  295SOL     ow 1177   4.639   0.080   5.592  0.0943  0.9065  0.1499
  295SOL     hw 1178   4.714   0.055   5.646  0.7088  1.6039 -0.3546
  295SOL     hw 1179   4.582   0.129   5.651 -0.2743 -0.1705  0.6973
  295SOL     vw 1180   4.642   0.083   5.606  0.1266  0.8564  0.1554
  296SOL     ow 1181   4.087   0.356   1.440 -0.3994  0.1694 -0.0363
  296SOL     hw 1182   4.025   0.411   1.488  1.6222  1.5381  1.1756
  296SOL     hw 1183   4.146   0.322   1.508  0.4744 -0.6988 -1.1921
  296SOL     vw 1184   4.087   0.359   1.456 -0.0174  0.2354 -0.0290
  297SOL     ow 1185   5.989   4.388   0.561  0.5147  0.4341 -0.1859
  297SOL     hw 1186   5.958   4.407   0.649 -0.5173  0.6349 -0.5710
  297SOL     hw 1187   5.928   4.322   0.528  2.0119 -1.0638 -0.0994
  297SOL     vw 1188   5.977   4.382   0.568  0.5763  0.2630 -0.2253
  298SOL     ow 1189   4.301   6.561   6.797 -0.2652 -0.5432 -0.9238
  298SOL     hw 1190   4.347   6.551   6.714 -0.0558 -1.1370 -0.7434
  298SOL     hw 1191   4.277   6.654   6.801  1.9194  0.0595 -0.5171
  298SOL     vw 1192   4.304   6.572   6.787  0.0505 -0.5422 -0.8464
  299SOL     ow 1193   3.628   0.456   4.222 -0.1432 -0.1603 -0.0303
  299SOL     hw 1194   3.724   0.460   4.220 -0.1063 -1.0393 -0.2554
  299SOL     hw 1195   3.601   0.501   4.142  0.0375  0.9828  0.5296
  299SOL     vw 1196   3.637   0.463   4.211 -0.1144 -0.1255  0.0141
  300SOL     ow 1197   4.806   0.880   2.812  0.5852  0.1971 -0.6734
  300SOL     hw 1198   4.745   0.808   2.824  2.0917 -1.3529 -1.8498
  300SOL     hw 1199   4.892   0.841   2.825  1.4592  1.7308 -1.5619
  300SOL     vw 1200   4.809   0.865   2.815  0.8993  0.1950 -0.9458
  301SOL     ow 1201   5.638   5.812   1.080 -0.1912 -0.5177  0.2404
  301SOL     hw 1202   5.644   5.807   0.985  1.8724 -3.0848  0.3876
  301SOL     hw 1203   5.547   5.790   1.100 -0.6943  0.2127 -1.0940
  301SOL     vw 1204   5.627   5.809   1.070  0.0148 -0.7601  0.0838
  302SOL     ow 1205   1.602   4.109   3.245 -0.6759  0.5624 -0.8154
  302SOL     hw 1206   1.688   4.150   3.247 -0.7416  0.6942  1.2643
  302SOL     hw 1207   1.613   4.032   3.190  1.5007 -0.8401  1.3687
  302SOL     vw 1208   1.615   4.104   3.238 -0.3974  0.3948 -0.2530
  303SOL     ow 1209   4.305   1.082   5.248  0.2222 -0.1140  0.1901
  303SOL     hw 1210   4.386   1.050   5.288 -0.9704 -1.7481  1.4642
  303SOL     hw 1211   4.277   1.011   5.190 -1.0788 -0.2528  0.9527
  303SOL     vw 1212   4.312   1.069   5.246 -0.1070 -0.3480  0.4587
  304SOL     ow 1213   3.076   0.951   5.855 -0.0497 -0.0386  0.3104
  304SOL     hw 1214   3.039   0.902   5.782  0.4268  0.6962 -0.4449
  304SOL     hw 1215   3.002   0.966   5.914 -0.6301  0.1155 -0.4415
  304SOL     vw 1216   3.061   0.946   5.854 -0.0632  0.0787  0.1113
  305SOL     ow 1217   0.730   6.724   5.011  0.8676  0.0190 -0.0284
  305SOL     hw 1218   0.740   6.812   5.047 -4.9450  0.9271  0.3842
  305SOL     hw 1219   0.681   6.676   5.078  1.7089 -2.7644 -1.2707
  305SOL     vw 1220   0.725   6.730   5.024  0.2116 -0.2286 -0.1380
  306SOL     ow 1221   3.453   3.023   1.093  0.1257 -0.4385 -0.5501
  306SOL     hw 1222   3.538   3.044   1.132 -0.1549 -0.5003  0.0990
  306SOL     hw 1223   3.475   2.977   1.012  0.7287 -1.8977  0.3904
  306SOL     vw 1224   3.467   3.019   1.087  0.1683 -0.6392 -0.3403
  307SOL     ow 1225   0.460   3.167   0.280  0.0477  0.4343 -0.0287
  307SOL     hw 1226   0.441   3.224   0.205 -0.0991 -0.5387 -0.7511
  307SOL     hw 1227   0.550   3.138   0.265 -0.2060 -0.2903 -0.1878
  307SOL     vw 1228   0.470   3.171   0.268 -0.0051  0.2104 -0.1450
  308SOL     ow 1229   2.255   5.057   3.340  0.3257  0.0405  0.7021
  308SOL     hw 1230   2.349   5.074   3.330  0.1667  0.3368 -0.4040
  308SOL     hw 1231   2.212   5.126   3.288 -0.5432  0.5203  2.0115
  308SOL     vw 1232   2.262   5.068   3.332  0.1900  0.1426  0.7288
  309SOL     ow 1233   2.145   5.170   0.693 -0.2199  0.3614 -0.6568
  309SOL     hw 1234   2.102   5.092   0.657 -1.4592 -0.0301  1.4538
  309SOL     hw 1235   2.238   5.148   0.695 -0.3077 -0.2048 -2.0527
  309SOL     vw 1236   2.152   5.157   0.689 -0.3949  0.2351 -0.5625
  310SOL     ow 1237   3.316   4.617   1.486 -0.4566  0.2418 -0.4935
  310SOL     hw 1238   3.340   4.643   1.397 -1.6172 -0.4059 -1.0186
  310SOL     hw 1239   3.222   4.631   1.490 -1.2924 -4.0106 -0.9366
  310SOL     vw 1240   3.307   4.623   1.474 -0.7200 -0.4046 -0.6213
  311SOL     ow 1241   1.129   4.647   0.557  0.1713 -0.4032  0.3758
  311SOL     hw 1242   1.112   4.605   0.641  1.4648 -0.8095  0.4516
  311SOL     hw 1243   1.224   4.639   0.544  0.4942  2.5317  0.3891
  311SOL     vw 1244   1.139   4.640   0.566  0.3846 -0.0696  0.3875
  312SOL     ow 1245   5.187   4.294   1.211  0.8482  0.2185 -0.6011
  312SOL     hw 1246   5.137   4.213   1.222 -0.5539  1.1690  0.1759
  312SOL     hw 1247   5.211   4.320   1.300  1.8868  0.3236 -0.8956
  312SOL     vw 1248   5.184   4.287   1.224  0.8001  0.3579 -0.5375
  313SOL     ow 1249   4.643   4.509   3.162 -0.9600 -0.4373 -0.0518
  313SOL     hw 1250   4.629   4.545   3.249  0.9954 -1.3544  0.7114
  313SOL     hw 1251   4.608   4.575   3.102 -1.9042  0.4213  1.4106
  313SOL     vw 1252   4.637   4.523   3.165 -0.8268 -0.4449  0.2420
  314SOL     ow 1253   2.391   3.682   1.876  0.0673 -0.2050  0.2901
  314SOL     hw 1254   2.433   3.606   1.836  1.8354  1.3445 -0.9736
  314SOL     hw 1255   2.297   3.663   1.871  0.4360 -2.0498 -0.4492
  314SOL     vw 1256   2.384   3.669   1.870  0.3493 -0.2438  0.0258
  315SOL     ow 1257   0.120   1.337   6.453 -0.2854 -0.9045  0.8921
  315SOL     hw 1258   0.196   1.394   6.462  0.9874 -2.6490  1.8962
  315SOL     hw 1259   0.157   1.250   6.440 -2.0198 -1.2040 -5.0246
  315SOL     vw 1260   0.135   1.333   6.453 -0.3463 -1.1742  0.2439
  316SOL     ow 1261   3.876   2.556   3.494 -0.2288 -0.4629 -0.6418
  316SOL     hw 1262   3.915   2.613   3.428 -0.8317  2.2640  1.2217
  316SOL     hw 1263   3.783   2.579   3.494 -0.1207  0.1879  1.6324
  316SOL     vw 1264   3.869   2.566   3.485 -0.2941 -0.0172 -0.0960
  317SOL     ow 1265   6.118   4.784   4.621 -0.0682  0.4235  0.3802
  317SOL     hw 1266   6.042   4.773   4.677  1.0002 -0.9873  1.6179
  317SOL     hw 1267   6.188   4.812   4.680  0.8571 -0.1503 -0.4101
  317SOL     vw 1268   6.117   4.786   4.636  0.1950  0.1616  0.4394
  318SOL     ow 1269   4.682   6.310   5.829 -0.2754  0.5613 -0.0319
  318SOL     hw 1270   4.677   6.321   5.734 -0.8967  1.3224  0.0772
  318SOL     hw 1271   4.666   6.217   5.844 -1.2169  0.6206 -0.6058
  318SOL     vw 1272   4.679   6.300   5.819 -0.4818  0.6695 -0.0935
  319SOL     ow 1273   3.761   3.925   2.128  0.3328 -1.0681  0.6158
  319SOL     hw 1274   3.709   3.893   2.201 -1.1661 -2.0182 -0.8015
  319SOL     hw 1275   3.749   4.020   2.129 -1.7655 -1.2764  0.1415
  319SOL     vw 1276   3.753   3.933   2.138 -0.1419 -1.2208  0.3662
  320SOL     ow 1277   4.446   5.303   0.397 -1.1416 -0.0965  0.4931
  320SOL     hw 1278   4.419   5.224   0.445 -0.0783 -1.1356 -0.5507
  320SOL     hw 1279   4.367   5.330   0.351 -2.1948  0.9265  2.7456
  320SOL     vw 1280   4.432   5.296   0.398 -1.1406 -0.0987  0.6526
  321SOL     ow 1281   1.299   4.345   2.547 -0.2279  0.1582 -0.2899
  321SOL     hw 1282   1.265   4.432   2.528  0.4138  0.7770  1.2184
  321SOL     hw 1283   1.394   4.357   2.552  0.1702 -1.2322 -2.9099
  321SOL     vw 1284   1.307   4.358   2.545 -0.0908  0.0565 -0.4367
  322SOL     ow 1285   5.535   4.700   2.210  0.0777  0.2928  0.4320
  322SOL     hw 1286   5.505   4.727   2.123  0.3801 -0.4808  0.0850
  322SOL     hw 1287   5.561   4.609   2.200 -1.2956 -0.2802  1.6698
  322SOL     vw 1288   5.534   4.692   2.197 -0.0637  0.1152  0.5496
  323SOL     ow 1289   6.489   3.559   5.760  0.0176  0.1521  0.2195
  323SOL     hw 1290   6.473   3.475   5.716 -1.4129 -0.4103  1.7213
  323SOL     hw 1291   6.584   3.571   5.753  0.3359 -1.8272  0.3232
  323SOL     vw 1292   6.500   3.549   5.753 -0.1292 -0.1831  0.4311
  324SOL     ow 1293   3.482   4.508   0.310 -0.7810  0.3886 -0.3834
  324SOL     hw 1294   3.572   4.518   0.342 -0.0388 -1.4478 -1.7354
  324SOL     hw 1295   3.488   4.523   0.216 -1.7599 -0.3626 -0.5864
  324SOL     vw 1296   3.495   4.511   0.302 -0.8123  0.0472 -0.5886
  325SOL     ow 1297   2.519   5.802   1.555 -0.2415 -0.9257  0.4848
  325SOL     hw 1298   2.443   5.794   1.498 -0.2175 -2.3562  0.6201
  325SOL     hw 1299   2.582   5.738   1.520  0.4658 -0.5498  1.0367
  325SOL     vw 1300   2.517   5.792   1.543 -0.1451 -1.0650  0.5754
  326SOL     ow 1301   0.750   5.412   1.178 -0.5436 -0.2491  0.5041
  326SOL     hw 1302   0.711   5.459   1.251  1.4639  2.6222 -0.1129
  326SOL     hw 1303   0.836   5.385   1.209 -0.7264 -1.4491  0.0368
  326SOL     vw 1304   0.756   5.414   1.192 -0.3029 -0.0284  0.3610
  327SOL     ow 1305   5.422   1.317   4.564 -0.4332  0.0936  0.3359
  327SOL     hw 1306   5.358   1.388   4.568 -1.5967 -0.9378  1.3164
  327SOL     hw 1307   5.487   1.340   4.630 -0.0224  0.9320 -0.3470
  327SOL     vw 1308   5.422   1.329   4.573 -0.5324  0.0681  0.3753
  328SOL     ow 1309   5.233   4.227   5.711  0.1946  0.4108 -0.2736
  328SOL     hw 1310   5.173   4.300   5.698  0.1759  0.5209  0.3824
  328SOL     hw 1311   5.278   4.248   5.793  1.3698  0.4977 -0.9168
  328SOL     vw 1312   5.231   4.240   5.721  0.3474  0.4365 -0.2720
  329SOL     ow 1313   0.335   3.782   5.379 -0.0092 -0.0926  0.0773
  329SOL     hw 1314   0.389   3.717   5.334  1.4269 -2.1934  4.3140
  329SOL     hw 1315   0.246   3.749   5.372 -0.3121  1.0618 -3.1961
  329SOL     vw 1316   0.330   3.769   5.372  0.1403 -0.2176  0.2046
  330SOL     ow 1317   3.358   5.844   1.961 -0.0987 -0.1109 -0.4265
  330SOL     hw 1318   3.285   5.835   2.023 -0.7185 -0.4826 -1.1994
  330SOL     hw 1319   3.316   5.845   1.875  0.8082 -0.2824 -0.8775
  330SOL     vw 1320   3.342   5.843   1.958 -0.0607 -0.1824 -0.5880
  331SOL     ow 1321   2.085   2.595   3.866 -0.2079  0.2500  0.7527
  331SOL     hw 1322   2.087   2.690   3.874 -0.0023  0.1539  1.9453
  331SOL     hw 1323   2.071   2.563   3.955 -0.6608 -0.8287  0.3128
  331SOL     vw 1324   2.083   2.603   3.879 -0.2407  0.0949  0.8520
  332SOL     ow 1325   5.353   1.284   6.437  0.1714 -0.4591  0.0461
  332SOL     hw 1326   5.406   1.306   6.361  2.7958 -0.0311  1.8285
  332SOL     hw 1327   5.324   1.368   6.472 -0.8554 -0.6396 -0.3470
  332SOL     vw 1328   5.356   1.298   6.432  0.3822 -0.4264  0.2294
  333SOL     ow 1329   5.515   3.007   6.160 -0.8562 -0.2883  0.5312
  333SOL     hw 1330   5.503   2.966   6.074 -2.9458 -1.3771  1.2780
  333SOL     hw 1331   5.501   2.936   6.223 -1.3485  0.8822  1.8016
  333SOL     vw 1332   5.511   2.993   6.157 -1.1969 -0.2775  0.7973
  334SOL     ow 1333   1.822   4.890   5.294  0.1353  0.5326 -0.6554
  334SOL     hw 1334   1.872   4.822   5.249 -3.0536 -0.9724 -2.2950
  334SOL     hw 1335   1.757   4.919   5.230 -0.6120  2.9290  1.0316
  334SOL     vw 1336   1.820   4.885   5.280 -0.3840  0.6502 -0.6492
  335SOL     ow 1337   3.094   5.510   3.689  0.1501 -0.7306 -0.7087
  335SOL     hw 1338   3.145   5.494   3.768  2.2680 -1.5748 -2.1700
  335SOL     hw 1339   3.134   5.587   3.648  0.2077 -1.3224 -1.8171
  335SOL     vw 1340   3.106   5.518   3.694  0.4371 -0.9198 -1.0478
  336SOL     ow 1341   6.223   6.324   2.029 -0.2148  0.0485  0.7622
  336SOL     hw 1342   6.291   6.357   2.087 -1.1378  1.5455  1.0572
  336SOL     hw 1343   6.142   6.362   2.063 -1.0502 -0.7628 -0.2507
  336SOL     vw 1344   6.221   6.333   2.041 -0.4468  0.1390  0.6676
  337SOL     ow 1345   6.883   0.707   6.138  0.1362 -0.0011 -0.0343
  337SOL     hw 1346   6.847   0.680   6.222  0.6520  1.7683  0.8112
  337SOL     hw 1347   6.816   0.681   6.074 -2.2331  2.1263  1.3391
  337SOL     vw 1348   6.869   0.700   6.141 -0.1087  0.5131  0.2582
  338SOL     ow 1349   2.618   1.110   3.085  0.0177  0.0680 -0.1831
  338SOL     hw 1350   2.677   1.184   3.070  4.0942 -2.4617  1.5902
  338SOL     hw 1351   2.607   1.106   3.180  0.9768 -2.1724 -0.0818
  338SOL     vw 1352   2.624   1.119   3.095  0.6820 -0.5613  0.0640
  339SOL     ow 1353   0.789   0.542   2.189  0.3162 -0.4425 -0.4089
  339SOL     hw 1354   0.770   0.588   2.271 -0.2978  0.2850 -0.9413
  339SOL     hw 1355   0.747   0.457   2.199 -0.1654 -0.1776 -0.1542
  339SOL     vw 1356   0.781   0.537   2.201  0.1716 -0.3116 -0.4455
  340SOL     ow 1357   5.658   1.762   2.354 -0.2114 -0.4732 -0.0108
  340SOL     hw 1358   5.715   1.792   2.425  1.1338 -2.8440  0.0084
  340SOL     hw 1359   5.691   1.806   2.276 -0.8182  1.0818  0.5721
  340SOL     vw 1360   5.670   1.771   2.353 -0.1140 -0.5808  0.0687
  341SOL     ow 1361   5.658   5.644   2.216  0.5371  0.6405 -0.4490
  341SOL     hw 1362   5.668   5.714   2.151  0.9920  1.1885  0.2044
  341SOL     hw 1363   5.714   5.670   2.289  0.2306 -0.0992  0.0638
  341SOL     vw 1364   5.666   5.656   2.217  0.5569  0.6151 -0.2950
  342SOL     ow 1365   0.062   5.819   4.835  0.2759  0.6107 -0.0638
  342SOL     hw 1366   0.061   5.810   4.739  0.9719 -2.6383  0.1058
  342SOL     hw 1367   0.154   5.805   4.859  0.2891  2.3511  1.0828
  342SOL     vw 1368   0.074   5.816   4.825  0.3695  0.4117  0.1099
  343SOL     ow 1369   3.574   3.916   5.914  0.1831  0.1669 -0.4121
  343SOL     hw 1370   3.529   3.896   5.996  0.2737  1.7157  0.0435
  343SOL     hw 1371   3.505   3.944   5.854 -0.1264 -2.5350 -1.4751
  343SOL     vw 1372   3.559   3.917   5.917  0.1544  0.0148 -0.4921
  344SOL     ow 1373   0.576   6.178   2.851  0.9852  0.2642 -0.4094
  344SOL     hw 1374   0.561   6.135   2.767 -3.4377  1.4677 -0.4661
  344SOL     hw 1375   0.579   6.271   2.830 -0.8555  0.6319  0.7141
  344SOL     vw 1376   0.574   6.184   2.837  0.1588  0.4714 -0.2687
  345SOL     ow 1377   5.929   3.638   1.265 -0.0468 -0.0669 -0.1488
  345SOL     hw 1378   5.916   3.704   1.197 -0.0866  0.7013  0.5808
  345SOL     hw 1379   6.017   3.605   1.250  0.9088  1.8446  0.8549
  345SOL     vw 1380   5.939   3.642   1.254  0.0741  0.2867  0.0799
  346SOL     ow 1381   5.004   3.913   6.224 -0.0329 -0.1214 -0.0484
  346SOL     hw 1382   5.013   3.952   6.137 -0.9775 -0.4768 -0.3200
  346SOL     hw 1383   4.923   3.862   6.219  0.1373 -0.5069  0.9065
  346SOL     vw 1384   4.994   3.911   6.212 -0.1352 -0.2191  0.0417
  347SOL     ow 1385   0.797   2.988   4.681  0.3387  0.1629  0.2298
  347SOL     hw 1386   0.842   3.058   4.730  1.7083  0.0947 -0.8848
  347SOL     hw 1387   0.842   2.985   4.597 -2.4079  0.7375 -1.3543
  347SOL     vw 1388   0.809   2.997   4.677  0.1570  0.2297 -0.1266
  348SOL     ow 1389   3.510   4.468   0.615  0.8875 -0.1684 -0.4369
  348SOL     hw 1390   3.465   4.464   0.700 -2.6600 -0.9122 -2.1462
  348SOL     hw 1391   3.568   4.543   0.622  0.8684 -0.3047  2.6589
  348SOL     vw 1392   3.511   4.477   0.627  0.4169 -0.2844 -0.2540
  349SOL     ow 1393   6.462   0.171   1.308 -0.0672 -0.5163 -0.1588
  349SOL     hw 1394   6.460   0.185   1.402  1.2333 -0.1575 -0.1679
  349SOL     hw 1395   6.414   0.245   1.271 -1.7386 -1.3449  0.2574
  349SOL     vw 1396   6.455   0.183   1.315 -0.1161 -0.5783 -0.1051
  350SOL     ow 1397   0.201   0.596   5.988  0.1082  0.4996  0.1959
  350SOL     hw 1398   0.150   0.518   5.966  0.3096  1.0246 -2.4292
  350SOL     hw 1399   0.228   0.632   5.904  0.6361  3.0194  1.3443
  350SOL     vw 1400   0.197   0.591   5.974  0.2044  0.9013  0.0012
  351SOL     ow 1401   5.789   2.019   4.387  0.5675 -0.2751 -0.5122
  351SOL     hw 1402   5.774   2.113   4.389 -0.5513 -0.4497  1.1579
  351SOL     hw 1403   5.869   2.006   4.439  1.5001 -0.1647 -1.8612
  351SOL     vw 1404   5.798   2.029   4.394  0.5426 -0.2836 -0.4697
  352SOL     ow 1405   1.373   6.127   4.952 -0.3968  0.3272  0.4347
  352SOL     hw 1406   1.431   6.116   4.876  0.1684  0.4080  0.8507
  352SOL     hw 1407   1.292   6.083   4.926  0.0471 -0.2890  0.0713
  352SOL     vw 1408   1.370   6.120   4.938 -0.2636  0.2563  0.4416
  353SOL     ow 1409   1.901   2.708   5.808  0.3094 -0.2890  0.2192
  353SOL     hw 1410   1.867   2.702   5.897 -0.9512 -2.3274 -0.3155
  353SOL     hw 1411   1.823   2.722   5.753  0.8407 -0.7562 -0.6870
  353SOL     vw 1412   1.886   2.709   5.812  0.2132 -0.6198  0.0293
  354SOL     ow 1413   0.480   2.798   6.393  0.1564  0.3410 -0.1486
  354SOL     hw 1414   0.559   2.748   6.375  0.3779  1.3996 -2.4434
  354SOL     hw 1415   0.415   2.764   6.331 -0.5340  0.9821  0.2066
  354SOL     vw 1416   0.482   2.787   6.382  0.0945  0.5653 -0.4044
  355SOL     ow 1417   6.101   1.036   6.498  0.0811  1.0511 -0.1533
  355SOL     hw 1418   6.094   0.941   6.500  1.6867  0.9015  2.2487
  355SOL     hw 1419   6.164   1.057   6.567  0.6996  3.7934 -1.4197
  355SOL     vw 1420   6.108   1.026   6.508  0.3743  1.3932 -0.0038
  356SOL     ow 1421   1.273   6.047   3.109 -0.3596  0.2601  0.8216
  356SOL     hw 1422   1.195   6.022   3.059 -0.3909  0.7266  0.6286
  356SOL     hw 1423   1.310   6.121   3.060  0.7800 -0.6073  0.3491
  356SOL     vw 1424   1.268   6.054   3.096 -0.2134  0.2072  0.7339
  357SOL     ow 1425   2.245   5.088   6.525 -0.8065 -0.0024  0.4438
  357SOL     hw 1426   2.197   5.074   6.607 -2.4900 -3.0023 -0.9188
  357SOL     hw 1427   2.332   5.050   6.542 -0.2832  1.5423  1.5142
  357SOL     vw 1428   2.250   5.081   6.538 -0.9595 -0.1943  0.4055
  358SOL     ow 1429   4.497   5.115   3.459  0.2632  0.6882  0.3724
  358SOL     hw 1430   4.530   5.030   3.428 -0.3221  0.0645  1.3939
  358SOL     hw 1431   4.462   5.157   3.381  0.5038 -0.0420 -0.1394
  358SOL     vw 1432   4.497   5.109   3.445  0.2177  0.5095  0.4395
  359SOL     ow 1433   5.385   1.855   0.540 -0.4993 -0.1987  0.3414
  359SOL     hw 1434   5.479   1.836   0.540 -0.0276  1.8665 -0.5558
  359SOL     hw 1435   5.344   1.772   0.516  1.1851 -0.7979 -0.6926
  359SOL     vw 1436   5.392   1.841   0.537 -0.2148 -0.0054  0.0866
  360SOL     ow 1437   0.502   3.005   5.277 -0.2673  0.3658  0.8193
  360SOL     hw 1438   0.432   3.043   5.331  0.3789 -2.6703  4.1941
  360SOL     hw 1439   0.462   2.930   5.235  0.2518  0.3412  0.3678
  360SOL     vw 1440   0.487   3.000   5.279 -0.1136 -0.0381  1.2052
  361SOL     ow 1441   5.242   4.012   5.465  0.2684  0.1116  0.4247
  361SOL     hw 1442   5.261   3.926   5.504  2.1071  0.6321  0.7518
  361SOL     hw 1443   5.291   4.012   5.383  2.5544  1.8297  1.6919
  361SOL     vw 1444   5.251   4.000   5.460  0.8125  0.4070  0.6351
  362SOL     ow 1445   2.086   5.966   3.721  0.0868 -0.4508 -0.4606
  362SOL     hw 1446   2.152   6.018   3.768 -1.0118 -0.6750  1.4215
  362SOL     hw 1447   2.026   5.936   3.789 -0.7529 -2.0736 -1.8417
  362SOL     vw 1448   2.087   5.969   3.736 -0.1690 -0.6945 -0.3946
  363SOL     ow 1449   1.207   5.594   5.848  0.0123  0.1603  0.2828
  363SOL     hw 1450   1.216   5.511   5.802 -2.1164  0.6581 -1.1708
  363SOL     hw 1451   1.139   5.578   5.914  2.2286 -0.2237  2.6270
  363SOL     vw 1452   1.199   5.581   5.851  0.0238  0.1750  0.4003
  364SOL     ow 1453   6.026   4.158   2.127 -0.5115  0.8098 -0.0772
  364SOL     hw 1454   6.043   4.092   2.195 -0.7786  0.6352 -0.1807
  364SOL     hw 1455   6.106   4.211   2.126 -0.2617  0.4382 -0.0508
  364SOL     vw 1456   6.039   4.156   2.136 -0.5138  0.7377 -0.0874
  365SOL     ow 1457   3.744   0.754   2.368 -0.2515 -0.2011 -0.8175
  365SOL     hw 1458   3.790   0.807   2.303 -2.4399  0.7758 -1.6664
  365SOL     hw 1459   3.809   0.688   2.396  2.4305  2.5257 -0.0854
  365SOL     vw 1460   3.759   0.752   2.363 -0.1862  0.2875 -0.8329
  366SOL     ow 1461   4.478   2.163   5.026 -0.6339  0.7109 -0.2131
  366SOL     hw 1462   4.506   2.250   4.996  1.8303 -0.7134 -2.5164
  366SOL     hw 1463   4.452   2.117   4.946 -0.9838 -0.9718  0.8253
  366SOL     vw 1464   4.479   2.169   5.011 -0.3550  0.3010 -0.3803
  367SOL     ow 1465   1.524   2.128   3.114 -0.0892  0.4625 -0.5407
  367SOL     hw 1466   1.617   2.144   3.125 -0.4763  1.8399  1.3294
  367SOL     hw 1467   1.501   2.172   3.032  1.2118 -1.6382 -2.1189
  367SOL     vw 1468   1.533   2.136   3.104  0.0314  0.3670 -0.5022
  368SOL     ow 1469   1.829   1.202   5.085  0.3732  0.1260  0.0629
  368SOL     hw 1470   1.844   1.230   4.995 -0.9190 -1.1752 -0.6116
  368SOL     hw 1471   1.873   1.116   5.090  1.1310  0.5528  0.9367
  368SOL     vw 1472   1.837   1.194   5.073  0.3027  0.0107  0.0892
  369SOL     ow 1473   0.460   5.536   0.458 -0.7211  0.3439 -0.7831
  369SOL     hw 1474   0.481   5.545   0.551 -2.2530  0.4763 -0.4088
  369SOL     hw 1475   0.521   5.470   0.425  0.9493  1.4830 -0.1014
  369SOL     vw 1476   0.471   5.528   0.466 -0.7028  0.5116 -0.6438
  370SOL     ow 1477   4.910   3.620   1.474  0.5023  0.2269 -0.1932
  370SOL     hw 1478   4.929   3.662   1.390 -2.0566  1.4779 -0.2593
  370SOL     hw 1479   4.871   3.536   1.451 -2.2195  1.4398 -0.4902
  370SOL     vw 1480   4.907   3.615   1.460 -0.1945  0.5522 -0.2411
  371SOL     ow 1481   0.152   6.386   1.171  0.5221 -0.6711  0.0787
  371SOL     hw 1482   0.201   6.422   1.097  0.4812 -1.8143 -0.5424
  371SOL     hw 1483   0.116   6.462   1.216  1.6278  0.1179 -0.3235
  371SOL     vw 1484   0.154   6.400   1.167  0.6626 -0.7179 -0.0564
  372SOL     ow 1485   6.285   1.650   3.977  0.3285  0.1099  0.0214
  372SOL     hw 1486   6.194   1.619   3.972  0.3591 -0.1229  0.8331
  372SOL     hw 1487   6.332   1.579   4.019  0.7552  0.5231  0.2418
  372SOL     vw 1488   6.279   1.637   3.982  0.3889  0.1337  0.1577
  373SOL     ow 1489   3.137   3.069   1.113  0.2364 -0.1806 -0.3338
  373SOL     hw 1490   3.131   3.122   1.033  1.8625  0.7197  0.0970
  373SOL     hw 1491   3.062   3.010   1.108 -0.8486  1.2078 -1.5331
  373SOL     vw 1492   3.126   3.069   1.102  0.3079  0.1215 -0.4351
  374SOL     ow 1493   0.429   4.603   0.368 -0.1979 -0.2375 -0.0839
  374SOL     hw 1494   0.401   4.511   0.368 -1.0200 -0.0029 -0.7876
  374SOL     hw 1495   0.524   4.600   0.366 -0.1756 -1.0735  1.1376
  374SOL     vw 1496   0.438   4.591   0.368 -0.3034 -0.3169 -0.0155
  375SOL     ow 1497   5.231   1.293   1.015  0.3318 -0.0749  0.7297
  375SOL     hw 1498   5.162   1.244   1.060 -1.3033 -0.4819 -2.0107
  375SOL     hw 1499   5.185   1.366   0.974  2.1374  1.6186  1.5691
  375SOL     vw 1500   5.216   1.296   1.015  0.3543  0.0949  0.4789
  376SOL     ow 1501   0.430   5.451   4.707 -0.1206 -0.1349  0.2542
  376SOL     hw 1502   0.457   5.422   4.794  0.2587 -1.0513 -0.1620
  376SOL     hw 1503   0.352   5.399   4.687 -1.3872  1.4324  0.8206
  376SOL     vw 1504   0.423   5.441   4.716 -0.2377 -0.0494  0.2742
  377SOL     ow 1505   6.147   5.350   0.014 -0.0659 -0.8644 -0.8395
  377SOL     hw 1506   6.063   5.332   0.056  0.3802  0.8156  0.9244
  377SOL     hw 1507   6.138   5.438  -0.022  1.7315  0.5481  1.8258
  377SOL     vw 1508   6.135   5.359   0.014  0.2301 -0.4563 -0.2551
  378SOL     ow 1509   2.888   4.686   0.719  0.1560  0.3286  1.1277
  378SOL     hw 1510   2.821   4.740   0.677  0.2030  1.1441  2.0592
  378SOL     hw 1511   2.851   4.598   0.721  0.8741 -0.1532 -2.1866
  378SOL     vw 1512   2.874   4.681   0.714  0.2569  0.3726  0.8133
  379SOL     ow 1513   1.073   2.193   4.321 -0.0326  0.9217  0.2104
  379SOL     hw 1514   1.108   2.176   4.408  2.9088  0.0861 -1.0275
  379SOL     hw 1515   1.095   2.285   4.304 -1.1131  1.2514  0.5387
  379SOL     vw 1516   1.080   2.203   4.330  0.2129  0.8551  0.0906
  380SOL     ow 1517   3.126   2.329   6.773 -0.5922  0.5261  0.3699
  380SOL     hw 1518   3.116   2.319   6.867  1.0636  1.6164  0.7014
  380SOL     hw 1519   3.207   2.378   6.762  0.1574 -1.0325 -1.7037
  380SOL     vw 1520   3.135   2.334   6.784 -0.2749  0.4642  0.1400
  381SOL     ow 1521   4.386   0.400   4.636 -0.7857 -0.4113  0.4312
  381SOL     hw 1522   4.420   0.320   4.678  1.8169  0.0939 -0.5272
  381SOL     hw 1523   4.463   0.439   4.593 -2.5887  0.9838 -1.7527
  381SOL     vw 1524   4.401   0.394   4.636 -0.6800 -0.1606  0.0167
  382SOL     ow 1525   2.894   6.743   5.705  0.2194 -0.2132  0.2268
  382SOL     hw 1526   2.936   6.782   5.781  0.5179 -0.7452  0.3404
  382SOL     hw 1527   2.850   6.665   5.739  0.3799 -0.4700 -0.1461
  382SOL     vw 1528   2.894   6.738   5.719  0.2799 -0.3171  0.1929
  383SOL     ow 1529   5.656   0.726   2.537 -0.3916  0.4079 -0.3409
  383SOL     hw 1530   5.661   0.819   2.563 -0.4841  0.1621  0.5916
  383SOL     hw 1531   5.608   0.727   2.454  2.6990  1.5388 -2.3175
  383SOL     vw 1532   5.650   0.739   2.530  0.0038  0.5247 -0.4786
  384SOL     ow 1533   4.149   4.947   5.903 -0.5161 -0.1987  0.8458
  384SOL     hw 1534   4.067   4.929   5.950 -1.0878  1.8937  0.7943
  384SOL     hw 1535   4.180   5.029   5.941  0.5755  0.0087 -0.4227
  384SOL     vw 1536   4.142   4.956   5.914 -0.4478  0.1047  0.6716
  385SOL     ow 1537   4.453   4.104   1.462 -0.5886  0.8458 -0.6691
  385SOL     hw 1538   4.383   4.122   1.524 -0.9450  1.2783 -1.1883
  385SOL     hw 1539   4.461   4.184   1.410  0.0145  0.6567 -0.8824
  385SOL     vw 1540   4.445   4.117   1.464 -0.5562  0.8781 -0.7657
  386SOL     ow 1541   2.821   5.269   5.683  0.0155  0.2411  0.5312
  386SOL     hw 1542   2.816   5.257   5.588  1.4634 -2.0899  0.6729
  386SOL     hw 1543   2.863   5.354   5.695  0.6076  0.1796 -0.9397
  386SOL     vw 1544   2.826   5.279   5.672  0.2847 -0.0744  0.3557
  387SOL     ow 1545   5.509   6.818   0.086  0.0628 -0.4059  0.0160
  387SOL     hw 1546   5.545   6.729   0.082  1.0240 -0.0276  0.2021
  387SOL     hw 1547   5.565   6.869   0.028  0.5679  0.4472  1.2208
  387SOL     vw 1548   5.521   6.813   0.078  0.2561 -0.2432  0.1995
  388SOL     ow 1549   3.151   1.916   4.094 -0.5861  0.0525 -0.6618
  388SOL     hw 1550   3.151   1.977   4.020  1.1286  1.1300  0.1653
  388SOL     hw 1551   3.064   1.926   4.132 -0.6091  1.4066 -1.0207
  388SOL     vw 1552   3.139   1.925   4.089 -0.3630  0.3732 -0.5999
  389SOL     ow 1553   4.386   3.696   4.934  0.3258  0.1797  0.7746
  389SOL     hw 1554   4.334   3.618   4.955  1.3836 -0.2777  1.7932
  389SOL     hw 1555   4.350   3.764   4.991 -1.1507  0.7099 -0.6980
  389SOL     vw 1556   4.374   3.695   4.944  0.2706  0.1894  0.7145
  390SOL     ow 1557   4.201   2.499   1.296  0.9589  0.2995 -0.2522
  390SOL     hw 1558   4.202   2.412   1.257 -0.9571 -0.2420  0.7646
  390SOL     hw 1559   4.282   2.540   1.266  1.5835 -1.5775 -1.2939
  390SOL     vw 1560   4.212   2.493   1.287  0.7885 -0.0196 -0.2555
  391SOL     ow 1561   5.117   4.923   3.168  0.7281 -0.2037  0.0388
  391SOL     hw 1562   5.181   4.906   3.237  0.9667 -0.8808 -0.3328
  391SOL     hw 1563   5.159   4.889   3.088  0.7240  1.1353 -0.5535
  391SOL     vw 1564   5.131   4.916   3.166  0.7591 -0.1163 -0.0885
  392SOL     ow 1565   4.755   0.049   5.283  0.6317  0.1614  0.3019
  392SOL     hw 1566   4.824  -0.009   5.316  0.5912 -0.3665 -0.5106
  392SOL     hw 1567   4.786   0.077   5.197  0.7766  1.5816  0.7765
  392SOL     vw 1568   4.768   0.045   5.276  0.6456  0.2791  0.2575
  393SOL     ow 1569   2.658   0.696   5.670  0.4409 -0.3972 -0.6551
  393SOL     hw 1570   2.721   0.716   5.601 -0.3382 -0.3623 -1.3694
  393SOL     hw 1571   2.614   0.780   5.687 -0.1938 -0.6553 -0.9713
  393SOL     vw 1572   2.660   0.710   5.663  0.2544 -0.4267 -0.7911
  394SOL     ow 1573   0.051   0.163   0.488 -0.6426  0.1431 -0.1474
  394SOL     hw 1574  -0.042   0.179   0.474 -0.4315  1.2341 -0.3914
  394SOL     hw 1575   0.093   0.248   0.475  0.3665 -0.2774  0.1874
  394SOL     vw 1576   0.044   0.176   0.485 -0.4817  0.2315 -0.1354
  395SOL     ow 1577   2.896   3.135   2.608 -0.0916  0.0197  0.6091
  395SOL     hw 1578   2.854   3.187   2.676 -1.2067 -0.0451 -0.0110
  395SOL     hw 1579   2.891   3.045   2.640 -0.8928 -0.0472  0.3097
  395SOL     vw 1580   2.890   3.130   2.621 -0.3444  0.0024  0.4877
  396SOL     ow 1581   4.228   1.667   1.242 -0.9184  0.0475 -0.1608
  396SOL     hw 1582   4.183   1.584   1.259 -1.0270  0.1033 -0.1782
  396SOL     hw 1583   4.176   1.733   1.288 -0.5980  0.0494  0.2034
  396SOL     vw 1584   4.216   1.665   1.250 -0.8907  0.0551 -0.1151
  397SOL     ow 1585   0.369   4.186   2.326 -0.2803  0.4783 -0.8890
  397SOL     hw 1586   0.457   4.197   2.362 -0.4438  1.5515 -0.7569
  397SOL     hw 1587   0.375   4.221   2.237 -1.1673  3.1847  0.0101
  397SOL     vw 1588   0.381   4.192   2.319 -0.4189  0.9770 -0.7529
  398SOL     ow 1589   4.953   5.612   2.021 -0.1066  0.0376 -0.4884
  398SOL     hw 1590   5.047   5.601   2.003 -0.2820 -0.9329 -0.8701
  398SOL     hw 1591   4.917   5.523   2.017 -1.3236  0.5499 -1.9588
  398SOL     vw 1592   4.961   5.599   2.018 -0.2904 -0.0229 -0.7328
  399SOL     ow 1593   5.846   2.836   4.927  0.0924  0.5063  0.5267
  399SOL     hw 1594   5.793   2.848   4.848  0.9357  0.2426 -0.0903
  399SOL     hw 1595   5.783   2.810   4.995 -0.7139  1.2471  0.0786
  399SOL     vw 1596   5.830   2.834   4.926  0.0975  0.5692  0.3862
  400SOL     ow 1597   6.173   6.496   5.355 -0.0179  0.4590 -0.4948
  400SOL     hw 1598   6.089   6.538   5.334 -0.4563 -0.6172 -0.9745
  400SOL     hw 1599   6.193   6.444   5.278 -0.8614 -2.3361  1.0499
  400SOL     vw 1600   6.164   6.495   5.342 -0.1869 -0.0517 -0.3545
  401SOL     ow 1601   6.519   2.228   2.452 -0.3357  0.2472 -0.1178
  401SOL     hw 1602   6.556   2.147   2.417 -0.9946 -0.1573  0.1094
  401SOL     hw 1603   6.467   2.263   2.380 -0.1387  0.4182 -0.1791
  401SOL     vw 1604   6.517   2.222   2.437 -0.3965  0.2164 -0.0960
  402SOL     ow 1605   0.240   2.315   3.200  0.4969  0.1686 -0.2869
  402SOL     hw 1606   0.207   2.351   3.118  2.2163  1.1785 -0.5945
  402SOL     hw 1607   0.215   2.223   3.198  0.1553  0.2746 -1.7483
  402SOL     vw 1608   0.232   2.308   3.189  0.6787  0.3159 -0.5203
  403SOL     ow 1609   1.893   0.256   2.404 -0.6853 -0.2793  0.3521
  403SOL     hw 1610   1.890   0.195   2.331 -0.8551 -0.1850  0.2813
  403SOL     hw 1611   1.861   0.339   2.369  0.1206  0.0189  0.2872
  403SOL     vw 1612   1.888   0.259   2.390 -0.6014 -0.2275  0.3341
  404SOL     ow 1613   4.750   1.503   0.316  0.3009 -0.2415  0.0423
  404SOL     hw 1614   4.828   1.548   0.347 -0.0735  0.8833 -0.5809
  404SOL     hw 1615   4.687   1.512   0.388  0.9467 -1.8340  0.8761
  404SOL     vw 1616   4.752   1.510   0.330  0.3364 -0.3032  0.0701
  405SOL     ow 1617   5.006   1.617   6.098  0.7626  0.5246  0.0600
  405SOL     hw 1618   5.041   1.606   6.186  0.4604  1.9452  0.3698
  405SOL     hw 1619   4.923   1.569   6.099  0.5783  0.8481  0.6708
  405SOL     vw 1620   5.000   1.609   6.109  0.6983  0.7547  0.1812
  406SOL     ow 1621   2.768   1.673   2.591  0.1170  0.4734 -0.1464
  406SOL     hw 1622   2.721   1.645   2.512 -1.8595 -0.4210  1.2713
  406SOL     hw 1623   2.725   1.626   2.662  1.9152  1.1733  1.4850
  406SOL     vw 1624   2.756   1.663   2.590  0.0933  0.4477  0.2559
  407SOL     ow 1625   3.823   1.848   4.410  0.2075  0.5599 -0.0526
  407SOL     hw 1626   3.751   1.861   4.472 -1.5617 -1.0080 -1.6363
  407SOL     hw 1627   3.842   1.754   4.415  2.4910  0.9962  0.6159
  407SOL     vw 1628   3.816   1.837   4.419  0.2754  0.4106 -0.1733
  408SOL     ow 1629   3.150   4.875   6.079 -0.4636 -0.7578  0.1188
  408SOL     hw 1630   3.123   4.898   6.167  0.0663 -0.7336  0.2788
  408SOL     hw 1631   3.209   4.945   6.052  1.5049 -2.0845  0.7717
  408SOL     vw 1632   3.154   4.887   6.087 -0.1341 -0.9296  0.2263
  409SOL     ow 1633   0.145   0.551   0.174  0.5146 -0.7170 -0.3904
  409SOL     hw 1634   0.171   0.460   0.188 -1.5852 -1.1735  1.0552
  409SOL     hw 1635   0.129   0.585   0.262 -1.1550  0.2620 -1.0249
  409SOL     vw 1636   0.146   0.543   0.188  0.0172 -0.6481 -0.2834
  410SOL     ow 1637   5.586   2.125   2.445 -0.5558 -0.8903  0.1757
  410SOL     hw 1638   5.671   2.086   2.426 -0.8568 -0.8394 -1.3945
  410SOL     hw 1639   5.562   2.089   2.531  1.2087 -0.5812  0.8356
  410SOL     vw 1640   5.594   2.115   2.454 -0.3626 -0.8428  0.0556
  411SOL     ow 1641   2.989   1.011   3.779  0.0217  0.2672  0.1211
  411SOL     hw 1642   2.978   1.087   3.835  0.1368 -0.6729  1.4705
  411SOL     hw 1643   3.050   0.955   3.827  1.3074  0.0882 -1.6549
  411SOL     vw 1644   2.996   1.013   3.793  0.2066  0.1196  0.0647
  412SOL     ow 1645   5.806   6.492   2.529 -0.1457 -0.5122 -0.0146
  412SOL     hw 1646   5.788   6.398   2.537 -0.9154 -0.2495  1.9563
  412SOL     hw 1647   5.728   6.528   2.487  0.2776 -0.7704 -1.0512
  412SOL     vw 1648   5.793   6.484   2.525 -0.1915 -0.5119  0.1087
  413SOL     ow 1649   1.071   1.316   1.682 -0.5007  0.6235  0.0050
  413SOL     hw 1650   1.056   1.377   1.609 -0.4570 -1.3180 -1.7125
  413SOL     hw 1651   1.036   1.232   1.651  0.4051 -0.5003  1.8584
  413SOL     vw 1652   1.064   1.313   1.668 -0.3754  0.2190  0.0229
  414SOL     ow 1653   2.082   0.153   2.693 -0.8949 -0.2361  0.7650
  414SOL     hw 1654   2.156   0.124   2.640 -1.9942 -2.0953  0.1666
  414SOL     hw 1655   2.095   0.110   2.778 -2.0057 -1.7595  0.1955
  414SOL     vw 1656   2.094   0.144   2.698 -1.1865 -0.6824  0.6109
  415SOL     ow 1657   3.898   4.341   3.209  0.7706  0.3453  0.7901
  415SOL     hw 1658   3.953   4.418   3.198  0.4570  0.8657  2.6516
  415SOL     hw 1659   3.818   4.373   3.251 -1.3802 -0.2697 -2.4722
  415SOL     vw 1660   3.895   4.355   3.213  0.4452  0.3328  0.6052
  416SOL     ow 1661   5.489   4.625   0.186  0.4316  0.0896 -0.2078
  416SOL     hw 1662   5.572   4.672   0.195 -0.2031  1.2429 -0.2289
  416SOL     hw 1663   5.469   4.594   0.275  0.7131  0.0994 -0.1401
  416SOL     vw 1664   5.497   4.627   0.199  0.3848  0.2429 -0.2016
  417SOL     ow 1665   0.472   2.996   6.596  0.2546 -0.1979 -0.6949
  417SOL     hw 1666   0.434   2.931   6.656  2.0879 -0.1211  0.6624
  417SOL     hw 1667   0.471   3.077   6.646  1.0082  0.0670 -1.0959
  417SOL     vw 1668   0.467   2.998   6.611  0.5959 -0.1528 -0.5686
  418SOL     ow 1669   0.271   0.436   1.372 -0.2771  0.4130 -0.8473
  418SOL     hw 1670   0.229   0.433   1.285 -0.4531  0.6924 -0.7734
  418SOL     hw 1671   0.205   0.399   1.431 -0.2784  0.5149 -0.7857
  418SOL     vw 1672   0.257   0.430   1.368 -0.3005  0.4634 -0.8294
  419SOL     ow 1673   4.484   0.897   2.130 -0.0010 -0.1555  0.1080
  419SOL     hw 1674   4.560   0.954   2.142  0.0171  0.2841 -1.8134
  419SOL     hw 1675   4.409   0.949   2.158  0.1127  0.4918 -0.7636
  419SOL     vw 1676   4.484   0.911   2.135  0.0165 -0.0121 -0.2605
  420SOL     ow 1677   2.455   6.141   5.143  0.0641  0.0206 -0.5597
  420SOL     hw 1678   2.390   6.085   5.101  1.2181  0.9499 -3.9778
  420SOL     hw 1679   2.429   6.230   5.119  0.3917  0.7414  1.5179
  420SOL     vw 1680   2.443   6.145   5.134  0.2596  0.2382 -0.7365
  421SOL     ow 1681   5.591   1.859   6.844 -0.0030 -0.4541  0.6296
  421SOL     hw 1682   5.500   1.831   6.833  0.2741 -1.2581  0.3601
  421SOL     hw 1683   5.635   1.786   6.887  0.4216  0.1151  1.1976
  421SOL     vw 1684   5.585   1.846   6.848  0.0894 -0.4851  0.6688
  422SOL     ow 1685   1.135   3.331   3.159  0.6880  0.0005  0.3465
  422SOL     hw 1686   1.148   3.239   3.134  1.8605  0.3305 -0.3544
  422SOL     hw 1687   1.217   3.374   3.134  0.2895  1.1711  0.9990
  422SOL     vw 1688   1.148   3.324   3.152  0.7901  0.1984  0.3401
  423SOL     ow 1689   5.273   1.041   6.262 -0.3755 -0.1226 -0.5827
  423SOL     hw 1690   5.217   0.987   6.206 -0.7382  1.6434 -2.0423
  423SOL     hw 1691   5.345   1.067   6.205  0.4206 -0.0454  0.4423
  423SOL     vw 1692   5.275   1.038   6.247 -0.3185  0.1206 -0.6402
  424SOL     ow 1693   1.226   1.367   6.340 -0.2386 -0.3147  0.6810
  424SOL     hw 1694   1.217   1.428   6.413  0.4794 -0.1302  0.6152
  424SOL     hw 1695   1.149   1.384   6.286  1.6443  3.1446 -1.2874
  424SOL     vw 1696   1.214   1.377   6.343  0.1044  0.1661  0.4125
  425SOL     ow 1697   5.034   4.496   4.754 -0.4525  0.7049 -0.5105
  425SOL     hw 1698   4.964   4.449   4.711  1.7557 -2.3921 -1.0560
  425SOL     hw 1699   5.073   4.550   4.685 -0.5645  0.2896 -0.9006
  425SOL     vw 1700   5.030   4.497   4.739 -0.1760  0.2415 -0.6340
  426SOL     ow 1701   6.566   6.885   5.019  0.1512  0.6795 -0.2772
  426SOL     hw 1702   6.494   6.905   4.960  1.3610 -0.8070 -2.4173
  426SOL     hw 1703   6.612   6.968   5.030 -0.3684  1.0861 -1.1004
  426SOL     vw 1704   6.563   6.898   5.012  0.2425  0.5369 -0.6680
  427SOL     ow 1705   1.330   1.112   3.486 -0.1564  0.4859 -0.7786
  427SOL     hw 1706   1.349   1.194   3.531 -0.2759 -0.7838  1.7243
  427SOL     hw 1707   1.240   1.123   3.454  0.4385  1.9588 -2.1360
  427SOL     vw 1708   1.321   1.124   3.488 -0.0937  0.5128 -0.6275
  428SOL     ow 1709   5.413   5.966   5.659 -1.1295  0.4281 -0.1890
  428SOL     hw 1710   5.474   5.928   5.722 -1.0981 -1.8910 -1.5155
  428SOL     hw 1711   5.465   6.029   5.609 -0.5024  0.3731  0.3853
  428SOL     vw 1712   5.428   5.969   5.661 -1.0428  0.1149 -0.2880
  429SOL     ow 1713   2.539   1.726   5.585 -0.3846 -0.4601 -0.3679
  429SOL     hw 1714   2.629   1.758   5.579 -0.9631  1.5135  0.6851
  429SOL     hw 1715   2.534   1.657   5.518  1.2472  0.9621 -2.0846
  429SOL     vw 1716   2.551   1.721   5.575 -0.2458 -0.0121 -0.4556
  430SOL     ow 1717   2.037   4.029   5.464 -0.3228  0.0068 -0.5695
  430SOL     hw 1718   2.020   4.121   5.444 -0.2486 -0.1119 -1.2096
  430SOL     hw 1719   1.966   4.003   5.523 -0.0256  0.6240  0.0748
  430SOL     vw 1720   2.026   4.037   5.469 -0.2737  0.0727 -0.5689
  431SOL     ow 1721   6.148   3.896   6.208 -0.7420  0.2008 -0.4426
  431SOL     hw 1722   6.078   3.833   6.192 -0.1967 -0.2582 -1.0620
  431SOL     hw 1723   6.183   3.916   6.121  1.8862 -1.8933  0.0267
  431SOL     vw 1724   6.143   3.890   6.194 -0.3231 -0.1361 -0.4625
  432SOL     ow 1725   2.813   6.388   1.317 -0.7181 -0.4283 -0.1206
  432SOL     hw 1726   2.780   6.327   1.250  0.5991 -0.2425 -0.9651
  432SOL     hw 1727   2.883   6.340   1.361 -2.1400 -0.8878  1.8054
  432SOL     vw 1728   2.818   6.373   1.314 -0.7319 -0.4647  0.0221
  433SOL     ow 1729   0.302   0.452   6.847  0.1880  0.7780 -0.0613
  433SOL     hw 1730   0.345   0.455   6.762  0.3108  1.1731  0.0122
  433SOL     hw 1731   0.232   0.388   6.836  0.1520  0.8861 -0.4812
  433SOL     vw 1732   0.298   0.444   6.834  0.1995  0.8444 -0.1070
  434SOL     ow 1733   5.793   0.468   0.544  0.0425  0.0647  0.0874
  434SOL     hw 1734   5.853   0.399   0.571 -1.1822 -1.6277 -1.2487
  434SOL     hw 1735   5.710   0.422   0.527 -0.7221  1.8068 -1.2366
  434SOL     vw 1736   5.790   0.453   0.546 -0.2198  0.0712 -0.2635
  435SOL     ow 1737   1.227   4.009   3.650 -0.0076 -0.1785 -0.0949
  435SOL     hw 1738   1.282   3.995   3.727  0.8965  1.9413 -0.3026
  435SOL     hw 1739   1.143   4.039   3.685 -0.3193 -1.2537  0.1210
  435SOL     vw 1740   1.223   4.011   3.665  0.0706 -0.0405 -0.0937
  436SOL     ow 1741   6.475   1.983   4.879  0.0776  0.5479  0.6588
  436SOL     hw 1742   6.397   1.961   4.829  1.5517 -2.3603 -0.6140
  436SOL     hw 1743   6.487   2.077   4.865 -0.8911  0.2929 -2.6508
  436SOL     vw 1744   6.466   1.993   4.871  0.1442  0.1305  0.0544
  437SOL     ow 1745   4.895   1.310   4.663 -0.9748 -0.4196  0.3845
  437SOL     hw 1746   4.916   1.278   4.575 -0.9962 -0.3846  0.3667
  437SOL     hw 1747   4.937   1.396   4.667 -1.3240 -0.2407  0.2588
  437SOL     vw 1748   4.903   1.317   4.652 -1.0235 -0.3915  0.3653
  438SOL     ow 1749   5.230   4.501   5.050  0.0208 -0.3474 -0.3559
  438SOL     hw 1750   5.288   4.569   5.016 -0.1736 -1.2372 -2.6817
  438SOL     hw 1751   5.218   4.523   5.142 -0.2377  2.8934 -1.0466
  438SOL     vw 1752   5.236   4.513   5.057 -0.0393 -0.0372 -0.7536
  439SOL     ow 1753   0.164   2.107   1.173  0.5755  0.0227  0.1309
  439SOL     hw 1754   0.112   2.031   1.147 -0.6257  0.3304  1.5262
  439SOL     hw 1755   0.164   2.164   1.096 -0.2283 -0.4772 -0.2511
  439SOL     vw 1756   0.157   2.104   1.159  0.3110 -0.0026  0.2645
  440SOL     ow 1757   4.007   1.524   0.893 -0.3225 -0.3525  0.0941
  440SOL     hw 1758   4.098   1.553   0.900  1.2132 -4.1648 -1.6442
  440SOL     hw 1759   3.993   1.469   0.970 -0.8130 -0.6294 -0.1895
  440SOL     vw 1760   4.017   1.521   0.904 -0.1845 -0.8920 -0.1726
  441SOL     ow 1761   5.226   6.359   0.857  0.5784  0.1402  0.2051
  441SOL     hw 1762   5.243   6.366   0.951 -1.1528 -0.3567  0.5797
  441SOL     hw 1763   5.218   6.449   0.827  2.1322  0.3396  0.3089
  441SOL     vw 1764   5.228   6.372   0.865  0.5550  0.1011  0.2682
  442SOL     ow 1765   6.893   1.179   0.482 -0.9137 -0.3021  0.5479
  442SOL     hw 1766   6.859   1.099   0.520 -0.2572 -2.5061 -3.0133
  442SOL     hw 1767   6.824   1.208   0.422 -0.5064  0.9109  0.6377
  442SOL     vw 1768   6.879   1.173   0.479 -0.7734 -0.4328  0.0899
  443SOL     ow 1769   6.015   5.359   4.394  0.0104 -0.1169 -0.1259
  443SOL     hw 1770   6.062   5.395   4.319  0.9133 -0.2538  0.3669
  443SOL     hw 1771   6.083   5.324   4.451 -0.8320 -2.7094 -0.6029
  443SOL     vw 1772   6.030   5.359   4.392  0.0184 -0.4766 -0.1240
  444SOL     ow 1773   0.811   3.543   4.277 -0.6348 -0.2362 -0.1358
  444SOL     hw 1774   0.795   3.590   4.195  0.5833 -0.4764 -0.5367
  444SOL     hw 1775   0.726   3.506   4.300 -1.0007 -0.1775 -1.3062
  444SOL     vw 1776   0.797   3.544   4.269 -0.5224 -0.2604 -0.3431
  445SOL     ow 1777   6.704   1.161   1.665  0.6029 -0.2813 -0.5476
  445SOL     hw 1778   6.700   1.256   1.665 -0.6720 -0.3026  0.4751
  445SOL     hw 1779   6.747   1.138   1.582  0.5197  1.1470 -1.0083
  445SOL     vw 1780   6.709   1.170   1.654  0.4234 -0.0957 -0.4734
  446SOL     ow 1781   1.359   4.386   5.444  0.2465 -0.1819 -0.2820
  446SOL     hw 1782   1.391   4.312   5.392  0.7855  0.0382 -0.2698
  446SOL     hw 1783   1.430   4.405   5.505 -0.1393 -0.0481  0.1334
  446SOL     vw 1784   1.373   4.379   5.446  0.2667 -0.1352 -0.2255
  447SOL     ow 1785   1.446   6.289   4.162 -0.0201  0.6958  0.0971
  447SOL     hw 1786   1.467   6.240   4.241 -1.2336 -0.6153 -0.3453
  447SOL     hw 1787   1.384   6.356   4.192 -0.0550  0.5528  0.3494
  447SOL     vw 1788   1.440   6.292   4.176 -0.1848  0.5040  0.0720
  448SOL     ow 1789   0.103   4.337   5.715  0.4236 -0.3438  0.2294
  448SOL     hw 1790   0.060   4.269   5.663  3.1326 -0.3766 -2.2259
  448SOL     hw 1791   0.038   4.407   5.721 -0.7058 -1.1502 -1.5917
  448SOL     vw 1792   0.089   4.338   5.709  0.6320 -0.4547 -0.3345
  449SOL     ow 1793   3.326   5.705   3.970 -0.0006 -0.1983  0.4450
  449SOL     hw 1794   3.328   5.753   3.887 -2.2660  0.0805  0.4825
  449SOL     hw 1795   3.303   5.615   3.945 -1.8651  0.1348  0.7905
  449SOL     vw 1796   3.323   5.700   3.956 -0.5455 -0.1175  0.4957
  450SOL     ow 1797   3.161   0.296   0.913  0.1137 -0.2242  1.4956
  450SOL     hw 1798   3.117   0.311   0.829  2.4084  0.4005  0.3150
  450SOL     hw 1799   3.142   0.375   0.964  2.3777  1.6075 -0.2380
  450SOL     vw 1800   3.153   0.308   0.908  0.7151  0.0999  1.1111
  451SOL     ow 1801   6.068   3.822   5.263 -0.0659  0.3422 -0.2150
  451SOL     hw 1802   6.099   3.756   5.201  1.0297 -0.2934  0.9792
  451SOL     hw 1803   5.986   3.854   5.224  0.9753  0.5417 -2.3837
  451SOL     vw 1804   6.061   3.817   5.249  0.2160  0.2848 -0.3438
  452SOL     ow 1805   0.514   1.503   1.697  0.2206  0.0460 -0.4923
  452SOL     hw 1806   0.456   1.442   1.745 -2.3667  2.2897 -0.5306
  452SOL     hw 1807   0.463   1.583   1.689  3.2806  2.1114 -0.9129
  452SOL     vw 1808   0.499   1.505   1.702  0.2830  0.6144 -0.5528
  453SOL     ow 1809   2.245   4.019   5.715 -0.1076  0.1928  0.0839
  453SOL     hw 1810   2.178   4.045   5.779 -1.5829  1.9586 -2.0272
  453SOL     hw 1811   2.318   4.078   5.732 -1.2927  2.1314 -1.0533
  453SOL     vw 1812   2.246   4.030   5.726 -0.4586  0.6816 -0.3448
  454SOL     ow 1813   4.977   2.941   5.717 -0.3709 -0.7160 -0.7715
  454SOL     hw 1814   5.044   2.882   5.680  1.2257  0.1773  0.5683
  454SOL     hw 1815   5.015   3.028   5.708 -1.0983 -0.2444  0.5677
  454SOL     vw 1816   4.991   2.944   5.711 -0.2563 -0.5360 -0.4179
  455SOL     ow 1817   3.674   0.703   2.871  0.2459  0.2766  0.1198
  455SOL     hw 1818   3.590   0.658   2.885 -0.1835  1.1237  0.2854
  455SOL     hw 1819   3.651   0.787   2.832  0.9553  0.8321  0.8565
  455SOL     vw 1820   3.660   0.708   2.868  0.2830  0.4617  0.2389
  456SOL     ow 1821   6.317   5.135   0.190  0.8622 -0.4104 -0.2354
  456SOL     hw 1822   6.332   5.125   0.284  0.5740 -0.8280 -0.2313
  456SOL     hw 1823   6.402   5.118   0.150  1.3872  1.4016  0.0448
  456SOL     vw 1824   6.330   5.131   0.197  0.8934 -0.2265 -0.1979
  457SOL     ow 1825   0.173   1.941   5.381  0.4010 -0.3222  0.3331
  457SOL     hw 1826   0.118   1.902   5.449  1.9632  1.1607  2.5989
  457SOL     hw 1827   0.215   1.867   5.338 -1.1450 -1.3341  0.5005
  457SOL     vw 1828   0.171   1.926   5.384  0.4032 -0.2600  0.6542
  458SOL     ow 1829   4.102   6.365   3.906  0.6671  0.8452 -0.7130
  458SOL     hw 1830   4.110   6.438   3.967  0.8919 -0.6891  1.2153
  458SOL     hw 1831   4.181   6.370   3.851  0.2202  2.5396 -1.2460
  458SOL     vw 1832   4.114   6.375   3.907  0.6378  0.8664 -0.5289
  459SOL     ow 1833   4.609   1.374   4.889  0.4321 -0.1765  0.1635
  459SOL     hw 1834   4.637   1.340   4.974  1.7925 -0.1398 -0.2461
  459SOL     hw 1835   4.514   1.388   4.898  0.0566 -2.7607  0.7854
  459SOL     vw 1836   4.600   1.372   4.901  0.5620 -0.5126  0.1912
  460SOL     ow 1837   4.440   4.552   6.372 -0.5021 -0.1229 -0.2755
  460SOL     hw 1838   4.372   4.595   6.426 -2.6535 -2.6642 -0.7592
  460SOL     hw 1839   4.522   4.587   6.406 -1.9776  2.8033  0.6665
  460SOL     vw 1840   4.442   4.562   6.384 -0.9804 -0.0720 -0.2151
  461SOL     ow 1841   2.979   3.004   2.369  0.1048  0.0076 -0.4470
  461SOL     hw 1842   3.000   3.004   2.276 -0.4572  0.6369 -0.5817
  461SOL     hw 1843   2.910   2.938   2.378  1.0098 -0.9299 -0.2661
  461SOL     vw 1844   2.972   2.995   2.358  0.1500 -0.0331 -0.4410
  462SOL     ow 1845   1.011   5.225   2.109  0.3219 -0.2808  0.0142
  462SOL     hw 1846   1.050   5.140   2.086  0.6355  0.2908 -1.7361
  462SOL     hw 1847   1.072   5.263   2.172  1.7276 -0.1470 -1.3740
  462SOL     vw 1848   1.024   5.218   2.114  0.5488 -0.1881 -0.3998
  463SOL     ow 1849   6.369   3.959   6.439  0.4752 -0.4409 -0.9054
  463SOL     hw 1850   6.416   4.030   6.482 -1.3431 -0.0132  0.5193
  463SOL     hw 1851   6.380   3.884   6.496  0.4550 -0.6747 -1.2042
  463SOL     vw 1852   6.376   3.959   6.452  0.2325 -0.4154 -0.7567
  464SOL     ow 1853   2.904   5.056   4.692  0.0964 -0.0042  1.0200
  464SOL     hw 1854   2.992   5.030   4.663  0.9175  1.1471  2.3727
  464SOL     hw 1855   2.889   5.004   4.771 -1.1885 -1.4518 -0.1153
  464SOL     vw 1856   2.914   5.045   4.698  0.0353 -0.0434  1.0486
  465SOL     ow 1857   6.141   0.915   3.812  0.3599  0.8424 -0.3049
  465SOL     hw 1858   6.194   0.844   3.776  0.2684 -0.1110  1.3372
  465SOL     hw 1859   6.150   0.986   3.749  2.6466  0.3035 -0.6927
  465SOL     vw 1860   6.149   0.915   3.799  0.6495  0.6455 -0.1395
  466SOL     ow 1861   3.925   4.572   5.056 -0.1326 -0.2551  0.1686
  466SOL     hw 1862   3.993   4.611   5.003 -1.0351  0.8684 -0.1939
  466SOL     hw 1863   3.843   4.606   5.020 -1.1049 -3.4599 -1.0228
  466SOL     vw 1864   3.923   4.581   5.044 -0.3799 -0.5295 -0.0362
  467SOL     ow 1865   5.274   3.538   4.099 -0.5340  1.1073 -0.3075
  467SOL     hw 1866   5.347   3.498   4.052  1.2315  1.9314  1.5401
  467SOL     hw 1867   5.197   3.491   4.068  1.0878 -1.9859 -0.1423
  467SOL     vw 1868   5.274   3.526   4.089 -0.0873  0.8079 -0.0420
  468SOL     ow 1869   1.202   5.320   4.841  0.1969 -0.0596  0.1414
  468SOL     hw 1870   1.153   5.250   4.886  1.3479 -1.6376 -0.9663
  468SOL     hw 1871   1.289   5.284   4.828  0.6250  1.3309 -1.1078
  468SOL     vw 1872   1.207   5.306   4.845  0.4052 -0.0842 -0.1695
  469SOL     ow 1873   6.439   2.479   5.867  0.6839 -0.5008 -0.0449
  469SOL     hw 1874   6.415   2.407   5.809  1.5695 -0.2484 -0.7642
  469SOL     hw 1875   6.523   2.452   5.905 -0.0794 -0.8566  1.4974
  469SOL     vw 1876   6.447   2.466   5.865  0.6998 -0.5145  0.0634
  470SOL     ow 1877   0.377   4.644   0.057  0.2250 -0.7080  0.1653
  470SOL     hw 1878   0.346   4.677  -0.027 -0.5581 -2.3855 -0.2652
  470SOL     hw 1879   0.412   4.557   0.037  1.5947 -0.4604  1.3248
  470SOL     vw 1880   0.377   4.637   0.043  0.3024 -0.8965  0.2615
  471SOL     ow 1881   4.190   6.615   0.950  0.0211  0.7191  0.1122
  471SOL     hw 1882   4.278   6.651   0.958 -0.0132  0.5250  1.6475
  471SOL     hw 1883   4.135   6.672   1.005 -0.2902 -0.7775  1.4132
  471SOL     vw 1884   4.194   6.627   0.958 -0.0243  0.4961  0.4864
  472SOL     ow 1885   3.676   4.093   3.752  0.0459 -0.6588  0.4720
  472SOL     hw 1886   3.670   4.010   3.704  1.9727 -0.9872  0.7090
  472SOL     hw 1887   3.695   4.158   3.684  0.1507 -0.6807  0.4806
  472SOL     vw 1888   3.678   4.090   3.737  0.3139 -0.7050  0.5045
  473SOL     ow 1889   0.529   4.454   4.985 -0.5170 -0.7364  0.0613
  473SOL     hw 1890   0.532   4.541   4.945 -2.7078 -0.3161  0.7159
  473SOL     hw 1891   0.621   4.425   4.985  0.3857  1.8790  0.5415
  473SOL     vw 1892   0.542   4.462   4.980 -0.6869 -0.3359  0.2110
  474SOL     ow 1893   4.805   4.494   4.043 -0.3936 -0.6610 -0.7051
  474SOL     hw 1894   4.803   4.531   3.954 -0.9104 -0.9219 -0.8076
  474SOL     hw 1895   4.878   4.539   4.086 -1.4880  1.0613 -0.5677
  474SOL     vw 1896   4.815   4.505   4.037 -0.6063 -0.4683 -0.7007
  475SOL     ow 1897   1.850   3.764   4.938  0.8769  0.6193  0.3497
  475SOL     hw 1898   1.794   3.830   4.896  0.2768  0.3797  0.7564
  475SOL     hw 1899   1.823   3.682   4.899  0.2122  0.3732  1.2790
  475SOL     vw 1900   1.839   3.762   4.927  0.7100  0.5552  0.5260
  476SOL     ow 1901   2.460   4.484   1.943  0.1611 -0.6593 -0.3006
  476SOL     hw 1902   2.530   4.547   1.958  0.2740 -0.8237 -0.1349
  476SOL     hw 1903   2.477   4.414   2.006 -0.4325 -0.4709  0.0691
  476SOL     vw 1904   2.472   4.483   1.953  0.0978 -0.6559 -0.2300
  477SOL     ow 1905   1.548   2.796   5.257  0.4104 -0.4059 -0.5800
  477SOL     hw 1906   1.643   2.781   5.250  0.4127 -1.7770  1.4211
  477SOL     hw 1907   1.509   2.729   5.200  0.6424 -0.6950 -0.4064
  477SOL     vw 1908   1.556   2.785   5.248  0.4413 -0.6249 -0.2933
  478SOL     ow 1909   4.987   3.747   0.554  0.4697 -0.1035  0.1141
  478SOL     hw 1910   4.981   3.652   0.566  0.1702 -0.4746 -2.4422
  478SOL     hw 1911   4.896   3.776   0.550  0.5519  0.4658  1.7641
  478SOL     vw 1912   4.974   3.738   0.555  0.4411 -0.0774 -0.0054
  479SOL     ow 1913   2.115   3.951   6.273 -0.5256 -0.1141  0.6113
  479SOL     hw 1914   2.162   3.957   6.190 -0.8091 -1.3581  0.3337
  479SOL     hw 1915   2.111   4.041   6.305  1.5637  0.1013  0.4045
  479SOL     vw 1916   2.120   3.964   6.266 -0.2874 -0.2497  0.5472
  480SOL     ow 1917   5.913   5.628   4.431 -0.5343 -0.3083  0.0760
  480SOL     hw 1918   6.000   5.632   4.470 -0.8030  1.7787  0.5821
  480SOL     hw 1919   5.899   5.716   4.395 -3.1723  0.0636  1.7396
  480SOL     vw 1920   5.923   5.640   4.432 -0.9179  0.0162  0.3624
  481SOL     ow 1921   0.078   3.016   5.397 -0.5505 -0.2240 -0.0796
  481SOL     hw 1922   0.117   3.026   5.310 -1.0049 -0.3583 -0.3029
  481SOL     hw 1923   0.045   2.926   5.398 -1.0502 -0.0469  0.0148
  481SOL     vw 1924   0.079   3.006   5.385 -0.6764 -0.2184 -0.0963
  482SOL     ow 1925   6.199   4.665   4.382 -0.0137  0.0145 -0.9006
  482SOL     hw 1926   6.175   4.706   4.465 -2.8100 -1.5869 -0.8160
  482SOL     hw 1927   6.289   4.635   4.396 -0.4061 -0.2349  1.5630
  482SOL     vw 1928   6.208   4.667   4.395 -0.4344 -0.2296 -0.5646
  483SOL     ow 1929   2.453   3.838   1.086  0.2307  0.1483  0.1234
  483SOL     hw 1930   2.471   3.744   1.093 -0.2742 -0.0747 -1.2627
  483SOL     hw 1931   2.387   3.855   1.152  0.3916 -0.4553  0.4471
  483SOL     vw 1932   2.447   3.828   1.095  0.1853  0.0392 -0.0167
  484SOL     ow 1933   4.408   6.596   1.173 -0.0340 -0.1666 -0.7604
  484SOL     hw 1934   4.392   6.647   1.094  3.8956  0.4294 -1.3812
  484SOL     hw 1935   4.345   6.630   1.237 -1.3435  1.4006 -2.7751
  484SOL     vw 1936   4.398   6.607   1.171  0.3116  0.1187 -1.1081
  485SOL     ow 1937   2.341   1.521   0.970  0.2163 -0.5798  0.3084
  485SOL     hw 1938   2.376   1.445   0.923  0.3782  0.7641 -1.9199
  485SOL     hw 1939   2.317   1.582   0.900 -3.5800 -0.0839  1.7986
  485SOL     vw 1940   2.342   1.519   0.954 -0.2631 -0.3371  0.2110
  486SOL     ow 1941   5.112   4.018   6.488  0.0157  0.2038  0.0274
  486SOL     hw 1942   5.076   4.107   6.491  0.6524  0.4900 -0.7136
  486SOL     hw 1943   5.207   4.030   6.481  0.3404 -0.5371  2.2086
  486SOL     vw 1944   5.120   4.031   6.488  0.1428  0.1438  0.2174
  487SOL     ow 1945   0.804   1.613   6.856 -0.2506 -0.6421 -0.0420
  487SOL     hw 1946   0.744   1.687   6.865 -0.7899 -1.3017  2.2814
  487SOL     hw 1947   0.887   1.645   6.891 -0.0789 -0.7204 -0.3664
  487SOL     vw 1948   0.807   1.627   6.862 -0.2991 -0.7395  0.2217
  488SOL     ow 1949   4.577   2.207   6.753 -0.1183 -0.3953 -0.5424
  488SOL     hw 1950   4.636   2.273   6.789 -1.0628  0.3619 -0.3714
  488SOL     hw 1951   4.585   2.218   6.658  0.9813 -1.1789 -0.5738
  488SOL     vw 1952   4.586   2.217   6.745 -0.0978 -0.3988 -0.5238
  489SOL     ow 1953   2.014   3.684   6.285 -0.4210 -0.0916 -0.2326
  489SOL     hw 1954   2.059   3.647   6.209  1.0878  1.1395  0.0147
  489SOL     hw 1955   1.980   3.607   6.333  0.5226 -0.9989 -0.9871
  489SOL     vw 1956   2.015   3.669   6.282 -0.0974 -0.0489 -0.2995
  490SOL     ow 1957   6.219   6.308   6.445  0.5830 -0.2591  0.4238
  490SOL     hw 1958   6.212   6.213   6.446  1.0090 -0.2942  0.4605
  490SOL     hw 1959   6.149   6.336   6.386  1.4870 -0.7128 -0.9314
  490SOL     vw 1960   6.209   6.299   6.437  0.7584 -0.3238  0.2501
  491SOL     ow 1961   5.518   1.542   2.529  0.2645 -0.5585  0.5329
  491SOL     hw 1962   5.528   1.472   2.594  0.4620 -0.9187  0.1237
  491SOL     hw 1963   5.458   1.605   2.569  1.8000  0.1519  1.8360
  491SOL     vw 1964   5.512   1.541   2.543  0.4933 -0.5123  0.6506
  492SOL     ow 1965   1.266   3.248   6.165  0.2830  0.1489 -0.2828
  492SOL     hw 1966   1.331   3.242   6.235 -1.6768  4.1085  2.2420
  492SOL     hw 1967   1.214   3.168   6.174  0.3608  0.3251  2.6364
  492SOL     vw 1968   1.268   3.237   6.176  0.0347  0.6945  0.4354
  493SOL     ow 1969   3.205   0.032   3.228  0.2614 -0.5330  0.7371
  493SOL     hw 1970   3.115   0.047   3.198  0.1110 -0.8922  1.0067
  493SOL     hw 1971   3.259   0.079   3.165 -0.0442 -1.3625 -0.1599
  493SOL     vw 1972   3.200   0.041   3.216  0.2013 -0.6899  0.6543
  494SOL     ow 1973   5.962   6.236   5.351 -0.8130  0.0743  0.1154
  494SOL     hw 1974   5.954   6.141   5.346  0.9258 -0.0246 -2.0756
  494SOL     hw 1975   5.873   6.269   5.336 -1.3126 -1.1759  0.2676
  494SOL     vw 1976   5.949   6.228   5.348 -0.6497 -0.1037 -0.1535
  495SOL     ow 1977   2.868   6.726   2.441  0.2493 -0.7394 -0.1698
  495SOL     hw 1978   2.818   6.748   2.520 -0.2196 -3.1084  0.2651
  495SOL     hw 1979   2.958   6.746   2.464  0.2703 -2.4138  1.4348
  495SOL     vw 1980   2.873   6.732   2.455  0.1903 -1.2732  0.0993
  496SOL     ow 1981   1.431   2.935   4.653  0.2777  0.0879  0.4774
  496SOL     hw 1982   1.491   3.006   4.630 -0.5929  0.9588  0.8154
  496SOL     hw 1983   1.350   2.979   4.677 -0.6365 -1.0807 -0.3605
  496SOL     vw 1984   1.428   2.950   4.653  0.0422  0.0486  0.4115
  497SOL     ow 1985   6.159   3.440   2.168 -0.6325 -0.1677 -0.2406
  497SOL     hw 1986   6.128   3.462   2.256  1.4108 -0.0849  0.5004
  497SOL     hw 1987   6.079   3.419   2.120 -1.7516 -1.4849  1.9799
  497SOL     vw 1988   6.144   3.440   2.173 -0.5109 -0.3306  0.1502
  498SOL     ow 1989   2.582   5.413   5.856  0.6005  0.0789  0.4073
  498SOL     hw 1990   2.601   5.505   5.835  0.6491 -0.1067 -0.4082
  498SOL     hw 1991   2.490   5.413   5.882  0.4975  0.3079  0.0619
  498SOL     vw 1992   2.573   5.425   5.857  0.5933  0.0844  0.2544
  499SOL     ow 1993   1.720   3.014   1.913 -1.0338 -0.0816 -0.0149
  499SOL     hw 1994   1.722   2.961   1.993 -0.9016 -1.0407 -0.6302
  499SOL     hw 1995   1.683   3.097   1.940  1.1613  0.4870  1.5559
  499SOL     vw 1996   1.715   3.018   1.927 -0.7268 -0.1332  0.1112
  500SOL     ow 1997   5.634   2.407   6.062  0.4784  0.3928  0.0364
  500SOL     hw 1998   5.629   2.458   5.981  1.0663  1.4063  0.6304
  500SOL     hw 1999   5.594   2.463   6.129  0.6026 -0.1636  0.5916
  500SOL     vw 2000   5.628   2.421   6.060  0.5724  0.4531  0.1879
  501SOL     ow 2001   4.007   0.912   6.864  1.0542  0.4032 -0.6067
  501SOL     hw 2002   4.054   0.995   6.867  0.6698  0.6209 -0.5466
  501SOL     hw 2003   3.988   0.897   6.772 -1.1027  1.6627 -0.4373
  501SOL     vw 2004   4.010   0.921   6.852  0.7188  0.5981 -0.5767
  502SOL     ow 2005   3.631   0.157   4.353 -0.2529 -0.9394  1.3600
  502SOL     hw 2006   3.722   0.178   4.331 -0.6126  0.0589  0.8037
  502SOL     hw 2007   3.615   0.073   4.309  0.2925 -0.9642  1.1995
  502SOL     vw 2008   3.641   0.149   4.345 -0.2284 -0.8110  1.2653
  503SOL     ow 2009   0.147   5.418   6.341 -0.3256 -0.0653 -0.3034
  503SOL     hw 2010   0.178   5.405   6.252  1.7957 -0.0274  0.3905
  503SOL     hw 2011   0.170   5.509   6.361  0.7538 -0.5806  0.8533
  503SOL     vw 2012   0.154   5.428   6.332  0.0967 -0.1283 -0.0594
  504SOL     ow 2013   6.503   4.955   6.485 -0.0110 -0.1200 -0.0350
  504SOL     hw 2014   6.541   5.036   6.451 -2.2963  0.9489 -0.2379
  504SOL     hw 2015   6.577   4.908   6.522  1.4909  1.8159 -0.3847
  504SOL     vw 2016   6.518   4.960   6.485 -0.1144  0.2763 -0.1078
  505SOL     ow 2017   1.786   4.481   4.412  0.4911 -0.3827  0.0548
  505SOL     hw 2018   1.717   4.428   4.451 -0.4392  0.3661 -0.5378
  505SOL     hw 2019   1.761   4.492   4.320  0.8473  0.7546  0.0664
  505SOL     vw 2020   1.774   4.476   4.405  0.4153 -0.1338 -0.0219
  506SOL     ow 2021   1.320   2.673   1.021  0.5201  0.8172  0.0701
  506SOL     hw 2022   1.288   2.598   0.972  0.8936  0.8349 -0.2063
  506SOL     hw 2023   1.265   2.676   1.099 -0.8424  1.4837 -0.8950
  506SOL     vw 2024   1.309   2.663   1.025  0.3896  0.9074 -0.0938
  507SOL     ow 2025   1.521   6.327   3.818  0.0784  0.5774 -0.1602
  507SOL     hw 2026   1.609   6.340   3.784 -0.0956  0.3751 -0.7083
  507SOL     hw 2027   1.473   6.406   3.792 -0.5742 -0.3832 -2.1566
  507SOL     vw 2028   1.526   6.339   3.810 -0.0306  0.4239 -0.4960
  508SOL     ow 2029   4.378   1.221   3.343  0.5384 -0.0812 -0.0649
  508SOL     hw 2030   4.333   1.263   3.270  3.2898  1.3431 -1.0975
  508SOL     hw 2031   4.457   1.182   3.304  1.3001 -0.6727  1.9009
  508SOL     vw 2032   4.383   1.221   3.328  1.0021  0.0287  0.0582
  509SOL     ow 2033   5.961   3.403   0.109 -0.0790 -0.5819  0.0400
  509SOL     hw 2034   6.036   3.462   0.108 -1.5604  1.3915 -0.9958
  509SOL     hw 2035   5.965   3.357   0.026 -0.5163  0.2289 -0.4419
  509SOL     vw 2036   5.971   3.405   0.098 -0.3321 -0.2147 -0.1602
  510SOL     ow 2037   0.574   0.018   2.651 -0.3027 -0.4205 -0.2198
  510SOL     hw 2038   0.487   0.057   2.657 -0.4209 -0.4051 -1.8186
  510SOL     hw 2039   0.573  -0.052   2.716 -1.1033  0.2979  0.5765
  510SOL     vw 2040   0.562   0.014   2.661 -0.4239 -0.3236 -0.3258
  511SOL     ow 2041   4.659   3.490   3.614  1.0682 -0.0844  0.0198
  511SOL     hw 2042   4.712   3.449   3.682 -1.5158  0.9576  2.8858
  511SOL     hw 2043   4.587   3.532   3.661 -2.4036 -1.4321 -3.5097
  511SOL     vw 2044   4.656   3.490   3.629  0.2689 -0.1248 -0.0677
  512SOL     ow 2045   4.654   3.056   5.164  0.7747  0.0809 -0.5914
  512SOL     hw 2046   4.734   3.089   5.206  1.3981 -0.5102 -1.2919
  512SOL     hw 2047   4.608   3.009   5.234  1.3936 -0.1805 -0.3518
  512SOL     vw 2048   4.658   3.054   5.179  0.9384 -0.0317 -0.6521
  513SOL     ow 2049   5.120   5.922   5.626 -0.7411  0.6662 -0.1484
  513SOL     hw 2050   5.096   5.944   5.537 -1.0732  1.8629  0.2147
  513SOL     hw 2051   5.088   5.833   5.639  0.5540 -0.0544 -1.6566
  513SOL     vw 2052   5.113   5.913   5.616 -0.6142  0.7291 -0.2992
  514SOL     ow 2053   2.100   5.381   4.014  0.3561 -0.0697  0.3605
  514SOL     hw 2054   2.048   5.454   3.978  0.5534 -0.3758 -0.5881
  514SOL     hw 2055   2.034   5.318   4.043  0.1719  0.7712  1.8463
  514SOL     vw 2056   2.084   5.382   4.013  0.3579  0.0007  0.4315
  515SOL     ow 2057   5.797   4.956   3.288  0.3259  0.3503 -0.0366
  515SOL     hw 2058   5.846   5.037   3.299  1.5499 -0.3135 -0.4416
  515SOL     hw 2059   5.809   4.931   3.197  0.2561 -0.4673  0.1611
  515SOL     vw 2060   5.805   4.963   3.278  0.4783  0.1550 -0.0640
  516SOL     ow 2061   2.403   1.687   4.786  0.1372  0.0221  0.1583
  516SOL     hw 2062   2.391   1.657   4.876 -1.1051  1.2402  0.4342
  516SOL     hw 2063   2.410   1.607   4.735 -0.2395 -0.7067  1.2075
  516SOL     vw 2064   2.402   1.672   4.791 -0.0764  0.0867  0.3331
  517SOL     ow 2065   6.806   2.448   4.098  0.1220 -0.2028 -0.1492
  517SOL     hw 2066   6.876   2.460   4.035 -1.0520 -0.5438 -1.5761
  517SOL     hw 2067   6.731   2.418   4.046 -1.8704  2.4994  0.8905
  517SOL     vw 2068   6.805   2.445   4.083 -0.2959  0.1087 -0.2005
  518SOL     ow 2069   6.410   5.701   3.866 -0.1101  0.1954 -0.1080
  518SOL     hw 2070   6.373   5.648   3.796  1.8439  0.9420 -1.8052
  518SOL     hw 2071   6.491   5.655   3.891 -0.4311  0.2977  1.2210
  518SOL     vw 2072   6.416   5.688   3.860  0.1056  0.3076 -0.1565
  519SOL     ow 2073   4.723   4.729   1.603 -0.3843  0.1431 -0.2630
  519SOL     hw 2074   4.650   4.752   1.661 -0.1632  3.2222 -1.0340
  519SOL     hw 2075   4.688   4.662   1.545 -1.9892  0.1740  0.6186
  519SOL     vw 2076   4.709   4.723   1.603 -0.5670  0.5536 -0.2484
  520SOL     ow 2077   2.261   2.675   0.514  0.2407 -0.3564  0.3833
  520SOL     hw 2078   2.284   2.712   0.429 -0.3720 -1.6692 -0.3946
  520SOL     hw 2079   2.341   2.633   0.544  0.7849  1.0679  1.0188
  520SOL     vw 2080   2.274   2.674   0.506  0.2317 -0.3417  0.3645
  521SOL     ow 2081   2.890   1.100   6.771 -0.8292  0.4695 -0.1460
  521SOL     hw 2082   2.940   1.166   6.724 -3.2489  0.2734 -3.3395
  521SOL     hw 2083   2.820   1.149   6.814 -0.3582  0.3447  0.7709
  521SOL     vw 2084   2.887   1.115   6.770 -1.0862  0.4272 -0.4468
  522SOL     ow 2085   0.473   3.962   5.202  0.0057  0.1900  0.4511
  522SOL     hw 2086   0.486   3.873   5.169 -0.8235  0.0610  0.4360
  522SOL     hw 2087   0.551   4.010   5.174  0.2530 -0.4251  0.0671
  522SOL     vw 2088   0.485   3.957   5.194 -0.0711  0.0919  0.3984
  523SOL     ow 2089   0.503   5.909   2.927  0.3886 -0.2744  0.3321
  523SOL     hw 2090   0.414   5.919   2.893 -0.3516 -2.6192  1.3479
  523SOL     hw 2091   0.553   5.870   2.855  0.5216  0.7554 -0.1378
  523SOL     vw 2092   0.498   5.905   2.913  0.3085 -0.4478  0.4040
  524SOL     ow 2093   0.389   4.095   6.190 -0.3606 -0.3642  0.1341
  524SOL     hw 2094   0.306   4.117   6.233 -1.9554  0.5666 -3.0736
  524SOL     hw 2095   0.439   4.177   6.191  0.7671 -1.0216  2.4005
  524SOL     vw 2096   0.385   4.109   6.196 -0.4222 -0.3278  0.0100
  525SOL     ow 2097   4.478   0.632   6.317  0.0661  0.4493  1.4953
  525SOL     hw 2098   4.427   0.651   6.395  0.3921  1.9116  1.3922
  525SOL     hw 2099   4.447   0.547   6.287  1.3200 -1.1476  4.3136
  525SOL     vw 2100   4.467   0.623   6.323  0.2744  0.4316  1.8537
  526SOL     ow 2101   0.319   2.087   1.448 -0.0979  0.8031  0.0119
  526SOL     hw 2102   0.408   2.113   1.472 -1.1719  2.8327  2.1575
  526SOL     hw 2103   0.279   2.058   1.530 -1.0367 -1.5181 -1.1697
  526SOL     vw 2104   0.325   2.086   1.462 -0.3635  0.7647  0.1390
  527SOL     ow 2105   0.861   2.238   6.333  0.4168 -0.7402  0.4084
  527SOL     hw 2106   0.793   2.229   6.266 -0.4111 -0.8118  1.2512
  527SOL     hw 2107   0.846   2.325   6.370  1.9698  0.0480 -0.6653
  527SOL     vw 2108   0.850   2.249   6.329  0.5125 -0.6458  0.3779
  528SOL     ow 2109   0.904   6.417   6.602 -0.1099 -0.0489  0.2187
  528SOL     hw 2110   0.877   6.442   6.691 -0.1124  0.8617 -0.0279
  528SOL     hw 2111   0.841   6.460   6.545 -0.1314 -0.6676 -0.2253
  528SOL     vw 2112   0.892   6.426   6.606 -0.1131 -0.0105  0.1278
  529SOL     ow 2113   4.955   0.840   5.142 -0.2296  0.5142  0.2315
  529SOL     hw 2114   4.870   0.801   5.163 -0.9430  2.8040  2.0614
  529SOL     hw 2115   4.981   0.885   5.222  3.5196 -1.3347  0.2554
  529SOL     vw 2116   4.947   0.841   5.155  0.1707  0.5724  0.4761
  530SOL     ow 2117   1.731   0.445   2.320  0.1328  0.0024  0.1852
  530SOL     hw 2118   1.639   0.436   2.346 -0.1765 -0.9738 -1.1367
  530SOL     hw 2119   1.727   0.474   2.229  1.1264 -0.5061 -0.0307
  530SOL     vw 2120   1.718   0.447   2.312  0.2231 -0.1935 -0.0176
  531SOL     ow 2121   1.836   2.481   3.722  0.0847 -0.3411  0.2581
  531SOL     hw 2122   1.792   2.566   3.721  0.0169 -0.3748  0.4627
  531SOL     hw 2123   1.797   2.434   3.795  2.0280  0.4578  1.9108
  531SOL     vw 2124   1.825   2.486   3.731  0.3322 -0.2401  0.5031
  532SOL     ow 2125   1.501   5.361   2.666 -0.1409 -0.0188 -0.1255
  532SOL     hw 2126   1.457   5.445   2.676 -1.0595 -0.2620 -1.7528
  532SOL     hw 2127   1.491   5.318   2.751 -0.2500  1.2290  0.5156
  532SOL     vw 2128   1.494   5.366   2.678 -0.2764  0.1140 -0.2557
  533SOL     ow 2129   5.303   2.282   2.379  0.2356  0.0042 -0.1340
  533SOL     hw 2130   5.344   2.347   2.437  0.9756  0.0119 -0.6463
  533SOL     hw 2131   5.225   2.326   2.346 -1.1552 -0.5850  2.1096
  533SOL     vw 2132   5.298   2.297   2.382  0.1497 -0.0727  0.0944
  534SOL     ow 2133   3.937   0.952   4.592  0.5643  0.1092 -0.9396
  534SOL     hw 2134   3.970   0.998   4.669  0.1070 -0.2766 -0.5047
  534SOL     hw 2135   3.987   0.988   4.519 -0.2552  1.8073 -0.7162
  534SOL     vw 2136   3.948   0.963   4.593  0.3959  0.2823 -0.8528
  535SOL     ow 2137   0.195   4.915   1.204 -0.3058  0.3782  0.0724
  535SOL     hw 2138   0.210   5.009   1.195 -1.0858  0.6475  1.4047
  535SOL     hw 2139   0.234   4.892   1.288 -2.0043 -0.0514  0.7754
  535SOL     vw 2140   0.202   4.924   1.214 -0.6328  0.3572  0.3410
  536SOL     ow 2141   6.192   4.143   4.716 -0.4934 -0.0841  0.7664
  536SOL     hw 2142   6.246   4.072   4.749 -0.6976 -1.3583 -1.4407
  536SOL     hw 2143   6.252   4.218   4.709  0.9994 -1.3648 -1.2926
  536SOL     vw 2144   6.207   4.144   4.719 -0.3235 -0.4210  0.2034
  537SOL     ow 2145   2.347   0.646   6.654 -0.0741  0.1075 -0.5688
  537SOL     hw 2146   2.285   0.611   6.719 -0.1613  0.6859 -0.3325
  537SOL     hw 2147   2.424   0.671   6.705  1.0537 -2.1150 -1.0561
  537SOL     vw 2148   2.349   0.644   6.669  0.0633 -0.1094 -0.6018
  538SOL     ow 2149   2.172   1.209   4.504  0.2007  0.9422  0.5965
  538SOL     hw 2150   2.175   1.299   4.472 -2.8319  0.5245 -1.2541
  538SOL     hw 2151   2.085   1.201   4.544  0.6903 -0.9834  1.3935
  538SOL     vw 2152   2.161   1.220   4.505 -0.1347  0.6331  0.4573
  539SOL     ow 2153   2.176   6.211   6.206 -0.1962  0.1349  0.1251
  539SOL     hw 2154   2.209   6.128   6.239 -2.1212 -0.3187  1.0203
  539SOL     hw 2155   2.248   6.273   6.221  1.7541 -1.5428 -1.7025
  539SOL     vw 2156   2.190   6.208   6.212 -0.1929 -0.1464  0.0021
  540SOL     ow 2157   0.839   0.594   2.938  0.0878 -1.0041  0.5632
  540SOL     hw 2158   0.862   0.685   2.958 -0.4191 -0.9544  0.9386
  540SOL     hw 2159   0.813   0.596   2.846 -0.9231 -0.5569  0.8383
  540SOL     vw 2160   0.838   0.606   2.928 -0.1125 -0.9385  0.6489
  541poe    c31 2161   3.231   6.144   3.891  0.1305 -0.0328 -0.8384
  541poe     o2 2162   3.136   6.048   3.930  0.4956  0.1446  0.5481
  541poe    c23 2163   3.073   5.974   3.827 -0.1999  0.2638  0.8799
  541poe    c23 2164   2.998   5.845   3.866  0.0841 -0.1050  0.2277
  541poe     o2 2165   3.054   5.774   3.974 -0.1226 -0.3306  0.1859
  541poe    c23 2166   2.973   5.665   4.013 -0.1651 -0.4669 -0.2804
  541poe    c23 2167   3.014   5.638   4.159 -0.3547 -0.5053 -0.2353
  541poe     o2 2168   3.153   5.615   4.160 -0.3532 -0.5094 -0.5608
  541poe    c23 2169   3.202   5.559   4.280 -0.6087  0.7793  0.1587
  541poe    c23 2170   3.355   5.572   4.288 -0.5204 -0.0124 -0.1533
  541poe     o2 2171   3.380   5.708   4.259  0.1400 -0.0367  0.2685
  541poe    c31 2172   3.503   5.757   4.305  0.0028  0.3835  0.1935
  542poe    c31 2173   5.254   4.325   6.685 -0.6306  0.1076 -0.2943
  542poe     o2 2174   5.331   4.421   6.615 -0.3260 -0.0495 -0.1728
  542poe    c23 2175   5.262   4.541   6.588 -0.6072 -0.1223  0.2056
  542poe    c23 2176   5.321   4.649   6.495 -0.0121 -0.9186 -0.3627
  542poe     o2 2177   5.461   4.635   6.494  0.1963  0.8174  0.5236
  542poe    c23 2178   5.507   4.684   6.370  0.0272 -1.0900 -0.3258
  542poe    c23 2179   5.653   4.641   6.346  0.1838 -0.4187 -0.6032
  542poe     o2 2180   5.670   4.522   6.419 -0.3534  0.1838  0.5244
  542poe    c23 2181   5.764   4.540   6.522 -0.2982  0.4697  0.4243
  542poe    c23 2182   5.757   4.438   6.638  0.6485 -0.3249 -0.2084
  542poe     o2 2183   5.625   4.445   6.686  0.7370  0.2137 -0.0376
  542poe    c31 2184   5.608   4.357   6.795 -0.3117  0.4673  0.0108
  543poe    c31 2185   2.395   3.503   1.390  0.3060 -0.1366 -0.3433
  543poe     o2 2186   2.285   3.417   1.371  0.1096 -0.0575  0.4254
  543poe    c23 2187   2.164   3.487   1.352 -0.2168 -0.5769  0.5775
  543poe    c23 2188   2.065   3.369   1.341 -0.4271 -0.2645 -1.2446
  543poe     o2 2189   2.123   3.249   1.296  0.5453 -0.3522  0.1908
  543poe    c23 2190   2.053   3.132   1.333 -0.3081 -0.0402 -0.4017
  543poe    c23 2191   2.138   3.013   1.284  0.3364  0.3138 -0.1694
  543poe     o2 2192   2.275   3.045   1.289  0.4620 -0.3454  0.8420
  543poe    c23 2193   2.357   2.938   1.246  0.5047 -0.0432  0.1756
  543poe    c23 2194   2.401   2.965   1.101 -0.4301 -0.5501 -0.2130
  543poe     o2 2195   2.440   2.853   1.024 -0.2865 -0.4462 -0.2924
  543poe    c31 2196   2.519   2.887   0.912  0.2188 -0.2224  0.1277
  544poe    c31 2197   2.756   1.788   3.591  0.2013 -0.1939 -0.3943
  544poe     o2 2198   2.752   1.916   3.532  0.3406 -0.0957 -0.1909
  544poe    c23 2199   2.842   2.000   3.602 -0.0686  0.1779  0.0082
  544poe    c23 2200   2.927   2.076   3.499  0.4201  0.0361  0.3071
  544poe     o2 2201   2.822   2.111   3.412  0.8699  0.3873 -0.0992
  544poe    c23 2202   2.868   2.187   3.302  0.3497  0.7536 -0.0694
  544poe    c23 2203   2.750   2.208   3.206 -0.1102  0.3352  0.3972
  544poe     o2 2204   2.688   2.082   3.220  0.7082 -0.1849 -0.5299
  544poe    c23 2205   2.563   2.078   3.154  0.6260  0.3431 -0.4122
  544poe    c23 2206   2.511   1.934   3.173  0.5794  0.3694 -0.3414
  544poe     o2 2207   2.541   1.888   3.303  0.2164 -0.6807 -0.6238
  544poe    c31 2208   2.470   1.768   3.324  0.0326 -0.3103  1.0259
  545poe    c31 2209   4.289   1.971   3.077 -0.0407 -0.6482  0.2357
  545poe     o2 2210   4.260   1.876   2.978 -0.3090 -0.1894 -0.1336
  545poe    c23 2211   4.314   1.755   3.026  0.1284  0.0686  0.0235
  545poe    c23 2212   4.283   1.642   2.926  0.3963 -0.0852  0.1131
  545poe     o2 2213   4.295   1.705   2.801  0.3507 -0.8629 -0.2876
  545poe    c23 2214   4.233   1.633   2.696 -0.0983 -0.0961 -0.5555
  545poe    c23 2215   4.212   1.747   2.594 -0.4640  0.0197 -0.3544
  545poe     o2 2216   4.137   1.852   2.649  0.2854  0.4303 -0.0923
  545poe    c23 2217   3.998   1.832   2.631  0.3581  0.3722 -0.5905
  545poe    c23 2218   3.935   1.934   2.727  0.1484 -0.3306  0.0199
  545poe     o2 2219   3.993   1.892   2.849  0.2849 -0.1040  0.0324
  545poe    c31 2220   3.900   1.888   2.955 -0.0439  0.0337 -0.2486
  546poe    c31 2221   1.075   4.772   1.797 -0.7219  0.0667 -0.4583
  546poe     o2 2222   1.177   4.796   1.703  0.1776 -0.0053  0.4885
  546poe    c23 2223   1.304   4.818   1.760  0.4578  0.0420 -0.1506
  546poe    c23 2224   1.373   4.893   1.644 -0.3483  0.4849 -0.3490
  546poe     o2 2225   1.396   4.799   1.541  0.4110 -0.0158  0.2633
  546poe    c23 2226   1.431   4.869   1.424  0.2413 -0.2329  0.0797
  546poe    c23 2227   1.405   4.798   1.290 -0.0622 -0.0530  0.0440
  546poe     o2 2228   1.268   4.769   1.270  0.1543 -1.0716 -0.0201
  546poe    c23 2229   1.242   4.736   1.135 -0.4423 -0.1102 -0.1519
  546poe    c23 2230   1.089   4.746   1.132 -0.4415 -0.2422 -0.6169
  546poe     o2 2231   1.033   4.691   1.249 -0.2063  0.2395 -0.2775
  546poe    c31 2232   0.893   4.699   1.248 -0.1972  0.4324 -0.1769
  547poe    c31 2233   4.935   4.260   0.948 -0.0692 -0.3568  0.7442
  547poe     o2 2234   5.060   4.323   0.965 -0.0475 -0.1495 -0.1312
  547poe    c23 2235   5.121   4.316   0.838 -0.0598 -0.0347 -0.1439
  547poe    c23 2236   5.272   4.332   0.864 -0.0358  0.0311 -0.3254
  547poe     o2 2237   5.290   4.452   0.935 -0.4963  0.1140 -0.3457
  547poe    c23 2238   5.426   4.463   0.972 -0.5575 -0.3427  0.0353
  547poe    c23 2239   5.448   4.543   1.101  0.0689 -0.6476  0.1162
  547poe     o2 2240   5.343   4.535   1.194  0.0430 -0.2711  0.1223
  547poe    c23 2241   5.371   4.556   1.331 -0.0183  0.3810  0.0369
  547poe    c23 2242   5.254   4.547   1.431 -0.6181 -0.2375 -0.7059
  547poe     o2 2243   5.199   4.421   1.463  0.0491 -0.3082  0.2187
  547poe    c31 2244   5.128   4.421   1.584  0.4893 -0.6939  0.4793
  548poe    c31 2245   5.736   1.393   4.743 -0.3058 -0.6016 -0.6621
  548poe     o2 2246   5.599   1.362   4.760 -0.2994 -0.2705  0.0304
  548poe    c23 2247   5.579   1.261   4.855 -0.2096 -0.3008  0.0169
  548poe    c23 2248   5.434   1.221   4.887 -0.2892  0.1462  0.2200
  548poe     o2 2249   5.378   1.154   4.777  0.7266  0.0273 -0.2310
  548poe    c23 2250   5.241   1.136   4.805  0.8203 -0.0817  0.1603
  548poe    c23 2251   5.180   1.032   4.709 -0.0889  0.2897  0.3311
  548poe     o2 2252   5.203   1.070   4.575 -0.2959 -0.1301  0.1733
  548poe    c23 2253   5.163   0.980   4.474  0.1889 -0.0415 -0.0976
  548poe    c23 2254   5.198   1.049   4.340 -0.4134  0.0462 -0.2135
  548poe     o2 2255   5.309   1.134   4.359 -0.6837  0.4335 -0.3492
  548poe    c31 2256   5.385   1.121   4.241  0.3215  0.5086  0.2741
  549poe    c31 2257   3.434   0.785   5.224  0.3635 -0.2339 -0.2015
  549poe     o2 2258   3.344   0.698   5.160 -0.5385  0.5875 -0.0756
  549poe    c23 2259   3.273   0.623   5.256  0.2546 -0.4252 -0.2619
  549poe    c23 2260   3.179   0.520   5.191  0.5400 -0.7126 -0.2221
  549poe     o2 2261   3.136   0.584   5.073  0.4511 -0.1647  0.1079
  549poe    c23 2262   3.020   0.525   5.018  0.6676 -0.2772 -0.2281
  549poe    c23 2263   2.976   0.580   4.881 -0.0215 -0.1555  0.0396
  549poe     o2 2264   3.073   0.545   4.785 -0.5648 -0.0629 -0.5462
  549poe    c23 2265   3.035   0.587   4.656 -0.0487  0.1725 -0.6196
  549poe    c23 2266   3.135   0.612   4.541 -0.0065  0.3476 -0.5450
  549poe     o2 2267   3.235   0.699   4.590 -0.3392  0.1881  0.4471
  549poe    c31 2268   3.228   0.827   4.530  0.0801 -0.0771 -0.1783
  550poe    c31 2269   6.262   4.802   5.696  0.9168  0.2113 -0.3779
  550poe     o2 2270   6.127   4.774   5.665  0.6459  0.5130  0.4948
  550poe    c23 2271   6.126   4.723   5.534 -0.5754  0.3211  0.5698
  550poe    c23 2272   6.002   4.792   5.475 -0.3922  0.1613 -0.0198
  550poe     o2 2273   5.894   4.766   5.563 -0.0225  0.0131  0.3902
  550poe    c23 2274   5.769   4.817   5.524 -0.1691 -0.2525  0.5094
  550poe    c23 2275   5.675   4.816   5.646 -0.0398  0.0765  0.6116
  550poe     o2 2276   5.739   4.885   5.751 -0.5206  1.2479  0.1426
  550poe    c23 2277   5.686   4.881   5.882 -0.1753 -0.6762  0.2501
  550poe    c23 2278   5.554   4.956   5.903  0.1715 -0.0275  0.1484
  550poe     o2 2279   5.440   4.914   5.832 -0.0051  0.2262  0.2768
  550poe    c31 2280   5.344   5.017   5.829  0.0271  0.2661  0.6598
  551poe    c31 2281   0.712   3.732   0.177 -0.1627  0.2470 -0.0929
  551poe     o2 2282   0.829   3.684   0.115 -0.1301  0.3670 -0.1256
  551poe    c23 2283   0.787   3.599   0.010 -0.6077 -0.1549  0.4816
  551poe    c23 2284   0.882   3.486  -0.035 -0.0816  0.2313  0.6123
  551poe     o2 2285   0.999   3.558  -0.069 -0.3112  0.3889  0.1407
  551poe    c23 2286   1.090   3.473  -0.135  0.1617  0.4085  0.7544
  551poe    c23 2287   1.208   3.562  -0.178 -0.3681  0.5589 -0.4222
  551poe     o2 2288   1.254   3.638  -0.069 -0.0194 -0.0443 -0.1468
  551poe    c23 2289   1.357   3.728  -0.106  0.6111 -0.7962 -0.2597
  551poe    c23 2290   1.397   3.797   0.026 -0.4108  0.2035 -0.4579
  551poe     o2 2291   1.274   3.830   0.088 -0.2827  0.0799 -0.1408
  551poe    c31 2292   1.313   3.903   0.202 -0.0261 -0.0424 -0.1490
  552poe    c31 2293   3.980   3.158   2.763  0.1616  0.0733  0.1973
  552poe     o2 2294   4.070   3.058   2.805  0.4724  0.2849  0.0333
  552poe    c23 2295   4.063   3.019   2.941  0.5924 -0.2244 -0.1046
  552poe    c23 2296   4.127   2.882   2.966 -0.1161 -0.5002  0.2156
  552poe     o2 2297   4.266   2.873   2.942 -0.0074 -0.0393  0.6439
  552poe    c23 2298   4.322   2.746   2.966  0.0504 -0.0847  0.2704
  552poe    c23 2299   4.472   2.735   2.932 -0.1021 -0.4482 -0.3191
  552poe     o2 2300   4.491   2.770   2.797  0.0286 -0.0868 -0.2079
  552poe    c23 2301   4.628   2.768   2.766 -0.0171 -0.4264 -0.3847
  552poe    c23 2302   4.643   2.775   2.613 -0.3438  0.1152 -0.3914
  552poe     o2 2303   4.636   2.907   2.564  0.1914  0.1904 -0.2650
  552poe    c31 2304   4.723   2.919   2.454  1.0484 -0.3216  0.3417
  553poe    c31 2305   3.911   1.843   3.402 -0.1384  0.3080 -0.3722
  553poe     o2 2306   3.811   1.761   3.347  0.1267  0.2437 -0.7673
  553poe    c23 2307   3.815   1.630   3.398 -0.4369  0.4918 -0.0549
  553poe    c23 2308   3.697   1.547   3.345 -0.1044  0.0922 -0.1789
  553poe     o2 2309   3.583   1.625   3.372  0.0074  0.0506  0.4242
  553poe    c23 2310   3.465   1.555   3.340  0.2825 -0.1061 -0.2590
  553poe    c23 2311   3.344   1.650   3.328  0.2859 -0.1925 -1.0427
  553poe     o2 2312   3.396   1.773   3.282  0.1812  0.1200 -0.3332
  553poe    c23 2313   3.323   1.845   3.185  0.1700  1.0800  0.3733
  553poe    c23 2314   3.376   1.848   3.041  0.2882 -0.5228  0.3658
  553poe     o2 2315   3.487   1.934   3.028 -0.2862  0.1180 -0.3996
  553poe    c31 2316   3.511   1.950   2.890  0.2049  0.3693 -0.2848
  554poe    c31 2317   1.053   5.309   2.840 -0.2591 -0.6425 -0.3718
  554poe     o2 2318   1.044   5.168   2.836  0.1006 -0.6657 -0.3590
  554poe    c23 2319   1.167   5.106   2.866 -0.0122 -0.5204  0.4236
  554poe    c23 2320   1.158   4.955   2.835 -0.2847 -0.2939 -0.6514
  554poe     o2 2321   1.030   4.925   2.887 -0.1271  0.3294  0.1240
  554poe    c23 2322   0.978   4.796   2.862 -0.0635  0.3335 -0.0301
  554poe    c23 2323   0.827   4.813   2.887 -0.1019 -0.4593  0.2828
  554poe     o2 2324   0.783   4.906   2.791 -0.1725 -0.7066  0.0741
  554poe    c23 2325   0.642   4.919   2.792 -0.0810  0.4644 -0.6339
  554poe    c23 2326   0.609   5.049   2.717 -0.4186  0.3585 -0.6687
  554poe     o2 2327   0.704   5.151   2.737  0.0535 -0.2866  0.4607
  554poe    c31 2328   0.675   5.274   2.673  0.7694 -0.6397 -0.5701
  555poe    c31 2329   2.686   5.436   6.864 -0.4054  0.2913 -0.5807
  555poe     o2 2330   2.745   5.557   6.824  0.3019 -0.0498 -0.5851
  555poe    c23 2331   2.859   5.590   6.900  0.1818 -0.3827 -0.2616
  555poe    c23 2332   2.874   5.741   6.875 -0.2385 -0.2690  0.1665
  555poe     o2 2333   2.848   5.757   6.737  0.3860 -0.0880  0.0680
  555poe    c23 2334   2.850   5.892   6.696  0.2215 -0.0515  0.1810
  555poe    c23 2335   2.873   5.899   6.543  0.0130 -0.1425  0.1435
  555poe     o2 2336   2.785   5.799   6.498 -0.2520  0.2699 -0.2577
  555poe    c23 2337   2.837   5.731   6.386  0.2591  0.3047 -0.0460
  555poe    c23 2338   2.755   5.600   6.380  0.5610  0.1024  0.2002
  555poe     o2 2339   2.751   5.548   6.511 -0.0901 -0.4254 -0.0260
  555poe    c31 2340   2.783   5.411   6.515  0.0810 -0.3751  0.3618
  556poe    c31 2341   4.380   3.846   5.496  0.5980 -0.4296 -0.4431
  556poe     o2 2342   4.507   3.888   5.540  0.0346  0.2559  0.5623
  556poe    c23 2343   4.512   3.828   5.668 -0.1323 -0.3826  0.2746
  556poe    c23 2344   4.661   3.797   5.693 -0.0237  0.0851  0.2273
  556poe     o2 2345   4.731   3.919   5.681 -0.2474  0.2139  0.2229
  556poe    c23 2346   4.869   3.914   5.652 -0.1743  0.4464  0.5380
  556poe    c23 2347   4.906   4.047   5.583 -0.3924  0.1755 -0.0986
  556poe     o2 2348   4.797   4.072   5.496 -0.2282  1.6793  0.1186
  556poe    c23 2349   4.845   4.099   5.366  0.2382 -0.1887 -0.1261
  556poe    c23 2350   4.726   4.174   5.304  0.0371 -0.3846  0.0241
  556poe     o2 2351   4.618   4.092   5.345 -0.3401 -0.2069 -0.6091
  556poe    c31 2352   4.499   4.126   5.276 -0.7612 -0.3251  0.0577
  557poe    c31 2353   5.687   0.038   0.375  0.1817  0.1028  0.2490
  557poe     o2 2354   5.553  -0.005   0.385  0.0493  0.3687 -0.3506
  557poe    c23 2355   5.534  -0.125   0.457 -0.4524  0.3885 -0.4502
  557poe    c23 2356   5.381  -0.144   0.464 -0.3097 -0.5635  0.2357
  557poe     o2 2357   5.336  -0.138   0.331 -0.0016 -0.3432  0.1389
  557poe    c23 2358   5.197  -0.154   0.312 -0.0286  0.5011 -0.4116
  557poe    c23 2359   5.166  -0.131   0.163  0.2819 -0.2312 -0.5920
  557poe     o2 2360   5.233  -0.014   0.121  0.2568 -0.0771 -0.2063
  557poe    c23 2361   5.193   0.005  -0.012 -0.5272  0.0132  0.0379
  557poe    c23 2362   5.135   0.147  -0.023 -0.0955  0.1348 -0.7631
  557poe     o2 2363   5.228   0.249   0.009  0.3442 -0.4668 -0.1024
  557poe    c31 2364   5.175   0.377  -0.015 -0.0428 -0.6341 -0.1477
  558poe    c31 2365   1.124   0.399   1.045 -0.0531  0.2016  0.3963
  558poe     o2 2366   1.176   0.337   0.929  0.2468  0.3258  0.4652
  558poe    c23 2367   1.080   0.255   0.867  0.5787  0.0810  0.2754
  558poe    c23 2368   1.121   0.192   0.733  0.0523 -0.1722  0.2302
  558poe     o2 2369   1.159   0.302   0.654 -0.0788 -0.0347  0.3601
  558poe    c23 2370   1.234   0.270   0.539 -0.4208  0.4072  0.0045
  558poe    c23 2371   1.307   0.391   0.477  0.0925  0.4393  0.6601
  558poe     o2 2372   1.205   0.488   0.474 -0.0152  0.2985 -0.4274
  558poe    c23 2373   1.247   0.612   0.421  0.0726  0.2543 -0.4619
  558poe    c23 2374   1.131   0.710   0.445  0.3742  0.4163  0.3916
  558poe     o2 2375   1.100   0.704   0.582 -0.4462  0.0649  0.2027
  558poe    c31 2376   1.004   0.804   0.606 -0.3184  0.0896  0.6204
  559poe    c31 2377   3.052   2.625   5.446  0.0878 -0.5378  0.3793
  559poe     o2 2378   3.019   2.761   5.430 -0.2232 -0.6774 -0.1797
  559poe    c23 2379   3.117   2.830   5.504  0.0874 -0.5935 -0.6649
  559poe    c23 2380   3.119   2.968   5.436 -0.3076 -0.0730  0.3736
  559poe     o2 2381   2.992   3.030   5.441 -0.3528 -0.1445  0.1186
  559poe    c23 2382   2.956   3.130   5.348  0.1488  0.6315  0.7489
  559poe    c23 2383   2.803   3.140   5.361  0.0569  0.4731 -0.1634
  559poe     o2 2384   2.775   3.004   5.337 -0.4204  0.6718 -0.7717
  559poe    c23 2385   2.640   2.970   5.317 -0.4554  0.0346  0.4034
  559poe    c23 2386   2.632   2.829   5.257 -0.8175  0.1826  0.0975
  559poe     o2 2387   2.704   2.760   5.357  0.1795  0.1797 -0.6071
  559poe    c31 2388   2.736   2.630   5.311  0.4663  0.1337 -0.2768
  560poe    c31 2389   4.738   5.333   2.823  1.1309 -0.9646  0.1020
  560poe     o2 2390   4.706   5.222   2.904 -0.1030 -0.5692  0.1665
  560poe    c23 2391   4.706   5.106   2.824  0.4411 -0.0721 -0.5622
  560poe    c23 2392   4.653   4.991   2.912  0.6105 -0.0621 -0.4469
  560poe     o2 2393   4.755   4.949   3.000  0.3434  0.1218 -0.0481
  560poe    c23 2394   4.703   4.862   3.098 -0.0743  0.3201 -0.0893
  560poe    c23 2395   4.809   4.830   3.205 -0.1262  0.4027 -0.0136
  560poe     o2 2396   4.856   4.952   3.258  0.3185  0.4088 -0.4240
  560poe    c23 2397   4.879   4.947   3.397 -0.3942  0.0899 -0.3138
  560poe    c23 2398   4.896   5.092   3.445  0.1844  0.0211 -0.3042
  560poe     o2 2399   4.994   5.139   3.355  0.2163 -0.3324 -0.4547
  560poe    c31 2400   5.033   5.270   3.387  0.6977 -0.5000 -0.3557
  561poe    c31 2401   6.219   4.672   1.729 -0.0629  0.1617  0.2017
  561poe     o2 2402   6.317   4.578   1.689 -0.1684  0.0975  0.0949
  561poe    c23 2403   6.435   4.639   1.642  0.0346 -0.5354 -0.2200
  561poe    c23 2404   6.505   4.539   1.547 -0.0720 -0.3413 -0.5017
  561poe     o2 2405   6.505   4.415   1.613  0.2547  0.2772  0.6871
  561poe    c23 2406   6.586   4.337   1.528 -0.1774  0.5002  0.0657
  561poe    c23 2407   6.537   4.193   1.504 -0.4670  0.5859  0.1303
  561poe     o2 2408   6.418   4.195   1.430 -0.2527 -0.0929 -0.2429
  561poe    c23 2409   6.381   4.073   1.370 -0.0595 -0.5741  0.6144
  561poe    c23 2410   6.247   4.100   1.300  0.5484  0.9050 -0.0111
  561poe     o2 2411   6.136   4.123   1.384  0.3283  0.1875 -0.0982
  561poe    c31 2412   6.031   4.192   1.320  0.6899  0.9407  0.1048
  562poe    c31 2413   0.571   0.530   5.071 -0.3235 -0.0045  0.4561
  562poe     o2 2414   0.529   0.616   5.174  0.1672  0.2549  0.4417
  562poe    c23 2415   0.408   0.568   5.228 -0.0326  0.1287 -0.1118
  562poe    c23 2416   0.341   0.680   5.310  0.3302  0.0177  0.3369
  562poe     o2 2417   0.452   0.752   5.360  0.6851 -0.0450 -0.3392
  562poe    c23 2418   0.409   0.876   5.412  0.5094 -0.1664 -0.1940
  562poe    c23 2419   0.535   0.929   5.483  0.4932 -0.7588  0.2935
  562poe     o2 2420   0.636   0.911   5.386  0.1565  0.3160 -0.2785
  562poe    c23 2421   0.772   0.909   5.425  0.3168  1.0504 -0.7757
  562poe    c23 2422   0.851   0.853   5.305  0.1890 -0.3998 -0.2087
  562poe     o2 2423   0.784   0.741   5.252 -0.7269 -0.1366  0.3776
  562poe    c31 2424   0.869   0.690   5.153 -0.9259  0.0019  0.1331
  563poe    c31 2425   2.453   6.352   3.373  0.4946  0.2985  0.4209
  563poe     o2 2426   2.459   6.467   3.455 -0.2910  0.5609  0.1201
  563poe    c23 2427   2.367   6.556   3.395  0.0210  0.6882 -0.1672
  563poe    c23 2428   2.367   6.698   3.453  0.0241  0.5125  0.2706
  563poe     o2 2429   2.309   6.740   3.574  0.1393  0.3351  0.3879
  563poe    c23 2430   2.406   6.771   3.672  0.0721  0.2880  0.4695
  563poe    c23 2431   2.480   6.665   3.756 -0.0603  0.4582  0.8012
  563poe     o2 2432   2.569   6.587   3.679 -0.8277 -0.0397  0.4100
  563poe    c23 2433   2.701   6.636   3.692 -0.7772 -0.1253  0.2188
  563poe    c23 2434   2.789   6.510   3.709 -0.8128 -0.1419  0.2791
  563poe     o2 2435   2.754   6.398   3.630  0.3313 -0.6422  0.4722
  563poe    c31 2436   2.855   6.302   3.653  0.3006 -0.5227  1.1153
  564poe    c31 2437   1.553   6.521   5.990  0.2758  0.4737  0.8423
  564poe     o2 2438   1.638   6.615   5.928  0.0594  0.1706  0.0738
  564poe    c23 2439   1.580   6.743   5.944 -0.2810  0.0556 -0.2246
  564poe    c23 2440   1.658   6.864   5.889 -0.5281  0.4096  0.2031
  564poe     o2 2441   1.640   6.877   5.750  0.8151 -0.1212 -0.0410
  564poe    c23 2442   1.731   6.971   5.697  0.7870  0.2184  0.5068
  564poe    c23 2443   1.754   6.955   5.546 -0.1461 -0.3243  0.4122
  564poe     o2 2444   1.808   6.826   5.523  0.0869 -0.1476 -0.0366
  564poe    c23 2445   1.905   6.844   5.422  0.3458  0.0483  0.2428
  564poe    c23 2446   1.971   6.707   5.401  0.0145 -0.1756  0.6547
  564poe     o2 2447   1.866   6.614   5.392 -0.2935  0.2568 -0.3272
  564poe    c31 2448   1.916   6.496   5.334  0.0502 -0.0853  0.6395
  565poe    c31 2449   5.200   4.610   2.121 -0.0995 -0.4156  0.2061
  565poe     o2 2450   5.101   4.539   2.050 -0.2351  0.1600 -0.1890
  565poe    c23 2451   5.101   4.403   2.087  0.9208  0.0164 -0.6721
  565poe    c23 2452   5.030   4.321   1.978  0.2385 -0.2430 -0.0437
  565poe     o2 2453   4.901   4.375   1.967  0.1144 -0.5129  0.0902
  565poe    c23 2454   4.815   4.265   1.946 -0.4967 -0.0591  0.1899
  565poe    c23 2455   4.666   4.304   1.948 -0.5328 -0.1295 -0.5817
  565poe     o2 2456   4.633   4.397   1.848 -0.1723  0.3959 -0.2183
  565poe    c23 2457   4.499   4.440   1.856 -0.0407  0.7635  0.0251
  565poe    c23 2458   4.462   4.544   1.749 -0.1917  0.5882 -0.0939
  565poe     o2 2459   4.505   4.675   1.778  0.0758  0.5607 -0.3671
  565poe    c31 2460   4.438   4.743   1.882  0.2492  1.2951 -0.7293
  566poe    c31 2461   4.581   0.942   5.762  0.1020 -0.3403 -0.0924
  566poe     o2 2462   4.566   0.998   5.891  0.4284 -0.6332  0.0766
  566poe    c23 2463   4.685   1.038   5.954  0.3087  0.3642 -0.2979
  566poe    c23 2464   4.672   1.054   6.107  0.0876 -0.3650 -0.2374
  566poe     o2 2465   4.547   1.112   6.136  0.4044 -0.0615  0.5543
  566poe    c23 2466   4.528   1.091   6.274  0.0652 -0.6293  0.4232
  566poe    c23 2467   4.389   1.027   6.291 -0.1472 -0.4830 -0.6819
  566poe     o2 2468   4.340   0.991   6.163  0.0963 -0.0618 -0.8926
  566poe    c23 2469   4.226   0.910   6.151 -0.0867  0.1193 -0.4016
  566poe    c23 2470   4.152   0.961   6.026 -0.4475  1.1072  0.2038
  566poe     o2 2471   4.248   0.974   5.924  0.2567  0.2329  0.7291
  566poe    c31 2472   4.189   1.012   5.801  0.3306 -0.3300  0.5183
  567poe    c31 2473   3.455   3.106   6.864 -0.0296 -0.1671  0.5240
  567poe     o2 2474   3.380   3.008   6.797  0.2046  0.2692 -0.3883
  567poe    c23 2475   3.421   2.875   6.823  0.0066  0.2638 -0.0895
  567poe    c23 2476   3.342   2.778   6.734  0.1200  0.0295  0.0660
  567poe     o2 2477   3.329   2.847   6.612 -0.2063 -0.6201 -0.2762
  567poe    c23 2478   3.281   2.773   6.503  0.0540 -0.9199 -0.1891
  567poe    c23 2479   3.298   2.862   6.378  0.1510  0.1383  0.5702
  567poe     o2 2480   3.279   3.000   6.401  0.8757  0.3315  0.0340
  567poe    c23 2481   3.264   3.070   6.279  0.2667 -0.4772 -0.3707
  567poe    c23 2482   3.252   3.223   6.290 -0.5409 -0.5479 -0.2433
  567poe     o2 2483   3.155   3.279   6.376  0.2538 -0.0511  0.3408
  567poe    c31 2484   3.161   3.420   6.377 -0.3544 -0.0111 -0.3775
  568poe    c31 2485   6.811   6.698   6.300  0.3094  0.3720  0.0669
  568poe     o2 2486   6.880   6.575   6.289  0.1818  0.2488  0.6194
  568poe    c23 2487   6.798   6.461   6.295  0.4273  0.0016 -0.5160
  568poe    c23 2488   6.887   6.352   6.231  0.3317  0.1003 -0.8197
  568poe     o2 2489   7.005   6.372   6.306 -0.4575 -0.2077  0.5379
  568poe    c23 2490   7.093   6.263   6.290  0.3498  0.5387 -0.1945
  568poe    c23 2491   7.179   6.285   6.416  0.9157  0.5645 -0.5822
  568poe     o2 2492   7.217   6.421   6.407 -0.0083  0.8168 -0.7614
  568poe    c23 2493   7.262   6.468   6.532  0.0848  0.2450 -0.5789
  568poe    c23 2494   7.276   6.621   6.523 -0.3171  0.3546  0.5534
  568poe     o2 2495   7.151   6.669   6.479 -0.1881  0.0967 -0.0965
  568poe    c31 2496   7.145   6.807   6.508 -0.2921 -0.0132  0.4129
  569poe    c31 2497   3.086   6.546   2.794  0.1865 -0.0465 -0.0655
  569poe     o2 2498   2.955   6.515   2.751  0.1622 -0.0627  0.0191
  569poe    c23 2499   2.858   6.570   2.837  0.0191 -0.2830  0.0011
  569poe    c23 2500   2.713   6.539   2.799 -0.1106  0.0555  0.2116
  569poe     o2 2501   2.704   6.399   2.783 -0.3903  0.1163 -0.2156
  569poe    c23 2502   2.616   6.354   2.683 -0.5264  1.0384 -0.5170
  569poe    c23 2503   2.672   6.380   2.542  0.3119 -0.3662 -0.4615
  569poe     o2 2504   2.802   6.326   2.547  0.2876 -0.3726  0.1359
  569poe    c23 2505   2.878   6.382   2.443 -0.0692 -0.0082  0.0705
  569poe    c23 2506   3.010   6.303   2.445  0.2235  0.4562 -0.4289
  569poe     o2 2507   3.075   6.326   2.568  0.5332 -0.2084 -0.4623
  569poe    c31 2508   3.166   6.224   2.602  0.4829  0.0095  0.3480
  570poe    c31 2509   0.604   3.240   6.425  0.1011 -0.0377 -0.3970
  570poe     o2 2510   0.538   3.138   6.352 -0.2195 -0.1757  0.0791
  570poe    c23 2511   0.472   3.197   6.242  0.0050  1.0029  0.5568
  570poe    c23 2512   0.321   3.193   6.269 -0.1044 -0.0104 -0.1593
  570poe     o2 2513   0.300   3.074   6.342 -0.3931 -0.3734 -0.8201
  570poe    c23 2514   0.169   3.090   6.391 -0.0117 -0.1250  0.1598
  570poe    c23 2515   0.115   2.979   6.482 -0.8173 -0.0041 -0.1564
  570poe     o2 2516   0.147   2.850   6.434  0.5312  0.5368 -0.7435
  570poe    c23 2517   0.074   2.800   6.325 -0.3470 -0.2375  0.1844
  570poe    c23 2518   0.134   2.665   6.280  0.0834  0.0015  0.0454
  570poe     o2 2519   0.270   2.668   6.243 -0.1180 -0.8379 -0.7733
  570poe    c31 2520   0.305   2.706   6.112  0.1692  0.2161 -0.3949
  571poe    c31 2521   3.080   3.521   5.473 -0.4426 -0.0308 -0.3767
  571poe     o2 2522   3.029   3.519   5.342 -1.0709 -0.5143 -0.1333
  571poe    c23 2523   3.107   3.427   5.268  0.6330  0.3912  0.4809
  571poe    c23 2524   3.094   3.464   5.119  0.4548  0.0686  0.4152
  571poe     o2 2525   3.185   3.567   5.085 -0.0869  0.3277 -0.2691
  571poe    c23 2526   3.218   3.565   4.948  0.5348 -0.5933 -0.1160
  571poe    c23 2527   3.270   3.703   4.906 -0.0612 -0.0750  0.8037
  571poe     o2 2528   3.182   3.800   4.959 -0.2263  0.1525  0.1342
  571poe    c23 2529   3.167   3.912   4.876  0.2367 -0.0756 -0.2650
  571poe    c23 2530   3.154   4.033   4.970 -0.1754 -0.2385 -0.1115
  571poe     o2 2531   3.059   4.006   5.071 -0.7883 -0.4525 -0.7344
  571poe    c31 2532   2.963   4.101   5.113 -0.4373 -0.1716 -0.5582
  572poe    c31 2533   2.819   3.438   3.378  0.1871  0.0006 -0.0346
  572poe     o2 2534   2.774   3.514   3.488 -0.1929 -0.1779 -0.0676
  572poe    c23 2535   2.637   3.484   3.508 -0.3119  0.2995 -0.1372
  572poe    c23 2536   2.569   3.580   3.607  0.4826  0.7682 -0.0364
  572poe     o2 2537   2.627   3.585   3.736 -0.1786 -0.2420  0.3140
  572poe    c23 2538   2.579   3.697   3.806  0.1038 -0.1628  0.3822
  572poe    c23 2539   2.644   3.714   3.945  0.2951  0.4573  0.2199
  572poe     o2 2540   2.782   3.725   3.923  0.2455  0.0825 -0.2945
  572poe    c23 2541   2.858   3.753   4.039 -0.0290 -0.1758 -0.0503
  572poe    c23 2542   3.001   3.787   3.991 -0.0926  0.4032  0.1643
  572poe     o2 2543   3.038   3.691   3.894  0.0655  0.1882  0.4385
  572poe    c31 2544   3.175   3.657   3.891 -0.0739 -0.4118  0.6331
  573poe    c31 2545   4.319   6.257   1.646 -0.6863  0.7620  0.3443
  573poe     o2 2546   4.239   6.152   1.595  0.1033  0.7303 -0.8704
  573poe    c23 2547   4.125   6.210   1.535 -0.5811  0.4565  0.1474
  573poe    c23 2548   4.020   6.098   1.527 -0.1818  0.1073 -0.2645
  573poe     o2 2549   4.049   6.005   1.424  0.0068 -0.2713  0.1259
  573poe    c23 2550   3.948   5.907   1.419 -0.2965  0.0625 -0.3529
  573poe    c23 2551   3.990   5.805   1.311 -0.3359 -0.0138 -0.2954
  573poe     o2 2552   4.075   5.874   1.223 -0.4616  0.1897 -0.2582
  573poe    c23 2553   4.120   5.775   1.133 -0.1052 -0.0062  0.1297
  573poe    c23 2554   4.209   5.815   1.014  0.2844  0.3572  0.5426
  573poe     o2 2555   4.129   5.891   0.926  0.0138 -0.7404 -0.1695
  573poe    c31 2556   4.181   5.924   0.799  0.4241  0.2613  0.2512
  574poe    c31 2557   5.731   1.670   4.546 -0.1954  0.6584  0.0874
  574poe     o2 2558   5.660   1.749   4.454 -0.4707  0.3266  0.0117
  574poe    c23 2559   5.615   1.659   4.355 -0.0902 -0.3386  0.4379
  574poe    c23 2560   5.492   1.729   4.294  0.2915 -0.0742 -0.0502
  574poe     o2 2561   5.517   1.866   4.278  0.2243 -0.1192 -0.5538
  574poe    c23 2562   5.431   1.933   4.189 -0.5147  0.2582  0.4174
  574poe    c23 2563   5.478   2.075   4.152  0.0641 -0.0643 -0.1201
  574poe     o2 2564   5.507   2.144   4.271 -0.6608 -0.3547  0.2317
  574poe    c23 2565   5.538   2.276   4.234 -0.0748 -0.4057  0.5203
  574poe    c23 2566   5.595   2.350   4.356 -0.4722  0.5529  0.1363
  574poe     o2 2567   5.712   2.280   4.393 -0.7325  0.1162  0.1362
  574poe    c31 2568   5.782   2.333   4.503  0.1896 -0.0514 -0.3622
  575poe    c31 2569   5.794   2.262   3.361 -0.4278 -0.1249  0.2450
  575poe     o2 2570   5.681   2.187   3.400 -0.3721 -0.4202 -0.1545
  575poe    c23 2571   5.675   2.191   3.541 -0.4560 -0.2711 -0.1625
  575poe    c23 2572   5.532   2.165   3.594 -0.1553  0.0323  0.8054
  575poe     o2 2573   5.484   2.042   3.544  0.1672  0.0741  0.3806
  575poe    c23 2574   5.369   2.005   3.618  0.2103 -0.1780  0.3222
  575poe    c23 2575   5.305   1.884   3.548  0.0090 -0.1860  0.5199
  575poe     o2 2576   5.410   1.790   3.545  0.1051 -0.0689  0.1032
  575poe    c23 2577   5.361   1.665   3.501 -0.1885 -0.1046  0.5172
  575poe    c23 2578   5.487   1.581   3.476  0.0706  0.4103  0.0502
  575poe     o2 2579   5.579   1.674   3.423  0.5676  0.0001  0.1822
  575poe    c31 2580   5.706   1.613   3.409  0.4581 -0.0668 -0.5240
  576poe    c31 2581   5.037   1.106   2.676  0.1492  0.3801 -0.2864
  576poe     o2 2582   4.900   1.112   2.645  0.0375 -0.6738 -0.0408
  576poe    c23 2583   4.885   1.191   2.530 -0.3329  0.6135  0.8693
  576poe    c23 2584   4.739   1.238   2.517 -0.3067  0.3492 -0.5252
  576poe     o2 2585   4.656   1.127   2.544  0.0530  0.3176  0.4651
  576poe    c23 2586   4.522   1.168   2.553  0.1139  0.5684  0.2182
  576poe    c23 2587   4.454   1.035   2.588  0.5454  0.1855 -0.3764
  576poe     o2 2588   4.513   0.982   2.705  0.1769 -0.2068 -0.3646
  576poe    c23 2589   4.437   0.868   2.738 -0.6588  0.3885 -0.1903
  576poe    c23 2590   4.481   0.808   2.872 -0.7755  0.6289 -0.0438
  576poe     o2 2591   4.599   0.731   2.861 -1.0093  0.2864 -0.1719
  576poe    c31 2592   4.574   0.615   2.937  0.2398  0.3220  0.3105
  577poe    c31 2593   0.906   4.468   2.610  0.2073 -0.4103 -0.1852
  577poe     o2 2594   0.976   4.379   2.526 -0.0062 -0.1847 -0.6041
  577poe    c23 2595   0.994   4.456   2.409  0.0658  0.6683 -0.0427
  577poe    c23 2596   1.029   4.360   2.294 -0.3042  0.7792 -0.2489
  577poe     o2 2597   1.153   4.293   2.298 -0.7760 -0.0797  0.3507
  577poe    c23 2598   1.157   4.257   2.162  0.2966  0.6857  0.1650
  577poe    c23 2599   1.278   4.164   2.174 -0.3508 -0.2523 -0.4792
  577poe     o2 2600   1.293   4.081   2.287 -0.2240  0.0155 -0.2977
  577poe    c23 2601   1.417   4.014   2.285 -0.4364 -0.3868 -0.1940
  577poe    c23 2602   1.418   3.949   2.425  0.1084 -0.1298 -0.0760
  577poe     o2 2603   1.411   4.044   2.530  0.4273 -0.1838 -0.0054
  577poe    c31 2604   1.419   3.974   2.652  0.1711  0.2859  0.2807
  578poe    c31 2605   4.387   0.901   3.545 -0.4133 -0.1012  0.2382
  578poe     o2 2606   4.359   1.035   3.579 -0.2479 -0.0689  0.2471
  578poe    c23 2607   4.438   1.076   3.688 -0.2452  0.5154  0.0340
  578poe    c23 2608   4.403   1.208   3.758  0.2779  0.4718  0.3870
  578poe     o2 2609   4.383   1.294   3.648 -0.2744 -0.1056  0.0229
  578poe    c23 2610   4.394   1.429   3.690 -0.0636 -0.1115 -0.0098
  578poe    c23 2611   4.384   1.510   3.560  0.1618  0.2570  0.1998
  578poe     o2 2612   4.273   1.469   3.483  0.2880  0.2443  0.0237
  578poe    c23 2613   4.230   1.561   3.384 -0.6746  0.2980  0.4837
  578poe    c23 2614   4.142   1.475   3.291  0.1225 -1.0558  0.9522
  578poe     o2 2615   4.210   1.373   3.221  0.0024 -0.7468  0.3805
  578poe    c31 2616   4.139   1.337   3.105 -0.3744  0.1361  0.3291
  579poe    c31 2617   2.366   5.441   0.665 -0.0216 -0.3356  0.4363
  579poe     o2 2618   2.226   5.459   0.661 -0.0305 -0.4551  0.1254
  579poe    c23 2619   2.180   5.574   0.593 -0.1905 -0.5278  0.1096
  579poe    c23 2620   2.035   5.587   0.642 -0.3254 -0.5283 -0.2925
  579poe     o2 2621   1.974   5.462   0.619 -0.5134 -0.4182 -0.4021
  579poe    c23 2622   1.869   5.445   0.711  0.4604 -0.4933  0.7227
  579poe    c23 2623   1.794   5.319   0.666 -0.1535  0.1304 -0.0444
  579poe     o2 2624   1.887   5.218   0.634 -0.5950 -0.3286  0.0930
  579poe    c23 2625   1.825   5.092   0.623  0.1612 -0.7139  0.1780
  579poe    c23 2626   1.897   5.007   0.517  0.2826  0.3186 -0.5862
  579poe     o2 2627   2.024   4.975   0.570 -0.0038  0.0683 -0.0414
  579poe    c31 2628   2.053   4.841   0.538  0.1694  0.2207 -0.5386
  580poe    c31 2629   3.607   3.890   4.795 -0.4811 -0.1819 -0.3621
  580poe     o2 2630   3.664   3.843   4.675  0.0340 -0.4807 -0.0034
  580poe    c23 2631   3.678   3.949   4.582 -0.4022 -0.4946 -0.0867
  580poe    c23 2632   3.744   3.894   4.455  0.0589 -0.7267  0.2485
  580poe     o2 2633   3.871   3.843   4.488  0.2836 -0.2353  0.1487
  580poe    c23 2634   3.954   3.807   4.379 -0.2066 -0.7159 -0.0718
  580poe    c23 2635   4.078   3.731   4.429 -0.0546 -0.3268  0.1454
  580poe     o2 2636   4.022   3.626   4.504  0.1169 -0.2077  0.4468
  580poe    c23 2637   4.104   3.604   4.616  0.2560  0.4665  0.4769
  580poe    c23 2638   4.017   3.530   4.719  0.2687  0.3566  0.4077
  580poe     o2 2639   3.917   3.620   4.761  0.0205  0.1909  0.1762
  580poe    c31 2640   3.872   3.571   4.885  0.2262 -0.0658  0.1502
  581poe    c31 2641   3.613   5.179   1.579 -0.0104 -0.0317  0.1352
  581poe     o2 2642   3.492   5.200   1.647  0.2413  0.7490  0.3493
  581poe    c23 2643   3.431   5.076   1.674  0.9089  0.3200 -0.0898
  581poe    c23 2644   3.313   5.078   1.773  0.6233  0.5646 -0.4350
  581poe     o2 2645   3.361   5.103   1.903 -0.0263 -0.3036 -0.0198
  581poe    c23 2646   3.398   4.987   1.974  0.2239 -0.2311 -0.0317
  581poe    c23 2647   3.382   5.024   2.123 -0.4485  0.4368 -0.2635
  581poe     o2 2648   3.447   5.146   2.148  0.3952 -0.1173  0.3118
  581poe    c23 2649   3.429   5.196   2.279 -0.2819  0.8277 -0.1278
  581poe    c23 2650   3.492   5.336   2.272  0.6305  0.4250 -0.0783
  581poe     o2 2651   3.468   5.393   2.145  0.1696 -0.3105 -0.3249
  581poe    c31 2652   3.491   5.530   2.167 -0.0852 -0.2801 -0.2467
  582poe    c31 2653   2.728   2.175   5.602 -0.5688 -0.4115 -0.1384
  582poe     o2 2654   2.754   2.168   5.741 -0.2459 -0.1641 -0.1867
  582poe    c23 2655   2.801   2.041   5.779 -0.2056  0.1303  0.7734
  582poe    c23 2656   2.843   2.050   5.927  0.0664  0.2655  0.6885
  582poe     o2 2657   2.747   2.112   6.009 -0.3809  0.0035  0.3664
  582poe    c23 2658   2.792   2.129   6.141 -0.5844  0.2223  0.4087
  582poe    c23 2659   2.668   2.184   6.213 -0.2491  0.5790  0.7167
  582poe     o2 2660   2.623   2.291   6.133 -0.1785  0.2829  0.2788
  582poe    c23 2661   2.522   2.359   6.205 -0.4045  0.1017  0.1343
  582poe    c23 2662   2.474   2.487   6.133 -0.6247  0.0549  0.1967
  582poe     o2 2663   2.580   2.580   6.144 -0.4259 -0.0687 -0.6245
  582poe    c31 2664   2.558   2.701   6.074  0.6061  0.8017  0.5121
  583poe    c31 2665   6.114   2.001   1.761 -0.1615  0.0681 -0.2105
  583poe     o2 2666   6.173   2.129   1.767 -0.5418  0.2365  0.0004
  583poe    c23 2667   6.110   2.206   1.867 -0.2786  0.2315  0.1723
  583poe    c23 2668   6.146   2.352   1.836 -0.1333  0.0538 -0.5154
  583poe     o2 2669   6.285   2.348   1.857 -0.0845  0.0047 -0.8430
  583poe    c23 2670   6.347   2.474   1.844 -0.1320  0.1259  0.0469
  583poe    c23 2671   6.495   2.437   1.867 -0.3044 -0.2842  0.5063
  583poe     o2 2672   6.523   2.320   1.793  0.3989  0.3242 -0.2049
  583poe    c23 2673   6.616   2.235   1.857  0.1489 -0.0714 -0.3623
  583poe    c23 2674   6.624   2.099   1.786 -0.9139 -0.3071 -0.0516
  583poe     o2 2675   6.489   2.068   1.762 -0.8937 -0.4558  0.0244
  583poe    c31 2676   6.475   1.948   1.688  0.1810 -0.1289 -0.7395
  584poe    c31 2677   0.874   3.957   0.527  0.0198  0.1466  0.3563
  584poe     o2 2678   0.813   4.003   0.646 -0.4148 -0.2570  0.2939
  584poe    c23 2679   0.712   4.090   0.600 -0.2498 -0.0659  0.2913
  584poe    c23 2680   0.627   4.113   0.727 -0.2602  0.0150  0.2699
  584poe     o2 2681   0.595   3.996   0.799 -0.7427 -0.2177 -0.3072
  584poe    c23 2682   0.538   4.040   0.921  0.3263  0.6786 -0.1109
  584poe    c23 2683   0.634   4.027   1.040  0.0376  0.3203  0.0830
  584poe     o2 2684   0.728   3.929   1.003 -0.0532 -0.0457  0.7955
  584poe    c23 2685   0.841   3.957   1.083  0.1670 -0.2402  0.5581
  584poe    c23 2686   0.945   3.855   1.033  0.6703  0.3922  0.3000
  584poe     o2 2687   0.941   3.867   0.893  0.8125 -0.1990  0.2443
  584poe    c31 2688   1.071   3.878   0.838  0.3206 -0.3086 -0.9731
  585poe    c31 2689   3.565   6.543   5.409  0.2507  0.2526  0.0352
  585poe     o2 2690   3.532   6.432   5.329  0.3501  0.3843 -0.1911
  585poe    c23 2691   3.479   6.336   5.418  0.3769 -0.3139 -0.9150
  585poe    c23 2692   3.406   6.223   5.344 -0.9373 -0.0543 -0.0553
  585poe     o2 2693   3.486   6.171   5.240 -0.4559 -0.5172  0.5388
  585poe    c23 2694   3.441   6.040   5.212 -0.9150 -0.3616  0.5336
  585poe    c23 2695   3.554   5.935   5.199 -0.7744 -0.0915 -0.5320
  585poe     o2 2696   3.644   5.980   5.101  0.3003  0.0795  0.5180
  585poe    c23 2697   3.762   5.901   5.096  0.4490  0.2987  0.5536
  585poe    c23 2698   3.865   5.988   5.021  0.5590 -0.2884  0.0180
  585poe     o2 2699   3.858   6.119   5.072  0.1423 -0.1919 -0.2844
  585poe    c31 2700   3.976   6.181   5.027  0.2274  0.3276  0.6171
  586poe    c31 2701   5.289   2.401   3.522  0.3152  0.1250  0.5802
  586poe     o2 2702   5.252   2.535   3.501 -0.1514 -0.1924 -0.6851
  586poe    c23 2703   5.163   2.563   3.606  0.2794 -0.4564 -0.2497
  586poe    c23 2704   5.144   2.715   3.614  0.1839 -0.4692 -0.2321
  586poe     o2 2705   5.140   2.787   3.493 -0.0300  0.2633  0.2013
  586poe    c23 2706   5.146   2.924   3.523 -0.5338  0.3349 -0.0103
  586poe    c23 2707   5.269   2.997   3.465 -0.3573 -0.4298 -0.6064
  586poe     o2 2708   5.349   2.891   3.419 -0.0676 -0.5926  0.2461
  586poe    c23 2709   5.487   2.917   3.433 -0.1529  0.4000 -0.6390
  586poe    c23 2710   5.552   2.799   3.359  0.0235 -0.1895  0.4330
  586poe     o2 2711   5.488   2.690   3.421 -0.1691 -0.5552 -0.3891
  586poe    c31 2712   5.567   2.575   3.400  0.1503 -0.4303  0.1052
  587poe    c31 2713   6.587   3.915   4.417 -0.2092  0.4664 -0.1846
  587poe     o2 2714   6.714   3.892   4.360 -0.1114  0.3033  0.0944
  587poe    c23 2715   6.799   3.896   4.472  0.1788 -0.0899 -0.1085
  587poe    c23 2716   6.929   3.951   4.412  0.5032 -0.4633  0.2484
  587poe     o2 2717   7.000   3.865   4.325  0.4171  0.0065 -0.2927
  587poe    c23 2718   7.101   3.917   4.242  0.5918  0.0554 -0.0508
  587poe    c23 2719   7.160   3.791   4.176  0.5469  0.1751 -0.3216
  587poe     o2 2720   7.072   3.713   4.097  0.2675  0.1389  0.0226
  587poe    c23 2721   7.135   3.603   4.036  0.2611  0.0893  0.1064
  587poe    c23 2722   7.023   3.540   3.950  0.3711 -0.5879  0.4537
  587poe     o2 2723   6.895   3.555   4.005  0.2508 -0.1291  0.0474
  587poe    c31 2724   6.803   3.526   3.902  0.5404 -0.2806 -0.1666
  588poe    c31 2725   1.262   2.840   4.984  0.2003 -0.2188  0.4531
  588poe     o2 2726   1.304   2.783   4.862 -0.1359 -0.3701  0.4053
  588poe    c23 2727   1.182   2.762   4.794 -0.2328 -0.1399  0.5079
  588poe    c23 2728   1.206   2.657   4.685  0.0736  0.3185  0.1302
  588poe     o2 2729   1.326   2.700   4.624  0.3549 -0.2440  0.2806
  588poe    c23 2730   1.383   2.581   4.575  0.2698 -0.2681  0.2401
  588poe    c23 2731   1.535   2.581   4.596  0.3111  0.4023 -0.0325
  588poe     o2 2732   1.558   2.663   4.709 -0.7945  0.3995  0.2089
  588poe    c23 2733   1.696   2.689   4.725 -0.6631 -0.0667 -0.1317
  588poe    c23 2734   1.711   2.785   4.845 -0.4349 -0.3629  0.0790
  588poe     o2 2735   1.590   2.857   4.855 -0.0669  0.3418 -0.4730
  588poe    c31 2736   1.606   2.951   4.959 -0.2413  0.3035 -0.4119
  589poe    c31 2737   5.925   3.543   0.443  0.2852  0.2932  0.0087
  589poe     o2 2738   5.852   3.529   0.323 -0.3314  0.1509  0.3927
  589poe    c23 2739   5.750   3.625   0.325 -0.6397 -0.1645  0.0359
  589poe    c23 2740   5.672   3.624   0.192 -0.1712 -0.2022 -0.2423
  589poe     o2 2741   5.657   3.491   0.150  0.0890 -0.0699 -0.7578
  589poe    c23 2742   5.585   3.476   0.029 -0.3627 -0.7012 -0.4176
  589poe    c23 2743   5.664   3.511  -0.098  0.0360  0.0721  0.0355
  589poe     o2 2744   5.734   3.391  -0.122  0.6535  0.2725  0.8182
  589poe    c23 2745   5.819   3.408  -0.233  0.2943  0.0472  0.5057
  589poe    c23 2746   5.929   3.301  -0.224  0.7155  0.4078 -0.2627
  589poe     o2 2747   6.012   3.305  -0.110  0.3282  0.4423  0.0175
  589poe    c31 2748   6.103   3.198  -0.107  0.1184  0.2581 -0.0996
  590poe    c31 2749   6.019   6.461   2.289 -0.1274  0.5718 -0.2626
  590poe     o2 2750   6.005   6.397   2.164  0.0105 -0.4126  0.2160
  590poe    c23 2751   5.891   6.315   2.160 -0.1552 -0.1682 -0.1607
  590poe    c23 2752   5.927   6.167   2.134 -0.0677 -0.1341 -0.2354
  590poe     o2 2753   5.993   6.149   2.011  0.6856  0.2249  0.1121
  590poe    c23 2754   5.994   6.011   1.982 -0.3586  0.2919 -0.2827
  590poe    c23 2755   6.060   5.984   1.845 -0.3823  0.1216 -0.2605
  590poe     o2 2756   6.170   6.070   1.825  0.1411 -0.4425  0.1455
  590poe    c23 2757   6.242   6.034   1.710  0.5833 -0.2454  0.3601
  590poe    c23 2758   6.333   6.156   1.688 -0.1790  0.1481 -0.7035
  590poe     o2 2759   6.262   6.272   1.724 -0.1240  0.0140 -0.1499
  590poe    c31 2760   6.337   6.390   1.700 -0.1477  0.0990  0.1933
  591poe    c31 2761   3.648   5.675   0.317  0.6803  0.1440 -0.3920
  591poe     o2 2762   3.627   5.679   0.456 -0.0607  0.2256 -0.5049
  591poe    c23 2763   3.567   5.800   0.498 -0.2620  0.0901 -0.3981
  591poe    c23 2764   3.444   5.780   0.588 -0.2236  0.3541 -0.2860
  591poe     o2 2765   3.482   5.728   0.714  0.3374  0.1681 -0.5275
  591poe    c23 2766   3.372   5.706   0.800  0.6424 -0.1175 -0.2070
  591poe    c23 2767   3.395   5.624   0.928 -0.5907 -0.6325 -0.2965
  591poe     o2 2768   3.434   5.490   0.910  0.3277 -0.4609  0.2954
  591poe    c23 2769   3.464   5.420   1.029 -0.0172 -0.0605  0.6218
  591poe    c23 2770   3.564   5.311   0.987 -0.2079  0.0172 -0.0510
  591poe     o2 2771   3.682   5.359   0.926 -0.0686 -0.0126  0.1918
  591poe    c31 2772   3.788   5.266   0.913 -0.5588 -0.5254 -0.2295
  592poe    c31 2773   4.740   1.687   5.861 -0.2201 -0.0094  0.5528
  592poe     o2 2774   4.857   1.609   5.874 -0.0119  0.2349  0.1521
  592poe    c23 2775   4.855   1.532   5.756  0.6008 -0.0377  0.3158
  592poe    c23 2776   4.957   1.417   5.759  0.0538 -0.5267  0.3235
  592poe     o2 2777   5.072   1.475   5.817 -0.2247 -0.1289  0.4753
  592poe    c23 2778   5.184   1.390   5.815 -0.2644 -0.1707 -0.0679
  592poe    c23 2779   5.319   1.461   5.840 -0.0073 -0.6180 -0.1650
  592poe     o2 2780   5.310   1.541   5.956 -0.3092 -0.2689 -0.4235
  592poe    c23 2781   5.436   1.597   5.988 -0.5303  0.1275 -0.2393
  592poe    c23 2782   5.430   1.668   6.124  0.3614 -0.1158 -0.0683
  592poe     o2 2783   5.338   1.775   6.119  0.2433 -0.2252 -0.2307
  592poe    c31 2784   5.324   1.821   6.252 -0.1062  0.5730 -0.5400
  593poe    c31 2785   4.684   2.819   0.314 -0.3837  0.4139  0.6501
  593poe     o2 2786   4.774   2.754   0.402  0.2034  0.1101 -0.1640
  593poe    c23 2787   4.754   2.620   0.364 -0.2617  0.2685 -0.4995
  593poe    c23 2788   4.843   2.519   0.439 -0.3824  0.4488 -0.1121
  593poe     o2 2789   4.805   2.532   0.574 -0.2181 -0.6045  0.0451
  593poe    c23 2790   4.887   2.446   0.650  0.1367 -0.3344 -0.0275
  593poe    c23 2791   4.871   2.460   0.803 -0.2067 -0.0424 -0.0887
  593poe     o2 2792   4.892   2.598   0.818  0.4413 -0.1957  0.4464
  593poe    c23 2793   4.881   2.631   0.955  0.3683  0.2927  0.3258
  593poe    c23 2794   4.907   2.782   0.967  0.1788  0.3582 -0.0688
  593poe     o2 2795   4.864   2.855   0.855 -0.4626  0.1109  0.0077
  593poe    c31 2796   4.850   2.988   0.900 -0.6197  0.1190 -0.0632
  594poe    c31 2797   5.825   5.505   4.717 -0.6295  1.0650  0.1478
  594poe     o2 2798   5.795   5.427   4.603  0.1141  0.6687  0.2142
  594poe    c23 2799   5.657   5.418   4.574  0.1904  0.4963 -0.0945
  594poe    c23 2800   5.634   5.335   4.446  0.1487  0.4511 -0.0581
  594poe     o2 2801   5.707   5.407   4.350  0.6261  0.4245  0.2815
  594poe    c23 2802   5.670   5.365   4.221 -0.0542  0.1915  0.5478
  594poe    c23 2803   5.746   5.434   4.106  0.5713 -0.2922  0.6635
  594poe     o2 2804   5.881   5.396   4.090  0.4630 -0.1438 -0.7067
  594poe    c23 2805   5.951   5.468   3.990 -0.0272  0.6491 -0.4869
  594poe    c23 2806   6.095   5.441   4.037 -0.1803  0.0426 -0.3613
  594poe     o2 2807   6.110   5.499   4.164 -0.1191  0.0719 -0.3821
  594poe    c31 2808   6.245   5.537   4.186  0.1349 -0.9123 -0.1485
  595poe    c31 2809   6.520   4.503   3.802  1.3641  0.5185 -0.5074
  595poe     o2 2810   6.494   4.489   3.664 -0.1973 -0.1498 -0.1693
  595poe    c23 2811   6.601   4.457   3.578  0.2171  0.1431  0.2341
  595poe    c23 2812   6.642   4.544   3.458 -0.0992  0.1464  0.1282
  595poe     o2 2813   6.525   4.569   3.384 -0.1581  0.2073  0.2396
  595poe    c23 2814   6.558   4.662   3.284  0.3717  0.0723  0.2873
  595poe    c23 2815   6.466   4.785   3.277 -0.2432 -0.4165 -0.3399
  595poe     o2 2816   6.328   4.756   3.284 -0.4258  0.2906 -0.8187
  595poe    c23 2817   6.267   4.875   3.327 -0.2280  0.3609 -0.7306
  595poe    c23 2818   6.119   4.836   3.308 -0.2565 -0.0053  0.2085
  595poe     o2 2819   6.110   4.718   3.385  0.0988 -0.2465 -0.1142
  595poe    c31 2820   5.984   4.703   3.447  0.0797 -0.0824 -0.1112
  596poe    c31 2821   1.897   5.194   6.477 -0.4196 -0.2119 -0.2027
  596poe     o2 2822   1.977   5.089   6.429 -0.0327 -0.2295  0.4670
  596poe    c23 2823   1.913   5.027   6.320  0.1288 -0.5101  0.5293
  596poe    c23 2824   2.016   4.926   6.266  0.2279 -0.1321  0.0104
  596poe     o2 2825   2.121   5.012   6.227 -0.0646  0.1692 -0.1170
  596poe    c23 2826   2.230   4.930   6.193 -0.3890  0.0379 -0.8531
  596poe    c23 2827   2.342   5.033   6.172 -0.0788 -0.1953 -0.3485
  596poe     o2 2828   2.337   5.136   6.268  0.2812  0.2166 -0.7631
  596poe    c23 2829   2.382   5.266   6.238  0.9604  0.1893  0.1106
  596poe    c23 2830   2.350   5.361   6.355 -0.7552 -0.2859  0.0444
  596poe     o2 2831   2.222   5.346   6.413 -0.6538 -0.0466  0.3319
  596poe    c31 2832   2.176   5.452   6.493 -0.4007  0.0894  0.2984
  597poe    c31 2833   1.541   6.727   3.029 -1.0053 -0.1906 -0.0046
  597poe     o2 2834   1.445   6.696   3.127 -1.0239  0.4627  0.1916
  597poe    c23 2835   1.502   6.666   3.253 -0.2846  0.9905 -0.0122
  597poe    c23 2836   1.394   6.659   3.362 -0.3855  0.9378 -0.1144
  597poe     o2 2837   1.277   6.606   3.304  0.1275  0.0516 -0.3483
  597poe    c23 2838   1.164   6.630   3.386  0.4758 -0.9464  0.4500
  597poe    c23 2839   1.052   6.577   3.295  0.0791  0.0846  0.3237
  597poe     o2 2840   1.095   6.624   3.169 -0.1118 -0.0442  0.2089
  597poe    c23 2841   1.002   6.641   3.065  0.2220  0.3475 -0.0263
  597poe    c23 2842   1.043   6.772   2.994  0.1984  0.3132 -0.1030
  597poe     o2 2843   1.182   6.769   2.974  0.1481 -0.0150 -0.4204
  597poe    c31 2844   1.232   6.863   2.881  0.3279 -0.1287 -0.4383
  598poe    c31 2845   4.393   6.495   3.782 -0.1058  0.3661  0.1056
  598poe     o2 2846   4.289   6.416   3.730  0.2423 -0.3130  0.4246
  598poe    c23 2847   4.313   6.350   3.608 -0.4191  0.5952 -0.2017
  598poe    c23 2848   4.189   6.268   3.567 -0.2651  0.0293  0.4696
  598poe     o2 2849   4.142   6.186   3.672 -0.3581  0.0392  0.4354
  598poe    c23 2850   4.061   6.083   3.619 -0.1879  0.1701 -0.0840
  598poe    c23 2851   3.977   6.027   3.735 -0.5066  0.1124 -0.3416
  598poe     o2 2852   3.904   6.135   3.790 -0.3021  0.2755 -0.3856
  598poe    c23 2853   3.834   6.104   3.909 -0.4334  0.3870 -0.4339
  598poe    c23 2854   3.736   6.223   3.913 -0.1330  0.6348 -0.4501
  598poe     o2 2855   3.799   6.350   3.906 -0.1828  0.6605 -0.4345
  598poe    c31 2856   3.717   6.456   3.948 -0.9227  0.0306 -0.2589
  599poe    c31 2857   1.400   1.745   2.964 -0.2803 -0.4543  1.0640
  599poe     o2 2858   1.392   1.815   3.087  0.0913  0.1981  0.7228
  599poe    c23 2859   1.258   1.842   3.121 -0.1336 -0.0990  0.1064
  599poe    c23 2860   1.261   1.869   3.273 -0.0274 -0.0240  0.0914
  599poe     o2 2861   1.364   1.956   3.314 -0.2981  0.1979  0.3048
  599poe    c23 2862   1.388   1.935   3.452 -0.0087  0.4235  0.2882
  599poe    c23 2863   1.521   2.006   3.485  0.4024 -0.1566 -0.0965
  599poe     o2 2864   1.621   1.993   3.387  0.4403 -0.1664 -0.0564
  599poe    c23 2865   1.726   2.082   3.417  0.6935 -0.5270  0.1416
  599poe    c23 2866   1.828   2.106   3.304  0.1655  0.4400 -0.1464
  599poe     o2 2867   1.790   2.137   3.172  0.3842 -0.2086 -0.3681
  599poe    c31 2868   1.903   2.131   3.088  0.8727  0.4062  0.2293
  600poe    c31 2869   6.665   0.290   0.527 -0.0986 -0.4185  0.3241
  600poe     o2 2870   6.708   0.169   0.470  0.2739 -0.2255  0.1909
  600poe    c23 2871   6.645   0.061   0.535  0.0372 -0.2234 -0.0343
  600poe    c23 2872   6.683  -0.077   0.479  0.1925 -0.2086  0.0353
  600poe     o2 2873   6.823  -0.097   0.488  0.1914 -0.5572 -0.6470
  600poe    c23 2874   6.866  -0.222   0.439  0.2695 -0.9112  0.2994
  600poe    c23 2875   7.005  -0.202   0.374  0.0983  0.1494  0.2329
  600poe     o2 2876   7.092  -0.137   0.463 -0.5420  0.5677  0.5655
  600poe    c23 2877   7.224  -0.126   0.413 -0.6334 -0.0609  0.1824
  600poe    c23 2878   7.306  -0.058   0.523 -0.1824  0.4439 -0.4595
  600poe     o2 2879   7.224   0.053   0.551 -0.3587  0.2455 -0.1814
  600poe    c31 2880   7.291   0.157   0.620 -0.5209  0.7064 -0.7109
  601poe    c31 2881   3.567   6.544   2.005  0.6351  0.1520  0.0469
  601poe     o2 2882   3.629   6.659   1.952 -0.1819  0.2199 -0.7748
  601poe    c23 2883   3.726   6.605   1.865  0.3229 -0.4971  0.2144
  601poe    c23 2884   3.831   6.716   1.843 -0.2226  0.0319  0.2712
  601poe     o2 2885   3.761   6.838   1.829  0.3404  0.3706  0.3738
  601poe    c23 2886   3.836   6.956   1.812  0.5796  0.1852  0.1459
  601poe    c23 2887   3.756   7.087   1.823 -0.7612 -0.5876 -0.2080
  601poe     o2 2888   3.686   7.101   1.945 -0.2403  0.4479 -0.0221
  601poe    c23 2889   3.604   7.210   1.910 -0.2991  0.1888 -0.7090
  601poe    c23 2890   3.508   7.243   2.026  0.1910 -0.3892 -0.1247
  601poe     o2 2891   3.425   7.131   2.046  0.0597 -0.2164  0.2949
  601poe    c31 2892   3.315   7.156   2.131 -0.2094  0.2394 -0.1817
  602poe    c31 2893   4.494   5.593   6.215 -0.1444 -0.1446 -0.3262
  602poe     o2 2894   4.624   5.615   6.266 -0.0690 -0.3302 -0.4361
  602poe    c23 2895   4.707   5.645   6.156  0.1862 -0.4675 -0.2807
  602poe    c23 2896   4.857   5.666   6.186 -0.0614  0.3893  0.4102
  602poe     o2 2897   4.892   5.575   6.288 -0.0333 -0.1616 -0.0874
  602poe    c23 2898   5.029   5.551   6.263  0.1426  0.5276  0.1851
  602poe    c23 2899   5.080   5.475   6.387  0.0295  0.0444 -0.0598
  602poe     o2 2900   5.027   5.536   6.502 -0.2659  0.2031 -0.2805
  602poe    c23 2901   5.045   5.451   6.613 -0.7099  0.0858 -0.2974
  602poe    c23 2902   5.000   5.526   6.740 -0.1525 -0.3069  0.1349
  602poe     o2 2903   4.865   5.549   6.704  0.2022  0.3502 -0.8244
  602poe    c31 2904   4.786   5.589   6.814  0.8067  0.1891 -0.3215
  603poe    c31 2905   6.127   2.931   4.390  0.2902 -0.3072 -0.1575
  603poe     o2 2906   6.074   2.989   4.273 -0.0356 -0.0121  0.1346
  603poe    c23 2907   5.966   2.910   4.230 -0.3338  0.5896 -0.2525
  603poe    c23 2908   5.943   2.925   4.079  0.4277  0.2313 -0.4067
  603poe     o2 2909   5.945   3.064   4.058  0.4877  0.3234  0.1932
  603poe    c23 2910   5.949   3.070   3.917 -0.4117 -0.2549  0.1319
  603poe    c23 2911   5.957   3.216   3.869  0.1810 -0.3067  0.0668
  603poe     o2 2912   5.861   3.296   3.934  0.0346 -0.1712 -0.3135
  603poe    c23 2913   5.919   3.392   4.019 -0.3538 -0.7520  0.6218
  603poe    c23 2914   5.867   3.376   4.163 -1.3316  0.3029  0.4006
  603poe     o2 2915   5.929   3.271   4.234 -0.5941  0.3953 -0.0883
  603poe    c31 2916   5.908   3.281   4.373  0.2662 -0.7639  0.1454
  604poe    c31 2917   3.213   5.875   6.125  0.0934 -0.8362  1.1095
  604poe     o2 2918   3.345   5.839   6.093  0.0631 -0.0301 -0.0033
  604poe    c23 2919   3.343   5.752   5.982 -0.6173 -0.1116  0.0672
  604poe    c23 2920   3.491   5.709   5.981 -0.5182  0.2152  0.3697
  604poe     o2 2921   3.523   5.656   6.108 -0.3687 -0.4694  0.0523
  604poe    c23 2922   3.652   5.601   6.115  0.1006  0.5916 -0.0340
  604poe    c23 2923   3.675   5.550   6.259  0.3118  0.1657 -0.2169
  604poe     o2 2924   3.677   5.645   6.362 -0.5115 -0.2261  0.1714
  604poe    c23 2925   3.675   5.583   6.489  1.2223  0.0233  0.3409
  604poe    c23 2926   3.668   5.693   6.596 -0.4353  0.2042  0.0712
  604poe     o2 2927   3.563   5.785   6.573  0.0156  0.6939 -0.0469
  604poe    c31 2928   3.548   5.872   6.683 -0.2486  0.3256  0.2094
  605poe    c31 2929   6.341   2.205   2.160 -0.0722 -0.0179  0.1876
  605poe     o2 2930   6.376   2.307   2.251  0.1370 -0.0945  0.1916
  605poe    c23 2931   6.256   2.373   2.285  0.0523 -0.4359  0.5568
  605poe    c23 2932   6.308   2.502   2.352  1.1869 -0.3626 -0.4257
  605poe     o2 2933   6.393   2.465   2.458  0.2641  0.1232  0.4965
  605poe    c23 2934   6.448   2.570   2.534 -0.0942  0.2454  0.5916
  605poe    c23 2935   6.533   2.501   2.641  0.1470  0.4834  0.5566
  605poe     o2 2936   6.455   2.404   2.709 -0.4809  0.7408  0.2081
  605poe    c23 2937   6.486   2.390   2.846  0.7770  0.0859 -0.1250
  605poe    c23 2938   6.412   2.270   2.906  0.0169  0.4664 -0.2868
  605poe     o2 2939   6.464   2.168   2.824 -0.4176  0.0124 -0.0050
  605poe    c31 2940   6.447   2.047   2.896 -0.2407  0.2472  0.4392
  606poe    c31 2941   3.160   4.245   3.958  0.2291 -0.0870 -0.0121
  606poe     o2 2942   3.116   4.376   3.932  0.0389 -0.2143 -0.3405
  606poe    c23 2943   3.214   4.466   3.981  0.1922 -0.5566 -0.0151
  606poe    c23 2944   3.125   4.582   4.028  0.2148 -0.4332 -0.2814
  606poe     o2 2945   3.022   4.601   3.933  0.3276  0.3923 -0.2525
  606poe    c23 2946   2.911   4.669   3.986  0.2563  0.6675 -0.7466
  606poe    c23 2947   2.799   4.695   3.884 -0.6576 -0.1133  0.0365
  606poe     o2 2948   2.774   4.577   3.812 -0.3739 -0.2060  0.0886
  606poe    c23 2949   2.668   4.590   3.720 -0.3207  0.1753  0.0787
  606poe    c23 2950   2.670   4.472   3.620 -0.0922  0.2593 -0.0149
  606poe     o2 2951   2.794   4.458   3.555 -0.1037  0.3501 -0.0573
  606poe    c31 2952   2.783   4.350   3.466  0.3705  0.7676 -0.6326
  607poe    c31 2953   2.969   0.426   0.727  0.2353  0.2174  0.9752
  607poe     o2 2954   3.063   0.326   0.691 -0.1367  0.1147  0.2805
  607poe    c23 2955   3.152   0.369   0.591 -0.1573  0.2680  0.3264
  607poe    c23 2956   3.218   0.234   0.554 -0.6454  0.0518  0.2390
  607poe     o2 2957   3.289   0.175   0.661 -0.4331 -0.4712 -0.1884
  607poe    c23 2958   3.353   0.056   0.621 -0.0145 -0.6480  0.9818
  607poe    c23 2959   3.482   0.061   0.705  0.4114  0.1554  0.2897
  607poe     o2 2960   3.435   0.065   0.838  0.1414  0.3390  0.1909
  607poe    c23 2961   3.539   0.072   0.933  0.1529  0.3059  0.1806
  607poe    c23 2962   3.463   0.058   1.066 -0.0523  0.2821  0.0615
  607poe     o2 2963   3.348   0.139   1.067 -0.1575  0.1311  0.3584
  607poe    c31 2964   3.273   0.128   1.185  0.0359  0.1895  0.4865
  608poe    c31 2965   6.421   0.735   3.844 -0.1043  0.3052  0.4523
  608poe     o2 2966   6.298   0.716   3.777  0.4128 -0.0587 -0.4065
  608poe    c23 2967   6.243   0.590   3.805  0.3011  0.0594 -0.0886
  608poe    c23 2968   6.122   0.577   3.710 -0.2604 -0.4039  0.6760
  608poe     o2 2969   6.037   0.687   3.729  0.0897 -0.1545  0.8134
  608poe    c23 2970   5.904   0.653   3.694  0.0164  0.0548  0.8855
  608poe    c23 2971   5.818   0.780   3.685  0.2544  0.1682  0.1631
  608poe     o2 2972   5.826   0.827   3.818 -0.2013  0.1883  0.1821
  608poe    c23 2973   5.717   0.899   3.872  0.0486  0.8172 -0.1365
  608poe    c23 2974   5.771   1.000   3.975  0.0353 -0.1588  0.8511
  608poe     o2 2975   5.900   0.963   4.017  0.2128 -0.2266  0.2566
  608poe    c31 2976   5.933   1.037   4.133  0.1312  0.3813 -0.1003
  609poe    c31 2977   5.542   5.824   3.589  0.4625  0.5367 -0.5448
  609poe     o2 2978   5.475   5.931   3.653 -0.2015 -0.2688  0.1360
  609poe    c23 2979   5.446   5.877   3.779 -0.3492 -0.2636  0.1039
  609poe    c23 2980   5.333   5.956   3.848 -0.4469 -0.0993 -0.2417
  609poe     o2 2981   5.329   6.084   3.790 -0.4245 -0.1575 -0.3725
  609poe    c23 2982   5.238   6.163   3.863  0.1613  0.2199 -0.0355
  609poe    c23 2983   5.193   6.289   3.786 -0.3027  0.2855  0.3409
  609poe     o2 2984   5.302   6.378   3.775  0.1844 -0.3413  0.1212
  609poe    c23 2985   5.247   6.505   3.752  0.5344 -0.1975  0.0662
  609poe    c23 2986   5.257   6.571   3.613 -0.3210  0.0980  0.1380
  609poe     o2 2987   5.167   6.501   3.531  0.0263 -0.3862  0.1647
  609poe    c31 2988   5.182   6.541   3.396  0.5520 -0.4059  0.2190
  610poe    c31 2989   0.539   6.019   2.409  0.3518  0.5676  0.0699
  610poe     o2 2990   0.432   6.047   2.496 -0.0874 -0.5780 -0.0723
  610poe    c23 2991   0.386   5.932   2.563 -0.2790 -0.2239  0.4110
  610poe    c23 2992   0.267   5.972   2.652 -0.7074 -0.0158 -0.2438
  610poe     o2 2993   0.313   6.051   2.759  0.0069 -0.0928 -0.4885
  610poe    c23 2994   0.198   6.094   2.829  0.2822 -0.3218  0.1061
  610poe    c23 2995   0.226   6.167   2.962  0.1667  0.7140 -0.4284
  610poe     o2 2996   0.275   6.078   3.060 -0.6332  0.0971 -0.5858
  610poe    c23 2997   0.327   6.158   3.164 -0.3478 -0.6387 -0.1522
  610poe    c23 2998   0.430   6.082   3.249  0.0674  0.3151  0.2063
  610poe     o2 2999   0.541   6.031   3.179 -0.0055  0.6614 -0.1649
  610poe    c31 3000   0.626   5.960   3.266 -0.7101 -0.0095 -0.0107
  611poe    c31 3001   6.214   6.204   2.679 -0.7043 -0.3205  0.1323
  611poe     o2 3002   6.178   6.278   2.794 -0.4392  0.0740 -0.0379
  611poe    c23 3003   6.251   6.224   2.901 -0.4019 -0.0572 -0.1295
  611poe    c23 3004   6.268   6.337   3.004 -0.2979 -0.6768  0.5409
  611poe     o2 3005   6.155   6.420   3.006 -0.0572 -0.3394  0.2546
  611poe    c23 3006   6.129   6.477   3.133  0.1040  0.2407  0.0315
  611poe    c23 3007   5.988   6.535   3.155  0.1395  0.2824  0.1529
  611poe     o2 3008   5.941   6.600   3.039 -0.0027 -0.2204 -0.0753
  611poe    c23 3009   5.818   6.569   2.977  0.0047 -0.2655 -0.0678
  611poe    c23 3010   5.790   6.420   2.952 -0.2735 -0.1489 -0.4661
  611poe     o2 3011   5.897   6.342   2.903 -0.1913 -0.1560 -0.2798
  611poe    c31 3012   5.853   6.210   2.882 -0.6250 -0.0486 -0.0530
  612poe    c31 3013   4.800   0.926   0.474  0.3850 -0.3001 -0.2512
  612poe     o2 3014   4.790   0.801   0.408 -0.0075  0.0697 -0.9036
  612poe    c23 3015   4.904   0.724   0.440  0.0369  0.1030 -0.9812
  612poe    c23 3016   4.955   0.648   0.316  0.3274 -0.0899 -0.7457
  612poe     o2 3017   4.869   0.538   0.299 -0.2368  0.1583  0.3727
  612poe    c23 3018   4.853   0.510   0.161  0.6685 -0.3614  0.3667
  612poe    c23 3019   4.779   0.376   0.142 -0.1216  0.1642 -0.2819
  612poe     o2 3020   4.642   0.385   0.174 -0.0099  0.1607  0.1919
  612poe    c23 3021   4.570   0.272   0.131  0.3065  0.1976 -0.4464
  612poe    c23 3022   4.439   0.266   0.212  0.2085 -0.1952 -0.6343
  612poe     o2 3023   4.450   0.322   0.340 -0.7692 -0.7923 -0.2725
  612poe    c31 3024   4.345   0.291   0.428 -0.4752  0.0529  0.3989
  613poe    c31 3025   4.510   1.195   0.220 -0.1397  0.8903 -0.1712
  613poe     o2 3026   4.620   1.253   0.153  0.5063 -0.6830 -0.5177
  613poe    c23 3027   4.734   1.170   0.145  0.4905 -0.7304 -0.2519
  613poe    c23 3028   4.856   1.211   0.060  0.1469 -0.4366 -0.6057
  613poe     o2 3029   4.872   1.350   0.077 -0.1451 -0.4051 -0.5758
  613poe    c23 3030   4.999   1.405   0.052 -0.3957  0.0878 -0.7856
  613poe    c23 3031   5.001   1.559   0.054  0.4305  0.0778  0.3940
  613poe     o2 3032   5.002   1.609   0.186 -0.5164 -0.1956  0.5174
  613poe    c23 3033   5.060   1.734   0.218 -0.2172 -0.1697 -0.0969
  613poe    c23 3034   5.106   1.758   0.363  0.0818  0.0292 -0.2240
  613poe     o2 3035   5.218   1.691   0.417  0.3259  0.5332 -0.0966
  613poe    c31 3036   5.194   1.553   0.438  0.1296  0.3861 -1.1749
  614poe    c31 3037   2.573   0.298   0.745 -0.0123  0.6434  1.2622
  614poe     o2 3038   2.492   0.203   0.811 -0.6168  0.1450 -0.1544
  614poe    c23 3039   2.450   0.101   0.723  0.2194 -0.4819  0.1726
  614poe    c23 3040   2.551  -0.003   0.671  0.2935 -0.0383 -0.5808
  614poe     o2 3041   2.652   0.059   0.594  0.3832  0.1200 -0.3363
  614poe    c23 3042   2.660  -0.001   0.467 -0.4302 -0.3993 -0.1513
  614poe    c23 3043   2.733   0.094   0.369  0.2542 -0.3114  0.4348
  614poe     o2 3044   2.702   0.232   0.372 -0.9093 -0.5385 -0.2449
  614poe    c23 3045   2.808   0.310   0.321 -1.0545 -0.3009 -0.1830
  614poe    c23 3046   2.767   0.377   0.188  0.3500  0.3280 -0.3206
  614poe     o2 3047   2.644   0.441   0.211  0.2215 -0.0072 -0.0592
  614poe    c31 3048   2.601   0.505   0.093  0.0686 -0.3394 -0.1866
  615poe    c31 3049   2.363   4.064   3.116  0.1626  0.1147 -0.3962
  615poe     o2 3050   2.361   3.928   3.079  0.2760 -0.0704  0.2650
  615poe    c23 3051   2.487   3.869   3.053  0.2993 -0.0460  0.3234
  615poe    c23 3052   2.472   3.724   3.003  0.2607 -0.0178  0.2520
  615poe     o2 3053   2.356   3.743   2.925  0.0026  0.2604  0.6960
  615poe    c23 3054   2.283   3.624   2.903  0.6613 -0.0539  0.1684
  615poe    c23 3055   2.180   3.645   2.791 -0.0843 -0.4203  0.7739
  615poe     o2 3056   2.080   3.737   2.827  0.0331 -0.1070  0.3100
  615poe    c23 3057   1.973   3.726   2.735  0.5719 -0.3820 -0.2970
  615poe    c23 3058   1.959   3.867   2.674 -0.3853 -0.4010 -0.1431
  615poe     o2 3059   2.073   3.913   2.604 -0.4822  0.1980  0.0841
  615poe    c31 3060   2.044   4.007   2.503 -0.0573  0.1551 -0.0797
  616poe    c31 3061   1.225   1.436   3.533 -0.6121 -0.4240 -0.6548
  616poe     o2 3062   1.315   1.369   3.447 -0.1104  0.2979 -0.7049
  616poe    c23 3063   1.392   1.459   3.372  0.5616  0.3153  0.0013
  616poe    c23 3064   1.473   1.373   3.274  0.0359 -0.3136  0.1167
  616poe     o2 3065   1.540   1.262   3.331  0.0378 -0.4847 -0.2145
  616poe    c23 3066   1.679   1.266   3.314  0.1807 -0.1892  0.9400
  616poe    c23 3067   1.737   1.202   3.442  0.0304  0.0986  1.1526
  616poe     o2 3068   1.644   1.102   3.476 -0.2122  0.0841  0.4757
  616poe    c23 3069   1.707   0.981   3.511  0.0280 -0.0825 -0.5053
  616poe    c23 3070   1.588   0.885   3.524  0.3476 -0.4723 -0.4285
  616poe     o2 3071   1.500   0.906   3.415 -0.0164 -0.1610 -0.0784
  616poe    c31 3072   1.413   0.798   3.396 -0.5058  0.1294  0.4649
  617poe    c31 3073   1.036   0.066   6.090  0.2740  0.2105  0.0340
  617poe     o2 3074   0.973   0.192   6.098 -0.6426 -0.2542  0.2729
  617poe    c23 3075   1.065   0.298   6.093 -0.6629 -0.2437  0.0973
  617poe    c23 3076   1.011   0.415   6.177 -0.4615 -0.6291  0.7753
  617poe     o2 3077   0.888   0.451   6.119 -0.1670 -0.0750  0.4832
  617poe    c23 3078   0.831   0.558   6.191 -0.5347 -0.0074  0.0999
  617poe    c23 3079   0.699   0.590   6.119 -0.2888  0.5729 -0.1011
  617poe     o2 3080   0.640   0.472   6.068 -0.0975  0.1958  0.5326
  617poe    c23 3081   0.509   0.487   6.019  0.0378  0.1706  0.1617
  617poe    c23 3082   0.489   0.566   5.888 -0.0824  0.1051  0.1407
  617poe     o2 3083   0.476   0.703   5.915 -0.5347  0.1782 -0.4129
  617poe    c31 3084   0.446   0.779   5.800 -0.5310  0.0339 -0.5088
  618poe    c31 3085   4.586   2.308   5.287  0.7947 -0.1364 -0.4072
  618poe     o2 3086   4.569   2.168   5.289 -0.2599 -0.0294 -1.0762
  618poe    c23 3087   4.668   2.096   5.360 -0.1812  0.8255 -0.2998
  618poe    c23 3088   4.645   1.944   5.357 -0.3808  0.8565 -0.3604
  618poe     o2 3089   4.637   1.908   5.221  0.4402 -0.1118 -0.1655
  618poe    c23 3090   4.593   1.774   5.208 -0.0110  0.0761 -0.6298
  618poe    c23 3091   4.441   1.768   5.186 -0.0730  0.2383 -0.2582
  618poe     o2 3092   4.389   1.883   5.248 -0.0007  0.3786 -0.4555
  618poe    c23 3093   4.252   1.896   5.220 -0.1233  0.2806  0.0816
  618poe    c23 3094   4.189   2.027   5.272 -0.3368  0.1478  0.1598
  618poe     o2 3095   4.278   2.133   5.246 -0.4222  0.1126 -0.2865
  618poe    c31 3096   4.215   2.256   5.274 -0.2337  0.0859  0.2661
  619poe    c31 3097   2.450   5.446   1.602 -0.1115 -0.1890 -0.5406
  619poe     o2 3098   2.448   5.456   1.743  0.4284 -0.0760 -0.5382
  619poe    c23 3099   2.359   5.554   1.791  0.0811 -0.4071 -0.4959
  619poe    c23 3100   2.422   5.641   1.901  0.9055 -0.4426 -0.9364
  619poe     o2 3101   2.512   5.739   1.855  0.0138  0.6777 -0.3352
  619poe    c23 3102   2.569   5.795   1.972  0.6242  0.1553 -0.3751
  619poe    c23 3103   2.678   5.896   1.931  1.0048 -0.2106 -0.2698
  619poe     o2 3104   2.618   5.968   1.825 -0.1662 -0.3091  0.3076
  619poe    c23 3105   2.700   6.072   1.779 -0.5650 -0.3367 -0.4775
  619poe    c23 3106   2.623   6.164   1.682 -0.1556  0.7866  0.2482
  619poe     o2 3107   2.555   6.080   1.592  0.3346  0.5972  0.0533
  619poe    c31 3108   2.484   6.168   1.507 -0.0103 -0.1184 -0.4071
  620poe    c31 3109   3.525   6.249   0.745 -0.1594 -0.1968 -0.0069
  620poe     o2 3110   3.423   6.155   0.767  0.4065 -0.7494  0.2920
  620poe    c23 3111   3.402   6.146   0.906  0.3720  0.4431  0.3667
  620poe    c23 3112   3.294   6.048   0.954  0.1839  0.0939 -0.7427
  620poe     o2 3113   3.169   6.078   0.897 -0.1071 -0.8257 -0.6011
  620poe    c23 3114   3.064   6.049   0.986 -0.0111  0.0724 -0.1888
  620poe    c23 3115   2.937   6.057   0.900 -0.5914 -0.0709  0.6356
  620poe     o2 3116   2.925   6.179   0.831  0.3712 -0.1698  0.2820
  620poe    c23 3117   2.828   6.163   0.730  0.8169 -0.2067 -0.1417
  620poe    c23 3118   2.809   6.307   0.678  0.4892 -0.4696 -0.7677
  620poe     o2 3119   2.936   6.365   0.654  0.6416 -0.1919  0.6138
  620poe    c31 3120   2.930   6.460   0.550  0.1083 -0.4031  0.4490
  621poe    c31 3121   3.639   5.128   6.824 -0.3274 -0.0083  0.3389
  621poe     o2 3122   3.599   5.067   6.703  0.7714 -0.4859  0.2122
  621poe    c23 3123   3.643   5.120   6.580 -0.2773 -0.1091 -0.0091
  621poe    c23 3124   3.517   5.140   6.494 -0.1143 -0.2995 -0.2955
  621poe     o2 3125   3.446   5.020   6.514  0.1245 -0.3348  0.3511
  621poe    c23 3126   3.347   5.009   6.415  0.1604  0.4623  0.2177
  621poe    c23 3127   3.316   4.858   6.422 -0.5774  0.5808 -0.2929
  621poe     o2 3128   3.303   4.825   6.559  0.0046 -0.0337 -0.3818
  621poe    c23 3129   3.329   4.690   6.592  0.9721  0.0843 -0.6239
  621poe    c23 3130   3.339   4.689   6.745 -0.2426 -0.3827 -0.5343
  621poe     o2 3131   3.420   4.800   6.778 -0.4296 -0.4636  0.2141
  621poe    c31 3132   3.514   4.778   6.881  0.1365 -0.2066 -0.2430
  622poe    c31 3133   1.243   5.698   3.171 -0.5528  0.4172 -0.2221
  622poe     o2 3134   1.234   5.814   3.251  0.3464  0.4839 -0.2127
  622poe    c23 3135   1.158   5.788   3.367  0.1029 -0.3777 -0.5550
  622poe    c23 3136   1.112   5.931   3.403  0.1501 -0.6441  0.6244
  622poe     o2 3137   1.226   6.013   3.413 -0.3795  0.2347 -0.3568
  622poe    c23 3138   1.205   6.141   3.469 -0.2134  0.1730 -0.1519
  622poe    c23 3139   1.339   6.216   3.465  0.1778 -0.4462  0.8877
  622poe     o2 3140   1.414   6.173   3.353 -0.2747  0.1244  0.3561
  622poe    c23 3141   1.538   6.129   3.403 -0.3514 -0.5032 -0.0054
  622poe    c23 3142   1.601   6.052   3.285  0.0848  0.4565 -0.4051
  622poe     o2 3143   1.515   5.951   3.237  0.4770  0.0090 -0.1772
  622poe    c31 3144   1.576   5.891   3.125  0.5267 -0.4849  0.1152
  623poe    c31 3145   0.226   1.657   5.923  0.4150  0.1373  0.0078
  623poe     o2 3146   0.342   1.730   5.892  0.5964 -0.0474  0.2414
  623poe    c23 3147   0.343   1.794   5.766 -0.2751 -0.2553  0.1179
  623poe    c23 3148   0.481   1.862   5.750 -0.0222 -0.8000 -0.0521
  623poe     o2 3149   0.584   1.780   5.701  0.5935 -0.0089 -0.0966
  623poe    c23 3150   0.702   1.851   5.668  0.3358  0.2828 -0.3905
  623poe    c23 3151   0.802   1.741   5.627  0.1281 -0.0451 -0.0256
  623poe     o2 3152   0.864   1.660   5.724  0.1186 -0.0396 -0.0149
  623poe    c23 3153   0.941   1.549   5.684 -0.5048 -0.3180 -0.4617
  623poe    c23 3154   0.932   1.455   5.806  0.1165 -0.3021 -0.4007
  623poe     o2 3155   0.794   1.435   5.823  0.2550 -0.7819  0.2110
  623poe    c31 3156   0.767   1.343   5.926  0.4157  0.1020  1.0584
  624poe    c31 3157   1.824   0.739   2.405 -0.3123 -0.3417 -0.0231
  624poe     o2 3158   1.742   0.843   2.453  0.1104  0.0262 -0.0943
  624poe    c23 3159   1.823   0.928   2.531 -0.2170  0.1405  0.1242
  624poe    c23 3160   1.740   1.050   2.573 -0.2305  0.0160  0.4615
  624poe     o2 3161   1.641   1.055   2.472 -0.1841  0.0415  0.4174
  624poe    c23 3162   1.556   1.166   2.483  0.1476  0.2929  0.4419
  624poe    c23 3163   1.459   1.147   2.365 -0.8723  0.0171  1.3129
  624poe     o2 3164   1.404   1.018   2.349 -0.2313 -0.0675 -0.4755
  624poe    c23 3165   1.304   0.979   2.442  0.3126  0.0044  0.1470
  624poe    c23 3166   1.330   0.833   2.480  0.0491 -0.1224 -0.1564
  624poe     o2 3167   1.463   0.808   2.521  0.0480  0.0878 -0.0238
  624poe    c31 3168   1.472   0.670   2.547  0.3860  0.0502 -0.3323
  625poe    c31 3169   1.567   2.750   0.805 -0.6963  0.0908 -1.0455
  625poe     o2 3170   1.508   2.858   0.875 -0.8747 -0.3064 -0.5779
  625poe    c23 3171   1.600   2.960   0.905  0.1197 -1.3228 -0.0829
  625poe    c23 3172   1.589   2.973   1.058  0.2693  0.3353 -0.1957
  625poe     o2 3173   1.454   2.969   1.096  0.2015 -0.0213 -0.4721
  625poe    c23 3174   1.430   2.989   1.234  0.0170  0.0294 -0.5108
  625poe    c23 3175   1.277   3.011   1.231 -0.0720 -0.5264 -0.1083
  625poe     o2 3176   1.234   2.904   1.150 -0.7495 -0.5761  0.3163
  625poe    c23 3177   1.093   2.912   1.140 -0.7333 -0.2193  0.3630
  625poe    c23 3178   1.003   2.812   1.065 -0.5582 -0.0056 -0.1363
  625poe     o2 3179   0.994   2.703   1.154 -0.2434  0.2047  0.1575
  625poe    c31 3180   0.881   2.627   1.118  0.1646 -0.4607  0.2421
  626poe    c31 3181   6.628   3.857   0.791  0.4080 -0.5994 -0.0125
  626poe     o2 3182   6.557   3.964   0.849  0.9251 -0.2161 -0.0768
  626poe    c23 3183   6.639   4.011   0.953  0.4175 -0.1409  0.2941
  626poe    c23 3184   6.560   4.131   1.008  0.2399 -0.1780  0.1199
  626poe     o2 3185   6.422   4.107   0.988  0.2357 -0.0902  0.0443
  626poe    c23 3186   6.347   4.226   0.984 -0.0879 -0.3039 -0.2628
  626poe    c23 3187   6.207   4.172   0.950 -0.1126 -0.6372  0.3644
  626poe     o2 3188   6.230   4.082   0.844  0.5092  0.2194 -0.2317
  626poe    c23 3189   6.117   4.009   0.802  0.3248  0.1837  0.3241
  626poe    c23 3190   6.144   3.953   0.661  0.0825 -0.4174  0.5129
  626poe     o2 3191   6.274   3.899   0.670  0.3087 -0.0024 -0.1770
  626poe    c31 3192   6.289   3.790   0.581  0.1436  0.1035 -0.3349
  627poe    c31 3193   3.327   5.931   3.048 -0.4046  0.3662  0.0012
  627poe     o2 3194   3.446   5.912   2.974 -0.0100 -0.4206  0.8083
  627poe    c23 3195   3.560   5.983   3.015 -0.5382  0.6005  0.5517
  627poe    c23 3196   3.688   5.898   3.012 -0.5722  0.5611  0.2909
  627poe     o2 3197   3.691   5.824   2.891  0.1618  0.5352  0.3171
  627poe    c23 3198   3.763   5.703   2.898 -0.3411  0.2061 -0.0965
  627poe    c23 3199   3.673   5.587   2.853  0.2749 -0.2493 -0.1736
  627poe     o2 3200   3.548   5.634   2.898  0.0463 -0.3615 -0.6861
  627poe    c23 3201   3.450   5.533   2.892  0.3048 -0.6106 -0.6836
  627poe    c23 3202   3.307   5.587   2.872  0.4263 -0.1070 -0.2154
  627poe     o2 3203   3.321   5.692   2.778  0.2192  0.3876  0.3030
  627poe    c31 3204   3.197   5.739   2.730 -0.2389 -0.4213  0.6683
  628poe    c31 3205   5.675   5.129   4.840 -0.2011 -0.1004 -0.2628
  628poe     o2 3206   5.634   5.195   4.957 -0.0458  0.0811 -0.3103
  628poe    c23 3207   5.619   5.099   5.059  0.0640  0.1853 -0.1946
  628poe    c23 3208   5.665   5.175   5.185 -0.6165 -0.3317  0.3743
  628poe     o2 3209   5.571   5.261   5.244  0.7451  1.1239  0.4742
  628poe    c23 3210   5.613   5.327   5.361  0.5086  0.7838  0.7523
  628poe    c23 3211   5.512   5.431   5.415  0.0573  0.4921  0.4682
  628poe     o2 3212   5.484   5.522   5.311  0.1278 -0.0206 -0.0039
  628poe    c23 3213   5.407   5.633   5.350  0.3949  0.1963 -0.0877
  628poe    c23 3214   5.384   5.722   5.227  0.3525 -0.0516 -0.2606
  628poe     o2 3215   5.355   5.642   5.114 -0.1174  0.1276 -0.2708
  628poe    c31 3216   5.299   5.728   5.018 -0.0686 -0.0442 -0.4531
  629poe    c31 3217   2.966   3.729   3.221 -0.1175  0.1607 -0.1116
  629poe     o2 3218   3.012   3.619   3.146  0.1482  0.0834  0.1676
  629poe    c23 3219   2.935   3.608   3.029  0.4896  0.0517 -0.0538
  629poe    c23 3220   2.933   3.463   2.975 -0.1163  0.2169 -0.4795
  629poe     o2 3221   3.065   3.429   2.941 -0.0670  0.2807 -0.3547
  629poe    c23 3222   3.067   3.351   2.824 -0.0461  0.4620 -0.4766
  629poe    c23 3223   3.189   3.257   2.826 -0.5128 -0.1441 -0.2530
  629poe     o2 3224   3.292   3.346   2.860 -0.2675 -0.6192  0.2594
  629poe    c23 3225   3.416   3.306   2.806 -0.0723  0.2076  0.0840
  629poe    c23 3226   3.527   3.413   2.801  0.7076 -0.6149 -0.2696
  629poe     o2 3227   3.576   3.463   2.923  0.5473 -0.2242 -0.3656
  629poe    c31 3228   3.637   3.587   2.899 -0.0260  0.2100  0.3572
  630poe    c31 3229   4.686   3.802   0.703  0.2580 -0.2815 -0.1325
  630poe     o2 3230   4.773   3.872   0.617 -0.4763  0.5213 -0.2293
  630poe    c23 3231   4.769   4.011   0.639  0.5057  0.4047  0.7888
  630poe    c23 3232   4.859   4.093   0.545  0.0259  0.2985  0.2284
  630poe     o2 3233   4.991   4.094   0.595  0.0392 -0.3756  0.2141
  630poe    c23 3234   5.064   4.159   0.493 -0.1322 -0.1314  0.2470
  630poe    c23 3235   5.210   4.111   0.506 -0.0303  0.2029  0.3303
  630poe     o2 3236   5.225   3.971   0.496  0.3456  0.2206  0.6378
  630poe    c23 3237   5.361   3.935   0.508  0.1932 -0.4077  0.4883
  630poe    c23 3238   5.377   3.786   0.473 -0.3917 -0.3229 -0.1495
  630poe     o2 3239   5.284   3.721   0.557 -0.1468 -0.0012  0.3720
  630poe    c31 3240   5.290   3.582   0.534 -0.0234  0.1361 -0.4669
  631poe    c31 3241   3.683   4.305   2.076 -0.0755  0.2753  0.5836
  631poe     o2 3242   3.771   4.204   2.116  0.2294  0.0053 -0.7317
  631poe    c23 3243   3.899   4.255   2.085  0.0557  1.2547  0.5432
  631poe    c23 3244   4.010   4.165   2.142 -0.5128  0.1057 -0.1347
  631poe     o2 3245   4.029   4.055   2.056 -0.0252  0.2951 -0.2746
  631poe    c23 3246   4.147   3.985   2.087 -0.2036  0.0709 -0.1005
  631poe    c23 3247   4.154   3.875   1.980  0.2428  0.0401 -0.0427
  631poe     o2 3248   4.041   3.794   2.006  0.3841 -0.1450 -0.0044
  631poe    c23 3249   4.032   3.672   1.935 -0.4627 -0.1927  0.1720
  631poe    c23 3250   3.897   3.603   1.958 -0.2823 -0.4809  0.3784
  631poe     o2 3251   3.811   3.715   1.957 -0.1174 -0.3546 -0.2440
  631poe    c31 3252   3.675   3.685   1.938 -0.1489 -0.4460  0.1111
  632poe    c31 3253   2.508   5.865   3.405 -0.1529 -0.3650  0.1947
  632poe     o2 3254   2.564   5.780   3.307  0.0994 -0.0984  0.1078
  632poe    c23 3255   2.700   5.817   3.300 -0.0119  0.2287 -0.4214
  632poe    c23 3256   2.789   5.706   3.240 -0.5107 -0.2690 -0.2456
  632poe     o2 3257   2.722   5.667   3.122 -0.9688 -0.3362  0.0318
  632poe    c23 3258   2.778   5.545   3.080  0.2271  0.4888 -0.8642
  632poe    c23 3259   2.679   5.471   2.988 -0.1112 -0.2798  0.0965
  632poe     o2 3260   2.548   5.470   3.039 -0.0045 -0.7022  0.3685
  632poe    c23 3261   2.514   5.378   3.140  0.2620 -0.2947  0.8301
  632poe    c23 3262   2.380   5.435   3.188  0.0217  0.1591 -0.3720
  632poe     o2 3263   2.414   5.558   3.247  0.1812 -0.0653  0.0076
  632poe    c31 3264   2.309   5.583   3.337  0.1485  0.2224 -0.1095
  633poe    c31 3265   4.683   1.496   1.872  0.1328  0.6475 -0.3230
  633poe     o2 3266   4.570   1.424   1.829  0.1767 -0.0857  0.7272
  633poe    c23 3267   4.549   1.456   1.693 -0.6086  0.2089  0.9083
  633poe    c23 3268   4.439   1.366   1.635  0.3099  0.0289 -0.6239
  633poe     o2 3269   4.318   1.429   1.673 -0.0298 -0.9148 -0.1129
  633poe    c23 3270   4.221   1.328   1.685 -0.4024 -0.5167  0.2680
  633poe    c23 3271   4.086   1.394   1.721 -0.1031  0.4362 -0.3284
  633poe     o2 3272   4.091   1.463   1.844 -0.5056 -0.5316  0.2397
  633poe    c23 3273   3.972   1.537   1.865 -0.4248 -0.4339  0.3535
  633poe    c23 3274   3.992   1.603   2.002 -0.1783 -0.3303  0.2688
  633poe     o2 3275   4.110   1.679   1.991 -0.0792 -0.5719 -0.3462
  633poe    c31 3276   4.131   1.737   2.118 -0.7268 -0.0266 -0.4839
  634poe    c31 3277   6.671   3.802   0.423 -0.0844  0.2015 -0.1335
  634poe     o2 3278   6.660   3.801   0.283  0.2721 -0.4232 -0.1631
  634poe    c23 3279   6.720   3.677   0.254 -0.0327 -0.4074 -0.8901
  634poe    c23 3280   6.734   3.664   0.101  0.0916 -0.2798 -0.8905
  634poe     o2 3281   6.783   3.790   0.062 -0.5182  0.1665 -0.2433
  634poe    c23 3282   6.850   3.787  -0.062 -0.2183 -0.7171 -0.0633
  634poe    c23 3283   6.872   3.934  -0.102 -0.0912 -0.6975  0.0757
  634poe     o2 3284   6.754   4.005  -0.071 -0.4478 -0.8679 -0.8542
  634poe    c23 3285   6.750   4.119  -0.154  0.0165 -0.0836  0.1675
  634poe    c23 3286   6.614   4.184  -0.123 -0.0347 -0.2385  0.2673
  634poe     o2 3287   6.617   4.256  -0.002  0.3055  0.4919 -0.1713
  634poe    c31 3288   6.485   4.304   0.006 -0.1281 -0.5594 -0.8178
  635poe    c31 3289   6.642   2.068   0.913  0.7547 -0.2687 -0.1265
  635poe     o2 3290   6.635   2.196   0.856  0.3208 -0.4690 -0.5271
  635poe    c23 3291   6.550   2.281   0.930  0.3197  0.0207 -1.0764
  635poe    c23 3292   6.576   2.431   0.908 -0.1424  0.1645 -0.6691
  635poe     o2 3293   6.600   2.457   0.771  0.5053  0.1601 -0.5597
  635poe    c23 3294   6.649   2.587   0.748  0.9687  0.1914  0.5500
  635poe    c23 3295   6.640   2.599   0.595  0.3194  0.1237  0.5793
  635poe     o2 3296   6.720   2.497   0.539 -0.2422 -0.1356  0.2366
  635poe    c23 3297   6.656   2.404   0.455  0.5665 -0.1978 -0.3169
  635poe    c23 3298   6.734   2.271   0.460 -0.7629 -0.9808 -0.0695
  635poe     o2 3299   6.732   2.211   0.588  0.0775 -0.5884  0.1348
  635poe    c31 3300   6.775   2.077   0.581  0.2355 -0.5017 -0.6743
  636poe    c31 3301   1.507   5.039   1.965 -0.2872  0.8793 -0.0586
  636poe     o2 3302   1.600   4.956   1.899 -0.9294 -0.1400  0.2788
  636poe    c23 3303   1.636   4.835   1.962  0.3189 -0.1502 -0.4138
  636poe    c23 3304   1.775   4.858   2.024 -0.2237  0.2101  0.6951
  636poe     o2 3305   1.853   4.889   1.910 -0.4891  0.0772  0.4754
  636poe    c23 3306   1.982   4.915   1.960 -0.6666  0.8183  0.5535
  636poe    c23 3307   2.082   4.970   1.857 -0.3334 -0.1194  0.3706
  636poe     o2 3308   2.063   5.109   1.841 -0.3271 -0.0703  0.7732
  636poe    c23 3309   2.120   5.152   1.719 -0.1362  0.0876  0.9183
  636poe    c23 3310   2.046   5.270   1.654  0.2161  0.2354  0.7887
  636poe     o2 3311   1.907   5.257   1.641  0.4061 -0.5552 -0.7014
  636poe    c31 3312   1.860   5.382   1.594 -0.3035 -0.5667 -0.0540
  637poe    c31 3313   4.525   5.654   1.162 -0.6771 -0.5729  0.2134
  637poe     o2 3314   4.600   5.683   1.278  0.0276 -0.2334 -0.3158
  637poe    c23 3315   4.724   5.743   1.249 -0.1582  0.2690 -0.0785
  637poe    c23 3316   4.821   5.757   1.368 -0.1948 -0.6210  0.0600
  637poe     o2 3317   4.874   5.633   1.412 -0.6378 -0.6329  0.5841
  637poe    c23 3318   4.972   5.640   1.513  0.7390 -0.4014 -0.7309
  637poe    c23 3319   4.995   5.495   1.558 -0.1323 -0.3451 -0.1000
  637poe     o2 3320   4.950   5.408   1.457 -0.2250 -0.1182 -0.2562
  637poe    c23 3321   5.004   5.278   1.467  0.0938  0.0332  0.0034
  637poe    c23 3322   4.941   5.166   1.551  0.0352 -0.0277 -0.1213
  637poe     o2 3323   4.813   5.165   1.492  0.0760 -0.1382 -0.2089
  637poe    c31 3324   4.719   5.086   1.561 -0.4758  0.6405 -0.0622
  638poe    c31 3325   2.030   2.552   5.528  0.1619  0.2835  0.5703
  638poe     o2 3326   2.095   2.636   5.620 -0.0036  0.2951  0.6755
  638poe    c23 3327   2.186   2.728   5.563  0.0814 -0.3352 -0.2187
  638poe    c23 3328   2.270   2.768   5.685 -0.3844  0.4854 -0.1605
  638poe     o2 3329   2.197   2.787   5.804 -0.0956  0.1411  0.0752
  638poe    c23 3330   2.266   2.845   5.913 -0.1462  0.1726  0.0905
  638poe    c23 3331   2.199   2.861   6.051 -0.2085 -0.2040  0.1050
  638poe     o2 3332   2.217   2.759   6.147 -0.0381 -0.0077  0.2818
  638poe    c23 3333   2.122   2.655   6.143  0.1032 -0.1484  0.5093
  638poe    c23 3334   1.969   2.667   6.157  0.1364 -0.0966  0.8145
  638poe     o2 3335   1.918   2.756   6.060 -0.1391 -0.9161  0.2006
  638poe    c31 3336   1.797   2.809   6.107 -0.1158  0.2663 -0.9990
  639poe    c31 3337   0.887   4.348   1.465 -0.1048 -0.4277  0.0841
  639poe     o2 3338   0.998   4.265   1.438  0.4373  0.2933  0.0863
  639poe    c23 3339   1.048   4.290   1.308  0.4225  0.2723  0.0766
  639poe    c23 3340   1.149   4.185   1.261  0.2346  0.1274 -0.0043
  639poe     o2 3341   1.098   4.060   1.301 -0.0359  0.0667 -0.5284
  639poe    c23 3342   1.182   3.948   1.312 -0.0880  0.0727 -0.0402
  639poe    c23 3343   1.303   3.959   1.407  0.1008  0.8816 -0.3699
  639poe     o2 3344   1.248   4.039   1.509 -0.0665  0.1375  0.1298
  639poe    c23 3345   1.344   4.104   1.589  0.0327  0.0326  0.0960
  639poe    c23 3346   1.281   4.174   1.711 -0.6972 -0.4747  0.0133
  639poe     o2 3347   1.166   4.243   1.668 -0.6569 -0.0102  0.6416
  639poe    c31 3348   1.143   4.362   1.740  0.6461  0.6608 -0.0054
  640poe    c31 3349   1.589   0.139   0.353 -0.1792 -0.5959  0.3458
  640poe     o2 3350   1.700   0.215   0.394 -0.0252 -0.5438 -0.1542
  640poe    c23 3351   1.803   0.235   0.299  0.2668  0.1038  0.2840
  640poe    c23 3352   1.911   0.330   0.353  0.3245 -0.0885  0.5088
  640poe     o2 3353   1.975   0.297   0.474  0.1474 -0.5069  0.4909
  640poe    c23 3354   2.070   0.398   0.501 -0.0994 -0.2832  0.5323
  640poe    c23 3355   2.077   0.402   0.654  0.4631  0.0813  0.4997
  640poe     o2 3356   2.095   0.269   0.698  0.4424 -0.1408 -0.1616
  640poe    c23 3357   2.111   0.250   0.837  0.1181  0.3485 -0.0540
  640poe    c23 3358   2.116   0.099   0.867  0.3977  0.2413 -0.6315
  640poe     o2 3359   1.991   0.037   0.851  0.2596  0.3828 -0.0890
  640poe    c31 3360   1.930   0.010   0.976  0.4812  0.3865  0.0198
  641poe    c31 3361   0.520   4.415   6.173 -0.0201  0.4316  0.2078
  641poe     o2 3362   0.513   4.307   6.262 -0.3415 -0.1231 -0.4816
  641poe    c23 3363   0.600   4.337   6.369 -0.3978 -0.7935 -0.2423
  641poe    c23 3364   0.566   4.260   6.498 -0.4877  0.4641  0.5011
  641poe     o2 3365   0.525   4.126   6.481  0.0260  0.2817  0.6828
  641poe    c23 3366   0.574   4.030   6.572 -0.1900 -0.2213  0.2734
  641poe    c23 3367   0.490   3.901   6.566 -0.2168 -0.1831 -0.2096
  641poe     o2 3368   0.486   3.867   6.429 -0.4807  0.7517 -0.4429
  641poe    c23 3369   0.422   3.742   6.417 -0.2517  0.6199 -0.2956
  641poe    c23 3370   0.401   3.702   6.270  0.4598 -0.3118 -0.1580
  641poe     o2 3371   0.365   3.815   6.193  0.3299 -0.1129  0.1923
  641poe    c31 3372   0.313   3.761   6.073 -0.2558 -0.7698  0.7250
  642poe    c31 3373   2.040   4.712   5.485  0.0540  0.1851 -0.4577
  642poe     o2 3374   1.998   4.844   5.507 -0.4459 -0.0481  0.0060
  642poe    c23 3375   2.104   4.927   5.549 -0.7779  0.3774  0.0161
  642poe    c23 3376   2.052   5.071   5.531  0.2331  0.7646  0.1347
  642poe     o2 3377   1.914   5.075   5.502  0.5036  0.0325 -1.3672
  642poe    c23 3378   1.843   5.196   5.502 -0.1726 -0.3375  0.1451
  642poe    c23 3379   1.694   5.164   5.475 -0.3182 -0.0534  0.5957
  642poe     o2 3380   1.681   5.038   5.537  0.2046 -0.3003  0.2146
  642poe    c23 3381   1.560   4.971   5.513  0.2806 -0.5573  0.5440
  642poe    c23 3382   1.581   4.829   5.569 -0.3885 -0.6830  0.4806
  642poe     o2 3383   1.705   4.777   5.527 -0.2677  0.3987 -0.5555
  642poe    c31 3384   1.715   4.640   5.559  0.4675  0.6714  0.4529
  643poe    c31 3385   2.652   3.366   6.710  0.1444  0.4472 -0.3081
  643poe     o2 3386   2.689   3.307   6.588  0.4167 -0.1226  0.0448
  643poe    c23 3387   2.821   3.259   6.597  0.7076  0.6507 -0.0496
  643poe    c23 3388   2.854   3.171   6.475 -0.4539  0.2241 -0.0610
  643poe     o2 3389   2.757   3.068   6.469 -0.1913 -0.0493  0.3290
  643poe    c23 3390   2.749   3.012   6.340  0.0523  0.0305  0.2785
  643poe    c23 3391   2.610   2.948   6.323  0.0571  0.0895  0.0138
  643poe     o2 3392   2.527   3.054   6.365 -0.4322 -0.2804 -0.0089
  643poe    c23 3393   2.391   3.017   6.372 -0.4413 -0.3342 -0.4250
  643poe    c23 3394   2.319   3.149   6.405  0.2494  0.0983 -0.6241
  643poe     o2 3395   2.384   3.212   6.514  0.1189 -0.4160 -0.2428
  643poe    c31 3396   2.283   3.292   6.572 -0.1524 -1.0000  0.1029
  644poe    c31 3397   2.307   0.410   1.198  0.2182 -0.1912  0.6693
  644poe     o2 3398   2.436   0.369   1.158  0.0690 -0.1490  0.1366
  644poe    c23 3399   2.506   0.468   1.084  0.1737 -0.1223  0.2717
  644poe    c23 3400   2.656   0.476   1.118  0.2657  0.5359 -0.2796
  644poe     o2 3401   2.686   0.352   1.177  0.2564  0.3930 -0.5749
  644poe    c23 3402   2.810   0.343   1.243 -0.3685  0.1373  0.6015
  644poe    c23 3403   2.803   0.331   1.396 -0.4715 -0.5935  0.5392
  644poe     o2 3404   2.724   0.221   1.434 -0.2590 -0.9733 -0.1012
  644poe    c23 3405   2.693   0.222   1.572 -0.0441 -0.7076 -0.0554
  644poe    c23 3406   2.646   0.087   1.629 -0.4660 -0.6035 -0.1530
  644poe     o2 3407   2.516   0.059   1.582 -0.6145  0.4480 -0.3916
  644poe    c31 3408   2.489  -0.075   1.617  0.7547  0.1024 -0.5910
  645poe    c31 3409   5.190   0.790   5.973 -0.5979  0.1808 -0.0150
  645poe     o2 3410   5.191   0.929   6.001 -0.2953  0.1411  0.1762
  645poe    c23 3411   5.074   0.980   5.940 -0.4345  0.3168  0.5876
  645poe    c23 3412   5.052   1.121   5.998 -0.1888  0.3916  0.5010
  645poe     o2 3413   5.005   1.112   6.131 -0.5599 -0.2994  0.3283
  645poe    c23 3414   4.986   1.236   6.197  0.8932  0.0612  0.1002
  645poe    c23 3415   4.952   1.214   6.345 -0.1545 -0.5674 -0.2226
  645poe     o2 3416   5.050   1.193   6.445 -0.4935  0.6545  0.3804
  645poe    c23 3417   5.010   1.155   6.575  0.5067 -1.0080  0.2265
  645poe    c23 3418   5.122   1.094   6.660  0.8028 -0.4438  0.2470
  645poe     o2 3419   5.212   1.029   6.573  0.5871 -0.1226 -0.2154
  645poe    c31 3420   5.284   0.936   6.651 -0.0953 -0.4490  0.0371
  646poe    c31 3421   0.719   2.575   0.128 -0.2248  0.1377  0.2221
  646poe     o2 3422   0.601   2.501   0.112 -0.2528  0.2528 -0.0965
  646poe    c23 3423   0.568   2.453  -0.017  0.6450 -0.3874 -0.0943
  646poe    c23 3424   0.461   2.347   0.014  0.0569  0.2759  0.1821
  646poe     o2 3425   0.368   2.392   0.110  0.1330  0.2078  0.2887
  646poe    c23 3426   0.311   2.269   0.149  0.0231  0.3059  0.4387
  646poe    c23 3427   0.356   2.239   0.293 -0.1617 -0.4692  0.3384
  646poe     o2 3428   0.370   2.366   0.353 -0.1009 -0.5139  0.4178
  646poe    c23 3429   0.440   2.330   0.470 -0.0104 -0.1765  0.4695
  646poe    c23 3430   0.517   2.445   0.536  0.5146 -0.3632  0.1810
  646poe     o2 3431   0.600   2.483   0.428  0.3454 -0.6662 -0.0557
  646poe    c31 3432   0.710   2.541   0.494 -0.1383 -0.4917  0.6051
  647poe    c31 3433   6.671   0.684   6.433 -0.0375 -0.4445  0.2266
  647poe     o2 3434   6.786   0.642   6.363  0.3712 -0.0907  0.6816
  647poe    c23 3435   6.879   0.585   6.452  0.0123 -0.9541  0.5112
  647poe    c23 3436   6.998   0.528   6.372 -0.1637 -0.2805 -0.2290
  647poe     o2 3437   7.078   0.624   6.306  0.2641 -0.2842  0.2745
  647poe    c23 3438   7.193   0.658   6.380  0.7805 -1.0129 -0.1731
  647poe    c23 3439   7.289   0.727   6.281  0.2935  0.0826  0.0981
  647poe     o2 3440   7.219   0.803   6.185 -0.2116  0.1743  0.5363
  647poe    c23 3441   7.290   0.908   6.124 -0.1131 -0.4254 -0.4021
  647poe    c23 3442   7.189   1.003   6.056 -0.3953 -0.1610  0.3732
  647poe     o2 3443   7.100   0.919   5.986  0.3780 -0.0072 -0.8303
  647poe    c31 3444   6.986   0.994   5.947 -0.0554 -0.1026  0.2124
  648poe    c31 3445   1.739   5.652   6.690 -0.8639  0.1604 -0.2937
  648poe     o2 3446   1.721   5.644   6.830 -0.1742  0.2210 -0.1976
  648poe    c23 3447   1.746   5.766   6.895 -0.2244  0.1579 -0.0606
  648poe    c23 3448   1.795   5.723   7.035  0.0549  0.3652 -0.0935
  648poe     o2 3449   1.690   5.651   7.095  0.4066 -0.2086 -0.1595
  648poe    c23 3450   1.699   5.604   7.228  0.1897  0.2882  0.0323
  648poe    c23 3451   1.568   5.531   7.264 -0.0467  0.7850  0.1972
  648poe     o2 3452   1.533   5.446   7.157 -0.0387  0.6217  0.3238
  648poe    c23 3453   1.396   5.413   7.172 -0.0129  0.2667 -0.2040
  648poe    c23 3454   1.345   5.304   7.076 -0.4790  0.2540  0.0581
  648poe     o2 3455   1.332   5.351   6.944  0.7555  0.5131  0.0196
  648poe    c31 3456   1.234   5.279   6.873 -0.0727  0.1142  1.5308
  649poe    c31 3457   2.886   2.138   0.975  0.4343  0.2001 -0.0693
  649poe     o2 3458   2.753   2.185   0.982  0.2217 -0.4027  0.0068
  649poe    c23 3459   2.679   2.112   0.888 -0.2750 -0.1832  0.2259
  649poe    c23 3460   2.538   2.173   0.884 -0.2469 -0.1157  0.2783
  649poe     o2 3461   2.546   2.303   0.938 -0.5081 -0.0860  0.2507
  649poe    c23 3462   2.428   2.379   0.925 -0.1941  0.3959  0.1995
  649poe    c23 3463   2.481   2.514   0.977  0.0725  0.3192  0.1277
  649poe     o2 3464   2.563   2.486   1.089  0.2150 -0.6071 -0.1991
  649poe    c23 3465   2.617   2.597   1.157 -0.0393 -0.2100 -0.6381
  649poe    c23 3466   2.695   2.526   1.269 -0.0965  0.6393 -0.0497
  649poe     o2 3467   2.755   2.423   1.194 -1.0001  0.0177  0.0609
  649poe    c31 3468   2.817   2.329   1.279 -0.4609  0.1225 -0.2106
  650poe    c31 3469   1.198   6.717   1.862 -0.3302  0.1465  0.6622
  650poe     o2 3470   1.240   6.628   1.962 -0.1323  0.3837  0.7898
  650poe    c23 3471   1.381   6.628   1.951 -0.2348 -0.1738 -0.6970
  650poe    c23 3472   1.447   6.569   2.077 -0.7017  0.4584 -0.1533
  650poe     o2 3473   1.384   6.444   2.088  0.2916 -0.0544 -0.2046
  650poe    c23 3474   1.419   6.369   2.202  0.4625  0.3999  0.0436
  650poe    c23 3475   1.314   6.257   2.186  0.3489  0.4599  0.3575
  650poe     o2 3476   1.195   6.333   2.184  0.1166  0.0957  0.0215
  650poe    c23 3477   1.084   6.257   2.142  0.1513 -0.1348  0.3421
  650poe    c23 3478   0.957   6.338   2.110  0.1986 -0.0875  0.2721
  650poe     o2 3479   0.999   6.456   2.046  0.4589 -0.1540  0.3170
  650poe    c31 3480   0.881   6.511   1.991  0.3578 -0.0427  0.6431
  651poe    c31 3481   6.801   1.468   2.200  0.2505  0.8117 -0.4686
  651poe     o2 3482   6.936   1.449   2.235  0.0192  0.2729  0.1641
  651poe    c23 3483   6.947   1.426   2.373  0.3671  0.3654  0.1544
  651poe    c23 3484   7.085   1.360   2.391  0.2295 -0.0048 -0.1173
  651poe     o2 3485   7.183   1.452   2.348 -0.0357 -0.0081 -0.7352
  651poe    c23 3486   7.301   1.376   2.335  0.0704  0.0377 -0.0785
  651poe    c23 3487   7.391   1.456   2.240 -0.2170  0.2275 -0.1922
  651poe     o2 3488   7.299   1.511   2.149 -0.1006  0.5876 -0.0922
  651poe    c23 3489   7.363   1.619   2.083  0.1080  0.5123 -0.0146
  651poe    c23 3490   7.269   1.665   1.969  0.2195  0.8629  0.0350
  651poe     o2 3491   7.142   1.666   2.030  0.1572  0.2003 -0.0748
  651poe    c31 3492   7.034   1.695   1.944 -0.1864 -0.6124  0.0760
  652poe    c31 3493   1.386   6.640   3.761 -0.4554 -0.2612 -0.6245
  652poe     o2 3494   1.356   6.505   3.790  0.3413 -0.2730  0.2029
  652poe    c23 3495   1.228   6.492   3.848  0.2787 -0.3575  0.0486
  652poe    c23 3496   1.200   6.341   3.848 -0.1893 -0.2730  0.2080
  652poe     o2 3497   1.277   6.250   3.924 -0.4589 -0.2903  0.4581
  652poe    c23 3498   1.241   6.114   3.906  0.2190 -0.3744 -0.2555
  652poe    c23 3499   1.324   6.019   3.994  0.0591 -0.3830 -0.1135
  652poe     o2 3500   1.460   6.041   3.962 -0.0183 -0.3704 -0.4334
  652poe    c23 3501   1.551   5.952   4.023  0.2967  0.1730 -0.1066
  652poe    c23 3502   1.683   6.026   3.995 -0.0470  0.5207 -0.8468
  652poe     o2 3503   1.653   6.163   4.010 -0.2652  0.3513  0.4262
  652poe    c31 3504   1.769   6.243   4.014  0.0775 -0.1097 -0.0233
  653poe    c31 3505   5.013   2.261   1.199  0.2064 -0.2177 -0.1702
  653poe     o2 3506   5.046   2.348   1.306  0.9117 -0.3951 -0.2371
  653poe    c23 3507   5.174   2.326   1.359  0.6710 -0.3879  0.3509
  653poe    c23 3508   5.204   2.432   1.466 -0.4724  0.4178 -0.1119
  653poe     o2 3509   5.097   2.431   1.558 -0.3896 -0.0753 -0.0167
  653poe    c23 3510   5.104   2.534   1.654  0.1924 -0.0982 -0.0305
  653poe    c23 3511   4.968   2.509   1.723 -0.0587 -0.2133 -0.5568
  653poe     o2 3512   4.876   2.465   1.626  0.1467 -0.7305 -0.5209
  653poe    c23 3513   4.752   2.416   1.670 -0.2775  0.3799 -0.4467
  653poe    c23 3514   4.770   2.264   1.655  0.2022  0.3810  0.0793
  653poe     o2 3515   4.843   2.245   1.535 -0.4275 -0.0455 -0.2422
  653poe    c31 3516   4.895   2.115   1.523 -0.2371 -0.0407  0.4677
  654poe    c31 3517   4.086   6.778   6.012 -0.1562  0.3624 -0.1266
  654poe     o2 3518   4.053   6.912   5.985  0.1214  0.4406 -0.0834
  654poe    c23 3519   4.128   6.971   5.880  0.4274 -0.1071 -0.1765
  654poe    c23 3520   4.044   7.049   5.777  0.3084  0.0424  0.0326
  654poe     o2 3521   4.005   7.170   5.839  0.9407  0.1805  0.1716
  654poe    c23 3522   4.007   7.280   5.751  0.1904  0.2951  0.2933
  654poe    c23 3523   3.949   7.407   5.815  0.5762  0.3933  0.4502
  654poe     o2 3524   3.982   7.408   5.952  0.6554 -0.2323  0.4396
  654poe    c23 3525   3.903   7.510   6.009 -0.0956 -0.5362 -0.0455
  654poe    c23 3526   3.922   7.496   6.161 -0.6698  0.2018  0.0987
  654poe     o2 3527   3.968   7.366   6.190 -0.3323  0.2352 -0.2913
  654poe    c31 3528   3.972   7.344   6.329 -0.6287 -0.1935 -0.3471
  655poe    c31 3529   6.004   0.307   5.113  0.0385 -0.0317  0.4869
  655poe     o2 3530   6.009   0.364   4.984 -0.1176  0.4861  0.7046
  655poe    c23 3531   5.915   0.468   4.972 -0.2216  0.2936 -0.2739
  655poe    c23 3532   5.915   0.517   4.826  0.5714  0.3151 -0.2696
  655poe     o2 3533   5.904   0.401   4.747 -0.0441  0.0102  0.2585
  655poe    c23 3534   5.935   0.414   4.610 -0.0360 -0.2332  0.2366
  655poe    c23 3535   5.864   0.291   4.550  0.3066 -0.1489 -0.3397
  655poe     o2 3536   5.906   0.176   4.620  1.2871  0.2201 -0.3113
  655poe    c23 3537   5.871   0.058   4.552 -0.1725 -0.0453  0.8561
  655poe    c23 3538   5.844  -0.067   4.638 -0.0845 -0.3452  0.4529
  655poe     o2 3539   5.960  -0.115   4.703  0.3165 -0.3738 -0.2733
  655poe    c31 3540   5.948  -0.251   4.739  0.6957 -0.3501 -0.0455
  656poe    c31 3541   5.044   4.385   3.224 -0.5676 -0.8741 -0.2697
  656poe     o2 3542   4.962   4.448   3.128 -0.2856  0.6238  0.4405
  656poe    c23 3543   5.045   4.533   3.052  0.3484 -0.7562 -0.4512
  656poe    c23 3544   4.991   4.554   2.909  0.1930  0.1245 -0.2697
  656poe     o2 3545   4.854   4.587   2.922  0.0828 -0.3498 -0.2110
  656poe    c23 3546   4.758   4.537   2.831  0.2940 -0.1378 -0.5543
  656poe    c23 3547   4.748   4.384   2.820  0.6284 -0.1583 -0.5759
  656poe     o2 3548   4.729   4.344   2.954  0.1347  0.2829 -0.5101
  656poe    c23 3549   4.717   4.204   2.961  0.3939  0.2785 -0.1227
  656poe    c23 3550   4.668   4.176   3.105  0.2585 -0.3629 -0.2912
  656poe     o2 3551   4.749   4.242   3.200 -0.1095  0.1673 -0.3473
  656poe    c31 3552   4.731   4.203   3.334  0.7517 -0.2416 -0.3485
  657poe    c31 3553   1.528   5.284   3.550 -0.0408  0.0743  0.0339
  657poe     o2 3554   1.490   5.179   3.635  0.3355 -0.3513 -0.3177
  657poe    c23 3555   1.381   5.207   3.721  0.2231 -0.7694 -0.3225
  657poe    c23 3556   1.317   5.090   3.798  0.1517 -0.3317  0.2875
  657poe     o2 3557   1.273   4.997   3.701  0.2624  0.0715 -0.1531
  657poe    c23 3558   1.230   4.881   3.769  0.4267 -0.2850 -0.6542
  657poe    c23 3559   1.224   4.773   3.660  0.3814  0.0385 -0.9762
  657poe     o2 3560   1.355   4.729   3.634  0.5156 -0.5480  0.5590
  657poe    c23 3561   1.363   4.657   3.512  0.4906  0.0178  0.2214
  657poe    c23 3562   1.500   4.587   3.505  0.3664 -0.2708  0.6825
  657poe     o2 3563   1.590   4.686   3.546  0.0941  0.4203 -0.3566
  657poe    c31 3564   1.726   4.651   3.534  0.1189  0.1770  0.5739
  658poe    c31 3565   2.145   4.916   2.978  0.3422 -0.5708  0.1044
  658poe     o2 3566   2.094   4.999   3.081  0.2712 -0.2043 -0.2232
  658poe    c23 3567   2.092   5.134   3.042  0.3367 -0.2448 -0.3677
  658poe    c23 3568   2.045   5.228   3.154  0.8161 -1.1236  0.5818
  658poe     o2 3569   2.123   5.249   3.270  0.3799 -0.1776  0.7127
  658poe    c23 3570   2.047   5.326   3.359 -0.5985 -0.4145  0.0932
  658poe    c23 3571   2.092   5.315   3.506  0.1949 -0.0761 -0.1213
  658poe     o2 3572   2.074   5.183   3.552 -0.1857  0.0944  0.2232
  658poe    c23 3573   2.118   5.179   3.686  0.4888  0.1355  0.0061
  658poe    c23 3574   2.085   5.035   3.732  0.1175  0.0837 -0.4132
  658poe     o2 3575   2.138   4.942   3.640  0.2324  0.0591 -0.3216
  658poe    c31 3576   2.115   4.813   3.692 -1.2204  0.6192  0.4719
  659poe    c31 3577   0.599   4.860   4.954  0.3111  0.4347 -0.5864
  659poe     o2 3578   0.505   4.756   4.941  0.1327  0.5853 -0.5102
  659poe    c23 3579   0.381   4.822   4.936 -0.3486 -0.3418 -0.9279
  659poe    c23 3580   0.266   4.723   4.907 -0.8019 -0.0302 -0.2305
  659poe     o2 3581   0.271   4.605   4.985 -1.0285  0.3858  0.4224
  659poe    c23 3582   0.175   4.510   4.943 -0.0118 -0.5034  0.0902
  659poe    c23 3583   0.173   4.374   5.015  0.4453 -0.0247  1.0227
  659poe     o2 3584   0.286   4.290   5.001  0.4297  0.2181 -0.7821
  659poe    c23 3585   0.243   4.156   5.009  0.2970  0.2575 -0.8472
  659poe    c23 3586   0.336   4.074   4.918  0.4809 -0.4540 -0.0228
  659poe     o2 3587   0.465   4.132   4.916  0.2712 -0.0035 -0.5599
  659poe    c31 3588   0.559   4.058   4.843  0.2300 -0.6392  0.0193
  660poe    c31 3589   5.108   2.073   0.676  0.2364 -0.4842 -0.1641
  660poe     o2 3590   5.196   2.128   0.581  0.2700 -0.3211 -0.0377
  660poe    c23 3591   5.147   2.176   0.458 -0.0136 -0.0341  0.1874
  660poe    c23 3592   5.260   2.258   0.392 -0.0940 -0.1769 -0.1298
  660poe     o2 3593   5.376   2.178   0.404 -0.0639 -0.1230 -0.0596
  660poe    c23 3594   5.482   2.267   0.378 -0.0901 -0.0574  0.0554
  660poe    c23 3595   5.606   2.175   0.370 -0.1883 -0.1992  0.1673
  660poe     o2 3596   5.594   2.065   0.457 -0.0383 -0.0840  0.3327
  660poe    c23 3597   5.719   2.003   0.475  0.0399  0.1283  0.5248
  660poe    c23 3598   5.735   1.907   0.594 -0.1606 -0.3316  0.1856
  660poe     o2 3599   5.643   1.801   0.597 -0.3122 -0.1999  0.2389
  660poe    c31 3600   5.679   1.717   0.704  0.0040 -0.2623  0.0862
  661poe    c31 3601   2.200   3.646   5.031 -0.0513 -0.6063  0.2551
  661poe     o2 3602   2.074   3.644   5.095 -0.0416  0.4768  0.3245
  661poe    c23 3603   2.066   3.564   5.211  0.1454 -0.3782 -0.2394
  661poe    c23 3604   1.916   3.542   5.237 -0.0430  0.2105 -0.7772
  661poe     o2 3605   1.855   3.667   5.215 -0.1216  0.3589  0.2278
  661poe    c23 3606   1.716   3.661   5.237 -0.0547  0.1179  0.5942
  661poe    c23 3607   1.661   3.804   5.256 -0.0674  0.1793  0.0976
  661poe     o2 3608   1.665   3.870   5.131  0.3373  0.1422  0.0893
  661poe    c23 3609   1.639   4.005   5.159  0.7836  0.2489  0.0015
  661poe    c23 3610   1.635   4.051   5.012 -0.2796  0.4671  0.0868
  661poe     o2 3611   1.753   4.028   4.938 -0.2896  0.1385  0.1708
  661poe    c31 3612   1.734   4.103   4.821  0.5485  0.1438  0.0303
  662poe    c31 3613   0.696   4.203   2.458 -0.1771 -0.6658  0.6627
  662poe     o2 3614   0.601   4.123   2.390 -0.1203  0.1715 -0.4395
  662poe    c23 3615   0.637   3.986   2.395 -0.4196  0.1016 -0.1242
  662poe    c23 3616   0.525   3.897   2.338  0.1008 -0.5871 -0.0733
  662poe     o2 3617   0.417   3.902   2.428  0.6530 -0.3855  0.5921
  662poe    c23 3618   0.353   3.776   2.424 -0.0108 -0.0289 -0.6831
  662poe    c23 3619   0.227   3.803   2.508 -0.1193 -0.7877 -0.5938
  662poe     o2 3620   0.160   3.913   2.450  0.0804 -0.5332 -0.3424
  662poe    c23 3621   0.049   3.950   2.528 -0.2060 -0.8641 -0.5967
  662poe    c23 3622   0.011   4.080   2.455  0.0295 -0.1770  0.4802
  662poe     o2 3623   0.130   4.155   2.447 -0.0748 -0.1040 -0.5890
  662poe    c31 3624   0.095   4.292   2.459  0.0170 -0.1510  0.3127
  663poe    c31 3625   5.148   2.888   6.652  0.0538 -0.2695  0.2484
  663poe     o2 3626   5.175   2.967   6.766 -0.2402  0.1788  0.0069
  663poe    c23 3627   5.171   3.105   6.738  0.7024  0.3886  0.8572
  663poe    c23 3628   5.089   3.136   6.865 -0.2802 -0.1620  0.3666
  663poe     o2 3629   5.170   3.101   6.975  0.1869  0.1503  0.1271
  663poe    c23 3630   5.117   3.176   7.082  0.0404  0.2511 -0.0165
  663poe    c23 3631   5.189   3.147   7.215 -0.3703  0.0928  0.1732
  663poe     o2 3632   5.192   3.007   7.228 -0.1492  0.0808 -0.0037
  663poe    c23 3633   5.295   2.989   7.323 -0.3164  0.0172  0.1647
  663poe    c23 3634   5.319   2.838   7.343 -0.0249  0.0324 -0.0697
  663poe     o2 3635   5.213   2.769   7.406 -0.4770  0.1988 -0.6428
  663poe    c31 3636   5.191   2.630   7.400 -1.1770  0.2725  0.0858
  664poe    c31 3637   6.727   2.837   4.049  0.3609  0.2317 -0.2443
  664poe     o2 3638   6.740   2.745   4.156  0.2034  0.3498 -0.1249
  664poe    c23 3639   6.787   2.812   4.271  0.0474  0.0559  0.1093
  664poe    c23 3640   6.875   2.718   4.356  0.1674  0.5442  0.5306
  664poe     o2 3641   6.804   2.597   4.374 -0.0329  0.5602 -0.1418
  664poe    c23 3642   6.892   2.499   4.421 -0.8738 -0.2009 -0.1300
  664poe    c23 3643   6.804   2.404   4.505 -0.4195 -0.1923  0.3685
  664poe     o2 3644   6.689   2.330   4.467 -0.4904 -0.0762  0.3546
  664poe    c23 3645   6.569   2.400   4.490 -0.8971 -0.5603 -0.2777
  664poe    c23 3646   6.507   2.415   4.350 -0.9366  0.2915 -0.1718
  664poe     o2 3647   6.556   2.541   4.309  0.3741 -0.1917 -0.1359
  664poe    c31 3648   6.463   2.590   4.215  0.1866  0.5350  0.4240
  665poe    c31 3649   2.447   1.409   1.354 -0.8222 -0.6963 -0.4758
  665poe     o2 3650   2.368   1.480   1.261 -0.0622  0.7974 -0.0062
  665poe    c23 3651   2.247   1.526   1.316 -0.1723  0.3504  0.1230
  665poe    c23 3652   2.189   1.642   1.234 -0.4835 -0.1997 -0.4456
  665poe     o2 3653   2.306   1.712   1.197 -0.3443  0.0256  0.4046
  665poe    c23 3654   2.273   1.832   1.132  0.4393 -0.4767 -0.9654
  665poe    c23 3655   2.402   1.887   1.068  0.4930 -0.0907 -0.5372
  665poe     o2 3656   2.460   1.773   1.007  0.3713 -0.2632 -0.3331
  665poe    c23 3657   2.595   1.780   0.968  0.5645  0.0655  0.3860
  665poe    c23 3658   2.646   1.636   0.956  1.0611  0.2021  0.7756
  665poe     o2 3659   2.606   1.556   1.065  0.2504 -0.4979 -0.0199
  665poe    c31 3660   2.710   1.521   1.153  0.6024  0.9096  0.1394
  666poe    c31 3661   0.688   3.491   1.781  0.1257 -0.0951 -0.2154
  666poe     o2 3662   0.601   3.406   1.852 -0.3976  0.0602 -0.6671
  666poe    c23 3663   0.624   3.420   1.990 -0.3695  0.0161 -0.6671
  666poe    c23 3664   0.504   3.361   2.067 -0.3990 -0.0280 -0.7469
  666poe     o2 3665   0.531   3.224   2.082 -0.1455  0.0781 -0.1986
  666poe    c23 3666   0.419   3.153   2.131  0.0673  0.2504  0.5513
  666poe    c23 3667   0.423   3.008   2.082  0.5272  0.4429  0.0034
  666poe     o2 3668   0.557   2.971   2.106  0.2917 -0.1923  0.3669
  666poe    c23 3669   0.569   2.835   2.072 -0.0372 -0.0908 -0.1664
  666poe    c23 3670   0.635   2.815   1.934  0.0885 -0.1331 -0.0996
  666poe     o2 3671   0.533   2.799   1.838 -0.1815 -0.2336  0.2008
  666poe    c31 3672   0.580   2.822   1.707 -0.3972  1.0254  0.3255
  667poe    c31 3673   5.466   5.017   4.239 -0.0388 -0.3234 -0.1044
  667poe     o2 3674   5.383   4.946   4.150 -0.2450 -0.2544  0.0298
  667poe    c23 3675   5.453   4.853   4.070 -0.2479  0.3319 -0.6620
  667poe    c23 3676   5.338   4.763   4.022 -0.5098  0.0232  0.5030
  667poe     o2 3677   5.228   4.844   3.987 -0.2116  0.2344  0.0354
  667poe    c23 3678   5.133   4.767   3.917  0.0753  0.2454 -0.3649
  667poe    c23 3679   5.007   4.854   3.919  0.0491  0.2091 -0.4229
  667poe     o2 3680   4.989   4.859   4.059  0.2776 -0.1155 -0.3831
  667poe    c23 3681   4.870   4.933   4.070  0.3357 -0.0626 -0.1066
  667poe    c23 3682   4.802   4.937   4.208  0.1027  0.2902 -0.2304
  667poe     o2 3683   4.898   4.957   4.309  0.3755 -0.2350 -0.3827
  667poe    c31 3684   4.834   4.996   4.429  0.0309  0.1430 -0.6870
  668poe    c31 3685   0.566   0.114   0.959  0.6382  0.6543  0.3225
  668poe     o2 3686   0.621   0.005   1.029 -0.0081 -0.4209 -0.8028
  668poe    c23 3687   0.736  -0.043   0.964  0.4399 -0.2410 -0.1606
  668poe    c23 3688   0.802  -0.150   1.053  0.2061 -0.0491  0.2444
  668poe     o2 3689   0.692  -0.212   1.116  0.0343 -0.7067 -0.6863
  668poe    c23 3690   0.736  -0.321   1.193  0.0618 -0.3448 -0.1837
  668poe    c23 3691   0.600  -0.356   1.254 -0.1215  0.2355 -0.2550
  668poe     o2 3692   0.547  -0.236   1.306  0.5096  0.3365  0.1560
  668poe    c23 3693   0.410  -0.258   1.327  0.5670  0.1034  0.2950
  668poe    c23 3694   0.358  -0.118   1.366 -0.1872  0.0178 -0.3781
  668poe     o2 3695   0.402  -0.027   1.268  0.4165  0.6508  0.4704
  668poe    c31 3696   0.388   0.103   1.322 -0.0637  0.7477  0.1162
  669poe    c31 3697   4.642   1.540   4.538  0.6024  0.0380 -0.1996
  669poe     o2 3698   4.632   1.412   4.596  1.0149 -0.0293 -0.2749
  669poe    c23 3699   4.549   1.326   4.522 -0.1699  0.4951  0.4277
  669poe    c23 3700   4.603   1.184   4.550  0.1330  0.5518  0.1347
  669poe     o2 3701   4.605   1.161   4.689  0.4389 -0.1728  0.0092
  669poe    c23 3702   4.613   1.024   4.724  0.7189 -0.1265  0.1383
  669poe    c23 3703   4.676   1.037   4.863  0.6996 -0.4372  0.1764
  669poe     o2 3704   4.787   1.122   4.852  0.7745 -0.6153 -0.4804
  669poe    c23 3705   4.879   1.122   4.960  0.1311  0.0693  0.0756
  669poe    c23 3706   4.833   1.182   5.094 -0.5014 -0.1191 -0.0512
  669poe     o2 3707   4.797   1.318   5.082  0.5631  0.1375 -0.4240
  669poe    c31 3708   4.906   1.407   5.064  0.0257  0.8223 -0.3268
  670poe    c31 3709   1.961   2.973   4.431  0.0998 -0.2739 -0.3489
  670poe     o2 3710   1.973   3.073   4.530 -0.4419 -0.5532  0.0058
  670poe    c23 3711   2.065   3.051   4.635 -0.4620 -0.1695  0.1060
  670poe    c23 3712   2.170   3.162   4.625 -0.1057 -0.5521 -0.4919
  670poe     o2 3713   2.101   3.283   4.606  0.0869 -0.3024  0.3238
  670poe    c23 3714   2.174   3.404   4.601  0.2464 -0.3963  0.3991
  670poe    c23 3715   2.066   3.512   4.587  0.5014 -0.1887  0.0182
  670poe     o2 3716   1.968   3.467   4.496  0.2130  0.0546  0.2065
  670poe    c23 3717   1.992   3.514   4.365 -0.4723 -0.1084  0.0179
  670poe    c23 3718   1.922   3.412   4.274  0.1226 -0.4258 -0.0883
  670poe     o2 3719   1.942   3.281   4.322  0.4593 -0.2969  0.1237
  670poe    c31 3720   1.895   3.203   4.214 -0.4978  0.4798 -0.0319
  671poe    c31 3721   0.189   5.780   0.529  0.7879  0.9351  0.0654
  671poe     o2 3722   0.208   5.669   0.444 -0.3501  0.7821 -0.0089
  671poe    c23 3723   0.091   5.590   0.440  0.4559 -0.4378 -0.0625
  671poe    c23 3724   0.140   5.445   0.420 -0.2174 -0.6737 -0.0127
  671poe     o2 3725   0.225   5.432   0.309 -0.3190  0.0515 -0.1822
  671poe    c23 3726   0.157   5.437   0.186 -0.0978  0.3185 -0.2951
  671poe    c23 3727   0.248   5.510   0.086  0.4570  0.1141  0.0524
  671poe     o2 3728   0.307   5.616   0.157  0.4662 -0.4920  0.9620
  671poe    c23 3729   0.432   5.652   0.102 -0.1711  0.3918  0.0361
  671poe    c23 3730   0.469   5.789   0.163  0.0975  0.2275  0.2437
  671poe     o2 3731   0.463   5.789   0.304  0.3907 -0.2923  0.2610
  671poe    c31 3732   0.534   5.898   0.357 -0.7522  0.3699  0.4613
  672poe    c31 3733   1.268   3.193   3.969 -0.4820 -0.6456 -0.5699
  672poe     o2 3734   1.186   3.294   3.915  0.1302  0.1996  0.0435
  672poe    c23 3735   1.213   3.416   3.981 -0.3462  0.2602  0.1334
  672poe    c23 3736   1.151   3.532   3.901 -0.4544  0.5293  0.6074
  672poe     o2 3737   1.170   3.485   3.770 -0.7649 -0.0493  0.7687
  672poe    c23 3738   1.122   3.568   3.667 -0.0880 -0.2884  0.2492
  672poe    c23 3739   1.131   3.487   3.536 -0.0495  0.1842 -0.0426
  672poe     o2 3740   1.108   3.355   3.580 -0.4093  0.2770  0.0520
  672poe    c23 3741   1.177   3.260   3.502 -0.2761  0.3406  0.0920
  672poe    c23 3742   1.129   3.122   3.550  1.2850 -0.2746 -0.0506
  672poe     o2 3743   1.137   3.120   3.691 -0.6803  0.0225  0.0866
  672poe    c31 3744   1.127   2.986   3.735 -0.1792 -0.3355 -0.8626
  673poe    c31 3745   0.075   1.748   2.820  0.1121  0.7883  0.4816
  673poe     o2 3746   0.025   1.667   2.924  0.0719  0.8101  0.4796
  673poe    c23 3747  -0.114   1.674   2.942 -0.1064  0.1676 -0.5474
  673poe    c23 3748  -0.149   1.642   3.088 -0.1563 -0.2177 -0.6445
  673poe     o2 3749  -0.093   1.514   3.105 -0.9998 -0.4739  0.3491
  673poe    c23 3750  -0.106   1.475   3.240 -0.5624 -1.0382  0.2320
  673poe    c23 3751   0.022   1.402   3.285  0.0530 -0.0702  0.0632
  673poe     o2 3752   0.135   1.469   3.233 -0.2699  0.5241  0.1157
  673poe    c23 3753   0.256   1.396   3.229 -0.2213  0.5841  0.4800
  673poe    c23 3754   0.354   1.487   3.154  0.2507 -0.4536 -0.1854
  673poe     o2 3755   0.288   1.523   3.035 -0.0573  0.4854  0.2545
  673poe    c31 3756   0.388   1.546   2.938 -0.2903 -0.6740 -0.2881
  674poe    c31 3757   5.819   4.531   4.220  0.2136  0.0463  0.2327
  674poe     o2 3758   5.869   4.658   4.184 -0.1599  0.1837  0.1934
  674poe    c23 3759   5.789   4.761   4.238 -0.1452 -0.0164  0.6059
  674poe    c23 3760   5.886   4.881   4.249 -0.0823 -0.0006 -0.0476
  674poe     o2 3761   5.994   4.885   4.339  0.0506 -0.0190 -0.2062
  674poe    c23 3762   6.045   5.014   4.366  0.2414 -0.1669  0.1466
  674poe    c23 3763   6.195   5.008   4.399  0.3064  0.0622 -0.0979
  674poe     o2 3764   6.271   4.949   4.295  0.4153 -0.3045  0.1859
  674poe    c23 3765   6.410   4.952   4.318  0.4182  0.2009  0.1174
  674poe    c23 3766   6.477   4.854   4.220  0.0488 -0.2663  0.3265
  674poe     o2 3767   6.422   4.725   4.238 -0.2046 -0.2418 -0.2698
  674poe    c31 3768   6.480   4.627   4.155 -0.1475 -0.3068 -0.1531
  675poe    c31 3769   3.882   4.814   1.284  0.3632 -0.8241 -0.0127
  675poe     o2 3770   3.982   4.871   1.366  0.7313  0.9952 -1.6476
  675poe    c23 3771   3.933   4.990   1.424 -0.0611  0.1818 -0.6174
  675poe    c23 3772   4.043   5.083   1.480  0.6740 -0.8760 -0.2549
  675poe     o2 3773   4.121   5.004   1.566  0.0500 -0.3155  0.8466
  675poe    c23 3774   4.251   5.058   1.568 -0.1623  0.2459 -0.0096
  675poe    c23 3775   4.353   4.945   1.591 -0.4999  0.0221  0.4063
  675poe     o2 3776   4.313   4.861   1.485  0.0742  0.1480  0.0848
  675poe    c23 3777   4.377   4.739   1.456 -0.2118 -0.0156  0.1412
  675poe    c23 3778   4.275   4.667   1.366  0.2337 -0.3937 -0.0686
  675poe     o2 3779   4.150   4.662   1.432  0.1591 -0.0874 -0.1887
  675poe    c31 3780   4.085   4.546   1.384  0.0206 -0.0333 -0.1325
  676poe    c31 3781   3.598   3.176   3.721 -0.3324  0.4866  0.2952
  676poe     o2 3782   3.654   3.143   3.596 -0.0776  0.1453  0.4957
  676poe    c23 3783   3.641   3.004   3.579 -0.4235  0.1840  0.4503
  676poe    c23 3784   3.596   2.999   3.432  0.0860 -0.1910  0.3026
  676poe     o2 3785   3.683   3.075   3.351  0.3958 -0.8010  0.0602
  676poe    c23 3786   3.645   3.082   3.215 -0.1423  0.3383  0.2527
  676poe    c23 3787   3.667   3.228   3.170  0.4045  0.5697  1.2374
  676poe     o2 3788   3.808   3.235   3.175  0.4320  0.5137  0.6218
  676poe    c23 3789   3.851   3.368   3.153  0.2717  0.4954  0.1919
  676poe    c23 3790   4.004   3.357   3.154  0.2140 -0.6185 -0.5909
  676poe     o2 3791   4.033   3.294   3.277 -0.4762 -0.1930 -0.2021
  676poe    c31 3792   4.160   3.339   3.321 -0.5496  0.0955 -0.2796
  677poe    c31 3793   6.547   3.115   3.060 -0.9953 -0.1713  0.0899
  677poe     o2 3794   6.538   3.149   2.924  0.2505  0.6208  0.1866
  677poe    c23 3795   6.404   3.123   2.888  0.4338 -0.3043  0.1311
  677poe    c23 3796   6.377   3.093   2.740 -0.4227  0.1304  0.1867
  677poe     o2 3797   6.440   2.975   2.693 -0.5183  0.1501  0.0081
  677poe    c23 3798   6.532   3.020   2.596 -0.2845 -0.3960 -0.0270
  677poe    c23 3799   6.679   3.009   2.639 -0.2131 -0.0705 -0.1841
  677poe     o2 3800   6.726   3.083   2.749 -0.0299 -0.0150 -0.2987
  677poe    c23 3801   6.854   3.034   2.779  0.1664  0.6182 -0.0754
  677poe    c23 3802   6.918   3.127   2.884 -0.3873  0.3395  0.5188
  677poe     o2 3803   6.842   3.245   2.878 -0.4313  0.2969  0.2209
  677poe    c31 3804   6.887   3.345   2.966  0.0075 -0.0879  0.4313
  678poe    c31 3805   0.229   4.738   4.336  0.4861 -0.3109  0.0403
  678poe     o2 3806   0.239   4.725   4.196 -0.0044  0.0550 -0.0330
  678poe    c23 3807   0.246   4.584   4.182  0.3739  0.0264  0.4110
  678poe    c23 3808   0.358   4.543   4.085  0.1811  0.1305  0.1420
  678poe     o2 3809   0.345   4.614   3.964  0.1534 -0.5925 -0.2867
  678poe    c23 3810   0.463   4.671   3.911 -0.0387 -0.3837 -0.4858
  678poe    c23 3811   0.443   4.824   3.899  0.1005 -0.3329 -0.0621
  678poe     o2 3812   0.408   4.884   4.022  0.4823 -0.1620 -0.0360
  678poe    c23 3813   0.405   5.025   4.020 -0.4322 -0.1736 -0.0831
  678poe    c23 3814   0.329   5.082   4.141  0.0130  0.0488  0.0948
  678poe     o2 3815   0.203   5.020   4.130 -0.0388  0.2813 -0.7212
  678poe    c31 3816   0.099   5.113   4.157  0.3154  0.3585  0.4618
  679poe    c31 3817   2.126   0.530   0.001  0.3071  0.5813  0.1367
  679poe     o2 3818   2.205   0.501  -0.112 -0.3412  0.2467 -0.2381
  679poe    c23 3819   2.206   0.362  -0.136  0.3731  0.0363  0.9163
  679poe    c23 3820   2.319   0.333  -0.237 -0.7938 -0.0321 -0.3966
  679poe     o2 3821   2.291   0.380  -0.367 -0.3629  0.3346 -0.3601
  679poe    c23 3822   2.344   0.288  -0.460  0.0817  0.3727 -0.1439
  679poe    c23 3823   2.312   0.311  -0.608  0.0925  0.2301 -0.1688
  679poe     o2 3824   2.349   0.446  -0.624 -0.1186  0.3862  0.6164
  679poe    c23 3825   2.354   0.471  -0.763  0.3744  0.4856  0.6518
  679poe    c23 3826   2.398   0.616  -0.791  0.7742  0.1718 -0.3937
  679poe     o2 3827   2.319   0.696  -0.706  0.4537 -0.0971 -0.4316
  679poe    c31 3828   2.348   0.834  -0.714 -0.8086  0.2079  0.0960
  680poe    c31 3829   2.950   3.425   1.615 -1.2427  0.3352 -0.8532
  680poe     o2 3830   3.045   3.445   1.513 -0.0968  0.2472  0.1700
  680poe    c23 3831   2.978   3.496   1.399  0.3911 -0.1154 -0.2859
  680poe    c23 3832   3.092   3.496   1.295  0.5393 -0.7307 -0.1304
  680poe     o2 3833   3.195   3.577   1.347  0.0792 -0.1316 -0.1417
  680poe    c23 3834   3.312   3.579   1.268  0.3132 -0.4779  0.1994
  680poe    c23 3835   3.429   3.606   1.364  0.5731 -0.4888 -0.1129
  680poe     o2 3836   3.396   3.532   1.479 -0.1468 -0.0553 -0.0363
  680poe    c23 3837   3.484   3.563   1.585  0.2953 -0.9243 -0.1486
  680poe    c23 3838   3.438   3.468   1.697 -0.1199  0.1795  0.6328
  680poe     o2 3839   3.298   3.457   1.685 -0.1206  0.3913  0.4376
  680poe    c31 3840   3.243   3.388   1.795 -0.3341 -0.2169 -0.0473
  681poe    c31 3841   1.893   2.606   5.169  1.0052  0.5370  0.3334
  681poe     o2 3842   1.813   2.712   5.214  0.5217  0.1140  0.4783
  681poe    c23 3843   1.880   2.828   5.169  0.1658  0.0558 -0.2275
  681poe    c23 3844   1.861   2.938   5.275 -0.3860  0.0788 -0.3502
  681poe     o2 3845   1.739   3.008   5.266 -0.0658  0.6233 -0.5196
  681poe    c23 3846   1.737   3.123   5.348 -0.4357  0.1763  0.1110
  681poe    c23 3847   1.607   3.195   5.309 -0.5896  0.4302  1.0721
  681poe     o2 3848   1.492   3.115   5.323 -0.1076 -0.4316  0.2445
  681poe    c23 3849   1.381   3.185   5.270  0.0802 -0.1532  0.2134
  681poe    c23 3850   1.260   3.096   5.303  0.0741 -0.0005  0.6047
  681poe     o2 3851   1.296   2.962   5.330 -0.1649 -0.2837 -0.4368
  681poe    c31 3852   1.177   2.904   5.378  0.2409 -0.4752  0.3524
  682poe    c31 3853   2.761   0.941   5.975 -0.5152 -0.2505  0.2631
  682poe     o2 3854   2.877   1.015   6.005 -0.6082 -0.0121  0.0372
  682poe    c23 3855   2.872   1.123   6.096  0.0692 -0.0403  0.1122
  682poe    c23 3856   3.011   1.155   6.154  0.1052 -0.5400  0.3079
  682poe     o2 3857   3.095   1.189   6.047 -0.3175  0.3755  0.2581
  682poe    c23 3858   3.222   1.206   6.106 -0.1296  0.2373 -0.1036
  682poe    c23 3859   3.305   1.279   5.999 -0.6129  0.3550 -0.3979
  682poe     o2 3860   3.288   1.211   5.877  0.1648 -0.3998 -0.0906
  682poe    c23 3861   3.379   1.251   5.777 -0.4846  0.6619 -0.2686
  682poe    c23 3862   3.403   1.118   5.702 -0.5426  0.4372  0.1126
  682poe     o2 3863   3.281   1.048   5.695 -0.5164  0.4087 -0.0556
  682poe    c31 3864   3.298   0.952   5.593 -0.3643  0.0961  0.2579
  683poe    c31 3865   5.888   1.428   6.538  0.2653  0.1754  0.7506
  683poe     o2 3866   5.883   1.294   6.582 -0.1214 -0.1556 -0.2553
  683poe    c23 3867   5.834   1.301   6.714  0.9343 -0.6218  0.1776
  683poe    c23 3868   5.768   1.166   6.748  0.1144 -0.1967  0.3205
  683poe     o2 3869   5.859   1.065   6.708  0.4146  0.0531  0.3691
  683poe    c23 3870   5.823   0.940   6.763 -0.1946  0.1716  0.2413
  683poe    c23 3871   5.925   0.830   6.732 -0.0433  0.3545  0.0905
  683poe     o2 3872   5.947   0.788   6.599 -0.1818 -0.3236  0.2802
  683poe    c23 3873   6.056   0.698   6.602  0.3015  0.2314 -0.4223
  683poe    c23 3874   6.120   0.676   6.464  0.9564 -0.8831  0.0476
  683poe     o2 3875   6.145   0.798   6.398 -0.5352 -0.5384  0.0668
  683poe    c31 3876   6.198   0.780   6.268  0.0582  0.5994  0.1376
  684poe    c31 3877   3.422   1.976   6.220  0.3634  0.0372  0.0720
  684poe     o2 3878   3.458   1.841   6.196 -0.2519 -0.1568  0.2204
  684poe    c23 3879   3.507   1.764   6.304  0.0381 -0.8782 -0.4181
  684poe    c23 3880   3.569   1.637   6.243  0.2668 -0.8469 -0.2496
  684poe     o2 3881   3.678   1.683   6.167  0.3876  0.1555  0.5007
  684poe    c23 3882   3.767   1.574   6.175 -0.1307 -0.3463 -0.3116
  684poe    c23 3883   3.860   1.572   6.052  0.1356 -0.4302 -0.1113
  684poe     o2 3884   3.777   1.580   5.938  0.0942  0.6807 -0.0195
  684poe    c23 3885   3.863   1.554   5.829  0.1986  0.7736  0.0411
  684poe    c23 3886   3.773   1.569   5.705  0.1186 -0.4652 -0.0580
  684poe     o2 3887   3.684   1.460   5.696 -0.1073 -0.2874  0.0083
  684poe    c31 3888   3.741   1.362   5.612 -0.5859  0.1492 -0.8399
  685poe    c31 3889   3.792   2.669   4.985 -0.2398 -0.4022  0.0967
  685poe     o2 3890   3.700   2.615   4.893  0.2179 -0.3367 -0.4033
  685poe    c23 3891   3.694   2.694   4.776 -0.5019  0.4029  0.1248
  685poe    c23 3892   3.556   2.679   4.709 -0.4812  0.6029  0.0375
  685poe     o2 3893   3.518   2.549   4.747 -0.4381  0.6362  0.1978
  685poe    c23 3894   3.388   2.502   4.716 -0.1266 -0.2154  0.1593
  685poe    c23 3895   3.367   2.378   4.805  0.3592 -0.2303  0.2543
  685poe     o2 3896   3.447   2.394   4.921 -0.1805  1.0557  0.4587
  685poe    c23 3897   3.414   2.315   5.032 -0.2802  0.7424  0.2061
  685poe    c23 3898   3.490   2.361   5.157  0.1898  0.3114  0.0846
  685poe     o2 3899   3.626   2.369   5.122  0.2148  0.5378  0.2255
  685poe    c31 3900   3.713   2.368   5.233  0.2627  0.1871  0.1877
  686poe    c31 3901   5.742   2.340   1.696  0.1546  0.2453  0.0307
  686poe     o2 3902   5.736   2.475   1.736 -0.4139  0.1890  0.1375
  686poe    c23 3903   5.852   2.540   1.690 -0.3771 -0.2771 -0.4346
  686poe    c23 3904   5.851   2.694   1.695 -0.1851 -0.2955  0.2371
  686poe     o2 3905   5.842   2.733   1.829 -0.5497 -0.3041  0.2146
  686poe    c23 3906   5.856   2.873   1.818  0.3694 -0.4474 -0.5192
  686poe    c23 3907   5.851   2.919   1.965  0.4268 -0.8268 -0.3973
  686poe     o2 3908   5.721   2.879   2.002  0.3820  0.0439  0.4401
  686poe    c23 3909   5.683   2.932   2.127  0.2058  0.2859  0.2847
  686poe    c23 3910   5.530   2.921   2.134  0.2494 -0.2754  0.4457
  686poe     o2 3911   5.491   2.801   2.072  0.4546 -0.3346  0.4319
  686poe    c31 3912   5.364   2.764   2.122  0.0238  0.4390 -0.0674
  687poe    c31 3913   4.037   1.004   6.560 -0.5277 -0.0071  0.0429
  687poe     o2 3914   4.018   0.872   6.605 -0.0757  0.1662  0.7588
  687poe    c23 3915   3.898   0.823   6.550  0.4080 -0.2717  0.0748
  687poe    c23 3916   3.871   0.688   6.618 -0.1653 -0.5639 -0.7219
  687poe     o2 3917   3.823   0.703   6.750  0.0563 -0.6608 -0.6305
  687poe    c23 3918   3.822   0.576   6.811 -0.4799 -0.3912 -0.0803
  687poe    c23 3919   3.935   0.546   6.911 -0.2675 -0.3416 -0.3062
  687poe     o2 3920   3.961   0.646   7.007  0.2049 -0.6758 -0.0830
  687poe    c23 3921   4.054   0.594   7.100 -0.0058 -0.7265  0.0993
  687poe    c23 3922   4.196   0.566   7.049  0.1642  0.3784 -0.0627
  687poe     o2 3923   4.278   0.681   7.046  0.0876  0.4534  0.6510
  687poe    c31 3924   4.404   0.671   6.983 -0.1768 -0.2191  0.2274
  688poe    c31 3925   4.703   2.454   3.328 -0.4420 -0.0743 -0.5961
  688poe     o2 3926   4.802   2.355   3.321 -0.5424 -0.1527 -0.9498
  688poe    c23 3927   4.921   2.408   3.267 -0.0588 -0.4701 -0.2206
  688poe    c23 3928   5.044   2.325   3.308  0.2326 -0.1067 -0.3545
  688poe     o2 3929   5.033   2.190   3.269  0.1663 -0.2663  0.2155
  688poe    c23 3930   5.159   2.134   3.238  0.4921  0.6037 -0.0620
  688poe    c23 3931   5.134   1.991   3.187 -0.3340  0.5673  0.4354
  688poe     o2 3932   5.044   1.922   3.271 -0.1180  0.0837  0.2778
  688poe    c23 3933   5.019   1.799   3.209 -0.6480  0.4152 -0.1755
  688poe    c23 3934   4.922   1.735   3.310 -0.1297  0.3532  0.2863
  688poe     o2 3935   4.826   1.837   3.334 -0.7469 -0.0669 -0.3559
  688poe    c31 3936   4.702   1.787   3.379 -0.2233 -0.6531  0.4655
  689poe    c31 3937   1.824   3.783   0.253  0.3460  0.1654 -0.0834
  689poe     o2 3938   1.854   3.721   0.375 -0.1471  0.3299  0.1250
  689poe    c23 3939   1.971   3.645   0.354 -0.1651  0.3215  0.0550
  689poe    c23 3940   2.049   3.675   0.484  0.2111  0.0282 -0.1003
  689poe     o2 3941   1.965   3.686   0.596  0.0950 -0.0930 -0.1749
  689poe    c23 3942   2.042   3.736   0.703 -0.4308  0.4194 -0.0313
  689poe    c23 3943   1.979   3.691   0.837 -0.3858 -0.0873 -0.1781
  689poe     o2 3944   1.841   3.718   0.825 -0.2635  0.3460 -0.6680
  689poe    c23 3945   1.796   3.745   0.956  0.4544  0.2979 -0.4050
  689poe    c23 3946   1.651   3.788   0.925  0.3766  0.5752  0.3290
  689poe     o2 3947   1.637   3.921   0.881 -0.1689  0.2899 -0.3758
  689poe    c31 3948   1.503   3.955   0.855 -0.3250  0.2678  0.3583
  690poe    c31 3949   1.227   4.631   4.851  0.2562 -0.3746  0.5019
  690poe     o2 3950   1.225   4.595   4.715  0.0652  0.2603  0.3329
  690poe    c23 3951   1.127   4.494   4.711 -0.2864  0.6165 -0.2109
  690poe    c23 3952   0.988   4.539   4.663 -0.2943  1.1335  0.2908
  690poe     o2 3953   0.986   4.604   4.537  0.0440  0.3383 -0.1280
  690poe    c23 3954   0.861   4.592   4.475  0.1773  0.0112 -0.3383
  690poe    c23 3955   0.860   4.673   4.344 -0.5578 -0.2878 -0.5232
  690poe     o2 3956   0.961   4.770   4.355 -0.3298 -0.5875  0.0509
  690poe    c23 3957   0.935   4.870   4.258 -0.1886  0.1039  0.7185
  690poe    c23 3958   1.017   4.997   4.286 -0.0308  0.1035  0.2654
  690poe     o2 3959   1.153   4.984   4.253 -0.1405 -0.2065 -0.0642
  690poe    c31 3960   1.203   5.115   4.233  0.0468 -0.2314  0.2391
  691poe    c31 3961   3.623   4.385   5.199 -0.1783 -0.4581  0.5034
  691poe     o2 3962   3.758   4.407   5.234  0.0161 -0.4730 -0.2216
  691poe    c23 3963   3.790   4.331   5.348 -0.3518  0.2189  0.3559
  691poe    c23 3964   3.937   4.357   5.387 -0.0732 -0.3935 -0.2403
  691poe     o2 3965   4.017   4.370   5.271  0.0120  0.7878 -0.0700
  691poe    c23 3966   4.151   4.404   5.298  0.2318 -0.5769  0.6923
  691poe    c23 3967   4.225   4.366   5.169 -0.4561  0.4060 -0.0158
  691poe     o2 3968   4.148   4.415   5.062 -0.8066  0.3337  0.2011
  691poe    c23 3969   4.189   4.384   4.931 -0.0734  0.0566  0.4879
  691poe    c23 3970   4.100   4.444   4.821  0.7006 -0.1730 -0.2763
  691poe     o2 3971   4.080   4.584   4.816  0.3855 -0.1768  0.7725
  691poe    c31 3972   4.191   4.664   4.783  0.1637 -0.1771 -0.0005
  692poe    c31 3973   5.266   0.786   0.834 -0.0787  0.5438 -0.2039
  692poe     o2 3974   5.309   0.726   0.954  0.0761  0.1504 -0.4542
  692poe    c23 3975   5.208   0.734   1.051  0.0676 -0.1255 -0.4403
  692poe    c23 3976   5.241   0.670   1.188  0.2927  0.2155 -0.3350
  692poe     o2 3977   5.301   0.548   1.153  0.5297  0.2571 -0.0690
  692poe    c23 3978   5.339   0.483   1.273 -0.3467 -0.4710 -0.1787
  692poe    c23 3979   5.431   0.364   1.239 -0.2064 -0.5890  0.6002
  692poe     o2 3980   5.509   0.386   1.123 -1.0057 -0.1185  0.1438
  692poe    c23 3981   5.634   0.442   1.154 -0.6414 -0.9635  0.2386
  692poe    c23 3982   5.681   0.518   1.029 -0.8294 -1.0039  0.1438
  692poe     o2 3983   5.586   0.610   0.980 -0.2391 -0.7037 -0.4551
  692poe    c31 3984   5.641   0.694   0.881 -0.2089  0.0948  0.2339
  693poe    c31 3985   6.776   0.526   2.654 -0.5323 -0.0647 -0.4018
  693poe     o2 3986   6.786   0.469   2.526  0.4605 -0.5668 -0.1095
  693poe    c23 3987   6.664   0.418   2.477  0.1196  0.6491 -0.5495
  693poe    c23 3988   6.692   0.318   2.364 -0.0708 -0.3088  0.2382
  693poe     o2 3989   6.754   0.392   2.262  0.2714 -0.2308  0.5044
  693poe    c23 3990   6.774   0.318   2.144  0.5131  0.6391 -0.0087
  693poe    c23 3991   6.865   0.412   2.061  0.5871  0.0684 -0.5821
  693poe     o2 3992   6.965   0.460   2.148 -0.0004 -0.3874  0.3691
  693poe    c23 3993   7.071   0.510   2.069 -0.0334 -0.3032  0.3791
  693poe    c23 3994   7.178   0.588   2.147 -0.2434 -0.0244  0.3915
  693poe     o2 3995   7.242   0.507   2.244  0.3118 -0.3194 -0.2162
  693poe    c31 3996   7.340   0.567   2.325  0.3455 -0.3479 -0.2357
  694poe    c31 3997   6.580   3.254   3.652 -0.3465 -0.4276 -0.5065
  694poe     o2 3998   6.674   3.152   3.674 -0.3354 -0.1985  0.5687
  694poe    c23 3999   6.759   3.192   3.778 -0.3047 -0.0600  0.4906
  694poe    c23 4000   6.883   3.101   3.766 -0.4886 -0.2325 -0.1316
  694poe     o2 4001   6.825   2.974   3.746 -0.0382 -0.3854 -0.4552
  694poe    c23 4002   6.919   2.874   3.711  0.4289 -0.0015 -0.3072
  694poe    c23 4003   6.833   2.749   3.684  0.0808  0.1891 -0.0995
  694poe     o2 4004   6.757   2.801   3.577  0.2498 -0.0216 -0.3245
  694poe    c23 4005   6.640   2.730   3.542 -0.2009  0.3486  0.4060
  694poe    c23 4006   6.588   2.805   3.418  0.4062  0.3590  0.1511
  694poe     o2 4007   6.535   2.918   3.486  0.0065  0.1756  0.1458
  694poe    c31 4008   6.453   2.986   3.394 -0.0988 -0.2046 -0.0450
  695poe    c31 4009   5.232   4.913   2.314  0.0211 -0.0827  0.4262
  695poe     o2 4010   5.332   4.845   2.386 -0.0118  0.2336  0.7702
  695poe    c23 4011   5.284   4.758   2.487 -0.3777  0.0922  0.4768
  695poe    c23 4012   5.395   4.758   2.594  0.0453  0.0991  0.0416
  695poe     o2 4013   5.518   4.750   2.525  0.0660  0.5253  0.0282
  695poe    c23 4014   5.625   4.746   2.617 -0.2348  0.2393  0.3697
  695poe    c23 4015   5.754   4.719   2.538 -0.8279  0.1225 -0.5836
  695poe     o2 4016   5.757   4.815   2.435  0.2822  0.4983 -0.2203
  695poe    c23 4017   5.861   4.803   2.341  0.1971 -0.1795 -0.2296
  695poe    c23 4018   5.810   4.834   2.199 -0.0429 -0.6515 -0.2490
  695poe     o2 4019   5.890   4.777   2.098  0.1503 -0.6250 -0.1116
  695poe    c31 4020   5.864   4.843   1.976  0.1017  0.2265  0.3493
  696poe    c31 4021   5.614   6.624   2.315 -0.2819  0.4626 -0.0331
  696poe     o2 4022   5.612   6.633   2.455  0.4626 -0.1399  0.0238
  696poe    c23 4023   5.607   6.757   2.523  0.1451 -0.2489  0.2013
  696poe    c23 4024   5.598   6.742   2.676  0.3178 -0.4265  0.1945
  696poe     o2 4025   5.499   6.655   2.727 -0.4225  0.1250 -0.2856
  696poe    c23 4026   5.377   6.723   2.746 -0.2530  0.3569 -0.0291
  696poe    c23 4027   5.305   6.679   2.875 -0.2074  0.1246 -0.0827
  696poe     o2 4028   5.312   6.539   2.892 -0.4527  0.0262 -0.7594
  696poe    c23 4029   5.232   6.500   3.002 -0.0412  0.6708 -0.2215
  696poe    c23 4030   5.276   6.361   3.053 -1.0109  0.2341 -0.5493
  696poe     o2 4031   5.306   6.282   2.940 -0.3567 -0.2465 -0.0453
  696poe    c31 4032   5.327   6.146   2.970 -0.5953 -0.3695 -0.4224
  697poe    c31 4033   2.081   3.611   1.769  0.1159  0.1531 -0.0107
  697poe     o2 4034   2.162   3.640   1.881  0.2461  0.8817 -0.2887
  697poe    c23 4035   2.070   3.625   1.987  0.4157 -0.0094 -0.2652
  697poe    c23 4036   2.119   3.701   2.111 -0.6079  0.7101 -0.2896
  697poe     o2 4037   2.252   3.659   2.136 -1.0417 -0.6026 -0.0632
  697poe    c23 4038   2.264   3.646   2.276 -0.2204 -0.1860 -0.0864
  697poe    c23 4039   2.412   3.610   2.300  0.0478  0.4815 -0.7281
  697poe     o2 4040   2.469   3.720   2.232  0.4389  1.0835  0.5410
  697poe    c23 4041   2.610   3.716   2.229  0.4160 -0.1921  0.7228
  697poe    c23 4042   2.659   3.848   2.168 -0.2620 -0.1829  0.1903
  697poe     o2 4043   2.585   3.840   2.048  0.0081 -0.0087  0.0120
  697poe    c31 4044   2.633   3.932   1.953 -0.8149 -0.2381 -0.6352
  698poe    c31 4045   1.223   0.489   5.538 -0.4259 -0.2755  0.2616
  698poe     o2 4046   1.246   0.417   5.419  0.1741 -0.4206  0.4634
  698poe    c23 4047   1.127   0.350   5.387  0.4865 -0.7211 -0.0966
  698poe    c23 4048   1.132   0.273   5.254 -0.5897 -0.6876 -0.1724
  698poe     o2 4049   1.173   0.372   5.163  0.0985 -0.3485  0.4975
  698poe    c23 4050   1.152   0.330   5.030  0.4820 -0.0736  0.3492
  698poe    c23 4051   1.172   0.460   4.950 -0.1096 -0.2746 -0.1304
  698poe     o2 4052   1.270   0.530   5.023 -0.5975  0.1411  0.1335
  698poe    c23 4053   1.289   0.662   4.979  0.7351 -0.1957 -0.3614
  698poe    c23 4054   1.401   0.706   5.075  0.2969  0.2127 -0.0306
  698poe     o2 4055   1.496   0.602   5.087 -0.0884 -0.0945  0.3896
  698poe    c31 4056   1.620   0.662   5.115 -0.2257  0.5212 -0.2761
  699poe    c31 4057   1.616   4.416   2.921  0.5629 -0.0227 -0.0045
  699poe     o2 4058   1.722   4.488   2.862  0.3184  0.4663  0.1495
  699poe    c23 4059   1.671   4.618   2.841  0.7803  0.6584  0.2038
  699poe    c23 4060   1.794   4.708   2.818  0.6647  0.7121 -0.2191
  699poe     o2 4061   1.887   4.629   2.747  0.0309 -0.3453  0.1025
  699poe    c23 4062   1.981   4.718   2.691 -0.2650  0.1295  0.3533
  699poe    c23 4063   2.084   4.623   2.627 -0.6166 -0.0884  0.1102
  699poe     o2 4064   2.119   4.526   2.723  0.1862  0.0548 -0.0352
  699poe    c23 4065   2.143   4.402   2.660 -0.0912 -0.0381  0.0427
  699poe    c23 4066   2.113   4.290   2.761 -0.0020  0.3443  0.5004
  699poe     o2 4067   1.983   4.294   2.816 -0.0881  0.6206  0.2799
  699poe    c31 4068   1.972   4.189   2.910  0.3899  0.3645  0.0522
  700poe    c31 4069   6.789   1.124   6.435  0.2826  0.4448  0.3833
  700poe     o2 4070   6.747   1.256   6.405 -0.4139  0.1741  0.1546
  700poe    c23 4071   6.655   1.270   6.299 -0.5731 -0.0726  0.2587
  700poe    c23 4072   6.684   1.402   6.226 -0.3153 -0.7030 -0.8036
  700poe     o2 4073   6.820   1.438   6.238 -0.4526 -0.1515 -0.8611
  700poe    c23 4074   6.835   1.573   6.203  0.0103 -0.0618 -0.3384
  700poe    c23 4075   6.916   1.645   6.312  0.4271 -0.5608 -0.3144
  700poe     o2 4076   6.852   1.607   6.432  0.5145 -0.4573 -0.2347
  700poe    c23 4077   6.905   1.653   6.554  0.1233 -0.3414 -0.1078
  700poe    c23 4078   6.855   1.554   6.662 -0.6251 -0.0766 -0.2074
  700poe     o2 4079   6.844   1.422   6.615  0.1866 -0.2699  0.1321
  700poe    c31 4080   6.849   1.334   6.725  0.3830 -0.4906 -0.0522
  701poe    c31 4081   0.000   0.490   4.619 -0.2106  0.2378  0.0448
  701poe     o2 4082   0.051   0.513   4.489 -0.0702 -0.3350 -0.0053
  701poe    c23 4083   0.076   0.651   4.481  0.1703 -0.3847 -0.0982
  701poe    c23 4084   0.089   0.706   4.338 -0.0418  0.8799  0.3493
  701poe     o2 4085   0.206   0.660   4.275 -0.1038  0.3158  0.6374
  701poe    c23 4086   0.199   0.654   4.134  0.3340  0.4149  0.6089
  701poe    c23 4087   0.323   0.601   4.060  0.0231 -0.1593  0.4941
  701poe     o2 4088   0.425   0.680   4.117 -0.0197 -0.4333  0.9544
  701poe    c23 4089   0.543   0.648   4.047  0.0700  0.9121  0.4665
  701poe    c23 4090   0.669   0.735   4.069  0.3061  0.7898 -0.3547
  701poe     o2 4091   0.721   0.755   4.199 -0.5160  0.6389  0.0102
  701poe    c31 4092   0.838   0.834   4.202  0.2650 -0.4947  0.4954
  702poe    c31 4093   0.801   2.637   4.805  0.4140 -0.4248 -0.0804
  702poe     o2 4094   0.712   2.721   4.735  0.5099 -0.3980 -0.1703
  702poe    c23 4095   0.642   2.656   4.631 -0.3137  0.9156 -0.4611
  702poe    c23 4096   0.590   2.755   4.525 -0.5799  0.5228 -0.7011
  702poe     o2 4097   0.538   2.862   4.600  0.1551  0.3194  0.1185
  702poe    c23 4098   0.485   2.972   4.529  0.1329 -0.1459 -0.5888
  702poe    c23 4099   0.447   3.070   4.641  0.0141 -0.6003 -0.2261
  702poe     o2 4100   0.538   3.052   4.747  0.0683  0.3917 -0.0895
  702poe    c23 4101   0.495   3.082   4.878  0.2320 -0.2653  0.1218
  702poe    c23 4102   0.615   3.049   4.969  0.5430  0.5063  0.0046
  702poe     o2 4103   0.654   2.918   4.932  0.0077  0.3390  0.0144
  702poe    c31 4104   0.759   2.886   5.021  0.0781  0.3367 -0.0691
  703poe    c31 4105   3.578   4.619   1.791 -0.2641 -0.4131 -0.0896
  703poe     o2 4106   3.572   4.553   1.666 -0.3148 -0.3163 -0.1383
  703poe    c23 4107   3.688   4.551   1.587 -0.5022 -0.4124 -0.4120
  703poe    c23 4108   3.685   4.435   1.486  0.2797 -0.3794 -0.4827
  703poe     o2 4109   3.557   4.450   1.430  0.5450  0.4010 -0.8881
  703poe    c23 4110   3.535   4.338   1.347 -0.4930  0.2099 -0.3684
  703poe    c23 4111   3.479   4.230   1.441 -0.1002  0.1143 -0.2447
  703poe     o2 4112   3.401   4.290   1.542 -0.3325 -0.5823 -0.0011
  703poe    c23 4113   3.393   4.218   1.663  0.4254 -0.1163  0.3338
  703poe    c23 4114   3.311   4.308   1.757 -0.0035  0.2366 -0.3663
  703poe     o2 4115   3.314   4.444   1.722 -0.1684  0.2964 -0.1553
  703poe    c31 4116   3.225   4.521   1.799 -0.1692  0.0987  0.0393
  704poe    c31 4117   3.988   6.396   6.407  0.5431  0.5889 -0.4314
  704poe     o2 4118   3.913   6.402   6.288 -0.5369 -0.0836  0.1969
  704poe    c23 4119   3.842   6.524   6.284 -0.6220 -0.1481 -0.3538
  704poe    c23 4120   3.794   6.563   6.143  0.1698 -0.1747 -0.6330
  704poe     o2 4121   3.694   6.480   6.090 -0.5516 -0.0283  0.4784
  704poe    c23 4122   3.629   6.540   5.980  0.0339 -0.1767  0.0485
  704poe    c23 4123   3.503   6.459   5.944 -0.1949  0.4688 -0.6173
  704poe     o2 4124   3.537   6.324   5.922 -0.2117  0.3865 -0.1350
  704poe    c23 4125   3.468   6.264   5.815  0.4690 -0.0004 -0.3639
  704poe    c23 4126   3.569   6.162   5.761 -0.0876 -0.4586 -0.5464
  704poe     o2 4127   3.627   6.104   5.875 -0.4118 -0.5560 -0.4307
  704poe    c31 4128   3.747   6.042   5.835 -0.2572 -0.4877 -0.0768
  705poe    c31 4129   3.059   0.904   2.762  0.8775  0.2688  0.5245
  705poe     o2 4130   2.955   0.858   2.846  0.4984 -0.2225 -0.1908
  705poe    c23 4131   2.936   0.947   2.954 -0.1027 -0.4018 -0.1506
  705poe    c23 4132   2.883   0.883   3.084 -0.1651  0.2713  0.1596
  705poe     o2 4133   2.746   0.854   3.068 -0.1358  0.0169  0.3585
  705poe    c23 4134   2.695   0.786   3.181  0.1021 -0.7701 -0.0049
  705poe    c23 4135   2.560   0.721   3.145 -0.1405  0.1413 -0.7904
  705poe     o2 4136   2.469   0.824   3.115 -0.1933  0.4239  0.2957
  705poe    c23 4137   2.341   0.771   3.088  0.2620 -0.8419  0.5857
  705poe    c23 4138   2.233   0.873   3.128  0.9238 -0.0333  0.3354
  705poe     o2 4139   2.268   0.985   3.050  0.2021 -0.2067 -0.2450
  705poe    c31 4140   2.173   1.088   3.069 -0.3116 -0.6899 -0.1675
  706poe    c31 4141   4.636   3.620   3.933 -0.2142 -0.2934 -0.2292
  706poe     o2 4142   4.540   3.573   3.841 -0.0375 -0.0778 -0.5238
  706poe    c23 4143   4.423   3.533   3.909 -0.0977  0.5900 -0.2225
  706poe    c23 4144   4.332   3.464   3.806 -0.0298 -0.0446  0.1356
  706poe     o2 4145   4.319   3.324   3.812  0.5358 -0.1568 -0.9731
  706poe    c23 4146   4.193   3.283   3.762  0.1633 -0.3638  0.0969
  706poe    c23 4147   4.173   3.142   3.821  0.2672 -0.3484  0.1698
  706poe     o2 4148   4.290   3.068   3.793  0.6186  0.2671 -0.0180
  706poe    c23 4149   4.261   2.932   3.819  0.0652  0.4892  0.5587
  706poe    c23 4150   4.371   2.849   3.749  0.0871  0.3342  0.7762
  706poe     o2 4151   4.490   2.911   3.793  0.1863  0.0016  0.9817
  706poe    c31 4152   4.597   2.889   3.705 -0.6012  0.6050 -0.1610
  707poe    c31 4153   4.901   2.981   5.379  0.6579  0.1903  0.1180
  707poe     o2 4154   4.886   3.086   5.286 -0.0210 -0.1472 -0.1609
  707poe    c23 4155   5.000   3.110   5.206 -0.0358  0.4531 -0.0064
  707poe    c23 4156   5.000   3.008   5.091 -0.0948  0.1950  0.2220
  707poe     o2 4157   4.893   3.010   5.000  0.3838  1.0662 -0.3246
  707poe    c23 4158   4.946   3.018   4.869  0.6469 -0.1318 -0.3021
  707poe    c23 4159   4.846   2.971   4.762 -0.0803  1.1529 -0.2151
  707poe     o2 4160   4.720   3.004   4.815 -0.5496 -0.5131 -0.2530
  707poe    c23 4161   4.616   3.009   4.720 -0.3449  0.7544 -0.4174
  707poe    c23 4162   4.506   2.930   4.792 -0.1310  0.4088 -0.4703
  707poe     o2 4163   4.500   2.969   4.928 -0.0128  0.2060 -0.4065
  707poe    c31 4164   4.376   2.948   4.991 -0.1107 -0.5082 -0.8165
  708poe    c31 4165   5.321   3.644   5.529  0.2851  0.4360  0.3729
  708poe     o2 4166   5.306   3.772   5.586 -0.1446  0.4652  0.1944
  708poe    c23 4167   5.388   3.798   5.697 -0.1627 -0.0473  0.3297
  708poe    c23 4168   5.373   3.931   5.773 -0.5742 -0.0355  0.2307
  708poe     o2 4169   5.427   4.047   5.714 -0.3063  0.0580  0.6552
  708poe    c23 4170   5.562   4.067   5.749 -0.1487  0.0242  0.0659
  708poe    c23 4171   5.605   4.213   5.728 -0.8581  0.2085 -0.1180
  708poe     o2 4172   5.580   4.240   5.591  0.5179  0.2210 -0.3803
  708poe    c23 4173   5.542   4.375   5.581 -0.6072 -0.0399  0.1949
  708poe    c23 4174   5.476   4.390   5.443  0.0728  0.1069 -0.1177
  708poe     o2 4175   5.370   4.297   5.455 -0.3198  0.5925  0.2365
  708poe    c31 4176   5.303   4.303   5.331  0.1160  0.4163 -0.0132
  709poe    c31 4177   3.317   2.421   0.577 -0.0366 -0.0664  0.0586
  709poe     o2 4178   3.436   2.494   0.595 -0.1950  0.2975 -0.3752
  709poe    c23 4179   3.391   2.624   0.627  0.1903  0.1821  0.6809
  709poe    c23 4180   3.508   2.725   0.622  0.1532  0.1902 -0.3130
  709poe     o2 4181   3.625   2.682   0.689  0.0720 -0.2930 -0.4741
  709poe    c23 4182   3.753   2.703   0.634 -0.0713  0.7478 -0.4433
  709poe    c23 4183   3.787   2.596   0.528 -0.0424 -0.1277  0.4306
  709poe     o2 4184   3.737   2.476   0.581  0.4278 -0.2815  0.5346
  709poe    c23 4185   3.780   2.370   0.499 -0.5265 -0.2215 -0.0655
  709poe    c23 4186   3.728   2.238   0.559 -0.0295 -0.1926  0.4378
  709poe     o2 4187   3.589   2.250   0.576 -0.1685  0.0011 -0.7488
  709poe    c31 4188   3.531   2.122   0.570  0.2438 -0.2106 -0.2792
  710poe    c31 4189   1.955   1.123   5.914  0.2123 -0.2751  0.1614
  710poe     o2 4190   2.031   1.101   5.797  0.0778  0.4011 -0.0568
  710poe    c23 4191   2.033   1.220   5.722 -0.5117  0.3082 -0.2288
  710poe    c23 4192   2.083   1.196   5.578  0.2739 -0.1893  0.1178
  710poe     o2 4193   2.194   1.109   5.582  0.3687 -0.0584  0.4013
  710poe    c23 4194   2.236   1.053   5.459 -0.1629  0.5788 -0.0792
  710poe    c23 4195   2.350   0.967   5.516 -0.5859 -0.1092 -0.2581
  710poe     o2 4196   2.300   0.891   5.624 -0.0158  0.1967  0.2301
  710poe    c23 4197   2.266   0.757   5.596 -0.3293  0.2908  0.1577
  710poe    c23 4198   2.189   0.719   5.724  0.5209  0.0974  0.6148
  710poe     o2 4199   2.102   0.820   5.770 -0.3662 -0.1193 -0.5520
  710poe    c31 4200   2.024   0.750   5.864  0.5122 -0.0624  0.2407
  711poe    c31 4201   2.520   1.908   2.540 -0.2602 -0.0667  0.5302
  711poe     o2 4202   2.626   1.883   2.629  0.1955 -0.1464 -0.0322
  711poe    c23 4203   2.600   1.951   2.749 -0.2346 -0.3713  0.0026
  711poe    c23 4204   2.717   1.912   2.840 -0.3560 -0.4543  0.1239
  711poe     o2 4205   2.831   1.927   2.758 -0.1442  0.0607  0.5113
  711poe    c23 4206   2.949   1.944   2.834 -0.1327 -0.0187  0.5106
  711poe    c23 4207   3.075   1.957   2.746 -0.7047 -0.0874 -0.3342
  711poe     o2 4208   3.087   1.850   2.656 -0.0713 -0.5255  0.2652
  711poe    c23 4209   3.163   1.745   2.712  0.1279 -0.3141  0.3903
  711poe    c23 4210   3.228   1.674   2.592  0.2121  0.5948 -0.1086
  711poe     o2 4211   3.134   1.592   2.525  0.2606  0.2532  0.2395
  711poe    c31 4212   3.069   1.662   2.421  0.5242  0.4513  0.2055
  712poe    c31 4213   5.418   2.783   1.134  0.0676 -0.0616  0.1497
  712poe     o2 4214   5.467   2.776   1.003 -0.4947  0.4595 -0.0916
  712poe    c23 4215   5.364   2.769   0.906 -0.1673  0.2242 -0.4256
  712poe    c23 4216   5.427   2.792   0.767 -0.2286 -0.1719 -0.5204
  712poe     o2 4217   5.510   2.680   0.752 -0.2030 -0.1940 -0.2149
  712poe    c23 4218   5.598   2.705   0.645 -0.3076  0.2350 -0.1984
  712poe    c23 4219   5.710   2.608   0.685 -0.5078  0.3104  0.5601
  712poe     o2 4220   5.744   2.645   0.817 -0.4812  0.5689  0.4796
  712poe    c23 4221   5.822   2.548   0.883 -0.0242  0.2440 -0.5072
  712poe    c23 4222   5.855   2.614   1.019  0.2476  0.2738 -0.5875
  712poe     o2 4223   5.738   2.668   1.076  0.2713 -0.1855 -0.0959
  712poe    c31 4224   5.774   2.710   1.205  0.5563  0.3160 -0.3335
  713poe    c31 4225   0.534   3.990   3.497  0.1130 -0.1617 -0.7018
  713poe     o2 4226   0.556   4.129   3.486 -0.3554 -0.0192  0.0653
  713poe    c23 4227   0.534   4.165   3.352 -0.2877 -0.3734 -0.0437
  713poe    c23 4228   0.587   4.308   3.330 -0.9568 -0.1370 -0.1410
  713poe     o2 4229   0.543   4.412   3.415  0.4185 -0.2033  0.6750
  713poe    c23 4230   0.407   4.441   3.437  0.4139  0.3311 -0.0452
  713poe    c23 4231   0.366   4.449   3.585 -0.7689 -0.5297 -0.3165
  713poe     o2 4232   0.411   4.334   3.653  0.2535 -0.0603 -0.1886
  713poe    c23 4233   0.343   4.294   3.770  0.0235  0.1793 -0.2401
  713poe    c23 4234   0.440   4.224   3.867 -0.2281  0.3760  0.1557
  713poe     o2 4235   0.526   4.141   3.791  0.3416  0.6022  0.5414
  713poe    c31 4236   0.586   4.048   3.878  0.7092 -0.2442 -0.5983
  714poe    c31 4237   1.933   1.385   0.057  0.0723  0.0453  0.2484
  714poe     o2 4238   1.812   1.382   0.128 -0.1405  0.4564 -0.0960
  714poe    c23 4239   1.777   1.519   0.135 -0.0377  0.4807 -0.0639
  714poe    c23 4240   1.649   1.502   0.219 -0.1945  0.2612 -0.3495
  714poe     o2 4241   1.578   1.383   0.189  0.2337 -0.1632  0.2907
  714poe    c23 4242   1.448   1.357   0.237  0.0642  0.4673  0.1932
  714poe    c23 4243   1.477   1.226   0.313 -0.6995  0.2455  0.1151
  714poe     o2 4244   1.568   1.149   0.237 -0.5865  0.1600  0.3385
  714poe    c23 4245   1.625   1.042   0.310  0.5200  0.2749 -0.3388
  714poe    c23 4246   1.747   1.003   0.224  0.2857 -0.5971 -0.2817
  714poe     o2 4247   1.828   1.111   0.183 -0.1244 -0.0747  0.2557
  714poe    c31 4248   1.917   1.057   0.087 -1.0687 -1.0256 -0.1145
  715poe    c31 4249   2.032   3.292   1.879  1.4595  0.4654 -0.5264
  715poe     o2 4250   2.005   3.181   1.796  0.1523 -0.0348  0.5262
  715poe    c23 4251   2.090   3.075   1.832  0.2047  0.0098  0.5354
  715poe    c23 4252   2.058   2.949   1.749  0.1089 -0.0436  0.6539
  715poe     o2 4253   1.930   2.891   1.763 -0.1032  0.2509 -0.0279
  715poe    c23 4254   1.920   2.760   1.711 -0.5804  0.2284  0.1141
  715poe    c23 4255   1.775   2.716   1.735 -0.3631 -0.5103  0.0927
  715poe     o2 4256   1.692   2.822   1.692  0.2392 -0.1042 -0.0788
  715poe    c23 4257   1.558   2.799   1.658  0.1332  0.4514 -0.0503
  715poe    c23 4258   1.469   2.924   1.645 -0.3749  0.1094  0.0822
  715poe     o2 4259   1.518   3.017   1.551  0.6079 -0.0690  0.4041
  715poe    c31 4260   1.443   3.134   1.578 -0.4536 -0.5152 -0.5203
  716poe    c31 4261   2.947   2.813   3.066  0.3233 -0.4554 -0.0055
  716poe     o2 4262   2.939   2.729   3.179 -0.0679 -0.3988  0.0105
  716poe    c23 4263   2.855   2.616   3.169 -0.2358 -0.2540 -0.2280
  716poe    c23 4264   2.780   2.581   3.299 -0.4726  0.0163 -0.2912
  716poe     o2 4265   2.872   2.527   3.391 -0.9592 -0.6215 -0.1767
  716poe    c23 4266   2.818   2.495   3.517 -0.2946 -0.4714  0.1469
  716poe    c23 4267   2.923   2.473   3.627  0.5100 -0.1754 -0.5513
  716poe     o2 4268   3.009   2.583   3.646  0.5797 -0.2390 -0.4960
  716poe    c23 4269   3.100   2.555   3.751 -0.3493 -0.2255  0.3243
  716poe    c23 4270   3.162   2.693   3.778  0.0814 -0.2899 -0.3153
  716poe     o2 4271   3.181   2.754   3.653 -0.3523  0.8290  0.1574
  716poe    c31 4272   3.310   2.805   3.628 -0.4690  0.4493 -1.2934
  717poe    c31 4273   0.935   0.210   2.976 -0.3438  0.0612  0.2320
  717poe     o2 4274   0.941   0.329   3.051  0.4251  0.0341  0.2279
  717poe    c23 4275   0.952   0.287   3.185  0.2984 -0.1220  0.1894
  717poe    c23 4276   0.905   0.406   3.272  0.7050 -0.0963  0.3743
  717poe     o2 4277   0.968   0.524   3.227  0.3637  0.0352  0.2431
  717poe    c23 4278   0.908   0.645   3.266  0.5006  0.1452  0.1120
  717poe    c23 4279   0.994   0.759   3.208  0.3610  0.0612 -0.2576
  717poe     o2 4280   1.017   0.729   3.072 -0.3658 -0.1983 -0.3271
  717poe    c23 4281   1.155   0.733   3.042 -0.1442 -0.1871  0.6661
  717poe    c23 4282   1.183   0.633   2.928 -0.4056  0.2348  0.2306
  717poe     o2 4283   1.114   0.512   2.947 -0.3837  0.1729 -0.0712
  717poe    c31 4284   1.181   0.410   2.877  0.1329  0.5776 -0.1790
  718poe    c31 4285   5.076   0.614   2.053  0.3601 -0.1914 -0.0062
  718poe     o2 4286   5.124   0.537   1.945 -0.0270 -0.3676 -0.0569
  718poe    c23 4287   5.241   0.594   1.889  0.0569 -0.1733  0.3092
  718poe    c23 4288   5.317   0.482   1.815  0.1551  0.3678 -0.4193
  718poe     o2 4289   5.213   0.420   1.744 -0.0099 -0.1757  0.2859
  718poe    c23 4290   5.255   0.292   1.703  0.4008  0.0539 -0.0159
  718poe    c23 4291   5.168   0.222   1.597  0.4385  0.4255 -0.2922
  718poe     o2 4292   5.031   0.231   1.628  0.5482  0.2269  0.2523
  718poe    c23 4293   4.949   0.184   1.524  0.4230 -0.2152  0.5493
  718poe    c23 4294   4.797   0.201   1.547  0.1956 -0.7797 -0.4859
  718poe     o2 4295   4.736   0.120   1.645 -0.8341  0.0389 -0.4348
  718poe    c31 4296   4.781   0.151   1.775  0.2139 -0.6543 -0.6187
  719poe    c31 4297   4.445   6.658   5.787  0.7298 -0.0127 -0.3592
  719poe     o2 4298   4.521   6.596   5.889  0.2806 -0.0340 -0.0349
  719poe    c23 4299   4.544   6.682   5.999 -0.6655 -0.1398  0.2518
  719poe    c23 4300   4.541   6.606   6.132  0.2491  0.1552  0.4464
  719poe     o2 4301   4.627   6.499   6.099  0.1997  0.3091 -0.1811
  719poe    c23 4302   4.675   6.436   6.215 -0.2444 -0.1841 -0.2571
  719poe    c23 4303   4.742   6.302   6.181  0.2017 -0.1219  0.3595
  719poe     o2 4304   4.672   6.223   6.088  0.2657  0.1734  0.0631
  719poe    c23 4305   4.717   6.090   6.082 -0.3883 -0.0541  0.1023
  719poe    c23 4306   4.651   6.012   5.966  0.7847 -0.4062 -0.3470
  719poe     o2 4307   4.695   6.041   5.836 -0.3357  0.1276 -0.6163
  719poe    c31 4308   4.814   5.980   5.790  0.1226 -0.0234  0.7534
  720poe    c31 4309   6.326   3.168   0.952 -0.3406  0.4879 -0.1558
  720poe     o2 4310   6.283   3.169   0.817 -0.1742 -0.2456 -0.2187
  720poe    c23 4311   6.198   3.281   0.803 -0.4188 -0.3413  0.4690
  720poe    c23 4312   6.174   3.307   0.654  0.1687 -0.0468  0.4209
  720poe     o2 4313   6.158   3.177   0.603 -0.3149  0.1230  0.1318
  720poe    c23 4314   6.122   3.160   0.468 -0.6625 -0.0776  0.2462
  720poe    c23 4315   6.091   3.010   0.454 -0.3143 -0.1196 -0.1017
  720poe     o2 4316   6.180   2.931   0.529 -0.4453  0.4061  0.6180
  720poe    c23 4317   6.139   2.798   0.554 -0.8862  0.4004 -0.1006
  720poe    c23 4318   6.246   2.746   0.651  0.0353  0.4839 -1.0629
  720poe     o2 4319   6.260   2.845   0.751  0.6115 -0.4936 -0.1462
  720poe    c31 4320   6.291   2.804   0.882 -0.3321 -0.3212  0.1385
  721poe    c31 4321   3.946   0.259   2.144 -0.3159  0.0012  1.0157
  721poe     o2 4322   3.929   0.163   2.245 -0.2771  0.0039  1.0250
  721poe    c23 4323   3.939   0.038   2.180  0.1749  0.4987  0.1202
  721poe    c23 4324   3.871  -0.062   2.276 -0.0079  0.3831 -0.1287
  721poe     o2 4325   3.922  -0.033   2.405  0.4094 -0.4778 -0.0953
  721poe    c23 4326   3.915  -0.138   2.498 -0.2300 -0.5515 -0.2193
  721poe    c23 4327   3.977  -0.065   2.618  0.2095 -0.1396 -0.6949
  721poe     o2 4328   3.940   0.071   2.618  0.2482 -0.1287  0.1478
  721poe    c23 4329   3.809   0.099   2.661  0.2720  0.2724 -0.0301
  721poe    c23 4330   3.771   0.231   2.593 -0.4594  0.0133 -0.1440
  721poe     o2 4331   3.776   0.221   2.452  0.0079 -0.1223 -0.1219
  721poe    c31 4332   3.653   0.269   2.403  0.1107  0.1179 -0.1481
  722poe    c31 4333   3.151   1.151   0.741 -0.0720 -0.8772  0.0731
  722poe     o2 4334   3.041   1.207   0.809 -0.0566 -0.4269 -0.2685
  722poe    c23 4335   3.041   1.163   0.943 -0.2538  0.0971 -0.0909
  722poe    c23 4336   2.920   1.230   1.010 -0.1919 -0.1737  0.2943
  722poe     o2 4337   2.808   1.198   0.931  0.0016 -0.5345  0.1639
  722poe    c23 4338   2.684   1.227   0.991  0.1187  0.8590 -0.2316
  722poe    c23 4339   2.552   1.196   0.918  0.0113  0.2615  0.2087
  722poe     o2 4340   2.527   1.294   0.819  0.3778 -0.1388 -0.2875
  722poe    c23 4341   2.415   1.265   0.738  0.2334 -0.2081 -0.0631
  722poe    c23 4342   2.390   1.377   0.635 -0.2019  0.0042  0.2656
  722poe     o2 4343   2.368   1.497   0.705  0.0252  0.3110 -0.1824
  722poe    c31 4344   2.360   1.597   0.606 -0.3111  0.0739 -0.3951
  723poe    c31 4345   4.370   3.672   3.522  0.0938 -0.1424 -0.1853
  723poe     o2 4346   4.478   3.724   3.596 -0.0951  0.5951 -0.4178
  723poe    c23 4347   4.483   3.865   3.592  0.2570  0.6026  0.1990
  723poe    c23 4348   4.633   3.896   3.609  0.3928 -0.0399  0.1931
  723poe     o2 4349   4.723   3.814   3.537  0.1715  0.2652 -0.4462
  723poe    c23 4350   4.860   3.818   3.567  0.0192 -0.3592  0.3869
  723poe    c23 4351   4.933   3.734   3.460 -0.6100 -0.2391 -0.1419
  723poe     o2 4352   4.871   3.608   3.456 -0.1776 -0.4413 -0.5917
  723poe    c23 4353   4.941   3.507   3.387  0.2118 -0.4506 -0.1890
  723poe    c23 4354   4.845   3.390   3.361 -0.0217 -0.2581 -0.1955
  723poe     o2 4355   4.752   3.407   3.256 -0.0563 -0.4390 -0.1940
  723poe    c31 4356   4.659   3.301   3.270  0.2783 -0.7458 -0.2623
  724poe    c31 4357   0.504   1.932   0.907  0.7129  0.3154 -0.2418
  724poe     o2 4358   0.611   1.853   0.859  0.1768 -0.7843  0.3129
  724poe    c23 4359   0.648   1.880   0.726 -0.1748 -0.0585  0.3543
  724poe    c23 4360   0.750   1.775   0.678 -0.1604  0.1409 -0.0548
  724poe     o2 4361   0.858   1.756   0.766 -0.7016 -0.2008  0.5402
  724poe    c23 4362   0.924   1.633   0.747 -0.7434 -0.1638  0.1582
  724poe    c23 4363   1.066   1.650   0.803 -0.4313  0.5227 -0.8012
  724poe     o2 4364   1.047   1.725   0.921 -0.3218 -0.1315 -0.3619
  724poe    c23 4365   1.176   1.771   0.957 -0.3795 -0.3354  0.1067
  724poe    c23 4366   1.178   1.824   1.102  0.7237 -0.7241  0.2442
  724poe     o2 4367   1.148   1.711   1.181  0.1461 -0.4476  0.4238
  724poe    c31 4368   1.164   1.757   1.313 -0.0478  0.0200  0.2860
  725poe    c31 4369   4.099   5.632   2.961 -0.1219  0.3129 -0.0599
  725poe     o2 4370   4.100   5.773   2.959 -0.1534  0.3125 -0.1018
  725poe    c23 4371   4.149   5.798   2.829 -0.4604 -0.2581 -0.3297
  725poe    c23 4372   4.155   5.949   2.799  0.1139 -0.2392 -0.1502
  725poe     o2 4373   4.244   6.004   2.893  0.2394  0.1903 -0.5207
  725poe    c23 4374   4.226   6.143   2.908  0.2713  0.1398  0.0119
  725poe    c23 4375   4.352   6.193   2.981  0.5249 -0.9618  0.3420
  725poe     o2 4376   4.351   6.128   3.106  0.0453 -0.6174  0.5183
  725poe    c23 4377   4.445   6.190   3.191  0.1230  0.1278 -0.0986
  725poe    c23 4378   4.433   6.101   3.316  0.1714 -0.1820 -0.3157
  725poe     o2 4379   4.432   5.963   3.284  0.1074 -0.2868  0.1316
  725poe    c31 4380   4.469   5.866   3.379 -0.2731 -0.3186  0.2490
  726poe    c31 4381   4.770   5.147   0.065 -0.4021 -0.8458 -0.3858
  726poe     o2 4382   4.640   5.094   0.055 -1.0363  0.5441  0.2276
  726poe    c23 4383   4.623   4.982   0.139  0.3221  0.0989 -0.0647
  726poe    c23 4384   4.477   4.992   0.188  0.3377  0.0814 -0.0149
  726poe     o2 4385   4.385   5.001   0.082 -0.0322  0.0879  0.3025
  726poe    c23 4386   4.258   4.957   0.121 -0.1168  0.4664  0.4554
  726poe    c23 4387   4.174   4.950  -0.008  0.1011  0.2121  0.3285
  726poe     o2 4388   4.215   5.058  -0.089  0.4139 -0.3307 -0.2478
  726poe    c23 4389   4.179   5.039  -0.224 -0.3461  0.5446 -0.1829
  726poe    c23 4390   4.272   5.128  -0.309  0.4501  0.4055  0.5227
  726poe     o2 4391   4.395   5.139  -0.242  0.5174  0.1025  0.4471
  726poe    c31 4392   4.490   5.215  -0.313  0.7825 -0.3261  0.3363
  727poe    c31 4393   1.468   0.340   6.465 -0.1089 -0.0602 -0.5948
  727poe     o2 4394   1.525   0.466   6.437 -0.3621  0.1349 -0.2353
  727poe    c23 4395   1.417   0.556   6.432 -0.2186  0.3194 -0.0323
  727poe    c23 4396   1.469   0.699   6.455 -0.3577  0.3870 -0.1389
  727poe     o2 4397   1.581   0.705   6.369  0.0564  0.1708  0.3833
  727poe    c23 4398   1.668   0.813   6.393  0.3357  0.0324 -0.0036
  727poe    c23 4399   1.798   0.806   6.311  0.1278 -0.1132 -0.3271
  727poe     o2 4400   1.835   0.670   6.308 -0.1081 -0.1892  0.0897
  727poe    c23 4401   1.967   0.669   6.258  0.1228 -0.2840  0.6985
  727poe    c23 4402   2.057   0.573   6.339  0.3661 -1.0018 -0.4080
  727poe     o2 4403   2.127   0.618   6.453 -0.5757 -0.2572 -0.1074
  727poe    c31 4404   2.041   0.662   6.556  0.1090  0.3298  0.2197
  728poe    c31 4405   4.611   4.058   1.122  0.0743 -0.4680  0.4013
  728poe     o2 4406   4.478   4.066   1.168 -0.1836 -0.1510 -0.3849
  728poe    c23 4407   4.391   3.989   1.088 -0.1917 -0.5206 -0.0256
  728poe    c23 4408   4.258   4.005   1.164 -0.0859  0.0852  0.0378
  728poe     o2 4409   4.291   3.938   1.284  0.1817  0.2670  0.0669
  728poe    c23 4410   4.185   3.882   1.358  0.0086 -0.0699 -0.4288
  728poe    c23 4411   4.243   3.767   1.441 -0.1633 -0.1451 -0.4120
  728poe     o2 4412   4.370   3.804   1.491 -0.1312 -0.3251 -0.3592
  728poe    c23 4413   4.467   3.701   1.492 -0.3072 -0.4911 -0.3006
  728poe    c23 4414   4.605   3.770   1.494 -0.2476 -0.6101 -0.2624
  728poe     o2 4415   4.610   3.868   1.392  0.2048 -0.4668 -0.1037
  728poe    c31 4416   4.740   3.916   1.369 -0.1398  0.4438 -0.2076
  729poe    c31 4417   0.505   1.450   4.788 -0.0247 -0.3603 -0.1845
  729poe     o2 4418   0.406   1.391   4.706 -0.1139 -0.8510  0.2662
  729poe    c23 4419   0.317   1.501   4.701  0.8121 -0.1087 -0.2838
  729poe    c23 4420   0.225   1.513   4.578 -0.2105 -0.1530  0.4700
  729poe     o2 4421   0.139   1.403   4.561 -0.4139  0.0142  0.4014
  729poe    c23 4422   0.092   1.409   4.428  0.2635  0.3969  0.1728
  729poe    c23 4423   0.017   1.275   4.422  0.5419  0.2412  0.1748
  729poe     o2 4424  -0.054   1.245   4.540  0.8066 -0.6492  0.1174
  729poe    c23 4425  -0.138   1.135   4.513  0.3509 -0.2489 -0.1136
  729poe    c23 4426  -0.202   1.099   4.648  0.5428 -0.3566 -0.0509
  729poe     o2 4427  -0.092   1.103   4.737  0.0488  0.3953  0.5403
  729poe    c31 4428  -0.113   1.002   4.833 -0.4451  0.3362  0.3773
  730poe    c31 4429   0.495   1.917   2.868 -0.5632  0.3576 -0.1339
  730poe     o2 4430   0.563   2.016   2.794  0.1924 -0.0244  0.0515
  730poe    c23 4431   0.514   2.147   2.812  1.2300  0.3260  0.4313
  730poe    c23 4432   0.554   2.227   2.687  0.1540  0.3687  0.1038
  730poe     o2 4433   0.689   2.203   2.654  0.0071 -0.6370  0.2022
  730poe    c23 4434   0.708   2.248   2.522  0.7447 -0.3921  0.3831
  730poe    c23 4435   0.852   2.207   2.488  0.7583 -0.3288  0.3657
  730poe     o2 4436   0.859   2.083   2.554  0.3647 -0.7522 -0.3702
  730poe    c23 4437   0.990   2.050   2.597  0.5409 -0.0109 -0.3308
  730poe    c23 4438   0.957   1.938   2.697  0.5696  0.7068  0.4907
  730poe     o2 4439   0.858   1.976   2.790  0.0092 -0.2756  0.3060
  730poe    c31 4440   0.912   1.998   2.919  0.0741  0.3151  0.1827
  731poe    c31 4441   6.017   4.027   2.721  0.2608 -0.0469  0.7410
  731poe     o2 4442   5.887   4.025   2.775 -0.3125  0.2699 -0.5806
  731poe    c23 4443   5.866   3.909   2.851 -0.2064  0.5389 -0.1356
  731poe    c23 4444   5.721   3.855   2.851 -0.0938  0.2260 -0.5347
  731poe     o2 4445   5.661   3.983   2.859 -0.1661  0.1621  0.0146
  731poe    c23 4446   5.522   3.982   2.838 -0.0647  0.2799 -0.6912
  731poe    c23 4447   5.447   4.110   2.880 -0.0167 -0.0633  0.4775
  731poe     o2 4448   5.534   4.213   2.837 -0.0615  0.0224  0.5918
  731poe    c23 4449   5.544   4.309   2.939 -0.1201  0.5949  0.0636
  731poe    c23 4450   5.668   4.389   2.893 -0.3664  1.1327  0.3219
  731poe     o2 4451   5.772   4.308   2.842 -0.7759  0.4305  0.5878
  731poe    c31 4452   5.891   4.379   2.816 -0.0063 -0.9711  0.1809
  732poe    c31 4453   3.386   4.861   4.216 -1.0269  0.3952  0.2732
  732poe     o2 4454   3.338   4.729   4.229  0.6915 -0.3024 -0.1849
  732poe    c23 4455   3.434   4.650   4.295  0.3571 -0.4925  0.0795
  732poe    c23 4456   3.421   4.498   4.319  0.2992 -0.5411 -0.2512
  732poe     o2 4457   3.447   4.438   4.195  0.2287 -0.1578 -0.4536
  732poe    c23 4458   3.513   4.313   4.200  0.3096 -0.0801  0.4818
  732poe    c23 4459   3.593   4.271   4.075 -0.1094  0.7481 -0.0766
  732poe     o2 4460   3.626   4.134   4.077 -0.8088  0.5756 -0.0006
  732poe    c23 4461   3.524   4.036   4.073 -0.2672 -0.0271  0.6735
  732poe    c23 4462   3.576   3.894   4.045  0.0634  0.1188  0.5401
  732poe     o2 4463   3.696   3.889   3.971 -0.4148  0.2204 -0.2538
  732poe    c31 4464   3.762   3.773   4.017 -0.6345  0.1274 -0.1734
  733poe    c31 4465   2.443   0.103   4.713 -0.1643 -0.3907 -0.2959
  733poe     o2 4466   2.349   0.198   4.668 -0.0277  0.0100  0.2540
  733poe    c23 4467   2.399   0.328   4.690  0.2993 -0.1419  0.4233
  733poe    c23 4468   2.287   0.426   4.651  0.3220 -0.0795  0.5150
  733poe     o2 4469   2.164   0.373   4.695  0.1606 -0.2760 -0.1578
  733poe    c23 4470   2.050   0.451   4.663 -0.1435 -0.3592  0.6843
  733poe    c23 4471   1.937   0.348   4.685 -0.4709 -0.1499  0.0035
  733poe     o2 4472   1.981   0.217   4.660  0.1818  0.1436 -0.4328
  733poe    c23 4473   1.899   0.122   4.726  0.3934 -0.3167 -0.8265
  733poe    c23 4474   1.979  -0.003   4.768  0.1360 -0.1945  0.0428
  733poe     o2 4475   2.103   0.043   4.817 -0.2550 -0.0467  0.9078
  733poe    c31 4476   2.155  -0.046   4.913  0.2240 -0.6078  0.1395
  734poe    c31 4477   5.655   4.871   3.651  0.8504  0.4435  0.7162
  734poe     o2 4478   5.662   4.982   3.565 -0.7227 -0.0782 -0.1159
  734poe    c23 4479   5.707   5.095   3.636  0.3555 -0.4635 -0.1821
  734poe    c23 4480   5.822   5.162   3.558  0.1908 -0.3492 -0.3252
  734poe     o2 4481   5.753   5.213   3.446 -0.5153  0.6343  0.5421
  734poe    c23 4482   5.836   5.294   3.366  0.1007 -0.6695 -0.1532
  734poe    c23 4483   5.828   5.265   3.214  0.5085  0.4170 -0.3927
  734poe     o2 4484   5.900   5.151   3.172  0.1322  0.0660 -0.0968
  734poe    c23 4485   5.919   5.148   3.033 -0.2761  0.0350 -0.1521
  734poe    c23 4486   5.949   5.000   3.002  0.4440  0.0682  0.3705
  734poe     o2 4487   5.843   4.912   3.032  0.2754  0.2409  0.2847
  734poe    c31 4488   5.847   4.786   2.968  0.2097  0.3325  0.0994
  735poe    c31 4489   4.882   6.747   2.125  0.0886 -0.0162 -0.1340
  735poe     o2 4490   4.793   6.731   2.233  0.0501  0.5218 -0.0849
  735poe    c23 4491   4.730   6.851   2.273 -0.1353  0.3216  0.2343
  735poe    c23 4492   4.607   6.810   2.354 -0.5363 -0.3281 -0.6811
  735poe     o2 4493   4.656   6.726   2.456  0.3206  0.1727 -0.6721
  735poe    c23 4494   4.548   6.682   2.536  0.4927  0.6092 -0.1952
  735poe    c23 4495   4.584   6.560   2.623 -0.0818  0.2417 -0.4624
  735poe     o2 4496   4.656   6.479   2.532  0.1077 -0.2935  0.1549
  735poe    c23 4497   4.604   6.349   2.544 -0.0534 -0.2329  0.1205
  735poe    c23 4498   4.689   6.247   2.467  0.3559  0.4764 -0.3750
  735poe     o2 4499   4.660   6.245   2.329  0.5471  0.5433 -0.4175
  735poe    c31 4500   4.702   6.116   2.290  0.1850  0.2689  0.0878
  736poe    c31 4501   3.806   4.936   5.803  0.2016  0.6217 -0.3739
  736poe     o2 4502   3.924   4.858   5.802 -0.0392  0.2506 -0.1029
  736poe    c23 4503   3.902   4.723   5.767 -0.1538  0.1730  0.2627
  736poe    c23 4504   4.038   4.651   5.774  0.3620  1.1285  0.3223
  736poe     o2 4505   4.135   4.733   5.713  0.8912  0.3057  0.0391
  736poe    c23 4506   4.265   4.679   5.719  0.5776 -0.3936  0.8184
  736poe    c23 4507   4.351   4.782   5.642  0.1484 -0.2607  0.5106
  736poe     o2 4508   4.305   4.905   5.692 -0.2573 -0.3021  0.2425
  736poe    c23 4509   4.410   4.989   5.650 -0.3551 -0.2182  0.1673
  736poe    c23 4510   4.387   5.131   5.706 -0.1075 -0.1848  0.1836
  736poe     o2 4511   4.271   5.187   5.649 -0.0762 -0.5914 -0.2927
  736poe    c31 4512   4.247   5.325   5.667  0.5032 -0.4951 -0.2299
  737poe    c31 4513   4.425   4.722   0.603 -0.0795 -0.1470  0.0777
  737poe     o2 4514   4.305   4.650   0.589 -0.0838 -0.1388  0.0724
  737poe    c23 4515   4.309   4.588   0.462  0.2486 -0.5202  0.2660
  737poe    c23 4516   4.188   4.493   0.450 -0.2292  0.0735  0.3296
  737poe     o2 4517   4.072   4.567   0.478 -0.2732  0.0320  0.2613
  737poe    c23 4518   3.963   4.491   0.525 -0.3539 -0.0385 -0.0414
  737poe    c23 4519   3.886   4.578   0.626 -0.1502 -0.2766  0.3207
  737poe     o2 4520   3.981   4.640   0.710 -0.2634  0.3175  0.0088
  737poe    c23 4521   3.926   4.755   0.769  0.0251  0.1258  0.6552
  737poe    c23 4522   4.021   4.795   0.883  0.1630  0.2813  0.4839
  737poe     o2 4523   4.154   4.777   0.839  0.0825  0.5092  0.1448
  737poe    c31 4524   4.245   4.821   0.938  1.0208  0.0951 -0.5180
  738poe    c31 4525   3.724   4.830   0.402  0.7494  0.2327  1.3481
  738poe     o2 4526   3.596   4.793   0.446  0.3030 -0.1568 -0.2213
  738poe    c23 4527   3.502   4.890   0.404  0.4711  0.1012 -0.0047
  738poe    c23 4528   3.358   4.865   0.452  0.5665  0.0265  0.2445
  738poe     o2 4529   3.307   4.738   0.416  0.2981  0.2766 -0.2647
  738poe    c23 4530   3.195   4.691   0.487  0.2864 -0.0025 -0.4691
  738poe    c23 4531   3.138   4.568   0.414 -0.1383 -0.1171  0.0510
  738poe     o2 4532   3.221   4.456   0.436  0.2488  0.0835 -0.3886
  738poe    c23 4533   3.145   4.339   0.417  0.1753  0.2057 -0.8650
  738poe    c23 4534   3.224   4.222   0.479 -0.0918  0.1966 -0.5368
  738poe     o2 4535   3.356   4.249   0.437  0.1064 -0.0384 -0.0697
  738poe    c31 4536   3.442   4.142   0.471  0.6727  0.4874  0.1787
  739poe    c31 4537   6.837   3.229   5.719  0.1717 -0.0943  0.0680
  739poe     o2 4538   6.910   3.220   5.599 -0.0983  0.6330 -0.1510
  739poe    c23 4539   6.849   3.315   5.513  0.0806  0.7326 -0.1689
  739poe    c23 4540   6.898   3.460   5.528  0.3125  0.6330  0.0449
  739poe     o2 4541   6.843   3.508   5.649  0.5201 -0.2842  0.5140
  739poe    c23 4542   6.891   3.640   5.664  0.3494 -0.1539 -0.0578
  739poe    c23 4543   6.845   3.701   5.798 -0.0638 -0.1663 -0.1909
  739poe     o2 4544   6.710   3.728   5.826  0.0373 -0.3610  0.4915
  739poe    c23 4545   6.660   3.835   5.903  0.4301 -0.2996  0.6629
  739poe    c23 4546   6.591   3.802   6.036 -0.6056 -0.1725  0.1656
  739poe     o2 4547   6.480   3.715   6.042 -0.5090 -0.3065  0.0036
  739poe    c31 4548   6.441   3.736   6.176  0.4059 -0.7285  0.3444
  740poe    c31 4549   4.509   3.068   2.999 -0.0715 -0.2463  0.3017
  740poe     o2 4550   4.427   3.055   2.886  0.0708 -0.0928  0.1804
  740poe    c23 4551   4.428   3.188   2.838 -0.6738 -0.0762  0.1960
  740poe    c23 4552   4.440   3.164   2.687 -0.3030 -0.3969  0.2740
  740poe     o2 4553   4.352   3.058   2.656  0.0507 -0.5042 -0.3864
  740poe    c23 4554   4.345   3.030   2.518  0.4885 -0.0997 -0.4948
  740poe    c23 4555   4.248   2.919   2.474 -0.2018  0.1652  0.3157
  740poe     o2 4556   4.290   2.803   2.543 -0.1024 -0.1232 -0.2231
  740poe    c23 4557   4.264   2.675   2.491 -0.1618 -0.4172  0.5297
  740poe    c23 4558   4.351   2.646   2.367 -0.3072  0.0574  0.3147
  740poe     o2 4559   4.315   2.730   2.260 -0.3278 -0.6000 -0.2037
  740poe    c31 4560   4.392   2.724   2.142 -0.5433 -0.0502 -0.3748
  741poe    c31 4561   3.586   1.093   0.979 -0.4541 -0.2157  0.1243
  741poe     o2 4562   3.650   0.989   0.910  0.1717  0.4085 -0.2563
  741poe    c23 4563   3.791   0.995   0.915  0.2027 -0.3821  0.0498
  741poe    c23 4564   3.851   0.855   0.897  0.7866 -0.1315  0.0004
  741poe     o2 4565   3.777   0.804   0.788  0.1727 -0.8111  0.7143
  741poe    c23 4566   3.809   0.673   0.746  0.1371 -0.6606  0.2019
  741poe    c23 4567   3.736   0.647   0.614 -0.2678  0.3770  0.2106
  741poe     o2 4568   3.600   0.681   0.632 -0.3410  0.1779  0.0470
  741poe    c23 4569   3.527   0.649   0.516 -0.1914 -0.1125  0.0321
  741poe    c23 4570   3.375   0.666   0.527 -0.1855  0.5455 -0.7950
  741poe     o2 4571   3.329   0.797   0.554 -0.0027  0.4149  0.1969
  741poe    c31 4572   3.189   0.802   0.568 -0.0155 -0.1846  0.2988
  742poe    c31 4573   6.179   3.694   1.570  0.3583  0.6039 -0.0343
  742poe     o2 4574   6.100   3.606   1.493  0.7735 -0.0222  0.2528
  742poe    c23 4575   6.142   3.474   1.522 -0.0994 -0.4222 -0.2600
  742poe    c23 4576   6.050   3.385   1.437  0.0682 -0.5455 -0.3131
  742poe     o2 4577   5.917   3.427   1.459  0.2309 -0.3567  0.3197
  742poe    c23 4578   5.821   3.328   1.434 -0.3827  0.3424 -0.1303
  742poe    c23 4579   5.686   3.399   1.456 -0.5986 -0.1836  0.2785
  742poe     o2 4580   5.684   3.526   1.395 -0.8264 -0.5025 -0.3908
  742poe    c23 4581   5.591   3.616   1.450  0.3835  0.4232  0.1964
  742poe    c23 4582   5.665   3.751   1.440 -0.4180  0.8045 -0.8040
  742poe     o2 4583   5.798   3.745   1.487 -0.5168  0.1358 -0.6018
  742poe    c31 4584   5.862   3.870   1.478  0.3976 -0.2453  0.3451
  743poe    c31 4585   0.696   6.832   3.544  0.5869 -0.2315 -0.1309
  743poe     o2 4586   0.775   6.829   3.661  0.0810  0.1816  0.2287
  743poe    c23 4587   0.742   6.716   3.739  0.3421 -0.3288 -0.3835
  743poe    c23 4588   0.750   6.731   3.892 -0.3956 -0.1647 -0.3556
  743poe     o2 4589   0.670   6.844   3.918 -0.3101 -0.2015  0.0703
  743poe    c23 4590   0.654   6.860   4.057  0.3272 -0.4071  0.1702
  743poe    c23 4591   0.586   6.993   4.094  0.3921 -0.2752 -0.1904
  743poe     o2 4592   0.662   7.104   4.050 -0.4270  0.5705  0.4805
  743poe    c23 4593   0.749   7.150   4.150  0.0556  0.1933  0.2393
  743poe    c23 4594   0.872   7.201   4.073  0.2540  0.3133  0.6295
  743poe     o2 4595   0.827   7.261   3.953 -0.3526 -0.2336  0.5775
  743poe    c31 4596   0.929   7.343   3.900 -0.1066 -0.9861 -0.1326
  744poe    c31 4597   0.262   5.479   4.362  0.2906  0.2433  0.3881
  744poe     o2 4598   0.382   5.517   4.427  0.1065  0.2290  0.7399
  744poe    c23 4599   0.462   5.569   4.323 -0.1571 -0.4496  0.1865
  744poe    c23 4600   0.603   5.583   4.385 -0.0245  0.9669 -0.3806
  744poe     o2 4601   0.575   5.657   4.502  0.0577 -0.0489  0.2983
  744poe    c23 4602   0.703   5.702   4.543  0.3834 -0.5303 -0.1711
  744poe    c23 4603   0.682   5.795   4.664 -0.1554 -0.4125 -0.3503
  744poe     o2 4604   0.594   5.723   4.747  0.0592 -0.0646  0.1783
  744poe    c23 4605   0.587   5.762   4.883 -0.4991  0.1856  0.0822
  744poe    c23 4606   0.454   5.722   4.948 -0.2501 -0.5565  0.1438
  744poe     o2 4607   0.343   5.803   4.918  0.0904  0.0472  0.5064
  744poe    c31 4608   0.334   5.907   5.012  0.5273  0.5244  0.0269
  745poe    c31 4609   6.706   5.182   1.004  0.2029 -0.5120  0.7893
  745poe     o2 4610   6.800   5.219   1.103  0.2112  0.3533  0.4616
  745poe    c23 4611   6.913   5.286   1.051  0.4046 -0.2434  0.0960
  745poe    c23 4612   7.013   5.310   1.166  0.4515 -0.7917  0.1744
  745poe     o2 4613   6.960   5.389   1.270  0.3777 -0.1438 -0.3455
  745poe    c23 4614   7.026   5.355   1.390 -0.6603  0.0833  0.3063
  745poe    c23 4615   6.980   5.461   1.491  0.6799  0.0033  1.0220
  745poe     o2 4616   6.841   5.460   1.513  0.5133 -0.0625 -0.0008
  745poe    c23 4617   6.816   5.527   1.635 -0.1812  0.2805 -0.3236
  745poe    c23 4618   6.673   5.484   1.673 -0.1910  0.3635 -0.2663
  745poe     o2 4619   6.606   5.451   1.553 -0.5622 -0.0520  0.0519
  745poe    c31 4620   6.485   5.386   1.583 -0.6456  0.3096  0.5197
  746poe    c31 4621   6.636   6.671   4.426  0.3604  0.1623  0.1716
  746poe     o2 4622   6.772   6.639   4.447  0.4558  0.3987 -0.0818
  746poe    c23 4623   6.792   6.530   4.359 -0.7270 -0.3571  0.5532
  746poe    c23 4624   6.885   6.429   4.428 -0.1675 -0.3163 -0.1308
  746poe     o2 4625   6.993   6.510   4.468 -0.1948 -0.3014 -0.0879
  746poe    c23 4626   7.072   6.465   4.576 -0.1693  0.0354  0.0347
  746poe    c23 4627   7.016   6.511   4.712 -0.0887 -0.1709  0.1385
  746poe     o2 4628   6.984   6.645   4.679 -0.4729 -0.2752  0.0720
  746poe    c23 4629   6.941   6.709   4.796  0.0606  0.2571 -0.0197
  746poe    c23 4630   6.901   6.853   4.757 -0.9132  0.0809  0.3065
  746poe     o2 4631   6.849   6.866   4.627 -0.3280  0.2419  0.0863
  746poe    c31 4632   6.811   6.997   4.592  0.2426  0.2019 -0.7276
  747poe    c31 4633   6.115   2.645   5.811 -0.8344  0.3071  0.0442
  747poe     o2 4634   6.245   2.673   5.858 -0.6804  0.1638 -0.2892
  747poe    c23 4635   6.232   2.804   5.909  0.0985  0.1863 -0.1455
  747poe    c23 4636   6.366   2.845   5.973 -0.0466  0.4893 -0.0362
  747poe     o2 4637   6.463   2.796   5.883  0.0776 -0.3399  0.5373
  747poe    c23 4638   6.593   2.791   5.937  0.3304  0.1535 -0.0118
  747poe    c23 4639   6.706   2.731   5.850  0.1364 -0.1825 -0.0346
  747poe     o2 4640   6.670   2.605   5.800 -0.5235  0.0057 -0.0475
  747poe    c23 4641   6.769   2.560   5.710 -0.1817 -0.4152  0.5286
  747poe    c23 4642   6.709   2.536   5.571 -0.3390  0.0820  0.5081
  747poe     o2 4643   6.626   2.643   5.532  0.3756  0.5455  0.2573
  747poe    c31 4644   6.608   2.660   5.393 -0.3254  0.0133  0.2817
  748poe    c31 4645   4.704   3.428   2.488  0.5705  0.2731  0.0954
  748poe     o2 4646   4.840   3.441   2.453  0.5328  0.6586  0.0878
  748poe    c23 4647   4.880   3.574   2.426 -0.1767  0.7697 -0.4356
  748poe    c23 4648   5.024   3.598   2.376  0.1289 -0.5143 -0.2025
  748poe     o2 4649   5.054   3.479   2.306 -0.2282 -0.4384 -0.4876
  748poe    c23 4650   5.152   3.503   2.207 -0.1247  0.2094 -0.2370
  748poe    c23 4651   5.213   3.365   2.174 -0.4795 -0.1467  0.5678
  748poe     o2 4652   5.128   3.299   2.084  0.0182  0.1438 -0.1237
  748poe    c23 4653   5.171   3.164   2.079 -0.4413  0.0038 -0.2751
  748poe    c23 4654   5.064   3.099   1.988 -0.8130  0.4898 -0.1921
  748poe     o2 4655   4.931   3.117   2.031 -0.5251  0.4573  0.7367
  748poe    c31 4656   4.845   3.059   1.936 -0.0806  0.3530  0.3912
  749poe    c31 4657   4.303   2.648   1.671  0.4960 -0.0122 -0.3074
  749poe     o2 4658   4.242   2.667   1.546  0.6117  0.6075 -0.2712
  749poe    c23 4659   4.230   2.804   1.512 -0.3841  0.6194  0.0882
  749poe    c23 4660   4.189   2.843   1.370  0.5051 -0.3957 -0.4653
  749poe     o2 4661   4.059   2.790   1.353  0.5343 -0.6444  0.0576
  749poe    c23 4662   4.019   2.829   1.223 -0.5983  0.3456  0.6766
  749poe    c23 4663   3.891   2.755   1.184 -0.0865 -0.2205  0.0451
  749poe     o2 4664   3.917   2.622   1.221 -0.0196 -0.1772  0.1509
  749poe    c23 4665   3.813   2.540   1.173 -0.3356 -0.1249  0.7322
  749poe    c23 4666   3.799   2.417   1.264 -0.4244 -0.5589  0.1433
  749poe     o2 4667   3.902   2.321   1.252 -0.4068 -0.5727  0.3955
  749poe    c31 4668   3.891   2.241   1.137 -0.1388  0.2905 -0.2370
  750poe    c31 4669   6.602   6.056   0.847  0.4459  0.0511 -0.0144
  750poe     o2 4670   6.617   5.919   0.816  0.3031  0.1629 -0.5963
  750poe    c23 4671   6.757   5.898   0.821  0.3032  0.2102 -0.4104
  750poe    c23 4672   6.781   5.751   0.782  0.2558  0.2584 -0.6192
  750poe     o2 4673   6.682   5.706   0.693  0.1623 -0.5463 -0.1116
  750poe    c23 4674   6.677   5.568   0.666  0.3526 -0.6141  0.2030
  750poe    c23 4675   6.542   5.528   0.729  0.3009 -0.2744  0.3100
  750poe     o2 4676   6.459   5.637   0.697 -0.0518 -0.5767  0.1934
  750poe    c23 4677   6.342   5.634   0.777 -0.0304 -0.3827  0.2318
  750poe    c23 4678   6.255   5.761   0.768  0.4831 -0.0302  0.1528
  750poe     o2 4679   6.342   5.872   0.779  0.4086  0.0872 -0.4121
  750poe    c31 4680   6.268   5.988   0.751  0.1903 -0.0002 -0.2057
  751poe    c31 4681   5.094   4.812   4.597  0.2402 -0.5820 -0.5358
  751poe     o2 4682   5.146   4.681   4.583  0.2124 -0.6092 -0.3796
  751poe    c23 4683   5.285   4.673   4.565  0.2389  0.1570 -0.5596
  751poe    c23 4684   5.328   4.525   4.565  0.1741  0.1360 -0.1114
  751poe     o2 4685   5.303   4.444   4.678 -0.1408  0.5492  0.1191
  751poe    c23 4686   5.379   4.327   4.661  0.0342  0.6948 -0.1167
  751poe    c23 4687   5.363   4.248   4.793 -0.3393  0.0794 -0.5226
  751poe     o2 4688   5.234   4.249   4.850  0.1465  0.5000  0.5915
  751poe    c23 4689   5.198   4.142   4.935 -0.2990  0.2182  0.0486
  751poe    c23 4690   5.059   4.163   4.997 -0.1603 -0.3013  0.5411
  751poe     o2 4691   5.041   4.303   4.989  0.1240 -0.2740  0.3673
  751poe    c31 4692   4.920   4.333   5.054 -0.3472 -0.0148 -0.6149
  752poe    c31 4693   5.722   6.438   0.870  0.8582 -0.2829 -0.2604
  752poe     o2 4694   5.803   6.553   0.863  0.1482  0.2359 -0.0239
  752poe    c23 4695   5.889   6.563   0.752 -0.5424 -0.2220 -0.6052
  752poe    c23 4696   5.938   6.708   0.734 -0.3413 -0.3031 -0.7019
  752poe     o2 4697   5.950   6.752   0.867 -0.4406 -0.2260 -0.7185
  752poe    c23 4698   5.993   6.886   0.875  0.6109 -0.5949  0.0907
  752poe    c23 4699   6.015   6.908   1.026  0.0796  0.4151  0.0309
  752poe     o2 4700   5.897   6.844   1.068  0.3225 -0.0325  0.0388
  752poe    c23 4701   5.886   6.824   1.207 -0.3634 -0.5481 -0.0822
  752poe    c23 4702   5.915   6.682   1.258  0.6864 -0.3819 -0.1961
  752poe     o2 4703   5.866   6.597   1.157 -0.3382  0.1596 -0.1677
  752poe    c31 4704   5.891   6.463   1.192  0.8507  0.3206 -0.3597
  753poe    c31 4705   5.971   6.795   6.059  0.3211 -0.1509 -0.4462
  753poe     o2 4706   6.027   6.910   6.000 -0.0415  0.0627 -0.3750
  753poe    c23 4707   6.049   6.992   6.112  0.6124 -0.7011  0.0584
  753poe    c23 4708   6.148   7.103   6.071 -0.1345 -0.1569 -0.3048
  753poe     o2 4709   6.109   7.164   5.950 -0.0974 -0.3533 -0.4161
  753poe    c23 4710   6.213   7.246   5.901  0.2222 -0.6277 -0.2033
  753poe    c23 4711   6.183   7.257   5.751 -0.0104 -0.1106 -0.1209
  753poe     o2 4712   6.159   7.127   5.701  0.1123 -0.2177  0.0954
  753poe    c23 4713   6.140   7.114   5.561  0.7693 -0.2046  0.0020
  753poe    c23 4714   6.105   6.965   5.544  0.0568 -0.0597  0.1416
  753poe     o2 4715   6.025   6.933   5.655 -0.2013  0.3247  0.0661
  753poe    c31 4716   5.989   6.797   5.652 -0.3488  0.3534  0.3683
  754poe    c31 4717   0.761   2.078   1.486 -0.1615 -0.2476 -0.3807
  754poe     o2 4718   0.635   2.130   1.449 -0.1147  0.3940  0.3617
  754poe    c23 4719   0.641   2.148   1.310  0.5699  0.0942  0.3499
  754poe    c23 4720   0.556   2.260   1.248  0.5382  0.0281  0.2741
  754poe     o2 4721   0.415   2.262   1.253  0.5244  0.2708 -0.1188
  754poe    c23 4722   0.361   2.381   1.200  0.1619  0.0423 -0.2648
  754poe    c23 4723   0.269   2.450   1.302  0.2475 -0.0686 -0.1123
  754poe     o2 4724   0.174   2.355   1.346  0.0131  0.1699 -0.0998
  754poe    c23 4725   0.080   2.415   1.432  0.0148 -0.1436  0.1255
  754poe    c23 4726  -0.035   2.314   1.448  0.2206 -0.3811  0.1067
  754poe     o2 4727   0.018   2.183   1.444  0.1966 -0.4095  0.6598
  754poe    c31 4728  -0.075   2.085   1.486 -0.3828 -0.1713 -0.0483
  755poe    c31 4729   6.669   6.580   5.287  0.0588  0.4361  0.3171
  755poe     o2 4730   6.562   6.659   5.242 -0.3529 -0.1457  0.2691
  755poe    c23 4731   6.449   6.681   5.324 -0.1521 -0.2735  0.5788
  755poe    c23 4732   6.351   6.777   5.254  0.0356 -0.5071 -0.0083
  755poe     o2 4733   6.328   6.733   5.122  0.2417 -0.7018  0.0194
  755poe    c23 4734   6.237   6.813   5.050  0.1580 -0.7002  0.1265
  755poe    c23 4735   6.261   6.788   4.900  0.2328 -0.1589  0.0448
  755poe     o2 4736   6.390   6.825   4.857  0.1687 -0.1186 -0.1118
  755poe    c23 4737   6.410   6.792   4.721 -0.3219  0.2259 -0.2702
  755poe    c23 4738   6.330   6.849   4.603 -0.7015  0.1891 -0.0321
  755poe     o2 4739   6.323   6.990   4.611  0.1302  0.2354 -0.1155
  755poe    c31 4740   6.297   7.059   4.490 -0.2875  0.1259 -0.0900
  756poe    c31 4741   1.180   6.380   4.748  0.6744  0.1535 -0.1125
  756poe     o2 4742   1.267   6.482   4.704  0.2945  0.5142 -0.0404
  756poe    c23 4743   1.386   6.432   4.647 -0.5199 -0.7523 -0.6809
  756poe    c23 4744   1.450   6.530   4.548  0.0719 -0.4468 -0.0076
  756poe     o2 4745   1.451   6.654   4.615  0.0933 -0.3983 -0.0961
  756poe    c23 4746   1.492   6.756   4.528  0.0745 -0.5583 -0.2929
  756poe    c23 4747   1.442   6.886   4.593  0.2957 -0.8413  0.4454
  756poe     o2 4748   1.322   6.848   4.657  0.1146 -0.5414  0.2861
  756poe    c23 4749   1.281   6.951   4.745 -0.0045  0.4467 -0.9035
  756poe    c23 4750   1.146   6.897   4.795  0.3468 -0.1140 -0.5499
  756poe     o2 4751   1.167   6.762   4.829  0.3657  0.0120 -0.0511
  756poe    c31 4752   1.072   6.724   4.926 -0.0410 -0.0492 -0.4698
  757poe    c31 4753   2.881   0.065   6.045 -0.0979 -0.6599  0.4981
  757poe     o2 4754   2.979  -0.014   5.983  0.1645  0.0841 -0.0460
  757poe    c23 4755   3.087   0.069   5.945  0.3936 -0.1228  0.1565
  757poe    c23 4756   3.207  -0.008   5.886 -0.2401 -0.5458 -0.5989
  757poe     o2 4757   3.154  -0.031   5.757 -0.5700 -1.0170 -0.3809
  757poe    c23 4758   3.250  -0.106   5.686 -0.0404 -0.8068  0.0988
  757poe    c23 4759   3.240  -0.123   5.533 -0.0463 -0.2412  0.0362
  757poe     o2 4760   3.112  -0.172   5.498 -0.1540  0.0108  0.0723
  757poe    c23 4761   3.099  -0.202   5.361  0.0846  0.0408  0.0427
  757poe    c23 4762   2.955  -0.251   5.338 -0.0161  0.1871  0.3652
  757poe     o2 4763   2.877  -0.178   5.431 -0.4192  0.2942 -0.0493
  757poe    c31 4764   2.743  -0.222   5.428 -0.4419  0.3591  0.0249
  758poe    c31 4765   4.571   1.971   0.192  0.0073 -0.6466  0.0647
  758poe     o2 4766   4.528   2.072   0.104 -0.2560 -0.1469  0.7626
  758poe    c23 4767   4.453   2.169   0.174 -0.4709  0.2583 -0.0158
  758poe    c23 4768   4.299   2.170   0.177 -0.4704  0.3646 -0.0601
  758poe     o2 4769   4.228   2.248   0.083 -0.1097  0.0451 -0.6042
  758poe    c23 4770   4.095   2.213   0.050 -0.2483  0.3684 -0.3948
  758poe    c23 4771   3.995   2.309   0.117  0.2055  0.4858  0.1224
  758poe     o2 4772   4.018   2.435   0.059 -0.0787  0.6331  0.3292
  758poe    c23 4773   3.898   2.509   0.061 -0.2983  0.2792  0.3460
  758poe    c23 4774   3.922   2.647  -0.003 -0.2136  0.1258  0.0456
  758poe     o2 4775   4.015   2.644  -0.109  0.2259 -0.0594  0.4384
  758poe    c31 4776   3.979   2.729  -0.215 -0.3177  0.1229  0.7673
  759poe    c31 4777   3.444   6.170   2.167 -0.1138  0.3627 -0.3843
  759poe     o2 4778   3.522   6.078   2.093 -0.1394  0.0551 -0.0275
  759poe    c23 4779   3.630   6.028   2.167 -0.5989 -0.1425  0.5195
  759poe    c23 4780   3.727   5.991   2.053 -0.4884 -0.1617  0.6187
  759poe     o2 4781   3.672   5.912   1.950  0.9549 -0.4989  0.0819
  759poe    c23 4782   3.740   5.926   1.827  0.0265  0.2399 -0.3690
  759poe    c23 4783   3.666   5.832   1.730 -0.2653 -0.0745  0.1529
  759poe     o2 4784   3.530   5.868   1.720 -0.2983 -0.0870  0.5154
  759poe    c23 4785   3.454   5.764   1.663  0.0210 -0.1073  0.1198
  759poe    c23 4786   3.318   5.814   1.611  0.5527  0.6417 -0.5731
  759poe     o2 4787   3.243   5.856   1.722  0.5032  0.2281 -0.4483
  759poe    c31 4788   3.112   5.900   1.692  0.3347  0.3184  0.3747
  760poe    c31 4789   5.212   1.308   3.195 -0.3425 -0.1895 -0.7116
  760poe     o2 4790   5.262   1.177   3.189 -0.0276 -0.0883 -0.3210
  760poe    c23 4791   5.234   1.124   3.062  0.4025 -0.4447 -0.2728
  760poe    c23 4792   5.229   0.970   3.074  0.4381 -0.5287 -1.2198
  760poe     o2 4793   5.350   0.941   3.140  0.1080 -0.3499 -0.5218
  760poe    c23 4794   5.354   0.802   3.163 -0.2993 -0.2270  0.3100
  760poe    c23 4795   5.464   0.776   3.267  0.2315  0.2108 -0.1366
  760poe     o2 4796   5.427   0.863   3.372  0.1802  0.5550 -0.4376
  760poe    c23 4797   5.529   0.901   3.461 -0.9263  0.8643  0.7355
  760poe    c23 4798   5.612   1.017   3.403  0.1297 -0.1277  0.1950
  760poe     o2 4799   5.522   1.115   3.356  0.3329 -0.1409 -0.2230
  760poe    c31 4800   5.596   1.229   3.319 -0.2648  0.1130 -0.6575
  761poe    c31 4801   3.812   5.556   4.166  0.2666  0.7052 -0.0724
  761poe     o2 4802   3.899   5.546   4.276 -0.0989  0.0080  0.1657
  761poe    c23 4803   3.997   5.647   4.261 -0.5310  0.3658 -0.3238
  761poe    c23 4804   4.051   5.674   4.403 -0.5918  0.0040 -0.2314
  761poe     o2 4805   4.080   5.546   4.456 -0.5494  0.0633 -0.1106
  761poe    c23 4806   4.123   5.537   4.590 -0.0272  0.1053 -0.2769
  761poe    c23 4807   4.100   5.387   4.614 -0.0738  0.1813  0.1689
  761poe     o2 4808   3.972   5.344   4.571  0.1419 -0.3701  0.0608
  761poe    c23 4809   3.984   5.211   4.529 -0.0653 -0.1005 -0.8677
  761poe    c23 4810   3.855   5.173   4.455 -0.2064 -0.1645 -0.5890
  761poe     o2 4811   3.825   5.271   4.358  0.2336  0.3521 -0.2077
  761poe    c31 4812   3.713   5.230   4.283  0.5565 -0.2718 -0.3624
  762poe    c31 4813   0.281   4.741   2.049  0.7646 -0.6720 -0.6649
  762poe     o2 4814   0.195   4.693   1.948  0.1238  0.1595 -0.5193
  762poe    c23 4815   0.103   4.592   1.983 -0.3641  0.7204 -0.1428
  762poe    c23 4816   0.086   4.513   1.852 -0.0661  0.0146  0.2396
  762poe     o2 4817   0.205   4.519   1.776 -0.6418  0.4435 -0.6384
  762poe    c23 4818   0.189   4.445   1.657 -0.2753 -0.2875 -0.2330
  762poe    c23 4819   0.321   4.413   1.585  0.2182 -0.0070  0.5362
  762poe     o2 4820   0.359   4.534   1.522 -0.2108  0.0230  0.3295
  762poe    c23 4821   0.495   4.524   1.486 -0.2525  0.2903  0.0984
  762poe    c23 4822   0.567   4.654   1.447 -0.3730  0.3541  0.0892
  762poe     o2 4823   0.550   4.749   1.550  0.0591 -0.0283  0.5185
  762poe    c31 4824   0.610   4.870   1.509 -0.6856  0.2759  0.3023
  763poe    c31 4825   0.453   1.863   1.652  0.4723 -0.0219 -0.2468
  763poe     o2 4826   0.441   1.731   1.603 -0.5854 -0.1602  0.3509
  763poe    c23 4827   0.413   1.727   1.465 -1.0307  0.8816  0.4021
  763poe    c23 4828   0.326   1.610   1.415  0.4995  0.0126 -0.3090
  763poe     o2 4829   0.394   1.487   1.430 -1.4271 -1.0251  0.1736
  763poe    c23 4830   0.339   1.396   1.337 -0.9853 -0.3706 -0.7424
  763poe    c23 4831   0.438   1.279   1.323  0.1881  0.5417 -0.2513
  763poe     o2 4832   0.486   1.246   1.452 -0.3605 -0.3981 -0.2805
  763poe    c23 4833   0.586   1.148   1.450  0.0468  0.0101 -0.0622
  763poe    c23 4834   0.652   1.148   1.590 -0.1392 -0.3457  0.0263
  763poe     o2 4835   0.672   1.280   1.634 -0.3209 -0.2370 -0.2109
  763poe    c31 4836   0.760   1.300   1.742 -0.3323 -0.2109 -0.2064
  764poe    c31 4837   4.668   5.585   4.332  0.3214 -0.6091  0.1340
  764poe     o2 4838   4.684   5.626   4.198  0.1170 -0.4509  0.1591
  764poe    c23 4839   4.798   5.581   4.129 -0.0469  0.0115 -0.4219
  764poe    c23 4840   4.838   5.694   4.032 -0.6727  0.6012 -0.0095
  764poe     o2 4841   4.721   5.712   3.955 -0.0043 -0.1886 -1.2607
  764poe    c23 4842   4.732   5.814   3.859 -0.0950  0.3372 -0.7199
  764poe    c23 4843   4.591   5.825   3.799 -0.1200  0.5721 -0.6218
  764poe     o2 4844   4.503   5.873   3.899  0.3587  0.2571 -0.0427
  764poe    c23 4845   4.396   5.940   3.837  0.3195  0.5466  0.3372
  764poe    c23 4846   4.312   6.000   3.951  0.1866  0.4920  0.2687
  764poe     o2 4847   4.258   5.904   4.039  0.3946  0.1801  0.0579
  764poe    c31 4848   4.158   5.972   4.111  0.6004 -0.5193  1.0211
  765poe    c31 4849   6.616   0.790   5.123  0.1524 -0.3142 -0.7926
  765poe     o2 4850   6.632   0.863   5.242 -0.0281 -0.7196 -0.5168
  765poe    c23 4851   6.565   0.797   5.347 -0.5088  0.1172 -0.2888
  765poe    c23 4852   6.560   0.906   5.456 -0.3398 -0.0506 -0.1134
  765poe     o2 4853   6.685   0.970   5.458 -0.3521 -0.0354  0.2065
  765poe    c23 4854   6.683   1.079   5.547 -0.8184  0.2582 -0.1569
  765poe    c23 4855   6.825   1.138   5.544 -0.5545 -0.3804 -0.4664
  765poe     o2 4856   6.854   1.127   5.406  0.0692  0.0043 -0.3699
  765poe    c23 4857   6.981   1.163   5.355 -0.2055  0.9378 -0.4113
  765poe    c23 4858   6.994   1.097   5.216  0.6173 -0.0450  0.1202
  765poe     o2 4859   6.934   0.970   5.219 -0.4726  0.4292 -0.8446
  765poe    c31 4860   7.005   0.880   5.137 -0.5713 -0.4028 -0.0398
  766poe    c31 4861   0.969   1.770   6.041 -0.2359  1.4102 -0.3129
  766poe     o2 4862   1.095   1.833   6.031  0.3700  0.2055 -0.4165
  766poe    c23 4863   1.134   1.872   5.902  0.5968 -0.2281 -0.4810
  766poe    c23 4864   1.240   1.983   5.882  0.3461  0.1134  0.0596
  766poe     o2 4865   1.197   2.098   5.950  0.0111  0.0217  0.0080
  766poe    c23 4866   1.304   2.180   5.991  0.2800 -0.5945  0.5545
  766poe    c23 4867   1.243   2.284   6.088  0.3220  0.0583 -0.1071
  766poe     o2 4868   1.254   2.240   6.221  0.3022  0.1555 -0.0735
  766poe    c23 4869   1.227   2.351   6.304  0.7130 -0.0836  0.3937
  766poe    c23 4870   1.216   2.319   6.454 -0.1627  0.0078  0.3564
  766poe     o2 4871   1.117   2.222   6.483 -0.1167 -0.2460 -0.3092
  766poe    c31 4872   1.055   2.253   6.606  0.3993  0.0338 -0.1148
  767poe    c31 4873   3.161   1.599   4.203  0.5324  0.0144 -0.4583
  767poe     o2 4874   3.266   1.681   4.249  0.8732 -0.6981  0.0578
  767poe    c23 4875   3.291   1.659   4.386  0.2799  0.2746  0.3357
  767poe    c23 4876   3.388   1.772   4.424  1.0320 -0.2510  0.0157
  767poe     o2 4877   3.345   1.893   4.365 -0.0431 -0.2732  0.7266
  767poe    c23 4878   3.421   2.008   4.397 -0.4418  0.0607  0.4696
  767poe    c23 4879   3.372   2.132   4.319 -0.4193 -0.2667 -0.0726
  767poe     o2 4880   3.358   2.095   4.184  0.1088  0.1963 -0.2600
  767poe    c23 4881   3.321   2.210   4.111 -0.3640  0.0415 -0.2658
  767poe    c23 4882   3.331   2.192   3.958 -0.2464  0.1913 -0.2757
  767poe     o2 4883   3.235   2.093   3.928 -0.1108 -0.0520  0.0837
  767poe    c31 4884   3.190   2.097   3.795 -0.3832 -0.5507  0.1584
  768poe    c31 4885   4.960   1.261   0.571  0.2171  0.9408  0.2958
  768poe     o2 4886   4.822   1.252   0.543  0.2853 -0.2433  0.2888
  768poe    c23 4887   4.748   1.318   0.642 -0.3837 -0.2826 -0.1817
  768poe    c23 4888   4.601   1.335   0.598 -0.1952 -0.1287 -0.7617
  768poe     o2 4889   4.575   1.445   0.515 -0.2532 -0.1117 -0.7208
  768poe    c23 4890   4.436   1.469   0.509 -0.2614  0.0707  0.1134
  768poe    c23 4891   4.410   1.559   0.386  0.4775  0.0676 -0.0468
  768poe     o2 4892   4.438   1.509   0.257  0.4936  0.1747 -0.0848
  768poe    c23 4893   4.429   1.603   0.153  1.1804 -0.0573 -0.3624
  768poe    c23 4894   4.466   1.534   0.020 -0.5130 -0.3236 -0.7270
  768poe     o2 4895   4.606   1.513   0.026 -0.4339  0.3272 -0.0517
  768poe    c31 4896   4.643   1.459  -0.099  0.5417  0.1000  0.3263
  769poe    c31 4897   5.562   5.758   5.907 -0.2039  0.1306  0.3704
  769poe     o2 4898   5.452   5.843   5.882 -0.3372 -0.1994 -0.2016
  769poe    c23 4899   5.346   5.806   5.967 -0.6610 -0.0788 -0.5531
  769poe    c23 4900   5.285   5.939   6.017  0.7397  0.3898 -0.0483
  769poe     o2 4901   5.221   6.006   5.911  0.4960  0.1138 -0.0773
  769poe    c23 4902   5.173   6.132   5.952 -0.2424 -0.3237  0.4286
  769poe    c23 4903   5.225   6.234   5.849  0.1337 -0.8020  0.1412
  769poe     o2 4904   5.217   6.185   5.717 -0.0170 -0.2175 -0.0662
  769poe    c23 4905   5.277   6.287   5.640  0.5507 -0.1678  0.4336
  769poe    c23 4906   5.294   6.234   5.496 -0.0816 -0.6680  0.5403
  769poe     o2 4907   5.429   6.195   5.485  0.0239 -0.1376 -0.0775
  769poe    c31 4908   5.469   6.122   5.371  0.3293  0.1297 -0.1428
  770poe    c31 4909   3.385   1.809   1.313 -0.0818  0.1984  0.2652
  770poe     o2 4910   3.339   1.815   1.446 -0.0438  0.4001  0.2685
  770poe    c23 4911   3.405   1.734   1.540  0.3043  0.5549  0.1603
  770poe    c23 4912   3.426   1.824   1.663 -0.3708  0.7066  0.1709
  770poe     o2 4913   3.306   1.896   1.674 -1.0516 -0.4257  0.2892
  770poe    c23 4914   3.305   1.949   1.805 -0.0606 -0.1937  0.2120
  770poe    c23 4915   3.159   1.969   1.850  0.0016 -0.1689  0.4020
  770poe     o2 4916   3.098   2.021   1.734 -0.2386  0.2579  0.7172
  770poe    c23 4917   3.008   1.930   1.677  0.1835  0.5371 -0.4255
  770poe    c23 4918   2.970   1.957   1.530  0.1277  0.2105 -0.4727
  770poe     o2 4919   3.078   1.937   1.442  0.0772  0.5802 -0.6193
  770poe    c31 4920   3.029   1.967   1.313 -0.2611  0.5403 -0.4986
  771poe    c31 4921   0.769   4.970   1.958  0.4575 -0.1462  0.5278
  771poe     o2 4922   0.727   5.056   2.062 -0.4581 -0.6043  0.5395
  771poe    c23 4923   0.594   5.096   2.039 -0.2715 -0.4928 -0.3700
  771poe    c23 4924   0.538   5.179   2.157  0.6495 -0.3227 -0.0489
  771poe     o2 4925   0.650   5.262   2.179  0.0021  0.4064  0.5173
  771poe    c23 4926   0.630   5.339   2.295 -0.4936 -0.0263  0.7234
  771poe    c23 4927   0.729   5.456   2.275  0.3039 -0.8175 -0.0052
  771poe     o2 4928   0.855   5.393   2.282  0.5724 -0.2584  0.2040
  771poe    c23 4929   0.957   5.490   2.292  0.2146  0.1745 -0.2610
  771poe    c23 4930   1.054   5.440   2.402  0.0229 -0.0189 -0.1778
  771poe     o2 4931   1.100   5.313   2.364 -0.6368 -0.4386  0.4078
  771poe    c31 4932   1.205   5.276   2.450 -0.0102  0.1618 -0.0877
  772poe    c31 4933   5.429   5.698   3.234  0.0041 -0.0296 -0.0491
  772poe     o2 4934   5.411   5.727   3.098  0.3205  0.2208 -0.0386
  772poe    c23 4935   5.504   5.825   3.058 -0.0359  0.3457 -0.5735
  772poe    c23 4936   5.535   5.821   2.907  0.5166 -0.0262 -0.4535
  772poe     o2 4937   5.405   5.818   2.852  0.2117 -0.5002  0.2711
  772poe    c23 4938   5.415   5.783   2.715  0.7457  0.2241  0.1181
  772poe    c23 4939   5.269   5.766   2.671  0.8705 -0.0877 -0.1807
  772poe     o2 4940   5.225   5.694   2.784  0.0542  0.2935 -0.2471
  772poe    c23 4941   5.087   5.665   2.779  0.1946 -0.5985  0.5786
  772poe    c23 4942   5.035   5.592   2.904 -0.3779 -0.5342  0.3817
  772poe     o2 4943   5.115   5.657   3.001 -0.5060  0.5268 -0.2093
  772poe    c31 4944   5.033   5.690   3.111 -0.0079 -0.4145  0.4523
  773poe    c31 4945   0.837   5.071   6.831  0.4242  0.1166  0.4816
  773poe     o2 4946   0.712   5.137   6.822  0.3959  0.0612  0.4656
  773poe    c23 4947   0.631   5.115   6.709  0.1882  0.2964  0.5670
  773poe    c23 4948   0.540   5.236   6.687 -0.1572 -0.0903 -0.1550
  773poe     o2 4949   0.609   5.351   6.641  0.0146 -0.2093 -0.1936
  773poe    c23 4950   0.527   5.464   6.623 -0.2188 -0.2420  0.6092
  773poe    c23 4951   0.621   5.582   6.588 -0.3261 -0.3106  0.0811
  773poe     o2 4952   0.722   5.604   6.684 -0.7151 -0.4181  0.5216
  773poe    c23 4953   0.740   5.742   6.706  0.2561 -0.4937  0.2702
  773poe    c23 4954   0.840   5.776   6.818 -0.1817  0.0224  0.5106
  773poe     o2 4955   0.927   5.665   6.825 -0.0040  0.1013 -0.3170
  773poe    c31 4956   1.042   5.694   6.902 -0.0039 -0.3214 -0.1579
  774poe    c31 4957   6.184   0.013   6.833  0.3174 -0.6798 -0.3424
  774poe     o2 4958   6.304   0.068   6.883 -0.2211  0.1823  0.0471
  774poe    c23 4959   6.391  -0.021   6.951 -0.6022 -0.2462 -0.0182
  774poe    c23 4960   6.538   0.016   6.976 -0.6381 -0.0460 -0.1000
  774poe     o2 4961   6.566   0.145   7.027 -0.4925 -0.0644 -0.1339
  774poe    c23 4962   6.687   0.189   6.970 -0.5604 -0.0529 -0.2686
  774poe    c23 4963   6.718   0.331   7.020 -0.1459 -0.2132 -0.0599
  774poe     o2 4964   6.616   0.424   6.988 -0.5891 -0.6536  0.0582
  774poe    c23 4965   6.645   0.561   7.010  0.1187 -0.7079 -0.4967
  774poe    c23 4966   6.527   0.643   6.954 -0.0397 -0.3741  0.3170
  774poe     o2 4967   6.406   0.587   6.999 -0.3412 -0.2542 -0.3311
  774poe    c31 4968   6.299   0.648   6.932 -0.0123  0.6390 -0.0505
  775poe    c31 4969   4.152   2.497   3.825  0.4396 -0.1688 -0.2404
  775poe     o2 4970   4.041   2.442   3.756  0.0822  0.0282  0.1785
  775poe    c23 4971   4.041   2.314   3.815 -0.1442 -0.3639 -0.6549
  775poe    c23 4972   3.921   2.244   3.750  0.0647 -0.9209 -0.4467
  775poe     o2 4973   3.923   2.271   3.612  0.4660 -0.2558 -0.3149
  775poe    c23 4974   3.820   2.210   3.537  0.0111  0.3211 -0.1743
  775poe    c23 4975   3.817   2.226   3.384 -0.2724 -0.0636 -0.2095
  775poe     o2 4976   3.926   2.156   3.328 -0.1145 -0.0693  0.1035
  775poe    c23 4977   3.945   2.152   3.189 -0.2663 -0.6200  0.0959
  775poe    c23 4978   3.917   2.280   3.109  0.6146 -0.1854  0.4716
  775poe     o2 4979   3.889   2.253   2.973  0.2666  1.0479  0.2817
  775poe    c31 4980   3.879   2.378   2.909 -0.5167  0.8939  0.0912
  776poe    c31 4981   5.628   1.626   0.151 -0.2068 -0.2457  0.4272
  776poe     o2 4982   5.709   1.713   0.076 -0.0985 -0.6211  0.1047
  776poe    c23 4983   5.840   1.670   0.047 -0.0730 -0.3382 -0.2011
  776poe    c23 4984   5.929   1.796   0.050 -0.1972 -0.2466 -0.3328
  776poe     o2 4985   5.881   1.913  -0.013 -0.5731 -0.1103  0.1891
  776poe    c23 4986   5.964   2.018   0.030 -0.2325 -0.3588  0.1506
  776poe    c23 4987   5.872   2.142   0.027 -0.4810 -0.5447  0.0517
  776poe     o2 4988   5.810   2.141  -0.100 -0.1605 -0.1972 -0.1115
  776poe    c23 4989   5.761   2.271  -0.123  0.1134 -0.1194 -0.2596
  776poe    c23 4990   5.661   2.233  -0.233  0.0379  0.0055 -0.2352
  776poe     o2 4991   5.605   2.104  -0.214  0.2990 -0.0827 -0.0625
  776poe    c31 4992   5.551   2.049  -0.332 -0.1123 -0.3824  0.2637
  777poe    c31 4993   1.508   2.401   3.295 -0.3763  0.2570  0.5616
  777poe     o2 4994   1.553   2.406   3.429 -0.7452 -0.3543  0.7084
  777poe    c23 4995   1.555   2.535   3.486  0.2856 -0.1993  0.3273
  777poe    c23 4996   1.438   2.597   3.564  0.0216 -0.1601 -0.0937
  777poe     o2 4997   1.411   2.542   3.691  0.1529  0.1733  0.0782
  777poe    c23 4998   1.309   2.623   3.746 -0.2470 -0.2844  0.0178
  777poe    c23 4999   1.287   2.586   3.894 -0.0831  0.6866  0.2925
  777poe     o2 5000   1.262   2.448   3.883  0.4196  0.6085  0.0972
  777poe    c23 5001   1.257   2.376   4.004 -0.5198  0.1677 -0.1908
  777poe    c23 5002   1.204   2.237   3.963 -0.1202  0.0446 -0.2985
  777poe     o2 5003   1.298   2.192   3.868 -0.5555 -0.6274 -0.4164
  777poe    c31 5004   1.283   2.055   3.838 -0.5111 -0.7805  0.2422
  778poe    c31 5005   0.929   2.412   2.964  0.3446  0.8241  0.0673
  778poe     o2 5006   0.830   2.489   2.900 -0.6671 -0.7644 -0.3326
  778poe    c23 5007   0.740   2.550   2.990 -0.3376  0.1525 -0.6177
  778poe    c23 5008   0.627   2.603   2.899 -0.4524  0.1168 -0.4948
  778poe     o2 5009   0.683   2.694   2.808 -0.3364  0.0024 -0.5373
  778poe    c23 5010   0.671   2.831   2.841  0.0170 -0.0529 -0.1730
  778poe    c23 5011   0.717   2.888   2.705 -0.2423  0.8478  0.1157
  778poe     o2 5012   0.857   2.882   2.721 -0.2732  0.5363  0.2851
  778poe    c23 5013   0.910   2.936   2.601  0.1731 -0.8666 -0.1663
  778poe    c23 5014   1.056   2.972   2.631 -0.1781  0.4732  0.0070
  778poe     o2 5015   1.118   2.865   2.701  0.0663  0.7176  0.1677
  778poe    c31 5016   1.253   2.904   2.710  0.2736 -0.0410  0.3744
  779poe    c31 5017   3.095   6.670   3.415  0.5085 -0.1044 -0.2477
  779poe     o2 5018   3.216   6.673   3.342  0.5032 -0.5955 -0.2824
  779poe    c23 5019   3.217   6.590   3.228 -0.6270  0.0305 -0.7677
  779poe    c23 5020   3.359   6.595   3.168 -0.4909  0.1581 -0.4340
  779poe     o2 5021   3.400   6.730   3.180 -0.0282  0.0625 -0.9398
  779poe    c23 5022   3.537   6.752   3.156  0.0772  0.5228  0.0540
  779poe    c23 5023   3.589   6.867   3.245  0.3706 -0.0799  0.6758
  779poe     o2 5024   3.502   6.882   3.354 -0.4831  0.0202 -0.0050
  779poe    c23 5025   3.543   6.983   3.444  0.2280 -0.3280  0.0697
  779poe    c23 5026   3.447   6.971   3.564  0.3343  0.1818  0.2082
  779poe     o2 5027   3.314   6.950   3.519  0.4532 -0.5119  0.1633
  779poe    c31 5028   3.227   6.964   3.629  0.3005  0.6187 -0.0807
  780poe    c31 5029   3.331   6.795   0.110  0.1471  0.2929 -0.1326
  780poe     o2 5030   3.458   6.735   0.114 -0.0562 -0.1162  0.2803
  780poe    c23 5031   3.519   6.768   0.237 -0.1688  0.2431  0.2408
  780poe    c23 5032   3.627   6.659   0.252 -0.2967  0.0666 -0.0984
  780poe     o2 5033   3.714   6.680   0.143  0.2131  0.1027  0.3089
  780poe    c23 5034   3.781   6.557   0.126  0.2166  0.1360  0.0736
  780poe    c23 5035   3.834   6.564  -0.018  0.2585  0.4361  0.1020
  780poe     o2 5036   3.736   6.627  -0.098 -0.1604 -0.1588  0.1389
  780poe    c23 5037   3.789   6.701  -0.205  0.0886  0.1969  0.5029
  780poe    c23 5038   3.664   6.770  -0.263 -0.0654 -0.6720 -0.2334
  780poe     o2 5039   3.563   6.804  -0.170  0.0300 -0.2097 -0.2952
  780poe    c31 5040   3.492   6.919  -0.212  0.0434  0.0522  0.3855
  781poe    c31 5041   2.691   2.745   4.116  0.1945 -0.2813  0.1140
  781poe     o2 5042   2.563   2.699   4.080  0.3514 -0.7553  0.1465
  781poe    c23 5043   2.577   2.586   3.997  0.2562 -0.4763 -0.2531
  781poe    c23 5044   2.441   2.526   3.955 -0.2765  0.2488  0.3992
  781poe     o2 5045   2.395   2.420   4.035  0.1525 -0.3109 -0.0844
  781poe    c23 5046   2.350   2.441   4.167  1.0504 -0.1185  0.1989
  781poe    c23 5047   2.280   2.313   4.215  0.6244  0.2624  0.6112
  781poe     o2 5048   2.350   2.208   4.152 -0.3129 -0.3370  0.5536
  781poe    c23 5049   2.314   2.082   4.204 -0.2119 -0.5427  0.1335
  781poe    c23 5050   2.392   1.970   4.132 -0.4746 -0.5840 -0.0887
  781poe     o2 5051   2.413   1.976   3.993 -0.2776 -0.1668 -0.0423
  781poe    c31 5052   2.501   1.878   3.942  0.1311 -0.1522  0.6067
  782poe    c31 5053   0.590   0.346   2.620  0.1422  0.0002  0.0991
  782poe     o2 5054   0.670   0.296   2.515 -0.1844 -0.0105 -0.1476
  782poe    c23 5055   0.802   0.341   2.533 -0.1070 -0.2357 -0.1545
  782poe    c23 5056   0.879   0.254   2.431  0.1427 -0.1235 -0.0638
  782poe     o2 5057   0.857   0.121   2.469 -0.2923 -0.0334  0.0125
  782poe    c23 5058   0.945   0.026   2.413  0.0737  0.4537 -0.2421
  782poe    c23 5059   0.921  -0.111   2.480 -0.4561  0.2921 -0.7570
  782poe     o2 5060   0.782  -0.134   2.473 -0.4308 -0.2502  0.2536
  782poe    c23 5061   0.746  -0.269   2.483  0.4690 -0.5123  0.0368
  782poe    c23 5062   0.791  -0.370   2.375 -0.2704 -0.7011 -0.0993
  782poe     o2 5063   0.922  -0.420   2.384 -0.0771 -0.0868  0.6265
  782poe    c31 5064   0.943  -0.523   2.478  0.2229 -0.6208 -0.0125
  783poe    c31 5065   1.225   6.034   5.308  0.5589  0.3971 -0.0390
  783poe     o2 5066   1.322   6.132   5.280  0.1734  0.6551 -0.4993
  783poe    c23 5067   1.282   6.249   5.348 -0.5048  0.1215  0.0282
  783poe    c23 5068   1.397   6.345   5.317 -0.1840 -0.1813  0.2694
  783poe     o2 5069   1.448   6.313   5.189 -0.0618  0.7110  0.0889
  783poe    c23 5070   1.548   6.409   5.160  0.0008  0.6113 -0.0215
  783poe    c23 5071   1.611   6.384   5.022 -0.2297 -0.5896  0.0821
  783poe     o2 5072   1.654   6.250   5.005  0.4097 -0.3340 -0.3566
  783poe    c23 5073   1.700   6.223   4.875  0.5546  0.1256 -0.4049
  783poe    c23 5074   1.787   6.096   4.859 -0.0483 -0.3814  0.2748
  783poe     o2 5075   1.698   5.988   4.878 -0.3594 -0.0582  0.6825
  783poe    c31 5076   1.755   5.860   4.889  0.1656  0.1869  0.8573
  784poe    c31 5077   2.506   6.842   2.543  0.3485 -0.4812  0.0612
  784poe     o2 5078   2.637   6.893   2.536  0.3433 -0.4980 -0.1512
  784poe    c23 5079   2.638   7.030   2.566 -0.3493 -0.4049 -0.5396
  784poe    c23 5080   2.764   7.100   2.513 -0.3776  0.1726  0.1280
  784poe     o2 5081   2.780   7.073   2.375  0.3214 -0.1787  0.2705
  784poe    c23 5082   2.883   7.136   2.302  0.0690 -0.1152 -0.0327
  784poe    c23 5083   2.891   7.069   2.163 -0.2554 -0.3608  0.0658
  784poe     o2 5084   2.914   6.931   2.175  0.7549 -0.1556  0.5513
  784poe    c23 5085   3.006   6.879   2.082  0.4885 -0.3593  0.4015
  784poe    c23 5086   2.994   6.726   2.072  0.3333 -0.3414  0.3071
  784poe     o2 5087   3.060   6.656   2.175  0.3860 -0.3309  0.2803
  784poe    c31 5088   3.154   6.562   2.128  0.5058 -0.2870  0.4290
  785poe    c31 5089   1.804   2.348   1.893 -0.0882  0.1107 -0.9178
  785poe     o2 5090   1.896   2.268   1.820  0.4885 -0.2133  0.1450
  785poe    c23 5091   2.001   2.339   1.760  0.2932 -0.0249  0.0244
  785poe    c23 5092   2.061   2.239   1.659  0.1905  0.0665 -0.1268
  785poe     o2 5093   1.989   2.191   1.547  0.4470 -0.1465 -0.2007
  785poe    c23 5094   2.074   2.115   1.465  0.1722 -0.8200  0.1300
  785poe    c23 5095   2.039   2.135   1.316  0.3949 -0.2506  0.1515
  785poe     o2 5096   1.899   2.139   1.310  0.4197 -0.3150 -0.6151
  785poe    c23 5097   1.846   2.198   1.193 -0.7113  0.3074  0.1833
  785poe    c23 5098   1.694   2.188   1.175 -0.5905 -0.8286 -0.2773
  785poe     o2 5099   1.630   2.267   1.273  0.3095  0.0561 -0.3908
  785poe    c31 5100   1.491   2.245   1.274  0.4050 -0.5500 -0.2114
  786poe    c31 5101   1.060   3.370   2.543  0.0620  0.0838  0.3518
  786poe     o2 5102   1.089   3.407   2.675 -0.2180  0.5063  0.2974
  786poe    c23 5103   1.182   3.513   2.677 -0.1856  0.4784  0.2783
  786poe    c23 5104   1.261   3.504   2.809  0.1771 -0.3154  0.0093
  786poe     o2 5105   1.185   3.526   2.926 -0.1106 -0.0910 -0.2188
  786poe    c23 5106   1.183   3.660   2.972 -0.1366 -0.1703  0.0102
  786poe    c23 5107   1.130   3.678   3.115 -0.2144  1.0197 -0.1594
  786poe     o2 5108   1.008   3.614   3.145  0.2856  0.1631  0.1047
  786poe    c23 5109   0.887   3.672   3.103  0.0352 -0.3948  0.0518
  786poe    c23 5110   0.781   3.599   3.188  0.2878 -0.5618  0.2216
  786poe     o2 5111   0.788   3.461   3.160  0.0607 -0.4807 -0.2576
  786poe    c31 5112   0.654   3.419   3.156 -0.4671  1.1180  0.0617
  787poe    c31 5113   0.494   5.055   1.168 -0.1678 -0.4791  0.0905
  787poe     o2 5114   0.379   5.120   1.120  0.0886 -0.0055  0.1158
  787poe    c23 5115   0.381   5.167   0.986 -0.5733  0.5782  0.3031
  787poe    c23 5116   0.338   5.051   0.895  0.3079  0.4418  0.0522
  787poe     o2 5117   0.203   5.017   0.918  0.3770 -0.1481 -0.3706
  787poe    c23 5118   0.148   4.953   0.805 -0.0461 -0.0636 -0.2135
  787poe    c23 5119   0.005   4.906   0.839 -0.0277 -0.0122 -0.0649
  787poe     o2 5120   0.011   4.809   0.941 -0.3382 -0.9715 -0.9502
  787poe    c23 5121  -0.110   4.813   1.013  0.2587  0.2993  0.0007
  787poe    c23 5122  -0.120   4.717   1.133 -0.5301  0.5895  0.1722
  787poe     o2 5123   0.008   4.723   1.192 -0.4867  0.1880  0.1223
  787poe    c31 5124   0.015   4.647   1.310 -0.3341 -0.2768 -0.1847
  788poe    c31 5125   5.565   5.374   1.031  0.9375  0.2102  1.1047
  788poe     o2 5126   5.452   5.365   1.116  0.0325  0.8256 -0.0009
  788poe    c23 5127   5.511   5.330   1.239  0.1815  0.5815 -0.1389
  788poe    c23 5128   5.411   5.260   1.333 -0.0912  0.0724 -0.7988
  788poe     o2 5129   5.386   5.129   1.287 -0.0619 -0.1389 -0.2263
  788poe    c23 5130   5.250   5.094   1.283  0.0135 -0.4747  0.1014
  788poe    c23 5131   5.217   5.045   1.140  0.6534 -0.1830 -0.1492
  788poe     o2 5132   5.230   5.146   1.043 -0.4457  0.1518  0.0383
  788poe    c23 5133   5.179   5.108   0.918 -0.5381  0.3130  0.0259
  788poe    c23 5134   5.179   5.223   0.816 -0.1059  0.3843  0.1041
  788poe     o2 5135   5.292   5.307   0.827  0.1050  0.0844  0.2421
  788poe    c31 5136   5.317   5.376   0.706  0.2880  0.1612  0.3239
  789poe    c31 5137   5.895   1.214   3.057 -0.8410 -0.5554 -1.1710
  789poe     o2 5138   5.986   1.304   2.999  0.0605 -0.7595 -0.1083
  789poe    c23 5139   6.109   1.266   3.057  0.2722  0.2739  0.1508
  789poe    c23 5140   6.220   1.287   2.953  0.4373  0.2573  0.3233
  789poe     o2 5141   6.198   1.421   2.917 -0.3101  0.0843  0.1229
  789poe    c23 5142   6.292   1.445   2.815 -0.4593 -0.4815 -0.1483
  789poe    c23 5143   6.220   1.562   2.745  0.2679  0.1639  0.1690
  789poe     o2 5144   6.097   1.499   2.718  0.1592  0.2572  0.4455
  789poe    c23 5145   5.998   1.575   2.652  0.3034  0.1875  0.1465
  789poe    c23 5146   5.877   1.621   2.735  0.1018 -0.0197 -0.0312
  789poe     o2 5147   5.887   1.552   2.857  0.3160 -0.3184 -0.2171
  789poe    c31 5148   5.765   1.563   2.927  0.3026 -0.3703 -0.2321
  790poe    c31 5149   4.799   5.401   0.439 -0.0525  0.0850  0.0466
  790poe     o2 5150   4.701   5.501   0.421 -0.1683 -0.0469 -0.0649
  790poe    c23 5151   4.666   5.526   0.287 -0.7969 -0.3263  0.0470
  790poe    c23 5152   4.559   5.636   0.304 -0.3102  0.2510 -0.6194
  790poe     o2 5153   4.463   5.580   0.390  0.5982  0.0763  0.2982
  790poe    c23 5154   4.362   5.667   0.433  0.6683  0.3481 -0.0847
  790poe    c23 5155   4.310   5.614   0.568 -0.3043 -0.3659 -0.7220
  790poe     o2 5156   4.401   5.517   0.613 -0.2024  0.2376  0.4074
  790poe    c23 5157   4.362   5.461   0.737 -0.2206 -0.1769  0.2178
  790poe    c23 5158   4.492   5.384   0.766  0.1725  0.3276 -0.1823
  790poe     o2 5159   4.540   5.336   0.643 -0.3709 -0.1675 -0.2019
  790poe    c31 5160   4.609   5.221   0.687 -0.2899  0.2004  0.6455
  791poe    c31 5161   4.773   4.372   6.389  0.2476  0.8161 -0.2605
  791poe     o2 5162   4.643   4.329   6.355  0.3677 -0.0464  0.3312
  791poe    c23 5163   4.655   4.207   6.285  0.2699  0.1242  0.0152
  791poe    c23 5164   4.521   4.194   6.210  0.3217  0.1617 -0.0850
  791poe     o2 5165   4.417   4.216   6.304 -0.0117 -0.4505 -0.3057
  791poe    c23 5166   4.300   4.171   6.240 -0.3077 -0.0712 -0.0309
  791poe    c23 5167   4.166   4.192   6.314 -0.0523 -0.0499  0.4304
  791poe     o2 5168   4.157   4.330   6.341  0.3746  0.0961 -0.1469
  791poe    c23 5169   4.077   4.347   6.456  0.2993 -0.4969 -0.1108
  791poe    c23 5170   4.101   4.480   6.529 -0.1428 -0.4771  0.0023
  791poe     o2 5171   4.231   4.510   6.578 -0.2832 -0.2315  0.2289
  791poe    c31 5172   4.206   4.583   6.696  0.5608  0.4162  0.0105
  792poe    c31 5173   1.532   3.790   1.882  0.0349  0.0360  0.5058
  792poe     o2 5174   1.414   3.713   1.883  0.0128  0.0338 -0.7395
  792poe    c23 5175   1.398   3.652   1.758 -0.1510  0.1388 -0.7701
  792poe    c23 5176   1.313   3.523   1.756  0.5618 -0.3551  0.1034
  792poe     o2 5177   1.195   3.525   1.833  0.4264 -0.4609 -0.0987
  792poe    c23 5178   1.097   3.432   1.792  0.7878 -0.7909 -0.2210
  792poe    c23 5179   1.042   3.381   1.926 -0.5416 -0.2663 -0.5491
  792poe     o2 5180   0.988   3.488   2.001  0.7085 -0.1277  0.1768
  792poe    c23 5181   0.967   3.439   2.131  0.0993  0.1830  0.1965
  792poe    c23 5182   0.968   3.563   2.222 -0.1920 -0.0288  0.4895
  792poe     o2 5183   1.081   3.647   2.213 -0.4216  0.2091 -0.2494
  792poe    c31 5184   1.079   3.735   2.323 -0.2047  0.8042 -0.7178
  793poe    c31 5185   1.291   2.117   2.363 -0.2737  0.6989 -0.0462
  793poe     o2 5186   1.356   2.156   2.245  0.3286 -0.1529 -0.0049
  793poe    c23 5187   1.460   2.245   2.282 -0.0593  0.3862 -0.1955
  793poe    c23 5188   1.447   2.381   2.211 -0.2479  0.3742 -0.1846
  793poe     o2 5189   1.469   2.352   2.075  0.3874  0.1944 -0.0463
  793poe    c23 5190   1.478   2.475   2.007  0.0789 -0.0094 -0.4653
  793poe    c23 5191   1.343   2.538   1.968  0.4811  0.5785 -0.9197
  793poe     o2 5192   1.279   2.470   1.863 -0.1596 -0.0616 -0.1228
  793poe    c23 5193   1.171   2.543   1.809  0.1120  0.1458 -0.3846
  793poe    c23 5194   1.144   2.538   1.658  0.0675 -0.0512 -0.3697
  793poe     o2 5195   1.255   2.591   1.588  0.3191 -0.4473 -0.2807
  793poe    c31 5196   1.251   2.572   1.448 -0.1517 -0.9966 -0.1981
  794poe    c31 5197   5.408   1.102   1.291 -0.7131  0.1832  0.0711
  794poe     o2 5198   5.445   1.111   1.155  0.0821 -0.8708  0.2054
  794poe    c23 5199   5.581   1.087   1.125  0.1315  0.5177 -0.7562
  794poe    c23 5200   5.577   1.102   0.971  0.0352  0.0758 -0.7980
  794poe     o2 5201   5.532   1.228   0.926 -0.8335 -0.0002 -0.1768
  794poe    c23 5202   5.516   1.239   0.787  0.3132 -0.0796 -0.3263
  794poe    c23 5203   5.507   1.392   0.769 -0.2460 -0.0826 -0.0859
  794poe     o2 5204   5.414   1.438   0.864 -0.1636 -0.2993  0.1004
  794poe    c23 5205   5.331   1.539   0.811  0.5794  0.4194  0.2734
  794poe    c23 5206   5.220   1.594   0.902 -0.1001 -0.2362 -0.1432
  794poe     o2 5207   5.119   1.499   0.926 -0.3371 -0.1494 -0.7847
  794poe    c31 5208   4.998   1.556   0.971  0.4850  0.6070  0.5381
  795poe    c31 5209   2.125   6.530   2.678 -0.4564  0.4590 -0.2039
  795poe     o2 5210   2.027   6.462   2.752  0.0757  0.1498  0.2223
  795poe    c23 5211   2.032   6.498   2.888 -0.0135  0.6017  0.1059
  795poe    c23 5212   1.904   6.444   2.955  0.5424 -0.3735  0.3992
  795poe     o2 5213   1.895   6.316   2.896 -0.2206 -0.0237 -0.2604
  795poe    c23 5214   1.774   6.267   2.948  0.0030 -0.0815  0.2063
  795poe    c23 5215   1.764   6.133   2.873  0.2107  0.3376 -0.5804
  795poe     o2 5216   1.779   6.170   2.738 -0.2208 -0.1610 -0.7700
  795poe    c23 5217   1.823   6.067   2.652 -0.1511 -0.4380 -0.4050
  795poe    c23 5218   1.976   6.047   2.649 -0.1012 -0.2298  0.3365
  795poe     o2 5219   2.037   6.174   2.640 -0.2534 -0.1913 -0.1909
  795poe    c31 5220   2.163   6.168   2.578 -0.3563 -0.1737 -0.4039
  796poe    c31 5221   4.285   0.733   1.930  0.3888  0.3054 -0.0582
  796poe     o2 5222   4.377   0.663   2.011  0.5573  0.8021  0.1850
  796poe    c23 5223   4.308   0.570   2.092  0.4354  0.2632 -0.5269
  796poe    c23 5224   4.411   0.492   2.177  0.0474  0.0233 -0.2696
  796poe     o2 5225   4.507   0.589   2.213 -0.0237 -0.0981  0.2469
  796poe    c23 5226   4.631   0.539   2.257 -0.0689 -0.2135  0.2437
  796poe    c23 5227   4.723   0.657   2.295  0.3433 -0.3974 -0.1840
  796poe     o2 5228   4.711   0.755   2.194 -0.0372  0.0953  0.3329
  796poe    c23 5229   4.817   0.848   2.202  0.1700 -0.1246  0.1496
  796poe    c23 5230   4.813   0.962   2.099 -0.5070 -0.1728  0.1177
  796poe     o2 5231   4.699   1.043   2.120 -0.2916  0.1309  0.1216
  796poe    c31 5232   4.741   1.175   2.091  0.8926 -0.2331  0.1149
  797poe    c31 5233   0.936   5.348   4.503  0.6313  0.0715  0.4734
  797poe     o2 5234   0.938   5.422   4.622 -0.6077  0.5503  0.2032
  797poe    c23 5235   0.868   5.341   4.715  0.0607 -0.7217 -0.3760
  797poe    c23 5236   0.846   5.424   4.843 -0.2610 -0.0848 -0.8386
  797poe     o2 5237   0.964   5.464   4.910 -0.7015  0.4596 -0.3735
  797poe    c23 5238   0.942   5.551   5.018  0.1409  0.0538  0.1335
  797poe    c23 5239   1.079   5.563   5.087  0.0307 -0.6518  0.4886
  797poe     o2 5240   1.169   5.593   4.983 -0.2523 -0.0621  0.4068
  797poe    c23 5241   1.294   5.616   5.046 -0.2091  0.2323  0.2134
  797poe    c23 5242   1.408   5.636   4.944 -0.4518 -0.2459 -0.1581
  797poe     o2 5243   1.372   5.558   4.833  0.3379 -0.1893 -0.4597
  797poe    c31 5244   1.434   5.577   4.708  0.7221  0.8055 -0.1203
  798poe    c31 5245   4.185   1.229   1.075 -0.5588  0.3705 -0.3952
  798poe     o2 5246   4.271   1.340   1.065 -0.0816  0.0608  0.1598
  798poe    c23 5247   4.348   1.340   1.183 -0.3008  0.5374  0.3047
  798poe    c23 5248   4.486   1.407   1.168  0.0462 -0.1514  0.3687
  798poe     o2 5249   4.480   1.542   1.125  0.0124 -0.2444  0.0792
  798poe    c23 5250   4.613   1.587   1.116  0.0935 -0.5622 -0.3312
  798poe    c23 5251   4.615   1.713   1.027 -0.3166 -0.3939 -0.1054
  798poe     o2 5252   4.514   1.803   1.068  0.2031  0.2197 -0.1536
  798poe    c23 5253   4.498   1.913   0.981  0.1820  0.1044 -0.2960
  798poe    c23 5254   4.408   2.018   1.049  0.1750  0.1519 -0.3784
  798poe     o2 5255   4.294   1.949   1.092  0.2232  0.2016 -0.1726
  798poe    c31 5256   4.190   2.034   1.136 -0.0812 -0.3781  0.2465
  799poe    c31 5257   2.551   1.475   5.354  0.8194  0.0009  0.1667
  799poe     o2 5258   2.627   1.513   5.466  0.0558 -0.0114  0.6955
  799poe    c23 5259   2.652   1.400   5.547 -0.3217 -0.5010  0.1337
  799poe    c23 5260   2.748   1.435   5.662 -0.2020 -0.4007  0.0038
  799poe     o2 5261   2.679   1.524   5.746  0.1808 -0.3178  0.2341
  799poe    c23 5262   2.777   1.588   5.825  0.0290  0.6815 -0.3736
  799poe    c23 5263   2.716   1.664   5.944 -0.0831 -0.1570  0.1123
  799poe     o2 5264   2.625   1.760   5.897 -0.5615 -0.5106  0.3093
  799poe    c23 5265   2.544   1.815   5.998  0.0545  0.3261  0.3578
  799poe    c23 5266   2.425   1.883   5.928  0.1745 -0.0909 -0.2632
  799poe     o2 5267   2.386   1.794   5.827  0.2710  0.3370 -0.6829
  799poe    c31 5268   2.264   1.839   5.772 -0.6519 -0.3950  0.7101
  800poe    c31 5269   1.392   4.307   3.725  0.2230  0.2869 -0.2142
  800poe     o2 5270   1.452   4.225   3.628 -0.1311  0.0756 -0.2556
  800poe    c23 5271   1.582   4.179   3.659 -0.0169  0.3649 -0.3089
  800poe    c23 5272   1.622   4.061   3.569 -0.3368  0.1665 -0.1910
  800poe     o2 5273   1.510   3.980   3.543 -0.1203 -0.1376 -0.1885
  800poe    c23 5274   1.533   3.857   3.478 -0.3835 -0.5470  0.4747
  800poe    c23 5275   1.585   3.742   3.566  0.0360 -0.5179  0.2679
  800poe     o2 5276   1.477   3.681   3.633 -0.3684 -0.1220 -0.0108
  800poe    c23 5277   1.522   3.584   3.726  1.1405  0.3659 -0.1940
  800poe    c23 5278   1.565   3.444   3.680 -0.2186  0.1739 -0.9245
  800poe     o2 5279   1.462   3.356   3.639 -0.4252 -0.0380  0.0376
  800poe    c31 5280   1.524   3.237   3.598 -0.3866 -0.1645  0.4606
  801poe    c31 5281   0.250   3.610   1.702  0.2974  0.5510  0.7322
  801poe     o2 5282   0.131   3.682   1.679 -0.0282 -0.2757 -0.2404
  801poe    c23 5283   0.075   3.623   1.563 -0.2619 -0.3936 -0.0677
  801poe    c23 5284  -0.050   3.710   1.538  0.1382  0.2534  0.1342
  801poe     o2 5285  -0.102   3.742   1.664  0.2133 -0.0175  0.2358
  801poe    c23 5286  -0.208   3.828   1.631  0.1417 -0.2073 -0.0295
  801poe    c23 5287  -0.208   3.922   1.753 -0.2898  0.1697 -0.3159
  801poe     o2 5288  -0.071   3.937   1.782 -0.2290 -0.4449 -0.2774
  801poe    c23 5289  -0.029   4.057   1.844 -0.2341 -0.8443  0.5173
  801poe    c23 5290   0.073   4.016   1.952  0.3801  0.3487  0.4062
  801poe     o2 5291   0.152   3.908   1.906  0.0343  0.3399 -0.1747
  801poe    c31 5292   0.277   3.898   1.970  0.2319 -0.1210 -0.6263
  802poe    c31 5293   6.092   1.463   1.086 -0.1303 -0.1635  0.4863
  802poe     o2 5294   6.063   1.601   1.097  0.0828 -0.1182  0.4856
  802poe    c23 5295   6.029   1.641   0.966  1.1859  0.0099  0.2258
  802poe    c23 5296   6.042   1.795   0.968 -0.3528  0.1703 -0.6047
  802poe     o2 5297   5.973   1.839   1.083  0.2914 -0.2928 -0.0338
  802poe    c23 5298   5.983   1.976   1.112 -0.4121 -0.2360 -0.0491
  802poe    c23 5299   5.891   1.991   1.234  0.5104  0.3458  0.5893
  802poe     o2 5300   5.945   1.894   1.320  0.2899 -0.2449  0.0708
  802poe    c23 5301   5.852   1.833   1.408  0.2537  0.1516  0.3101
  802poe    c23 5302   5.923   1.710   1.468 -0.5731 -0.3524  0.2626
  802poe     o2 5303   6.009   1.650   1.375  0.3806  0.5904  0.5097
  802poe    c31 5304   6.059   1.526   1.420 -0.2653  0.3694  0.6393
  803poe    c31 5305   1.172   2.629   5.628  0.6128  0.4033  0.6388
  803poe     o2 5306   1.049   2.652   5.694  0.2727 -0.3344  0.2762
  803poe    c23 5307   1.096   2.712   5.812  0.2270  0.3374 -0.0430
  803poe    c23 5308   0.995   2.770   5.913 -0.5069 -0.4144 -0.3330
  803poe     o2 5309   0.908   2.848   5.833 -0.4848 -0.3853 -0.3288
  803poe    c23 5310   0.783   2.867   5.895 -0.2063  0.3537  0.0146
  803poe    c23 5311   0.678   2.934   5.804 -0.6383 -0.7436 -0.3140
  803poe     o2 5312   0.680   2.860   5.684  0.5623 -0.0252 -0.7567
  803poe    c23 5313   0.559   2.875   5.614 -0.2571  0.1310  0.6548
  803poe    c23 5314   0.520   2.740   5.549 -0.0236  0.4435 -0.1475
  803poe     o2 5315   0.589   2.734   5.426  0.3327  0.1858  0.0619
  803poe    c31 5316   0.542   2.627   5.348  0.1644  0.3456 -0.0561
  804poe    c31 5317   0.215   3.571   0.923  0.4292  0.7164 -0.3507
  804poe     o2 5318   0.134   3.682   0.889 -0.3404  0.0105 -0.8542
  804poe    c23 5319   0.176   3.800   0.954 -0.5380 -0.3355 -0.0858
  804poe    c23 5320   0.109   3.924   0.891  0.2139  0.1058 -0.0239
  804poe     o2 5321   0.143   3.931   0.754 -0.0289 -0.3457 -0.1113
  804poe    c23 5322   0.069   4.038   0.699  0.2397  0.0598  0.3001
  804poe    c23 5323   0.107   4.047   0.550 -0.7327  0.4619  0.0682
  804poe     o2 5324   0.117   3.925   0.480 -0.7166  0.5518 -0.0867
  804poe    c23 5325   0.167   3.929   0.348  0.0569 -0.7126  0.1487
  804poe    c23 5326   0.187   3.786   0.296 -0.2791 -0.6981 -0.0223
  804poe     o2 5327   0.228   3.684   0.384  0.3092 -0.3902  0.0652
  804poe    c31 5328   0.229   3.557   0.322 -0.1935 -0.2622 -0.2115
  805poe    c31 5329   6.012   3.988   5.539 -0.1171 -0.2046  0.6404
  805poe     o2 5330   6.139   3.929   5.559  0.0501 -0.1530 -0.2110
  805poe    c23 5331   6.183   3.976   5.684 -0.4486 -0.0099 -0.0856
  805poe    c23 5332   6.133   3.897   5.807  0.3479  0.8639  0.8242
  805poe     o2 5333   6.178   3.764   5.817 -0.2738  0.5669 -0.1942
  805poe    c23 5334   6.115   3.696   5.923  0.0298  0.1129 -0.2979
  805poe    c23 5335   6.129   3.544   5.911  0.0865  0.0625  0.3729
  805poe     o2 5336   6.257   3.515   5.964  0.0367  0.2590  0.6040
  805poe    c23 5337   6.276   3.375   5.956 -0.4824  0.2160  0.0389
  805poe    c23 5338   6.397   3.359   6.050  0.0610  0.3498 -0.6300
  805poe     o2 5339   6.505   3.443   6.016  0.2269  0.4215  0.0581
  805poe    c31 5340   6.613   3.426   6.105  0.1205  0.2143  0.1478
  806poe    c31 5341   1.590   6.401   1.523 -0.0269  0.0554 -0.1971
  806poe     o2 5342   1.717   6.411   1.584 -0.1953  0.1140  0.1442
  806poe    c23 5343   1.818   6.373   1.494  0.0889 -0.0473  0.5264
  806poe    c23 5344   1.958   6.345   1.551  0.2939 -0.0311  0.0360
  806poe     o2 5345   1.999   6.462   1.618  0.7994  0.3580 -0.9304
  806poe    c23 5346   2.108   6.431   1.702  0.6183  0.5337 -0.6290
  806poe    c23 5347   2.166   6.559   1.764 -0.2720  0.2113  0.9244
  806poe     o2 5348   2.065   6.655   1.787 -0.1396  0.3815  0.8029
  806poe    c23 5349   2.117   6.780   1.824 -0.0379  0.3867  0.6464
  806poe    c23 5350   1.993   6.859   1.871  0.1697  0.8689  0.3900
  806poe     o2 5351   1.881   6.818   1.797  0.1157  0.4012  0.7233
  806poe    c31 5352   1.767   6.897   1.824 -0.4305 -0.1522  0.0665
  807poe    c31 5353   1.602   2.271   6.160  0.9351  0.2536  0.4444
  807poe     o2 5354   1.613   2.151   6.233 -0.1072 -0.2365 -0.1746
  807poe    c23 5355   1.582   2.040   6.151  0.3404 -0.4720 -0.0315
  807poe    c23 5356   1.714   1.964   6.130  0.6105  0.0163 -0.1283
  807poe     o2 5357   1.740   1.924   6.263  0.3115 -0.2394 -0.1457
  807poe    c23 5358   1.877   1.917   6.292  0.2975  0.1069  0.0062
  807poe    c23 5359   1.893   1.975   6.434  0.0382 -0.2855  0.1972
  807poe     o2 5360   1.820   2.095   6.448  0.3101 -0.1746  0.7116
  807poe    c23 5361   1.865   2.154   6.567  0.0205  0.0662  0.7046
  807poe    c23 5362   1.812   2.298   6.567 -0.0211  0.0570 -0.5370
  807poe     o2 5363   1.676   2.289   6.533  0.0609  0.3099 -0.9391
  807poe    c31 5364   1.618   2.416   6.512 -0.3018  0.3260  0.1122
  808poe    c31 5365   2.591   3.313   4.873 -0.2260 -0.1122  0.4745
  808poe     o2 5366   2.697   3.330   4.781 -0.4528  0.3751  0.2957
  808poe    c23 5367   2.770   3.211   4.761 -0.3619  0.6756 -1.2357
  808poe    c23 5368   2.920   3.245   4.751 -0.0606 -0.0820  0.4380
  808poe     o2 5369   2.907   3.338   4.646  0.0891 -0.5580  0.0011
  808poe    c23 5370   3.024   3.383   4.580  0.1337 -0.1411  0.3643
  808poe    c23 5371   2.972   3.506   4.505 -0.4645 -0.5333  0.1278
  808poe     o2 5372   2.878   3.574   4.585 -0.0057  0.4443 -0.1437
  808poe    c23 5373   2.816   3.688   4.531 -0.8728  0.2505  0.4232
  808poe    c23 5374   2.670   3.646   4.505 -0.7482 -0.1585  0.3807
  808poe     o2 5375   2.634   3.571   4.619  0.1280 -0.3600  0.5326
  808poe    c31 5376   2.503   3.522   4.599  0.1816 -0.3946  0.2678
  809poe    c31 5377   5.157   3.283   5.696  0.7210 -0.1249  0.2335
  809poe     o2 5378   5.044   3.204   5.668  0.3340  0.5130 -0.0534
  809poe    c23 5379   4.920   3.269   5.659 -0.0273 -0.1788 -0.1564
  809poe    c23 5380   4.838   3.265   5.790 -0.0191 -0.0369 -0.1465
  809poe     o2 5381   4.811   3.131   5.823 -0.0770 -0.0417 -0.2126
  809poe    c23 5382   4.756   3.121   5.953  0.4895 -0.6380 -0.0128
  809poe    c23 5383   4.768   2.991   6.035  0.2907 -0.7752 -0.1984
  809poe     o2 5384   4.759   2.882   5.946  0.6735 -0.7641 -0.2527
  809poe    c23 5385   4.711   2.762   6.003  0.4026 -0.0874  0.9864
  809poe    c23 5386   4.716   2.658   5.889  0.5805  0.2514  0.6828
  809poe     o2 5387   4.789   2.713   5.781  0.0426 -0.3481  0.0123
  809poe    c31 5388   4.831   2.612   5.692  0.4190 -0.3467  0.1867
  810poe    c31 5389   4.136   3.401   6.430 -0.2577 -0.0024  0.0754
  810poe     o2 5390   4.255   3.327   6.417 -0.2138 -0.0291  0.5890
  810poe    c23 5391   4.340   3.423   6.359 -0.1313 -0.0640  0.6544
  810poe    c23 5392   4.463   3.368   6.285 -0.5844 -0.1479 -0.0418
  810poe     o2 5393   4.488   3.248   6.355  0.3294  0.4105  0.6220
  810poe    c23 5394   4.585   3.170   6.290  0.1136  0.2729  0.4596
  810poe    c23 5395   4.599   3.045   6.379 -0.3148 -0.2457 -0.1980
  810poe     o2 5396   4.471   2.989   6.396 -0.3650 -0.0079  0.2127
  810poe    c23 5397   4.462   2.852   6.428 -0.0908  0.0105  0.3680
  810poe    c23 5398   4.339   2.773   6.380  0.0507  0.1816 -0.2770
  810poe     o2 5399   4.221   2.836   6.427  0.0475  0.1300 -0.2162
  810poe    c31 5400   4.105   2.783   6.367  0.0253  0.4510 -0.4650
  811poe    c31 5401   5.126   5.675   0.612  0.4030 -0.3598  0.1497
  811poe     o2 5402   5.217   5.675   0.505  0.1212 -0.1089 -0.0906
  811poe    c23 5403   5.348   5.693   0.552 -0.0820  0.3729  0.2947
  811poe    c23 5404   5.427   5.748   0.432 -0.2146 -0.0827 -0.0056
  811poe     o2 5405   5.347   5.845   0.369  0.2692  0.4893  0.2434
  811poe    c23 5406   5.417   5.935   0.286 -0.4143  0.4534 -0.3887
  811poe    c23 5407   5.327   5.989   0.174 -0.2635  0.3493 -0.5597
  811poe     o2 5408   5.239   5.887   0.134 -0.0684  0.0018 -0.1088
  811poe    c23 5409   5.157   5.906   0.021 -0.1781  0.1985  0.0026
  811poe    c23 5410   5.055   6.022   0.029  0.0054  0.3602  0.0022
  811poe     o2 5411   4.955   6.002   0.125 -0.4582 -0.1052 -0.5689
  811poe    c31 5412   4.862   6.108   0.128 -0.1748  0.1344 -0.2364
  812poe    c31 5413   1.531   3.129   2.856 -0.3165 -0.3741  0.2298
  812poe     o2 5414   1.584   3.139   2.986  0.2157 -0.0987 -0.0029
  812poe    c23 5415   1.478   3.091   3.066  0.0707  0.6550  0.2636
  812poe    c23 5416   1.542   3.049   3.200 -0.0197 -0.2569  0.0283
  812poe     o2 5417   1.636   3.144   3.244 -0.4505  0.1708  0.0436
  812poe    c23 5418   1.741   3.084   3.317 -0.0684  0.2201 -0.4638
  812poe    c23 5419   1.848   3.194   3.329  0.0470  0.0262  0.3208
  812poe     o2 5420   1.868   3.252   3.202 -0.0688 -0.8829 -0.1231
  812poe    c23 5421   2.000   3.279   3.161 -0.1071  0.1258  0.3651
  812poe    c23 5422   1.987   3.368   3.036 -0.6785 -0.4540  0.0044
  812poe     o2 5423   1.896   3.294   2.959 -0.2824 -0.7279 -0.2029
  812poe    c31 5424   1.888   3.338   2.825 -0.4301 -0.2701 -0.0429
  813poe    c31 5425   1.760   2.321   5.508 -0.4417 -0.4535  0.3571
  813poe     o2 5426   1.646   2.347   5.430  0.1389 -0.1201 -0.3916
  813poe    c23 5427   1.545   2.407   5.508  0.6309  0.0641  0.1045
  813poe    c23 5428   1.432   2.321   5.567  0.6253  0.1044  0.1521
  813poe     o2 5429   1.382   2.248   5.457 -0.0897  0.3651  0.2949
  813poe    c23 5430   1.334   2.118   5.483  1.0043  0.0261  0.6930
  813poe    c23 5431   1.363   2.038   5.355  0.2657 -0.4712  0.8333
  813poe     o2 5432   1.501   2.061   5.336  0.0502 -0.1875 -0.5354
  813poe    c23 5433   1.533   1.967   5.236  0.4355 -0.5017 -0.1261
  813poe    c23 5434   1.667   2.022   5.185  0.1041 -0.1938 -0.6757
  813poe     o2 5435   1.675   2.163   5.195 -0.1319 -0.2223 -0.0649
  813poe    c31 5436   1.794   2.219   5.145 -0.9090  1.2730 -0.2811
  814poe    c31 5437   0.772   2.175   4.497  0.7822 -0.0614 -0.4894
  814poe     o2 5438   0.754   2.099   4.379 -0.2405 -0.5958 -0.0018
  814poe    c23 5439   0.624   2.045   4.383 -0.1576 -0.7452  0.8037
  814poe    c23 5440   0.607   1.940   4.271  0.0901 -0.4579  0.4921
  814poe     o2 5441   0.542   1.986   4.155 -0.1756 -0.6101  0.5770
  814poe    c23 5442   0.507   1.888   4.060  0.4049  0.3681 -0.6906
  814poe    c23 5443   0.389   1.939   3.975 -0.1193  0.0707 -0.1553
  814poe     o2 5444   0.267   1.952   4.043 -0.2326 -0.6562 -0.2167
  814poe    c23 5445   0.162   2.000   3.962 -0.1186 -0.4205 -0.2231
  814poe    c23 5446   0.027   1.977   4.031 -0.2883  0.9076 -0.0730
  814poe     o2 5447   0.033   2.037   4.159  0.2105  0.6174  0.0410
  814poe    c31 5448  -0.086   2.109   4.177 -0.1413  0.1459 -0.3553
  815poe    c31 5449   0.146   0.313   1.061  0.1856  0.5431 -0.2679
  815poe     o2 5450   0.240   0.396   1.125 -0.1360  0.7883 -0.1110
  815poe    c23 5451   0.345   0.440   1.042  0.1999  0.0019 -0.1076
  815poe    c23 5452   0.364   0.591   1.061  0.2206 -0.0483  0.2650
  815poe     o2 5453   0.419   0.617   1.188  0.2017 -0.1098  0.2860
  815poe    c23 5454   0.422   0.757   1.207 -0.0247 -0.0694  0.0260
  815poe    c23 5455   0.501   0.776   1.338 -0.3574  0.1288  0.1989
  815poe     o2 5456   0.441   0.697   1.438 -0.1149 -0.5640 -0.2026
  815poe    c23 5457   0.462   0.734   1.572 -0.4640 -0.5713 -0.1468
  815poe    c23 5458   0.373   0.633   1.648 -0.7282 -0.0606  0.2339
  815poe     o2 5459   0.436   0.508   1.629  0.3349  0.4823  0.1295
  815poe    c31 5460   0.379   0.413   1.716 -0.0591  0.3434 -0.2808
  816poe    c31 5461   0.113   4.649   3.234  0.6173  0.4322 -0.3491
  816poe     o2 5462  -0.015   4.604   3.193  0.6354  0.0591  0.0009
  816poe    c23 5463  -0.020   4.465   3.216 -0.5944  0.1709  0.4689
  816poe    c23 5464  -0.137   4.409   3.133 -0.3944 -0.3981  0.5617
  816poe     o2 5465  -0.155   4.272   3.161  0.4216 -0.6149  0.0571
  816poe    c23 5466  -0.234   4.227   3.054  0.6045 -0.0236 -0.3298
  816poe    c23 5467  -0.263   4.077   3.070 -0.2302  0.1494 -0.1669
  816poe     o2 5468  -0.136   4.017   3.085 -0.1168  0.3832 -0.1794
  816poe    c23 5469  -0.137   3.902   3.166  0.1928  0.1231 -0.5388
  816poe    c23 5470  -0.001   3.831   3.150  0.3859  0.2958  0.2621
  816poe     o2 5471   0.109   3.918   3.150  0.2441  0.4775  0.2548
  816poe    c31 5472   0.231   3.860   3.109 -0.3754 -0.9550  0.3942
  817poe    c31 5473   4.317   0.764   6.591 -0.0565 -0.4413  0.4688
  817poe     o2 5474   4.322   0.644   6.516  0.2341 -0.3323  0.3105
  817poe    c23 5475   4.300   0.540   6.608 -0.2807 -0.2991  0.2288
  817poe    c23 5476   4.346   0.400   6.562  0.3134 -0.0216 -0.0269
  817poe     o2 5477   4.486   0.410   6.560  0.3121 -0.0523 -0.3281
  817poe    c23 5478   4.542   0.286   6.522  0.3716 -0.0892 -0.1256
  817poe    c23 5479   4.681   0.292   6.457  0.3979 -0.3107 -0.0882
  817poe     o2 5480   4.696   0.383   6.350  0.1758  0.1060  0.2353
  817poe    c23 5481   4.814   0.354   6.279 -0.0173 -0.1561  0.0229
  817poe    c23 5482   4.803   0.440   6.152  0.2896 -0.0844  0.0443
  817poe     o2 5483   4.757   0.570   6.180  0.5429 -0.1418  0.7631
  817poe    c31 5484   4.755   0.662   6.073 -0.9783 -0.6615  0.3174
  818poe    c31 5485   2.107   3.849   1.198  0.1081 -0.0703  0.5681
  818poe     o2 5486   2.238   3.896   1.222  0.0795  0.3243 -0.0208
  818poe    c23 5487   2.254   3.967   1.342 -0.3021  0.2180  0.0942
  818poe    c23 5488   2.399   3.961   1.394 -0.2034 -0.3490 -0.2406
  818poe     o2 5489   2.492   4.020   1.306  0.0959 -0.3930  0.0415
  818poe    c23 5490   2.617   4.029   1.370  0.1578 -1.0560  0.0194
  818poe    c23 5491   2.726   4.068   1.268  0.2363 -0.2058  0.4221
  818poe     o2 5492   2.722   3.994   1.148  0.5468 -0.1683  0.3884
  818poe    c23 5493   2.839   4.002   1.069 -0.0796 -0.0438 -0.5366
  818poe    c23 5494   2.820   3.879   0.979  0.2165 -0.2243 -0.3537
  818poe     o2 5495   2.696   3.887   0.913  0.1400 -0.2005 -0.2046
  818poe    c31 5496   2.711   3.849   0.778  0.6579  0.1094 -0.2357
  819poe    c31 5497   4.000   2.964   5.189  0.5837  0.2446  0.0849
  819poe     o2 5498   3.962   3.047   5.297  0.4646  0.4419 -0.1079
  819poe    c23 5499   4.072   3.130   5.325  0.1535  0.7511  0.1973
  819poe    c23 5500   4.029   3.259   5.398 -0.1413  0.4401  0.5790
  819poe     o2 5501   3.895   3.276   5.358 -0.0412  0.1614  0.1228
  819poe    c23 5502   3.837   3.389   5.418  0.4224  0.5023 -0.0644
  819poe    c23 5503   3.716   3.412   5.325  0.4910  0.1031 -0.2535
  819poe     o2 5504   3.660   3.284   5.308  0.2788  0.2001 -0.2906
  819poe    c23 5505   3.541   3.277   5.233  0.3063  0.0064 -0.3180
  819poe    c23 5506   3.505   3.129   5.217  0.3036 -0.0206 -0.0676
  819poe     o2 5507   3.626   3.058   5.203  0.4160  0.1992 -0.2224
  819poe    c31 5508   3.594   2.920   5.203  0.4727  0.1853  0.0285
  820poe    c31 5509   6.672   5.200   2.814 -0.2601 -0.0542  0.0434
  820poe     o2 5510   6.634   5.293   2.715  0.2278 -0.1522 -0.2447
  820poe    c23 5511   6.512   5.241   2.666 -0.3612  0.5581  0.4413
  820poe    c23 5512   6.451   5.344   2.570 -0.6301  0.1025  0.1189
  820poe     o2 5513   6.550   5.367   2.471 -0.3143  0.3819  0.4987
  820poe    c23 5514   6.495   5.398   2.345  0.4694  0.0756  0.0737
  820poe    c23 5515   6.570   5.353   2.219  0.0442 -0.3269 -0.0410
  820poe     o2 5516   6.690   5.428   2.222  0.2058 -0.5919  0.0949
  820poe    c23 5517   6.795   5.388   2.137  0.4412 -0.1643  0.1802
  820poe    c23 5518   6.889   5.501   2.092  0.0894 -0.0041 -0.1573
  820poe     o2 5519   6.942   5.574   2.200 -0.3617  0.1098 -0.0105
  820poe    c31 5520   7.011   5.684   2.146  0.5842 -0.1284  0.6895
  821poe    c31 5521   6.459   0.999   2.556 -0.3727  0.1515  0.5683
  821poe     o2 5522   6.355   1.028   2.465  0.0158 -0.2225 -0.0042
  821poe    c23 5523   6.393   1.147   2.399  0.2463 -0.3128 -0.0370
  821poe    c23 5524   6.320   1.160   2.263 -0.3219 -0.3051  0.2642
  821poe     o2 5525   6.215   1.066   2.271 -0.5471 -0.0768  0.0048
  821poe    c23 5526   6.139   1.034   2.157 -0.4603  0.1033 -0.1045
  821poe    c23 5527   6.010   0.960   2.194 -0.2119  0.1855  0.9533
  821poe     o2 5528   6.061   0.877   2.296  0.5245 -0.5198  0.0261
  821poe    c23 5529   5.950   0.827   2.367  0.4015 -0.0862  0.1441
  821poe    c23 5530   6.011   0.737   2.475  0.3670  0.3594  0.5354
  821poe     o2 5531   6.110   0.822   2.528  0.2214  0.7598  0.1627
  821poe    c31 5532   6.177   0.758   2.633  0.2965 -0.4491 -0.6008
  822poe    c31 5533   0.511   6.181   1.098  0.3078 -0.0824 -0.4136
  822poe     o2 5534   0.391   6.181   1.170  0.2630 -0.4076 -0.4853
  822poe    c23 5535   0.370   6.065   1.248  0.0845  0.0745  0.1949
  822poe    c23 5536   0.236   6.078   1.323  0.0159  0.2910  0.0361
  822poe     o2 5537   0.117   6.073   1.248 -0.2909  0.3310  0.5137
  822poe    c23 5538   0.003   6.050   1.328 -0.1731 -0.4700  0.4659
  822poe    c23 5539  -0.105   6.076   1.222  0.1431 -0.3468  0.1721
  822poe     o2 5540  -0.072   6.191   1.147 -0.3555 -0.5161 -0.3153
  822poe    c23 5541  -0.183   6.268   1.107 -0.1386  0.0815  0.2154
  822poe    c23 5542  -0.137   6.363   0.995  0.1195 -0.3536 -0.0516
  822poe     o2 5543  -0.085   6.302   0.879 -0.1803 -0.4166 -0.1559
  822poe    c31 5544  -0.054   6.385   0.769  0.0068  0.2019  0.3508
  823poe    c31 5545   4.745   5.667   5.323 -0.9639 -0.5188  0.4231
  823poe     o2 5546   4.747   5.601   5.199 -0.4297  0.5189 -0.1314
  823poe    c23 5547   4.827   5.676   5.110  0.6203 -0.5242 -0.0907
  823poe    c23 5548   4.868   5.571   5.006  0.2078 -0.3937 -0.3914
  823poe     o2 5549   4.750   5.498   4.983 -0.0388 -0.1472  0.0920
  823poe    c23 5550   4.779   5.367   4.939  0.3405 -0.1664  0.3987
  823poe    c23 5551   4.667   5.264   4.960  0.1744 -0.1291 -0.2975
  823poe     o2 5552   4.614   5.313   5.081 -0.0488 -0.1074 -0.4040
  823poe    c23 5553   4.494   5.247   5.117  0.2104 -0.4569 -0.1738
  823poe    c23 5554   4.459   5.300   5.257  0.4725  0.2039 -0.3557
  823poe     o2 5555   4.476   5.440   5.242 -0.2564  0.3115 -0.1870
  823poe    c31 5556   4.402   5.514   5.337 -0.2491 -0.0808  0.1286
  824poe    c31 5557   4.834   1.937   2.346 -0.7128 -0.2259  0.0246
  824poe     o2 5558   4.811   1.943   2.485  0.0436  0.3431  0.1333
  824poe    c23 5559   4.706   1.853   2.511  0.0231  0.2217 -0.3677
  824poe    c23 5560   4.723   1.795   2.653  0.1973  0.1725 -0.4091
  824poe     o2 5561   4.782   1.898   2.729 -0.1369 -0.0645  0.1784
  824poe    c23 5562   4.781   1.867   2.866  0.0853  0.2206  0.2471
  824poe    c23 5563   4.803   1.990   2.955 -0.3058  0.7014 -0.3125
  824poe     o2 5564   4.938   2.032   2.949 -0.0005 -0.2485 -0.3265
  824poe    c23 5565   4.949   2.168   2.912 -0.0952 -0.2128 -0.2251
  824poe    c23 5566   5.028   2.200   2.784 -0.6325  0.5840 -0.3649
  824poe     o2 5567   4.972   2.149   2.665 -0.5546 -0.9769  0.2394
  824poe    c31 5568   5.046   2.198   2.555  0.2393 -0.2349  1.0903
  825poe    c31 5569   3.921   0.453   2.957  0.1220 -0.1707 -0.4931
  825poe     o2 5570   3.922   0.593   2.964  0.3187 -0.1472 -0.9403
  825poe    c23 5571   4.037   0.640   2.898  0.4795  0.0162 -0.5528
  825poe    c23 5572   4.067   0.787   2.935 -0.3341  0.1600 -0.4525
  825poe     o2 5573   3.944   0.855   2.944 -0.6502 -0.4936  0.2639
  825poe    c23 5574   3.966   0.977   3.012 -0.1376 -0.0535 -0.6859
  825poe    c23 5575   3.833   1.012   3.081  0.0102 -0.0941 -0.3791
  825poe     o2 5576   3.793   0.885   3.128  0.1543  0.1819  0.5058
  825poe    c23 5577   3.662   0.886   3.180 -0.2253 -0.4645 -0.4136
  825poe    c23 5578   3.634   0.751   3.249  0.5540 -0.0264  0.7937
  825poe     o2 5579   3.690   0.659   3.159  0.6285  0.4513  0.3445
  825poe    c31 5580   3.683   0.544   3.240  0.1813 -0.2192 -0.6256
  826poe    c31 5581   3.358   3.228   1.420 -0.1148 -0.3032  0.6703
  826poe     o2 5582   3.273   3.130   1.365  0.2902  0.0007 -0.5239
  826poe    c23 5583   3.241   3.043   1.471  0.5823  0.4914 -0.0256
  826poe    c23 5584   3.329   2.920   1.438  0.3811  0.3315  0.0280
  826poe     o2 5585   3.310   2.888   1.303 -0.2458 -0.0655  0.2069
  826poe    c23 5586   3.302   2.747   1.294  0.0708 -0.0681 -0.0527
  826poe    c23 5587   3.233   2.684   1.171 -0.0465 -0.6783  0.3242
  826poe     o2 5588   3.096   2.714   1.186  0.0003 -0.2754 -0.0339
  826poe    c23 5589   3.019   2.714   1.068  0.1871  0.0012 -0.1559
  826poe    c23 5590   2.896   2.807   1.077  0.2215  0.0607 -0.3073
  826poe     o2 5591   2.913   2.946   1.093  0.4073  0.0267 -0.1996
  826poe    c31 5592   2.797   3.008   1.145  0.6690 -0.1729  0.6467
  827poe    c31 5593   5.708   5.382   1.678 -0.6282  0.2046  0.0604
  827poe     o2 5594   5.678   5.288   1.577 -0.5034 -0.1874  0.3850
  827poe    c23 5595   5.734   5.160   1.594  0.1151  0.0762  0.3542
  827poe    c23 5596   5.718   5.066   1.473 -0.3796  0.3515  0.2009
  827poe     o2 5597   5.791   5.109   1.359 -1.1903 -0.0153 -0.4672
  827poe    c23 5598   5.805   5.003   1.267  0.4578 -0.2337 -0.0042
  827poe    c23 5599   5.879   5.054   1.142 -0.4922  0.2462 -0.3850
  827poe     o2 5600   6.009   5.104   1.167 -0.1878 -0.1762 -1.0996
  827poe    c23 5601   6.065   5.135   1.041  0.1104  0.0699 -0.9075
  827poe    c23 5602   6.201   5.205   1.058  0.0597  0.0065 -0.1988
  827poe     o2 5603   6.250   5.178   1.187  0.1250  0.1356 -0.1966
  827poe    c31 5604   6.359   5.089   1.176  0.1418  0.1565 -0.1953
  828poe    c31 5605   0.608   4.536   2.972 -0.1116  0.4889  0.4282
  828poe     o2 5606   0.558   4.622   2.872  0.6046  0.1309 -0.2464
  828poe    c23 5607   0.519   4.538   2.766 -0.2340  0.0716  0.1059
  828poe    c23 5608   0.517   4.596   2.623 -1.0607 -0.0971  0.0421
  828poe     o2 5609   0.418   4.692   2.597 -0.5862  0.2837 -0.3620
  828poe    c23 5610   0.434   4.757   2.472  0.2146 -0.1104 -0.4751
  828poe    c23 5611   0.344   4.883   2.478 -0.2022 -0.4237 -0.0646
  828poe     o2 5612   0.323   4.931   2.609  0.0536 -0.4444 -0.0144
  828poe    c23 5613   0.263   5.059   2.604  0.4523 -0.2642 -0.2565
  828poe    c23 5614   0.251   5.107   2.750  0.4339 -0.7983 -0.0808
  828poe     o2 5615   0.199   4.996   2.820 -0.1352 -0.7227 -0.3787
  828poe    c31 5616   0.130   5.053   2.930  0.8145  0.2906 -0.2836
  829poe    c31 5617   0.850   5.022   3.728  0.3906 -0.1378  0.1870
  829poe     o2 5618   0.826   4.950   3.609  0.2532 -1.0850  0.7794
  829poe    c23 5619   0.718   4.860   3.628 -0.4811 -0.4655 -0.3152
  829poe    c23 5620   0.746   4.737   3.540  0.2882 -0.3246 -0.2795
  829poe     o2 5621   0.790   4.778   3.413 -0.6539 -0.5870 -0.7020
  829poe    c23 5622   0.870   4.670   3.372  0.5961 -0.0157  0.1615
  829poe    c23 5623   0.982   4.746   3.298  0.2757 -0.0096 -0.3270
  829poe     o2 5624   1.035   4.849   3.379  0.0299  0.1928 -0.4236
  829poe    c23 5625   1.148   4.917   3.329  0.1359  0.1971 -0.1791
  829poe    c23 5626   1.157   5.031   3.433 -0.2994 -0.1744  0.2660
  829poe     o2 5627   1.034   5.101   3.428 -0.2191 -0.0946 -0.8133
  829poe    c31 5628   1.059   5.232   3.472 -0.7490 -0.1492 -0.3413
  830poe    c31 5629   2.703   6.005   1.280 -0.9602  0.1234  0.3948
  830poe     o2 5630   2.817   6.088   1.285 -0.3373 -0.6712 -0.3670
  830poe    c23 5631   2.906   6.051   1.387  0.2411 -0.7558 -0.8975
  830poe    c23 5632   3.034   6.136   1.381 -0.0149 -0.2966  0.0076
  830poe     o2 5633   3.005   6.269   1.418  0.1391 -0.3064  0.1645
  830poe    c23 5634   3.123   6.347   1.411 -0.0631 -0.0648 -0.6172
  830poe    c23 5635   3.105   6.491   1.463  0.4995  0.1304 -0.9595
  830poe     o2 5636   3.006   6.562   1.392 -0.2549  0.3021  0.2456
  830poe    c23 5637   2.958   6.660   1.482 -0.4585 -0.0166  0.4827
  830poe    c23 5638   2.879   6.770   1.409  0.7074  0.1312 -0.5812
  830poe     o2 5639   2.800   6.715   1.306 -0.1170  0.0270  0.0963
  830poe    c31 5640   2.687   6.796   1.286 -0.2384 -0.1583  0.0342
  831poe    c31 5641   6.419   4.215   6.189 -0.0463  0.1574  0.0741
  831poe     o2 5642   6.340   4.196   6.304 -0.1612 -0.1684 -0.0573
  831poe    c23 5643   6.228   4.281   6.317  0.4365  0.6173  0.0406
  831poe    c23 5644   6.140   4.244   6.438  0.5603 -0.1274 -0.0941
  831poe     o2 5645   6.076   4.125   6.398  0.0044  0.0390  0.2864
  831poe    c23 5646   5.972   4.089   6.486 -0.3466  0.0558 -0.1218
  831poe    c23 5647   6.007   3.983   6.592  0.5918  0.6357  0.1601
  831poe     o2 5648   6.100   3.899   6.528 -0.3021  0.0408 -0.3775
  831poe    c23 5649   6.130   3.797   6.621 -0.4503  0.0679 -0.3009
  831poe    c23 5650   6.229   3.693   6.567 -0.2953 -0.0949  0.2938
  831poe     o2 5651   6.358   3.749   6.554 -0.1554 -0.4117  0.3042
  831poe    c31 5652   6.445   3.659   6.620  0.2141 -0.2947 -0.0203
  832poe    c31 5653   2.263   1.694   6.687  0.3898  0.9747 -0.7737
  832poe     o2 5654   2.285   1.585   6.601 -0.5048 -0.0040  0.2115
  832poe    c23 5655   2.316   1.627   6.470 -1.1696 -0.5126 -0.1212
  832poe    c23 5656   2.359   1.502   6.390  0.0113 -0.1646 -0.0521
  832poe     o2 5657   2.452   1.435   6.471 -0.4838 -0.6133  0.1486
  832poe    c23 5658   2.553   1.364   6.402  0.2629  0.5949 -0.0305
  832poe    c23 5659   2.517   1.216   6.382  0.1376  0.5654  0.4124
  832poe     o2 5660   2.495   1.165   6.512 -0.6373  0.1681  0.1264
  832poe    c23 5661   2.435   1.037   6.498  0.5582 -0.3857 -0.0689
  832poe    c23 5662   2.397   0.981   6.636  0.0832 -0.5161 -0.2527
  832poe     o2 5663   2.322   1.067   6.719  0.0391 -0.4030 -0.4090
  832poe    c31 5664   2.343   1.036   6.855  0.0461  0.1855 -0.2730
  833poe    c31 5665   0.146   6.495   5.648  0.3331 -0.3961  0.3794
  833poe     o2 5666   0.274   6.537   5.605  0.0200  0.1936  0.0111
  833poe    c23 5667   0.273   6.675   5.637  0.0330  0.0417  0.6838
  833poe    c23 5668   0.421   6.707   5.667  0.2119  0.1174 -0.2472
  833poe     o2 5669   0.508   6.626   5.592 -0.2642 -0.2627 -0.3976
  833poe    c23 5670   0.643   6.659   5.615 -0.3338 -0.2052 -0.0772
  833poe    c23 5671   0.736   6.593   5.512  0.2779  0.3471  0.1129
  833poe     o2 5672   0.751   6.453   5.522 -0.4509  0.2367 -0.2835
  833poe    c23 5673   0.684   6.372   5.429  0.2534 -1.0907  0.3425
  833poe    c23 5674   0.581   6.272   5.485 -0.2033 -0.6540  0.2910
  833poe     o2 5675   0.453   6.324   5.513 -0.2252 -0.4290 -0.2258
  833poe    c31 5676   0.359   6.227   5.552  0.0907 -0.7966 -0.3730
  834poe    c31 5677   2.581   6.273   5.682 -0.2891  0.0326  0.1777
  834poe     o2 5678   2.464   6.228   5.617  0.1383 -0.2632 -0.3995
  834poe    c23 5679   2.384   6.340   5.586  0.1967  0.0041  0.3953
  834poe    c23 5680   2.279   6.287   5.487  0.4734 -0.4697  0.3556
  834poe     o2 5681   2.230   6.176   5.560  0.5834 -0.5341  0.3327
  834poe    c23 5682   2.134   6.121   5.473  0.0578  0.2282  0.4179
  834poe    c23 5683   2.152   5.970   5.499  0.2266  0.1867  0.0664
  834poe     o2 5684   2.287   5.950   5.532  0.2360  0.3909  0.1536
  834poe    c23 5685   2.312   5.819   5.578  0.2184  0.4633  0.3720
  834poe    c23 5686   2.464   5.810   5.603  0.3830  0.0657 -0.7093
  834poe     o2 5687   2.505   5.940   5.641  0.4800 -0.0260 -0.5008
  834poe    c31 5688   2.638   5.932   5.687  0.0841 -0.6184  0.5887
  835poe    c31 5689   1.971   1.884   4.322  0.1670 -0.3134  0.1849
  835poe     o2 5690   1.924   1.945   4.441 -0.3203  0.1704 -0.2437
  835poe    c23 5691   1.954   2.082   4.440 -0.2633  0.1589 -0.1105
  835poe    c23 5692   1.941   2.130   4.586  0.5639 -0.4379  0.1649
  835poe     o2 5693   1.825   2.069   4.636 -0.1700  0.8831  0.1117
  835poe    c23 5694   1.781   2.108   4.764  0.4683 -0.0025  0.6146
  835poe    c23 5695   1.638   2.058   4.795  0.2196  0.3405  0.0334
  835poe     o2 5696   1.621   1.918   4.792 -0.4877  0.4347 -0.6203
  835poe    c23 5697   1.495   1.864   4.825 -0.2650 -0.4908 -1.2354
  835poe    c23 5698   1.500   1.732   4.904  0.4703  0.0409 -0.3598
  835poe     o2 5699   1.567   1.745   5.027  0.2500 -0.6282 -0.1621
  835poe    c31 5700   1.587   1.631   5.107  0.6412 -0.6164 -0.2373
  836poe    c31 5701   0.192   4.497   5.450 -0.1525  0.0085  0.4463
  836poe     o2 5702   0.314   4.568   5.445 -0.0716 -0.1327  0.4228
  836poe    c23 5703   0.360   4.544   5.314 -0.0847  0.5399  0.2961
  836poe    c23 5704   0.493   4.622   5.298  0.4754 -0.3701  0.4660
  836poe     o2 5705   0.472   4.748   5.358 -0.3308 -0.3317  0.1193
  836poe    c23 5706   0.572   4.835   5.310 -0.5708  0.2315  0.6334
  836poe    c23 5707   0.554   4.972   5.378 -0.5612  0.5755 -0.0523
  836poe     o2 5708   0.487   4.968   5.502 -0.1961  0.1337  0.1337
  836poe    c23 5709   0.478   5.098   5.555  0.6493 -0.0477  0.7424
  836poe    c23 5710   0.380   5.098   5.675  0.0564  0.7123  0.2662
  836poe     o2 5711   0.243   5.073   5.651  0.2409  0.0911 -0.1720
  836poe    c31 5712   0.159   5.077   5.764  0.1962  1.5402 -0.2389
  837poe    c31 5713   5.486   3.263   6.438  0.1618  0.8191 -0.0971
  837poe     o2 5714   5.501   3.274   6.298 -0.0207 -0.6549 -0.2526
  837poe    c23 5715   5.446   3.393   6.246  1.0369 -0.1949 -0.3330
  837poe    c23 5716   5.413   3.370   6.098  0.0770 -0.9899 -0.0072
  837poe     o2 5717   5.536   3.313   6.062  0.5859  0.1266 -0.0960
  837poe    c23 5718   5.547   3.279   5.925  0.0706  0.3928 -0.2031
  837poe    c23 5719   5.694   3.249   5.893 -0.0381 -0.0475 -0.2923
  837poe     o2 5720   5.716   3.146   5.986  0.6858  0.0680 -0.3249
  837poe    c23 5721   5.849   3.134   6.031  0.2703 -0.0380  0.9106
  837poe    c23 5722   5.839   3.046   6.157  0.2124 -0.0452  0.9013
  837poe     o2 5723   5.758   3.114   6.251  0.1721  0.7101  0.3269
  837poe    c31 5724   5.806   3.089   6.381 -0.0197 -0.3444  0.2015
  838poe    c31 5725   6.396   2.307   4.874 -0.0934 -0.6789  0.4527
  838poe     o2 5726   6.515   2.231   4.885  0.3872 -0.0024 -0.0147
  838poe    c23 5727   6.626   2.285   4.953  0.0844 -0.1080  0.5651
  838poe    c23 5728   6.742   2.184   4.957  0.5286  0.3879  0.3372
  838poe     o2 5729   6.693   2.064   5.013  0.7503  0.0429 -0.2015
  838poe    c23 5730   6.799   1.977   5.045  0.4204 -0.3243 -0.0962
  838poe    c23 5731   6.749   1.902   5.170 -0.2179  0.0418 -0.1242
  838poe     o2 5732   6.636   1.829   5.128 -0.2327  0.0493 -0.0967
  838poe    c23 5733   6.572   1.778   5.243  0.6370 -0.2473  0.2620
  838poe    c23 5734   6.425   1.743   5.215  0.4793  0.5321  0.0762
  838poe     o2 5735   6.367   1.843   5.135 -0.2213 -0.0695 -0.1864
  838poe    c31 5736   6.245   1.795   5.085  0.2912 -1.2307 -0.3558
  839poe    c31 5737   6.806   6.378   4.025 -0.5427 -0.4725 -0.3688
  839poe     o2 5738   6.929   6.325   3.980 -0.0419  0.0820  0.3002
  839poe    c23 5739   6.938   6.185   4.001  0.0582  0.0604  0.1175
  839poe    c23 5740   7.083   6.142   3.977  0.0559  0.2410 -0.2308
  839poe     o2 5741   7.131   6.217   3.867 -0.4433 -0.0226 -0.6304
  839poe    c23 5742   7.256   6.177   3.818 -0.0308  0.2122  0.2063
  839poe    c23 5743   7.301   6.271   3.705 -0.4567  0.3182  0.1243
  839poe     o2 5744   7.318   6.399   3.763  0.5083  0.1341  0.2689
  839poe    c23 5745   7.356   6.499   3.671 -0.3022  0.1807 -0.0291
  839poe    c23 5746   7.246   6.576   3.597 -0.9016 -0.6235  0.0183
  839poe     o2 5747   7.163   6.642   3.689  0.3208  0.1467  0.5892
  839poe    c31 5748   7.113   6.765   3.641 -0.1360 -0.2385  0.0646
  840poe    c31 5749   5.012   0.695   4.845 -0.4425 -0.0194  0.0108
  840poe     o2 5750   5.125   0.633   4.789 -0.4546  0.0189 -0.0560
  840poe    c23 5751   5.097   0.594   4.657 -0.2532  0.0654 -0.1129
  840poe    c23 5752   5.237   0.550   4.610 -0.3276 -0.4669  0.1625
  840poe     o2 5753   5.293   0.459   4.703  0.0780 -0.0694  0.3121
  840poe    c23 5754   5.425   0.414   4.683  0.3327  0.5451  0.5936
  840poe    c23 5755   5.465   0.326   4.803  0.1769 -0.6311 -0.2014
  840poe     o2 5756   5.442   0.406   4.917  0.5562 -0.1007 -0.4922
  840poe    c23 5757   5.538   0.503   4.955  0.0721  0.1994 -0.0317
  840poe    c23 5758   5.466   0.613   5.036  0.1292  0.2626 -0.0667
  840poe     o2 5759   5.339   0.651   4.988 -0.2372 -0.4305  0.3321
  840poe    c31 5760   5.324   0.774   5.056  0.4216 -0.1814  0.0370
  841poe    c31 5761   5.636   6.369   4.488 -0.4919  0.0533  0.5464
  841poe     o2 5762   5.708   6.319   4.598  0.3214  0.4549  0.2031
  841poe    c23 5763   5.632   6.344   4.714 -0.0978  0.1685 -0.0099
  841poe    c23 5764   5.712   6.314   4.842  0.0479 -0.6276 -0.2854
  841poe     o2 5765   5.762   6.183   4.828  0.1837 -0.5639 -0.4049
  841poe    c23 5766   5.835   6.144   4.942 -0.1252  0.1190  0.0293
  841poe    c23 5767   5.961   6.080   4.881 -0.1023 -0.1827  0.3881
  841poe     o2 5768   5.925   5.993   4.776 -0.1997  0.2371  0.0702
  841poe    c23 5769   6.035   5.945   4.703 -0.1817 -0.1843  0.3737
  841poe    c23 5770   6.015   6.012   4.566 -0.6079  0.2486  0.6468
  841poe     o2 5771   5.956   6.140   4.569 -0.9969  0.1054 -0.4007
  841poe    c31 5772   6.006   6.219   4.463 -0.9952  0.3368 -0.2276
  842poe    c31 5773   5.934   4.449   1.926  0.0778  0.6218 -0.3896
  842poe     o2 5774   5.901   4.314   1.901 -0.3416  0.7320 -0.4354
  842poe    c23 5775   5.783   4.311   1.825 -0.2716  0.4307 -0.5338
  842poe    c23 5776   5.786   4.162   1.788  0.3403  0.3390 -0.1245
  842poe     o2 5777   5.766   4.081   1.902  0.8290  0.2765 -0.0810
  842poe    c23 5778   5.751   3.945   1.869  0.6749  0.2283  0.1830
  842poe    c23 5779   5.758   3.873   2.004  0.1650 -0.3997 -0.1210
  842poe     o2 5780   5.826   3.953   2.098 -0.0321 -0.6568  0.2460
  842poe    c23 5781   5.830   3.876   2.216 -0.6248 -0.6297  0.2865
  842poe    c23 5782   5.973   3.827   2.242 -0.3028  0.1945  0.0866
  842poe     o2 5783   6.067   3.929   2.270 -0.0275  0.0112 -0.1670
  842poe    c31 5784   6.195   3.869   2.276 -0.2901 -0.4538  0.9224
  843poe    c31 5785   3.761   5.973   0.788  0.0887  0.2667  0.2011
  843poe     o2 5786   3.816   6.071   0.873 -0.4324  0.3423  0.4553
  843poe    c23 5787   3.837   6.009   0.998 -0.1785 -0.3783  0.0589
  843poe    c23 5788   3.881   6.107   1.108  0.4580 -0.1947 -0.3521
  843poe     o2 5789   4.020   6.134   1.104  0.4438 -0.1037 -0.2237
  843poe    c23 5790   4.044   6.260   1.163 -0.3704  0.1665 -0.4514
  843poe    c23 5791   4.197   6.275   1.169 -0.4254  0.3327  0.7867
  843poe     o2 5792   4.247   6.163   1.239 -0.0319  0.0799  0.1051
  843poe    c23 5793   4.381   6.121   1.220 -0.3297 -0.4676 -0.8670
  843poe    c23 5794   4.426   6.031   1.336  0.1439  0.1078 -0.6031
  843poe     o2 5795   4.316   5.948   1.364  0.5877 -0.1351  0.4871
  843poe    c31 5796   4.337   5.854   1.467 -0.1485 -0.4656  0.3471
  844poe    c31 5797   0.613   4.915   0.140  0.6605 -0.1362 -0.0822
  844poe     o2 5798   0.525   4.910   0.250 -0.2494  0.4111 -0.7716
  844poe    c23 5799   0.416   4.997   0.227 -0.2289  0.6467 -0.0080
  844poe    c23 5800   0.299   4.980   0.326  0.3668  0.0420  0.6079
  844poe     o2 5801   0.247   4.853   0.296  0.0244  0.2777  0.1816
  844poe    c23 5802   0.108   4.844   0.316  0.0050 -0.0923 -0.1187
  844poe    c23 5803   0.074   4.700   0.359 -0.0474  0.0608  0.3501
  844poe     o2 5804   0.157   4.620   0.278 -0.5102  0.1779 -0.2470
  844poe    c23 5805   0.130   4.481   0.276  0.7976 -0.0930 -0.0883
  844poe    c23 5806   0.167   4.394   0.397 -0.1277 -0.0700  0.2238
  844poe     o2 5807   0.307   4.389   0.413 -0.0866 -0.6990 -0.2964
  844poe    c31 5808   0.352   4.339   0.537  0.1802  0.2522 -0.0013
  845poe    c31 5809   1.788   6.511   6.548 -0.1406 -0.2156 -0.3070
  845poe     o2 5810   1.817   6.639   6.495  0.0182 -0.0092  0.2659
  845poe    c23 5811   1.717   6.655   6.397 -0.1970 -0.2687  0.4408
  845poe    c23 5812   1.740   6.803   6.361  0.7401 -0.4266  0.3692
  845poe     o2 5813   1.873   6.834   6.325  0.4372 -0.1165 -0.5003
  845poe    c23 5814   1.888   6.972   6.303 -0.0860  0.0674  0.2736
  845poe    c23 5815   2.040   6.967   6.283 -0.1691  0.0120 -0.3510
  845poe     o2 5816   2.092   6.888   6.387 -0.3637 -0.3271 -0.5081
  845poe    c23 5817   2.213   6.819   6.361  0.0597 -0.0060  0.5597
  845poe    c23 5818   2.220   6.692   6.448 -0.0798 -0.1374  0.3768
  845poe     o2 5819   2.102   6.619   6.423  0.1787 -0.3871 -0.1332
  845poe    c31 5820   2.128   6.481   6.408  0.5668 -0.3947  0.5350
  846poe    c31 5821   5.727   0.784   2.920  1.5804  0.0859  0.5472
  846poe     o2 5822   5.713   0.677   2.829  0.4468  0.2189  0.5553
  846poe    c23 5823   5.809   0.579   2.861  0.2773 -0.2512 -0.3553
  846poe    c23 5824   5.751   0.437   2.853 -0.7769  0.1419  0.0776
  846poe     o2 5825   5.682   0.448   2.731 -0.0112  0.2907 -0.3505
  846poe    c23 5826   5.618   0.326   2.702  0.6895 -0.1719  0.0313
  846poe    c23 5827   5.558   0.326   2.561  0.0531  0.4436  0.2970
  846poe     o2 5828   5.485   0.442   2.529 -0.7693 -0.1561 -0.0316
  846poe    c23 5829   5.465   0.457   2.390  0.2508  0.1499 -0.1552
  846poe    c23 5830   5.382   0.578   2.341  0.2960  0.1490 -0.2337
  846poe     o2 5831   5.470   0.687   2.359  0.2313  0.1392  0.1644
  846poe    c31 5832   5.397   0.808   2.344 -0.1139 -0.0771  0.0750
  847poe    c31 5833   5.308   1.927   2.269  0.2496  0.2463  0.2010
  847poe     o2 5834   5.403   2.027   2.240  0.5013 -0.1208 -0.2483
  847poe    c23 5835   5.491   1.966   2.149  0.0330 -0.0638 -0.7396
  847poe    c23 5836   5.582   2.079   2.096 -0.2771  0.4105 -0.2666
  847poe     o2 5837   5.614   2.175   2.194  0.1479  0.3717 -0.3653
  847poe    c23 5838   5.687   2.285   2.143  0.6353  0.2166 -0.0041
  847poe    c23 5839   5.706   2.379   2.264 -0.3861 -0.3993  0.6472
  847poe     o2 5840   5.578   2.427   2.299 -0.0515  0.8610  0.1713
  847poe    c23 5841   5.594   2.538   2.384  0.0942  0.5345  0.5742
  847poe    c23 5842   5.466   2.581   2.457 -0.2617 -0.8160  0.7533
  847poe     o2 5843   5.406   2.485   2.541 -0.4514 -0.8190  0.6179
  847poe    c31 5844   5.305   2.547   2.616 -0.2487  0.1441  0.1115
  848poe    c31 5845   4.133   3.734   0.124 -0.1272 -0.2725 -0.0365
  848poe     o2 5846   4.253   3.711   0.196  0.0079  0.6872  0.0639
  848poe    c23 5847   4.225   3.656   0.323  0.0014  0.0690 -0.2019
  848poe    c23 5848   4.358   3.594   0.368 -0.1359  0.0848  0.2328
  848poe     o2 5849   4.461   3.689   0.351 -0.0284 -0.0026  0.3915
  848poe    c23 5850   4.587   3.637   0.387 -0.0255 -0.2234  0.0619
  848poe    c23 5851   4.678   3.752   0.340  0.3169 -0.6210 -0.2603
  848poe     o2 5852   4.647   3.791   0.208 -0.0310  0.3701  0.1025
  848poe    c23 5853   4.738   3.879   0.147 -0.0600 -0.3719 -1.0362
  848poe    c23 5854   4.883   3.830   0.132  0.1701  0.0601 -0.2855
  848poe     o2 5855   4.977   3.841   0.236 -0.0943  0.0894 -0.0469
  848poe    c31 5856   5.112   3.819   0.201 -0.2222 -0.3954 -0.2444
  849poe    c31 5857   3.125   3.200   4.177  0.3335 -0.3523 -0.4250
  849poe     o2 5858   3.244   3.193   4.253  0.0471  0.2292  0.0810
  849poe    c23 5859   3.263   3.101   4.358  0.4785  0.5899  0.3206
  849poe    c23 5860   3.380   3.158   4.440  0.3987  0.3163  0.6289
  849poe     o2 5861   3.467   3.199   4.337 -0.3393 -0.2249 -0.2254
  849poe    c23 5862   3.567   3.280   4.396 -0.4931 -0.0446 -0.2107
  849poe    c23 5863   3.707   3.226   4.358 -0.4956  0.2261 -0.6115
  849poe     o2 5864   3.722   3.237   4.219 -0.0101  0.7964 -0.5182
  849poe    c23 5865   3.836   3.178   4.159 -0.0312 -0.1509  0.3453
  849poe    c23 5866   3.811   3.162   4.008  0.1573  0.4686  0.2452
  849poe     o2 5867   3.732   3.049   3.978  0.4040  0.3483  0.0456
  849poe    c31 5868   3.795   2.947   3.904  0.7897  0.5335  0.1159
  850poe    c31 5869   4.039   3.316   0.253 -0.1691 -0.0003 -0.0103
  850poe     o2 5870   4.036   3.353   0.389  0.3298  0.4081 -0.1068
  850poe    c23 5871   3.908   3.327   0.444  0.1934  0.8935 -0.1834
  850poe    c23 5872   3.915   3.324   0.598 -0.5715 -0.3466 -0.1602
  850poe     o2 5873   3.988   3.213   0.645 -0.1772 -0.0579 -0.0922
  850poe    c23 5874   4.001   3.213   0.785  0.7138  0.1151 -0.1681
  850poe    c23 5875   4.082   3.085   0.813  0.5409  0.0820  0.2008
  850poe     o2 5876   4.211   3.096   0.756  0.3636  0.1214 -0.1993
  850poe    c23 5877   4.276   2.977   0.795 -0.5400 -0.1257  0.5952
  850poe    c23 5878   4.426   2.994   0.763 -0.7259  0.5752  0.0801
  850poe     o2 5879   4.394   3.019   0.628 -0.4054  0.0240 -0.1013
  850poe    c31 5880   4.510   3.039   0.551 -0.0854  0.8086  0.5766
  851poe    c31 5881   2.394   5.523   0.276 -0.0894 -0.3999 -0.2746
  851poe     o2 5882   2.521   5.581   0.255 -0.1273 -0.2065  0.0219
  851poe    c23 5883   2.512   5.711   0.201  0.0974 -0.1536  0.1113
  851poe    c23 5884   2.593   5.810   0.288 -0.4227 -0.0766  0.5146
  851poe     o2 5885   2.723   5.756   0.294 -0.2475  0.3016  0.0937
  851poe    c23 5886   2.813   5.835   0.369  0.1120 -0.0807  0.0663
  851poe    c23 5887   2.812   5.789   0.516 -0.0036 -0.1442  0.0456
  851poe     o2 5888   2.849   5.653   0.520  0.2517 -0.0728  0.1343
  851poe    c23 5889   2.871   5.627   0.657  0.5102 -0.2535  0.0588
  851poe    c23 5890   2.861   5.476   0.687 -0.7218 -0.1887  0.0113
  851poe     o2 5891   2.905   5.397   0.579 -0.4575  0.0962 -0.0908
  851poe    c31 5892   2.916   5.259   0.605 -0.0661  0.1610  0.0885
  852poe    c31 5893   2.888   0.680   1.840 -0.1833  0.3409 -0.6129
  852poe     o2 5894   2.759   0.630   1.866  0.1052 -0.0698  0.0521
  852poe    c23 5895   2.724   0.682   1.993  0.0185 -0.1051  0.0426
  852poe    c23 5896   2.606   0.606   2.057  0.0697  0.1074  0.3909
  852poe     o2 5897   2.483   0.614   1.988  0.0485  0.1891  0.4382
  852poe    c23 5898   2.418   0.738   1.990 -0.1885  0.0886 -0.5927
  852poe    c23 5899   2.273   0.733   1.937 -0.4903  0.3780  0.1820
  852poe     o2 5900   2.272   0.662   1.815  0.3722  0.6222  0.0218
  852poe    c23 5901   2.149   0.596   1.796  0.8212 -0.3203  0.3507
  852poe    c23 5902   2.168   0.535   1.656 -0.4125  0.2362 -0.0775
  852poe     o2 5903   2.304   0.498   1.649 -0.4967 -0.0772 -0.0884
  852poe    c31 5904   2.319   0.406   1.543 -0.5768 -0.3291  0.1192
  853poe    c31 5905   1.067   1.226   1.183 -0.3301  0.5187 -0.0443
  853poe     o2 5906   1.199   1.250   1.138  0.1054  0.0368  0.9425
  853poe    c23 5907   1.234   1.373   1.199  0.4008  0.2827  0.2867
  853poe    c23 5908   1.372   1.424   1.154  0.3344  0.1969 -0.0210
  853poe     o2 5909   1.443   1.304   1.172  0.1896  0.0174 -0.6524
  853poe    c23 5910   1.581   1.316   1.146  0.3375  0.2007  0.2125
  853poe    c23 5911   1.645   1.180   1.179  0.0664 -0.0626 -0.3336
  853poe     o2 5912   1.563   1.090   1.109 -0.4703  0.1968 -0.0417
  853poe    c23 5913   1.566   0.963   1.172  0.2185  0.2722  0.0841
  853poe    c23 5914   1.435   0.896   1.127  0.0484  0.7997 -0.2116
  853poe     o2 5915   1.329   0.981   1.165 -0.4666  0.1578 -0.2000
  853poe    c31 5916   1.210   0.905   1.173  0.0867 -0.5803  1.3854
  854poe    c31 5917   5.599   6.107   1.248 -0.0886 -0.3823 -0.2552
  854poe     o2 5918   5.638   5.978   1.290  0.2586 -0.3409 -0.4516
  854poe    c23 5919   5.586   5.958   1.420 -0.5592  0.2956 -0.6753
  854poe    c23 5920   5.606   5.807   1.441 -0.4667  0.3477 -0.3880
  854poe     o2 5921   5.737   5.791   1.392 -0.2719  0.3107  0.1342
  854poe    c23 5922   5.779   5.657   1.396 -0.2774  0.3081  0.1002
  854poe    c23 5923   5.928   5.651   1.357 -0.2927  0.5329  0.0092
  854poe     o2 5924   5.931   5.709   1.228  0.5049  0.1582 -0.1424
  854poe    c23 5925   6.050   5.780   1.200  0.9646 -0.4592  0.2187
  854poe    c23 5926   6.013   5.892   1.101  0.3343  0.2056  1.1882
  854poe     o2 5927   5.905   5.971   1.146 -0.8134 -0.6224 -0.0390
  854poe    c31 5928   5.902   6.088   1.068 -0.2014 -0.5917 -0.0255
  855poe    c31 5929   2.915   3.608   6.161  0.6362  0.5194  0.4254
  855poe     o2 5930   2.878   3.717   6.080 -0.0488 -0.1249 -0.1513
  855poe    c23 5931   2.956   3.830   6.114 -0.5329  0.2724 -0.3477
  855poe    c23 5932   2.946   3.927   5.995 -0.5794  0.5702 -0.1000
  855poe     o2 5933   2.961   3.862   5.871  0.2702 -0.1606  0.3720
  855poe    c23 5934   2.995   3.962   5.777  0.4177  0.2076  0.8110
  855poe    c23 5935   2.948   3.927   5.635  0.0424  0.3767  0.8924
  855poe     o2 5936   2.808   3.926   5.643 -0.0452  0.3570 -0.3883
  855poe    c23 5937   2.735   3.874   5.534 -0.2911 -0.0010 -0.0558
  855poe    c23 5938   2.737   3.724   5.498  0.5653  0.0304 -0.1543
  855poe     o2 5939   2.674   3.637   5.590 -0.1007  0.5373 -0.1255
  855poe    c31 5940   2.704   3.500   5.584 -0.8937  0.3438  0.1957
  856poe    c31 5941   6.009   5.316   6.184 -0.4156  0.5041  0.2072
  856poe     o2 5942   6.080   5.393   6.090 -0.4214  0.0576 -0.1692
  856poe    c23 5943   6.020   5.512   6.045  0.0552  0.4302  0.1676
  856poe    c23 5944   6.119   5.597   5.964 -0.1746  0.2355 -0.3245
  856poe     o2 5945   6.174   5.530   5.853  0.0537 -0.0716 -0.0291
  856poe    c23 5946   6.272   5.614   5.797  0.0009 -0.4418 -0.6819
  856poe    c23 5947   6.343   5.543   5.679  0.2996 -0.0129 -0.7644
  856poe     o2 5948   6.428   5.441   5.726 -0.0540  0.1654  0.2964
  856poe    c23 5949   6.475   5.354   5.626 -0.1212  0.2329  0.2060
  856poe    c23 5950   6.610   5.285   5.653 -0.1407  0.1081 -0.0101
  856poe     o2 5951   6.658   5.217   5.539  0.1516 -0.3209  0.3673
  856poe    c31 5952   6.594   5.096   5.505  0.1694 -0.1376 -0.3215
  857poe    c31 5953   2.137   4.685   0.142 -0.3564  0.3795  0.1458
  857poe     o2 5954   2.017   4.612   0.128  0.0257 -0.1465 -0.4861
  857poe    c23 5955   1.985   4.555   0.253 -0.5487  0.1975 -0.4681
  857poe    c23 5956   1.843   4.606   0.282 -0.0920  1.1829  0.0672
  857poe     o2 5957   1.770   4.599   0.162 -0.6105  0.4128  0.4151
  857poe    c23 5958   1.639   4.646   0.183 -0.8268  0.0437 -0.0878
  857poe    c23 5959   1.595   4.673   0.038 -0.2500 -0.8931 -0.4459
  857poe     o2 5960   1.709   4.719  -0.032 -0.6950  0.9372 -0.0362
  857poe    c23 5961   1.680   4.743  -0.168  0.0652 -0.3680 -0.4454
  857poe    c23 5962   1.817   4.790  -0.222 -0.0997  0.2477 -0.3375
  857poe     o2 5963   1.914   4.702  -0.170 -0.4292 -0.1061 -0.3098
  857poe    c31 5964   2.045   4.728  -0.216 -0.5143  1.0985  0.0900
  858poe    c31 5965   3.329   1.221   5.331 -0.2251 -0.3393 -0.5505
  858poe     o2 5966   3.414   1.299   5.249 -0.0974  0.0604 -0.0403
  858poe    c23 5967   3.524   1.215   5.219 -0.2317 -0.2263  0.2633
  858poe    c23 5968   3.632   1.318   5.181 -1.0051  0.5533  0.1345
  858poe     o2 5969   3.571   1.397   5.081 -0.8899  0.6516  0.1420
  858poe    c23 5970   3.647   1.512   5.054 -0.2829  0.2603  0.1472
  858poe    c23 5971   3.554   1.577   4.949  0.2073  0.2284 -0.3110
  858poe     o2 5972   3.428   1.582   5.012 -0.0600  1.3470 -0.9032
  858poe    c23 5973   3.323   1.605   4.921 -0.3938 -0.0844 -0.9061
  858poe    c23 5974   3.194   1.574   4.998  0.0697  0.3442  0.0619
  858poe     o2 5975   3.201   1.444   5.053  0.6575  0.4377  0.2098
  858poe    c31 5976   3.076   1.404   5.104  0.8689  0.0732  0.4483
  859poe    c31 5977   6.013   1.515   4.349 -0.0336  0.2136 -0.5677
  859poe     o2 5978   6.055   1.648   4.374  0.3847 -0.0207 -0.0118
  859poe    c23 5979   6.108   1.695   4.253  0.3859  0.0337  0.0102
  859poe    c23 5980   6.147   1.844   4.247 -0.2938  0.1880 -0.8704
  859poe     o2 5981   6.273   1.863   4.307 -0.4595 -0.1023 -0.4217
  859poe    c23 5982   6.327   1.993   4.304  0.0375 -0.2970 -0.2290
  859poe    c23 5983   6.475   2.003   4.341 -0.0379 -0.0683  0.0102
  859poe     o2 5984   6.488   1.922   4.456  0.3505  0.2880  0.2221
  859poe    c23 5985   6.624   1.896   4.485  0.2974 -0.1811  0.0521
  859poe    c23 5986   6.603   1.835   4.625  0.2064 -0.6194 -0.1505
  859poe     o2 5987   6.501   1.739   4.610 -0.1046 -0.3271  0.0790
  859poe    c31 5988   6.492   1.657   4.724 -0.4141 -0.2221  0.1275
  860poe    c31 5989   3.350   2.362   6.302  0.7947  0.4230  0.2424
  860poe     o2 5990   3.248   2.398   6.392  0.1327 -0.7803 -0.0001
  860poe    c23 5991   3.122   2.413   6.330  0.2476  0.0147 -0.0556
  860poe    c23 5992   3.013   2.468   6.423 -0.2933 -0.6283 -0.2949
  860poe     o2 5993   2.963   2.384   6.524 -0.4988 -0.3585 -0.1721
  860poe    c23 5994   2.822   2.390   6.531 -0.4594  0.3085  0.1855
  860poe    c23 5995   2.776   2.410   6.676  0.1571  0.7979  0.3169
  860poe     o2 5996   2.838   2.319   6.764 -0.3301  0.1688  0.0151
  860poe    c23 5997   2.773   2.299   6.887 -0.3447  0.2960  0.0277
  860poe    c23 5998   2.664   2.190   6.880 -0.1674  0.1414 -0.3634
  860poe     o2 5999   2.724   2.064   6.856  0.1024  0.0900  0.5320
  860poe    c31 6000   2.625   1.964   6.860  0.1057  0.0648  0.0436
  861poe    c31 6001   4.664   3.839   6.077 -0.3584 -0.1627  0.4056
  861poe     o2 6002   4.752   3.835   6.187 -0.3390  0.0521  0.3973
  861poe    c23 6003   4.698   3.775   6.302  0.0900 -0.3754  0.3770
  861poe    c23 6004   4.745   3.854   6.426  0.1114  0.3370 -0.0797
  861poe     o2 6005   4.879   3.827   6.462 -0.0791 -0.0789  0.3240
  861poe    c23 6006   4.884   3.714   6.546 -0.6359 -0.2430  0.1441
  861poe    c23 6007   5.031   3.690   6.587 -0.4577 -0.1562 -0.4350
  861poe     o2 6008   5.104   3.709   6.468  0.0170  0.4334 -0.0594
  861poe    c23 6009   5.233   3.652   6.471  0.1257  0.7029  0.3921
  861poe    c23 6010   5.290   3.672   6.329 -0.3340 -0.3024  0.0599
  861poe     o2 6011   5.283   3.812   6.313  0.4685 -0.2284  0.3220
  861poe    c31 6012   5.373   3.847   6.210 -0.0471 -0.5246 -0.2334
  862poe    c31 6013   5.561   0.687   5.851  0.5439 -0.2276 -0.4242
  862poe     o2 6014   5.658   0.656   5.949  0.2700  0.2105 -0.0129
  862poe    c23 6015   5.779   0.721   5.916  0.1618  0.2781 -0.2843
  862poe    c23 6016   5.890   0.632   5.976 -0.1558  0.4812  0.6283
  862poe     o2 6017   5.850   0.611   6.109  0.6373  0.7214  0.9093
  862poe    c23 6018   5.921   0.498   6.156  0.2420 -0.1703 -0.5678
  862poe    c23 6019   5.867   0.422   6.279  0.1838  0.1502 -0.3919
  862poe     o2 6020   5.732   0.446   6.249 -0.0137 -0.2800  0.1566
  862poe    c23 6021   5.656   0.469   6.366 -0.1332  0.5134 -0.0761
  862poe    c23 6022   5.512   0.502   6.319 -0.1921 -0.0577 -0.3023
  862poe     o2 6023   5.524   0.602   6.221  0.2066  0.2106  0.0156
  862poe    c31 6024   5.429   0.705   6.232 -0.2728 -0.2491  0.2120
  863poe    c31 6025   3.434   0.734   6.417 -0.2575 -0.3998 -0.1908
  863poe     o2 6026   3.363   0.702   6.300  0.3268  0.2227 -0.7194
  863poe    c23 6027   3.378   0.787   6.189 -0.3797  0.6198 -0.5129
  863poe    c23 6028   3.303   0.738   6.063 -0.0060 -0.5384 -0.2920
  863poe     o2 6029   3.172   0.691   6.090  0.1310 -0.6948  0.1125
  863poe    c23 6030   3.117   0.615   5.985  0.4361 -0.2567 -0.3714
  863poe    c23 6031   2.999   0.535   6.043  0.3562 -0.2704 -0.5539
  863poe     o2 6032   3.055   0.463   6.150 -0.1077  0.0037 -0.1265
  863poe    c23 6033   2.964   0.374   6.211 -0.3545  0.9450  0.9127
  863poe    c23 6034   3.032   0.322   6.340 -0.7632  0.2527  0.8508
  863poe     o2 6035   3.083   0.430   6.414  0.0423  0.1898  0.4067
  863poe    c31 6036   3.132   0.388   6.540  0.6447  0.1971  0.1764
  864poe    c31 6037   0.316   0.984   4.159  0.0847  0.6310  0.6640
  864poe     o2 6038   0.367   0.902   4.261  0.1338  0.0214  0.1571
  864poe    c23 6039   0.457   0.987   4.328 -0.3846  0.3116  0.4917
  864poe    c23 6040   0.529   0.893   4.427  0.4951  0.3123 -0.1392
  864poe     o2 6041   0.486   0.759   4.422  0.5945  0.3022 -0.8566
  864poe    c23 6042   0.596   0.681   4.460  0.0106 -0.2794 -0.3360
  864poe    c23 6043   0.551   0.534   4.458 -0.9064 -0.0329  0.9634
  864poe     o2 6044   0.492   0.511   4.332  0.2303 -0.1503  0.4403
  864poe    c23 6045   0.457   0.377   4.308 -0.0730  0.1785 -1.0399
  864poe    c23 6046   0.343   0.312   4.389  0.2566  0.6298 -0.2064
  864poe     o2 6047   0.373   0.311   4.527 -0.1929  0.1754 -0.1088
  864poe    c31 6048   0.263   0.261   4.599 -0.3608  0.3706 -0.2294
  865poe    c31 6049   1.200   0.899   4.717 -0.4494 -0.1123  0.3181
  865poe     o2 6050   1.227   0.951   4.589 -0.0535 -0.4356  0.2678
  865poe    c23 6051   1.258   0.840   4.508  0.3136  0.4568 -0.8419
  865poe    c23 6052   1.351   0.893   4.398  0.9635  0.4961 -0.2815
  865poe     o2 6053   1.287   1.011   4.353  0.0727  0.0773 -0.1333
  865poe    c23 6054   1.380   1.108   4.310  0.5848 -0.1911  0.3430
  865poe    c23 6055   1.285   1.225   4.276 -0.0275 -0.8067 -0.0884
  865poe     o2 6056   1.221   1.244   4.401  0.1569  0.1569 -0.1346
  865poe    c23 6057   1.112   1.333   4.394  0.2120  0.2886  0.6462
  865poe    c23 6058   0.995   1.234   4.415 -0.0120  0.4808  0.3169
  865poe     o2 6059   1.033   1.134   4.507 -0.0544  0.0070 -0.1752
  865poe    c31 6060   0.926   1.057   4.557  0.7125 -0.7072  0.3872
  866poe    c31 6061   5.885   0.463   6.839  0.4893  0.2695  0.4874
  866poe     o2 6062   5.838   0.498   6.967 -0.0440  0.2578  0.2980
  866poe    c23 6063   5.722   0.418   6.973 -0.1740  0.3714 -0.5907
  866poe    c23 6064   5.593   0.489   7.018 -0.1407  0.2021 -0.2303
  866poe     o2 6065   5.617   0.529   7.152  0.4111  0.3047 -0.3578
  866poe    c23 6066   5.516   0.619   7.190  0.0627 -0.1019 -0.3062
  866poe    c23 6067   5.544   0.696   7.321 -0.1758 -0.4921 -0.0262
  866poe     o2 6068   5.675   0.746   7.333 -0.4109  0.0702  0.2011
  866poe    c23 6069   5.688   0.828   7.447  0.0353  0.5331 -0.1762
  866poe    c23 6070   5.837   0.857   7.470  0.2373  0.0077 -0.8090
  866poe     o2 6071   5.882   0.728   7.504  0.1597  0.1672 -0.0901
  866poe    c31 6072   6.015   0.729   7.551  0.2139  0.6459 -0.2565
  867poe    c31 6073   4.478   5.890   5.621 -0.4862 -0.4950 -1.2671
  867poe     o2 6074   4.374   5.980   5.592 -0.4638  0.1475  0.4871
  867poe    c23 6075   4.422   6.097   5.529 -0.4161 -0.0681  0.1214
  867poe    c23 6076   4.307   6.193   5.493 -0.0352  0.0611 -0.7988
  867poe     o2 6077   4.209   6.094   5.470  0.1856 -0.3642  0.0324
  867poe    c23 6078   4.105   6.148   5.391  0.5594 -0.1748 -0.3326
  867poe    c23 6079   3.993   6.042   5.399  0.1506  0.3230  0.5366
  867poe     o2 6080   3.994   5.977   5.524  0.4296 -0.7658 -0.0276
  867poe    c23 6081   3.924   5.857   5.499  0.0989 -0.6964  0.5381
  867poe    c23 6082   3.989   5.757   5.596  0.0406 -1.0118  0.2537
  867poe     o2 6083   4.128   5.782   5.593  0.0127 -0.8825  0.0108
  867poe    c31 6084   4.206   5.667   5.618  0.3878 -0.5051  0.6179
  868poe    c31 6085   1.424   6.080   1.524  0.1249  0.4308  0.4661
  868poe     o2 6086   1.407   5.996   1.636 -0.0923 -0.0506  0.0754
  868poe    c23 6087   1.416   6.079   1.750 -0.0317  0.0805 -0.0229
  868poe    c23 6088   1.380   5.993   1.873 -0.4480 -0.4707 -0.5254
  868poe     o2 6089   1.399   5.856   1.843  0.5345 -0.3749 -0.3529
  868poe    c23 6090   1.384   5.764   1.948 -0.5298 -0.3404 -0.4688
  868poe    c23 6091   1.496   5.667   1.906  0.1963  0.4149 -0.2811
  868poe     o2 6092   1.469   5.617   1.777 -0.2424  0.0404 -0.0461
  868poe    c23 6093   1.409   5.490   1.780 -0.2715  0.0526 -0.1131
  868poe    c23 6094   1.501   5.374   1.823  0.2346  0.4354 -0.1579
  868poe     o2 6095   1.586   5.327   1.721 -0.0305 -0.7847  0.1648
  868poe    c31 6096   1.525   5.255   1.616  0.2749 -0.5299 -0.1907
  869poe    c31 6097   1.882   1.185   4.070  0.0449  0.7488  0.0564
  869poe     o2 6098   1.941   1.252   3.961 -0.0546  0.1564 -0.3644
  869poe    c23 6099   1.954   1.166   3.849  0.1001 -0.3072  0.0067
  869poe    c23 6100   2.000   1.211   3.709 -0.4191  0.1393 -0.0258
  869poe     o2 6101   1.940   1.337   3.687  0.0780  0.3007 -0.4723
  869poe    c23 6102   2.013   1.422   3.602  0.2090  0.4072 -0.2549
  869poe    c23 6103   1.964   1.555   3.661 -0.1923 -0.0723  0.4976
  869poe     o2 6104   1.966   1.534   3.801  0.2548 -0.6802  0.4028
  869poe    c23 6105   1.967   1.662   3.860 -0.1667 -0.5882  0.2180
  869poe    c23 6106   1.877   1.663   3.985  0.0212 -0.1271  0.3495
  869poe     o2 6107   1.894   1.535   4.042  0.0714 -0.0897  0.4193
  869poe    c31 6108   1.829   1.517   4.166 -0.7745 -0.7997 -0.1148
  870poe    c31 6109   0.877   6.879   5.302 -0.4926  0.7631 -0.2309
  870poe     o2 6110   0.798   6.930   5.197 -0.5766  0.7682 -0.1658
  870poe    c23 6111   0.698   7.024   5.230 -0.8017  0.2171  0.7774
  870poe    c23 6112   0.642   7.081   5.098  0.0738 -0.0237  0.2879
  870poe     o2 6113   0.595   6.976   5.016 -0.2785  0.1845  0.2214
  870poe    c23 6114   0.500   7.032   4.928 -0.1341 -0.1027 -0.1158
  870poe    c23 6115   0.409   6.927   4.861 -0.0535 -0.0549 -0.3033
  870poe     o2 6116   0.474   6.812   4.813 -0.5223 -0.3618 -0.2071
  870poe    c23 6117   0.394   6.726   4.734 -0.5936 -0.0553 -0.4689
  870poe    c23 6118   0.474   6.597   4.708 -0.5494 -0.2264  0.4813
  870poe     o2 6119   0.578   6.577   4.801 -0.3105  0.0248  0.2688
  870poe    c31 6120   0.640   6.452   4.787 -0.9385 -0.2318 -0.2166
  871poe    c31 6121   3.108   5.665   5.328  0.0090 -0.2643  0.0103
  871poe     o2 6122   3.133   5.694   5.193 -0.1036 -0.0326  0.0379
  871poe    c23 6123   3.127   5.833   5.168  0.1923  0.0269  0.2837
  871poe    c23 6124   3.125   5.830   5.014  0.6283  0.4286  0.2691
  871poe     o2 6125   3.229   5.746   4.967  0.3809  0.2350  0.0627
  871poe    c23 6126   3.232   5.718   4.829  0.4728  0.4333  0.0241
  871poe    c23 6127   3.157   5.585   4.809  0.1842  0.6141 -0.1094
  871poe     o2 6128   3.201   5.496   4.909 -0.3002 -0.0178 -0.4535
  871poe    c23 6129   3.134   5.373   4.891  0.1469 -0.2234 -0.7090
  871poe    c23 6130   3.148   5.294   5.023  0.2204  0.3216 -0.3890
  871poe     o2 6131   3.142   5.381   5.134 -0.4411 -0.1205 -0.0732
  871poe    c31 6132   3.159   5.317   5.258  0.4166  0.7474  0.2716
  872poe    c31 6133   4.694   3.313   1.383 -0.4431  0.2713  0.3838
  872poe     o2 6134   4.768   3.381   1.482  0.1575 -0.0319  0.1439
  872poe    c23 6135   4.745   3.331   1.612  0.0329 -0.5414 -0.0745
  872poe    c23 6136   4.780   3.440   1.715 -0.1562 -0.4461 -0.1106
  872poe     o2 6137   4.907   3.501   1.713 -0.2344 -0.2752  0.1431
  872poe    c23 6138   5.004   3.439   1.795  0.0291  0.2538  0.2358
  872poe    c23 6139   5.135   3.501   1.744 -0.0902  0.4612  0.1819
  872poe     o2 6140   5.126   3.641   1.724 -0.4263  0.3475 -0.4570
  872poe    c23 6141   5.252   3.694   1.692 -0.0600 -0.1965  0.0611
  872poe    c23 6142   5.227   3.846   1.704 -0.1517 -0.2406  0.4564
  872poe     o2 6143   5.096   3.872   1.659 -0.0790 -0.0004  0.3811
  872poe    c31 6144   5.067   4.001   1.611 -0.1691  0.0021  0.4420
  873poe    c31 6145   2.660   6.749   4.364  0.5414  0.1678  0.9430
  873poe     o2 6146   2.580   6.632   4.361 -0.0900  0.6010  0.5398
  873poe    c23 6147   2.445   6.672   4.356 -0.2021  0.1674 -0.0284
  873poe    c23 6148   2.366   6.551   4.408 -0.7783  0.3230 -0.5330
  873poe     o2 6149   2.407   6.437   4.334  0.2167  0.2488  0.1101
  873poe    c23 6150   2.371   6.310   4.383 -0.2388  0.4234  0.2335
  873poe    c23 6151   2.478   6.240   4.468  0.0356  0.0647 -0.4026
  873poe     o2 6152   2.590   6.269   4.386  0.4610 -0.2113  0.0746
  873poe    c23 6153   2.705   6.194   4.418  0.4176 -0.6424 -0.7562
  873poe    c23 6154   2.821   6.282   4.370 -0.2586  0.8322  0.2340
  873poe     o2 6155   2.776   6.415   4.356 -0.4814  0.7310 -0.0247
  873poe    c31 6156   2.873   6.483   4.280 -0.1195 -0.0558 -0.2800
  874poe    c31 6157   2.195   3.424   3.947 -0.0172  0.2687 -0.2254
  874poe     o2 6158   2.219   3.521   4.046 -0.0769  0.5956 -0.5304
  874poe    c23 6159   2.239   3.649   3.991  0.5083  0.4906 -0.5704
  874poe    c23 6160   2.103   3.721   3.981  0.2266  0.0611  0.1352
  874poe     o2 6161   2.119   3.855   3.939 -0.3942  0.1631  0.2152
  874poe    c23 6162   1.988   3.903   3.924 -0.3641  0.1193 -0.1914
  874poe    c23 6163   2.007   4.055   3.923 -0.0274  0.0758 -0.8407
  874poe     o2 6164   2.108   4.084   3.829  0.2710  0.6024 -0.3692
  874poe    c23 6165   2.133   4.219   3.797 -0.0508  0.7350 -0.0701
  874poe    c23 6166   2.270   4.227   3.726 -0.0104  0.3465 -0.0382
  874poe     o2 6167   2.356   4.128   3.777 -0.1532 -0.0204 -0.4935
  874poe    c31 6168   2.463   4.130   3.685  0.4973 -0.1228  0.2433
  875poe    c31 6169   1.212   6.428   0.390  0.2111 -0.2707 -0.5910
  875poe     o2 6170   1.190   6.290   0.372 -0.2076 -0.2862 -0.0006
  875poe    c23 6171   1.074   6.276   0.293 -0.3093 -0.4525  0.1790
  875poe    c23 6172   1.047   6.128   0.257 -0.3581 -0.3068 -0.4032
  875poe     o2 6173   1.093   6.057   0.370 -0.1990  0.8493  0.2823
  875poe    c23 6174   0.987   5.996   0.441  0.2957 -0.2748  0.0867
  875poe    c23 6175   1.038   5.976   0.585 -0.1036  0.2847  0.3116
  875poe     o2 6176   1.112   6.092   0.617 -0.1436  0.3274  0.2501
  875poe    c23 6177   1.178   6.092   0.742 -0.1175 -0.0824  0.2383
  875poe    c23 6178   1.262   6.220   0.756  0.3285 -0.3583  0.1094
  875poe     o2 6179   1.324   6.223   0.629 -0.1863 -0.0380 -0.1373
  875poe    c31 6180   1.453   6.280   0.632 -0.2925  0.1973 -0.0374
  876poe    c31 6181   0.688   5.648   3.464 -0.3175 -0.0288 -0.2926
  876poe     o2 6182   0.603   5.539   3.490 -0.3852  0.2118  0.5367
  876poe    c23 6183   0.647   5.485   3.612 -0.3288  0.4243  0.6106
  876poe    c23 6184   0.547   5.384   3.670 -0.4882  0.4171  0.3253
  876poe     o2 6185   0.477   5.334   3.559 -0.1889  0.4189  0.1359
  876poe    c23 6186   0.371   5.249   3.597  0.4150 -0.6558 -0.5319
  876poe    c23 6187   0.272   5.237   3.480 -0.4300 -0.0613  0.1098
  876poe     o2 6188   0.265   5.367   3.425  0.0434 -0.3321 -0.6041
  876poe    c23 6189   0.247   5.352   3.286  0.1188 -0.2388 -0.6237
  876poe    c23 6190   0.277   5.491   3.225  0.1921  0.2625  0.5247
  876poe     o2 6191   0.407   5.521   3.270  0.6415 -0.4471 -0.2715
  876poe    c31 6192   0.474   5.611   3.184 -0.2666  0.6257  0.1316
  877poe    c31 6193   4.409   6.878   1.049  0.2607 -0.5979 -0.0168
  877poe     o2 6194   4.410   6.759   0.972  0.4997 -0.5170 -0.1411
  877poe    c23 6195   4.490   6.786   0.859 -0.3084  0.5054 -0.4914
  877poe    c23 6196   4.502   6.664   0.765 -0.6884  0.2922 -0.2638
  877poe     o2 6197   4.382   6.589   0.754 -0.4505 -0.1742  0.2609
  877poe    c23 6198   4.409   6.475   0.676 -0.2856 -0.2344  0.4040
  877poe    c23 6199   4.278   6.403   0.638 -0.2163 -0.3914  0.4606
  877poe     o2 6200   4.189   6.390   0.747 -0.1993 -0.0589  0.5158
  877poe    c23 6201   4.091   6.292   0.720  0.5547 -0.7895  0.3965
  877poe    c23 6202   3.968   6.339   0.800  0.4578  0.2882 -0.3740
  877poe     o2 6203   3.968   6.479   0.812  1.0554  0.2020  0.7648
  877poe    c31 6204   3.857   6.529   0.884  0.7149  0.0606  0.3466
  878poe    c31 6205   2.848   5.081   2.418 -0.7327  0.2006 -0.2758
  878poe     o2 6206   2.843   4.949   2.465 -0.2056  0.4769  0.5741
  878poe    c23 6207   2.835   4.853   2.362  0.2104  0.3424  0.6618
  878poe    c23 6208   2.840   4.711   2.421  0.0428 -0.2167 -0.6395
  878poe     o2 6209   2.725   4.701   2.503  0.8127 -0.2517  0.4527
  878poe    c23 6210   2.733   4.582   2.579 -0.1451 -0.4668  0.2276
  878poe    c23 6211   2.619   4.583   2.682  0.3060 -0.1160  0.7298
  878poe     o2 6212   2.615   4.713   2.736 -0.3535  0.1101  0.1561
  878poe    c23 6213   2.528   4.726   2.846  0.0282  0.4353  0.4216
  878poe    c23 6214   2.557   4.857   2.922  0.0309  0.6872 -0.0083
  878poe     o2 6215   2.690   4.872   2.968  0.1415 -0.1666 -0.0356
  878poe    c31 6216   2.698   4.965   3.073  0.1341 -0.2007 -0.0049
  879poe    c31 6217   1.912   2.073   2.354  0.2271  0.0657 -0.3720
  879poe     o2 6218   2.045   2.089   2.310  0.4586  0.4105  0.4333
  879poe    c23 6219   2.107   2.215   2.323  0.1010  0.5767  0.5505
  879poe    c23 6220   2.257   2.201   2.354  0.1379 -0.4409 -0.0324
  879poe     o2 6221   2.308   2.082   2.298  0.1051 -0.3977 -0.1534
  879poe    c23 6222   2.424   2.090   2.219 -0.0166  0.0725 -0.2888
  879poe    c23 6223   2.426   1.965   2.129 -0.5588 -0.3911  0.3386
  879poe     o2 6224   2.292   1.970   2.085 -0.3678  0.6373 -0.1517
  879poe    c23 6225   2.257   1.870   1.992  0.0560  0.1324  0.2260
  879poe    c23 6226   2.111   1.899   1.952  0.1137  0.2286  0.0847
  879poe     o2 6227   2.038   1.947   2.062 -0.0563  0.4413 -0.1203
  879poe    c31 6228   1.906   1.984   2.029  0.0612  0.5168 -0.5154
  880poe    c31 6229   6.580   0.783   1.162 -0.0026  0.4626  0.5495
  880poe     o2 6230   6.516   0.802   1.038 -0.3019  0.1128  0.6502
  880poe    c23 6231   6.491   0.676   0.979  0.9600  0.1185  0.0867
  880poe    c23 6232   6.466   0.701   0.829 -0.0177 -0.2243  0.1908
  880poe     o2 6233   6.368   0.801   0.811  0.4404  0.2629  0.3983
  880poe    c23 6234   6.391   0.857   0.683 -0.3302  0.3755  0.3076
  880poe    c23 6235   6.381   1.009   0.705 -0.5077  0.4339 -0.1747
  880poe     o2 6236   6.444   1.025   0.830 -0.4233 -0.0073 -0.1618
  880poe    c23 6237   6.430   1.159   0.869  0.1563 -0.0682  0.2716
  880poe    c23 6238   6.486   1.200   1.007  0.1037  1.0649 -0.0274
  880poe     o2 6239   6.427   1.121   1.107  0.3912  0.5017 -0.2962
  880poe    c31 6240   6.435   1.173   1.238  0.7694 -0.0122 -0.1079
  881poe    c31 6241   0.430   1.309   3.586  0.1803 -0.2575  0.1138
  881poe     o2 6242   0.522   1.412   3.614 -0.2831  0.0922  0.3653
  881poe    c23 6243   0.495   1.540   3.562  0.4836  0.1906  0.2007
  881poe    c23 6244   0.623   1.624   3.548  0.5619 -0.0277 -0.4202
  881poe     o2 6245   0.708   1.592   3.656 -0.2020 -0.0341  0.1828
  881poe    c23 6246   0.838   1.645   3.645 -0.2969  0.2997  0.6226
  881poe    c23 6247   0.936   1.598   3.754 -0.2681  0.1867  0.5482
  881poe     o2 6248   0.898   1.466   3.788 -0.6601  0.2609  0.3995
  881poe    c23 6249   1.014   1.410   3.845 -0.1954  0.6775 -0.1229
  881poe    c23 6250   0.992   1.272   3.910 -0.2036  0.4652 -0.5708
  881poe     o2 6251   0.924   1.184   3.824 -0.3733 -0.1353  0.1704
  881poe    c31 6252   0.911   1.052   3.873 -0.4052 -0.0727  0.3298
  882poe    c31 6253   2.423   0.611   3.934 -0.2526 -0.0207  0.3245
  882poe     o2 6254   2.508   0.501   3.960 -0.0948 -0.2982 -1.2543
  882poe    c23 6255   2.422   0.390   3.974  0.0158 -0.1944  0.3248
  882poe    c23 6256   2.472   0.261   3.907  0.4057 -0.0751  0.3829
  882poe     o2 6257   2.606   0.243   3.948  0.4133 -0.2698  0.2731
  882poe    c23 6258   2.673   0.158   3.858  0.5311  0.0726  0.0355
  882poe    c23 6259   2.819   0.207   3.852  0.4535  0.3458  0.3832
  882poe     o2 6260   2.830   0.348   3.846  0.3188  0.3379 -0.0621
  882poe    c23 6261   2.942   0.396   3.916  0.3951  0.2192 -0.1016
  882poe    c23 6262   2.924   0.549   3.911  0.1736  0.1773 -0.5882
  882poe     o2 6263   2.792   0.583   3.949  0.2021 -0.0412 -0.2908
  882poe    c31 6264   2.784   0.724   3.946  0.9173  0.0373  0.8976
  883poe    c31 6265   3.928   0.683   3.680  0.0211 -0.1206 -0.3924
  883poe     o2 6266   3.985   0.573   3.747  0.4350 -0.1636 -0.8064
  883poe    c23 6267   3.887   0.527   3.838  0.6978 -0.1366 -0.5085
  883poe    c23 6268   3.927   0.388   3.892 -0.2727 -0.1532  0.2002
  883poe     o2 6269   4.068   0.373   3.896 -0.2822 -0.2551  0.1773
  883poe    c23 6270   4.103   0.237   3.905  0.1212 -0.1396  0.3328
  883poe    c23 6271   4.256   0.215   3.899  0.0769 -0.3851  0.0966
  883poe     o2 6272   4.308   0.314   3.813 -0.2446 -0.1372  0.1812
  883poe    c23 6273   4.449   0.323   3.814 -0.2694  0.2501  0.1004
  883poe    c23 6274   4.493   0.451   3.740 -0.1556  0.3292  0.3044
  883poe     o2 6275   4.494   0.571   3.814  0.3476  0.3185  0.3207
  883poe    c31 6276   4.580   0.675   3.775  0.7087 -0.2039 -0.2982
  884poe    c31 6277   2.266   0.268   5.519  0.0156 -0.7288  0.2581
  884poe     o2 6278   2.345   0.213   5.416  0.4752  0.0479  0.1924
  884poe    c23 6279   2.326   0.073   5.424  0.0325  0.0989  0.0482
  884poe    c23 6280   2.430  -0.001   5.338  0.1823  0.2262  0.1188
  884poe     o2 6281   2.456   0.092   5.235 -0.0044  0.4515  0.2752
  884poe    c23 6282   2.532   0.046   5.126 -0.4705  0.4218 -0.0393
  884poe    c23 6283   2.609   0.168   5.070  0.2532 -0.1715 -0.3566
  884poe     o2 6284   2.519   0.276   5.080  0.6762  0.1689 -0.2303
  884poe    c23 6285   2.581   0.403   5.070  0.5378  0.2343 -0.2585
  884poe    c23 6286   2.632   0.449   5.208  0.6443 -0.6903  0.0225
  884poe     o2 6287   2.537   0.425   5.309  0.5440  0.2242  0.1578
  884poe    c31 6288   2.531   0.516   5.416  0.2397 -0.1684  0.4743
  885poe    c31 6289   0.450   3.650   1.268  0.3146  0.8510  0.0946
  885poe     o2 6290   0.565   3.570   1.285 -0.1043  0.2938  0.3163
  885poe    c23 6291   0.528   3.438   1.252  0.1590  0.1663  0.5296
  885poe    c23 6292   0.594   3.378   1.127 -0.6564 -0.0807  0.2138
  885poe     o2 6293   0.734   3.387   1.128 -0.6628 -0.0012  0.3285
  885poe    c23 6294   0.769   3.298   1.025 -0.3760 -0.0422  0.4590
  885poe    c23 6295   0.910   3.328   0.969 -0.3479  0.0402  0.5745
  885poe     o2 6296   0.986   3.356   1.084  0.2446 -0.1552  0.2310
  885poe    c23 6297   1.105   3.428   1.061  0.0664 -0.0339 -0.3250
  885poe    c23 6298   1.162   3.467   1.199 -0.6626 -0.2021  0.0288
  885poe     o2 6299   1.058   3.478   1.293 -0.4826 -0.0440  0.2114
  885poe    c31 6300   1.121   3.532   1.407  0.1276 -0.7749  0.2283
  886poe    c31 6301   3.342   0.478   2.443 -0.4677  0.4585  0.1024
  886poe     o2 6302   3.464   0.547   2.436  0.0102 -0.3270  0.5085
  886poe    c23 6303   3.493   0.601   2.563  0.7020  0.4101  0.0478
  886poe    c23 6304   3.427   0.739   2.582 -0.2837 -0.0679  0.1086
  886poe     o2 6305   3.469   0.835   2.489 -0.2316 -0.1726  0.0237
  886poe    c23 6306   3.419   0.966   2.509 -0.6513 -0.2143 -0.7162
  886poe    c23 6307   3.509   1.068   2.436  0.1684 -0.2281  0.2610
  886poe     o2 6308   3.568   0.993   2.332  0.1843  0.6387 -0.3580
  886poe    c23 6309   3.622   1.077   2.232  1.4514  0.1220 -0.1269
  886poe    c23 6310   3.663   1.006   2.102 -0.0964 -0.5693 -0.2669
  886poe     o2 6311   3.739   0.893   2.139 -0.0554 -0.3183  0.4340
  886poe    c31 6312   3.807   0.832   2.031  0.1557  0.2427  0.2440
  887poe    c31 6313   0.155   5.999   5.803 -0.1043 -0.2727 -0.0440
  887poe     o2 6314   0.290   5.960   5.822  0.1369  0.4741 -0.2096
  887poe    c23 6315   0.319   5.891   5.702  0.2839  0.6203 -0.2581
  887poe    c23 6316   0.466   5.849   5.712  0.1192  0.0564 -0.1832
  887poe     o2 6317   0.549   5.961   5.733  0.6436 -0.4712  0.5801
  887poe    c23 6318   0.684   5.935   5.701  0.3665 -0.9520 -0.2217
  887poe    c23 6319   0.781   6.039   5.762 -0.4451 -0.3581  0.0724
  887poe     o2 6320   0.757   6.042   5.901  0.2117  0.3225  0.1761
  887poe    c23 6321   0.843   6.137   5.958  0.3657  0.2748  0.0239
  887poe    c23 6322   0.776   6.177   6.090 -0.3820  0.0760 -0.2913
  887poe     o2 6323   0.734   6.066   6.166  0.0915  0.1058  0.0208
  887poe    c31 6324   0.685   6.103   6.293 -0.1512  0.5456 -0.2019
  888poe    c31 6325   4.116   1.764   0.000 -0.2171 -0.5011  0.5473
  888poe     o2 6326   4.207   1.863  -0.042 -0.2304 -0.5525  0.3950
  888poe    c23 6327   4.225   1.872  -0.181 -0.4205 -0.2820  0.3867
  888poe    c23 6328   4.347   1.960  -0.215 -0.2525 -0.6304  0.0806
  888poe     o2 6329   4.473   1.915  -0.171 -0.1527 -0.5457 -0.1164
  888poe    c23 6330   4.521   1.822  -0.266  0.0724 -0.3739 -0.1708
  888poe    c23 6331   4.669   1.792  -0.239  0.1226 -0.3503 -0.4159
  888poe     o2 6332   4.723   1.917  -0.203 -0.2420 -0.0775 -0.8138
  888poe    c23 6333   4.856   1.924  -0.157 -0.3606  0.2572 -0.5114
  888poe    c23 6334   4.906   2.061  -0.107 -0.2472  0.1108 -0.2256
  888poe     o2 6335   4.830   2.099   0.006 -0.0632  0.2003 -0.1315
  888poe    c31 6336   4.913   2.155   0.106 -0.3648  0.4090  0.0025
  889poe    c31 6337   4.171   6.163   4.725  0.0640 -0.0738  0.0337
  889poe     o2 6338   4.105   6.242   4.629  0.1477 -0.5871 -0.4553
  889poe    c23 6339   4.173   6.240   4.506  0.6475 -0.4194 -0.1842
  889poe    c23 6340   4.134   6.370   4.434 -0.2888 -0.4310  0.2947
  889poe     o2 6341   4.019   6.423   4.496  0.1274  0.4354  0.3532
  889poe    c23 6342   3.973   6.535   4.424 -0.2656  0.4586  0.6352
  889poe    c23 6343   3.987   6.654   4.519  0.5638  0.1602  0.8910
  889poe     o2 6344   3.897   6.630   4.625  0.0383  0.1966  0.4504
  889poe    c23 6345   3.905   6.746   4.705 -0.8781  0.9757 -0.5454
  889poe    c23 6346   3.804   6.741   4.820  0.0633  0.8692  0.2893
  889poe     o2 6347   3.817   6.634   4.912  0.6528  0.5926 -0.1064
  889poe    c31 6348   3.738   6.670   5.024 -0.4257 -0.2900 -0.5601
  890poe    c31 6349   5.968   3.680   3.421 -0.9825 -0.3684 -0.8016
  890poe     o2 6350   5.962   3.570   3.333 -0.4448 -1.0533 -0.0022
  890poe    c23 6351   5.972   3.627   3.204 -0.4885 -0.1197  0.3964
  890poe    c23 6352   5.970   3.509   3.104 -0.0463  0.0153  0.2259
  890poe     o2 6353   6.030   3.392   3.155  0.3251  0.3642  0.6012
  890poe    c23 6354   6.052   3.299   3.051  0.2759  0.4232  0.5385
  890poe    c23 6355   6.077   3.172   3.133 -0.2295 -0.2369 -0.3086
  890poe     o2 6356   5.989   3.173   3.244  0.6929  0.8932  0.4387
  890poe    c23 6357   6.040   3.095   3.350  0.1505 -0.2965 -0.1492
  890poe    c23 6358   6.140   3.169   3.441  0.2605 -0.3516 -0.2265
  890poe     o2 6359   6.100   3.303   3.456  0.2596 -0.3530 -0.2147
  890poe    c31 6360   6.200   3.363   3.535 -0.0519 -0.8885  0.6012
  891poe    c31 6361   2.251   4.682   2.193 -0.3294 -0.4158  0.1573
  891poe     o2 6362   2.186   4.648   2.072 -0.0430  0.1729 -0.1675
  891poe    c23 6363   2.080   4.557   2.091 -0.0162  0.1706 -0.0263
  891poe    c23 6364   2.034   4.511   1.952  0.0852  0.4554 -0.1550
  891poe     o2 6365   2.143   4.465   1.875  0.1699 -0.2206  0.3583
  891poe    c23 6366   2.098   4.404   1.756  0.4674  0.2826 -0.0181
  891poe    c23 6367   2.214   4.332   1.684  0.0035 -0.0528 -0.4344
  891poe     o2 6368   2.315   4.430   1.675 -0.3546  0.2807 -0.9111
  891poe    c23 6369   2.414   4.365   1.599 -0.1208  0.5057 -0.7978
  891poe    c23 6370   2.400   4.386   1.447 -0.2184  0.2203 -0.8285
  891poe     o2 6371   2.280   4.333   1.395 -0.5868  0.1982  0.0358
  891poe    c31 6372   2.276   4.342   1.255  0.0322  0.4011  0.0292
  892poe    c31 6373   2.435   4.028   6.824 -0.6034  0.3598 -0.1536
  892poe     o2 6374   2.468   4.055   6.689 -0.0952  0.6281  0.0202
  892poe    c23 6375   2.381   4.153   6.638 -0.0399  0.0796 -1.1653
  892poe    c23 6376   2.457   4.212   6.517  0.2361  0.3400 -0.8671
  892poe     o2 6377   2.497   4.101   6.440  0.6630 -0.0936 -0.0381
  892poe    c23 6378   2.611   4.116   6.357  0.5025 -0.2130 -0.2782
  892poe    c23 6379   2.744   4.112   6.434  0.2661 -0.1022  0.1411
  892poe     o2 6380   2.728   3.998   6.516 -0.3166  0.0714  0.2729
  892poe    c23 6381   2.823   3.987   6.619  0.2002 -0.2815 -0.2351
  892poe    c23 6382   2.784   3.855   6.688  0.2892 -0.2015 -0.0293
  892poe     o2 6383   2.645   3.840   6.703  0.2097  0.3286 -0.2028
  892poe    c31 6384   2.622   3.720   6.773  1.0257 -0.2193 -0.8574
  893poe    c31 6385   3.420   6.594   4.798  0.0984 -0.3169 -0.1462
  893poe     o2 6386   3.318   6.641   4.713  0.0271  0.0649  0.1493
  893poe    c23 6387   3.305   6.775   4.755 -0.4669 -0.1311  0.6370
  893poe    c23 6388   3.243   6.856   4.639  0.2170 -0.1590  0.2448
  893poe     o2 6389   3.170   6.767   4.558 -0.2032  0.3682  0.0371
  893poe    c23 6390   3.171   6.800   4.421 -0.7954  0.3183  0.0190
  893poe    c23 6391   3.225   6.682   4.337  0.5278  0.4475  0.6606
  893poe     o2 6392   3.207   6.568   4.418  0.0793  0.1138  0.1020
  893poe    c23 6393   3.262   6.456   4.353  0.2634 -0.1534  0.7148
  893poe    c23 6394   3.232   6.339   4.449 -0.0553 -0.3886  0.3338
  893poe     o2 6395   3.288   6.376   4.573  0.8894  0.0957 -0.2222
  893poe    c31 6396   3.310   6.258   4.647  0.4495 -0.0239 -0.2812
  894poe    c31 6397   6.469   3.715   3.494  0.3383 -0.4632  0.0099
  894poe     o2 6398   6.466   3.842   3.554 -0.0937 -0.1246 -0.7118
  894poe    c23 6399   6.381   3.923   3.477 -0.8443 -0.4954 -0.2830
  894poe    c23 6400   6.411   4.065   3.530 -0.0805 -0.7759  0.0401
  894poe     o2 6401   6.395   4.060   3.671 -0.2489 -0.0852  0.0456
  894poe    c23 6402   6.294   4.151   3.709  0.2495  0.5181 -0.0489
  894poe    c23 6403   6.291   4.187   3.858 -0.0351  0.1242  0.0422
  894poe     o2 6404   6.408   4.254   3.899 -0.0957  0.4123 -0.2557
  894poe    c23 6405   6.421   4.220   4.035  0.5593  0.7600 -0.2255
  894poe    c23 6406   6.564   4.230   4.091  0.2698  0.6674  0.5396
  894poe     o2 6407   6.642   4.131   4.028 -0.1574  0.3501  0.5070
  894poe    c31 6408   6.779   4.149   4.052  0.1939 -0.2671 -0.9063
  895poe    c31 6409   2.121   0.511   2.583 -0.4794 -0.4580 -0.5242
  895poe     o2 6410   2.011   0.433   2.624 -0.5619  0.0763  0.2920
  895poe    c23 6411   1.946   0.488   2.736  0.0395  0.0174  0.6791
  895poe    c23 6412   1.805   0.426   2.742 -0.0983  0.2674  0.0841
  895poe     o2 6413   1.824   0.293   2.700  0.0617  0.2521  0.2048
  895poe    c23 6414   1.716   0.209   2.732  0.1002  0.2144  0.2346
  895poe    c23 6415   1.752   0.059   2.725  0.1820  0.2403  0.1038
  895poe     o2 6416   1.826   0.032   2.608 -0.0031 -0.4717  0.1480
  895poe    c23 6417   1.860  -0.105   2.604 -0.5233 -0.6119  0.4404
  895poe    c23 6418   1.942  -0.138   2.478 -0.1749  0.2882  0.4210
  895poe     o2 6419   2.079  -0.106   2.487 -0.2948  0.9215 -0.0140
  895poe    c31 6420   2.134  -0.116   2.357 -0.1453 -0.5294  0.1547
  896poe    c31 6421   0.576   2.252   3.336  0.2457 -0.0539  0.1817
  896poe     o2 6422   0.448   2.267   3.392 -0.0406 -0.6531 -0.2949
  896poe    c23 6423   0.441   2.238   3.530 -0.1582 -0.2558 -0.2150
  896poe    c23 6424   0.293   2.207   3.558 -0.1287 -0.3061 -0.1153
  896poe     o2 6425   0.207   2.303   3.501  0.1353 -0.3018 -0.5136
  896poe    c23 6426   0.073   2.311   3.544  0.3872  0.0365  0.2283
  896poe    c23 6427   0.017   2.444   3.490  0.6157  0.0722  0.0766
  896poe     o2 6428   0.073   2.464   3.362 -0.4898  0.3122 -0.3851
  896poe    c23 6429   0.085   2.603   3.344 -0.3861  0.3189 -0.2672
  896poe    c23 6430   0.207   2.629   3.254 -0.1345  0.0221 -0.0136
  896poe     o2 6431   0.316   2.555   3.305  0.0267 -0.4771 -1.0555
  896poe    c31 6432   0.430   2.596   3.233  0.1815  0.0221 -0.5294
  897poe    c31 6433   2.262   2.692   0.170  0.5591  0.3504 -0.4248
  897poe     o2 6434   2.304   2.760   0.287  0.2001 -0.6225  0.2874
  897poe    c23 6435   2.286   2.900   0.280  0.2064 -0.6534 -0.4505
  897poe    c23 6436   2.319   2.973   0.411 -0.5657 -0.1329 -0.5405
  897poe     o2 6437   2.216   2.975   0.508 -0.2728  0.6682 -0.2390
  897poe    c23 6438   2.248   3.041   0.629  0.0097  0.2150 -0.0621
  897poe    c23 6439   2.149   2.991   0.736  0.2789  0.2025  0.1809
  897poe     o2 6440   2.158   2.851   0.754  0.4535  0.1893  0.0002
  897poe    c23 6441   2.088   2.813   0.871  0.2403 -0.0405 -0.2026
  897poe    c23 6442   2.030   2.672   0.847 -0.6149  0.2861 -0.0767
  897poe     o2 6443   1.985   2.662   0.714 -0.0537 -0.0823 -0.2424
  897poe    c31 6444   1.952   2.526   0.697  0.3928 -0.3033  0.6054
  898poe    c31 6445   1.412   0.475   1.334 -0.1220 -0.5895  0.0128
  898poe     o2 6446   1.390   0.412   1.458 -0.7431 -0.4777 -0.0410
  898poe    c23 6447   1.257   0.422   1.505 -0.7392 -0.2373 -0.0818
  898poe    c23 6448   1.231   0.365   1.645  0.2560 -0.6135 -0.0445
  898poe     o2 6449   1.343   0.402   1.722  0.1581 -0.2501 -0.0747
  898poe    c23 6450   1.337   0.333   1.846 -0.2397  0.3016  0.2148
  898poe    c23 6451   1.475   0.351   1.911  0.0090 -0.3465 -0.1299
  898poe     o2 6452   1.570   0.322   1.811  0.5840 -0.1441  0.3494
  898poe    c23 6453   1.694   0.384   1.833  0.3037  0.7574 -0.5179
  898poe    c23 6454   1.695   0.516   1.753 -0.4509  0.7884 -0.4783
  898poe     o2 6455   1.640   0.479   1.629  0.3855 -0.4285 -0.5003
  898poe    c31 6456   1.642   0.603   1.562 -0.1180 -0.2593 -0.2023
  899poe    c31 6457   3.837   1.570   4.663 -0.3151  0.1704  0.1624
  899poe     o2 6458   3.848   1.574   4.522  0.9444 -0.2526  0.2332
  899poe    c23 6459   3.966   1.541   4.453  0.5961 -0.4000 -0.3011
  899poe    c23 6460   4.086   1.637   4.462  0.0663  0.2060  0.4373
  899poe     o2 6461   4.080   1.765   4.404  0.2678  0.2030  0.4088
  899poe    c23 6462   4.201   1.810   4.347 -0.0113 -0.3142 -0.6305
  899poe    c23 6463   4.192   1.913   4.233 -0.1276  0.3724 -0.0105
  899poe     o2 6464   4.094   2.001   4.283 -0.4983 -0.3173  0.4833
  899poe    c23 6465   4.053   2.074   4.170  0.8418 -0.2647  0.0244
  899poe    c23 6466   3.960   2.184   4.225  0.2959 -0.6451 -0.1303
  899poe     o2 6467   3.883   2.130   4.330 -0.1350  0.2856  0.0383
  899poe    c31 6468   3.753   2.182   4.342 -0.3542 -0.3039  0.2853
  900poe    c31 6469   4.654   0.188   2.784 -0.7717  0.2439  0.1345
  900poe     o2 6470   4.603   0.182   2.915  0.1812  0.3945  0.5167
  900poe    c23 6471   4.486   0.260   2.928  0.0932  0.4074 -0.3130
  900poe    c23 6472   4.359   0.173   2.921 -0.1155  0.6687  0.1596
  900poe     o2 6473   4.360   0.094   3.038  0.0641  0.4373  0.0045
  900poe    c23 6474   4.258  -0.002   3.056  0.3928  0.1660  0.4390
  900poe    c23 6475   4.197   0.024   3.195 -0.4797  0.1067  0.0790
  900poe     o2 6476   4.278  -0.019   3.303 -0.4109  0.1426  0.0411
  900poe    c23 6477   4.225  -0.127   3.375 -0.8732  0.2330 -0.1606
  900poe    c23 6478   4.322  -0.147   3.493 -0.1073  0.5951 -0.7186
  900poe     o2 6479   4.375  -0.026   3.543 -0.0249  0.1507  0.2967
  900poe    c31 6480   4.466  -0.045   3.649  0.2293 -0.0699  0.0401
  901poe    c31 6481   6.591   4.443   2.536 -0.7648 -0.2117  0.4565
  901poe     o2 6482   6.491   4.441   2.437  0.0469 -0.3612 -0.3768
  901poe    c23 6483   6.385   4.361   2.483  0.0996 -0.2933 -0.1370
  901poe    c23 6484   6.267   4.355   2.384  0.0095  0.6193 -0.0899
  901poe     o2 6485   6.271   4.485   2.329 -0.3107  0.6375 -0.0685
  901poe    c23 6486   6.183   4.491   2.218 -0.0894 -0.2824 -0.3046
  901poe    c23 6487   6.203   4.637   2.173  0.2636 -0.2543 -0.0555
  901poe     o2 6488   6.339   4.652   2.138  0.1386  0.1778 -0.3548
  901poe    c23 6489   6.363   4.779   2.081 -0.1889  0.3561 -0.1004
  901poe    c23 6490   6.502   4.780   2.015 -0.1404  0.4023  0.0015
  901poe     o2 6491   6.601   4.815   2.109 -0.0144 -0.0296  0.0329
  901poe    c31 6492   6.732   4.805   2.056 -0.0290 -0.9321  0.1555
  902poe    c31 6493   3.871   4.328   6.038  0.1102  0.6423 -0.3334
  902poe     o2 6494   3.804   4.214   5.991  0.4359  0.4951 -0.4424
  902poe    c23 6495   3.690   4.234   5.911  0.0818 -0.2567 -0.1379
  902poe    c23 6496   3.736   4.197   5.769  0.8296 -0.0359  0.0450
  902poe     o2 6497   3.737   4.058   5.745 -0.2008 -0.0561  0.0824
  902poe    c23 6498   3.809   4.002   5.638 -0.0276 -0.2640  0.3048
  902poe    c23 6499   3.765   3.859   5.601  0.0187 -0.2484  0.1856
  902poe     o2 6500   3.777   3.793   5.725  0.1726 -0.2278  0.1815
  902poe    c23 6501   3.743   3.657   5.713 -0.8397  0.0400 -0.1051
  902poe    c23 6502   3.711   3.599   5.852 -0.3220 -0.6058 -0.2455
  902poe     o2 6503   3.796   3.673   5.936 -0.1422 -0.8097 -0.2481
  902poe    c31 6504   3.808   3.586   6.046 -0.2507 -0.2693  0.1959
  903poe    c31 6505   0.537   3.428   4.468 -0.2395  0.0326 -0.0722
  903poe     o2 6506   0.656   3.375   4.415 -0.3423 -0.1292 -0.1422
  903poe    c23 6507   0.726   3.267   4.472  0.4221  0.6096  0.3387
  903poe    c23 6508   0.841   3.214   4.385 -0.1063 -0.1269  0.0852
  903poe     o2 6509   0.954   3.296   4.405 -0.2714  0.0894  0.1222
  903poe    c23 6510   1.068   3.241   4.343 -0.2815  0.0211  0.1646
  903poe    c23 6511   1.183   3.341   4.321 -0.4811  0.2173  0.0103
  903poe     o2 6512   1.121   3.462   4.285  0.1125  0.3587 -0.5479
  903poe    c23 6513   1.212   3.569   4.298 -0.1234  0.5374 -0.3480
  903poe    c23 6514   1.128   3.698   4.307  0.2279  0.7455 -0.0054
  903poe     o2 6515   1.033   3.667   4.406  0.3483  0.4777  0.0275
  903poe    c31 6516   0.962   3.779   4.455 -0.2546  0.0338  0.1831
  904poe    c31 6517   0.965   0.263   2.022  0.4837 -0.2949 -0.4147
  904poe     o2 6518   0.905   0.387   1.994  0.1482 -0.2907  0.2918
  904poe    c23 6519   0.785   0.376   1.920 -0.0914 -0.1483  0.6580
  904poe    c23 6520   0.707   0.505   1.889  0.8370  0.0684 -0.8527
  904poe     o2 6521   0.799   0.612   1.875  0.2864  0.6089 -0.4139
  904poe    c23 6522   0.739   0.738   1.894 -0.3402  0.3248 -0.4904
  904poe    c23 6523   0.855   0.831   1.931 -0.3738 -0.1256  0.7697
  904poe     o2 6524   0.941   0.792   2.037  0.1469 -0.4265  0.2410
  904poe    c23 6525   1.074   0.837   2.033 -0.0332  0.0675 -0.5899
  904poe    c23 6526   1.139   0.716   2.104 -0.1565 -0.0588 -0.6906
  904poe     o2 6527   1.098   0.587   2.066  0.3516 -0.3712 -0.1851
  904poe    c31 6528   1.173   0.510   2.158 -0.1771 -0.3219  0.2896
  905poe    c31 6529   2.459   2.727   3.574 -0.2363 -0.2585  0.0864
  905poe     o2 6530   2.453   2.830   3.477 -0.4911 -0.0589  0.3128
  905poe    c23 6531   2.406   2.798   3.348  0.0396  0.4111 -0.0032
  905poe    c23 6532   2.427   2.932   3.275  0.6915  0.2718 -0.0834
  905poe     o2 6533   2.377   3.033   3.360  0.1699  0.3104 -0.4272
  905poe    c23 6534   2.378   3.159   3.297  0.1940  0.6384  0.2131
  905poe    c23 6535   2.388   3.258   3.414  0.2180  0.3251  0.4789
  905poe     o2 6536   2.452   3.194   3.522  0.4189 -0.5578 -0.1556
  905poe    c23 6537   2.397   3.238   3.644  0.6270 -0.5376 -0.0682
  905poe    c23 6538   2.458   3.152   3.756  1.0325 -0.0479  0.0884
  905poe     o2 6539   2.439   3.018   3.718  0.1551  0.0608  0.1217
  905poe    c31 6540   2.488   2.940   3.824  0.4935  0.1333  0.0191
  906poe    c31 6541   5.888   0.550   3.287  0.1272 -0.4213 -0.5165
  906poe     o2 6542   5.890   0.431   3.210  0.5024 -0.3965 -0.5514
  906poe    c23 6543   5.907   0.323   3.299 -0.0072 -0.3854 -0.4363
  906poe    c23 6544   5.900   0.183   3.234  0.2501 -0.6908  0.1864
  906poe     o2 6545   5.994   0.194   3.129  0.1237  0.2109  0.1548
  906poe    c23 6546   6.021   0.074   3.060  0.2029  0.4557 -0.2417
  906poe    c23 6547   6.101   0.086   2.929  0.4035  0.6634 -0.1014
  906poe     o2 6548   6.229   0.131   2.965  0.1754  1.1569  0.0995
  906poe    c23 6549   6.320   0.133   2.857  0.6564  0.0569  0.4754
  906poe    c23 6550   6.434   0.226   2.902  0.9508 -0.4813  0.8545
  906poe     o2 6551   6.380   0.351   2.935 -0.1477 -0.5536 -0.6040
  906poe    c31 6552   6.486   0.437   2.970 -0.2471 -0.8535  0.4665
  907poe    c31 6553   0.401   4.864   6.386  0.1159  0.5970  0.1187
  907poe     o2 6554   0.318   4.772   6.453  0.2723  0.1976 -0.2299
  907poe    c23 6555   0.398   4.721   6.557 -0.2700  0.5471  0.3669
  907poe    c23 6556   0.373   4.570   6.567  0.1478  0.4843  0.5137
  907poe     o2 6557   0.232   4.556   6.575  0.1678  0.1627  0.3379
  907poe    c23 6558   0.209   4.423   6.533  0.4838  0.2369 -0.0761
  907poe    c23 6559   0.175   4.428   6.383  0.4803  0.0645 -0.0815
  907poe     o2 6560   0.086   4.537   6.378  0.3181 -0.0538  0.2058
  907poe    c23 6561   0.048   4.577   6.248  0.4052 -0.5426  0.0284
  907poe    c23 6562  -0.023   4.714   6.250  0.4112 -0.5440  0.4177
  907poe     o2 6563   0.056   4.803   6.326 -0.0221  0.2396 -0.0400
  907poe    c31 6564  -0.009   4.927   6.341  0.3806  0.4514 -0.0231
  908poe    c31 6565   0.734   1.975   5.209  0.1293 -0.1085  0.3949
  908poe     o2 6566   0.837   1.879   5.215 -0.0980 -0.3659  0.2223
  908poe    c23 6567   0.939   1.927   5.131 -0.3175 -0.1443  0.0833
  908poe    c23 6568   1.072   1.867   5.179 -0.2333 -0.0390 -0.0158
  908poe     o2 6569   1.060   1.730   5.209  0.1026  0.0010  0.3129
  908poe    c23 6570   1.170   1.703   5.293  0.3482  0.0983  0.0266
  908poe    c23 6571   1.190   1.551   5.284  0.5850  0.1138  0.2653
  908poe     o2 6572   1.066   1.484   5.284  0.1107  0.9896  0.6109
  908poe    c23 6573   1.072   1.345   5.302 -0.0565  0.7999 -0.7252
  908poe    c23 6574   0.926   1.298   5.315  0.1343  0.4320  0.1517
  908poe     o2 6575   0.855   1.366   5.214 -0.1124  0.2799  0.2218
  908poe    c31 6576   0.748   1.287   5.166  0.3969 -0.0301 -0.4261
  909poe    c31 6577   3.315   5.169   0.711  0.1570 -0.6122  0.3154
  909poe     o2 6578   3.182   5.201   0.747  0.2791 -0.1343  0.3442
  909poe    c23 6579   3.161   5.228   0.884 -0.5020  0.3425  0.1362
  909poe    c23 6580   3.015   5.197   0.924 -0.6196 -0.0695 -0.5725
  909poe     o2 6581   2.982   5.062   0.907 -0.5722 -0.0573 -0.7654
  909poe    c23 6582   2.844   5.045   0.934 -0.3693 -0.3630  0.1345
  909poe    c23 6583   2.824   4.946   1.050 -0.2826 -0.2384  0.2560
  909poe     o2 6584   2.829   4.809   1.016  0.2227 -0.2575  0.4091
  909poe    c23 6585   2.826   4.725   1.129 -0.3278 -0.0077  0.5811
  909poe    c23 6586   2.884   4.589   1.088  0.4845  0.5249 -0.0477
  909poe     o2 6587   2.991   4.614   0.999  0.4734  0.0426 -0.2021
  909poe    c31 6588   3.101   4.535   1.038  0.0163 -0.1544  0.7210
  910poe    c31 6589   3.065   5.066   1.355  0.2897 -0.0504 -0.0694
  910poe     o2 6590   3.096   5.170   1.444 -0.2893  0.2769 -0.2438
  910poe    c23 6591   3.199   5.254   1.396 -0.2840  0.6539  0.4151
  910poe    c23 6592   3.220   5.355   1.510  0.6158  0.1131  0.7422
  910poe     o2 6593   3.091   5.404   1.537  0.1146 -0.6970 -0.1167
  910poe    c23 6594   3.096   5.497   1.643  0.1509 -0.4621 -0.3232
  910poe    c23 6595   2.954   5.488   1.701  0.1436 -0.4445 -0.3381
  910poe     o2 6596   2.919   5.352   1.708 -0.2654 -0.3170  0.1929
  910poe    c23 6597   2.794   5.339   1.772 -0.4880  0.1681 -0.1393
  910poe    c23 6598   2.770   5.194   1.726 -0.7949  0.3570 -0.5784
  910poe     o2 6599   2.830   5.169   1.601  0.2681 -0.2219  0.0351
  910poe    c31 6600   2.774   5.052   1.545 -0.8433 -0.1106  0.8700
  911poe    c31 6601   1.962   3.037   6.631 -0.0694 -0.7880 -0.2426
  911poe     o2 6602   1.876   3.085   6.731  0.0740 -0.2068 -0.3916
  911poe    c23 6603   1.939   3.094   6.857 -0.4070  0.3757 -0.1820
  911poe    c23 6604   1.844   3.159   6.959 -0.0840 -0.2763  0.5458
  911poe     o2 6605   1.722   3.092   6.978 -0.6540  0.4499 -0.4802
  911poe    c23 6606   1.662   3.160   7.086 -0.1483  0.8369 -0.4419
  911poe    c23 6607   1.527   3.091   7.107  0.2155  0.1888 -0.2078
  911poe     o2 6608   1.461   3.059   6.986 -0.2195  0.1541  0.0339
  911poe    c23 6609   1.338   2.999   7.017  0.0548 -0.3095  0.2468
  911poe    c23 6610   1.279   2.972   6.877  0.2878  0.0212  0.0836
  911poe     o2 6611   1.385   2.906   6.812  0.0340  0.3818 -0.7020
  911poe    c31 6612   1.335   2.788   6.754 -0.0127  0.0821 -0.0547
  912poe    c31 6613   1.143   1.637   0.148  0.1576  0.3942 -0.6277
  912poe     o2 6614   1.089   1.527   0.077  0.3091 -0.1366  0.0745
  912poe    c23 6615   1.091   1.403   0.145 -0.6259  0.0808  0.5223
  912poe    c23 6616   1.049   1.307   0.032  0.0385  0.6819 -0.2482
  912poe     o2 6617   0.912   1.322   0.004 -0.0388  0.5543  0.0553
  912poe    c23 6618   0.895   1.245  -0.114 -0.1909  0.4397  0.1509
  912poe    c23 6619   0.743   1.226  -0.116 -0.1043 -0.2319 -0.1624
  912poe     o2 6620   0.675   1.348  -0.095 -0.0063 -0.2090  0.0282
  912poe    c23 6621   0.535   1.333  -0.105 -0.0464  0.2363 -0.0850
  912poe    c23 6622   0.460   1.468  -0.100 -0.5997 -0.0653 -0.1859
  912poe     o2 6623   0.426   1.504   0.032 -0.3653  0.1381 -0.1789
  912poe    c31 6624   0.364   1.630   0.038  0.8135  0.7715 -0.8458
  913poe    c31 6625   2.952   2.836   4.500 -0.2950  0.0063  0.5864
  913poe     o2 6626   2.868   2.728   4.535 -0.3015 -0.3542 -0.5259
  913poe    c23 6627   2.951   2.613   4.532  0.2667  0.0226  0.3983
  913poe    c23 6628   2.867   2.491   4.573 -0.0946  0.0600 -0.2162
  913poe     o2 6629   2.804   2.523   4.694 -0.3312  0.2746 -0.3957
  913poe    c23 6630   2.716   2.419   4.732  0.0549 -0.0239 -0.3144
  913poe    c23 6631   2.631   2.461   4.854  0.3251  0.0927 -0.1645
  913poe     o2 6632   2.540   2.567   4.835  0.3406  0.1643  0.1569
  913poe    c23 6633   2.489   2.611   4.959  0.0137 -0.2550  0.1711
  913poe    c23 6634   2.402   2.737   4.939 -0.1069 -0.3683 -0.0254
  913poe     o2 6635   2.485   2.842   4.896 -0.1091 -0.1717  0.4383
  913poe    c31 6636   2.394   2.940   4.852 -0.3155 -0.3931  0.3675
  914poe    c31 6637   5.156   0.134   6.364 -0.1828  0.4330 -0.4148
  914poe     o2 6638   5.254   0.040   6.400 -0.5604  0.3731  0.4677
  914poe    c23 6639   5.238  -0.042   6.514  0.2678 -0.4142  0.0337
  914poe    c23 6640   5.341  -0.156   6.529  1.0321  0.2751  0.0716
  914poe     o2 6641   5.343  -0.241   6.417  0.6563 -0.0343  0.2957
  914poe    c23 6642   5.369  -0.373   6.458  0.4944  0.1027  0.8418
  914poe    c23 6643   5.363  -0.449   6.325 -0.3965  0.1396  0.8552
  914poe     o2 6644   5.461  -0.405   6.232 -0.8625 -0.4570  0.0682
  914poe    c23 6645   5.423  -0.457   6.107 -0.6369  0.1652 -0.2614
  914poe    c23 6646   5.532  -0.393   6.019  0.0689 -0.3409  0.2443
  914poe     o2 6647   5.551  -0.259   6.058 -0.0749 -0.4198  0.5871
  914poe    c31 6648   5.601  -0.178   5.954  0.1429 -1.1101  0.1493
  915poe    c31 6649   2.399   0.492   2.834 -0.4304 -1.1743  0.7701
  915poe     o2 6650   2.532   0.448   2.850 -0.0449 -0.4237 -0.2671
  915poe    c23 6651   2.532   0.342   2.942 -0.3009 -0.1938 -0.0015
  915poe    c23 6652   2.667   0.321   3.014 -0.6158  0.0864  0.6768
  915poe     o2 6653   2.761   0.313   2.910 -0.1869  0.0980  1.0579
  915poe    c23 6654   2.895   0.340   2.944  0.1326 -0.0654 -0.0144
  915poe    c23 6655   2.963   0.384   2.814  0.2487  0.1501  0.1208
  915poe     o2 6656   2.871   0.462   2.741  0.2492 -0.1850 -0.2416
  915poe    c23 6657   2.914   0.501   2.613  0.4861 -0.0165 -0.1118
  915poe    c23 6658   2.794   0.576   2.552  0.0052 -0.1068  0.7199
  915poe     o2 6659   2.676   0.512   2.596 -0.3223  0.1779  0.2621
  915poe    c31 6660   2.552   0.544   2.537 -0.0277  0.4235 -0.2268
  916poe    c31 6661   2.690   4.602   0.362  0.6284  0.0552  0.1277
  916poe     o2 6662   2.619   4.601   0.240  0.6722 -0.1311  0.1033
  916poe    c23 6663   2.537   4.486   0.244  0.3591  0.0741 -0.3808
  916poe    c23 6664   2.443   4.486   0.122  0.1916  0.2878 -0.2523
  916poe     o2 6665   2.521   4.498   0.004  0.3026  0.5842 -0.1496
  916poe    c23 6666   2.462   4.556  -0.110  0.0547 -0.2655 -0.4562
  916poe    c23 6667   2.476   4.709  -0.104 -0.2114 -0.2715  0.6137
  916poe     o2 6668   2.611   4.719  -0.065 -0.1193  0.3398  0.1603
  916poe    c23 6669   2.650   4.852  -0.089 -0.0567  0.4156  0.6642
  916poe    c23 6670   2.786   4.876  -0.020  0.2661  0.6433 -0.0336
  916poe     o2 6671   2.780   4.810   0.105 -0.6153  0.2183 -0.2919
  916poe    c31 6672   2.889   4.855   0.182 -0.6497 -0.3761  0.1095
  917poe    c31 6673   2.323   3.826   6.481  0.0639  0.0728 -0.1963
  917poe     o2 6674   2.462   3.812   6.498  0.0650  0.1764 -0.1199
  917poe    c23 6675   2.503   3.696   6.430 -0.6791 -0.1917  0.0452
  917poe    c23 6676   2.536   3.712   6.280  0.0008  0.4299  0.2550
  917poe     o2 6677   2.435   3.764   6.197 -0.0118  0.0790  0.0504
  917poe    c23 6678   2.461   3.776   6.059  0.5670 -0.3975  0.1146
  917poe    c23 6679   2.447   3.921   6.011 -0.6460 -0.7977 -0.8127
  917poe     o2 6680   2.322   3.981   6.034 -0.0870  0.3547 -0.7063
  917poe    c23 6681   2.334   4.120   6.058 -0.1824  0.2496 -0.0073
  917poe    c23 6682   2.210   4.208   6.079 -0.3451  0.0870 -0.2832
  917poe     o2 6683   2.125   4.190   5.967 -0.7615 -0.5256  0.1205
  917poe    c31 6684   2.039   4.301   5.960 -0.4090 -0.2847 -0.4691
  918poe    c31 6685   6.726   2.927   4.886  0.5181  0.4311  0.2530
  918poe     o2 6686   6.692   3.050   4.827 -0.0827 -0.0232 -0.3563
  918poe    c23 6687   6.791   3.097   4.739 -0.1948  0.8651 -0.0179
  918poe    c23 6688   6.734   3.220   4.666  0.0239  0.6075 -0.6255
  918poe     o2 6689   6.696   3.292   4.780 -0.2788 -0.4647 -0.0419
  918poe    c23 6690   6.610   3.393   4.732 -0.2032 -0.2781  0.2116
  918poe    c23 6691   6.589   3.497   4.844  0.6227 -0.0729  0.1841
  918poe     o2 6692   6.508   3.438   4.944  0.3027 -0.0244 -0.0441
  918poe    c23 6693   6.548   3.465   5.076 -0.6435  0.1565  0.2129
  918poe    c23 6694   6.677   3.388   5.109 -0.3908  0.5775  0.2179
  918poe     o2 6695   6.687   3.254   5.064  0.3367  0.5982  0.3072
  918poe    c31 6696   6.786   3.183   5.135  0.0324  0.2051  0.3377
  919poe    c31 6697   6.557   4.445   6.498  0.1306  0.0724  0.3484
  919poe     o2 6698   6.594   4.524   6.388 -0.0030 -0.2115  0.0975
  919poe    c23 6699   6.548   4.657   6.374 -0.2888 -0.3794 -0.6098
  919poe    c23 6700   6.401   4.658   6.329 -0.4548 -0.6393 -0.0903
  919poe     o2 6701   6.310   4.764   6.349  0.0068 -0.3285  0.3976
  919poe    c23 6702   6.176   4.730   6.319  0.0349  0.1059 -0.2352
  919poe    c23 6703   6.083   4.853   6.318 -0.2810 -0.1269  0.1961
  919poe     o2 6704   6.123   4.933   6.427 -0.0255 -0.4375  0.3302
  919poe    c23 6705   6.089   5.070   6.423  0.0410 -0.4040  0.8049
  919poe    c23 6706   6.128   5.120   6.563 -0.0671  0.8810  0.3863
  919poe     o2 6707   6.269   5.109   6.563 -0.0857  0.6049 -0.1773
  919poe    c31 6708   6.324   5.189   6.665  0.0119  0.4150 -0.0803
  920poe    c31 6709   6.227   1.132   4.717 -0.7301  0.3757  0.4300
  920poe     o2 6710   6.204   1.027   4.808 -0.1762 -0.3913 -0.2967
  920poe    c23 6711   6.306   0.935   4.778  0.2266 -0.0740  0.0695
  920poe    c23 6712   6.281   0.810   4.864  0.5009 -0.3685 -0.2723
  920poe     o2 6713   6.248   0.852   4.994 -0.4282 -0.7374 -0.3758
  920poe    c23 6714   6.221   0.751   5.090  0.4620 -0.0535  0.6215
  920poe    c23 6715   6.214   0.806   5.233 -0.6885 -0.6689  0.8062
  920poe     o2 6716   6.177   0.942   5.227  0.2994 -0.4227  0.0915
  920poe    c23 6717   6.287   1.028   5.245  0.0121 -0.0947  0.2937
  920poe    c23 6718   6.268   1.178   5.215 -0.0786 -0.2031 -0.1940
  920poe     o2 6719   6.212   1.176   5.086 -0.1976 -0.2507 -0.1421
  920poe    c31 6720   6.173   1.309   5.059 -0.2673 -0.3841 -0.7166
  921poe    c31 6721   1.440   2.223   4.497  0.3716 -0.0042 -0.0737
  921poe     o2 6722   1.478   2.088   4.490 -0.3926 -0.2227 -0.0726
  921poe    c23 6723   1.547   2.055   4.371 -0.3762 -0.6344  0.0512
  921poe    c23 6724   1.573   1.903   4.357 -0.2635 -0.5912 -0.2168
  921poe     o2 6725   1.662   1.854   4.455  0.1140  0.4893  0.0044
  921poe    c23 6726   1.628   1.717   4.452  0.4233  0.4215 -0.7743
  921poe    c23 6727   1.710   1.652   4.565 -0.2211  0.0094 -0.5408
  921poe     o2 6728   1.837   1.713   4.568 -0.1465 -0.1622  0.1146
  921poe    c23 6729   1.934   1.635   4.634  0.1038 -0.4821 -0.6200
  921poe    c23 6730   2.048   1.730   4.676 -0.5654  0.2186 -0.3463
  921poe     o2 6731   1.992   1.851   4.720 -0.6551 -0.1344  0.5303
  921poe    c31 6732   2.039   1.873   4.852  0.7655  0.7625 -0.1020
  922poe    c31 6733   1.966   4.786   4.500 -0.2985  0.0068  0.0273
  922poe     o2 6734   2.001   4.654   4.463 -0.3941  0.0822 -0.3420
  922poe    c23 6735   2.116   4.653   4.382  0.2117 -0.4172  0.5068
  922poe    c23 6736   2.148   4.525   4.301  0.3093 -0.0009 -0.1218
  922poe     o2 6737   2.108   4.416   4.382 -0.4398  0.2796 -0.1099
  922poe    c23 6738   2.114   4.294   4.312  0.1573  0.1274  0.2061
  922poe    c23 6739   2.043   4.180   4.387 -0.3012  0.0831 -0.2896
  922poe     o2 6740   1.902   4.188   4.375 -0.2854 -0.2566 -0.7197
  922poe    c23 6741   1.830   4.102   4.460  0.0125  0.3581  0.1759
  922poe    c23 6742   1.677   4.114   4.441 -0.0500  0.0212  0.4510
  922poe     o2 6743   1.631   4.241   4.481 -0.4493  0.1867 -0.5028
  922poe    c31 6744   1.500   4.232   4.531 -0.3887  0.3355 -0.3165
  923poe    c31 6745   1.689   4.213   0.846  0.0114 -0.1128  0.1885
  923poe     o2 6746   1.686   4.352   0.872 -0.1559 -0.0060 -0.3917
  923poe    c23 6747   1.560   4.397   0.916 -0.0632  0.1415 -0.2782
  923poe    c23 6748   1.557   4.547   0.879  0.2492  0.3409  0.4988
  923poe     o2 6749   1.688   4.587   0.914  0.3602 -0.1425  0.6554
  923poe    c23 6750   1.695   4.728   0.922 -0.3930 -0.0954  0.5925
  923poe    c23 6751   1.828   4.764   0.992 -0.1241  0.2906 -0.1055
  923poe     o2 6752   1.935   4.695   0.933 -0.5311 -0.6430  0.2258
  923poe    c23 6753   2.026   4.644   1.028  0.4917 -0.2026 -0.4957
  923poe    c23 6754   2.064   4.502   0.984  0.0876 -0.2371 -0.7358
  923poe     o2 6755   1.947   4.423   0.993 -0.1787  0.2518  0.2251
  923poe    c31 6756   1.952   4.314   1.081 -0.4150  0.0318 -0.0310
  924poe    c31 6757   1.010   1.205   2.012 -0.3390 -0.5310  0.6606
  924poe     o2 6758   1.133   1.253   1.962 -0.3443 -0.1926  0.9619
  924poe    c23 6759   1.232   1.218   2.056  0.0692 -0.0089  0.6006
  924poe    c23 6760   1.373   1.234   1.995 -0.1328 -0.5931 -0.0276
  924poe     o2 6761   1.368   1.329   1.891 -0.1005 -0.6158 -0.0500
  924poe    c23 6762   1.491   1.378   1.842  0.0507 -0.6950  0.2468
  924poe    c23 6763   1.448   1.496   1.753 -0.8666 -1.0059  0.2662
  924poe     o2 6764   1.320   1.478   1.696 -0.8359 -0.4275  0.0046
  924poe    c23 6765   1.275   1.602   1.648  0.2411  0.1304  0.4033
  924poe    c23 6766   1.155   1.642   1.735 -0.0773  0.0308  0.0126
  924poe     o2 6767   1.161   1.557   1.848  0.1680  0.2020  0.1295
  924poe    c31 6768   1.082   1.616   1.948 -0.0470  0.3328 -0.1148
  925poe    c31 6769   6.378   6.405   6.154 -0.0660  0.1851 -0.2994
  925poe     o2 6770   6.419   6.437   6.285  0.2143 -0.4076 -0.2434
  925poe    c23 6771   6.408   6.576   6.302  0.1589 -0.4157 -0.2132
  925poe    c23 6772   6.441   6.627   6.443 -0.7686 -0.2427 -0.0485
  925poe     o2 6773   6.366   6.553   6.537 -1.0430  0.3145  0.1742
  925poe    c23 6774   6.418   6.559   6.668  0.5375 -0.8399 -0.3614
  925poe    c23 6775   6.407   6.419   6.731 -0.1582 -0.6764 -0.1093
  925poe     o2 6776   6.431   6.320   6.634 -0.0382 -0.0802 -0.6936
  925poe    c23 6777   6.553   6.256   6.662 -0.3419 -0.1084  0.5919
  925poe    c23 6778   6.561   6.154   6.547 -0.2870  0.2526  0.2761
  925poe     o2 6779   6.550   6.233   6.431  0.2722  0.0224  0.0584
  925poe    c31 6780   6.573   6.160   6.313 -0.1105  0.3057 -0.1923
  926poe    c31 6781   2.968   4.278   1.814  0.3970 -0.1212  0.3619
  926poe     o2 6782   2.946   4.255   1.951  0.3608 -0.4497  0.3012
  926poe    c23 6783   2.883   4.361   2.019  0.1000 -0.4978  0.1366
  926poe    c23 6784   2.817   4.325   2.154 -0.1726  0.6946  0.3327
  926poe     o2 6785   2.908   4.292   2.257 -0.1223 -0.4424 -0.0545
  926poe    c23 6786   2.844   4.220   2.360 -0.4187 -0.2333 -0.0888
  926poe    c23 6787   2.950   4.161   2.455  0.0979 -0.0214 -0.5265
  926poe     o2 6788   3.064   4.101   2.397  0.3585  0.3305 -0.3789
  926poe    c23 6789   3.138   4.043   2.502 -0.3253  0.2676  0.0731
  926poe    c23 6790   3.254   3.980   2.423 -0.6090 -0.1949  0.0151
  926poe     o2 6791   3.301   4.086   2.343  0.1940 -0.5582 -0.0098
  926poe    c31 6792   3.415   4.032   2.282  0.7401  0.1751  0.3428
  927poe    c31 6793   4.021   5.777   6.278  0.5667 -0.2018 -0.1476
  927poe     o2 6794   3.970   5.865   6.376 -0.0106  0.1417 -0.7509
  927poe    c23 6795   3.844   5.906   6.328  0.1346  0.9194 -0.4728
  927poe    c23 6796   3.790   6.017   6.421 -0.0124  0.5053 -0.0581
  927poe     o2 6797   3.826   5.983   6.553  1.0344 -0.0666 -0.4757
  927poe    c23 6798   3.817   6.097   6.636 -0.1979 -0.2877 -0.2825
  927poe    c23 6799   3.904   6.068   6.760 -0.2549  0.1009 -0.1511
  927poe     o2 6800   4.018   6.010   6.700 -0.1635  0.0697  0.0509
  927poe    c23 6801   4.128   6.089   6.741 -0.3767  0.5117 -0.2228
  927poe    c23 6802   4.239   6.030   6.652 -0.1460  0.1791  0.2840
  927poe     o2 6803   4.188   6.035   6.521  0.5602 -0.2807 -0.0115
  927poe    c31 6804   4.273   5.960   6.436  0.3001  0.3209 -0.8128
  928poe    c31 6805   1.551   4.751   6.130  0.4436 -0.5824  0.1587
  928poe     o2 6806   1.630   4.861   6.168  0.3369 -0.3080 -0.4046
  928poe    c23 6807   1.563   4.983   6.193  0.7946 -0.1561  0.1206
  928poe    c23 6808   1.521   5.070   6.073  0.0835  0.2469  0.6522
  928poe     o2 6809   1.396   5.043   6.014  0.5391  0.1029 -0.2709
  928poe    c23 6810   1.364   5.146   5.924 -0.0924  0.1769  0.0322
  928poe    c23 6811   1.217   5.124   5.882 -0.2147  0.4753  0.2957
  928poe     o2 6812   1.123   5.122   5.987 -0.2173 -0.1527  0.2841
  928poe    c23 6813   1.022   5.033   5.946 -0.7047  0.5670 -0.0780
  928poe    c23 6814   0.922   5.010   6.060 -0.3075 -0.2265  0.1146
  928poe     o2 6815   0.898   5.134   6.123 -0.2308  0.0143 -0.3309
  928poe    c31 6816   0.827   5.111   6.243  0.5357  0.1724  0.1549
  929poe    c31 6817   0.405   0.930   2.499 -0.1880 -0.6055 -0.0292
  929poe     o2 6818   0.456   1.002   2.608 -0.0930  0.3038 -0.6617
  929poe    c23 6819   0.448   1.140   2.580 -0.8328  0.3469 -0.2590
  929poe    c23 6820   0.494   1.204   2.712 -0.1287 -0.2776 -0.1949
  929poe     o2 6821   0.478   1.103   2.808 -0.4900 -0.4160 -0.4025
  929poe    c23 6822   0.499   1.133   2.944  0.0800 -0.2543 -0.5256
  929poe    c23 6823   0.571   1.005   2.992  0.0620 -0.0626  0.0233
  929poe     o2 6824   0.504   0.901   2.923  0.2232 -0.1862  0.0526
  929poe    c23 6825   0.553   0.777   2.967  0.5891 -0.0298  0.0944
  929poe    c23 6826   0.447   0.675   2.919  0.2922  0.3093  0.0265
  929poe     o2 6827   0.437   0.699   2.780 -0.1504 -0.2121 -0.0338
  929poe    c31 6828   0.341   0.622   2.712 -0.3974  0.1525 -0.1011
  930poe    c31 6829   5.102   6.803   0.677 -0.2030 -0.3478 -0.2409
  930poe     o2 6830   5.077   6.666   0.702 -0.0036 -0.3636 -0.1257
  930poe    c23 6831   4.998   6.610   0.599  0.0397 -0.2574 -0.2169
  930poe    c23 6832   4.956   6.462   0.611 -0.3939 -0.1050  0.1925
  930poe     o2 6833   5.058   6.365   0.595  0.2736  0.6074  0.0578
  930poe    c23 6834   5.083   6.327   0.461 -0.3355 -0.3880  0.2140
  930poe    c23 6835   5.233   6.292   0.469 -0.0630  0.6593 -0.1436
  930poe     o2 6836   5.262   6.233   0.594  0.6008  0.3835 -0.4219
  930poe    c23 6837   5.368   6.140   0.603 -0.1767 -0.4652  0.2115
  930poe    c23 6838   5.365   6.093   0.749  0.1810 -0.7667  0.1220
  930poe     o2 6839   5.230   6.074   0.785  0.1452 -0.3561  0.2117
  930poe    c31 6840   5.230   6.019   0.915 -0.3987  0.4684  0.5695
  931poe    c31 6841   4.234   2.558   4.845 -0.3802 -0.3216  0.4094
  931poe     o2 6842   4.176   2.539   4.718  0.0740 -0.3680  0.2062
  931poe    c23 6843   4.041   2.581   4.711 -0.0291 -0.7123  0.0679
  931poe    c23 6844   4.015   2.661   4.582  0.1474  0.0191  0.4790
  931poe     o2 6845   4.076   2.584   4.481 -0.9831 -0.3667  0.0797
  931poe    c23 6846   4.082   2.648   4.356  0.8278  0.1013  0.3898
  931poe    c23 6847   4.137   2.548   4.252 -0.7460 -0.9047  0.4934
  931poe     o2 6848   4.276   2.546   4.273 -0.5426  0.0468 -0.6337
  931poe    c23 6849   4.355   2.462   4.192  0.5002  0.3663  0.0280
  931poe    c23 6850   4.502   2.498   4.222  0.6748 -0.2153 -0.1204
  931poe     o2 6851   4.545   2.497   4.356  0.4796  0.4933 -0.0507
  931poe    c31 6852   4.659   2.578   4.374  0.0328  0.9476  0.8399
  932poe    c31 6853   0.252   6.175   6.783  0.0788 -0.0548  0.3338
  932poe     o2 6854   0.202   6.183   6.914  0.3208  0.4093  0.3981
  932poe    c23 6855   0.134   6.065   6.949 -0.4586  0.5509 -0.6142
  932poe    c23 6856   0.085   6.081   7.094  0.0921  0.3404 -0.4041
  932poe     o2 6857   0.144   6.196   7.151 -0.3280  0.4396 -0.1663
  932poe    c23 6858   0.071   6.201   7.272 -0.6357  0.0420 -0.3316
  932poe    c23 6859   0.137   6.295   7.375 -0.3283 -0.3825 -0.1365
  932poe     o2 6860   0.245   6.217   7.421  0.0429  0.2538  0.0842
  932poe    c23 6861   0.299   6.289   7.530  0.2263  0.1839  0.0393
  932poe    c23 6862   0.429   6.214   7.563  0.2212  0.2664  0.2480
  932poe     o2 6863   0.534   6.232   7.470  0.0817 -0.3943 -0.0483
  932poe    c31 6864   0.644   6.308   7.513  0.0417 -0.2447 -0.2105
  933poe    c31 6865   1.885   4.347   5.510 -0.0095 -0.2185  0.3050
  933poe     o2 6866   2.010   4.295   5.471 -0.0337  0.0427 -0.1191
  933poe    c23 6867   2.116   4.358   5.538 -0.3100  0.3693  0.0154
  933poe    c23 6868   2.254   4.346   5.470 -0.4231 -0.1055 -0.1325
  933poe     o2 6869   2.288   4.211   5.446  0.0951  0.1767 -1.0157
  933poe    c23 6870   2.424   4.189   5.419  0.1194 -0.3718 -0.4579
  933poe    c23 6871   2.435   4.055   5.345 -0.6401 -0.2435 -0.8117
  933poe     o2 6872   2.349   3.970   5.418 -0.2285  0.0223 -0.0039
  933poe    c23 6873   2.372   3.840   5.369  0.4017  0.2019 -0.2002
  933poe    c23 6874   2.305   3.740   5.465 -0.2044 -0.1330 -0.9670
  933poe     o2 6875   2.188   3.794   5.522  0.2801 -0.0626 -0.0161
  933poe    c31 6876   2.115   3.684   5.570 -0.6901  0.5575 -0.0339
  934poe    c31 6877   4.968   0.462   5.491  0.1614  0.6622  0.3160
  934poe     o2 6878   5.108   0.448   5.496  0.1035 -0.0403  0.0147
  934poe    c23 6879   5.161   0.576   5.519 -0.2192 -0.0317  0.7362
  934poe    c23 6880   5.312   0.547   5.528 -0.0076  0.8558  0.1997
  934poe     o2 6881   5.350   0.476   5.413 -0.3005 -0.2862  0.7896
  934poe    c23 6882   5.485   0.433   5.417  0.0317  0.5546 -0.5566
  934poe    c23 6883   5.513   0.326   5.310 -0.0620  0.2039 -0.2338
  934poe     o2 6884   5.448   0.210   5.357 -0.2677  0.2028 -0.5205
  934poe    c23 6885   5.452   0.100   5.269  0.5240 -0.0221 -0.2147
  934poe    c23 6886   5.440  -0.027   5.356  0.1524 -0.2454 -0.5820
  934poe     o2 6887   5.311  -0.051   5.406  0.2385  0.0714 -0.1931
  934poe    c31 6888   5.313  -0.166   5.489 -0.7318  0.5850  0.5676
  935poe    c31 6889   6.156   0.165   4.007  0.1971 -0.2267 -0.0353
  935poe     o2 6890   6.270   0.116   3.939 -0.3104 -0.4561 -0.7386
  935poe    c23 6891   6.300  -0.013   3.989 -0.5700 -0.3953 -0.4185
  935poe    c23 6892   6.415  -0.076   3.909 -0.0424  0.0339  0.0007
  935poe     o2 6893   6.500   0.030   3.870  0.2176 -0.2280 -0.1497
  935poe    c23 6894   6.635  -0.011   3.859  0.2879 -0.0245 -0.0606
  935poe    c23 6895   6.725   0.093   3.791  0.0740  0.1678 -0.0512
  935poe     o2 6896   6.701   0.210   3.866 -0.5988  0.1438 -0.2234
  935poe    c23 6897   6.788   0.317   3.835 -0.0007 -0.2997 -0.0873
  935poe    c23 6898   6.813   0.402   3.962  0.0195 -0.0430 -0.2622
  935poe     o2 6899   6.690   0.458   3.999  0.0975  0.3487 -0.5886
  935poe    c31 6900   6.711   0.507   4.129  0.4002 -0.5601 -0.2889
  936poe    c31 6901   6.121   5.743   2.946 -0.2191 -0.8115 -0.1730
  936poe     o2 6902   6.229   5.675   3.005  0.0626 -0.0269  0.2365
  936poe    c23 6903   6.306   5.632   2.895  0.0701  0.0077  0.2286
  936poe    c23 6904   6.440   5.566   2.932  0.0933 -0.0913 -0.0281
  936poe     o2 6905   6.521   5.663   2.994  0.2713 -0.4161  0.2478
  936poe    c23 6906   6.624   5.587   3.053  0.3143 -0.4948  0.0716
  936poe    c23 6907   6.725   5.687   3.113  0.1367  0.0188 -0.4776
  936poe     o2 6908   6.661   5.765   3.211  0.2123 -0.4583 -0.0458
  936poe    c23 6909   6.757   5.854   3.262 -0.1142  0.1051 -0.4020
  936poe    c23 6910   6.684   5.956   3.350 -0.1136 -0.4159  0.2071
  936poe     o2 6911   6.568   5.992   3.278 -0.1042  0.3142  0.5440
  936poe    c31 6912   6.545   6.130   3.293 -0.0895  0.3592  0.1428
  937poe    c31 6913   2.536   3.576   0.500 -0.4355 -0.3983 -1.2108
  937poe     o2 6914   2.576   3.700   0.446  0.0681 -0.0084  0.0302
  937poe    c23 6915   2.466   3.784   0.418  0.0904  0.0829  0.2130
  937poe    c23 6916   2.513   3.925   0.377  0.2400 -0.0059  0.0786
  937poe     o2 6917   2.637   3.915   0.312  0.3238  0.2562  0.1989
  937poe    c23 6918   2.715   4.033   0.310  0.2963  0.2732  0.1719
  937poe    c23 6919   2.833   3.992   0.221  0.4135  0.2627  0.3336
  937poe     o2 6920   2.888   3.871   0.270  0.3611  0.2092  0.2594
  937poe    c23 6921   2.994   3.879   0.362 -0.0625  0.1385  0.7609
  937poe    c23 6922   2.993   3.759   0.458  0.2507 -0.0320  0.5540
  937poe     o2 6923   2.867   3.708   0.494  0.0161 -0.0791 -0.3238
  937poe    c31 6924   2.894   3.615   0.596 -0.6987  0.0231 -0.0327
  938poe    c31 6925   3.782   0.359   1.204 -0.2000 -0.2664 -0.7036
  938poe     o2 6926   3.920   0.365   1.175 -0.0704  0.1882 -0.0159
  938poe    c23 6927   3.939   0.413   1.044 -0.0938 -0.1934 -0.1612
  938poe    c23 6928   4.076   0.376   0.985  0.0533  0.3361 -0.1581
  938poe     o2 6929   4.167   0.403   1.089 -0.0096 -0.2849  0.0608
  938poe    c23 6930   4.300   0.381   1.047 -0.0273 -0.0374 -0.1219
  938poe    c23 6931   4.388   0.373   1.173  0.3712 -0.5959 -0.4316
  938poe     o2 6932   4.317   0.294   1.267 -0.0573  0.5755  0.2521
  938poe    c23 6933   4.416   0.248   1.356  0.2139  0.0575 -0.3089
  938poe    c23 6934   4.367   0.163   1.476  1.0705  0.9078  0.6605
  938poe     o2 6935   4.267   0.223   1.555  0.1404 -0.3633  0.4815
  938poe    c31 6936   4.243   0.136   1.663 -0.2799 -0.7435  0.0860
  939poe    c31 6937   6.580   0.230   6.045  0.0148 -0.0625  0.4268
  939poe     o2 6938   6.710   0.217   5.991  0.0056 -0.1217  0.4193
  939poe    c23 6939   6.813   0.259   6.077  0.0521  0.1013  0.2553
  939poe    c23 6940   6.935   0.189   6.013 -0.1288 -0.0620  0.0861
  939poe     o2 6941   6.940   0.211   5.874  0.0451 -0.2575  0.0607
  939poe    c23 6942   7.065   0.186   5.813  0.2330  0.1071  0.2913
  939poe    c23 6943   7.049   0.200   5.660 -0.8409 -0.0753  0.3757
  939poe     o2 6944   6.925   0.137   5.638 -0.6041 -0.3967 -0.0465
  939poe    c23 6945   6.860   0.177   5.519  0.1589  0.3040 -0.2413
  939poe    c23 6946   6.711   0.145   5.540  0.4573 -0.2633  1.1468
  939poe     o2 6947   6.657   0.199   5.659  0.1205  0.7377  0.5523
  939poe    c31 6948   6.518   0.225   5.650 -0.0793 -0.5697 -0.4610
  940poe    c31 6949   1.661   6.596   4.240 -0.2971 -0.4431 -0.1497
  940poe     o2 6950   1.638   6.671   4.124  0.3212  0.1828  0.1212
  940poe    c23 6951   1.746   6.690   4.035 -0.0156  0.0355 -0.3260
  940poe    c23 6952   1.707   6.770   3.910  0.1155 -0.2478 -0.5477
  940poe     o2 6953   1.662   6.901   3.933  0.4671 -0.1828 -0.2212
  940poe    c23 6954   1.627   6.963   3.811  0.4998  0.3030  0.0125
  940poe    c23 6955   1.606   7.112   3.843  0.1803  0.2157  0.2066
  940poe     o2 6956   1.548   7.136   3.969  0.5794  0.2368  0.3848
  940poe    c23 6957   1.546   7.272   4.004 -0.1070  0.3759 -0.1928
  940poe    c23 6958   1.518   7.277   4.155  0.5100  0.6021 -0.0811
  940poe     o2 6959   1.591   7.184   4.232  0.0646  0.2896 -0.0343
  940poe    c31 6960   1.586   7.214   4.369  0.1421 -0.4700  0.1355
  941poe    c31 6961   6.689   5.621   3.586 -0.2787  0.1801  0.3596
  941poe     o2 6962   6.679   5.488   3.631  0.3429  0.1137  0.3080
  941poe    c23 6963   6.800   5.437   3.580  0.3306  0.0849  0.3080
  941poe    c23 6964   6.804   5.294   3.638  0.8783 -0.0643 -0.0877
  941poe     o2 6965   6.765   5.316   3.772 -0.3523 -0.2848 -0.4016
  941poe    c23 6966   6.823   5.215   3.851  0.5498  0.8322  0.3763
  941poe    c23 6967   6.728   5.165   3.962  0.4577 -0.1771 -0.1493
  941poe     o2 6968   6.709   5.263   4.061 -0.6072 -0.2854 -0.2331
  941poe    c23 6969   6.607   5.244   4.157 -1.0476  0.4001 -0.5560
  941poe    c23 6970   6.628   5.354   4.263  0.6744 -0.3599 -0.0640
  941poe     o2 6971   6.604   5.486   4.219  0.3204 -0.4645 -0.1924
  941poe    c31 6972   6.656   5.578   4.312 -0.0045 -0.0645 -0.4059
  942poe    c31 6973   2.346   1.909   4.571 -0.2343 -0.4881  0.0478
  942poe     o2 6974   2.387   1.931   4.704 -0.1919  0.0927 -0.0571
  942poe    c23 6975   2.368   2.056   4.766  0.0339  0.0508  0.0966
  942poe    c23 6976   2.371   2.041   4.919  0.1048  0.4963  0.1403
  942poe     o2 6977   2.486   1.961   4.937 -0.1527  0.0491 -0.2104
  942poe    c23 6978   2.505   1.885   5.054  0.4606 -0.0040 -0.3420
  942poe    c23 6979   2.644   1.818   5.054  0.5799  0.2404  0.3248
  942poe     o2 6980   2.638   1.738   4.939  0.4648 -0.3200  0.7154
  942poe    c23 6981   2.750   1.658   4.908  0.4901  0.1622 -0.5144
  942poe    c23 6982   2.770   1.595   4.769  0.2806 -0.4410 -0.2747
  942poe     o2 6983   2.823   1.691   4.681 -0.6392 -0.3326 -0.7304
  942poe    c31 6984   2.921   1.629   4.600  0.7751  0.3731  0.3817
  943poe    c31 6985   5.799   5.256   0.110  0.6041 -0.1396 -0.1898
  943poe     o2 6986   5.922   5.319   0.137  0.4245  0.2648 -0.2973
  943poe    c23 6987   5.936   5.331   0.276 -0.8286  0.9255 -0.2185
  943poe    c23 6988   6.038   5.437   0.324  0.0758  0.1248 -0.3346
  943poe     o2 6989   6.170   5.410   0.282  0.2063 -0.0871  0.2099
  943poe    c23 6990   6.256   5.517   0.317  0.0357 -0.0896  0.6495
  943poe    c23 6991   6.401   5.470   0.298  0.0075  0.1053 -0.0854
  943poe     o2 6992   6.434   5.405   0.177 -0.5397  0.7740 -0.5991
  943poe    c23 6993   6.572   5.380   0.169 -0.7620 -0.6309 -0.2644
  943poe    c23 6994   6.601   5.305   0.038 -0.5748 -0.0705 -0.5491
  943poe     o2 6995   6.542   5.177   0.025  0.3958 -0.5737 -0.0999
  943poe    c31 6996   6.629   5.102  -0.056  0.2871 -0.4909 -0.2945
  944poe    c31 6997   6.229   4.346   5.390 -0.0794  0.2792  0.0342
  944poe     o2 6998   6.168   4.373   5.266  0.6580  0.1717 -0.3554
  944poe    c23 6999   6.041   4.429   5.289  0.4139 -0.3728 -0.3709
  944poe    c23 7000   5.996   4.523   5.176 -0.0064 -0.0368  0.0682
  944poe     o2 7001   6.030   4.466   5.051  0.1325  0.0154  0.0831
  944poe    c23 7002   6.051   4.583   4.975  0.1629  0.0033  0.0733
  944poe    c23 7003   6.161   4.540   4.877 -0.0050 -0.2488 -0.0052
  944poe     o2 7004   6.256   4.457   4.939  0.0418  0.0458  0.3162
  944poe    c23 7005   6.377   4.528   4.925  0.0126  0.0904  0.2891
  944poe    c23 7006   6.471   4.422   4.986  0.0217  0.1920  0.4530
  944poe     o2 7007   6.406   4.361   5.095 -0.2236  0.2678  0.3500
  944poe    c31 7008   6.500   4.267   5.142 -0.6654 -0.2113  0.2908
  945poe    c31 7009   3.333   2.951   3.102 -0.4171  0.2472 -0.6772
  945poe     o2 7010   3.302   3.085   3.070 -0.2881  0.3327 -0.4494
  945poe    c23 7011   3.218   3.135   3.172  0.3517  0.1174  0.1854
  945poe    c23 7012   3.282   3.258   3.240  0.7506 -0.1175  0.2422
  945poe     o2 7013   3.288   3.373   3.160  0.4998 -0.1037  0.2405
  945poe    c23 7014   3.374   3.463   3.226  0.2346  0.4316 -0.1296
  945poe    c23 7015   3.333   3.605   3.184  0.4701  0.5880  0.1638
  945poe     o2 7016   3.317   3.615   3.044  0.0414 -0.2615  0.1436
  945poe    c23 7017   3.285   3.750   3.017 -0.0301 -0.3320 -0.1219
  945poe    c23 7018   3.281   3.764   2.863  0.9808 -0.1843 -0.1437
  945poe     o2 7019   3.177   3.687   2.808 -0.2516  1.2312  0.1386
  945poe    c31 7020   3.145   3.728   2.677 -0.5811 -0.0622 -0.2010
  946poe    c31 7021   0.021   1.699   5.526 -1.1507 -0.1473 -0.3965
  946poe     o2 7022   0.043   1.829   5.575 -0.1944 -0.8212  1.0498
  946poe    c23 7023  -0.060   1.900   5.639  0.0336 -0.0301  0.5589
  946poe    c23 7024   0.012   2.029   5.681 -0.1508  0.3041 -0.1318
  946poe     o2 7025   0.048   2.123   5.582 -0.2285  0.6341  0.1536
  946poe    c23 7026   0.110   2.235   5.640  0.1791  0.8349 -0.6599
  946poe    c23 7027   0.263   2.223   5.622  0.1392 -0.2335 -0.3392
  946poe     o2 7028   0.284   2.207   5.483  0.2545 -0.0801 -0.3390
  946poe    c23 7029   0.411   2.251   5.440  0.2909  0.1032 -0.0514
  946poe    c23 7030   0.397   2.259   5.286 -0.1498  0.1584 -0.0107
  946poe     o2 7031   0.328   2.148   5.234 -0.2610  0.1782  0.0944
  946poe    c31 7032   0.310   2.186   5.099 -0.4072  0.2409  0.1310
  947poe    c31 7033   1.250   2.896   6.271 -0.0648 -0.1114  0.0082
  947poe     o2 7034   1.172   3.008   6.235 -0.7127 -0.4456  0.3457
  947poe    c23 7035   1.074   3.021   6.335 -0.2952  0.1474  0.6840
  947poe    c23 7036   0.965   3.118   6.285 -0.1697 -0.3802 -0.6413
  947poe     o2 7037   1.001   3.255   6.282 -0.0350 -0.3883  0.4317
  947poe    c23 7038   0.944   3.310   6.165  0.7555 -0.2065  0.1316
  947poe    c23 7039   0.986   3.458   6.172 -0.0769  0.0277  0.2463
  947poe     o2 7040   1.120   3.464   6.128 -0.2285  0.2162 -0.1963
  947poe    c23 7041   1.168   3.595   6.149  0.9659 -0.2635  0.1684
  947poe    c23 7042   1.288   3.632   6.060  0.1072  0.1372 -0.8538
  947poe     o2 7043   1.368   3.518   6.037 -0.3308 -0.3403 -0.0731
  947poe    c31 7044   1.485   3.543   5.962 -0.4911 -0.2315 -0.2898
  948poe    c31 7045   2.453   4.530   4.609 -0.2446 -0.7715 -0.2182
  948poe     o2 7046   2.572   4.458   4.590  0.2392  0.0330 -0.2672
  948poe    c23 7047   2.558   4.327   4.641  0.5573  0.0287 -0.1836
  948poe    c23 7048   2.658   4.240   4.563 -0.0269 -0.6991 -0.1260
  948poe     o2 7049   2.784   4.298   4.585 -0.2721 -0.2478  0.1194
  948poe    c23 7050   2.896   4.246   4.515 -0.0404  0.1198  0.2126
  948poe    c23 7051   3.017   4.333   4.552 -0.0577  0.1044  0.3076
  948poe     o2 7052   2.970   4.466   4.539 -0.1623 -0.0235 -0.6647
  948poe    c23 7053   3.078   4.547   4.498 -0.0353  0.2095  0.1106
  948poe    c23 7054   3.060   4.700   4.505  0.4270  0.2797 -0.2021
  948poe     o2 7055   2.947   4.730   4.426  0.2240  0.0707  0.0062
  948poe    c31 7056   2.899   4.862   4.416  0.4200  0.1118 -0.4426
  949poe    c31 7057   5.460   4.227   3.305 -0.0381 -0.7883 -0.7812
  949poe     o2 7058   5.522   4.165   3.415 -0.1735 -0.4628 -0.5206
  949poe    c23 7059   5.528   4.025   3.401 -0.0147 -0.4643 -0.4450
  949poe    c23 7060   5.582   3.965   3.532 -0.3391 -0.6008 -0.3741
  949poe     o2 7061   5.535   4.038   3.644  0.3403  0.1916 -0.5981
  949poe    c23 7062   5.614   4.011   3.757 -0.0827 -0.3980 -0.4386
  949poe    c23 7063   5.658   4.145   3.818  0.2787 -0.5047 -0.4595
  949poe     o2 7064   5.691   4.226   3.708 -0.1935  0.0813 -0.1785
  949poe    c23 7065   5.745   4.344   3.764  0.0842 -0.0336 -0.2002
  949poe    c23 7066   5.787   4.417   3.636  0.0987  0.2997 -0.0067
  949poe     o2 7067   5.688   4.393   3.538  0.3271 -0.0101 -0.1646
  949poe    c31 7068   5.717   4.464   3.420 -0.1638  0.0379 -0.2592
  950poe    c31 7069   3.824   1.353   0.622 -0.4256  0.3788 -0.3289
  950poe     o2 7070   3.806   1.453   0.720 -0.1346 -0.0039  0.1194
  950poe    c23 7071   3.668   1.478   0.738 -0.1208  0.3650 -0.2669
  950poe    c23 7072   3.651   1.578   0.853  0.0403  0.0335  0.0486
  950poe     o2 7073   3.741   1.683   0.825 -0.1962  0.3222  0.3487
  950poe    c23 7074   3.745   1.777   0.929 -0.3379  0.9860 -0.2336
  950poe    c23 7075   3.864   1.864   0.883 -0.0028  0.6449 -0.0289
  950poe     o2 7076   3.978   1.785   0.858 -0.1022  0.2948  0.6180
  950poe    c23 7077   4.097   1.860   0.856  0.3691 -0.4631 -0.6726
  950poe    c23 7078   4.201   1.765   0.793  0.6458 -0.3451 -0.3979
  950poe     o2 7079   4.235   1.647   0.862  0.2615 -0.0538  0.3034
  950poe    c31 7080   4.350   1.593   0.800 -0.0473 -0.5019  0.1142
  951poe    c31 7081   2.748   3.193   0.266  0.6215  0.2193 -0.3410
  951poe     o2 7082   2.857   3.103   0.259  0.3353 -0.1415 -0.2234
  951poe    c23 7083   2.946   3.151   0.161  0.6465  0.0906  0.1683
  951poe    c23 7084   3.069   3.060   0.143  0.4645 -0.0721 -0.2548
  951poe     o2 7085   3.109   3.010   0.268 -0.0953 -0.4537 -0.2227
  951poe    c23 7086   3.178   2.887   0.263  0.1388 -0.3390  0.1313
  951poe    c23 7087   3.199   2.855   0.412  0.3048 -0.3335  0.1095
  951poe     o2 7088   3.076   2.874   0.480  0.0844 -0.1048 -0.3517
  951poe    c23 7089   3.087   2.887   0.620 -0.1922  0.4955 -0.3830
  951poe    c23 7090   2.950   2.939   0.668 -0.2737  0.0096 -0.0875
  951poe     o2 7091   2.897   3.034   0.578  0.0026  0.1121 -0.1415
  951poe    c31 7092   2.772   3.083   0.620 -0.1596  0.1652 -0.6798
  952poe    c31 7093   0.848   0.721   0.114 -0.0672 -0.8600  0.4966
  952poe     o2 7094   0.903   0.642   0.012  0.4134 -0.5062  0.4801
  952poe    c23 7095   0.956   0.732  -0.083 -0.5401  0.0932  0.5074
  952poe    c23 7096   0.983   0.647  -0.209 -0.1589  0.3349  0.4244
  952poe     o2 7097   1.044   0.527  -0.166  0.0602  0.2702 -0.0591
  952poe    c23 7098   1.088   0.447  -0.273 -0.2247 -0.2003  0.1741
  952poe    c23 7099   1.203   0.359  -0.219 -0.4116 -0.3387  0.3461
  952poe     o2 7100   1.147   0.250  -0.149 -0.8293 -0.3046  0.0723
  952poe    c23 7101   1.246   0.153  -0.118  0.3813  0.6999 -0.5493
  952poe    c23 7102   1.200   0.075   0.007  0.7305  0.5349 -0.5236
  952poe     o2 7103   1.237   0.128   0.132  0.4151  0.2835 -0.3233
  952poe    c31 7104   1.195   0.035   0.229 -0.4818  0.1062 -0.8652
  953poe    c31 7105   1.852   1.336   2.929 -0.4637 -0.2241 -0.1675
  953poe     o2 7106   1.893   1.443   2.847  0.5554 -0.2901  0.2367
  953poe    c23 7107   1.771   1.488   2.792  0.6131  0.1505  0.4683
  953poe    c23 7108   1.789   1.611   2.701  0.5219 -0.2944 -0.1586
  953poe     o2 7109   1.884   1.693   2.767  0.3293 -0.0783 -0.1472
  953poe    c23 7110   1.914   1.816   2.706  0.1673 -0.1482 -0.3714
  953poe    c23 7111   2.058   1.844   2.754  0.0274  0.2435 -0.1709
  953poe     o2 7112   2.113   1.714   2.768 -0.2568  0.1382 -0.0239
  953poe    c23 7113   2.198   1.667   2.666  0.0192  0.6362 -0.0291
  953poe    c23 7114   2.255   1.527   2.697 -0.9628  0.2380  0.0084
  953poe     o2 7115   2.156   1.444   2.755  0.0535 -0.2540  1.0746
  953poe    c31 7116   2.213   1.322   2.795  0.1131 -0.5722  0.0427
  954poe    c31 7117   0.230   0.974   3.626  0.1890  0.1018 -0.0106
  954poe     o2 7118   0.130   0.979   3.526 -0.0131 -0.3473  0.1667
  954poe    c23 7119   0.177   1.017   3.399 -0.7010  0.2445  0.0814
  954poe    c23 7120   0.069   0.993   3.292  0.0656  0.0483 -0.6602
  954poe     o2 7121  -0.050   1.046   3.345  0.3681  0.1941 -0.1244
  954poe    c23 7122  -0.166   1.031   3.267  0.2677 -0.4262  0.1407
  954poe    c23 7123  -0.266   0.959   3.360 -0.4252 -0.2328 -0.4417
  954poe     o2 7124  -0.198   0.849   3.417  0.1519  0.1792 -0.3194
  954poe    c23 7125  -0.270   0.776   3.514  0.9076 -0.4329 -0.2153
  954poe    c23 7126  -0.161   0.673   3.550  0.7759 -0.4700  0.0760
  954poe     o2 7127  -0.041   0.744   3.575  0.1046  0.6433  0.2409
  954poe    c31 7128   0.032   0.665   3.666 -0.2852 -0.2697 -0.2151
  955poe    c31 7129   6.126   1.309   3.596  0.7814  0.3223  0.6291
  955poe     o2 7130   6.135   1.208   3.695  0.4510 -0.2133  0.1238
  955poe    c23 7131   6.143   1.258   3.827  0.1790 -0.2431  0.1517
  955poe    c23 7132   6.282   1.308   3.870  0.2647  0.0101 -0.4015
  955poe     o2 7133   6.328   1.425   3.807  0.3756 -0.0277 -0.3900
  955poe    c23 7134   6.466   1.453   3.816  0.4924 -0.7684  0.1749
  955poe    c23 7135   6.487   1.552   3.700 -0.0934  0.3234  0.9792
  955poe     o2 7136   6.397   1.660   3.707 -0.3282  0.2233 -0.2004
  955poe    c23 7137   6.374   1.721   3.582  0.4080 -0.1454 -0.5238
  955poe    c23 7138   6.249   1.808   3.605  0.4559 -0.3639  0.6632
  955poe     o2 7139   6.271   1.887   3.719  0.6948  0.3505  0.1301
  955poe    c31 7140   6.211   2.014   3.705  0.0988  0.0743  0.1117
  956poe    c31 7141   5.755   1.244   5.180 -1.1281  0.2298 -0.1403
  956poe     o2 7142   5.743   1.244   5.321  0.1449 -0.5180 -0.0226
  956poe    c23 7143   5.843   1.161   5.376  0.7010 -0.0171 -0.2736
  956poe    c23 7144   5.799   1.138   5.521  0.2451 -0.0443 -0.4169
  956poe     o2 7145   5.787   1.268   5.576 -0.6061 -0.2289 -0.1401
  956poe    c23 7146   5.702   1.253   5.688 -0.0580 -0.0749  0.3016
  956poe    c23 7147   5.634   1.390   5.706 -0.4643 -0.2580  0.1640
  956poe     o2 7148   5.578   1.403   5.577 -0.3479 -0.2024  0.1190
  956poe    c23 7149   5.534   1.536   5.560 -0.1720 -0.1263  0.2501
  956poe    c23 7150   5.482   1.543   5.415 -0.0650 -0.2356  0.2055
  956poe     o2 7151   5.568   1.481   5.323 -0.0746  0.0366  0.0114
  956poe    c31 7152   5.540   1.542   5.199 -0.3027  0.1918  0.1394
  957poe    c31 7153   3.708   0.014   5.840  0.0135  0.3528 -0.3068
  957poe     o2 7154   3.632   0.062   5.731 -0.2643 -0.4909 -0.4944
  957poe    c23 7155   3.577   0.188   5.764  0.0669 -0.4704 -0.0150
  957poe    c23 7156   3.553   0.281   5.644 -0.1187 -0.5017 -0.0021
  957poe     o2 7157   3.674   0.322   5.584 -0.1571  0.4818  0.5606
  957poe    c23 7158   3.670   0.444   5.514  0.0097  0.0427 -0.2327
  957poe    c23 7159   3.795   0.466   5.428  0.6815  0.0693  0.7392
  957poe     o2 7160   3.833   0.347   5.363 -0.3306  0.0072  0.2507
  957poe    c23 7161   3.918   0.382   5.256 -0.3841 -0.1683  0.1509
  957poe    c23 7162   3.995   0.250   5.238 -0.0586  0.1157 -0.5683
  957poe     o2 7163   3.912   0.137   5.224 -0.1625  0.1390 -0.1427
  957poe    c31 7164   3.980   0.043   5.144  0.4017 -0.4766  1.0274
  958poe    c31 7165   3.848   5.404   5.217 -0.4926  0.4020 -0.7566
  958poe     o2 7166   3.906   5.293   5.153  0.0197  0.0866  0.2298
  958poe    c23 7167   4.029   5.335   5.097  0.1515 -0.3390  0.1983
  958poe    c23 7168   4.094   5.218   5.020  0.0741 -0.3182  0.1008
  958poe     o2 7169   3.986   5.140   4.973  0.1218 -0.3501  0.0437
  958poe    c23 7170   4.013   5.012   4.923  0.3785 -0.1859 -0.2430
  958poe    c23 7171   3.879   4.936   4.912  0.2085  0.0943 -0.1060
  958poe     o2 7172   3.820   4.968   5.036  0.3517 -0.5328  0.1296
  958poe    c23 7173   3.680   4.952   5.030  0.3099  0.0114 -0.4455
  958poe    c23 7174   3.629   4.990   5.171  0.0925 -0.1505 -0.4820
  958poe     o2 7175   3.674   5.117   5.211 -0.3170 -0.0604 -0.3052
  958poe    c31 7176   3.654   5.150   5.347  0.6102 -0.2418 -0.1224
  959poe    c31 7177   4.575   0.099   4.872  0.2379  0.2812 -0.9977
  959poe     o2 7178   4.461   0.166   4.823 -0.3372 -0.0009 -0.0764
  959poe    c23 7179   4.343   0.147   4.898 -0.2084 -0.3273  0.0493
  959poe    c23 7180   4.228   0.212   4.819 -0.3239 -0.3329  0.2125
  959poe     o2 7181   4.213   0.349   4.849  0.0361 -0.3257  0.3622
  959poe    c23 7182   4.078   0.383   4.871 -0.0313 -0.1901 -0.2491
  959poe    c23 7183   4.070   0.533   4.906 -0.3019 -0.3217  0.2561
  959poe     o2 7184   4.136   0.599   4.801  0.2586 -0.1195  0.7297
  959poe    c23 7185   4.156   0.737   4.821 -0.2239  0.1166 -0.3502
  959poe    c23 7186   4.242   0.780   4.700  0.1530  0.4320  0.0257
  959poe     o2 7187   4.353   0.696   4.681  0.1313  0.2824  0.5432
  959poe    c31 7188   4.445   0.751   4.590 -0.1033  0.5984  0.4987
  960poe    c31 7189   0.221   1.109   0.702 -0.0937 -0.0143  0.0673
  960poe     o2 7190   0.222   1.146   0.566 -0.0158 -0.3159 -0.0156
  960poe    c23 7191   0.282   1.032   0.508 -0.5417 -0.3787 -0.4499
  960poe    c23 7192   0.331   1.079   0.370 -0.3617  0.0188 -0.2525
  960poe     o2 7193   0.227   1.162   0.325 -0.6999 -0.1881  0.1382
  960poe    c23 7194   0.253   1.200   0.191 -0.1035 -0.7964  0.0747
  960poe    c23 7195   0.127   1.281   0.152 -0.0310 -0.5296  0.3867
  960poe     o2 7196   0.071   1.357   0.257  0.3103  0.2892 -0.0119
  960poe    c23 7197   0.110   1.492   0.265 -1.3598  0.7944 -0.0237
  960poe    c23 7198   0.100   1.536   0.412 -0.1419 -0.0355  0.3202
  960poe     o2 7199   0.163   1.445   0.499  0.1992  0.0719  0.1912
  960poe    c31 7200   0.143   1.494   0.630 -0.2912  0.6200 -0.0824
  961poe    c31 7201   2.774   5.586   2.669 -0.1378 -0.8870  0.1373
  961poe     o2 7202   2.635   5.601   2.678 -0.0408  0.0060  0.2620
  961poe    c23 7203   2.621   5.737   2.713 -0.1206  0.0954 -0.1117
  961poe    c23 7204   2.469   5.753   2.729 -0.1064  0.2527 -0.1382
  961poe     o2 7205   2.432   5.726   2.596  0.1678  0.7780 -0.3229
  961poe    c23 7206   2.296   5.698   2.572  0.2762 -0.3003  0.2684
  961poe    c23 7207   2.276   5.653   2.426 -0.0209  0.1656  0.1624
  961poe     o2 7208   2.366   5.553   2.385  0.0714  0.3445 -0.0739
  961poe    c23 7209   2.313   5.508   2.263 -0.0495  0.8837 -0.2223
  961poe    c23 7210   2.392   5.393   2.197 -0.0853  0.5832  0.2519
  961poe     o2 7211   2.529   5.424   2.185 -0.1790  0.6916 -0.5959
  961poe    c31 7212   2.618   5.322   2.145 -0.3267  0.0585  0.6428
  962poe    c31 7213   3.834   5.000   3.225  0.3234  0.9656 -0.7691
  962poe     o2 7214   3.845   5.133   3.271  0.2045  0.7718 -0.1701
  962poe    c23 7215   3.955   5.197   3.212  0.4070  0.3525 -0.2521
  962poe    c23 7216   3.964   5.345   3.255  0.2209  0.2630  0.0929
  962poe     o2 7217   3.839   5.401   3.224  0.2991  0.0759 -0.5680
  962poe    c23 7218   3.806   5.522   3.290 -0.7844 -0.2245 -0.5381
  962poe    c23 7219   3.739   5.496   3.426  0.2486  0.1639  0.0505
  962poe     o2 7220   3.647   5.391   3.414  0.8242 -0.3255 -0.1047
  962poe    c23 7221   3.626   5.322   3.535  0.2270  0.4823  0.2584
  962poe    c23 7222   3.528   5.207   3.504  0.0790  0.7604 -0.3162
  962poe     o2 7223   3.588   5.142   3.394 -0.1623 -0.2911  0.1646
  962poe    c31 7224   3.496   5.041   3.357 -0.3696 -0.0465  0.0127
  963poe    c31 7225   6.451   6.651   2.770 -0.0416  0.0362 -0.1774
  963poe     o2 7226   6.520   6.770   2.738 -0.3334  0.3245  0.2458
  963poe    c23 7227   6.620   6.797   2.834 -0.2070  0.1601  0.1601
  963poe    c23 7228   6.747   6.711   2.845  0.2051  0.7089 -0.2750
  963poe     o2 7229   6.836   6.749   2.948  0.5476  0.3025 -0.4159
  963poe    c23 7230   6.955   6.674   2.943 -0.0853 -0.7541  0.1323
  963poe    c23 7231   7.076   6.743   3.007 -0.5866  0.5515 -0.2989
  963poe     o2 7232   7.026   6.812   3.119 -0.0327 -0.0955  0.3561
  963poe    c23 7233   7.134   6.876   3.184  0.1066  0.1617 -0.1261
  963poe    c23 7234   7.077   6.907   3.324 -0.2477 -1.1343  0.0347
  963poe     o2 7235   6.943   6.951   3.319  0.1034 -0.0360  0.0944
  963poe    c31 7236   6.914   7.016   3.441 -0.2385 -0.4803  0.2495
  964poe    c31 7237   1.190   1.619   6.623  0.1168  0.1715 -0.1746
  964poe     o2 7238   1.215   1.598   6.486 -0.3553 -0.2677 -0.1956
  964poe    c23 7239   1.293   1.702   6.432 -0.4291 -0.1298 -0.0371
  964poe    c23 7240   1.312   1.685   6.280 -0.4886 -0.3089 -0.0239
  964poe     o2 7241   1.387   1.571   6.243  0.7234  0.2741  0.5873
  964poe    c23 7242   1.425   1.598   6.110 -0.0788  0.1144  0.3220
  964poe    c23 7243   1.518   1.478   6.084 -0.4187 -0.1166  0.1639
  964poe     o2 7244   1.465   1.362   6.145  0.1040 -0.1925  0.4827
  964poe    c23 7245   1.546   1.247   6.147 -0.0474 -0.3222 -0.2593
  964poe    c23 7246   1.492   1.133   6.236 -0.0750 -0.1049  0.0031
  964poe     o2 7247   1.471   1.186   6.365 -0.1095  0.1721 -0.1146
  964poe    c31 7248   1.423   1.090   6.457 -0.1000  0.0323 -0.2551
  965poe    c31 7249   1.125   6.157   6.718 -0.4131  0.7811 -0.1832
  965poe     o2 7250   1.138   6.288   6.666 -0.3706  0.6400 -0.5269
  965poe    c23 7251   1.194   6.354   6.777  0.0797 -0.1906 -0.2527
  965poe    c23 7252   1.266   6.482   6.731 -0.1565  0.0849  0.1411
  965poe     o2 7253   1.202   6.536   6.617  0.3164  0.1411 -0.1003
  965poe    c23 7254   1.257   6.651   6.556  0.4335  0.1788  0.0739
  965poe    c23 7255   1.131   6.729   6.516  0.3557  0.0071 -0.0214
  965poe     o2 7256   1.033   6.655   6.446  0.4229 -0.1502  0.0521
  965poe    c23 7257   0.918   6.727   6.406  0.3412 -0.1665  0.2579
  965poe    c23 7258   0.822   6.632   6.332  0.3251  0.1349 -0.1062
  965poe     o2 7259   0.778   6.529   6.417  0.3789  0.1011 -0.1196
  965poe    c31 7260   0.684   6.448   6.350  0.2220  0.2057 -0.0266
  966poe    c31 7261   5.677   5.406   2.521 -0.6860 -0.4353  0.1118
  966poe     o2 7262   5.676   5.401   2.380  0.6010 -0.2128  0.0824
  966poe    c23 7263   5.789   5.330   2.334  0.0049 -1.0880 -0.0503
  966poe    c23 7264   5.802   5.351   2.182  0.1218 -1.2090 -0.0574
  966poe     o2 7265   5.680   5.351   2.112  0.2201  0.1230 -0.2631
  966poe    c23 7266   5.666   5.249   2.015 -0.5880  0.5220 -0.5851
  966poe    c23 7267   5.515   5.221   2.023 -0.3838 -0.2649  0.8263
  966poe     o2 7268   5.472   5.221   2.157  0.4844 -0.4191  1.1142
  966poe    c23 7269   5.336   5.259   2.149  0.5839 -0.2715 -0.0280
  966poe    c23 7270   5.298   5.372   2.246  0.1577 -0.3454 -0.1085
  966poe     o2 7271   5.398   5.472   2.251 -0.3594  0.1747 -0.0436
  966poe    c31 7272   5.360   5.568   2.346 -0.2722 -0.0999  0.2708
  967poe    c31 7273   4.362   5.360   2.527 -0.2147 -0.4876 -0.3809
  967poe     o2 7274   4.435   5.290   2.429 -0.0559 -0.1724 -0.4878
  967poe    c23 7275   4.501   5.396   2.364 -0.1021  0.2756  0.1827
  967poe    c23 7276   4.505   5.360   2.214  0.0995 -0.3902  0.3450
  967poe     o2 7277   4.555   5.229   2.198  0.6042 -0.2216  0.5289
  967poe    c23 7278   4.495   5.169   2.086  0.2325 -0.1726  0.7022
  967poe    c23 7279   4.419   5.038   2.115 -0.0123 -0.1795  0.0338
  967poe     o2 7280   4.364   5.052   2.244  0.0384 -0.0136  0.0375
  967poe    c23 7281   4.276   4.948   2.281  0.2118 -0.1898 -0.0407
  967poe    c23 7282   4.245   4.964   2.431 -0.2827  0.4354 -0.2044
  967poe     o2 7283   4.363   5.013   2.491 -0.2547 -0.1098  0.1971
  967poe    c31 7284   4.359   4.973   2.626 -0.6791 -0.2080  0.1576
  968poe    c31 7285   3.449   1.440   6.843 -0.9698 -0.2429 -0.2349
  968poe     o2 7286   3.407   1.574   6.829  0.4949  0.2328 -0.2352
  968poe    c23 7287   3.374   1.596   6.694  0.8989  0.5363 -0.2864
  968poe    c23 7288   3.293   1.726   6.707 -0.2617 -0.2469  0.5770
  968poe     o2 7289   3.358   1.821   6.788 -0.3118  0.2759  0.0165
  968poe    c23 7290   3.324   1.955   6.761 -0.1449  0.2490 -0.3291
  968poe    c23 7291   3.373   2.050   6.872 -0.2228  0.0168 -0.0959
  968poe     o2 7292   3.336   1.997   6.998  0.3997  0.0221  0.0920
  968poe    c23 7293   3.347   2.099   7.094 -0.2414  0.2718 -0.0934
  968poe    c23 7294   3.209   2.120   7.160 -0.1942  0.6338 -0.1077
  968poe     o2 7295   3.112   2.177   7.075 -0.3632 -0.2346 -0.5102
  968poe    c31 7296   2.990   2.176   7.144  0.2135 -0.3299  0.5287
  969poe    c31 7297   3.483   0.688   1.464 -0.4628 -0.3080 -0.2711
  969poe     o2 7298   3.388   0.788   1.495  0.1575  0.2854 -0.2620
  969poe    c23 7299   3.380   0.860   1.375 -0.1275  0.0242 -0.3993
  969poe    c23 7300   3.269   0.966   1.390 -0.0375  0.0950 -0.2349
  969poe     o2 7301   3.156   0.899   1.442 -0.1614  0.3924 -0.1230
  969poe    c23 7302   3.037   0.976   1.439 -0.3348  0.1181 -0.3269
  969poe    c23 7303   2.959   0.903   1.549 -0.0151  0.1062 -0.1053
  969poe     o2 7304   3.039   0.881   1.663  0.2760  0.1552 -0.2995
  969poe    c23 7305   3.060   0.987   1.754  0.0128 -0.2117  0.1929
  969poe    c23 7306   3.199   0.962   1.815  0.2377  0.8863  0.1477
  969poe     o2 7307   3.291   0.909   1.723 -0.3134 -0.1350  0.1660
  969poe    c31 7308   3.413   0.973   1.753 -0.3625 -0.1745  0.4523
  970poe    c31 7309   6.648   5.961   4.020 -0.3416  0.1400 -0.2255
  970poe     o2 7310   6.514   5.921   4.037 -0.0384 -0.9791 -0.3876
  970poe    c23 7311   6.479   5.942   4.172  0.0567  0.1399 -0.5238
  970poe    c23 7312   6.332   5.899   4.193  0.0799  0.4682  0.3451
  970poe     o2 7313   6.268   5.879   4.069  0.3215 -0.0075  0.2957
  970poe    c23 7314   6.128   5.882   4.084  0.2431  0.5887 -0.4909
  970poe    c23 7315   6.089   5.940   3.946  0.4971  0.5108 -0.5953
  970poe     o2 7316   6.167   5.879   3.845  0.2215 -0.4198 -0.2580
  970poe    c23 7317   6.159   5.948   3.723  0.0975  0.2888  0.1427
  970poe    c23 7318   6.303   5.927   3.673 -0.1652 -0.1240 -0.4618
  970poe     o2 7319   6.400   5.972   3.765 -0.3250 -0.0920 -0.3083
  970poe    c31 7320   6.513   5.992   3.683  0.1458  0.3879  0.4443
  971poe    c31 7321   4.233   6.725   0.194 -0.9587 -0.3914  0.3706
  971poe     o2 7322   4.290   6.604   0.151 -0.2152  0.0524  0.0964
  971poe    c23 7323   4.205   6.503   0.199 -0.5172  0.1452 -0.2379
  971poe    c23 7324   4.295   6.384   0.240  0.6992  1.2517  0.3604
  971poe     o2 7325   4.377   6.362   0.127  0.6533  0.0775  0.5532
  971poe    c23 7326   4.412   6.227   0.104  0.2865  0.0014  0.4290
  971poe    c23 7327   4.522   6.228  -0.004 -0.3845 -0.4381 -0.2691
  971poe     o2 7328   4.489   6.330  -0.095  0.2806  0.3905  0.4090
  971poe    c23 7329   4.561   6.320  -0.216  0.3040  0.9363  0.3723
  971poe    c23 7330   4.480   6.383  -0.331  0.0511  0.0868  0.0751
  971poe     o2 7331   4.459   6.520  -0.307  0.0538  0.1236 -0.1303
  971poe    c31 7332   4.425   6.580  -0.429 -0.7073  0.9304  0.4617
  972poe    c31 7333   3.126   3.313   2.352  0.0538  0.1999 -0.4660
  972poe     o2 7334   2.988   3.290   2.346  0.1208 -0.2723 -0.2600
  972poe    c23 7335   2.934   3.336   2.224 -0.4945  0.0670  0.1342
  972poe    c23 7336   2.791   3.281   2.212 -0.6386  0.5980 -0.6830
  972poe     o2 7337   2.756   3.208   2.327  0.9819 -0.4572 -0.8221
  972poe    c23 7338   2.636   3.138   2.303  0.2736  0.2450  0.4878
  972poe    c23 7339   2.591   3.045   2.417  0.1701  0.1989  0.4094
  972poe     o2 7340   2.689   2.949   2.449 -0.1103 -0.1353  0.2678
  972poe    c23 7341   2.662   2.894   2.576  0.2304 -0.1188  0.3480
  972poe    c23 7342   2.767   2.791   2.622  0.5383 -0.4198 -0.9693
  972poe     o2 7343   2.888   2.858   2.652 -0.0498  0.1941  0.1153
  972poe    c31 7344   2.975   2.765   2.711 -0.3831 -0.1214  0.1124
  973poe    c31 7345   0.760   3.228   5.526  0.1384 -0.2753  0.3755
  973poe     o2 7346   0.797   3.351   5.468 -0.5233 -0.0807  0.3584
  973poe    c23 7347   0.813   3.310   5.334  0.1749  0.2866  0.3289
  973poe    c23 7348   0.916   3.396   5.258  0.4947  0.5737  1.0761
  973poe     o2 7349   0.867   3.525   5.287  0.0914  0.7502 -0.3257
  973poe    c23 7350   0.935   3.616   5.204  0.9000  0.3125 -0.1471
  973poe    c23 7351   0.864   3.746   5.247  0.3048 -0.0510 -0.0302
  973poe     o2 7352   0.862   3.743   5.388 -0.1256 -0.1750 -0.0377
  973poe    c23 7353   0.776   3.841   5.442 -0.4416 -0.1932 -0.5067
  973poe    c23 7354   0.731   3.801   5.583 -0.2818 -0.1960 -0.4572
  973poe     o2 7355   0.721   3.660   5.573 -0.1016 -0.2746  0.3662
  973poe    c31 7356   0.651   3.598   5.679 -0.7540  0.0571  0.1353
  974poe    c31 7357   4.207   3.020   6.058 -0.2562  0.8184  0.3728
  974poe     o2 7358   4.092   2.939   6.052  0.0804  0.3228  0.5731
  974poe    c23 7359   3.985   3.007   5.989  0.0001 -0.8059 -0.5482
  974poe    c23 7360   3.850   2.945   6.028 -0.0252  0.0143  0.7393
  974poe     o2 7361   3.844   2.815   5.972  0.2909  0.1944  0.2795
  974poe    c23 7362   3.722   2.753   6.007  0.5696 -0.0113  0.9012
  974poe    c23 7363   3.715   2.628   5.917 -0.4055  0.7446 -0.0951
  974poe     o2 7364   3.770   2.653   5.790 -0.5282  0.5072 -0.1960
  974poe    c23 7365   3.778   2.521   5.742  0.7182  0.5777 -0.2250
  974poe    c23 7366   3.773   2.503   5.589 -0.7927  0.3697 -0.1669
  974poe     o2 7367   3.894   2.542   5.528 -0.8305 -0.1509 -0.5769
  974poe    c31 7368   3.883   2.656   5.446  0.1255  0.9154  0.7379
  975poe    c31 7369   3.235   6.663   6.494 -0.4394 -0.2425  0.1006
  975poe     o2 7370   3.131   6.592   6.557 -0.5013 -0.1800  0.0686
  975poe    c23 7371   3.156   6.577   6.695 -0.5552  0.4155  0.1417
  975poe    c23 7372   3.052   6.480   6.754 -0.0468 -0.2493 -0.0534
  975poe     o2 7373   2.938   6.491   6.672  0.1150 -0.2804 -0.2820
  975poe    c23 7374   2.846   6.389   6.699  0.1818 -0.1975  0.2640
  975poe    c23 7375   2.756   6.384   6.574  0.3776  0.0304  0.1151
  975poe     o2 7376   2.840   6.414   6.465  0.7852  0.6587  0.5924
  975poe    c23 7377   2.782   6.459   6.345  0.3873 -0.2612  0.4315
  975poe    c23 7378   2.899   6.501   6.254 -0.0006 -0.0251  0.0371
  975poe     o2 7379   2.979   6.593   6.324  0.1356 -0.0567 -0.0766
  975poe    c31 7380   3.033   6.681   6.228 -0.3493  0.4616  0.1227
  976poe    c31 7381   4.702   3.556   1.021  0.1688  0.5668  0.2396
  976poe     o2 7382   4.788   3.550   1.132  0.3580  0.1759  0.0738
  976poe    c23 7383   4.884   3.448   1.110 -0.2682 -0.3108 -0.4492
  976poe    c23 7384   4.999   3.439   1.212 -0.2681 -0.6997 -0.4836
  976poe     o2 7385   5.128   3.423   1.159  0.0083 -0.0005 -0.0389
  976poe    c23 7386   5.195   3.346   1.256 -0.4888 -0.3150  0.0601
  976poe    c23 7387   5.320   3.279   1.195 -0.2732  0.1332  0.0019
  976poe     o2 7388   5.386   3.389   1.136 -0.4357 -0.0899 -0.6055
  976poe    c23 7389   5.511   3.352   1.084 -0.1612  0.2015 -0.1554
  976poe    c23 7390   5.569   3.477   1.014 -0.0916  0.3387  0.1455
  976poe     o2 7391   5.458   3.521   0.939 -0.2378  0.2343  0.2989
  976poe    c31 7392   5.479   3.633   0.856 -0.0591 -0.2035 -0.2594
  977poe    c31 7393   5.503   4.430   0.495 -0.0354  0.5106  0.4864
  977poe     o2 7394   5.439   4.521   0.409 -0.1607  0.3912  0.4536
  977poe    c23 7395   5.300   4.523   0.432 -0.2973  0.7771 -0.3623
  977poe    c23 7396   5.208   4.483   0.314 -0.5014  0.0116  0.0492
  977poe     o2 7397   5.206   4.588   0.219 -0.2608  0.0207  0.0532
  977poe    c23 7398   5.107   4.550   0.126 -0.2127 -0.4750  0.1986
  977poe    c23 7399   5.089   4.677   0.041  0.4964 -0.2399  0.3938
  977poe     o2 7400   5.217   4.725   0.004  0.1905  0.6947  0.5291
  977poe    c23 7401   5.200   4.857  -0.044 -0.0734  0.4005 -0.1982
  977poe    c23 7402   5.342   4.913  -0.061  0.0342  0.2273  0.1099
  977poe     o2 7403   5.416   4.875   0.053  0.3276  0.2085 -0.0844
  977poe    c31 7404   5.527   4.959   0.070  0.5034  0.0619 -0.4824
  978poe    c31 7405   4.716   5.178   6.167 -0.6486  0.1907 -0.1695
  978poe     o2 7406   4.675   5.053   6.115 -0.6397 -0.1583  0.6451
  978poe    c23 7407   4.545   5.013   6.151 -0.9261 -0.0140 -0.2132
  978poe    c23 7408   4.501   4.891   6.066 -0.3434 -0.1898 -0.2701
  978poe     o2 7409   4.605   4.797   6.076  0.3909  0.6315 -0.0230
  978poe    c23 7410   4.605   4.707   5.968 -0.2251  0.2140  0.3183
  978poe    c23 7411   4.741   4.638   5.992 -0.3468 -0.1805 -0.1005
  978poe     o2 7412   4.828   4.746   6.018 -0.1645 -0.3188 -0.1341
  978poe    c23 7413   4.963   4.708   6.029 -0.0635  0.2445  0.6336
  978poe    c23 7414   5.038   4.840   6.003  0.1687 -0.0406 -0.1375
  978poe     o2 7415   4.959   4.942   6.059 -0.1781 -0.2458 -0.2501
  978poe    c31 7416   5.038   5.056   6.083 -0.0163 -0.4029 -0.0283
  979poe    c31 7417   4.878   0.199   4.497 -0.5362 -0.1042  0.1744
  979poe     o2 7418   4.825   0.080   4.443 -0.0397 -0.2325 -0.0327
  979poe    c23 7419   4.931  -0.013   4.432 -0.4034 -0.6300 -0.2504
  979poe    c23 7420   4.888  -0.142   4.361 -0.6645 -0.7748  0.1663
  979poe     o2 7421   4.810  -0.106   4.248  0.4319  0.2602 -0.2829
  979poe    c23 7422   4.779  -0.221   4.172  0.2908 -0.1184  0.3345
  979poe    c23 7423   4.707  -0.174   4.044 -0.0559 -0.3577  0.4412
  979poe     o2 7424   4.625  -0.070   4.094  0.1944 -0.1159  0.3521
  979poe    c23 7425   4.498  -0.108   4.142 -0.0272  0.0233 -0.1245
  979poe    c23 7426   4.449   0.007   4.232  0.1131 -0.1072  0.1169
  979poe     o2 7427   4.556   0.055   4.311  0.2125 -0.2448  0.0670
  979poe    c31 7428   4.496   0.144   4.402 -0.2565 -0.5006  0.0125
  980poe    c31 7429   5.432   0.452   4.176 -0.1128 -0.0233 -0.3735
  980poe     o2 7430   5.294   0.441   4.148 -0.1465  0.2154 -0.3073
  980poe    c23 7431   5.256   0.305   4.147 -0.0598  0.1842  0.2346
  980poe    c23 7432   5.107   0.324   4.114 -0.0280  0.3245  0.1703
  980poe     o2 7433   5.112   0.415   4.007 -0.6417  0.5878  0.3617
  980poe    c23 7434   4.992   0.432   3.934  0.1013  0.5248 -0.9157
  980poe    c23 7435   4.981   0.571   3.869  0.1914  0.6989 -0.5621
  980poe     o2 7436   5.046   0.660   3.957  0.3736 -0.2915  0.3215
  980poe    c23 7437   5.064   0.786   3.897  0.5424 -0.3048  0.3428
  980poe    c23 7438   5.152   0.850   4.005  0.5094 -0.4296  0.4442
  980poe     o2 7439   5.250   0.759   4.049  0.5377 -0.7301 -0.2329
  980poe    c31 7440   5.367   0.829   4.084  0.1259 -0.0289 -0.2406
  981poe    c31 7441   3.119   1.589   1.090 -0.3651 -0.1570  0.1913
  981poe     o2 7442   3.005   1.550   1.017 -0.1057 -0.2768 -0.1542
  981poe    c23 7443   3.041   1.548   0.881 -0.3658 -0.2715 -0.2232
  981poe    c23 7444   2.938   1.556   0.766 -0.6015 -0.2447 -0.0100
  981poe     o2 7445   2.865   1.435   0.756  0.4779 -0.8852 -0.3881
  981poe    c23 7446   2.776   1.462   0.650 -0.4077  0.3218  0.6280
  981poe    c23 7447   2.789   1.357   0.538 -0.3756  0.6224  0.3495
  981poe     o2 7448   2.830   1.236   0.597 -0.2710  0.2167 -0.5503
  981poe    c23 7449   2.801   1.120   0.522  0.0553 -0.4870  0.3965
  981poe    c23 7450   2.759   1.005   0.616  0.1772 -0.4798  0.4609
  981poe     o2 7451   2.855   1.002   0.719  0.3887 -0.1655  0.2756
  981poe    c31 7452   2.816   0.893   0.800  0.0466 -0.1727  0.1051
  982poe    c31 7453   2.192   2.938   2.592 -0.1018  0.5282 -0.0505
  982poe     o2 7454   2.094   2.838   2.610  0.1672  0.3064  0.1814
  982poe    c23 7455   2.134   2.708   2.575  0.2559  0.2039  0.6481
  982poe    c23 7456   2.023   2.619   2.632 -0.1085  0.1588 -0.1200
  982poe     o2 7457   1.903   2.688   2.607 -0.3001 -0.1996 -0.2037
  982poe    c23 7458   1.797   2.622   2.673 -0.0341 -0.2215  0.2038
  982poe    c23 7459   1.671   2.701   2.634  0.1020  0.0539  0.3193
  982poe     o2 7460   1.695   2.839   2.617  0.3908 -0.0793 -0.3691
  982poe    c23 7461   1.627   2.893   2.506 -0.1756  0.3708  0.1917
  982poe    c23 7462   1.691   3.031   2.487 -0.0682  0.3108  0.1145
  982poe     o2 7463   1.832   3.022   2.476 -0.0255  0.6647  0.3389
  982poe    c31 7464   1.898   3.137   2.429  0.1594  0.3442 -0.1943
  983poe    c31 7465   4.079   4.811   3.486  0.3862  0.3251  0.1747
  983poe     o2 7466   4.049   4.873   3.609 -0.3486  0.0433  0.1432
  983poe    c23 7467   4.116   4.996   3.624 -0.2780 -0.0580  0.6545
  983poe    c23 7468   4.025   5.088   3.708  0.3346  0.4520  0.7680
  983poe     o2 7469   3.998   5.002   3.817  0.4075 -0.1439  0.3184
  983poe    c23 7470   3.931   5.081   3.912  0.0355 -0.1805  0.0883
  983poe    c23 7471   3.933   4.993   4.039  0.1482  0.2793  0.4093
  983poe     o2 7472   3.881   4.869   3.997  0.5017  0.0557  0.6271
  983poe    c23 7473   3.948   4.762   4.060 -0.1813 -0.6154  0.2438
  983poe    c23 7474   4.061   4.706   3.971 -0.4496 -0.7539 -0.0078
  983poe     o2 7475   4.017   4.694   3.837 -0.2156  0.7639 -0.2346
  983poe    c31 7476   4.099   4.603   3.768  0.0373  0.5667  0.3186
  984poe    c31 7477   5.409   3.642   2.530 -1.2418 -0.1090 -0.1544
  984poe     o2 7478   5.446   3.573   2.648 -0.3405  0.3569 -0.1545
  984poe    c23 7479   5.535   3.468   2.615 -0.5807  0.0663  0.1184
  984poe    c23 7480   5.580   3.394   2.742 -0.5031 -0.3879 -0.1728
  984poe     o2 7481   5.476   3.318   2.800 -0.2938 -0.5147  0.0417
  984poe    c23 7482   5.550   3.268   2.909  0.4624 -0.1653 -0.2992
  984poe    c23 7483   5.471   3.165   2.992 -0.0333 -0.0219 -0.5876
  984poe     o2 7484   5.365   3.250   3.029  0.4204  0.2610  0.0877
  984poe    c23 7485   5.267   3.166   3.085 -0.1214 -0.0117 -1.2426
  984poe    c23 7486   5.139   3.249   3.107  0.1781  0.0803  0.2433
  984poe     o2 7487   5.129   3.339   2.998 -0.5192  0.5026  0.6501
  984poe    c31 7488   5.020   3.428   3.010 -0.2726  0.8342  0.4507
  985poe    c31 7489   3.429   0.375   4.541  0.3110  0.0927 -0.3175
  985poe     o2 7490   3.408   0.306   4.420  0.4536  0.2134 -0.4108
  985poe    c23 7491   3.283   0.348   4.370  0.2998  0.4017  0.1145
  985poe    c23 7492   3.273   0.255   4.247  0.6645 -0.5022  0.7629
  985poe     o2 7493   3.395   0.265   4.177  0.2898  0.6923  0.2619
  985poe    c23 7494   3.409   0.182   4.063  0.1889  0.5235  0.3725
  985poe    c23 7495   3.437   0.033   4.091  0.3704  0.5043  0.0955
  985poe     o2 7496   3.572   0.029   4.131  0.2577 -0.0626  0.4246
  985poe    c23 7497   3.635  -0.097   4.116  0.5226  0.0961  0.2078
  985poe    c23 7498   3.610  -0.179   4.243 -0.0447  0.4372  0.3192
  985poe     o2 7499   3.650  -0.115   4.362  0.3225 -0.1286  0.5043
  985poe    c31 7500   3.630  -0.184   4.483 -0.0856 -0.0920  0.4589
  986poe    c31 7501   4.899   4.878   4.972 -0.9066  0.1881 -1.3093
  986poe     o2 7502   4.912   4.935   5.101 -0.1919 -0.9903 -0.8441
  986poe    c23 7503   4.790   4.931   5.171 -0.0049  0.8411 -0.3559
  986poe    c23 7504   4.810   4.956   5.321 -0.6862  0.5006 -0.2057
  986poe     o2 7505   4.928   5.030   5.338 -0.2307 -0.2203 -0.1783
  986poe    c23 7506   4.958   5.053   5.474 -0.3348  0.0585 -0.2013
  986poe    c23 7507   5.063   5.165   5.468  0.1853 -0.4059  0.1427
  986poe     o2 7508   5.147   5.117   5.365  0.2493 -0.2800  0.1354
  986poe    c23 7509   5.218   5.222   5.304  0.1794 -0.5288 -0.3784
  986poe    c23 7510   5.263   5.191   5.160  0.1738  0.0914 -0.5192
  986poe     o2 7511   5.168   5.118   5.087 -0.0656  0.3169 -0.4337
  986poe    c31 7512   5.207   5.123   4.951 -0.4416 -0.0501 -0.5573
  987poe    c31 7513   1.087   4.398   6.340 -0.1372 -0.1157 -0.4438
  987poe     o2 7514   1.218   4.416   6.391 -0.2739 -0.1103 -0.0878
  987poe    c23 7515   1.324   4.413   6.298 -0.0923 -0.1102  0.1190
  987poe    c23 7516   1.446   4.466   6.376 -0.4730  0.5361  0.2832
  987poe     o2 7517   1.442   4.401   6.501 -0.5276 -0.3528 -0.1735
  987poe    c23 7518   1.559   4.428   6.574 -0.6243 -0.0862 -0.1169
  987poe    c23 7519   1.590   4.316   6.676  0.1324  0.1216 -0.1112
  987poe     o2 7520   1.497   4.321   6.782 -0.1218 -0.2401 -0.3147
  987poe    c23 7521   1.512   4.222   6.881  0.1353 -0.3210 -0.4331
  987poe    c23 7522   1.389   4.245   6.971  0.1633 -0.1844 -0.4295
  987poe     o2 7523   1.268   4.208   6.909 -0.2928  0.4395  0.0664
  987poe    c31 7524   1.156   4.234   6.990  0.2974  0.2546  0.9643
  988poe    c31 7525   6.137   3.840   4.519  0.1468 -0.8500 -0.9652
  988poe     o2 7526   6.125   3.978   4.490  0.5527 -0.5716  0.1481
  988poe    c23 7527   6.218   4.039   4.404 -0.2061  0.3932 -0.0010
  988poe    c23 7528   6.158   4.167   4.343  0.0200  0.3810 -0.2497
  988poe     o2 7529   6.088   4.221   4.453  0.6454  0.6415  0.0272
  988poe    c23 7530   6.067   4.360   4.464 -0.3273  0.5107 -0.1206
  988poe    c23 7531   5.946   4.374   4.558  0.0346  0.1972  0.3994
  988poe     o2 7532   5.977   4.290   4.667 -0.3319  0.4292  0.6846
  988poe    c23 7533   5.869   4.258   4.751  0.1294 -0.4736  0.9469
  988poe    c23 7534   5.861   4.106   4.770 -0.2998 -0.5898 -0.0712
  988poe     o2 7535   5.896   4.062   4.641  0.1093  0.3449 -0.2812
  988poe    c31 7536   5.807   3.960   4.603  0.1258  0.3482 -0.3291
  989poe    c31 7537   2.553   2.639   1.950  0.0023 -0.6324 -0.6237
  989poe     o2 7538   2.681   2.580   1.956  0.1215 -0.2837  0.6612
  989poe    c23 7539   2.774   2.677   1.998 -0.5141  0.4414  0.4268
  989poe    c23 7540   2.913   2.655   1.935 -0.4181  0.2339  0.7100
  989poe     o2 7541   2.931   2.515   1.927  0.0501  0.3505 -0.3860
  989poe    c23 7542   3.013   2.470   1.821  0.5375 -0.4171  0.3046
  989poe    c23 7543   2.997   2.317   1.832  0.5207 -0.4579 -0.2593
  989poe     o2 7544   2.857   2.301   1.840  0.5153 -0.0992  0.5011
  989poe    c23 7545   2.822   2.172   1.885 -0.0476  0.0215  0.4141
  989poe    c23 7546   2.669   2.180   1.892 -0.0759  0.2275 -0.2918
  989poe     o2 7547   2.635   2.309   1.939  0.1212 -0.0664  0.6886
  989poe    c31 7548   2.495   2.308   1.927  0.1777  0.2960 -0.1051
  990poe    c31 7549   3.852   1.744   6.598  0.2110  0.1283  0.3552
  990poe     o2 7550   3.825   1.733   6.736  0.8471  0.3931  0.5062
  990poe    c23 7551   3.747   1.842   6.777  0.2072 -0.0057  0.3662
  990poe    c23 7552   3.711   1.848   6.927  0.3389  0.2119  0.3903
  990poe     o2 7553   3.590   1.787   6.966  0.1091  0.5099  0.1481
  990poe    c23 7554   3.582   1.799   7.107 -0.7606  0.1177  0.1405
  990poe    c23 7555   3.458   1.741   7.177 -0.3981 -0.3264  0.4244
  990poe     o2 7556   3.354   1.746   7.081  0.2224 -0.2603 -0.2487
  990poe    c23 7557   3.255   1.664   7.138  0.2399  0.0676  0.2563
  990poe    c23 7558   3.117   1.645   7.072  0.2273 -0.3573  0.4009
  990poe     o2 7559   3.121   1.611   6.935 -0.3664  0.2792  0.2185
  990poe    c31 7560   2.993   1.597   6.877  0.0394 -0.2230 -0.5739
  991poe    c31 7561   4.187   3.437   5.114  0.2166  0.0694  0.2851
  991poe     o2 7562   4.282   3.443   5.009  0.0709 -0.2007  0.1369
  991poe    c23 7563   4.390   3.358   5.037 -0.2341 -0.7050 -0.1961
  991poe    c23 7564   4.495   3.329   4.928 -0.5563 -0.1286 -0.6585
  991poe     o2 7565   4.530   3.443   4.852 -0.1386  0.3804  0.2836
  991poe    c23 7566   4.505   3.416   4.716 -0.0945  0.4871  0.2547
  991poe    c23 7567   4.574   3.520   4.625  0.7407  0.1956  0.5471
  991poe     o2 7568   4.553   3.647   4.682 -0.4501  0.1599  0.2156
  991poe    c23 7569   4.610   3.765   4.629  0.3936 -0.1301  0.4562
  991poe    c23 7570   4.607   3.871   4.740 -0.1130  0.4947 -0.1397
  991poe     o2 7571   4.655   3.813   4.860  0.0510  0.4170 -0.2427
  991poe    c31 7572   4.729   3.908   4.933 -0.4457  0.4969  0.1586
  992poe    c31 7573   3.946   2.854   2.310  0.4453 -0.3781 -0.2684
  992poe     o2 7574   3.926   2.915   2.185 -0.1263 -0.7263 -0.3514
  992poe    c23 7575   4.049   2.920   2.116  0.1768 -0.7029  0.1857
  992poe    c23 7576   4.022   3.012   1.995  0.2199 -0.4824  0.3417
  992poe     o2 7577   3.883   3.033   1.984  0.3606  0.2864  0.0063
  992poe    c23 7578   3.835   3.107   1.874  0.2264 -0.5553 -0.5118
  992poe    c23 7579   3.682   3.112   1.887  0.3090 -0.5868  0.4938
  992poe     o2 7580   3.650   3.144   2.021 -0.3504 -0.0712  0.2133
  992poe    c23 7581   3.516   3.189   2.016 -0.2605  0.1622 -0.2209
  992poe    c23 7582   3.460   3.234   2.152  0.5172 -0.3351  0.2748
  992poe     o2 7583   3.538   3.348   2.179  0.2780 -0.0530 -0.2103
  992poe    c31 7584   3.472   3.432   2.271  0.8915  0.3077 -0.0913
  993poe    c31 7585   3.120   1.375   2.819  0.0693 -0.1560  0.6005
  993poe     o2 7586   3.071   1.371   2.687 -0.2106 -0.5903  0.7162
  993poe    c23 7587   2.947   1.305   2.674 -0.2786 -0.4338  0.5656
  993poe    c23 7588   2.963   1.215   2.550  0.2889  0.5442 -0.0880
  993poe     o2 7589   3.024   1.294   2.451  0.0736  0.6626 -0.1274
  993poe    c23 7590   3.022   1.219   2.331 -0.6651  0.5403 -0.0461
  993poe    c23 7591   3.103   1.303   2.231  0.4296 -0.5286 -0.0871
  993poe     o2 7592   3.202   1.372   2.303 -0.0936  0.3001 -0.1487
  993poe    c23 7593   3.283   1.448   2.216  0.2653 -0.0202 -0.0989
  993poe    c23 7594   3.394   1.521   2.293 -0.4880  0.2307  0.7677
  993poe     o2 7595   3.501   1.443   2.342 -0.3328 -0.0275  0.0334
  993poe    c31 7596   3.604   1.530   2.382  0.0517 -0.5190  0.1202
  994poe    c31 7597   6.540   4.222   5.610  0.0205 -0.1438  0.6624
  994poe     o2 7598   6.437   4.162   5.535  0.6050 -0.0648 -0.2081
  994poe    c23 7599   6.499   4.063   5.456  0.0603 -0.2660 -0.3866
  994poe    c23 7600   6.409   3.984   5.359  0.6154 -0.5656 -0.6637
  994poe     o2 7601   6.355   3.864   5.408 -0.1623 -0.1487 -0.4877
  994poe    c23 7602   6.445   3.756   5.396  0.0593 -0.0848  0.5544
  994poe    c23 7603   6.379   3.643   5.478 -0.3357 -0.1028  0.2132
  994poe     o2 7604   6.245   3.642   5.435 -0.2063 -0.3645 -0.1980
  994poe    c23 7605   6.173   3.539   5.499 -0.3538 -0.1237  0.0273
  994poe    c23 7606   6.025   3.550   5.458 -0.3077  0.4507  0.0039
  994poe     o2 7607   5.977   3.681   5.477  0.4563  0.7822 -0.3115
  994poe    c31 7608   5.844   3.677   5.429  0.3009  0.2477  0.1540
  995poe    c31 7609   6.214   2.069   6.138  0.3566  0.2538  0.3170
  995poe     o2 7610   6.149   2.174   6.069  0.1586 -0.1301 -0.0859
  995poe    c23 7611   6.142   2.146   5.931 -1.0174 -0.4930  0.0387
  995poe    c23 7612   6.058   2.241   5.845 -0.1156  0.4640  0.2000
  995poe     o2 7613   5.917   2.234   5.854 -0.1139 -0.2509 -0.2263
  995poe    c23 7614   5.862   2.118   5.797 -0.4906 -0.0065 -0.3626
  995poe    c23 7615   5.711   2.147   5.801 -0.4676  0.0679  0.0159
  995poe     o2 7616   5.670   2.125   5.934 -0.0658 -0.3945  0.0651
  995poe    c23 7617   5.558   2.039   5.932  0.4003 -1.0213  0.3211
  995poe    c23 7618   5.529   2.030   6.083  0.7562  0.2553  0.4788
  995poe     o2 7619   5.546   2.158   6.141  0.5059  0.5936 -0.1821
  995poe    c31 7620   5.467   2.159   6.258 -0.0517 -0.9497 -0.5107
  996poe    c31 7621   4.068   4.133   2.948  0.1331 -0.3547  0.0888
  996poe     o2 7622   3.995   4.095   3.063  0.0922 -0.2687  0.0916
  996poe    c23 7623   3.874   4.051   3.004 -0.1177  0.5680 -0.1116
  996poe    c23 7624   3.805   3.985   3.124  0.1281  0.4275 -0.0483
  996poe     o2 7625   3.810   4.071   3.236  0.4637  0.0764  0.2142
  996poe    c23 7626   3.759   4.014   3.354  0.1931  0.4719  0.2918
  996poe    c23 7627   3.848   4.085   3.458  0.4509  0.2703  0.2084
  996poe     o2 7628   3.981   4.090   3.411  0.3981  0.8320  0.1197
  996poe    c23 7629   4.062   4.140   3.515  0.2672  0.2892  0.4836
  996poe    c23 7630   4.204   4.165   3.462  0.1439 -0.1831 -0.0783
  996poe     o2 7631   4.184   4.210   3.330  0.0551  0.8910  0.2852
  996poe    c31 7632   4.298   4.282   3.292  0.2207  0.4700 -0.0323
  997poe    c31 7633   2.022   1.276   1.072  0.6379 -0.0638 -0.2476
  997poe     o2 7634   2.002   1.231   0.940 -0.3103  0.0733 -0.1605
  997poe    c23 7635   2.080   1.114   0.931 -0.6521 -0.1643 -0.0699
  997poe    c23 7636   2.026   0.999   0.845 -0.3783 -0.1268 -0.2930
  997poe     o2 7637   2.011   1.060   0.718  0.2050  0.5614 -0.0414
  997poe    c23 7638   2.006   0.966   0.613 -0.2192  0.1955  0.2994
  997poe    c23 7639   2.052   1.048   0.491 -0.6132 -0.5046 -0.3251
  997poe     o2 7640   1.967   1.160   0.495  0.4820  0.3214  0.2287
  997poe    c23 7641   2.007   1.281   0.435 -0.5322  0.1172 -0.8799
  997poe    c23 7642   1.954   1.399   0.518 -0.5467 -0.3890 -0.1679
  997poe     o2 7643   1.985   1.376   0.654 -1.0265 -0.4520 -0.0691
  997poe    c31 7644   1.972   1.495   0.729  0.4816 -0.3546  0.0577
  998poe    c31 7645   0.782   3.156   0.157 -0.0351 -0.5050  0.0080
  998poe     o2 7646   0.702   3.098   0.257 -0.5324  0.1169 -0.0237
  998poe    c23 7647   0.791   3.010   0.321 -0.1294  0.6168  0.1014
  998poe    c23 7648   0.697   2.917   0.400 -0.0450 -0.0089 -0.5278
  998poe     o2 7649   0.611   2.988   0.486  0.5331  0.2176 -0.1248
  998poe    c23 7650   0.578   2.911   0.599 -0.0204 -0.0659 -0.4731
  998poe    c23 7651   0.472   2.990   0.677  0.1082  0.1149 -0.4813
  998poe     o2 7652   0.373   3.029   0.584  0.0767 -0.1647 -0.5641
  998poe    c23 7653   0.258   3.074   0.650 -0.0132 -0.5468 -0.4568
  998poe    c23 7654   0.138   3.075   0.553 -0.2969  0.2348 -0.1100
  998poe     o2 7655   0.201   3.124   0.438 -0.1463  0.1193 -0.0763
  998poe    c31 7656   0.110   3.180   0.347 -0.2151 -0.3335 -0.2886
  999poe    c31 7657   5.987   2.496   5.149 -0.1509  0.4101 -0.0593
  999poe     o2 7658   5.907   2.459   5.260  0.3885  0.2171  0.2678
  999poe    c23 7659   5.951   2.517   5.381 -0.0178 -0.4331  0.7346
  999poe    c23 7660   5.842   2.479   5.482 -0.3201 -0.9533  0.2179
  999poe     o2 7661   5.724   2.538   5.431 -0.0189 -0.9814 -0.5184
  999poe    c23 7662   5.622   2.486   5.513 -0.1309 -0.2506 -0.1876
  999poe    c23 7663   5.483   2.507   5.450 -0.0465  0.1456 -0.2422
  999poe     o2 7664   5.482   2.443   5.324  0.2730 -0.3467  0.0034
  999poe    c23 7665   5.345   2.422   5.296  0.2586  0.0385 -0.2233
  999poe    c23 7666   5.340   2.292   5.213  1.0671 -0.6527  0.7819
  999poe     o2 7667   5.444   2.295   5.118  0.0825 -0.1694 -0.3135
  999poe    c31 7668   5.449   2.159   5.078  1.2772 -0.3625  0.4360
 1000poe    c31 7669   0.013   5.697   5.192  0.3742  0.0202  0.0548
 1000poe     o2 7670  -0.063   5.744   5.082  0.3981  0.2507  0.1378
 1000poe    c23 7671  -0.151   5.838   5.140 -0.7683 -0.5864 -0.2385
 1000poe    c23 7672  -0.204   5.939   5.036  0.4242 -0.5517 -0.8315
 1000poe     o2 7673  -0.235   5.848   4.933  0.3411 -0.4947 -0.8570
 1000poe    c23 7674  -0.289   5.924   4.827  0.1001  0.0930 -0.3162
 1000poe    c23 7675  -0.294   5.811   4.722  0.1411  0.0225 -0.2416
 1000poe     o2 7676  -0.178   5.734   4.741  0.1207 -0.0326 -0.3434
 1000poe    c23 7677  -0.199   5.600   4.702  0.4078 -0.1273 -0.1773
 1000poe    c23 7678  -0.073   5.515   4.729  0.3462 -0.1784 -0.0538
 1000poe     o2 7679  -0.052   5.551   4.864  0.1024 -0.1705 -0.0170
 1000poe    c31 7680   0.059   5.485   4.920  0.2003  0.3480  0.4095
 1001poe    c31 7681   5.865   5.416   6.612 -0.0275 -0.6582 -0.3362
 1001poe     o2 7682   5.807   5.538   6.571 -0.0815 -0.4704  0.2896
 1001poe    c23 7683   5.840   5.572   6.439 -0.5919  0.0907  0.3011
 1001poe    c23 7684   5.814   5.722   6.417  0.3514  0.2320  0.1171
 1001poe     o2 7685   5.697   5.754   6.487  0.2839 -0.1202  0.1673
 1001poe    c23 7686   5.663   5.890   6.473 -0.0098 -0.1058  0.9237
 1001poe    c23 7687   5.580   5.943   6.591 -0.0795 -0.0117  0.8325
 1001poe     o2 7688   5.497   5.837   6.632  0.3866 -0.5860  0.3159
 1001poe    c23 7689   5.477   5.836   6.772  0.2604 -0.3801  0.2995
 1001poe    c23 7690   5.607   5.817   6.852  0.5022  0.2178  0.0574
 1001poe     o2 7691   5.686   5.719   6.789  0.3779  0.0748  0.1217
 1001poe    c31 7692   5.777   5.663   6.880  0.3129 -0.5203 -0.1744
 1002poe    c31 7693   1.707   0.370   3.346 -0.5183  0.2435  0.2743
 1002poe     o2 7694   1.813   0.288   3.389 -0.5328 -0.1136 -0.3579
 1002poe    c23 7695   1.794   0.197   3.495 -0.6137  0.2004 -0.0991
 1002poe    c23 7696   1.923   0.120   3.531 -0.2682  0.7841 -0.0736
 1002poe     o2 7697   2.040   0.198   3.539  0.2538  0.0681 -0.5645
 1002poe    c23 7698   2.166   0.138   3.560 -0.0158 -0.2550  0.1974
 1002poe    c23 7699   2.276   0.246   3.547  0.1301 -0.4067  0.1681
 1002poe     o2 7700   2.249   0.342   3.448 -0.2355 -0.4547  0.2162
 1002poe    c23 7701   2.316   0.462   3.479  0.3285 -0.6039 -0.3908
 1002poe    c23 7702   2.236   0.551   3.382 -0.4136 -0.1657  0.6070
 1002poe     o2 7703   2.098   0.522   3.377 -0.3796 -0.2444 -0.0067
 1002poe    c31 7704   2.021   0.640   3.391  0.4341  0.2818  0.1057
 1003poe    c31 7705   5.669   2.510   4.943 -0.0927 -0.6153  0.1982
 1003poe     o2 7706   5.580   2.534   5.049  0.1860 -0.3001  0.3630
 1003poe    c23 7707   5.510   2.655   5.032 -0.0941 -0.4397  0.5255
 1003poe    c23 7708   5.537   2.758   5.143 -0.6542  0.1120  0.1529
 1003poe     o2 7709   5.667   2.812   5.135 -0.5202 -0.1921  0.2868
 1003poe    c23 7710   5.700   2.860   5.264  0.5437 -0.8836  0.2803
 1003poe    c23 7711   5.835   2.932   5.283  0.1943 -0.0884 -0.1946
 1003poe     o2 7712   5.888   2.994   5.168  0.5299 -0.5593 -0.2999
 1003poe    c23 7713   5.895   3.135   5.160  0.0604 -0.5547 -0.6572
 1003poe    c23 7714   5.885   3.187   5.015 -0.4621 -0.3791 -0.5597
 1003poe     o2 7715   5.983   3.117   4.942 -0.3493 -0.3146 -0.4706
 1003poe    c31 7716   6.045   3.187   4.836 -0.1889  0.2526 -0.0085
 1004poe    c31 7717   6.067   2.705   2.524 -0.1759 -0.3007 -0.2430
 1004poe     o2 7718   5.939   2.727   2.579 -0.2058 -0.6025 -0.1907
 1004poe    c23 7719   5.921   2.850   2.646 -0.2841 -0.3530 -0.6629
 1004poe    c23 7720   5.773   2.881   2.675 -0.1096  0.2269 -0.3848
 1004poe     o2 7721   5.719   2.777   2.754  0.3104  0.3924  0.1226
 1004poe    c23 7722   5.600   2.818   2.817 -0.1614 -0.2867 -0.3248
 1004poe    c23 7723   5.559   2.700   2.908 -0.6340  0.2131  0.1181
 1004poe     o2 7724   5.592   2.579   2.843  0.2506  0.1288  0.7080
 1004poe    c23 7725   5.530   2.472   2.911 -0.2499  0.0035  0.0628
 1004poe    c23 7726   5.622   2.354   2.875  0.1606  0.4101 -0.2403
 1004poe     o2 7727   5.758   2.390   2.870  0.4074 -0.5181 -0.4096
 1004poe    c31 7728   5.840   2.303   2.945 -0.0712 -0.6632 -0.0460
 1005poe    c31 7729   3.346   5.151   5.963 -0.6085 -0.2111 -0.0343
 1005poe     o2 7730   3.342   5.016   6.006 -0.4208  0.1555  1.1839
 1005poe    c23 7731   3.468   4.972   6.049  0.1052  0.3220 -0.1188
 1005poe    c23 7732   3.500   4.822   6.064 -0.0428  0.3201  0.1896
 1005poe     o2 7733   3.409   4.755   6.149 -0.2077  0.1625 -0.1107
 1005poe    c23 7734   3.436   4.617   6.156  0.2785  0.2354 -0.4909
 1005poe    c23 7735   3.328   4.539   6.234  0.6625 -0.5072 -0.6886
 1005poe     o2 7736   3.199   4.578   6.194  0.4389 -0.3475  0.1748
 1005poe    c23 7737   3.100   4.478   6.202 -0.0539  0.0875 -0.3478
 1005poe    c23 7738   2.964   4.537   6.160 -0.2713  0.2438  0.5384
 1005poe     o2 7739   2.985   4.610   6.041  0.2891  0.1577  0.5780
 1005poe    c31 7740   2.860   4.625   5.976  0.3967 -0.8326  0.1321
 1006poe    c31 7741   4.495   0.306   5.366  1.4486  0.5167 -0.2775
 1006poe     o2 7742   4.502   0.165   5.363  0.2883  0.4332  0.2865
 1006poe    c23 7743   4.367   0.133   5.385  0.3628  0.4361  0.7740
 1006poe    c23 7744   4.367  -0.015   5.428 -0.0510 -0.0659 -0.8785
 1006poe     o2 7745   4.481  -0.081   5.377  0.3669 -0.2055  0.2228
 1006poe    c23 7746   4.469  -0.219   5.403  0.5148 -0.2488  0.0624
 1006poe    c23 7747   4.605  -0.290   5.391  0.4199 -0.3336 -0.5432
 1006poe     o2 7748   4.706  -0.221   5.462 -0.0664  0.3212 -0.4802
 1006poe    c23 7749   4.830  -0.288   5.466 -0.1563  0.1853  0.0685
 1006poe    c23 7750   4.923  -0.266   5.346  0.0751 -0.0529  0.2021
 1006poe     o2 7751   4.963  -0.131   5.331  0.3572 -0.0748  0.7515
 1006poe    c31 7752   5.060  -0.102   5.233 -0.6719 -0.1777 -0.3235
 1007poe    c31 7753   4.403   1.228   6.682  1.1016  0.3715 -0.1105
 1007poe     o2 7754   4.363   1.228   6.817  0.4086 -0.4326 -0.3036
 1007poe    c23 7755   4.229   1.267   6.836  0.5207 -0.1505 -0.0808
 1007poe    c23 7756   4.162   1.241   6.973 -0.1648  0.3409 -0.3207
 1007poe     o2 7757   4.140   1.107   7.007  0.0621  0.3370 -0.1866
 1007poe    c23 7758   4.130   1.091   7.147  0.0805 -0.2722 -0.2519
 1007poe    c23 7759   4.085   0.948   7.185  0.5017 -0.5328 -0.7185
 1007poe     o2 7760   3.959   0.917   7.131 -0.2270  0.7686  0.1664
 1007poe    c23 7761   3.852   0.931   7.222 -0.0508 -0.2230  0.5418
 1007poe    c23 7762   3.734   0.966   7.129  0.3623  0.2894  0.2009
 1007poe     o2 7763   3.737   0.872   7.024  0.1735  0.4748  0.0316
 1007poe    c31 7764   3.618   0.845   6.953  0.0919  0.9058  0.0020
 1008poe    c31 7765   6.878   6.804   2.053 -0.0030  0.0935 -0.4518
 1008poe     o2 7766   6.741   6.772   2.044  0.0982 -0.4766 -0.0495
 1008poe    c23 7767   6.710   6.764   1.907 -0.1625 -0.3853  0.0041
 1008poe    c23 7768   6.559   6.748   1.880 -0.0277 -0.4040 -0.7717
 1008poe     o2 7769   6.501   6.670   1.982 -0.2361  0.0965 -0.5029
 1008poe    c23 7770   6.363   6.697   1.988 -0.2544 -0.0955 -0.0243
 1008poe    c23 7771   6.316   6.651   2.127  0.2236 -0.3360  0.0573
 1008poe     o2 7772   6.409   6.713   2.214 -0.3980 -0.2925  0.7016
 1008poe    c23 7773   6.389   6.846   2.256  0.0638  0.0583 -0.1733
 1008poe    c23 7774   6.479   6.882   2.376  0.0535  0.1084 -0.1799
 1008poe     o2 7775   6.611   6.842   2.345  0.0189 -0.1306 -0.0271
 1008poe    c31 7776   6.704   6.866   2.447  0.6433  0.1316 -0.6487
 1009poe    c31 7777   4.640   6.484   1.688 -0.5394  0.3710  0.3580
 1009poe     o2 7778   4.600   6.536   1.563 -0.0243 -0.0451  0.0140
 1009poe    c23 7779   4.556   6.670   1.569 -0.2470 -0.1392  0.4764
 1009poe    c23 7780   4.640   6.767   1.484 -0.2872 -0.5997 -0.0863
 1009poe     o2 7781   4.614   6.745   1.347 -0.3879 -0.1657 -0.1353
 1009poe    c23 7782   4.664   6.843   1.258  0.5167 -0.3147  0.2029
 1009poe    c23 7783   4.774   6.777   1.173  0.4499 -0.2180  0.0412
 1009poe     o2 7784   4.710   6.668   1.111  0.1436  0.0183 -0.0610
 1009poe    c23 7785   4.802   6.611   1.021 -0.1463  0.2059 -0.4774
 1009poe    c23 7786   4.731   6.502   0.938 -0.0680 -0.0277 -0.2350
 1009poe     o2 7787   4.659   6.442   1.043  0.6291 -0.3073  0.0949
 1009poe    c31 7788   4.594   6.323   1.004 -0.2719  0.1503  0.1627
 1010poe    c31 7789   6.290   1.798   0.002  1.0325  0.1560  0.1191
 1010poe     o2 7790   6.305   1.768   0.139  0.0976 -0.1472  0.1596
 1010poe    c23 7791   6.294   1.885   0.216 -0.4358 -0.0755 -0.0192
 1010poe    c23 7792   6.317   1.853   0.365 -0.3866 -0.0350 -0.0179
 1010poe     o2 7793   6.442   1.789   0.376 -0.3746 -0.0209 -0.0752
 1010poe    c23 7794   6.461   1.734   0.505  0.4629 -0.1327 -0.2405
 1010poe    c23 7795   6.564   1.619   0.500 -0.0581 -0.6136  0.1033
 1010poe     o2 7796   6.550   1.554   0.376 -0.0558 -0.3366 -0.0428
 1010poe    c23 7797   6.635   1.442   0.389  0.0758 -0.2193  0.1165
 1010poe    c23 7798   6.606   1.340   0.278 -0.1151  0.0379 -0.0724
 1010poe     o2 7799   6.701   1.238   0.302 -0.1963  0.1346  0.6793
 1010poe    c31 7800   6.661   1.118   0.240 -0.3024  0.4193  0.1834
 1011poe    c31 7801   1.312   5.678   2.682 -0.0061 -0.3108 -0.0782
 1011poe     o2 7802   1.432   5.614   2.719 -0.0209 -0.1841  0.1884
 1011poe    c23 7803   1.525   5.716   2.749  0.1848 -0.1445 -0.5562
 1011poe    c23 7804   1.647   5.655   2.822 -0.1417 -0.6137 -0.3981
 1011poe     o2 7805   1.705   5.548   2.751  0.5826 -0.1549 -0.4984
 1011poe    c23 7806   1.808   5.482   2.821  0.3855  0.0637  0.0020
 1011poe    c23 7807   1.886   5.393   2.723  0.7141 -0.3812  0.6565
 1011poe     o2 7808   1.795   5.299   2.669 -0.0595  0.5677  0.2674
 1011poe    c23 7809   1.870   5.210   2.588 -0.0978  0.8208 -0.0458
 1011poe    c23 7810   1.768   5.112   2.527  0.5663  0.4256 -0.5377
 1011poe     o2 7811   1.659   5.192   2.487  0.1657  0.1058 -0.1100
 1011poe    c31 7812   1.544   5.117   2.459  0.1476  0.1067 -0.0388
 1012poe    c31 7813   6.902   2.252   2.260  0.2899 -0.5201  0.6187
 1012poe     o2 7814   6.900   2.387   2.300  0.3563 -0.4022  0.2286
 1012poe    c23 7815   6.765   2.424   2.315  0.5962  0.2921  0.7386
 1012poe    c23 7816   6.760   2.574   2.279 -0.1400 -0.0108 -0.4954
 1012poe     o2 7817   6.880   2.635   2.322 -0.2030 -0.4774  0.3660
 1012poe    c23 7818   6.889   2.762   2.263  0.6291 -0.5522  0.3235
 1012poe    c23 7819   7.026   2.811   2.313  0.3105  0.6164  0.0802
 1012poe     o2 7820   7.109   2.698   2.296 -0.3848  0.2199 -0.7307
 1012poe    c23 7821   7.247   2.718   2.314 -0.3624  0.0974 -0.7664
 1012poe    c23 7822   7.296   2.574   2.292  0.0666  0.1087  0.0412
 1012poe     o2 7823   7.198   2.499   2.360  0.0589  0.6542  0.6364
 1012poe    c31 7824   7.230   2.365   2.329  0.2976  0.6552  0.8809
 1013poe    c31 7825   2.949   4.995   5.601  0.9566  0.0039  0.1385
 1013poe     o2 7826   2.910   4.867   5.555  0.0277  0.2646  0.1909
 1013poe    c23 7827   2.773   4.839   5.570 -0.0245  0.4116 -0.0141
 1013poe    c23 7828   2.725   4.740   5.463 -0.4383 -0.0832  0.6164
 1013poe     o2 7829   2.811   4.630   5.478  0.1580  0.2306 -0.3809
 1013poe    c23 7830   2.772   4.524   5.394 -0.0142  0.1024 -0.1403
 1013poe    c23 7831   2.880   4.416   5.413 -0.5974 -0.4658 -0.0347
 1013poe     o2 7832   3.000   4.490   5.416 -0.6725 -0.3237 -0.5649
 1013poe    c23 7833   3.067   4.516   5.294  0.4163 -0.0903  0.0696
 1013poe    c23 7834   3.184   4.607   5.334  0.4439 -0.2038  0.2463
 1013poe     o2 7835   3.138   4.729   5.386 -0.0056 -0.2544 -0.0304
 1013poe    c31 7836   3.232   4.833   5.400 -0.0708 -0.2540  0.4270
 1014poe    c31 7837   2.877   1.300   4.002  0.1836  0.5721 -0.3506
 1014poe     o2 7838   2.989   1.243   3.939  0.4080  0.1537  0.4220
 1014poe    c23 7839   3.085   1.339   3.901 -0.6510  0.8533 -0.5382
 1014poe    c23 7840   3.199   1.292   3.809 -0.6458 -0.1235 -0.0524
 1014poe     o2 7841   3.176   1.305   3.670 -0.1185 -0.7607 -0.2049
 1014poe    c23 7842   3.285   1.266   3.589 -0.1311 -0.2539 -0.4725
 1014poe    c23 7843   3.329   1.119   3.605 -0.1236 -0.2661 -0.6091
 1014poe     o2 7844   3.222   1.037   3.562 -0.2228 -0.2644 -0.3680
 1014poe    c23 7845   3.283   0.915   3.526  0.2120 -0.1940  0.1266
 1014poe    c23 7846   3.170   0.831   3.463  0.1753 -0.0018 -0.0651
 1014poe     o2 7847   3.045   0.857   3.523  0.0982 -0.5854  0.0282
 1014poe    c31 7848   2.948   0.772   3.466 -0.5107  0.0662  0.0836
 1015poe    c31 7849   1.815   6.514   0.924  0.5361  0.5488  0.2668
 1015poe     o2 7850   1.720   6.492   1.026  0.3313 -0.3827 -0.1142
 1015poe    c23 7851   1.618   6.405   0.981 -0.5598  0.8804 -0.5861
 1015poe    c23 7852   1.510   6.380   1.087 -0.0058  0.3860 -0.1303
 1015poe     o2 7853   1.422   6.491   1.086  0.2256  0.5801  0.3996
 1015poe    c23 7854   1.363   6.475   1.213 -0.2998  0.1541  0.1082
 1015poe    c23 7855   1.234   6.557   1.190 -0.1049  0.5458  0.4071
 1015poe     o2 7856   1.272   6.687   1.148 -0.0557  0.3975 -0.0059
 1015poe    c23 7857   1.173   6.782   1.179 -0.6048 -0.2131  0.1536
 1015poe    c23 7858   1.221   6.928   1.164  0.0697 -0.3677  0.7662
 1015poe     o2 7859   1.326   6.930   1.069 -0.3897 -0.0778  0.2578
 1015poe    c31 7860   1.387   7.056   1.055  0.1854 -0.4321 -0.4353
 1016poe    c31 7861   1.880   6.332   0.521 -0.2491  0.2563 -0.2472
 1016poe     o2 7862   1.893   6.225   0.611  0.2573  0.3926 -0.1557
 1016poe    c23 7863   1.865   6.106   0.540  0.0700  0.1522  0.3159
 1016poe    c23 7864   1.841   5.997   0.646 -0.6411  0.4922  0.5143
 1016poe     o2 7865   1.967   5.984   0.708 -0.3284 -0.2799 -0.2720
 1016poe    c23 7866   1.957   5.915   0.831 -0.5334 -0.1493 -0.2173
 1016poe    c23 7867   2.073   5.974   0.913 -0.4339  0.0862 -0.5268
 1016poe     o2 7868   2.050   6.113   0.918 -0.4466  0.0604  0.2760
 1016poe    c23 7869   2.137   6.194   0.992 -0.5388  0.4888 -0.0816
 1016poe    c23 7870   2.169   6.330   0.926  1.0487  0.1919  0.0278
 1016poe     o2 7871   2.152   6.314   0.787 -0.0733  0.0341  0.1694
 1016poe    c31 7872   2.207   6.420   0.712 -0.6533 -0.2059 -0.6086
 1017poe    c31 7873   2.169   6.241   0.215 -0.0527 -0.2325 -0.0660
 1017poe     o2 7874   2.158   6.335   0.110  0.1446  0.2378  0.3311
 1017poe    c23 7875   2.046   6.419   0.129  0.1751  0.4021 -0.2026
 1017poe    c23 7876   1.990   6.472  -0.004 -0.2339 -0.2487 -0.2984
 1017poe     o2 7877   2.090   6.512  -0.096  0.0425 -0.3887 -0.0607
 1017poe    c23 7878   2.149   6.638  -0.074  0.1317 -0.4323 -0.0485
 1017poe    c23 7879   2.303   6.635  -0.077  0.1613  0.2581  0.5249
 1017poe     o2 7880   2.355   6.524  -0.007 -0.1047  0.0664  0.4217
 1017poe    c23 7881   2.494   6.545  -0.001 -0.0952  0.1973 -0.1656
 1017poe    c23 7882   2.550   6.451   0.107 -0.4754  0.2788  0.1032
 1017poe     o2 7883   2.477   6.332   0.089  0.5283 -0.3488  0.0821
 1017poe    c31 7884   2.525   6.223   0.165 -0.3297 -0.1041  0.9998
 1018poe    c31 7885   1.971   1.318   1.500  0.0175 -0.0287  0.1689
 1018poe     o2 7886   1.970   1.295   1.639 -0.4751 -0.0267  0.1678
 1018poe    c23 7887   1.915   1.397   1.719 -0.1679  0.6699 -0.5039
 1018poe    c23 7888   2.011   1.511   1.758  0.5582  0.0996 -0.5917
 1018poe     o2 7889   2.121   1.450   1.821  0.1798 -0.1976 -0.2156
 1018poe    c23 7890   2.224   1.539   1.859  0.0806 -0.1627 -0.0268
 1018poe    c23 7891   2.338   1.477   1.942  0.3320 -0.2068 -0.4000
 1018poe     o2 7892   2.381   1.353   1.890  0.2427 -0.3457 -0.1498
 1018poe    c23 7893   2.498   1.312   1.956 -0.1078 -0.0164  0.6851
 1018poe    c23 7894   2.561   1.196   1.878  0.0122 -0.0115  0.7738
 1018poe     o2 7895   2.470   1.093   1.846  0.2693 -0.0536  0.1481
 1018poe    c31 7896   2.528   1.012   1.747 -0.3048  0.9793 -1.0568
 1019poe    c31 7897   5.323   1.797   1.854  0.0143  0.4410 -0.1894
 1019poe     o2 7898   5.294   1.678   1.785  0.0668 -0.0047  0.5415
 1019poe    c23 7899   5.153   1.667   1.778  0.1079 -0.6420  0.6316
 1019poe    c23 7900   5.100   1.554   1.688 -0.0877  0.1965 -0.3215
 1019poe     o2 7901   5.127   1.426   1.741 -0.0755  0.1389 -0.4666
 1019poe    c23 7902   5.088   1.307   1.677 -0.0848  0.0172 -0.2359
 1019poe    c23 7903   5.116   1.185   1.768  0.0738  0.2830  0.0719
 1019poe     o2 7904   5.255   1.176   1.786  0.0029 -0.6732  0.1721
 1019poe    c23 7905   5.301   1.047   1.819 -0.0468 -0.7244  0.0425
 1019poe    c23 7906   5.453   1.071   1.835 -0.1689  0.7316 -0.7873
 1019poe     o2 7907   5.481   1.154   1.945 -0.0316  0.1611 -0.3876
 1019poe    c31 7908   5.614   1.142   1.989 -0.2450 -0.1185  0.2000
 1020poe    c31 7909   4.291   6.186   2.004 -0.2849  0.1938 -0.5001
 1020poe     o2 7910   4.257   6.049   2.010 -0.0634  0.1449 -0.3441
 1020poe    c23 7911   4.163   6.019   1.909 -0.2671 -0.2512 -0.0439
 1020poe    c23 7912   4.120   5.872   1.924  0.3464 -0.3994  0.3064
 1020poe     o2 7913   4.080   5.831   2.053 -0.3981 -0.2033  0.1438
 1020poe    c23 7914   4.056   5.693   2.058 -0.5640 -0.1853 -0.0994
 1020poe    c23 7915   4.072   5.654   2.207  0.4506  0.0673 -0.1320
 1020poe     o2 7916   4.173   5.738   2.258  0.0262  0.3284  0.2770
 1020poe    c23 7917   4.218   5.708   2.388 -0.0251 -0.5082  0.1084
 1020poe    c23 7918   4.325   5.817   2.412 -0.1106 -0.2024 -0.8413
 1020poe     o2 7919   4.273   5.933   2.352 -0.1036  0.1827 -0.1155
 1020poe    c31 7920   4.352   6.045   2.386  0.6593 -0.2353 -0.4715
 1021poe    c31 7921   3.507   4.286   6.580 -0.1579  0.1215 -0.0167
 1021poe     o2 7922   3.553   4.164   6.636  0.3076  0.1337 -0.3660
 1021poe    c23 7923   3.531   4.161   6.775 -0.0088 -0.2173 -0.4240
 1021poe    c23 7924   3.531   4.014   6.819  0.6839 -0.0006  0.3192
 1021poe     o2 7925   3.615   3.945   6.730 -0.0785 -0.4950 -0.0320
 1021poe    c23 7926   3.599   3.807   6.751 -0.0770 -0.4572  0.2217
 1021poe    c23 7927   3.713   3.751   6.663  0.1766  0.0377  0.2354
 1021poe     o2 7928   3.710   3.834   6.549 -0.3437  0.2891  0.4303
 1021poe    c23 7929   3.831   3.832   6.478 -0.7185 -0.0493 -0.2110
 1021poe    c23 7930   3.804   3.944   6.376 -0.7745  0.0040 -0.1374
 1021poe     o2 7931   3.749   4.060   6.435 -0.1020  0.1492  0.2067
 1021poe    c31 7932   3.769   4.167   6.346  0.3650 -0.6349 -0.6524
 1022poe    c31 7933   1.123   2.188   4.721  0.1971  0.8346  0.0937
 1022poe     o2 7934   1.129   2.129   4.593 -0.7634 -0.1276  0.4793
 1022poe    c23 7935   1.128   1.990   4.616  0.4932 -0.1682  0.3536
 1022poe    c23 7936   1.117   1.903   4.489  0.2760 -0.2482  0.4267
 1022poe     o2 7937   0.992   1.884   4.426  0.4678 -0.2042  0.0319
 1022poe    c23 7938   0.991   1.795   4.317  0.2967  0.1154 -0.2289
 1022poe    c23 7939   1.029   1.857   4.181  0.4163  0.1810 -0.1660
 1022poe     o2 7940   0.940   1.962   4.149  0.0854 -0.0300  0.0555
 1022poe    c23 7941   0.961   2.001   4.015  0.1623 -0.8450 -0.1720
 1022poe    c23 7942   0.855   2.105   3.976  0.0589 -0.6253  0.6754
 1022poe     o2 7943   0.812   2.172   4.092  0.0095  0.3396  0.1165
 1022poe    c31 7944   0.706   2.256   4.052  0.0892  0.0004 -0.8103
 1023poe    c31 7945   2.886   1.397   6.606 -0.1148 -0.3059 -0.1124
 1023poe     o2 7946   2.955   1.275   6.585 -0.2111 -0.4113  0.1797
 1023poe    c23 7947   3.095   1.280   6.570 -0.3225  0.2245 -0.7091
 1023poe    c23 7948   3.168   1.145   6.558 -0.1667  0.2500 -0.0905
 1023poe     o2 7949   3.159   1.071   6.677  0.1477  0.1797 -0.1106
 1023poe    c23 7950   3.257   0.970   6.690  0.0081  0.1124  0.4852
 1023poe    c23 7951   3.252   0.881   6.815  0.3657 -0.4830  0.0830
 1023poe     o2 7952   3.125   0.823   6.830  0.2399 -0.2633 -0.1209
 1023poe    c23 7953   3.106   0.790   6.966 -0.4505 -0.9141 -0.3638
 1023poe    c23 7954   2.955   0.767   6.980 -0.4563 -0.4486  0.4445
 1023poe     o2 7955   2.887   0.874   6.917 -0.0931 -0.5230 -0.0820
 1023poe    c31 7956   2.758   0.864   6.973  0.0030 -0.4216  0.1607
 1024poe    c31 7957   2.493   5.434   4.084 -0.5421  0.5739  0.3237
 1024poe     o2 7958   2.369   5.497   4.109 -0.6373  0.5087  0.0187
 1024poe    c23 7959   2.403   5.607   4.191  0.0494  0.1614  0.2067
 1024poe    c23 7960   2.279   5.698   4.188 -0.1688 -0.1329  0.2200
 1024poe     o2 7961   2.173   5.607   4.207  0.0530 -0.4163  0.1047
 1024poe    c23 7962   2.049   5.674   4.214 -0.1706 -0.6651 -1.1627
 1024poe    c23 7963   1.956   5.582   4.295  0.3403 -0.1966 -0.0173
 1024poe     o2 7964   1.978   5.450   4.252  0.7348 -0.1299 -0.0241
 1024poe    c23 7965   1.864   5.368   4.269  0.6863 -0.0326  0.1241
 1024poe    c23 7966   1.897   5.219   4.252 -0.3172 -0.2617  0.1536
 1024poe     o2 7967   1.938   5.187   4.121  0.0886  0.1024  0.1928
 1024poe    c31 7968   1.954   5.047   4.120 -0.9077 -0.0151 -0.1432
 1025poe    c31 7969   0.521   3.139   4.065 -0.0318  0.1229 -0.0183
 1025poe     o2 7970   0.579   3.043   3.980  0.1171  0.0559  0.1576
 1025poe    c23 7971   0.658   2.970   4.071 -0.0391  0.2734  0.4687
 1025poe    c23 7972   0.691   2.828   4.021  0.1061  0.5829 -0.3239
 1025poe     o2 7973   0.714   2.853   3.884 -0.0501  0.1372 -0.4336
 1025poe    c23 7974   0.730   2.729   3.819 -0.0245 -0.2329  0.2682
 1025poe    c23 7975   0.668   2.745   3.679  0.2186  0.0144  0.1887
 1025poe     o2 7976   0.565   2.841   3.694  0.2823  0.0485  0.4088
 1025poe    c23 7977   0.482   2.874   3.585 -0.7842 -0.8350  0.9316
 1025poe    c23 7978   0.382   2.981   3.632 -0.2353  0.1338 -0.0629
 1025poe     o2 7979   0.447   3.074   3.715  0.4205 -0.0343 -0.3776
 1025poe    c31 7980   0.369   3.192   3.709  0.1759 -0.1727  0.0524
 1026poe    c31 7981   5.917   4.535   0.861  0.0144 -0.6058  0.6247
 1026poe     o2 7982   5.991   4.545   0.741 -0.3710  0.0458  0.4380
 1026poe    c23 7983   6.088   4.640   0.778  0.0190 -0.1241 -0.1379
 1026poe    c23 7984   6.188   4.682   0.669  0.0932  0.0225 -0.0146
 1026poe     o2 7985   6.110   4.691   0.552 -0.0948 -0.0310  0.1060
 1026poe    c23 7986   6.195   4.700   0.440 -0.3649  0.2874 -0.0771
 1026poe    c23 7987   6.127   4.665   0.306 -0.1888  0.3832 -0.1919
 1026poe     o2 7988   6.038   4.562   0.343 -0.1035  0.2602 -0.3296
 1026poe    c23 7989   5.961   4.517   0.234 -0.4152  0.5540 -0.2320
 1026poe    c23 7990   5.836   4.430   0.257 -0.1243  0.3275  0.5082
 1026poe     o2 7991   5.861   4.307   0.320  0.1322  0.2300  0.2147
 1026poe    c31 7992   5.909   4.207   0.233  0.1225 -0.0476  0.5238
 1027poe    c31 7993   3.405   4.316   3.049  0.2856 -0.5080 -0.1645
 1027poe     o2 7994   3.287   4.391   3.032  0.2517 -0.4504  0.3281
 1027poe    c23 7995   3.269   4.408   2.893  0.3143  0.0589  0.3795
 1027poe    c23 7996   3.170   4.520   2.858  0.6217  0.2763  0.2031
 1027poe     o2 7997   3.068   4.506   2.954  0.9087  0.6419  0.5648
 1027poe    c23 7998   2.971   4.608   2.942  0.1615 -0.2069 -0.9155
 1027poe    c23 7999   2.874   4.581   3.057  0.6785 -0.0280 -0.4328
 1027poe     o2 8000   2.949   4.592   3.176  0.2650  0.3004 -0.2009
 1027poe    c23 8001   2.879   4.683   3.258  0.1621  0.1413 -0.1136
 1027poe    c23 8002   2.944   4.734   3.388  0.4032  0.1179 -0.2254
 1027poe     o2 8003   3.066   4.798   3.356  0.6434 -0.1037  0.2322
 1027poe    c31 8004   3.136   4.845   3.469  0.1914 -0.3749  0.6269
 1028poe    c31 8005   0.113   0.204   6.721  0.2203  0.1411 -0.1858
 1028poe     o2 8006   0.118   0.251   6.854 -0.2350 -0.1470 -0.0621
 1028poe    c23 8007   0.176   0.152   6.936 -1.2572 -0.5596  0.1760
 1028poe    c23 8008   0.172   0.193   7.084 -0.6565  0.2157 -0.0151
 1028poe     o2 8009   0.222   0.314   7.138 -0.4290 -0.2020  0.7285
 1028poe    c23 8010   0.349   0.304   7.197 -0.0147  0.1069 -0.0972
 1028poe    c23 8011   0.401   0.437   7.255  0.3665 -0.1591  0.1806
 1028poe     o2 8012   0.382   0.549   7.170 -0.0230  0.0011  0.4766
 1028poe    c23 8013   0.414   0.677   7.219  0.0676  0.0939  0.1753
 1028poe    c23 8014   0.498   0.758   7.119 -0.1302  0.6013  0.4154
 1028poe     o2 8015   0.443   0.730   6.993  0.3625 -0.6961  0.4699
 1028poe    c31 8016   0.509   0.800   6.890  0.4056 -0.5986  0.5647
 1029poe    c31 8017   6.824   5.888   2.480 -0.0480  0.1526  0.3625
 1029poe     o2 8018   6.830   5.924   2.343  0.0852  0.5104  0.4612
 1029poe    c23 8019   6.950   5.996   2.324  0.2589  0.1404  0.1469
 1029poe    c23 8020   6.966   6.019   2.173 -0.2172  0.0711  0.0848
 1029poe     o2 8021   6.834   6.063   2.150 -0.2327  0.1010  0.2275
 1029poe    c23 8022   6.803   6.084   2.014 -0.1189  0.0698  0.1963
 1029poe    c23 8023   6.705   5.981   1.953  0.1590 -0.4080  0.5446
 1029poe     o2 8024   6.625   5.943   2.062 -0.8783  0.3723  0.0779
 1029poe    c23 8025   6.554   5.822   2.045  0.0308 -0.1899  0.2055
 1029poe    c23 8026   6.479   5.800   2.178  0.0188  0.3340  0.2868
 1029poe     o2 8027   6.574   5.829   2.277 -0.2201  1.1994  0.2732
 1029poe    c31 8028   6.517   5.788   2.399  0.0486 -0.3623 -0.1073
 1030poe    c31 8029   5.113   1.903   5.235  1.2828  0.3676 -0.4205
 1030poe     o2 8030   5.032   1.932   5.123  0.0925 -0.7333  0.1350
 1030poe    c23 8031   4.942   1.826   5.102 -0.1316 -0.5366  0.0977
 1030poe    c23 8032   4.852   1.868   4.984 -0.0153 -0.7229 -0.0583
 1030poe     o2 8033   4.944   1.913   4.887  0.1371 -0.8092  0.0467
 1030poe    c23 8034   4.870   1.938   4.770  0.3514  0.3826  0.1501
 1030poe    c23 8035   4.970   1.962   4.656  0.0771  0.0028 -0.1749
 1030poe     o2 8036   5.071   2.038   4.720 -0.6841  0.7760  0.1271
 1030poe    c23 8037   5.164   2.093   4.630  0.1530 -0.2161  0.3656
 1030poe    c23 8038   5.272   2.189   4.682  0.1153 -0.0835  0.1991
 1030poe     o2 8039   5.217   2.290   4.764 -0.0586 -0.0890  0.0895
 1030poe    c31 8040   5.316   2.372   4.821 -0.3170 -0.3589  0.9545
 1031poe    c31 8041   3.833   2.942   0.303 -0.1971  0.8316  0.0071
 1031poe     o2 8042   3.967   2.957   0.260  0.0976 -0.1135  0.5711
 1031poe    c23 8043   3.983   2.945   0.121  0.2419 -0.9096  0.6494
 1031poe    c23 8044   4.127   2.930   0.069  0.0143  0.2992 -0.4069
 1031poe     o2 8045   4.189   2.807   0.100 -0.7570  0.0315  0.0951
 1031poe    c23 8046   4.325   2.804   0.063 -0.5800 -0.1440  0.7362
 1031poe    c23 8047   4.367   2.657   0.082  0.3558  0.0008 -0.0961
 1031poe     o2 8048   4.316   2.576  -0.022 -0.2417  0.1791  0.0556
 1031poe    c23 8049   4.388   2.576  -0.143  0.0846  0.4602  0.2478
 1031poe    c23 8050   4.349   2.447  -0.217 -0.0962  0.4254  0.4022
 1031poe     o2 8051   4.209   2.456  -0.219 -0.1198 -0.0386 -0.6008
 1031poe    c31 8052   4.156   2.374  -0.321 -0.3409 -0.4807 -0.1285
 1032poe    c31 8053   1.878   6.107   6.635 -0.4747  0.7013 -0.2905
 1032poe     o2 8054   1.880   6.072   6.498  0.1486  0.2064 -0.1649
 1032poe    c23 8055   1.976   5.972   6.476 -0.1189 -0.1327  0.1998
 1032poe    c23 8056   1.923   5.890   6.356  0.1796  0.3907 -0.2965
 1032poe     o2 8057   1.954   5.958   6.237 -0.0232  0.7815 -0.1302
 1032poe    c23 8058   1.923   5.892   6.116  0.0964  0.3366  0.0768
 1032poe    c23 8059   1.988   5.975   6.003  0.1660  0.2935  0.0850
 1032poe     o2 8060   1.935   6.105   6.010 -0.9456 -0.1481  0.0686
 1032poe    c23 8061   1.971   6.180   5.896  0.8700 -0.2618  0.5418
 1032poe    c23 8062   1.926   6.323   5.929  0.7297 -0.2164  0.1593
 1032poe     o2 8063   1.980   6.367   6.051  0.0099  0.1841  0.3404
 1032poe    c31 8064   1.943   6.499   6.086  0.2039  0.4099 -0.2931
 1033poe    c31 8065   4.366   2.661   5.957 -0.6789  0.4254  0.3268
 1033poe     o2 8066   4.284   2.618   5.851  0.1590 -0.3667 -0.0156
 1033poe    c23 8067   4.317   2.483   5.829 -0.1081 -0.4266 -0.0552
 1033poe    c23 8068   4.220   2.389   5.756 -0.4346  0.2975 -0.5597
 1033poe     o2 8069   4.252   2.252   5.771  0.0934  0.4543 -0.2345
 1033poe    c23 8070   4.163   2.180   5.688  0.0322  0.1658  0.0788
 1033poe    c23 8071   4.187   2.031   5.718  0.1896  0.0239 -0.7065
 1033poe     o2 8072   4.157   2.012   5.855  0.0665  0.1297 -0.7180
 1033poe    c23 8073   4.183   1.878   5.893  0.0516  0.3375  0.0478
 1033poe    c23 8074   4.150   1.870   6.043 -0.1112  0.1248 -0.0004
 1033poe     o2 8075   4.185   1.992   6.103  0.0621  0.0256  0.1002
 1033poe    c31 8076   4.171   1.969   6.242 -0.9913 -0.8376 -0.1416
 1034poe    c31 8077   5.269   3.685   4.411 -0.2649  0.5462 -0.2299
 1034poe     o2 8078   5.216   3.717   4.285 -0.2377  0.2895 -0.3085
 1034poe    c23 8079   5.079   3.741   4.303 -0.1238  1.0754 -0.4461
 1034poe    c23 8080   5.028   3.765   4.160 -0.1833  0.4162 -0.5369
 1034poe     o2 8081   5.139   3.796   4.079  0.0910  0.2513 -0.2239
 1034poe    c23 8082   5.125   3.868   3.959  0.2537 -0.2399 -0.5434
 1034poe    c23 8083   5.264   3.863   3.892  0.5837 -0.1021  0.1187
 1034poe     o2 8084   5.322   3.740   3.927 -0.6594 -0.7859 -0.1787
 1034poe    c23 8085   5.395   3.685   3.819  0.5683  0.1553  0.1532
 1034poe    c23 8086   5.496   3.580   3.867  0.1907  0.0616  0.7638
 1034poe     o2 8087   5.431   3.468   3.923 -0.4563 -0.0991 -0.2695
 1034poe    c31 8088   5.495   3.343   3.919 -0.0960  0.0754 -0.0366
 1035poe    c31 8089   5.267   2.473   5.853  0.1178 -0.2817 -0.3092
 1035poe     o2 8090   5.184   2.523   5.955 -0.3402  0.5692 -1.0857
 1035poe    c23 8091   5.268   2.593   6.043 -0.3207  0.0696 -0.7016
 1035poe    c23 8092   5.195   2.609   6.177  0.2935  0.1902 -0.3775
 1035poe     o2 8093   5.131   2.491   6.220  0.5905  0.1701  0.0153
 1035poe    c23 8094   5.152   2.466   6.357  0.6255  0.0719 -0.0085
 1035poe    c23 8095   5.081   2.343   6.417  0.1241 -0.0380 -0.8124
 1035poe     o2 8096   5.110   2.235   6.333  0.2068 -0.0919 -0.7144
 1035poe    c23 8097   5.026   2.125   6.360 -0.1608  0.3203 -0.1943
 1035poe    c23 8098   5.042   2.017   6.252 -0.6658 -0.2708  0.3149
 1035poe     o2 8099   4.983   2.058   6.131 -0.8857  0.0637  0.5321
 1035poe    c31 8100   4.966   1.944   6.049 -0.3703  0.3040  0.0906
 1036poe    c31 8101   0.259   3.254   1.496  0.6235 -0.4504 -0.5224
 1036poe     o2 8102   0.209   3.170   1.393 -0.2280 -0.0906 -0.4058
 1036poe    c23 8103   0.280   3.050   1.417 -0.4842 -0.1086  0.3086
 1036poe    c23 8104   0.255   2.957   1.297 -0.0784 -0.2845  0.3593
 1036poe     o2 8105   0.117   2.930   1.284 -0.0743 -0.1284 -0.0250
 1036poe    c23 8106   0.087   2.889   1.152 -0.2314 -0.0022 -0.0288
 1036poe    c23 8107  -0.061   2.851   1.159 -0.1583 -0.3088 -0.1751
 1036poe     o2 8108  -0.133   2.943   1.238 -0.2423 -1.0940  0.6805
 1036poe    c23 8109  -0.268   2.920   1.206 -0.2483 -0.2187  0.0438
 1036poe    c23 8110  -0.371   2.995   1.293  0.2461  0.2856  0.1977
 1036poe     o2 8111  -0.389   2.912   1.406  0.0928  0.0595  0.0081
 1036poe    c31 8112  -0.512   2.949   1.465  0.3367  0.2098  0.4235
 1037poe    c31 8113   0.650   5.445   1.477 -0.3047  0.9129  0.6896
 1037poe     o2 8114   0.628   5.525   1.363  0.2330 -0.2951 -0.2799
 1037poe    c23 8115   0.605   5.656   1.410  0.3543 -0.1474 -0.6271
 1037poe    c23 8116   0.637   5.764   1.306  0.0388  0.4785 -0.0875
 1037poe     o2 8117   0.762   5.738   1.246  0.5099 -0.0530  1.0908
 1037poe    c23 8118   0.823   5.850   1.186 -0.9919 -0.1221 -0.6452
 1037poe    c23 8119   0.940   5.804   1.097 -0.4108  0.2801 -0.0987
 1037poe     o2 8120   0.898   5.686   1.032  0.3499 -0.0452 -0.0108
 1037poe    c23 8121   1.012   5.635   0.965  0.0246 -0.0698 -0.5501
 1037poe    c23 8122   0.967   5.535   0.856 -0.5254  0.0871 -0.4718
 1037poe     o2 8123   0.872   5.448   0.913  0.0710 -0.2328  0.0523
 1037poe    c31 8124   0.829   5.341   0.831 -0.6094  0.1577 -0.1078
 1038poe    c31 8125   0.396   2.224   6.259  0.3892 -0.1215  0.1116
 1038poe     o2 8126   0.356   2.253   6.391  0.1584 -0.2695  0.0746
 1038poe    c23 8127   0.376   2.392   6.398 -0.7822 -0.1021 -0.3739
 1038poe    c23 8128   0.329   2.441   6.536  0.2391  0.0786 -0.0768
 1038poe     o2 8129   0.204   2.375   6.544  0.2853  0.0288  0.2691
 1038poe    c23 8130   0.118   2.405   6.651  0.8136  0.7153  0.5069
 1038poe    c23 8131   0.130   2.288   6.750 -0.2596  0.0824 -0.0917
 1038poe     o2 8132   0.124   2.177   6.663 -0.0316  0.0871 -0.1131
 1038poe    c23 8133   0.181   2.069   6.734  0.0669  0.0644 -0.2251
 1038poe    c23 8134   0.203   1.962   6.625 -0.1631 -0.0099 -0.1990
 1038poe     o2 8135   0.286   2.014   6.524  0.0930  0.1613  0.0961
 1038poe    c31 8136   0.407   1.941   6.515  0.0615  0.0936  0.2214
 1039poe    c31 8137   2.355   5.228   0.983  0.2236 -0.0607  0.2285
 1039poe     o2 8138   2.246   5.315   0.994  0.1355 -0.1834  0.3287
 1039poe    c23 8139   2.300   5.426   1.062  0.2447 -0.0299 -0.0083
 1039poe    c23 8140   2.201   5.538   1.023  0.2562  0.2558  0.7623
 1039poe     o2 8141   2.077   5.519   1.087 -0.1945 -0.2607 -0.2324
 1039poe    c23 8142   1.977   5.602   1.032  0.1136  0.0159 -0.3793
 1039poe    c23 8143   1.851   5.605   1.120  0.3405 -0.5561 -0.0282
 1039poe     o2 8144   1.831   5.470   1.157 -0.0284 -0.5070 -0.0536
 1039poe    c23 8145   1.711   5.444   1.227 -0.0879 -0.8490 -0.2810
 1039poe    c23 8146   1.677   5.298   1.192 -0.9161 -0.6909 -0.1681
 1039poe     o2 8147   1.803   5.237   1.180 -0.0593  0.9058  0.3430
 1039poe    c31 8148   1.789   5.103   1.223  0.5360  0.5253 -0.6141
 1040poe    c31 8149   6.764   2.584   3.086 -0.1531  0.1835  1.2451
 1040poe     o2 8150   6.733   2.484   3.181 -0.6777 -0.6772  0.1989
 1040poe    c23 8151   6.779   2.359   3.136 -0.0281 -0.1556 -0.6058
 1040poe    c23 8152   6.750   2.261   3.251  0.0366  0.0303 -0.4312
 1040poe     o2 8153   6.612   2.242   3.272  0.0600  0.2714 -0.0425
 1040poe    c23 8154   6.582   2.123   3.341  0.3919  0.4874  0.4850
 1040poe    c23 8155   6.429   2.108   3.359  0.3627  0.5122  0.2563
 1040poe     o2 8156   6.367   2.228   3.398 -0.1006  0.2864  0.2133
 1040poe    c23 8157   6.226   2.219   3.400 -0.0958  0.1514  0.0216
 1040poe    c23 8158   6.165   2.351   3.452 -0.1596 -0.2008  0.8588
 1040poe     o2 8159   6.244   2.464   3.427 -0.3249 -0.3643 -0.5114
 1040poe    c31 8160   6.169   2.578   3.462 -0.3770 -0.6711  0.4015
 1041poe    c31 8161   6.863   5.275   6.585 -0.0060 -0.5388 -0.2115
 1041poe     o2 8162   6.808   5.352   6.480  0.4073  0.2962  0.1741
 1041poe    c23 8163   6.778   5.482   6.527  0.2584  0.1266  0.5548
 1041poe    c23 8164   6.691   5.547   6.418 -0.1549 -0.6152  0.4351
 1041poe     o2 8165   6.748   5.510   6.295  0.4507  0.7794  0.2850
 1041poe    c23 8166   6.718   5.600   6.190  0.6205  0.0257 -0.4218
 1041poe    c23 8167   6.788   5.550   6.063 -0.1703 -0.4827 -0.6608
 1041poe     o2 8168   6.919   5.508   6.094 -0.3291 -0.4259  0.1059
 1041poe    c23 8169   7.000   5.514   5.979 -0.0968  0.2825  0.2978
 1041poe    c23 8170   7.144   5.471   6.011 -0.1780 -0.3430 -0.1372
 1041poe     o2 8171   7.135   5.366   6.104 -0.9106  0.2096  0.4242
 1041poe    c31 8172   7.258   5.298   6.118 -0.6494  0.6804  0.4145
 1042poe    c31 8173   0.752   2.442   1.824  0.1328  0.1534  0.5086
 1042poe     o2 8174   0.838   2.357   1.897  0.1669 -0.4316 -0.1937
 1042poe    c23 8175   0.769   2.235   1.912 -0.3757 -0.1351 -0.2621
 1042poe    c23 8176   0.810   2.164   2.042 -0.3057  0.2560 -0.0666
 1042poe     o2 8177   0.934   2.096   2.036 -0.3134  0.2370 -0.0106
 1042poe    c23 8178   0.970   2.025   2.152  0.0753 -0.1493 -0.3632
 1042poe    c23 8179   1.098   1.946   2.119 -0.0746 -0.5194 -0.0687
 1042poe     o2 8180   1.193   2.002   2.031 -0.1793  0.0632  0.1850
 1042poe    c23 8181   1.301   1.912   2.025  0.1083  0.3944  0.3232
 1042poe    c23 8182   1.412   1.962   1.931 -0.4662 -0.1073 -0.6382
 1042poe     o2 8183   1.451   2.095   1.956  0.5293 -0.5177  0.0519
 1042poe    c31 8184   1.544   2.134   1.857 -0.1245  0.5219 -0.1599
 1043poe    c31 8185   0.056   5.468   5.552  0.4334  0.4606 -0.8151
 1043poe     o2 8186   0.004   5.357   5.482  0.0761  0.1366 -0.0506
 1043poe    c23 8187   0.107   5.284   5.421  0.1821  0.2075  0.0423
 1043poe    c23 8188   0.049   5.158   5.354 -0.2242  0.4629 -0.0864
 1043poe     o2 8189  -0.062   5.186   5.272 -0.5399 -0.1628  0.1167
 1043poe    c23 8190  -0.103   5.072   5.200 -0.2201 -0.1833 -0.0328
 1043poe    c23 8191  -0.222   5.106   5.109 -0.4268 -0.3492  0.1727
 1043poe     o2 8192  -0.309   5.199   5.170  0.1104  0.5072 -0.3308
 1043poe    c23 8193  -0.403   5.254   5.080 -0.8383  0.2783  0.4947
 1043poe    c23 8194  -0.507   5.341   5.152 -0.8837  0.1249  0.6153
 1043poe     o2 8195  -0.429   5.453   5.190  0.0923 -0.0796 -0.7171
 1043poe    c31 8196  -0.514   5.550   5.246  0.3037 -0.6172  0.5819
 1044poe    c31 8197   5.814   6.832   3.881  0.2753 -0.4750  0.3089
 1044poe     o2 8198   5.900   6.764   3.792  0.0568 -0.3955  0.0343
 1044poe    c23 8199   5.961   6.857   3.706  0.2482 -0.2981  0.2739
 1044poe    c23 8200   6.093   6.800   3.650 -0.1978 -0.5802 -0.5005
 1044poe     o2 8201   6.049   6.671   3.614 -0.7296 -0.6399  0.3358
 1044poe    c23 8202   6.158   6.582   3.607  0.0154  0.3087 -0.4171
 1044poe    c23 8203   6.100   6.439   3.606  1.1030 -0.1573  0.2562
 1044poe     o2 8204   5.998   6.443   3.703  0.3607 -0.3776 -0.5042
 1044poe    c23 8205   5.896   6.353   3.666  0.1384 -0.2188 -0.2794
 1044poe    c23 8206   5.797   6.354   3.784  0.5238  0.0159  0.0406
 1044poe     o2 8207   5.774   6.493   3.797  0.1577 -0.0888  0.5576
 1044poe    c31 8208   5.666   6.511   3.886 -0.1113  0.3936  0.1398
 1045poe    c31 8209   5.951   1.467   5.931  0.0456 -0.2109  0.2794
 1045poe     o2 8210   6.073   1.535   5.913 -0.3732  0.2256 -1.0415
 1045poe    c23 8211   6.054   1.673   5.888 -0.0637  0.3902 -0.4053
 1045poe    c23 8212   6.193   1.739   5.895  0.3980 -0.6027  0.1331
 1045poe     o2 8213   6.250   1.695   6.016  0.1265 -0.4262  0.3268
 1045poe    c23 8214   6.372   1.752   6.057 -0.2560  0.4975  0.2169
 1045poe    c23 8215   6.398   1.732   6.207  0.3221 -0.5133 -0.0045
 1045poe     o2 8216   6.415   1.593   6.223  0.7389 -0.4361  0.2250
 1045poe    c23 8217   6.333   1.539   6.324 -0.0613 -0.2571 -0.3256
 1045poe    c23 8218   6.280   1.399   6.290  0.3771 -0.4492 -0.2225
 1045poe     o2 8219   6.201   1.392   6.173 -1.0678  0.6908  0.6439
 1045poe    c31 8220   6.174   1.255   6.151  0.4266  0.3374  0.8954
 1046poe    c31 8221   2.123   6.064   5.079 -0.3752 -0.9565  0.8703
 1046poe     o2 8222   2.254   6.027   5.042 -0.4370 -0.2764 -0.0742
 1046poe    c23 8223   2.248   5.906   4.970  0.2246 -0.5161  0.2618
 1046poe    c23 8224   2.383   5.881   4.900  0.1982  0.7585 -0.2869
 1046poe     o2 8225   2.482   5.880   5.001 -0.1695 -0.2893  0.0730
 1046poe    c23 8226   2.591   5.792   4.982 -0.0232 -0.1901  0.4527
 1046poe    c23 8227   2.681   5.791   5.107  0.0462 -0.2651  0.4018
 1046poe     o2 8228   2.714   5.921   5.152 -0.0441 -0.1269  0.0728
 1046poe    c23 8229   2.752   5.908   5.287 -0.3376 -0.2271  0.1483
 1046poe    c23 8230   2.788   6.052   5.326 -0.6746 -0.1311  0.1052
 1046poe     o2 8231   2.694   6.151   5.292 -0.4045  0.1020  0.0260
 1046poe    c31 8232   2.725   6.275   5.352  0.2803  0.2063 -0.5469
 1047poe    c31 8233   6.651   2.618   1.405  0.1909 -0.4019 -0.5043
 1047poe     o2 8234   6.773   2.684   1.431 -0.1093 -0.0215 -0.0482
 1047poe    c23 8235   6.756   2.737   1.561 -0.1629  0.3812 -0.2177
 1047poe    c23 8236   6.874   2.830   1.593 -0.0077  0.0817  0.0825
 1047poe     o2 8237   6.860   2.963   1.550 -0.4461  0.0184  0.0281
 1047poe    c23 8238   6.749   3.037   1.596  0.2554  0.7895  0.5125
 1047poe    c23 8239   6.766   3.185   1.558 -0.7118  0.7485 -0.1108
 1047poe     o2 8240   6.809   3.183   1.424  0.8853 -0.1777  0.3979
 1047poe    c23 8241   6.831   3.311   1.369  0.3717 -0.3012 -0.0926
 1047poe    c23 8242   6.822   3.309   1.215  0.0792  0.4238 -0.0895
 1047poe     o2 8243   6.927   3.228   1.167  0.3958  0.4908  0.4761
 1047poe    c31 8244   6.950   3.257   1.031 -0.4368 -0.0003  0.2260
 1048poe    c31 8245   1.228   4.697   5.477  0.0184 -0.3238 -0.3696
 1048poe     o2 8246   1.166   4.586   5.538  0.1687 -0.1029  0.1916
 1048poe    c23 8247   1.108   4.592   5.666 -0.9472 -0.6473 -0.2779
 1048poe    c23 8248   1.044   4.455   5.697 -0.7078 -0.5976  0.4426
 1048poe     o2 8249   1.126   4.367   5.625 -0.5267 -0.1386  0.0825
 1048poe    c23 8250   1.079   4.237   5.652 -1.0520 -0.1129 -0.6713
 1048poe    c23 8251   1.169   4.140   5.573 -0.0591  0.3127 -0.0799
 1048poe     o2 8252   1.157   4.159   5.434  0.3791 -0.1938 -0.1914
 1048poe    c23 8253   1.244   4.080   5.358  0.5617 -0.3814  0.2102
 1048poe    c23 8254   1.272   4.147   5.222 -1.0711  1.0749  0.5622
 1048poe     o2 8255   1.391   4.223   5.231 -0.0341 -0.3828 -0.3895
 1048poe    c31 8256   1.419   4.289   5.110 -0.2562  0.5287  0.0496
 1049poe    c31 8257   1.742   5.907   1.722  0.1903 -0.2500  0.1280
 1049poe     o2 8258   1.640   5.851   1.642  0.4990 -0.0041 -0.4464
 1049poe    c23 8259   1.687   5.750   1.556  0.6163 -0.2727 -0.0671
 1049poe    c23 8260   1.578   5.749   1.447 -0.1375 -0.0672  0.6669
 1049poe     o2 8261   1.457   5.700   1.500 -0.1314 -0.2012  0.5595
 1049poe    c23 8262   1.364   5.713   1.396  0.8129  1.0189 -0.1600
 1049poe    c23 8263   1.225   5.698   1.460  0.6990 -0.1659 -0.6679
 1049poe     o2 8264   1.224   5.778   1.576 -0.5405 -0.3337 -0.5490
 1049poe    c23 8265   1.109   5.848   1.618 -0.0288  0.2940 -0.1756
 1049poe    c23 8266   1.036   5.757   1.719 -0.2737  0.2081 -0.4297
 1049poe     o2 8267   1.105   5.760   1.841 -0.4516  0.3480 -0.3322
 1049poe    c31 8268   1.025   5.698   1.939 -0.2368 -0.3887 -0.6156
 1050poe    c31 8269   0.870   4.929   4.705 -0.0254  0.1431  0.3963
 1050poe     o2 8270   0.986   4.904   4.629 -0.2645  0.2817 -0.0205
 1050poe    c23 8271   1.091   4.995   4.657 -0.4232  0.3670  0.3019
 1050poe    c23 8272   1.222   4.919   4.632 -0.1585  0.7743  0.4602
 1050poe     o2 8273   1.223   4.867   4.501 -0.0973  0.6122  0.5244
 1050poe    c23 8274   1.348   4.806   4.482 -0.4133  0.2038 -0.2690
 1050poe    c23 8275   1.338   4.698   4.372  0.2831 -0.2213  0.0744
 1050poe     o2 8276   1.213   4.633   4.360  0.2769 -0.2297  0.1876
 1050poe    c23 8277   1.216   4.521   4.274  0.6496 -0.0420 -0.0512
 1050poe    c23 8278   1.212   4.386   4.348 -0.0998 -0.1061 -0.1969
 1050poe     o2 8279   1.086   4.332   4.381 -0.0945  0.1302  0.2190
 1050poe    c31 8280   0.995   4.274   4.290 -0.0169  0.1458  0.1299
 1051poe    c31 8281   6.460   3.255   6.795  0.0671  0.1021  0.1803
 1051poe     o2 8282   6.481   3.168   6.904 -0.2429 -0.2303 -0.0254
 1051poe    c23 8283   6.410   3.199   7.022  0.6176  0.9481  0.2047
 1051poe    c23 8284   6.480   3.106   7.122  0.2180  0.3383 -0.0720
 1051poe     o2 8285   6.478   2.978   7.063 -0.1924  0.0336  0.5953
 1051poe    c23 8286   6.537   2.883   7.149 -0.4292 -0.4531  0.2230
 1051poe    c23 8287   6.516   2.740   7.095  0.4945 -0.5284  0.0506
 1051poe     o2 8288   6.553   2.747   6.959  0.2982  0.1633  0.0312
 1051poe    c23 8289   6.561   2.611   6.924 -0.1852  0.0406  0.3851
 1051poe    c23 8290   6.617   2.603   6.781 -0.3349 -0.4247  0.3504
 1051poe     o2 8291   6.544   2.671   6.681 -0.3203 -0.6831  0.1631
 1051poe    c31 8292   6.623   2.654   6.566  0.2251 -0.1893  0.4584
 1052poe    c31 8293   6.181   0.286   1.712  0.0547  0.3080  0.2689
 1052poe     o2 8294   6.043   0.312   1.730  0.0665  0.6063 -0.0618
 1052poe    c23 8295   5.992   0.295   1.600  0.2555 -0.3733 -0.0140
 1052poe    c23 8296   5.840   0.315   1.592  0.2946 -0.1084 -0.0984
 1052poe     o2 8297   5.777   0.232   1.688 -0.0578 -0.1537 -0.3659
 1052poe    c23 8298   5.657   0.278   1.745 -0.1481 -0.3894 -0.3666
 1052poe    c23 8299   5.658   0.236   1.893 -0.3373  0.0896 -0.2255
 1052poe     o2 8300   5.778   0.285   1.948 -0.5657  0.2002  0.1824
 1052poe    c23 8301   5.855   0.209   2.039 -0.6668  0.2188  0.2827
 1052poe    c23 8302   5.970   0.294   2.096  0.0781 -0.2627 -0.4758
 1052poe     o2 8303   6.036   0.364   1.994 -0.2049  0.4446 -0.1780
 1052poe    c31 8304   6.134   0.449   2.049  0.1015 -0.0330  0.0231
 1053poe    c31 8305   1.066   5.012   0.402 -0.3509 -0.5111 -0.3493
 1053poe     o2 8306   1.016   4.909   0.484 -0.2100 -0.2211  0.1021
 1053poe    c23 8307   0.918   4.979   0.557  0.5624  0.3520  0.6044
 1053poe    c23 8308   0.852   4.863   0.634 -0.0369  0.0188 -0.4045
 1053poe     o2 8309   0.841   4.753   0.546 -0.2511 -0.3544  0.0841
 1053poe    c23 8310   0.754   4.651   0.591 -0.8497 -0.0592 -0.3798
 1053poe    c23 8311   0.759   4.534   0.491  0.1672 -0.0069 -0.4085
 1053poe     o2 8312   0.696   4.563   0.368 -0.8760 -0.8228 -0.0877
 1053poe    c23 8313   0.780   4.526   0.261  0.1888 -0.2752  0.5397
 1053poe    c23 8314   0.871   4.638   0.207  0.1660 -0.5017  0.0213
 1053poe     o2 8315   0.976   4.660   0.299 -0.0709 -0.2196  0.2255
 1053poe    c31 8316   1.092   4.636   0.224 -0.3874 -0.2057 -0.2754
 1054poe    c31 8317   3.632   4.770   2.960  0.8018  0.4833 -0.0755
 1054poe     o2 8318   3.612   4.794   2.823 -0.2008  0.6271  0.0914
 1054poe    c23 8319   3.517   4.899   2.814 -0.5801  0.3089  0.3509
 1054poe    c23 8320   3.550   4.990   2.694  0.0247 -0.1540  0.1587
 1054poe     o2 8321   3.597   4.899   2.598 -0.1282  0.0608 -0.1201
 1054poe    c23 8322   3.678   4.960   2.500 -0.2935  0.0972 -0.2354
 1054poe    c23 8323   3.764   4.847   2.438 -0.2437  0.2737 -0.4900
 1054poe     o2 8324   3.792   4.763   2.548  0.1398 -0.1298 -0.8926
 1054poe    c23 8325   3.885   4.659   2.533  0.2098 -0.1803 -0.1320
 1054poe    c23 8326   3.905   4.594   2.671 -0.2892  0.2346  0.1370
 1054poe     o2 8327   3.780   4.572   2.733 -0.4593 -0.2184 -0.3574
 1054poe    c31 8328   3.798   4.452   2.804  0.0677  0.3343  0.4624
 1055poe    c31 8329   4.433   5.026   3.793  0.2094 -0.1793  0.3169
 1055poe     o2 8330   4.486   5.150   3.750 -0.3764  0.0098  0.1254
 1055poe    c23 8331   4.566   5.191   3.859 -0.4580 -0.0470  0.2071
 1055poe    c23 8332   4.612   5.332   3.817  0.4557 -0.3063  0.3247
 1055poe     o2 8333   4.658   5.317   3.685  0.3111  0.3092  0.2022
 1055poe    c23 8334   4.703   5.443   3.641 -0.0027  0.3130 -0.1079
 1055poe    c23 8335   4.748   5.431   3.494 -0.2711 -0.1569 -0.1544
 1055poe     o2 8336   4.643   5.368   3.425 -0.3812 -0.4856  0.3111
 1055poe    c23 8337   4.659   5.355   3.285 -0.0517 -0.3987  0.3396
 1055poe    c23 8338   4.531   5.334   3.202  0.3166 -1.0507 -0.0742
 1055poe     o2 8339   4.446   5.229   3.241 -0.5754 -0.3657 -0.1355
 1055poe    c31 8340   4.329   5.222   3.163 -0.4687  0.2274 -0.3532
 1056poe    c31 8341   4.709   1.985   4.009  0.5374  0.1502  0.0115
 1056poe     o2 8342   4.839   1.938   4.033  0.5116  0.2627  0.3856
 1056poe    c23 8343   4.879   1.960   4.166  0.5069  0.0888  0.4158
 1056poe    c23 8344   4.996   1.862   4.188 -0.2573 -0.9838 -0.2177
 1056poe     o2 8345   5.080   1.849   4.076  0.1848  0.6431 -0.0994
 1056poe    c23 8346   5.140   1.721   4.076 -0.5963  0.2729 -0.0326
 1056poe    c23 8347   5.182   1.699   3.929 -0.6701 -0.4734  0.0555
 1056poe     o2 8348   5.064   1.733   3.860  0.1474  0.5822 -0.8450
 1056poe    c23 8349   5.010   1.619   3.797  0.4570 -0.0777  0.0571
 1056poe    c23 8350   4.873   1.671   3.749  0.1362 -0.7482  0.2291
 1056poe     o2 8351   4.795   1.724   3.854 -0.2068  0.2931 -0.5317
 1056poe    c31 8352   4.661   1.694   3.823 -0.2821 -0.0987  0.1373
 1057poe    c31 8353   1.880   1.963   0.062 -0.1066 -0.0336 -0.3772
 1057poe     o2 8354   1.936   2.074   0.129 -0.4984  0.0441 -0.1747
 1057poe    c23 8355   1.847   2.183   0.116 -0.3847  0.2262  0.5392
 1057poe    c23 8356   1.912   2.300   0.192 -0.0374  0.4836 -0.1406
 1057poe     o2 8357   2.003   2.253   0.290 -0.2554  0.3505 -0.0010
 1057poe    c23 8358   2.092   2.352   0.336  0.3657 -0.0641 -0.3078
 1057poe    c23 8359   2.214   2.277   0.394  0.3184 -0.1068 -0.2633
 1057poe     o2 8360   2.237   2.159   0.321 -0.5280 -0.4441 -0.0045
 1057poe    c23 8361   2.368   2.112   0.344 -0.2758  0.3059  0.1208
 1057poe    c23 8362   2.404   1.963   0.331  0.1693  0.3801  0.4411
 1057poe     o2 8363   2.409   1.918   0.197  0.1099  0.3914  0.4348
 1057poe    c31 8364   2.442   1.781   0.193  0.0106  0.3844 -0.2882
 1058poe    c31 8365   3.659   3.631   0.655  0.1140 -0.6584  0.5122
 1058poe     o2 8366   3.657   3.663   0.793  0.6223 -0.2117  0.4211
 1058poe    c23 8367   3.622   3.559   0.880 -0.2592  0.4093  0.8323
 1058poe    c23 8368   3.712   3.564   1.005  0.6054  0.1357  0.2292
 1058poe     o2 8369   3.688   3.690   1.064 -0.2709  0.1765 -0.2037
 1058poe    c23 8370   3.784   3.702   1.166 -0.5334 -0.2734  0.1003
 1058poe    c23 8371   3.807   3.854   1.167  0.3621 -0.4027  0.0316
 1058poe     o2 8372   3.816   3.885   1.029  0.8650  0.1181  0.1771
 1058poe    c23 8373   3.855   4.017   0.999 -0.4817  0.4136 -0.3141
 1058poe    c23 8374   3.869   4.013   0.846  0.2890 -0.7885 -0.2190
 1058poe     o2 8375   3.746   3.983   0.785 -0.2803 -0.3535  0.7036
 1058poe    c31 8376   3.728   4.030   0.653  0.0106 -0.6118  0.5717
 1059poe    c31 8377   1.970   3.846   6.627 -0.5971 -0.1605 -0.0392
 1059poe     o2 8378   1.911   3.890   6.506 -0.1022  0.0846 -0.1911
 1059poe    c23 8379   1.771   3.894   6.518 -0.1227  0.1843 -0.4653
 1059poe    c23 8380   1.716   3.962   6.391 -0.5664  0.4161 -0.1519
 1059poe     o2 8381   1.786   3.916   6.278 -1.1378 -0.5083 -0.1352
 1059poe    c23 8382   1.755   3.992   6.163  0.0526  0.1367 -0.0474
 1059poe    c23 8383   1.787   3.906   6.039 -0.8505 -0.5201  0.1600
 1059poe     o2 8384   1.927   3.890   6.050 -0.7884 -0.0894  0.0194
 1059poe    c23 8385   1.983   3.847   5.928  0.2616  0.2682  0.3616
 1059poe    c23 8386   2.114   3.767   5.936 -0.0399 -0.2281  0.3244
 1059poe     o2 8387   2.068   3.639   5.974 -0.1948 -0.2236  0.1531
 1059poe    c31 8388   2.175   3.548   5.968  0.1568  0.2002 -0.0152
 1060poe    c31 8389   0.993   5.862   4.255 -0.2931 -0.1978  0.2115
 1060poe     o2 8390   0.976   5.990   4.198 -0.3342 -0.2673  0.0675
 1060poe    c23 8391   1.059   6.086   4.258 -0.4633 -0.1214  0.0140
 1060poe    c23 8392   1.014   6.225   4.210  0.6561  0.4103  0.4496
 1060poe     o2 8393   0.875   6.214   4.231  0.4856  0.0435 -0.7738
 1060poe    c23 8394   0.795   6.319   4.181  0.7596  0.2369 -0.8075
 1060poe    c23 8395   0.657   6.253   4.166  0.8027 -0.0572  0.0323
 1060poe     o2 8396   0.678   6.145   4.077 -0.2181 -0.3521  0.1438
 1060poe    c23 8397   0.566   6.060   4.087 -0.6689  0.2617  0.3797
 1060poe    c23 8398   0.603   5.933   4.166  0.1494  0.1800 -0.1253
 1060poe     o2 8399   0.725   5.893   4.109  0.3146  0.1398  0.2530
 1060poe    c31 8400   0.699   5.789   4.017 -0.5885 -0.1412  0.8143
 1061poe    c31 8401   1.179   1.945   0.442 -0.1088  0.6159 -0.1678
 1061poe     o2 8402   1.284   2.007   0.512  0.2315 -0.0874 -0.0509
 1061poe    c23 8403   1.407   1.940   0.493 -0.2550 -0.9246 -0.3115
 1061poe    c23 8404   1.514   2.004   0.584 -0.4210 -0.0342 -0.7309
 1061poe     o2 8405   1.523   2.137   0.538 -0.2265  0.0663 -0.4061
 1061poe    c23 8406   1.640   2.203   0.582 -0.3543  0.1476 -0.1877
 1061poe    c23 8407   1.661   2.333   0.503  0.4607  0.8052  1.0925
 1061poe     o2 8408   1.529   2.380   0.524  0.1501  0.3303  0.2572
 1061poe    c23 8409   1.485   2.494   0.454 -0.2453  0.1362  0.1899
 1061poe    c23 8410   1.332   2.511   0.462 -0.2099  0.2444  0.6383
 1061poe     o2 8411   1.287   2.379   0.446  0.3054  0.1604 -0.1754
 1061poe    c31 8412   1.149   2.385   0.421  0.2986  0.2947 -0.1074
 1062poe    c31 8413   2.644   5.084   4.905  0.1418 -0.1731 -0.2719
 1062poe     o2 8414   2.739   5.175   4.852  0.1847 -0.0624 -0.0065
 1062poe    c23 8415   2.698   5.308   4.873 -0.6652 -0.2678 -0.3355
 1062poe    c23 8416   2.762   5.403   4.770  0.5053 -0.1223  0.5126
 1062poe     o2 8417   2.797   5.335   4.652  0.3557  0.6762 -0.0030
 1062poe    c23 8418   2.856   5.420   4.556 -0.0497  0.5319 -0.3833
 1062poe    c23 8419   2.928   5.340   4.446 -0.3494  0.5643 -0.6048
 1062poe     o2 8420   3.032   5.265   4.505 -0.7497  0.4793 -0.0096
 1062poe    c23 8421   3.113   5.194   4.414 -0.0360  0.8951  0.2917
 1062poe    c23 8422   3.213   5.128   4.511 -0.2893 -0.2938 -0.2421
 1062poe     o2 8423   3.150   5.019   4.575  0.1009 -0.4649 -0.1473
 1062poe    c31 8424   3.222   4.973   4.687  0.0364 -0.4806 -0.1121
 1063poe    c31 8425   5.117   6.135   4.629  0.4404  0.3091 -0.0651
 1063poe     o2 8426   5.080   6.271   4.619  0.0836  0.2681  0.6380
 1063poe    c23 8427   5.142   6.342   4.514 -0.0445 -0.2186  0.2313
 1063poe    c23 8428   5.152   6.493   4.541 -0.2872 -0.1098 -0.2740
 1063poe     o2 8429   5.019   6.511   4.582 -0.1977  0.3037 -0.1578
 1063poe    c23 8430   4.999   6.623   4.665 -0.0509  0.2705 -0.0789
 1063poe    c23 8431   4.969   6.573   4.807  0.5988 -0.1006 -0.0657
 1063poe     o2 8432   4.885   6.463   4.779  0.7923 -0.3662  0.3759
 1063poe    c23 8433   4.824   6.416   4.897 -0.2069 -0.5143 -0.1856
 1063poe    c23 8434   4.755   6.285   4.855 -0.2496 -0.7014  0.4713
 1063poe     o2 8435   4.838   6.206   4.773 -0.4748  0.4274 -0.8648
 1063poe    c31 8436   4.782   6.077   4.772 -0.0681  0.2347  0.2522
 1064poe    c31 8437   6.661   0.311   1.037  0.4889 -0.1746 -0.6420
 1064poe     o2 8438   6.552   0.222   1.043  0.1832  0.2271 -0.1099
 1064poe    c23 8439   6.540   0.192   0.906  0.7913 -1.2192  0.1322
 1064poe    c23 8440   6.445   0.072   0.914 -0.0253 -0.6484 -0.7574
 1064poe     o2 8441   6.491  -0.011   1.019  0.0591 -0.2664 -0.4904
 1064poe    c23 8442   6.410  -0.126   1.032 -0.6033  0.2398 -0.0344
 1064poe    c23 8443   6.450  -0.205   1.158  0.2962  0.6388 -0.0586
 1064poe     o2 8444   6.506  -0.118   1.254  0.5644  0.5389 -0.1241
 1064poe    c23 8445   6.529  -0.184   1.376  0.6069  0.4898 -0.1586
 1064poe    c23 8446   6.423  -0.178   1.488  0.6743  0.8466 -0.1114
 1064poe     o2 8447   6.299  -0.227   1.441  0.4969  0.6153  0.5897
 1064poe    c31 8448   6.192  -0.182   1.521 -0.2851  0.0772 -0.1389
 1065poe    c31 8449   4.811   6.294   1.962 -0.0209  0.7364  0.5736
 1065poe     o2 8450   4.949   6.310   1.988  0.2231  0.1616 -0.3326
 1065poe    c23 8451   4.969   6.382   2.107  0.6459  0.4177 -0.5594
 1065poe    c23 8452   5.115   6.363   2.154  0.2797 -0.0199  0.4162
 1065poe     o2 8453   5.201   6.413   2.055 -0.0078  0.3653  0.3583
 1065poe    c23 8454   5.337   6.381   2.075  0.0430  0.6885  0.5493
 1065poe    c23 8455   5.427   6.432   1.961  0.2059 -0.7161  0.0288
 1065poe     o2 8456   5.357   6.469   1.844  0.3296 -0.4381  0.0428
 1065poe    c23 8457   5.439   6.512   1.738  0.4724 -0.0526  0.3073
 1065poe    c23 8458   5.358   6.509   1.607  0.5279  0.0290  0.2705
 1065poe     o2 8459   5.258   6.604   1.637  0.0931 -0.3292 -0.0262
 1065poe    c31 8460   5.174   6.640   1.531  0.6513  0.4834 -0.1982
 1066poe    c31 8461   4.843   5.268   1.917 -0.7026 -0.6799 -0.1928
 1066poe     o2 8462   4.880   5.343   2.031  0.7076 -0.1561 -0.9617
 1066poe    c23 8463   4.932   5.280   2.146 -0.2400  0.4790 -0.1687
 1066poe    c23 8464   4.905   5.363   2.273 -0.1289  0.3800 -0.0792
 1066poe     o2 8465   4.965   5.491   2.275  0.4828  0.0907  0.1918
 1066poe    c23 8466   4.902   5.571   2.373  0.2007  0.1583 -0.0423
 1066poe    c23 8467   4.962   5.711   2.393 -0.2410  0.3517 -0.0610
 1066poe     o2 8468   4.975   5.796   2.281 -0.1822  0.2231 -0.1529
 1066poe    c23 8469   5.111   5.826   2.262 -0.0726  0.1790  0.5360
 1066poe    c23 8470   5.120   5.932   2.151 -0.5063  0.2000  0.5196
 1066poe     o2 8471   5.032   5.888   2.050  0.2078 -0.1038  0.0252
 1066poe    c31 8472   5.040   5.972   1.936  0.4915 -0.9681 -0.6043
 1067poe    c31 8473   1.165   5.944   5.762  0.8582  0.0100  0.1193
 1067poe     o2 8474   1.216   5.865   5.867  0.1660 -0.2834  0.2422
 1067poe    c23 8475   1.247   5.938   5.984  0.1274 -0.0618  0.1153
 1067poe    c23 8476   1.356   5.884   6.078  0.6161 -0.0529 -0.4463
 1067poe     o2 8477   1.335   5.745   6.082  0.2536 -0.0033 -0.6338
 1067poe    c23 8478   1.427   5.680   6.167 -0.3830  0.1752  0.2010
 1067poe    c23 8479   1.459   5.548   6.095 -0.2768  0.0704  0.4433
 1067poe     o2 8480   1.512   5.575   5.968 -0.6900  0.0107  0.2576
 1067poe    c23 8481   1.549   5.457   5.900  0.1636  0.0554  0.6311
 1067poe    c23 8482   1.663   5.483   5.799 -0.3791  0.2268  0.0563
 1067poe     o2 8483   1.620   5.576   5.702 -0.3896 -0.0274 -0.1841
 1067poe    c31 8484   1.708   5.576   5.591 -0.2207 -0.9637 -0.0520
 1068poe    c31 8485   5.055   2.750   4.354 -0.3292  0.4454  0.2372
 1068poe     o2 8486   5.159   2.828   4.299  0.0789 -0.1099  0.1999
 1068poe    c23 8487   5.273   2.758   4.256 -0.1870 -0.3174 -0.1759
 1068poe    c23 8488   5.360   2.842   4.160  0.2489 -0.2456  0.2812
 1068poe     o2 8489   5.392   2.956   4.237  0.1185  0.3207 -0.5018
 1068poe    c23 8490   5.439   3.065   4.160 -0.1790  0.5747 -0.3285
 1068poe    c23 8491   5.388   3.191   4.231 -0.1740  0.5634 -0.3051
 1068poe     o2 8492   5.257   3.170   4.278 -0.0746 -0.0809 -0.3137
 1068poe    c23 8493   5.219   3.280   4.357 -0.0898  0.1109 -0.5889
 1068poe    c23 8494   5.065   3.278   4.368 -0.0294 -0.4665  0.2448
 1068poe     o2 8495   5.022   3.145   4.388  0.0054 -0.5285 -0.0837
 1068poe    c31 8496   4.892   3.137   4.442  0.0316 -0.0196  0.0576
 1069poe    c31 8497   5.979   2.791   6.634 -0.2366 -0.5112 -0.9088
 1069poe     o2 8498   6.069   2.692   6.677  0.2968  0.3158 -0.0784
 1069poe    c23 8499   6.043   2.662   6.813  0.0443  0.0643 -0.1800
 1069poe    c23 8500   6.137   2.542   6.834  0.8525  0.5659 -0.8575
 1069poe     o2 8501   6.122   2.449   6.729  0.1496  0.4851 -0.6867
 1069poe    c23 8502   6.194   2.328   6.739  0.1962  0.5200 -0.6025
 1069poe    c23 8503   6.193   2.271   6.596 -0.2849 -0.2621 -0.2965
 1069poe     o2 8504   6.263   2.357   6.509  0.3456 -0.3056  0.1547
 1069poe    c23 8505   6.252   2.320   6.374  0.2206 -0.2906  0.1600
 1069poe    c23 8506   6.383   2.351   6.299 -0.0464 -0.0774 -0.2208
 1069poe     o2 8507   6.408   2.490   6.297  0.4471 -0.1689 -0.4549
 1069poe    c31 8508   6.486   2.523   6.184  0.9238  0.0284 -0.0724
 1070poe    c31 8509   4.694   4.169   4.007 -0.0392  0.3243 -0.6390
 1070poe     o2 8510   4.637   4.274   4.081 -0.0085 -0.0437 -0.0865
 1070poe    c23 8511   4.499   4.257   4.102  0.0241  0.2302  0.3616
 1070poe    c23 8512   4.442   4.397   4.134 -0.3569  0.0761  0.3585
 1070poe     o2 8513   4.526   4.435   4.240 -0.2465 -0.0078  0.3017
 1070poe    c23 8514   4.530   4.573   4.267  0.4446 -0.0498  0.4278
 1070poe    c23 8515   4.646   4.619   4.357  0.3022  0.4778  0.3453
 1070poe     o2 8516   4.760   4.555   4.304  0.0628 -0.2126  0.6583
 1070poe    c23 8517   4.879   4.608   4.357  0.2256 -0.2498  0.3296
 1070poe    c23 8518   4.988   4.499   4.344  0.5434  0.0550  0.4268
 1070poe     o2 8519   5.016   4.482   4.207 -0.1419  0.2391  0.2604
 1070poe    c31 8520   5.059   4.352   4.173  0.4874  0.4535  0.2334
 1071poe    c31 8521   2.755   1.245   4.466  0.3622 -0.2381 -0.4328
 1071poe     o2 8522   2.649   1.153   4.482  0.0229  0.2414  0.0971
 1071poe    c23 8523   2.636   1.135   4.621  0.0472  0.3311  0.1112
 1071poe    c23 8524   2.533   1.024   4.651  0.1594  0.2305  0.1247
 1071poe     o2 8525   2.402   1.059   4.613  0.1405 -0.0777 -0.0922
 1071poe    c23 8526   2.315   1.002   4.708 -0.4380  0.2430 -0.4229
 1071poe    c23 8527   2.264   0.868   4.653 -0.6165  0.2198 -0.2052
 1071poe     o2 8528   2.234   0.890   4.517  0.0941 -0.1349 -0.4270
 1071poe    c23 8529   2.179   0.777   4.453  0.5579 -0.5184 -0.1562
 1071poe    c23 8530   2.144   0.840   4.317 -0.0298 -0.1711  0.1514
 1071poe     o2 8531   2.250   0.906   4.252 -0.3205 -0.2095 -0.3705
 1071poe    c31 8532   2.258   0.900   4.112 -0.1561  0.4253 -0.3905
 1072poe    c31 8533   6.831   0.899   1.851 -0.1942  0.0320 -0.6247
 1072poe     o2 8534   6.692   0.906   1.831 -0.2665  0.2296 -0.0862
 1072poe    c23 8535   6.669   0.817   1.724 -0.2201 -0.9543  0.8697
 1072poe    c23 8536   6.524   0.826   1.672  0.3777 -0.3282 -0.7449
 1072poe     o2 8537   6.492   0.963   1.664  0.0622 -0.4439 -1.5970
 1072poe    c23 8538   6.353   0.980   1.679  0.2719  0.0561 -0.0940
 1072poe    c23 8539   6.345   1.121   1.740  0.4838  0.2116 -0.4215
 1072poe     o2 8540   6.440   1.136   1.844  0.0612  0.5639 -0.0787
 1072poe    c23 8541   6.442   1.267   1.894 -0.3728  0.4487  0.2477
 1072poe    c23 8542   6.556   1.269   1.999  0.0429  0.1119 -0.1955
 1072poe     o2 8543   6.655   1.183   1.947 -0.1507  0.0228 -0.4219
 1072poe    c31 8544   6.753   1.162   2.046 -0.7027 -0.6991 -0.0158
 1073poe    c31 8545   2.992   5.574   5.632 -0.4414 -0.1416 -0.2204
 1073poe     o2 8546   2.877   5.554   5.711 -0.5936 -0.0912 -0.4269
 1073poe    c23 8547   2.887   5.589   5.848 -0.3518 -0.3511 -0.3781
 1073poe    c23 8548   2.941   5.469   5.928  0.4045  0.3782  0.2296
 1073poe     o2 8549   2.868   5.349   5.939  0.2404  0.4722  0.1789
 1073poe    c23 8550   2.831   5.326   6.073  0.1069 -0.0181  0.0627
 1073poe    c23 8551   2.771   5.185   6.074  0.5517 -0.2113 -0.2670
 1073poe     o2 8552   2.684   5.155   5.968 -0.1611  0.0474  0.2363
 1073poe    c23 8553   2.626   5.027   5.961  0.0976 -0.0378 -0.4869
 1073poe    c23 8554   2.528   5.029   5.843 -0.1467 -0.2755 -0.2888
 1073poe     o2 8555   2.549   5.145   5.767 -0.0423 -0.2644 -0.2427
 1073poe    c31 8556   2.509   5.134   5.632 -0.2423 -0.6705 -0.1521
 1074poe    c31 8557   0.331   6.345   2.416 -0.3272 -0.2551  0.3088
 1074poe     o2 8558   0.327   6.359   2.276  0.4114  0.3986  0.3455
 1074poe    c23 8559   0.353   6.493   2.242  0.1839  0.3792  0.0908
 1074poe    c23 8560   0.301   6.546   2.107 -0.2493 -0.5497 -0.1130
 1074poe     o2 8561   0.346   6.477   1.993 -0.3142 -0.1213 -0.4020
 1074poe    c23 8562   0.472   6.519   1.944 -0.2672 -0.1819 -0.3327
 1074poe    c23 8563   0.536   6.406   1.862 -0.0342  0.0741 -0.5010
 1074poe     o2 8564   0.425   6.330   1.821 -0.3096  0.1326  0.1406
 1074poe    c23 8565   0.451   6.261   1.701 -0.3398  0.1861  0.1033
 1074poe    c23 8566   0.359   6.138   1.708  0.0064 -0.0859 -0.1329
 1074poe     o2 8567   0.235   6.183   1.759 -0.0657 -0.2663 -0.1477
 1074poe    c31 8568   0.138   6.081   1.755 -0.0324 -0.3528  0.9930
 1075poe    c31 8569   3.757   0.776   4.817  0.4743 -0.4094 -0.6231
 1075poe     o2 8570   3.699   0.815   4.695  0.1894  0.7171 -0.1441
 1075poe    c23 8571   3.662   0.702   4.619  0.1106  0.4721  0.2569
 1075poe    c23 8572   3.593   0.764   4.495 -0.0337 -0.1189  0.0385
 1075poe     o2 8573   3.671   0.865   4.435  0.0929 -0.5646 -0.5619
 1075poe    c23 8574   3.636   0.904   4.305 -0.3590  0.0418 -0.2649
 1075poe    c23 8575   3.733   1.019   4.272 -0.5533  0.4738  0.6419
 1075poe     o2 8576   3.799   1.070   4.386  0.1273  0.0165  0.4591
 1075poe    c23 8577   3.888   1.176   4.364  0.1451  0.0161  0.5297
 1075poe    c23 8578   4.026   1.126   4.316 -0.1902 -0.1164 -0.3073
 1075poe     o2 8579   4.090   1.054   4.418 -0.5887  0.1484  0.1369
 1075poe    c31 8580   4.220   1.019   4.374 -0.5857  0.1042  0.1801
 1076poe    c31 8581   3.625   2.261   1.873  0.0327 -0.2230 -0.8015
 1076poe     o2 8582   3.741   2.226   1.800  0.7500 -0.2382  0.3149
 1076poe    c23 8583   3.703   2.194   1.668  0.7351  0.2414  0.2014
 1076poe    c23 8584   3.832   2.143   1.602  0.3959 -0.4385  0.0480
 1076poe     o2 8585   3.922   2.248   1.633 -0.1108 -0.1252  0.4752
 1076poe    c23 8586   4.047   2.198   1.592 -0.1463 -0.0063  0.2196
 1076poe    c23 8587   4.153   2.275   1.674 -0.3489  0.4086  0.0943
 1076poe     o2 8588   4.113   2.288   1.808  0.1008 -0.8180  0.3548
 1076poe    c23 8589   4.229   2.340   1.869 -0.1031 -0.2557  0.2585
 1076poe    c23 8590   4.207   2.352   2.021 -0.3550  0.2089  0.1900
 1076poe     o2 8591   4.190   2.226   2.081 -0.0209 -0.1426 -0.4463
 1076poe    c31 8592   4.300   2.166   2.147  0.0566  0.2510 -0.2140
 1077poe    c31 8593   5.979   6.481   6.739 -0.1681  0.1591  0.4474
 1077poe     o2 8594   6.006   6.413   6.860 -0.0160  0.1683  0.4194
 1077poe    c23 8595   6.078   6.488   6.955  0.3531  0.4556 -0.0842
 1077poe    c23 8596   6.043   6.436   7.095  0.5310 -0.1404 -0.2585
 1077poe     o2 8597   6.052   6.296   7.085 -0.5796 -0.2363 -0.0679
 1077poe    c23 8598   6.001   6.227   7.197 -1.2422 -0.0208 -0.2324
 1077poe    c23 8599   6.028   6.078   7.167 -0.1040 -0.0119  0.7019
 1077poe     o2 8600   5.960   6.057   7.046  0.6881 -0.0593  0.2588
 1077poe    c23 8601   6.023   5.957   6.969 -0.1172 -0.3995  0.0282
 1077poe    c23 8602   6.005   5.990   6.820  0.5828 -0.2862 -0.0363
 1077poe     o2 8603   6.037   6.125   6.798  0.3949 -0.2248  0.0622
 1077poe    c31 8604   6.173   6.146   6.766  0.3845 -0.3709 -0.0749
 1078poe    c31 8605   6.134   6.392   5.010 -0.0289 -0.2481 -0.3157
 1078poe     o2 8606   6.211   6.383   5.128 -0.3743 -0.5056 -0.1090
 1078poe    c23 8607   6.255   6.249   5.127 -0.5049 -0.5500  0.0758
 1078poe    c23 8608   6.362   6.223   5.234 -0.4542 -0.5728  0.0199
 1078poe     o2 8609   6.292   6.246   5.355 -0.5045 -0.2779 -0.0644
 1078poe    c23 8610   6.372   6.197   5.460  0.0601  0.6550 -0.0514
 1078poe    c23 8611   6.321   6.261   5.590 -0.2072 -0.1253  0.2329
 1078poe     o2 8612   6.181   6.256   5.578 -0.1831 -0.0400 -0.0816
 1078poe    c23 8613   6.121   6.273   5.705  0.1826 -0.9765  0.2252
 1078poe    c23 8614   5.969   6.248   5.708 -0.1026  0.7188  0.5315
 1078poe     o2 8615   5.894   6.316   5.610 -0.0174  0.0746  0.0225
 1078poe    c31 8616   5.755   6.292   5.612  0.0195 -0.2089 -0.4783
 1079poe    c31 8617   4.219   4.149   2.453 -0.0028 -0.2592  0.2701
 1079poe     o2 8618   4.355   4.118   2.435  0.0769  0.2704 -0.0426
 1079poe    c23 8619   4.429   4.230   2.393  0.2909  0.3998  0.6663
 1079poe    c23 8620   4.572   4.214   2.447  0.4443 -0.1864  0.1001
 1079poe     o2 8621   4.617   4.083   2.421 -0.4307 -0.3298 -0.7653
 1079poe    c23 8622   4.671   4.050   2.295  0.4473 -0.6236 -0.3257
 1079poe    c23 8623   4.659   3.897   2.288  0.1947 -0.6226  0.0377
 1079poe     o2 8624   4.528   3.866   2.332  0.0160  0.2343  0.1152
 1079poe    c23 8625   4.488   3.731   2.328  0.3187  0.1257  0.6614
 1079poe    c23 8626   4.337   3.742   2.356  0.1418  0.1441 -0.2924
 1079poe     o2 8627   4.322   3.832   2.464  0.1989 -0.0727 -0.1045
 1079poe    c31 8628   4.217   3.790   2.549  0.3116 -0.4107 -0.1277
 1080poe    c31 8629   3.201   2.680   2.300  0.6958  0.0896 -0.1570
 1080poe     o2 8630   3.270   2.558   2.315 -0.2423 -0.4041  0.2085
 1080poe    c23 8631   3.309   2.502   2.192  0.0629  0.1904  0.0360
 1080poe    c23 8632   3.404   2.385   2.223 -0.5500 -0.2623  0.2211
 1080poe     o2 8633   3.471   2.434   2.338 -0.0843  0.0685 -0.1878
 1080poe    c23 8634   3.558   2.329   2.376 -0.4007 -0.2283 -0.2865
 1080poe    c23 8635   3.607   2.352   2.520 -0.4622  0.8348 -0.4305
 1080poe     o2 8636   3.500   2.386   2.605 -0.2468 -0.4254  0.3733
 1080poe    c23 8637   3.502   2.306   2.721 -0.0856  0.1539  0.7749
 1080poe    c23 8638   3.432   2.376   2.839  0.1771  0.0702  0.9819
 1080poe     o2 8639   3.292   2.375   2.824  0.3018  0.5064 -0.3483
 1080poe    c31 8640   3.244   2.460   2.926  0.4208  0.6230 -0.3894
 1081lim     li 8641   6.197   4.794   4.246 -0.1776  0.3839  0.6407
 1082lim     li 8642   6.106   5.153   1.307 -0.5317  0.4671  1.0584
 1083lim     li 8643   5.504   4.813   2.359  0.1344  0.2172  0.1525
 1084lim     li 8644   1.650   2.086   6.392 -1.9610  0.4712 -0.0977
 1085lim     li 8645   3.167   4.197   2.282 -0.2007  1.0660 -0.1819
 1086lim     li 8646   0.757   5.553   1.049  0.8512 -0.1239  0.2679
 1087lim     li 8647   2.474   3.015   3.544 -1.0602  1.1737  1.1948
 1088lim     li 8648   2.857   3.700   5.910  0.2758  0.2644  0.6003
 1089lim     li 8649   3.496   5.805   2.840 -0.1224 -0.4339 -1.0637
 1090lim     li 8650   6.904   6.703   4.529  0.2011  1.5628  0.3839
 1091lim     li 8651   2.020   2.505   3.705  0.9851 -0.7217 -0.0617
 1092lim     li 8652   0.574   4.262   3.640  1.1826  0.6519  1.4182
 1093lim     li 8653   5.083   2.020   4.901  0.4722 -0.9315 -0.9796
 1094lim     li 8654   6.684   5.975   2.235 -0.2492  0.5401 -0.7209
 1095lim     li 8655   3.687   5.271   3.274 -0.1985  0.1157  0.1643
 1096lim     li 8656   1.810   1.892   4.585  0.5400 -0.1262  0.1786
 1097lim     li 8657   6.147   6.241   1.859 -0.1099 -0.6374  0.7442
 1098lim     li 8658   2.791   3.474   4.704  0.1158 -0.1510  0.5152
 1099lim     li 8659   6.880   5.393   6.305  0.7496  0.0855 -1.2475
 1100lim     li 8660   2.688   5.255   5.829 -0.1924  0.1956 -0.9718
 1101lim     li 8661   4.680   4.715   0.922  0.0032 -0.0499 -0.2061
 1102lim     li 8662   6.537   2.955   6.901 -0.9054 -0.1792  0.5113
 1103lim     li 8663   5.292   2.724   3.420  0.6832 -0.0119 -0.7561
 1104lim     li 8664   6.419   0.209   3.865  0.5787 -0.5320 -0.2672
 1105lim     li 8665   0.638   6.724   4.827 -0.1417 -0.9011 -0.6852
 1106lim     li 8666   1.195   6.497   2.086  0.0883 -0.1040  0.2351
 1107lim     li 8667   5.935   6.594   3.771 -0.5250 -0.4049 -0.6403
 1108lim     li 8668   5.285   5.685   2.943 -0.3562  0.1190 -1.5108
 1109lim     li 8669   3.833   5.142   5.096 -0.0030  0.3218  0.3332
 1110lim     li 8670   6.816   5.732   4.916  0.3753 -0.3482 -0.5651
 1111lim     li 8671   1.618   5.541   0.065 -0.4798  0.7940 -0.9461
 1112lim     li 8672   2.123   2.806   0.563  0.1376 -0.3543  0.1689
 1113lim     li 8673   5.516   4.447   6.525  0.4105  0.8567  0.7297
 1114lim     li 8674   3.592   6.843   1.948  0.9191 -0.1804 -0.9102
 1115lim     li 8675   2.413   0.292   5.280 -0.2922 -0.4482  0.7527
 1116lim     li 8676   6.148   3.796   5.440  0.3796  0.2118 -0.6102
 1117lim     li 8677   6.859   6.868   3.132 -0.0783  0.0637  1.0391
 1118lim     li 8678   5.401   2.049   0.538 -0.0962  1.3098  0.4249
 1119lim     li 8679   0.338   3.960   5.351  0.8814  0.0693  0.2332
 1120lim     li 8680   4.793   2.915   5.775 -0.2389  1.6225  0.3191
 1121lim     li 8681   5.985   0.262   4.834  0.3294 -0.1678  0.0020
 1122lim     li 8682   2.766   5.162   4.684 -0.2402  0.4867 -0.8103
 1123lim     li 8683   0.310   4.687   0.244 -0.4619 -0.8385  0.2682
 1124lim     li 8684   1.399   0.450   5.146  0.7909  1.0285 -0.4254
 1125lim     li 8685   3.784   3.000   2.128 -0.4801 -0.3933 -1.3853
 1126lim     li 8686   5.385   6.083   3.620  0.2128 -0.2209  0.1931
 1127lim     li 8687   4.295   0.506   4.766 -1.1800 -0.5569  1.0457
 1128lim     li 8688   4.453   2.054   5.193 -1.0642 -0.0287  0.7815
 1129lim     li 8689   2.681   4.646   0.087  0.0059  1.2044  0.2465
 1130lim     li 8690   2.224   3.864   2.978  0.1013  0.5326 -0.0865
 1131lim     li 8691   5.301   3.725   4.118  0.4758 -0.2229 -0.1590
 1132lim     li 8692   1.931   0.238   2.593 -0.8961  0.3307  1.1067
 1133lim     li 8693   3.878   3.738   4.638  0.0989  0.1091  0.0769
 1134lim     li 8694   3.941   6.314   3.810 -0.3020  0.7563  0.8647
 1135lim     li 8695   1.338   5.969   3.277 -0.1292  0.6138  0.2279
 1136lim     li 8696   1.227   1.118   4.526  1.4704  0.2846 -0.1498
 1137lim     li 8697   0.122   0.006   0.549 -0.8008 -0.0687  0.4981
 1138lim     li 8698   2.088   2.106   0.239  0.9907  0.1805 -0.3246
 1139lim     li 8699   0.225   3.745   0.551 -0.0215 -0.1333  0.4254
 1140lim     li 8700   0.709   2.029   2.676 -0.7598 -0.8021  0.4197
 1141lim     li 8701   0.446   2.474   0.242 -0.6681  0.3213  0.7130
 1142lim     li 8702   4.148   2.510   6.858  0.1525 -0.5551  0.3092
 1143lim     li 8703   1.854   4.626   0.006  1.1008 -1.0692 -1.8930
 1144lim     li 8704   5.576   4.245   3.571  0.5206  0.0982  0.4687
 1145lim     li 8705   1.356   5.713   5.889  0.0224  0.5135  0.9788
 1146lim     li 8706   0.265   6.287   0.163  0.0581  0.6290  1.5257
 1147lim     li 8707   4.125   4.828   1.507  2.0677 -0.5351  0.1179
 1148lim     li 8708   3.001   2.271   6.661  0.3895 -0.1449  0.1636
 1149lim     li 8709   6.188   5.355   5.892  1.5521  0.9158 -0.2535
 1150lim     li 8710   0.413   6.494   5.522 -0.3522  0.2164 -1.2369
 1151lim     li 8711   1.494   0.360   1.623 -0.3398 -0.2646 -0.4087
 1152lim     li 8712   2.590   6.448   4.325 -0.0711 -0.2106  0.0837
 1153lim     li 8713   0.991   0.479   0.011  0.9461  0.0046 -0.4154
 1154lim     li 8714   1.949   1.417   3.923 -0.7815 -0.4124 -0.5110
 1155lim     li 8715   0.288   2.359   3.367  0.0925 -0.3790 -1.0635
 1156lim     li 8716   4.404   6.521   0.042  0.6703 -0.5014  0.4290
 1157lim     li 8717   0.982   0.530   3.060 -0.0713  0.3954  0.7409
 1158lim     li 8718   4.754   6.621   2.366 -0.4565  0.4149 -0.6227
 1159lim     li 8719   4.442   3.947   1.373  1.6720 -0.5803  0.5871
 1160lim     li 8720   2.938   2.988   0.392  1.8422 -0.5631 -0.3335
 1161lim     li 8721   4.516   5.236   3.595 -0.2951  0.8067  0.1416
 1162lim     li 8722   4.913   5.776   2.119  0.6989  0.1275 -0.8007
 1163lim     li 8723   0.829   6.034   4.100  1.8357 -0.3806  0.1303
 1164lim     li 8724   0.168   6.537   6.348 -0.5129 -1.0510  0.7053
 1165lim     li 8725   2.732   5.654   6.654 -0.9565 -0.1871  1.0324
 1166lim     li 8726   6.036   1.740   1.220 -0.5923  0.5646  0.6223
 1167lim     li 8727   0.022   4.079   3.136 -0.4324  0.0369 -0.6484
 1168lim     li 8728   5.643   5.661   6.617 -0.0761  0.3888 -0.2014
 1169lim     li 8729   0.827   5.195   2.182  0.2277 -0.8613 -0.9593
 1170lim     li 8730   1.947   5.334   1.142  0.7508 -1.6236 -0.1216
 1171lim     li 8731   4.728   0.045   4.291 -0.0581  0.0115  0.5777
 1172lim     li 8732   4.152   0.468   3.767 -0.4619  0.4071  0.4517
 1173lim     li 8733   3.898   1.599   0.760  0.4665 -0.9863 -0.0437
 1174lim     li 8734   5.807   0.634   0.443  0.0830 -0.8049 -0.0666
 1175lim     li 8735   4.123   6.550   0.794 -0.1543 -0.1547  0.8526
 1176lim     li 8736   1.411   1.388   6.308  0.8330  0.3388 -0.1783
 1177lim     li 8737   1.362   2.350   3.783  0.6311  0.0732  0.6553
 1178lim     li 8738   6.235   0.925   2.380 -0.6795  0.4471 -1.5841
 1179lim     li 8739   5.370   1.040   3.301  0.7246 -0.0397  0.4375
 1180lim     li 8740   4.921   4.578   1.960  0.8615 -0.0434  0.9034
 1181lim     li 8741   4.650   0.575   6.318  1.3377  0.9939  1.4507
 1182lim     li 8742   6.459   4.539   2.299  0.0204  0.2953 -0.0032
 1183lim     li 8743   4.925   2.375   1.457 -0.0254 -0.3855 -0.4622
 1184lim     li 8744   3.918   2.274   1.828 -0.5058 -0.3375  0.4384
 1185lim     li 8745   2.586   3.143   6.511  0.4755 -0.1295 -0.4013
 1186lim     li 8746   4.605   5.750   4.095 -0.8636 -0.5059 -0.7236
 1187lim     li 8747   4.865   2.031   2.623  0.9230 -0.0131  0.2005
 1188lim     li 8748   6.201   0.275   3.070 -0.7158 -0.2938  1.4758
 1189lim     li 8749   5.330   6.386   2.797 -0.5412 -1.0604  0.0918
 1190lim     li 8750   1.274   4.188   2.435  0.8676  0.8652 -0.9016
 1191lim     li 8751   0.195   2.127   5.353 -1.0150 -0.1365 -0.9051
 1192lim     li 8752   1.375   2.229   0.485  0.1905 -0.4737 -0.8650
 1193lim     li 8753   6.445   1.650   0.249  0.9006  1.2634 -0.5581
 1194lim     li 8754   1.243   3.377   6.036  0.5833  1.4523 -0.8902
 1195lim     li 8755   6.255   3.031   0.676  0.3043  0.5736 -0.8694
 1196lim     li 8756   3.202   5.579   5.070 -0.6584 -0.9799  0.0905
 1197lim     li 8757   4.762   4.880   6.105 -0.1967 -0.6432 -0.2162
 1198lim     li 8758   4.523   0.714   2.088  0.4044  0.7055 -0.7789
 1199lim     li 8759   6.681   3.914   0.132 -0.1771 -0.2114  0.1107
 1200lim     li 8760   5.855   5.459   4.425  0.5665 -0.0149 -0.8912
 1201lim     li 8761   2.550   3.932   6.582 -0.6604 -0.2819  1.1366
 1202lim     li 8762   4.952   3.674   1.668 -0.4400  0.1272  0.0287
 1203lim     li 8763   6.772   0.993   5.303  0.5026  0.3771 -0.1708
 1204lim     li 8764   0.664   3.108   2.078 -1.1811  0.4472 -0.3718
 1205lim     li 8765   5.615   2.735   1.946  0.9040  0.9558  0.0555
 1206lim     li 8766   5.042   0.432   1.813 -0.3686  0.0589 -0.0307
 1207lim     li 8767   5.349   4.144   5.571  0.2678  0.4314 -0.4592
 1208lim     li 8768   2.868   1.192   0.756  0.3177 -0.1028 -1.7482
 1209lim     li 8769   4.458   4.366   6.397  1.1807  1.3596 -0.8419
 1210lim     li 8770   4.615   5.495   5.128  1.0111  1.1083  1.2300
 1211lim     li 8771   2.586   3.954   1.039  0.0543  0.3582  0.6046
 1212lim     li 8772   3.272   0.143   0.885 -1.0111 -0.1683 -1.0094
 1213lim     li 8773   3.527   0.293   4.289 -0.2567  0.1708  0.7886
 1214lim     li 8774   6.267   4.612   3.388  0.7633 -0.5186 -0.2492
 1215lim     li 8775   4.787   4.414   3.120 -0.9611  0.8473  0.2083
 1216lim     li 8776   2.299   1.220   1.834 -0.0598  1.1193  0.0707
 1217lim     li 8777   2.354   6.077   5.639  0.6231  0.9092  0.8827
 1218lim     li 8778   5.254   0.532   4.866  1.7332  1.1437  0.7016
 1219lim     li 8779   0.224   1.562   2.211 -0.8203  0.2189 -0.2383
 1220lim     li 8780   4.945   0.051   3.151  0.3892 -0.2011  0.5297
 1221lim     li 8781   0.376   4.765   5.498 -0.8596  0.4779 -0.4647
 1222lim     li 8782   4.839   5.481   1.347 -0.7156 -0.0205  0.7266
 1223lim     li 8783   2.981   4.462   3.837 -0.5972 -0.0349 -0.1248
 1224lim     li 8784   6.899   3.024   1.387  0.5975 -0.2922 -0.3463
 1225lim     li 8785   4.239   3.107   0.584 -1.1969  0.1130  0.5103
 1226lim     li 8786   1.514   4.811   3.652  0.4989  0.4404  0.4670
 1227lim     li 8787   6.320   4.890   6.485 -0.2914 -1.0712  0.9033
 1228lim     li 8788   6.571   0.094   1.179  0.4128 -0.5997 -1.0712
 1229lim     li 8789   3.608   1.805   3.377 -0.2923 -0.7446  1.1579
 1230lim     li 8790   3.894   2.784   5.819  0.1144  0.7695  1.0925
 1231lim     li 8791   6.539   1.974   5.060 -0.5098  0.6744 -0.1491
 1232lim     li 8792   6.283   5.319   0.141  0.7107  0.1667  0.9131
 1233lim     li 8793   4.719   4.395   4.196  0.6398 -0.3855  0.1662
 1234lim     li 8794   1.130   3.727   0.050  0.2422 -1.1677 -0.7388
 1235lim     li 8795   0.439   5.458   3.425  0.0608 -0.5029 -1.3268
 1236lim     li 8796   6.720   5.381   2.561 -0.0426 -1.9734 -0.4565
 1237lim     li 8797   6.760   5.301   5.399  0.1642  1.9631 -0.7307
 1238lim     li 8798   6.520   5.799   0.708 -0.1350 -0.1328  0.1878
 1239lim     li 8799   2.897   3.163   2.427 -1.0277 -1.1630  0.1138
 1240lim     li 8800   1.397   5.816   1.656 -0.8724  0.4295  0.4651
 1241lim     li 8801   0.996   4.743   0.459 -0.2961 -0.3714 -0.0132
 1242lim     li 8802   5.184   4.953   4.112  1.2092  0.2790 -0.0692
 1243lim     li 8803   3.048   2.715   3.542 -0.4096 -0.1075  0.7557
 1244lim     li 8804   1.268   6.637   3.131  0.2732 -0.8784 -0.3844
 1245lim     li 8805   1.950   3.767   5.098  1.0646 -0.7626  1.4635
 1246lim     li 8806   3.256   0.682   4.986  0.1458 -0.0735  0.4978
 1247lim     li 8807   5.335   4.721   0.134 -0.2903  0.8106  0.4934
 1248lim     li 8808   2.560   6.436   3.596  0.1244 -0.8086 -0.3029
 1249lim     li 8809   5.193   5.780   0.338 -1.0003 -0.5893 -0.5161
 1250lim     li 8810   2.515   1.843   4.784  1.6314 -0.9337  0.4255
 1251lim     li 8811   6.611   1.069   1.819 -0.7021 -0.0981 -0.1247
 1252lim     li 8812   6.432   3.591   5.928 -0.5881  0.2102 -0.3888
 1253lim     li 8813   2.508   5.925   1.692  0.1058  1.1846 -0.5633
 1254lim     li 8814   3.686   3.814   0.894 -0.3443 -0.8939 -0.2343
 1255lim     li 8815   3.982   4.175   3.237  1.2233  1.8589  1.0700
 1256lim     li 8816   4.968   1.877   3.927  0.5136  0.0019 -0.1646
 1257lim     li 8817   1.223   6.137   0.466 -0.4086  0.4004  0.4436
 1258lim     li 8818   0.194   2.180   1.338  0.4795 -0.4945 -0.5866
 1259lim     li 8819   2.704   0.484   2.788  0.3946 -1.2799  0.4121
 1260lim     li 8820   2.307   4.523   1.850  0.3849 -1.1153  0.0081
 1261lim     li 8821   2.290   1.050   4.466 -0.2051  1.6861  1.0673
 1262lim     li 8822   5.801   3.397   0.209  0.0355 -1.4343 -0.0309
 1263lim     li 8823   4.211   2.121   5.975 -0.5615  0.8379  1.1622
 1264lim     li 8824   3.323   6.823   3.321 -0.4999  0.8773 -0.0985
 1265lim     li 8825   3.400   4.440   0.452 -0.5393  1.2233 -1.1000
 1266lim     li 8826   1.183   4.420   5.458  0.4733 -0.4805 -1.4727
 1267lim     li 8827   3.793   3.132   5.304 -0.2278  0.1105 -0.9594
 1268lim     li 8828   6.634   5.436   3.798  0.3756  0.2870  0.5929
 1269lim     li 8829   0.106   6.210   1.134  1.0888  0.0781  1.2968
 1270lim     li 8830   2.440   1.599   1.135  0.0406  0.3250  0.4069
 1271lim     li 8831   5.195   6.536   1.823 -0.4093  0.3194 -1.8933
 1272lim     li 8832   3.890   3.185   3.344  0.6300  0.3158  0.6205
 1273lim     li 8833   1.140   5.505   4.830 -0.3955 -0.0365  0.0773
 1274lim     li 8834   3.599   2.432   0.670 -0.0158 -0.0410 -1.1366
 1275lim     li 8835   0.282   4.310   5.789  0.1489  0.6707  0.5517
 1276lim     li 8836   4.241   2.511   4.534 -0.7839 -0.6433 -0.4483
 1277lim     li 8837   0.889   4.946   3.439  0.9705 -1.4610  0.0154
 1278lim     li 8838   2.165   0.987   5.725 -0.5657  0.0777 -0.6644
 1279lim     li 8839   2.311   0.550   6.483  0.4849  0.5244  0.5978
 1280lim     li 8840   1.539   1.967   3.218 -0.6677 -0.8030  0.3981
 1281lim     li 8841   4.456   3.957   2.467 -0.1257 -0.4101  0.8630
 1282lim     li 8842   4.448   5.114   2.375  0.0500 -0.1013  0.0643
 1283lim     li 8843   0.647   2.891   4.748 -0.7518 -0.6933  0.4556
 1284lim     li 8844   3.429   4.490   1.565 -0.3332  0.2235 -0.3675
 1285lim     li 8845   5.225   2.902   0.007 -0.1876  0.2821  0.0457
 1286lim     li 8846   2.648   6.088   5.140  0.3977 -0.1929 -0.1824
 1287lim     li 8847   1.583   2.973   6.885  0.8393  0.0355  0.0544
 1288lim     li 8848   2.785   4.483   4.580  0.5591 -1.1651  0.7982
 1289lim     li 8849   0.389   0.733   4.291 -0.6345  0.3903 -0.1886
 1290lim     li 8850   6.716   2.575   4.214 -0.1904  0.4354  0.6747
 1291lim     li 8851   0.204   2.173   6.470 -0.7045  0.2859  0.5636
 1292lim     li 8852   6.182   3.970   6.389  0.0370  0.2956  1.3122
 1293lim     li 8853   1.898   2.883   2.594 -1.1872  0.3336  0.0202
 1294lim     li 8854   6.372   2.196   1.747  1.1673  0.4229  0.0920
 1295lim     li 8855   3.935   4.834   3.781  0.5190 -0.6814 -1.3511
 1296lim     li 8856   1.762   5.017   1.824  0.4612  0.4364 -0.2548
 1297lim     li 8857   3.227   1.941   1.529 -0.7631 -0.5788 -0.1147
 1298lim     li 8858   6.516   6.709   5.074  0.9437 -0.0418 -0.2616
 1299lim     li 8859   3.714   5.537   0.539  1.5698 -0.3505 -0.1977
 1300lim     li 8860   2.684   2.357   1.028  0.5312  0.0454  0.0135
 1301lim     li 8861   6.855   0.909   3.526  0.3859  1.1841 -0.6364
 1302lim     li 8862   4.698   3.640   3.480 -0.0268 -0.4283 -0.3102
 1303lim     li 8863   3.390   4.948   6.665  0.6233  0.0686 -0.6672
 1304lim     li 8864   4.243   1.240   5.332 -0.1959 -1.0551 -0.4005
 1305lim     li 8865   3.220   6.563   4.596 -0.8781 -0.0428  1.9678
 1306lim     li 8866   4.393   1.069   5.999 -0.6149 -0.1528  0.6708
 1307lim     li 8867   5.398   6.892   0.216  0.1385  0.5414 -0.7819
 1308lim     li 8868   1.355   2.862   0.995 -0.5658  0.2030  0.2832
 1309lim     li 8869   6.704   2.988   3.604 -0.3060  1.3651  0.1718
 1310lim     li 8870   0.277   4.677   1.800  0.9673 -0.3251  0.0218
 1311lim     li 8871   3.425   5.287   2.022 -0.5136  1.0502  0.7108
 1312lim     li 8872   4.965   3.344   2.364  0.2429  0.3043 -0.8942
 1313lim     li 8873   3.225   3.520   1.528  0.0567 -0.4020  0.8846
 1314lim     li 8874   3.240   5.762   4.127 -1.2070 -0.5807 -0.6152
 1315lim     li 8875   6.347   3.363   2.194  0.0874 -0.5668 -1.2232
 1316lim     li 8876   4.929   6.357   4.639  0.6537 -0.1449 -1.4363
 1317lim     li 8877   4.043   0.356   6.047 -0.2239  0.6123 -0.2799
 1318lim     li 8878   1.725   3.201   3.082 -1.1646  0.0439 -1.0650
 1319lim     li 8879   1.986   0.165   0.599 -1.0187  0.7065 -0.3396
 1320lim     li 8880   5.141   6.237   0.733 -0.8842  0.2488  0.7659
 1321lim     li 8881   2.014   6.007   3.541  1.2246 -0.8157  1.1691
 1322lim     li 8882   2.980   6.818   5.558 -0.2472  0.3628  0.5151
 1323lim     li 8883   6.406   6.358   6.445 -0.4250  0.1500 -1.1062
 1324lim     li 8884   1.692   1.224   0.133 -0.8613 -0.5430 -0.0571
 1325lim     li 8885   4.578   3.646   4.878  0.8244  0.4303  0.1827
 1326lim     li 8886   1.987   6.216   6.150 -0.3772  0.7063  0.6009
 1327lim     li 8887   2.892   5.508   0.424  0.8842 -0.5484 -0.6336
 1328lim     li 8888   5.980   4.575   0.509  0.4357  0.0370 -0.6116
 1329lim     li 8889   5.693   2.219   6.073  0.7183  0.1411 -0.0243
 1330lim     li 8890   0.854   5.513   6.758  0.1908  0.1556 -0.8584
 1331lim     li 8891   3.756   4.063   3.923 -0.5696 -0.4519  0.6330
 1332lim     li 8892   4.392   0.095   3.396  1.0778  0.2285 -0.7948
 1333lim     li 8893   6.752   1.477   1.255 -1.4012  0.0273 -0.6811
 1334lim     li 8894   5.156   3.817   0.609  0.6505  0.2830  0.2982
 1335lim     li 8895   6.524   5.868   3.166 -0.0973  0.6286 -0.0364
 1336lim     li 8896   2.715   4.841   2.632 -0.0928 -0.0300  0.5465
 1337lim     li 8897   0.885   1.817   0.931 -0.3049 -0.9892  0.0629
 1338lim     li 8898   0.278   6.313   1.927  0.3458 -0.4733 -1.1634
 1339lim     li 8899   3.300   3.044   1.215 -0.8679 -0.4016  0.1870
 1340lim     li 8900   5.312   3.358   2.902 -0.2423 -0.4521 -0.9623
 1341lim     li 8901   6.630   3.191   4.912 -1.2079  0.5079 -0.4220
 1342lim     li 8902   3.677   4.709   2.681 -0.6052 -0.5596  0.9855
 1343lim     li 8903   0.566   6.060   3.000 -1.0973 -0.1614  0.4324
 1344lim     li 8904   5.158   3.005   4.286  0.9440  0.1106 -0.5208
 1345lim     li 8905   3.156   1.122   5.857  0.3499 -1.0056 -0.6389
 1346lim     li 8906   5.458   2.199   2.300 -0.2458 -0.0925  0.6267
 1347lim     li 8907   3.670   6.173   5.091 -0.1622 -0.0609  0.2238
 1348lim     li 8908   4.385   1.729   1.164  0.0833  0.3568  0.0036
 1349lim     li 8909   3.402   1.437   5.122 -1.5908 -0.4384 -0.1767
 1350lim     li 8910   1.283   6.672   4.707  1.5077  0.1181  0.2354
 1351lim     li 8911   4.164   4.664   0.683  0.4934 -0.1231 -0.2389
 1352lim     li 8912   1.570   0.908   2.410 -0.4744  0.7776 -0.2429
 1353lim     li 8913   5.763   2.562   2.794 -0.0784  0.1943  0.8161
 1354lim     li 8914   6.417   2.400   3.409  0.1099 -1.1972 -0.1537
 1355lim     li 8915   5.845   4.150   2.051  0.0351 -0.3534  0.5239
 1356lim     li 8916   3.158   0.546   6.289 -0.1340 -0.2849  0.3769
 1357lim     li 8917   1.085   4.748   4.471  0.2376 -1.0586  0.6030
 1358lim     li 8918   1.192   1.362   1.815  0.4728  0.7597 -0.0413
 1359lim     li 8919   3.889   3.880   1.997 -0.5573  0.2330 -0.9615
 1360lim     li 8920   6.191   1.498   6.039 -0.5567  0.1274  1.0353
 1361lim     li 8921   0.132   3.137   5.540 -0.3972 -0.2071  0.3862
 1362lim     li 8922   4.642   4.017   5.551  0.6279  1.4200  0.0557
 1363lim     li 8923   4.295   1.200   3.508 -1.2557  0.4426  0.2023
 1364lim     li 8924   3.317   1.879   4.188  0.4601 -0.5704 -0.6527
 1365lim     li 8925   1.622   0.120   4.086 -0.8001  0.9884  0.1397
 1366lim     li 8926   5.737   4.135   2.803 -0.3829  0.1559 -0.6255
 1367lim     li 8927   2.539   5.656   3.173  0.4293  0.8998 -1.1605
 1368lim     li 8928   1.984   6.743   6.463  0.4808 -0.6248  1.2523
 1369lim     li 8929   5.988   0.823   3.891  1.8805 -0.8969  0.4688
 1370lim     li 8930   6.439   2.236   2.633 -0.7733  0.5199 -0.0813
 1371lim     li 8931   6.403   0.923   0.959 -0.9189  0.3892  0.3587
 1372lim     li 8932   2.677   1.990   3.389  0.1707  0.2104  0.0916
 1373lim     li 8933   3.502   5.966   1.943 -0.2086 -0.7251 -0.2341
 1374lim     li 8934   6.340   4.403   1.675  0.3890  1.4190 -0.8672
 1375lim     li 8935   0.241   4.809   2.721 -0.4045  0.8238 -0.2948
 1376lim     li 8936   0.959   3.516   4.404 -0.6790 -0.7956  0.9180
 1377lim     li 8937   3.088   3.837   5.105 -0.3493 -0.2919  1.8505
 1378lim     li 8938   3.163   2.016   5.507 -0.7681  0.7034 -0.8904
 1379lim     li 8939   5.573   5.472   2.202  0.4355  0.5845  0.9464
 1380lim     li 8940   6.125   6.315   5.422 -0.0686  0.0427  0.2321
 1381lim     li 8941   0.162   0.720   6.119 -0.5156  0.2105 -1.4305
 1382lim     li 8942   2.078   0.341   3.399  0.1136  0.7461  1.6458
 1383lim     li 8943   2.062   6.151   0.725 -0.5645  0.2214  1.0541
 1384lim     li 8944   1.897   6.652   1.723  0.2900  0.1473 -0.3313
 1385lim     li 8945   4.459   3.132   3.785  0.7901 -0.1745 -0.5341
 1386lim     li 8946   3.752   3.863   5.881  0.1837 -0.0789 -0.8343
 1387lim     li 8947   5.687   1.370   5.430  1.2222  0.0650 -1.0341
 1388lim     li 8948   1.662   5.359   2.575  0.3289 -1.5259  0.3846
 1389lim     li 8949   0.702   0.050   2.508 -0.3846  0.5364  0.2336
 1390lim     li 8950   5.627   1.929   4.402 -0.9973  0.3939 -0.4025
 1391lim     li 8951   2.390   3.768   2.058 -0.3167 -0.2882 -0.0938
 1392lim     li 8952   5.908   3.607   1.464  0.5403 -0.4198 -0.0023
 1393lim     li 8953   0.936   1.524   5.164  0.0103  0.2194 -0.0438
 1394lim     li 8954   2.140   5.019   3.477 -0.8622 -0.9901 -0.5026
 1395lim     li 8955   0.879   2.107   4.250 -0.6510  0.2329 -0.3642
 1396lim     li 8956   1.464   2.937   5.347 -0.9673 -0.4306 -0.2377
 1397lim     li 8957   2.971   5.386   3.600 -0.1704 -1.0675  0.3608
 1398lim     li 8958   2.308   6.355   0.019 -0.6350  0.0114  0.3433
 1399lim     li 8959   6.391   4.008   0.800 -0.3842  0.7150  0.2942
 1400lim     li 8960   2.026   1.568   2.833 -0.2296  0.9859  0.5023
 1401lim     li 8961   3.623   4.008   6.560 -0.6731  1.3134  0.1532
 1402lim     li 8962   5.516   6.694   6.223 -0.8813 -0.1858  0.8259
 1403lim     li 8963   6.154   1.033   4.993  0.0907 -1.6436 -0.5002
 1404lim     li 8964   5.814   6.113   4.675  0.0783  0.2271 -0.4364
 1405lim     li 8965   6.889   0.497   2.320 -0.4616 -1.0769  0.7566
 1406lim     li 8966   3.976   1.978   4.414 -0.6432  0.2723  0.0333
 1407lim     li 8967   1.910   6.303   2.718 -0.5052 -0.0361 -0.7157
 1408lim     li 8968   0.228   4.847   4.073 -1.6794 -0.0552 -0.6894
 1409lim     li 8969   4.166   6.013   1.289  0.0512 -0.7619  0.9568
 1410lim     li 8970   4.111   0.320   1.245 -0.2642  0.3580 -0.8674
 1411lim     li 8971   0.672   1.578   5.776 -0.2135  0.5765  0.3012
 1412lim     li 8972   2.085   2.650   5.792 -0.0219 -0.2091 -0.4585
 1413lim     li 8973   2.867   2.848   5.435 -0.5539 -0.9525  0.7641
 1414lim     li 8974   3.590   0.859   0.786  0.1716 -0.0725 -1.5743
 1415lim     li 8975   4.169   5.914   2.191 -0.6666  1.5632 -0.4607
 1416lim     li 8976   5.576   2.407   5.179 -1.0156  0.2434 -0.1969
 1417lim     li 8977   5.239   6.005   5.740  0.1224 -0.2446 -0.0325
 1418lim     li 8978   0.395   3.076   0.430  0.5784 -0.0186 -0.3015
 1419lim     li 8979   3.657   6.212   6.043 -1.0266  0.2851 -0.5383
 1420lim     li 8980   2.812   1.853   2.596 -0.3916 -1.1011  0.1380
 1421lim     li 8981   1.926   1.209   0.693  1.4570  1.1024  0.7866
 1422lim     li 8982   3.978   6.388   4.663 -0.1562 -0.2420  0.0238
 1423lim     li 8983   2.401   2.178   3.993 -0.6300  0.3035 -0.4874
 1424lim     li 8984   2.947   4.746   0.887 -0.1865 -0.0749 -0.5165
 1425lim     li 8985   2.991   4.687   5.504 -0.5649  0.0285 -0.0722
 1426lim     li 8986   2.966   5.259   1.547  0.2077  0.3064 -0.0205
 1427lim     li 8987   4.225   1.572   1.896 -0.9378 -0.2782  0.0673
 1428lim     li 8988   5.316   5.311   1.021  0.6282  0.3015 -0.6537
 1429lim     li 8989   1.331   2.179   2.044  1.5159  1.0766  0.4231
 1430lim     li 8990   6.854   1.399   6.425  1.4117 -0.4230  0.4977
 1431lim     li 8991   1.085   4.141   1.541  0.3681  1.1331  0.6097
 1432lim     li 8992   2.534   1.679   5.762  0.1620 -0.3430 -0.4337
 1433lim     li 8993   4.505   5.444   0.498 -0.3769 -1.1039  0.4374
 1434lim     li 8994   4.899   2.024   3.305 -0.1324 -0.5328  0.4336
 1435lim     li 8995   1.488   1.090   3.389 -0.1419 -0.4058 -0.4742
 1436lim     li 8996   5.629   5.001   3.375 -0.1307 -0.0377  0.3063
 1437lim     li 8997   1.955   4.480   4.470  0.1418 -0.0597 -0.2050
 1438lim     li 8998   0.115   2.535   2.337 -0.5339  0.0933  0.0864
 1439lim     li 8999   4.837   2.750   0.713  0.1707 -0.1368  0.9648
 1440lim     li 9000   4.221   1.874   2.806 -0.0664  0.0559 -0.8338
 1441lim     li 9001   3.794   0.739   3.026  0.0358  0.0223  0.5006
 1442lim     li 9002   0.677   1.425   3.709  0.3809  1.4209  0.7650
 1443lim     li 9003   2.214   3.985   5.536 -0.0794  1.6980 -0.5446
 1444lim     li 9004   6.025   1.438   2.886  0.6314  0.5422  0.4298
 1445lim     li 9005   5.577   1.836   3.490  1.1481 -0.1697  2.2818
 1446lim     li 9006   5.072   5.017   5.215 -0.4012  0.9495  0.7544
 1447lim     li 9007   1.146   4.725   1.387  0.2496  0.2768  1.7468
 1448lim     li 9008   0.454   3.962   6.294  0.3714  0.7800 -0.6298
 1449lim     li 9009   1.821   4.465   0.875 -0.9138 -0.4128 -0.1662
 1450lim     li 9010   2.912   6.346   2.698 -0.3261 -0.0602  0.3591
 1451lim     li 9011   0.833   3.581   5.461  0.5421 -0.1797 -0.1346
 1452lim     li 9012   0.774   1.438   0.016 -0.3836  1.0567  0.9188
 1453lim     li 9013   5.316   1.312   1.872  0.4941 -0.2414 -0.9623
 1454lim     li 9014   5.425   0.117   3.624 -0.6714 -0.4532  0.5210
 1455lim     li 9015   0.669   0.255   3.893  0.0789  1.2256 -1.5176
 1456lim     li 9016   5.215   0.337   5.393  0.5721  1.4395 -0.0264
 1457lim     li 9017   1.370   4.087   3.552  0.7092 -0.1462 -0.0840
 1458lim     li 9018   6.222   4.359   5.093 -0.1191  1.1392 -0.2785
 1459lim     li 9019   6.048   3.147   4.177 -0.0279  0.2207 -0.6254
 1460lim     li 9020   2.151   5.148   6.354 -0.1619  0.3716 -0.3287
 1461lim     li 9021   5.426   1.321   1.036  0.2984  0.4478  0.3703
 1462lim     li 9022   2.969   6.562   6.513  0.3838  1.1372  0.9847
 1463lim     li 9023   6.692   2.286   0.727 -0.7281 -0.0851  0.4455
 1464lim     li 9024   5.263   3.488   1.025 -0.1647 -1.0907 -1.3106
 1465lim     li 9025   3.751   0.973   4.549 -0.4237  0.0135 -0.9322
 1466lim     li 9026   3.064   1.025   3.606  0.4449  0.8991 -0.1149
 1467lim     li 9027   3.874   5.438   4.424  0.2072 -0.2973  0.6808
 1468lim     li 9028   1.157   3.601   1.992  1.0738  0.6753  0.1171
 1469lim     li 9029   0.294   0.628   0.071 -0.7624  1.0652 -0.1278
 1470lim     li 9030   0.425   4.300   4.895 -0.4218 -1.8553 -0.6514
 1471lim     li 9031   2.562   0.332   0.330 -0.7235  0.1680 -0.2827
 1472lim     li 9032   3.935   0.140   2.423  0.6124  1.3308  0.4911
 1473lim     li 9033   4.708   2.980   4.999  0.1447 -0.3337 -0.5146
 1474lim     li 9034   5.398   0.567   1.006 -1.6820 -0.3096  0.2602
 1475lim     li 9035   5.726   1.984   6.784  0.0025  0.6959 -0.1941
 1476lim     li 9036   2.681   0.431   3.968  0.5531 -1.3008 -0.7446
 1477lim     li 9037   3.364   2.496   2.456  0.0357 -1.1758 -0.7001
 1478lim     li 9038   2.158   1.992   2.223 -0.5485  0.9756 -0.2651
 1479lim     li 9039   5.500   5.522   5.132 -0.3521  0.7370 -0.7293
 1480lim     li 9040   2.703   2.286   5.954 -0.4863  0.3305  0.2071
 1481lim     li 9041   5.972   2.942   5.001  0.4189  0.3999 -0.5153
 1482lim     li 9042   6.056   0.110   5.804 -0.6012 -0.1487  0.2187
 1483lim     li 9043   6.053   4.128   4.593  0.3916 -1.0949  0.3243
 1484lim     li 9044   0.596   2.988   3.810  0.7224  0.2015  0.6230
 1485lim     li 9045   4.559   6.418   5.937  0.8262 -0.8001  0.3838
 1486lim     li 9046   0.288   4.055   2.444  0.2823  1.2081 -0.2113
 1487lim     li 9047   3.061   6.289   0.775  0.7863 -0.5425 -0.2263
 1488lim     li 9048   4.471   3.786   0.197 -0.7480  0.0668  0.6896
 1489lim     li 9049   0.441   5.597   4.587  1.2918  0.8812 -0.9420
 1490lim     li 9050   2.730   3.737   0.345  0.4451  0.7697 -1.2717
 1491lim     li 9051   0.894   3.433   1.241  0.1255  0.9604  0.2370
 1492lim     li 9052   2.085   5.316   0.596 -0.2779  1.2327  0.5995
 1493lim     li 9053   6.336   1.768   3.837 -0.6567  0.5937 -0.5882
 1494lim     li 9054   0.548   1.395   1.536  1.3784  0.4529 -0.5048
 1495lim     li 9055   6.355   5.892   3.929  0.4428 -0.0985 -0.1467
 1496lim     li 9056   1.823   2.187   1.459  0.0070 -0.8282 -0.1100
 1497lim     li 9057   1.955   3.854   6.301  0.1792 -0.0416 -0.1249
 1498lim     li 9058   1.439   2.782   4.764 -1.3594  0.2442  0.7760
 1499lim     li 9059   4.592   6.570   1.190 -0.7913  0.9000 -0.0722
 1500lim     li 9060   1.548   2.226   5.312 -0.6012 -0.4235  0.5374
 1501lim     li 9061   5.929   1.114   6.556  0.4666  1.5442 -0.6867
 1502lim     li 9062   1.883   4.449   2.798 -0.0734  0.7927  0.9765
 1503lim     li 9063   4.365   3.190   6.457  1.0695  0.4579 -1.2955
 1504lim     li 9064   3.786   0.171   5.351 -0.7676  0.3093  0.0315
 1505lim     li 9065   5.976   3.386   3.323  0.0557 -0.1752  0.1559
 1506lim     li 9066   0.045   1.277   4.678 -0.7314 -0.1003  0.4613
 1507lim     li 9067   4.009   5.896   6.555 -1.1437  0.2130  0.2039
 1508lim     li 9068   5.163   4.402   4.889  1.7924  1.1312  0.0601
 1509lim     li 9069   2.859   6.555   1.244  0.4103  0.2332 -0.1374
 1510lim     li 9070   0.346   5.621   0.336  0.1988  0.4296 -0.2302
 1511lim     li 9071   4.707   1.305   4.734 -0.7317  1.6139 -0.2528
 1512lim     li 9072   0.117   1.557   3.056  0.0309 -0.0526  1.2028
 1513lim     li 9073   0.765   0.342   6.043  0.4080  1.3865 -0.0295
 1514lim     li 9074   0.029   3.789   1.780 -0.8753 -0.3703 -0.4361
 1515lim     li 9075   6.384   1.776   4.485 -0.1044 -1.0063 -1.8169
 1516lim     li 9076   5.065   1.626   5.925 -1.1116 -0.7487  0.6566
 1517lim     li 9077   4.393   5.104   6.840 -0.7689  0.7710  0.0289
 1518lim     li 9078   0.211   2.008   4.198 -0.4610  0.6184 -0.0841
 1519lim     li 9079   2.260   3.994   3.845  0.1962 -1.3463 -0.2286
 1520lim     li 9080   0.563   6.831   1.196  1.2495 -1.1805 -0.5420
 1521lim     li 9081   3.240   3.475   2.990  0.3343  0.3733  0.6970
 1522lim     li 9082   1.821   4.911   5.484  0.3579  1.2415 -0.1734
 1523lim     li 9083   4.318   5.946   3.128  1.0697 -1.4060 -0.4426
 1524lim     li 9084   1.427   6.132   5.136 -0.4886 -0.2878 -0.4349
 1525lim     li 9085   2.979   0.935   6.772 -0.7145  0.6065 -0.3671
 1526lim     li 9086   5.177   4.436   1.085  0.2181  0.2550  0.9063
 1527lim     li 9087   1.113   0.496   0.636  0.3896 -0.0150  0.7081
 1528lim     li 9088   2.776   2.409   1.960 -0.5732 -0.6191 -0.4791
 1529lim     li 9089   4.701   1.420   0.155  0.8820  1.1726 -0.8010
 1530lim     li 9090   0.113   6.365   3.847  0.5588 -0.4441 -0.2997
 1531lim     li 9091   3.429   5.757   6.225  0.7193 -0.9562  0.2771
 1532lim     li 9092   6.462   3.907   3.718 -0.4323 -0.2971  0.8980
 1533lim     li 9093   2.164   0.185   4.699 -0.0017 -0.2190 -1.2292
 1534lim     li 9094   5.589   1.582   2.345  0.2574  0.0895  0.2663
 1535lim     li 9095   5.614   2.662   0.941  0.0951 -0.4693  0.1569
 1536lim     li 9096   1.121   3.317   3.753 -0.1073 -0.6346 -0.4591
 1537lim     li 9097   1.032   5.252   6.075  0.2381  1.2940 -0.3797
 1538lim     li 9098   2.192   5.430   4.156 -0.3399 -1.4041 -0.5510
 1539lim     li 9099   6.759   0.162   5.794 -0.3492 -0.7894 -0.0503
 1540lim     li 9100   1.357   1.153   1.119 -0.3624 -0.5110 -1.1296
 1541lim     li 9101   3.420   1.729   0.003 -0.0107 -0.7881 -1.8037
 1542lim     li 9102   4.869   5.620   6.518  0.9834 -1.0242  0.7194
 1543lim     li 9103   4.123   4.904   5.719  0.0787 -1.2835 -0.4506
 1544lim     li 9104   2.515   5.559   2.518  1.2657 -0.7038  0.9124
 1545lim     li 9105   5.961   6.229   0.015  1.3335 -1.0786 -0.8885
 1546lim     li 9106   5.928   0.361   1.856 -0.0811 -0.9235 -0.4222
 1547lim     li 9107   0.423   0.944   2.771 -0.3833 -1.1860  0.8417
 1548lim     li 9108   3.150   1.415   2.500  0.2556  1.9449  0.8379
 1549lim     li 9109   4.982   5.054   3.196  1.4295 -0.3986 -0.6815
 1550lim     li 9110   5.358   1.147   4.533  0.2591 -0.3196 -0.6390
 1551lim     li 9111   0.996   2.778   2.777  0.1998  0.0028 -1.1749
 1552lim     li 9112   3.908   0.813   0.091  0.2991 -0.0176 -0.5417
 1553lim     li 9113   5.221   0.583   4.023 -0.1630 -0.6532 -0.6631
 1554lim     li 9114   3.337   3.030   6.624 -0.2944 -0.0412  1.1835
 1555lim     li 9115   0.847   2.759   5.690  0.0478  0.6003 -1.0989
 1556lim     li 9116   0.151   1.262   0.453  1.3031 -0.4924  0.9311
 1557lim     li 9117   3.574   6.687   6.897 -0.0186 -0.0073 -0.2483
 1558lim     li 9118   0.148   4.700   6.475  1.4089 -0.7643  0.1152
 1559lim     li 9119   2.366   1.409   6.621  0.8906 -0.5147  0.4734
 1560lim     li 9120   3.585   1.786   6.053 -0.6200 -0.0228  0.7310
 1561lim     li 9121   6.597   6.718   2.184 -2.1141 -0.9820  0.4240
 1562lim     li 9122   6.137   2.556   6.580 -0.3433 -0.8713 -0.8669
 1563lim     li 9123   3.143   4.688   6.053 -0.2095  0.9998 -0.2129
 1564lim     li 9124   0.971   3.411   3.127  0.9537  1.4126  0.0126
 1565lim     li 9125   0.138   4.783   1.077  0.3759  0.3494  0.6379
 1566lim     li 9126   0.654   5.966   6.027 -0.1073  0.2610  0.1471
 1567lim     li 9127   5.847   6.685   0.994  0.9565 -0.9870  1.1560
 1568lim     li 9128   1.729   6.667   5.503 -0.0725  0.8354 -0.7681
 1569lim     li 9129   6.704   5.433   1.406  0.6956  0.3178 -0.5147
 1570lim     li 9130   6.661   3.236   2.820 -0.6074 -0.6294 -0.7960
 1571lim     li 9131   4.609   2.034   6.843 -0.5171 -0.2985 -0.0265
 1572lim     li 9132   6.406   2.646   5.789 -0.0129  0.2876 -1.2258
 1573lim     li 9133   1.801   3.716   0.543  0.1008 -0.0149  1.0916
 1574lim     li 9134   0.767   3.898   0.808  0.6309 -0.2186 -0.8760
 1575lim     li 9135   1.077   6.409   6.535  0.2668  0.0712 -0.4522
 1576lim     li 9136   1.699   1.224   5.207  0.7156  0.6405 -0.8415
 1577lim     li 9137   5.588   3.182   6.185  0.7337 -0.6826  0.6720
 1578lim     li 9138   3.223   0.822   1.591  0.8946  0.1916 -0.1911
 1579lim     li 9139   3.569   0.815   2.338 -0.2831  0.4120 -0.1865
 1580lim     li 9140   4.041   2.615   1.358 -0.2266 -0.1444  0.1093
 1581lim     li 9141   4.613   0.019   5.404  0.3394  0.0035 -0.1921
 1582lim     li 9142   5.940   4.828   5.728  0.5439 -0.6479  0.0150
 1583lim     li 9143   1.487   6.229   3.980 -0.4146  0.2268 -0.3663
 1584lim     li 9144   5.614   0.611   2.687 -1.9396 -1.0043  0.5921
 1585lim     li 9145   5.234   1.129   6.431  0.1340  0.8524  0.0359
 1586lim     li 9146   0.928   0.585   2.023 -0.0195 -0.3694  0.4636
 1587lim     li 9147   1.767   2.977   1.737 -1.5428  0.5241 -0.2003
 1588lim     li 9148   2.561   0.221   1.205  0.0263 -0.6600 -0.0234
 1589lim     li 9149   4.576   0.790   1.058  0.5779 -0.8985  0.0453
 1590lim     li 9150   6.056   6.409   2.826 -0.6982  0.5718  0.7144
 1591lim     li 9151   3.418   3.197   4.166  0.2325 -0.3215  0.2952
 1592lim     li 9152   4.599   0.441   0.330  0.7755  0.7767 -0.2782
 1593lim     li 9153   1.405   6.764   1.058  0.4844 -1.1795  0.9090
 1594lim     li 9154   4.371   2.923   2.777 -0.4746  0.1764 -1.0327
 1595lim     li 9155   4.723   1.032   2.727 -0.0693  0.9622 -0.9415
 1596lim     li 9156   6.889   3.668   4.133 -0.4778 -0.1146  1.4640
 1597lim     li 9157   5.057   2.404   6.074  0.2866 -0.2480 -0.0968
 1598lim     li 9158   0.922   5.039   2.777 -0.7691 -0.8243  0.3415
 1599lim     li 9159   2.298   3.230   1.325  0.0950  0.7677 -0.2378
 1600lim     li 9160   4.000   2.414   3.554  0.2645 -1.5306  0.0934
 1601lim     li 9161   2.496   0.991   3.038  0.6412 -0.7328 -0.2110
 1602lim     li 9162   1.934   3.269   4.512  0.1070 -1.1517  0.3921
 1603lim     li 9163   1.703   0.539   6.366  0.6785 -0.8374 -0.1060
 1604lim     li 9164   3.098   4.486   3.138  0.4839  0.0499  0.3956
 1605lim     li 9165   5.101   3.857   6.383  0.3603  0.0831 -0.0174
 1606lim     li 9166   2.721   2.686   4.635  0.5439 -0.2905  0.4521
 1607lim     li 9167   3.606   2.465   4.894  0.5222  0.2217 -0.9349
 1608lim     li 9168   6.458   0.394   0.124  0.5383  0.8061 -1.0598
 1609lim     li 9169   0.596   0.772   5.248 -0.1869  0.8656  0.5765
 1610lim     li 9170   2.403   0.540   1.782 -0.0234  0.0142 -0.8396
 1611lim     li 9171   0.990   2.122   6.384  0.3661 -0.9491 -0.3951
 1612lim     li 9172   1.268   4.397   6.567  0.4276  0.0100  0.6072
 1613lim     li 9173   5.775   5.866   1.217 -0.3183  0.9713 -1.2156
 1614lim     li 9174   4.183   5.961   5.593 -0.8907  0.1380  0.7352
 1615lim     li 9175   2.895   3.677   3.786  0.8506  0.4712  1.1884
 1616lim     li 9176   0.425   0.533   1.406 -0.9497  0.4429 -0.1801
 1617lim     li 9177   0.450   2.997   6.411 -0.0130 -0.7010  0.3700
 1618lim     li 9178   3.928   4.405   5.129 -0.2692 -0.5944  0.5433
 1619lim     li 9179   2.810   6.867   2.313 -0.2218 -0.0149 -0.1521
 1620lim     li 9180   5.671   0.552   6.098 -0.1791 -0.8793  0.4007
 1621ntf    cn1 9181   2.809   6.055   3.016 -0.1970 -0.1116  0.1166
 1621ntf    sn2 9182   2.963   6.089   2.926  0.0354  0.0467  0.5736
 1621ntf    nn3 9183   3.048   6.120   3.055  0.7643  0.0398  0.1025
 1621ntf    sn2 9184   3.072   6.261   3.118 -0.0380  0.1898  0.0842
 1621ntf    cn1 9185   3.004   6.237   3.285 -0.0827  0.1424  0.0590
 1621ntf    fn4 9186   2.839   5.999   3.132  0.1958 -0.7609 -0.2977
 1621ntf    fn4 9187   2.744   6.167   3.046  0.2738  0.0880  0.3954
 1621ntf    fn4 9188   2.725   5.969   2.960  0.0123  0.0620 -0.4686
 1621ntf    on5 9189   3.002   5.963   2.868  0.1683  0.4970 -0.3218
 1621ntf    on5 9190   2.938   6.198   2.835 -0.0599 -0.3173  0.1647
 1621ntf    on5 9191   2.988   6.366   3.066  0.0378  0.2915  0.1661
 1621ntf    on5 9192   3.208   6.291   3.154  0.1124 -0.8266  0.3927
 1621ntf    fn4 9193   3.080   6.179   3.377  0.2567  0.2904 -0.1255
 1621ntf    fn4 9194   2.959   6.353   3.331  0.0086  0.0638  0.3504
 1621ntf    fn4 9195   2.899   6.157   3.278 -0.1296  0.2465 -0.5218
 1622ntf    cn1 9196   6.740   6.674   5.645  0.0855 -0.0949  0.1914
 1622ntf    sn2 9197   6.689   6.736   5.808  0.0101  0.2896  0.0236
 1622ntf    nn3 9198   6.538   6.766   5.776 -0.1875 -0.6177  0.0814
 1622ntf    sn2 9199   6.408   6.780   5.862 -0.0754 -0.0613  0.1646
 1622ntf    cn1 9200   6.329   6.619   5.832  0.3191 -0.1925 -0.1825
 1622ntf    fn4 9201   6.702   6.548   5.631 -0.4952  0.0792  0.2082
 1622ntf    fn4 9202   6.695   6.750   5.547 -0.3737 -0.2804  0.2591
 1622ntf    fn4 9203   6.872   6.684   5.642  0.1093 -0.4185  0.1498
 1622ntf    on5 9204   6.728   6.624   5.891  0.3675  0.5422  0.2020
 1622ntf    on5 9205   6.757   6.860   5.834 -0.1446  0.4741 -0.4599
 1622ntf    on5 9206   6.314   6.870   5.799  0.3577 -0.0623 -0.4873
 1622ntf    on5 9207   6.422   6.793   6.004 -0.7380  0.4581  0.1883
 1622ntf    fn4 9208   6.225   6.600   5.912 -0.0659 -0.0182 -0.6348
 1622ntf    fn4 9209   6.281   6.623   5.708 -0.7225 -0.2766  0.2083
 1622ntf    fn4 9210   6.402   6.509   5.845  0.6632  0.0481 -0.0852
 1623ntf    cn1 9211   2.908   6.594   4.876  0.3203 -0.0075  0.1607
 1623ntf    sn2 9212   2.996   6.450   4.806  0.0746 -0.0901  0.0213
 1623ntf    nn3 9213   3.105   6.438   4.918  0.2041  0.1735 -0.0735
 1623ntf    sn2 9214   3.133   6.305   4.997  0.2383  0.3231  0.1659
 1623ntf    cn1 9215   3.063   6.347   5.160 -0.0500 -0.3766  0.2269
 1623ntf    fn4 9216   2.985   6.701   4.877 -0.5480  0.6291 -0.1490
 1623ntf    fn4 9217   2.804   6.621   4.800  0.2058 -0.6638  0.0712
 1623ntf    fn4 9218   2.873   6.586   5.003  0.0866 -0.1568  0.0878
 1623ntf    on5 9219   2.885   6.359   4.797 -0.1455  0.2438 -0.7828
 1623ntf    on5 9220   3.049   6.505   4.683 -0.4752 -0.2843 -0.3057
 1623ntf    on5 9221   3.275   6.296   5.016  0.2473 -0.7065 -0.3566
 1623ntf    on5 9222   3.059   6.189   4.953  0.6305  0.1743 -0.0969
 1623ntf    fn4 9223   2.955   6.420   5.143 -0.2494 -0.8985 -0.8237
 1623ntf    fn4 9224   3.029   6.242   5.233 -0.3670 -0.3937  0.0584
 1623ntf    fn4 9225   3.155   6.422   5.219  0.5745 -0.3234 -0.7820
 1624ntf    cn1 9226   3.257   3.688   2.125 -0.0760  0.0149  0.1897
 1624ntf    sn2 9227   3.104   3.757   2.054 -0.0013  0.0520  0.0653
 1624ntf    nn3 9228   3.108   3.718   1.902  0.3792 -0.0324  0.0958
 1624ntf    sn2 9229   3.148   3.779   1.763 -0.6179  0.1994 -0.0999
 1624ntf    cn1 9230   3.004   3.880   1.720 -0.8471 -0.1363 -0.1220
 1624ntf    fn4 9231   3.265   3.718   2.254  0.2979 -0.9314  0.3937
 1624ntf    fn4 9232   3.262   3.556   2.118  0.0480  0.0218  0.1591
 1624ntf    fn4 9233   3.361   3.735   2.058  0.0170  0.0162  0.3352
 1624ntf    on5 9234   3.003   3.673   2.115  0.0364 -0.0638 -0.0299
 1624ntf    on5 9235   3.091   3.894   2.094  0.0607  0.0398  0.1261
 1624ntf    on5 9236   3.160   3.682   1.657 -0.0857  0.0512  0.0880
 1624ntf    on5 9237   3.263   3.864   1.785 -0.5599  0.2011 -0.4074
 1624ntf    fn4 9238   2.891   3.811   1.720 -0.5943 -0.5517 -0.0367
 1624ntf    fn4 9239   2.993   3.975   1.811  0.3196  0.0284 -0.1346
 1624ntf    fn4 9240   3.015   3.933   1.599  0.0383  0.4207  0.1961
 1625ntf    cn1 9241   2.582   1.335   3.441  0.1931 -0.0869  0.4807
 1625ntf    sn2 9242   2.616   1.186   3.539 -0.4991 -0.1536  0.6252
 1625ntf    nn3 9243   2.472   1.124   3.536 -0.2976 -0.6233  0.3147
 1625ntf    sn2 9244   2.403   1.041   3.423 -0.2245 -0.1020 -0.1182
 1625ntf    cn1 9245   2.234   1.109   3.432 -0.1848  0.0284 -0.3580
 1625ntf    fn4 9246   2.524   1.442   3.493 -0.0510  0.1749 -0.3180
 1625ntf    fn4 9247   2.694   1.388   3.394 -0.2511  0.0932 -0.3907
 1625ntf    fn4 9248   2.521   1.310   3.327  0.0196  0.8033  0.3680
 1625ntf    on5 9249   2.713   1.102   3.471 -0.1741  0.2907  0.5363
 1625ntf    on5 9250   2.658   1.249   3.661  0.5041  0.9455 -0.2654
 1625ntf    on5 9251   2.384   0.905   3.469  0.1253 -0.2984 -0.5487
 1625ntf    on5 9252   2.447   1.065   3.288 -0.1302 -0.6480 -0.1879
 1625ntf    fn4 9253   2.139   1.024   3.397 -0.1958 -0.1869  0.1878
 1625ntf    fn4 9254   2.198   1.148   3.553 -0.3125  0.6578 -0.5983
 1625ntf    fn4 9255   2.212   1.215   3.355  0.4287  0.5910  0.2286
 1626ntf    cn1 9256   3.873   6.644   3.067 -0.2415 -0.1275 -0.3668
 1626ntf    sn2 9257   4.012   6.529   3.044 -0.0678 -0.0564  0.3088
 1626ntf    nn3 9258   3.948   6.387   3.066 -0.6908  0.2137  0.2670
 1626ntf    sn2 9259   3.936   6.300   3.196 -0.3530 -0.1507  0.0553
 1626ntf    cn1 9260   3.757   6.322   3.218 -0.3164  0.3946 -0.1885
 1626ntf    fn4 9261   3.785   6.628   2.969  0.1399 -0.3725 -0.6740
 1626ntf    fn4 9262   3.807   6.629   3.180 -0.2574 -0.0641 -0.3675
 1626ntf    fn4 9263   3.918   6.768   3.059 -0.3905  0.0103  0.7860
 1626ntf    on5 9264   4.048   6.554   2.907 -0.6176 -0.1311  0.1483
 1626ntf    on5 9265   4.118   6.560   3.136  0.3067 -0.5872  0.0637
 1626ntf    on5 9266   3.998   6.345   3.318  0.4869 -0.6272 -0.1839
 1626ntf    on5 9267   3.953   6.159   3.167  0.0798 -0.0856 -0.0103
 1626ntf    fn4 9268   3.691   6.295   3.106  0.1689 -0.4923 -0.2728
 1626ntf    fn4 9269   3.715   6.238   3.311  0.0382  1.0111  0.5335
 1626ntf    fn4 9270   3.730   6.443   3.262 -0.3483  0.0920  0.6328
 1627ntf    cn1 9271   6.238   4.335   3.033  0.3780 -0.3178  0.1889
 1627ntf    sn2 9272   6.228   4.304   3.212  0.2229  0.1316  0.2589
 1627ntf    nn3 9273   6.080   4.253   3.225  0.4576 -0.7956 -0.5615
 1627ntf    sn2 9274   6.031   4.105   3.244 -0.2893 -0.4450  0.3368
 1627ntf    cn1 9275   5.864   4.126   3.174 -0.2459 -0.1246  0.3257
 1627ntf    fn4 9276   6.180   4.239   2.963  0.3377 -0.1556 -0.0035
 1627ntf    fn4 9277   6.171   4.444   3.000  0.6140 -0.0872  0.4688
 1627ntf    fn4 9278   6.365   4.353   2.999  0.1929 -0.2215 -0.4747
 1627ntf    on5 9279   6.331   4.206   3.230  0.2740  0.2709  0.7302
 1627ntf    on5 9280   6.249   4.432   3.275  0.0604 -0.0007  0.5823
 1627ntf    on5 9281   6.009   4.069   3.382 -0.2529 -0.3357  0.3714
 1627ntf    on5 9282   6.097   4.017   3.151 -0.0132 -0.0426  0.1521
 1627ntf    fn4 9283   5.799   4.237   3.204 -0.3967 -0.0819 -0.1534
 1627ntf    fn4 9284   5.867   4.118   3.042  0.1224 -0.1273  0.3320
 1627ntf    fn4 9285   5.780   4.028   3.202  0.0565 -0.4863 -0.0104
 1628ntf    cn1 9286   4.575   2.244   4.639 -0.4830  0.3918 -0.2733
 1628ntf    sn2 9287   4.545   2.092   4.544  0.2843  0.1231 -0.0901
 1628ntf    nn3 9288   4.535   1.992   4.665  0.1860  0.2573  0.0119
 1628ntf    sn2 9289   4.409   1.924   4.730  0.2020 -0.1606 -0.3921
 1628ntf    cn1 9290   4.463   1.753   4.701  0.1726 -0.2010 -0.2104
 1628ntf    fn4 9291   4.468   2.286   4.705 -0.4561 -0.1398  0.1166
 1628ntf    fn4 9292   4.666   2.225   4.733 -0.5331  0.5866 -0.1845
 1628ntf    fn4 9293   4.615   2.349   4.570  0.8059 -0.0140 -0.1728
 1628ntf    on5 9294   4.437   2.115   4.452  0.3477  0.7596 -0.0103
 1628ntf    on5 9295   4.667   2.073   4.470  0.1482 -0.9627 -0.0510
 1628ntf    on5 9296   4.286   1.919   4.656  0.3619  0.2674 -0.6891
 1628ntf    on5 9297   4.405   1.943   4.873 -0.8886  0.8008 -0.5370
 1628ntf    fn4 9298   4.396   1.676   4.785  0.0905  0.1076  0.0095
 1628ntf    fn4 9299   4.422   1.711   4.582 -0.0761  0.3992 -0.3374
 1628ntf    fn4 9300   4.595   1.745   4.707  0.2543  0.6047 -0.7275
 1629ntf    cn1 9301   6.284   2.846   3.902  0.1563 -0.3045  0.0572
 1629ntf    sn2 9302   6.391   2.990   3.870 -0.0165 -0.2116 -0.1059
 1629ntf    nn3 9303   6.422   3.019   4.021 -0.2576 -0.1869 -0.0613
 1629ntf    sn2 9304   6.372   3.129   4.122  0.0155 -0.1727  0.0596
 1629ntf    cn1 9305   6.462   3.275   4.064 -0.3256  0.0558  0.1015
 1629ntf    fn4 9306   6.234   2.797   3.790 -0.0769 -0.6502  0.3097
 1629ntf    fn4 9307   6.354   2.751   3.962  0.4142 -0.1291  0.0354
 1629ntf    fn4 9308   6.181   2.867   3.983  0.0029 -0.0615 -0.2003
 1629ntf    on5 9309   6.504   2.934   3.801 -0.2179  0.1345 -0.7141
 1629ntf    on5 9310   6.316   3.085   3.793 -0.0987  0.1409  0.4031
 1629ntf    on5 9311   6.415   3.111   4.258 -0.0847 -0.2692  0.0784
 1629ntf    on5 9312   6.232   3.163   4.112  0.0473  0.1126  0.5390
 1629ntf    fn4 9313   6.526   3.332   4.165 -0.0333  0.3152 -0.2273
 1629ntf    fn4 9314   6.554   3.257   3.970 -0.0300 -0.4026  0.4780
 1629ntf    fn4 9315   6.375   3.359   4.010  0.1171  0.1605 -0.4661
 1630ntf    cn1 9316   0.543   1.979   2.315  0.1432 -0.3011 -0.2047
 1630ntf    sn2 9317   0.548   1.843   2.435 -0.2183  0.0730  0.2394
 1630ntf    nn3 9318   0.617   1.725   2.357  0.3726  0.9508 -0.5897
 1630ntf    sn2 9319   0.768   1.680   2.362  0.1057  0.1566  0.6660
 1630ntf    cn1 9320   0.768   1.547   2.487  0.4430 -0.2592  0.2292
 1630ntf    fn4 9321   0.481   2.084   2.365  0.4152 -0.1943 -0.0887
 1630ntf    fn4 9322   0.662   2.028   2.282  0.2469 -0.4324 -0.0267
 1630ntf    fn4 9323   0.485   1.944   2.202 -0.3820 -0.2207  0.0389
 1630ntf    on5 9324   0.625   1.904   2.540 -0.0650  0.7405 -0.2542
 1630ntf    on5 9325   0.408   1.823   2.462 -0.1692 -0.1796  0.3162
 1630ntf    on5 9326   0.867   1.772   2.412  0.7409 -0.2611  0.1866
 1630ntf    on5 9327   0.804   1.612   2.240  0.5679  0.6146  0.5453
 1630ntf    fn4 9328   0.888   1.499   2.512  0.2626 -0.7059  0.2437
 1630ntf    fn4 9329   0.726   1.585   2.607  0.2256 -0.0882  0.1000
 1630ntf    fn4 9330   0.677   1.455   2.462 -0.1551  0.4695 -0.3399
 1631ntf    cn1 9331   5.624   6.330   6.702 -0.2132  0.0491  0.0226
 1631ntf    sn2 9332   5.626   6.245   6.862 -0.2323  0.0187  0.0066
 1631ntf    nn3 9333   5.615   6.369   6.957 -0.2351 -0.1166  0.1845
 1631ntf    sn2 9334   5.506   6.399   7.066 -0.1912  0.0891  0.1725
 1631ntf    cn1 9335   5.364   6.450   6.963 -0.1833  0.2210  0.2266
 1631ntf    fn4 9336   5.718   6.423   6.695 -0.0288 -0.1300  0.1069
 1631ntf    fn4 9337   5.642   6.241   6.606  0.0654  0.0930  0.0319
 1631ntf    fn4 9338   5.511   6.395   6.679 -0.0577  0.3361  0.0506
 1631ntf    on5 9339   5.516   6.151   6.854  0.0610 -0.3429  0.2107
 1631ntf    on5 9340   5.761   6.194   6.859 -0.2438  0.0007 -0.2086
 1631ntf    on5 9341   5.547   6.513   7.145  0.3387 -0.2505  0.3856
 1631ntf    on5 9342   5.462   6.289   7.148  0.3068 -0.3775 -0.1846
 1631ntf    fn4 9343   5.261   6.494   7.033 -0.2440 -0.6212  0.6908
 1631ntf    fn4 9344   5.392   6.544   6.874  0.2078 -0.1257 -0.0225
 1631ntf    fn4 9345   5.311   6.351   6.893 -0.1757  0.3987 -0.0267
 1632ntf    cn1 9346   5.549   1.095   5.977 -0.2902 -0.2266 -0.1840
 1632ntf    sn2 9347   5.597   1.210   6.110  0.1353 -0.3854 -0.1979
 1632ntf    nn3 9348   5.700   1.123   6.190 -0.0933 -0.2728  0.2194
 1632ntf    sn2 9349   5.699   1.041   6.324  0.0541 -0.0429  0.3624
 1632ntf    cn1 9350   5.755   0.880   6.260 -0.2841  0.0273 -0.1210
 1632ntf    fn4 9351   5.652   1.027   5.931  0.2368  0.3009  0.1950
 1632ntf    fn4 9352   5.467   1.007   6.033 -0.0772 -0.1146  0.3056
 1632ntf    fn4 9353   5.499   1.156   5.871  0.0390 -0.0408 -0.2310
 1632ntf    on5 9354   5.656   1.316   6.032 -0.0374 -0.2208 -0.1047
 1632ntf    on5 9355   5.465   1.225   6.166  0.1948 -0.3234 -0.0742
 1632ntf    on5 9356   5.573   1.019   6.391  0.0410  0.2497  0.4360
 1632ntf    on5 9357   5.812   1.065   6.410  0.2705  0.3098 -0.0178
 1632ntf    fn4 9358   5.883   0.891   6.226 -0.2251  0.5374  0.2441
 1632ntf    fn4 9359   5.741   0.785   6.351 -0.1491  0.6307  0.5468
 1632ntf    fn4 9360   5.679   0.859   6.154  0.0085 -0.4285 -0.2421
 1633ntf    cn1 9361   3.518   0.022   6.363  0.6504 -0.3663  0.1938
 1633ntf    sn2 9362   3.517   0.077   6.190 -0.0867  0.0484  0.3291
 1633ntf    nn3 9363   3.422   0.202   6.194  0.1060  0.1996  0.2117
 1633ntf    sn2 9364   3.446   0.351   6.235 -0.2138  0.2737  0.1348
 1633ntf    cn1 9365   3.504   0.427   6.080  0.5747  0.4397  0.5061
 1633ntf    fn4 9366   3.581  -0.094   6.378 -0.2818 -0.8263  0.6272
 1633ntf    fn4 9367   3.571   0.107   6.449 -0.3874  0.4571  0.0318
 1633ntf    fn4 9368   3.392  -0.001   6.395  0.6097 -0.3202  0.0661
 1633ntf    on5 9369   3.654   0.113   6.162 -0.2476  0.2095 -0.2766
 1633ntf    on5 9370   3.458  -0.032   6.116 -0.0449  0.3829 -0.2058
 1633ntf    on5 9371   3.561   0.384   6.315  0.4853  0.2467 -0.8485
 1633ntf    on5 9372   3.321   0.422   6.254  0.0201  0.7062  0.0841
 1633ntf    fn4 9373   3.518   0.555   6.108 -0.0902  0.4857  0.6495
 1633ntf    fn4 9374   3.623   0.382   6.045  0.0985 -0.7085  0.2977
 1633ntf    fn4 9375   3.423   0.404   5.978  1.0108  0.3514  0.1774
 1634ntf    cn1 9376   6.231   1.074   0.092 -0.4649 -0.0462 -0.2644
 1634ntf    sn2 9377   6.310   1.103  -0.069 -0.0414 -0.2706 -0.0996
 1634ntf    nn3 9378   6.348   1.255  -0.057  0.0680 -0.2758 -0.3692
 1634ntf    sn2 9379   6.272   1.377  -0.122 -0.1559  0.0532  0.4937
 1634ntf    cn1 9380   6.414   1.460  -0.200 -0.1765 -0.0089  0.3878
 1634ntf    fn4 9381   6.292   1.136   0.192 -0.3857 -0.5885  0.0246
 1634ntf    fn4 9382   6.109   1.122   0.081 -0.2675  0.4124 -0.4913
 1634ntf    fn4 9383   6.212   0.945   0.114  0.0216 -0.1293 -0.3151
 1634ntf    on5 9384   6.430   1.024  -0.063 -0.1149 -0.3797 -0.0695
 1634ntf    on5 9385   6.216   1.060  -0.170 -0.0389 -0.2561 -0.1080
 1634ntf    on5 9386   6.214   1.468  -0.027 -0.4770  0.5922 -0.2105
 1634ntf    on5 9387   6.184   1.337  -0.230 -0.2429 -0.7026  0.8366
 1634ntf    fn4 9388   6.451   1.399  -0.311 -0.5723  0.3125  0.0739
 1634ntf    fn4 9389   6.399   1.585  -0.243 -0.1405 -0.3128 -0.5194
 1634ntf    fn4 9390   6.519   1.465  -0.120  0.5793  0.0520 -0.5885
 1635ntf    cn1 9391   2.279   3.817   3.452  0.3918  0.0287 -0.1556
 1635ntf    sn2 9392   2.164   3.813   3.593  0.4363  0.0686 -0.1180
 1635ntf    nn3 9393   2.145   3.657   3.591  0.5001  0.0577  0.1419
 1635ntf    sn2 9394   2.061   3.578   3.485 -0.1651  0.4751  0.3507
 1635ntf    cn1 9395   1.903   3.565   3.574 -0.2867 -0.0521  0.0635
 1635ntf    fn4 9396   2.372   3.726   3.475  0.4775  0.3781  0.9391
 1635ntf    fn4 9397   2.228   3.804   3.331 -0.4526 -0.4990  0.2431
 1635ntf    fn4 9398   2.341   3.933   3.441  0.4506  0.0508  0.3689
 1635ntf    on5 9399   2.243   3.862   3.703  0.1882 -0.0609  0.1201
 1635ntf    on5 9400   2.049   3.896   3.567  0.1505 -0.1701  0.3741
 1635ntf    on5 9401   2.106   3.441   3.477 -0.0893  0.5425 -0.5014
 1635ntf    on5 9402   2.021   3.648   3.365 -0.2523  0.1980  0.2168
 1635ntf    fn4 9403   1.816   3.484   3.515  0.0231 -0.2390 -0.1380
 1635ntf    fn4 9404   1.918   3.513   3.695  0.1590 -0.2594 -0.0770
 1635ntf    fn4 9405   1.845   3.683   3.594  0.4490  0.2907  0.2063
 1636ntf    cn1 9406   4.825   6.188   4.054  0.2757  0.2471 -0.4331
 1636ntf    sn2 9407   4.845   6.109   4.216  0.3008  0.3699 -0.3763
 1636ntf    nn3 9408   4.703   6.130   4.280 -0.0994 -0.1920 -1.0602
 1636ntf    sn2 9409   4.583   6.030   4.284 -0.1275 -0.1291  0.1648
 1636ntf    cn1 9410   4.579   5.972   4.456  0.0683  0.1656  0.2690
 1636ntf    fn4 9411   4.921   6.150   3.971  0.6012 -0.4081  0.2354
 1636ntf    fn4 9412   4.709   6.155   3.999  0.2801 -0.5088  0.0075
 1636ntf    fn4 9413   4.811   6.320   4.058  0.1126  0.2052  0.4273
 1636ntf    on5 9414   4.906   5.982   4.184  0.3686  0.4551 -0.5866
 1636ntf    on5 9415   4.933   6.207   4.274  0.4525 -0.0605  0.1250
 1636ntf    on5 9416   4.617   5.913   4.206  0.3234  0.1192 -0.0112
 1636ntf    on5 9417   4.457   6.098   4.266  0.0400  0.1160 -0.0906
 1636ntf    fn4 9418   4.472   5.895   4.469  0.3366 -0.3205 -0.2972
 1636ntf    fn4 9419   4.685   5.904   4.496 -0.2770 -0.2060  0.5560
 1636ntf    fn4 9420   4.563   6.076   4.536  0.1715  0.0769  0.4044
 1637ntf    cn1 9421   4.047   5.109   0.661 -0.0231  0.4743 -0.1710
 1637ntf    sn2 9422   4.120   5.061   0.501 -0.1001 -0.0473 -0.0522
 1637ntf    nn3 9423   4.024   5.136   0.403  0.0368 -0.0927 -0.2220
 1637ntf    sn2 9424   4.048   5.263   0.313 -0.1136  0.0678 -0.0366
 1637ntf    cn1 9425   3.916   5.231   0.191  0.2253 -0.0810 -0.3663
 1637ntf    fn4 9426   3.925   5.061   0.675  0.2157  0.0157  0.3829
 1637ntf    fn4 9427   4.110   5.061   0.767  0.3715  0.0440 -0.5920
 1637ntf    fn4 9428   4.052   5.241   0.671 -1.0519  0.4716  0.5738
 1637ntf    on5 9429   4.253   5.115   0.515 -0.0558 -0.0410 -0.5054
 1637ntf    on5 9430   4.102   4.919   0.514  0.1613 -0.1001 -0.2645
 1637ntf    on5 9431   4.172   5.251   0.241  0.2025  0.2193  0.4872
 1637ntf    on5 9432   4.015   5.391   0.371 -0.0381 -0.0244  0.2105
 1637ntf    fn4 9433   3.902   5.327   0.102  0.5587  0.2020 -0.1170
 1637ntf    fn4 9434   3.938   5.120   0.121  0.5022 -0.2472 -0.0216
 1637ntf    fn4 9435   3.797   5.224   0.248  0.3307 -0.3471 -0.1769
 1638ntf    cn1 9436   2.085   2.968   2.936  0.2117 -0.0828  0.0261
 1638ntf    sn2 9437   1.910   2.923   2.920  0.1931 -0.1176  0.3260
 1638ntf    nn3 9438   1.930   2.775   2.967  0.4806 -0.1387  0.1390
 1638ntf    sn2 9439   1.881   2.720   3.106  0.2342  0.3097  0.2311
 1638ntf    cn1 9440   1.974   2.564   3.096  0.0391  0.2146 -0.1334
 1638ntf    fn4 9441   2.109   3.082   2.873 -0.0813 -0.2253 -0.3518
 1638ntf    fn4 9442   2.124   2.981   3.061 -0.1853  0.4197  0.0992
 1638ntf    fn4 9443   2.165   2.882   2.874 -0.4665 -0.2676 -0.6200
 1638ntf    on5 9444   1.836   3.008   3.010 -0.3832 -0.2877  0.0185
 1638ntf    on5 9445   1.901   2.944   2.777 -0.2872 -0.8869  0.2393
 1638ntf    on5 9446   1.743   2.680   3.104  0.4116 -0.3145  0.1434
 1638ntf    on5 9447   1.934   2.788   3.222 -0.5064  0.7376  0.3222
 1638ntf    fn4 9448   1.961   2.500   3.211  0.4356  0.1761 -0.1065
 1638ntf    fn4 9449   1.945   2.485   2.995  0.3116  0.4980 -0.4368
 1638ntf    fn4 9450   2.106   2.576   3.101  0.0583 -0.2851  0.7237
 1639ntf    cn1 9451   2.868   2.729   6.890  0.0361  0.2173 -0.1320
 1639ntf    sn2 9452   2.891   2.818   6.734 -0.1275  0.1212 -0.2110
 1639ntf    nn3 9453   2.744   2.847   6.686 -0.1512  0.0083 -0.2058
 1639ntf    sn2 9454   2.646   2.943   6.763  0.1450  0.2550 -0.1348
 1639ntf    cn1 9455   2.532   2.822   6.837 -0.0661 -0.0542 -0.9474
 1639ntf    fn4 9456   2.808   2.808   6.979 -0.3614 -0.3304  0.0907
 1639ntf    fn4 9457   2.795   2.620   6.874  0.3776  0.0844 -0.7750
 1639ntf    fn4 9458   2.982   2.690   6.946 -0.2296 -0.4771 -0.0615
 1639ntf    on5 9459   2.982   2.927   6.758  0.2119 -0.0595 -0.6569
 1639ntf    on5 9460   2.957   2.719   6.653 -0.3003 -0.0171 -0.1825
 1639ntf    on5 9461   2.566   3.029   6.679  0.8649  1.3548  0.2849
 1639ntf    on5 9462   2.693   3.005   6.884  0.1578 -0.6255  0.3206
 1639ntf    fn4 9463   2.526   2.719   6.754 -0.1346 -0.2128 -0.7475
 1639ntf    fn4 9464   2.573   2.776   6.954  0.1303  1.0103 -0.5903
 1639ntf    fn4 9465   2.408   2.867   6.848  0.1885  0.5341 -0.4379
 1640ntf    cn1 9466   3.362   3.751   6.359 -0.1720 -0.1753  0.4118
 1640ntf    sn2 9467   3.427   3.915   6.317 -0.3062 -0.2701 -0.1745
 1640ntf    nn3 9468   3.296   3.971   6.250 -0.2394 -0.2207 -0.2636
 1640ntf    sn2 9469   3.247   4.120   6.237 -0.5345 -0.2646  0.3100
 1640ntf    cn1 9470   3.303   4.138   6.065 -0.1880 -0.2883  0.4198
 1640ntf    fn4 9471   3.276   3.707   6.268 -0.2419  0.1126  0.3397
 1640ntf    fn4 9472   3.456   3.659   6.372  0.0251 -0.0559 -0.1491
 1640ntf    fn4 9473   3.298   3.760   6.475 -0.0002  0.0281  0.4915
 1640ntf    on5 9474   3.473   3.972   6.442 -0.4407 -0.6556  0.0523
 1640ntf    on5 9475   3.524   3.875   6.218  0.0948  0.1496  0.0446
 1640ntf    on5 9476   3.323   4.214   6.315 -0.1766 -0.0143 -0.3363
 1640ntf    on5 9477   3.106   4.152   6.245 -0.4085  0.3563  0.0855
 1640ntf    fn4 9478   3.413   4.069   6.039  0.4440  0.9340 -0.2344
 1640ntf    fn4 9479   3.204   4.099   5.986  0.0217  0.0178  0.0022
 1640ntf    fn4 9480   3.317   4.266   6.035 -0.0871 -0.3524  0.1878
 1641ntf    cn1 9481   3.379   4.201   4.740 -0.3478  0.2110 -0.1445
 1641ntf    sn2 9482   3.441   4.333   4.847  0.0499 -0.4422  0.4408
 1641ntf    nn3 9483   3.435   4.458   4.752 -0.1235 -0.3564  0.5653
 1641ntf    sn2 9484   3.534   4.580   4.755 -0.4215 -0.1103  0.4037
 1641ntf    cn1 9485   3.665   4.514   4.647 -0.4104  0.6459 -0.0570
 1641ntf    fn4 9486   3.407   4.083   4.792  0.1920  0.7108  0.7130
 1641ntf    fn4 9487   3.248   4.209   4.723 -0.3592  0.3115 -0.0024
 1641ntf    fn4 9488   3.436   4.197   4.620  0.5927  0.3103  0.2946
 1641ntf    on5 9489   3.356   4.346   4.962  0.4346  0.4465  0.6347
 1641ntf    on5 9490   3.575   4.287   4.874  0.3147 -0.1034 -0.2543
 1641ntf    on5 9491   3.597   4.613   4.880 -0.6234 -0.0319  0.4863
 1641ntf    on5 9492   3.486   4.692   4.677 -0.5011 -0.6038 -0.2642
 1641ntf    fn4 9493   3.606   4.440   4.555 -0.3327  0.3251  0.1484
 1641ntf    fn4 9494   3.736   4.612   4.594 -0.3900  0.5675 -0.1758
 1641ntf    fn4 9495   3.743   4.434   4.718 -0.6950  0.1227 -0.3292
 1642ntf    cn1 9496   3.892   4.575   0.098  0.3731  0.0116 -0.5624
 1642ntf    sn2 9497   3.774   4.467   0.012  0.3132 -0.1147 -0.3243
 1642ntf    nn3 9498   3.800   4.318   0.053  0.3710 -0.0009  0.0504
 1642ntf    sn2 9499   3.783   4.262   0.199  0.1993 -0.0356  0.0170
 1642ntf    cn1 9500   3.948   4.191   0.224  0.2536 -0.0894 -0.4725
 1642ntf    fn4 9501   3.863   4.576   0.227  0.0851 -0.7930 -0.6171
 1642ntf    fn4 9502   4.017   4.538   0.077  0.4173 -0.4042  0.3782
 1642ntf    fn4 9503   3.882   4.699   0.052 -0.3422  0.4394  0.6816
 1642ntf    on5 9504   3.648   4.512   0.066  0.3581 -0.6844  0.2556
 1642ntf    on5 9505   3.795   4.494  -0.128  0.1385  0.1665 -0.2977
 1642ntf    on5 9506   3.701   4.143   0.195  0.6135 -0.3039 -0.6406
 1642ntf    on5 9507   3.771   4.354   0.309 -0.3687 -0.3042  0.1853
 1642ntf    fn4 9508   3.953   4.083   0.300  0.3116  0.2277 -0.0170
 1642ntf    fn4 9509   4.003   4.148   0.112  0.0913 -0.2920 -0.4735
 1642ntf    fn4 9510   4.034   4.273   0.284  0.4992 -0.2416 -0.6159
 1643ntf    cn1 9511   6.727   2.006   6.297 -0.1590  0.0523 -0.3467
 1643ntf    sn2 9512   6.889   2.081   6.263 -0.0657 -0.0188 -0.0578
 1643ntf    nn3 9513   6.861   2.152   6.126  0.3115  0.3607  0.0591
 1643ntf    sn2 9514   6.829   2.303   6.100 -0.1305  0.1958 -0.3679
 1643ntf    cn1 9515   6.988   2.365   6.036  0.1731  0.2556  0.4320
 1643ntf    fn4 9516   6.634   2.090   6.339  0.1894 -0.1325  0.8338
 1643ntf    fn4 9517   6.688   1.942   6.188  0.2172  0.0462 -0.4819
 1643ntf    fn4 9518   6.725   1.920   6.397 -0.2535  0.8023  0.3024
 1643ntf    on5 9519   6.941   2.161   6.371 -0.2111 -0.7617  0.5737
 1643ntf    on5 9520   6.961   1.957   6.245  0.3435  0.0849  0.7863
 1643ntf    on5 9521   6.805   2.386   6.215 -0.4723 -0.7067  0.2243
 1643ntf    on5 9522   6.735   2.323   5.992  0.0969  0.6579 -0.4855
 1643ntf    fn4 9523   6.966   2.489   5.994 -0.3368 -0.1491 -0.5209
 1643ntf    fn4 9524   7.085   2.363   6.125  0.2433 -0.3900  0.3465
 1643ntf    fn4 9525   7.026   2.286   5.937  0.1995  0.6932  0.0886
 1644ntf    cn1 9526   6.648   2.980   0.776  0.0090  0.1402  0.4378
 1644ntf    sn2 9527   6.603   3.064   0.622 -0.2498 -0.5124  0.1574
 1644ntf    nn3 9528   6.666   3.207   0.639 -0.8569 -0.1976 -0.1705
 1644ntf    sn2 9529   6.631   3.333   0.553 -0.0904  0.2421  0.1523
 1644ntf    cn1 9530   6.622   3.460   0.683  0.3509  0.2964  0.1302
 1644ntf    fn4 9531   6.752   3.034   0.838  0.1568  0.2399  0.1059
 1644ntf    fn4 9532   6.549   2.978   0.864 -0.0749  0.2087  0.3455
 1644ntf    fn4 9533   6.684   2.853   0.768  0.1648  0.2466 -0.6809
 1644ntf    on5 9534   6.662   2.982   0.519 -0.6529 -0.2226 -0.3101
 1644ntf    on5 9535   6.459   3.065   0.630 -0.2366 -0.0147  0.3773
 1644ntf    on5 9536   6.499   3.335   0.494  0.1228 -0.9099 -0.3757
 1644ntf    on5 9537   6.735   3.386   0.468 -0.0561 -0.4494 -0.2404
 1644ntf    fn4 9538   6.734   3.477   0.752  0.4445  0.2245 -0.0041
 1644ntf    fn4 9539   6.598   3.581   0.636 -0.0516  0.1333 -0.0910
 1644ntf    fn4 9540   6.525   3.435   0.769  0.3090  0.8077  0.2375
 1645ntf    cn1 9541   2.488   5.031   0.215 -0.0944 -0.1198 -0.2632
 1645ntf    sn2 9542   2.396   5.010   0.371 -0.0918  0.0132 -0.2438
 1645ntf    nn3 9543   2.501   4.931   0.457  0.0906  0.1898 -0.3032
 1645ntf    sn2 9544   2.600   4.985   0.567  0.2715 -0.5274 -0.1067
 1645ntf    cn1 9545   2.484   5.017   0.704  0.3064  0.0416 -0.2082
 1645ntf    fn4 9546   2.600   4.961   0.212 -0.7176 -1.1451 -0.1752
 1645ntf    fn4 9547   2.422   4.986   0.109  0.1486  0.0261 -0.4764
 1645ntf    fn4 9548   2.516   5.158   0.196 -0.8360  0.0011 -0.5835
 1645ntf    on5 9549   2.356   5.141   0.415 -0.1634 -0.1433  0.1589
 1645ntf    on5 9550   2.289   4.925   0.325  0.0952 -0.3352 -0.0439
 1645ntf    on5 9551   2.655   5.113   0.529  0.5353 -0.7333 -0.4250
 1645ntf    on5 9552   2.687   4.885   0.623  0.3194 -0.3567  0.1226
 1645ntf    fn4 9553   2.387   5.100   0.669  0.1392 -0.1489 -0.1941
 1645ntf    fn4 9554   2.429   4.902   0.739  0.3343  0.1207  0.0956
 1645ntf    fn4 9555   2.551   5.066   0.807  0.2156 -0.3702  0.0492
 1646ntf    cn1 9556   4.619   2.120   6.019  0.3955  0.1346 -0.6026
 1646ntf    sn2 9557   4.512   2.244   6.097  0.3635 -0.1276 -0.2284
 1646ntf    nn3 9558   4.548   2.202   6.244 -0.5790  0.6946  0.2483
 1646ntf    sn2 9559   4.600   2.294   6.361 -0.0023  0.3566  0.2631
 1646ntf    cn1 9560   4.479   2.429   6.370 -0.2223  0.1719  0.0933
 1646ntf    fn4 9561   4.609   2.123   5.887 -0.4480 -0.0079 -0.5461
 1646ntf    fn4 9562   4.746   2.147   6.045  0.1443  0.7433  0.0251
 1646ntf    fn4 9563   4.588   1.999   6.063 -0.5761  0.5838 -0.0389
 1646ntf    on5 9564   4.553   2.376   6.055  0.4674 -0.2028 -0.3624
 1646ntf    on5 9565   4.379   2.207   6.057  0.2796  0.3206 -0.3798
 1646ntf    on5 9566   4.727   2.353   6.327  0.2607 -0.4155 -0.1260
 1646ntf    on5 9567   4.590   2.236   6.492  0.8707  0.2440  0.2845
 1646ntf    fn4 9568   4.501   2.504   6.477  0.0647 -0.1770  0.2797
 1646ntf    fn4 9569   4.492   2.512   6.267  0.0170  0.4373  0.3385
 1646ntf    fn4 9570   4.351   2.395   6.370 -0.0883 -0.3498 -0.3670
 1647ntf    cn1 9571   5.598   2.759   4.479 -0.2237  0.4145  0.0886
 1647ntf    sn2 9572   5.619   2.920   4.560  0.0551  0.3193  0.2073
 1647ntf    nn3 9573   5.472   2.974   4.551 -0.0627 -0.0303 -0.0048
 1647ntf    sn2 9574   5.349   2.944   4.643  0.1028 -0.3756  0.1061
 1647ntf    cn1 9575   5.360   3.091   4.750  0.1593 -0.1968 -0.1449
 1647ntf    fn4 9576   5.490   2.696   4.522  0.0360  0.0118  0.1625
 1647ntf    fn4 9577   5.590   2.757   4.347  0.2971 -0.3877  0.0592
 1647ntf    fn4 9578   5.701   2.678   4.502 -0.2971  0.2242 -0.2422
 1647ntf    on5 9579   5.674   2.891   4.690  0.1996 -0.2190  0.0291
 1647ntf    on5 9580   5.696   2.997   4.465 -0.1650  0.7740  0.3961
 1647ntf    on5 9581   5.352   2.833   4.735  0.1964 -0.1460  0.3815
 1647ntf    on5 9582   5.224   2.970   4.575  0.3746  0.0009 -0.2536
 1647ntf    fn4 9583   5.344   3.201   4.677 -0.1548 -0.1724 -0.0389
 1647ntf    fn4 9584   5.270   3.072   4.845 -0.1717  0.0525 -0.4045
 1647ntf    fn4 9585   5.477   3.091   4.812  0.1541 -0.5382 -0.1311
 1648ntf    cn1 9586   0.219   3.339   4.927  0.2134 -0.1757 -0.3571
 1648ntf    sn2 9587   0.241   3.419   5.089  0.3020  0.0475 -0.4809
 1648ntf    nn3 9588   0.318   3.550   5.047 -0.4710  0.7575  0.2647
 1648ntf    sn2 9589   0.457   3.605   5.092 -0.1036  0.0605  0.0031
 1648ntf    cn1 9590   0.557   3.506   4.977 -0.1319  0.1483 -0.0971
 1648ntf    fn4 9591   0.192   3.210   4.946  0.3053 -0.2147 -0.4908
 1648ntf    fn4 9592   0.121   3.388   4.854 -0.2046 -0.0109  0.3068
 1648ntf    fn4 9593   0.333   3.349   4.860  0.5296 -0.3708  0.1386
 1648ntf    on5 9594   0.102   3.431   5.127  0.2508 -0.5921 -0.4656
 1648ntf    on5 9595   0.311   3.320   5.166  0.1264  0.3726  0.1072
 1648ntf    on5 9596   0.500   3.569   5.225 -0.9040  0.0594  0.2642
 1648ntf    on5 9597   0.487   3.738   5.046 -0.0084 -0.0793 -0.3394
 1648ntf    fn4 9598   0.512   3.383   4.961  0.4390 -0.1268  0.3517
 1648ntf    fn4 9599   0.563   3.554   4.854 -0.5393  0.0915 -0.1399
 1648ntf    fn4 9600   0.685   3.498   5.011 -0.2808 -1.0368  0.2114
 1649ntf    cn1 9601   1.829   1.838   5.622 -0.1380  0.2636 -0.7554
 1649ntf    sn2 9602   1.660   1.885   5.670 -0.0227 -0.0906  0.0105
 1649ntf    nn3 9603   1.595   1.743   5.683 -0.1152 -0.0304  0.2082
 1649ntf    sn2 9604   1.456   1.698   5.627  0.1375 -0.1536 -0.3233
 1649ntf    cn1 9605   1.449   1.518   5.652  0.3158 -0.1590 -0.3150
 1649ntf    fn4 9606   1.921   1.932   5.631  0.2322 -0.1958  0.4502
 1649ntf    fn4 9607   1.875   1.736   5.691 -0.4776  0.7059  0.1331
 1649ntf    fn4 9608   1.822   1.795   5.497 -0.2939  0.2908 -0.7568
 1649ntf    on5 9609   1.677   1.951   5.797 -0.5639 -0.0179  0.0467
 1649ntf    on5 9610   1.623   1.968   5.558 -0.4731 -0.7583 -0.3336
 1649ntf    on5 9611   1.445   1.716   5.484 -0.2073 -0.2549 -0.3112
 1649ntf    on5 9612   1.339   1.740   5.699  0.9945  0.5768  0.6638
 1649ntf    fn4 9613   1.448   1.487   5.781 -0.4413  0.1443 -0.2448
 1649ntf    fn4 9614   1.331   1.481   5.606  0.1471 -0.0612  0.0360
 1649ntf    fn4 9615   1.537   1.448   5.582  0.0949 -0.2524 -0.5024
 1650ntf    cn1 9616   1.278   5.242   6.420 -0.3956 -0.4242  0.0505
 1650ntf    sn2 9617   1.162   5.374   6.373 -0.0146 -0.1494 -0.1237
 1650ntf    nn3 9618   1.255   5.492   6.418 -0.3429  0.0305  0.0913
 1650ntf    sn2 9619   1.260   5.579   6.549  0.1615 -0.0983  0.1610
 1650ntf    cn1 9620   1.186   5.729   6.479 -0.0474 -0.2066  0.1511
 1650ntf    fn4 9621   1.224   5.122   6.435 -0.7222 -0.2494  0.2665
 1650ntf    fn4 9622   1.373   5.234   6.329 -0.1315 -0.0919  0.2944
 1650ntf    fn4 9623   1.335   5.268   6.537  0.1271  0.3131 -0.3614
 1650ntf    on5 9624   1.151   5.359   6.230 -0.0324 -0.2821 -0.1087
 1650ntf    on5 9625   1.046   5.348   6.455 -0.1613  0.6170 -0.0842
 1650ntf    on5 9626   1.389   5.624   6.593 -0.0681  0.2217  0.5091
 1650ntf    on5 9627   1.151   5.552   6.639 -0.2915 -0.4412 -0.4812
 1650ntf    fn4 9628   1.076   5.712   6.407 -0.0966 -0.3520  0.2595
 1650ntf    fn4 9629   1.145   5.811   6.574  0.0094 -0.3170  0.2704
 1650ntf    fn4 9630   1.277   5.787   6.402 -0.5810  0.6848  0.1813
 1651ntf    cn1 9631   5.165   3.126   0.832 -0.2051  0.3934  0.0699
 1651ntf    sn2 9632   5.147   3.298   0.776 -0.1102  0.3877  0.0215
 1651ntf    nn3 9633   4.992   3.321   0.784 -0.1053  0.2638  0.5306
 1651ntf    sn2 9634   4.910   3.355   0.655  0.4036  0.1278  0.1677
 1651ntf    cn1 9635   4.900   3.208   0.548  0.2878  0.2439  0.0177
 1651ntf    fn4 9636   5.095   3.039   0.762 -0.1424  0.2800  0.1482
 1651ntf    fn4 9637   5.288   3.078   0.841 -0.3205  0.0176 -0.2994
 1651ntf    fn4 9638   5.119   3.115   0.956  0.0706 -0.5312  0.0962
 1651ntf    on5 9639   5.228   3.367   0.873  0.2951 -0.0430 -0.0058
 1651ntf    on5 9640   5.201   3.280   0.644 -0.5087 -0.1036 -0.0766
 1651ntf    on5 9641   4.955   3.464   0.572 -0.1668  0.0047 -0.3166
 1651ntf    on5 9642   4.777   3.387   0.702  0.3486 -0.4002  0.3709
 1651ntf    fn4 9643   4.818   3.122   0.607 -0.1480  0.1808 -0.6605
 1651ntf    fn4 9644   4.848   3.234   0.429 -0.5663  0.1047  0.3550
 1651ntf    fn4 9645   5.019   3.153   0.532  0.1307  0.1083 -0.7295
 1652ntf    cn1 9646   4.971   3.515   4.926  0.3813  0.2373  0.4768
 1652ntf    sn2 9647   4.839   3.503   5.050 -0.1438 -0.2794 -0.1273
 1652ntf    nn3 9648   4.905   3.559   5.181 -0.6960  0.1888 -0.0463
 1652ntf    sn2 9649   4.850   3.646   5.299 -0.3657  0.5027 -0.1239
 1652ntf    cn1 9650   4.905   3.559   5.448  0.1634  0.3023 -0.4341
 1652ntf    fn4 9651   4.925   3.493   4.804  0.4132  0.5896  0.3984
 1652ntf    fn4 9652   5.028   3.635   4.919  0.1187  0.3637  0.4536
 1652ntf    fn4 9653   5.077   3.440   4.950  0.4826  0.0610 -0.4718
 1652ntf    on5 9654   4.734   3.579   4.986 -0.0596 -0.3986 -0.4136
 1652ntf    on5 9655   4.811   3.362   5.060 -0.3294 -0.2434 -0.1337
 1652ntf    on5 9656   4.707   3.636   5.317 -0.2454  0.0805  0.6215
 1652ntf    on5 9657   4.910   3.777   5.306  0.4473  0.1551 -0.5319
 1652ntf    fn4 9658   4.926   3.648   5.544  0.2809 -0.0388 -0.1430
 1652ntf    fn4 9659   4.811   3.471   5.479  0.4269  0.1156 -0.1543
 1652ntf    fn4 9660   5.019   3.494   5.430  0.1471  0.1803 -0.1061
 1653ntf    cn1 9661   6.831   1.806   0.032 -0.0715  0.1964  0.1514
 1653ntf    sn2 9662   6.694   1.821   0.150 -0.3965  0.3583 -0.2411
 1653ntf    nn3 9663   6.617   1.954   0.116 -0.5960  0.1435 -0.6296
 1653ntf    sn2 9664   6.673   2.101   0.120 -0.1875 -0.0163 -0.2722
 1653ntf    cn1 9665   6.673   2.161  -0.052  0.0226  0.4347 -0.1147
 1653ntf    fn4 9666   6.853   1.677   0.015  0.0252  0.2548 -0.1759
 1653ntf    fn4 9667   6.794   1.862  -0.082 -0.2280  0.5862  0.3922
 1653ntf    fn4 9668   6.938   1.869   0.080 -0.1001 -0.0748  0.5719
 1653ntf    on5 9669   6.619   1.704   0.113  0.5640 -0.1565 -0.5874
 1653ntf    on5 9670   6.762   1.815   0.278  0.4453 -0.6466 -0.7231
 1653ntf    on5 9671   6.807   2.121   0.168 -0.1781  0.0841 -0.3415
 1653ntf    on5 9672   6.581   2.195   0.179  0.4726  0.7329 -0.4309
 1653ntf    fn4 9673   6.568   2.124  -0.123 -0.1553 -0.3723  0.5421
 1653ntf    fn4 9674   6.685   2.291  -0.070  0.3355  0.4757  0.3682
 1653ntf    fn4 9675   6.778   2.108  -0.112  0.0266  0.1021  0.1783
 1654ntf    cn1 9676   0.384   0.663   4.770  0.1895  0.3643 -0.5797
 1654ntf    sn2 9677   0.308   0.826   4.799 -0.1113  0.1035  0.0950
 1654ntf    nn3 9678   0.387   0.860   4.930 -0.3137 -0.0820  0.2672
 1654ntf    sn2 9679   0.510   0.955   4.956 -0.0489 -0.3616  0.0553
 1654ntf    cn1 9680   0.447   1.115   5.016 -0.3266 -0.4453 -0.0105
 1654ntf    fn4 9681   0.329   0.606   4.663  0.0444 -0.4358 -0.0852
 1654ntf    fn4 9682   0.514   0.680   4.750  0.2586  0.5302  0.0131
 1654ntf    fn4 9683   0.375   0.579   4.871 -0.2185  0.0897 -0.8407
 1654ntf    on5 9684   0.344   0.900   4.681  0.3717 -0.1590  0.0762
 1654ntf    on5 9685   0.173   0.798   4.843 -0.0915  0.2935  0.2776
 1654ntf    on5 9686   0.593   0.999   4.847 -0.2036 -0.7642 -0.2261
 1654ntf    on5 9687   0.572   0.894   5.071  0.1140 -0.2436  0.0288
 1654ntf    fn4 9688   0.351   1.166   4.941  0.1880  0.4859 -0.0526
 1654ntf    fn4 9689   0.391   1.101   5.135  0.0303 -0.3597  0.1697
 1654ntf    fn4 9690   0.538   1.211   5.022 -0.8630  0.0702 -0.0637
 1655ntf    cn1 9691   5.966   5.840   2.629 -0.0228 -0.2153 -0.2113
 1655ntf    sn2 9692   5.878   5.885   2.476  0.2527  0.2562 -0.2344
 1655ntf    nn3 9693   5.752   5.961   2.530 -0.3141 -0.0347 -1.1208
 1655ntf    sn2 9694   5.714   6.112   2.512  0.5201  0.2527 -0.5426
 1655ntf    cn1 9695   5.585   6.081   2.388 -0.0195  0.0015  0.0810
 1655ntf    fn4 9696   6.096   5.834   2.609  0.0745  0.0957  0.3121
 1655ntf    fn4 9697   5.938   5.924   2.727 -0.5008  0.2413 -0.7313
 1655ntf    fn4 9698   5.926   5.724   2.676 -0.3538 -0.0712 -0.1336
 1655ntf    on5 9699   5.965   5.959   2.388  0.3723  0.6199  0.1868
 1655ntf    on5 9700   5.833   5.758   2.424 -0.4737  0.0803  0.7977
 1655ntf    on5 9701   5.810   6.204   2.456  0.2852  0.3854 -0.7291
 1655ntf    on5 9702   5.643   6.166   2.625  0.5183 -0.6666 -0.0995
 1655ntf    fn4 9703   5.628   6.045   2.269 -1.0012  0.1579 -0.3358
 1655ntf    fn4 9704   5.490   5.998   2.428  0.0872 -0.3629 -0.4201
 1655ntf    fn4 9705   5.521   6.194   2.359 -0.0919 -0.0674 -0.0298
 1656ntf    cn1 9706   6.731   0.671   0.422 -0.2175 -0.2722  0.1504
 1656ntf    sn2 9707   6.872   0.759   0.498 -0.0943 -0.0194 -0.3684
 1656ntf    nn3 9708   6.888   0.684   0.635  0.5266  0.2745 -0.2765
 1656ntf    sn2 9709   6.987   0.567   0.666  0.1433 -0.0885 -0.4102
 1656ntf    cn1 9710   7.145   0.648   0.707 -0.1568  0.0330  0.5401
 1656ntf    fn4 9711   6.618   0.661   0.489  0.1198 -0.5114  0.6962
 1656ntf    fn4 9712   6.703   0.726   0.305  0.1907 -0.3640  0.0078
 1656ntf    fn4 9713   6.761   0.546   0.395 -0.0738 -0.1001 -0.4973
 1656ntf    on5 9714   6.981   0.730   0.408  0.0940  0.5302 -0.3212
 1656ntf    on5 9715   6.833   0.898   0.502 -0.2276 -0.0759  0.2553
 1656ntf    on5 9716   7.006   0.464   0.567  0.5145  0.0889 -0.5249
 1656ntf    on5 9717   6.950   0.517   0.796  0.2849 -0.0894 -0.3697
 1656ntf    fn4 9718   7.232   0.570   0.769 -0.2367 -0.2429  0.3081
 1656ntf    fn4 9719   7.219   0.679   0.602 -0.4170 -0.1286  0.3059
 1656ntf    fn4 9720   7.136   0.756   0.782  0.4649  0.3903  0.1104
 1657ntf    cn1 9721   4.434   6.442   5.020 -0.1092 -0.2187  0.5732
 1657ntf    sn2 9722   4.408   6.587   4.913 -0.0657 -0.5574  0.1037
 1657ntf    nn3 9723   4.511   6.568   4.796 -0.0091 -0.0802  0.0731
 1657ntf    sn2 9724   4.480   6.529   4.647  0.2122  0.0810 -0.0155
 1657ntf    cn1 9725   4.594   6.630   4.548 -0.0891  0.1431 -0.2999
 1657ntf    fn4 9726   4.353   6.443   5.124 -0.5081 -0.2408  0.2655
 1657ntf    fn4 9727   4.420   6.323   4.964  0.4568  0.0492 -0.1496
 1657ntf    fn4 9728   4.558   6.440   5.067  0.0828 -0.5135  0.0600
 1657ntf    on5 9729   4.268   6.593   4.881 -0.1687 -0.1878  0.6202
 1657ntf    on5 9730   4.455   6.692   5.000  0.0236 -0.6368  0.1513
 1657ntf    on5 9731   4.354   6.578   4.597  0.4426  0.4975 -0.1935
 1657ntf    on5 9732   4.521   6.395   4.613  1.1302  0.2234  0.4827
 1657ntf    fn4 9733   4.596   6.608   4.418  0.1553  0.5820 -0.3720
 1657ntf    fn4 9734   4.570   6.759   4.564 -0.1026  0.0910  0.1112
 1657ntf    fn4 9735   4.719   6.615   4.588 -0.1659  0.2693 -0.0071
 1658ntf    cn1 9736   0.993   5.580   0.427 -0.0749  0.5112 -0.1734
 1658ntf    sn2 9737   0.822   5.522   0.404 -0.0243  0.1953  0.2333
 1658ntf    nn3 9738   0.787   5.541   0.252 -0.3390 -0.3283  0.2371
 1658ntf    sn2 9739   0.779   5.422   0.150  0.2522 -0.0362 -0.1610
 1658ntf    cn1 9740   0.638   5.324   0.211  0.4323 -0.2163 -0.0338
 1658ntf    fn4 9741   1.014   5.702   0.381 -0.2014  0.1555 -1.2045
 1658ntf    fn4 9742   1.023   5.576   0.556 -0.2807 -0.1958 -0.1417
 1658ntf    fn4 9743   1.082   5.499   0.373 -0.3565  0.2122 -0.1924
 1658ntf    on5 9744   0.825   5.384   0.445  0.5192  0.0714 -0.2021
 1658ntf    on5 9745   0.752   5.619   0.484 -0.6500  0.1298 -0.2240
 1658ntf    on5 9746   0.894   5.335   0.145  0.1462 -0.2169  0.4227
 1658ntf    on5 9747   0.734   5.469   0.022 -0.4477  0.0469  0.1085
 1658ntf    fn4 9748   0.675   5.225   0.291 -0.2045 -0.1710  0.3234
 1658ntf    fn4 9749   0.558   5.400   0.284  0.3966  0.0328 -0.3307
 1658ntf    fn4 9750   0.560   5.265   0.122 -0.1563 -0.1274  0.4236
 1659ntf    cn1 9751   4.208   6.500   2.438 -0.2797 -0.4003  0.3865
 1659ntf    sn2 9752   4.154   6.452   2.272 -0.0909  0.0703  0.1859
 1659ntf    nn3 9753   4.280   6.481   2.183 -0.0359 -0.2802  0.1470
 1659ntf    sn2 9754   4.308   6.608   2.096 -0.0291 -0.2860  0.1410
 1659ntf    cn1 9755   4.205   6.567   1.952  0.3335  0.2821 -0.2850
 1659ntf    fn4 9756   4.263   6.620   2.452 -0.2522 -0.3155 -0.4159
 1659ntf    fn4 9757   4.105   6.511   2.521 -0.5368  0.1079  0.0075
 1659ntf    fn4 9758   4.301   6.422   2.490  0.0659 -0.0293  0.3254
 1659ntf    on5 9759   4.120   6.313   2.294  0.2078 -0.0001  0.2050
 1659ntf    on5 9760   4.040   6.540   2.265 -0.3286 -0.2833 -0.5369
 1659ntf    on5 9761   4.444   6.609   2.048 -0.0613 -0.5423  0.0432
 1659ntf    on5 9762   4.241   6.727   2.144  0.3767  0.1524 -0.3601
 1659ntf    fn4 9763   4.231   6.447   1.902  0.2664  0.1847 -0.0844
 1659ntf    fn4 9764   4.077   6.577   1.980  0.2263 -0.5194 -0.4370
 1659ntf    fn4 9765   4.226   6.653   1.853  0.1205  0.3004 -0.3153
 1660ntf    cn1 9766   0.286   2.391   4.749 -0.0789  0.2838  0.0239
 1660ntf    sn2 9767   0.399   2.279   4.662 -0.1635  0.1702  0.0592
 1660ntf    nn3 9768   0.395   2.153   4.755 -0.3489 -0.0351 -0.2273
 1660ntf    sn2 9769   0.363   2.005   4.713 -0.0402 -0.1967  0.1033
 1660ntf    cn1 9770   0.494   1.929   4.814  0.3426  0.4357  0.0857
 1660ntf    fn4 9771   0.299   2.508   4.689 -0.3640 -0.0418 -0.6887
 1660ntf    fn4 9772   0.160   2.348   4.748  0.0923 -0.2070 -0.5795
 1660ntf    fn4 9773   0.322   2.416   4.874 -0.3507  0.1067  0.1384
 1660ntf    on5 9774   0.341   2.269   4.531 -0.0174  0.3669 -0.0216
 1660ntf    on5 9775   0.524   2.352   4.670  0.2734 -0.5231 -0.3186
 1660ntf    on5 9776   0.399   1.972   4.578 -0.5397  0.4192 -0.1834
 1660ntf    on5 9777   0.236   1.962   4.768 -0.0427 -0.4987 -0.1351
 1660ntf    fn4 9778   0.491   1.797   4.814 -0.6721  0.4476 -0.5945
 1660ntf    fn4 9779   0.613   1.966   4.771  0.2059  0.0484 -0.6463
 1660ntf    fn4 9780   0.474   1.948   4.944 -0.1750 -0.3265  0.1232
 1661ntf    cn1 9781   6.790   0.911   2.424 -0.1837 -0.1861 -0.0601
 1661ntf    sn2 9782   6.763   0.797   2.285  0.1329 -0.6737  0.2723
 1661ntf    nn3 9783   6.613   0.766   2.319 -0.0186  0.1566  0.3709
 1661ntf    sn2 9784   6.489   0.780   2.224  0.2550  0.0978  0.0038
 1661ntf    cn1 9785   6.479   0.610   2.160 -0.3693 -0.0232  0.4115
 1661ntf    fn4 9786   6.737   1.027   2.392  0.7520  0.1837 -0.3100
 1661ntf    fn4 9787   6.727   0.873   2.534  0.0405 -0.2262  0.0564
 1661ntf    fn4 9788   6.916   0.919   2.466 -0.1455  0.0237 -0.2147
 1661ntf    on5 9789   6.778   0.883   2.170 -0.0318 -0.4928  0.3851
 1661ntf    on5 9790   6.857   0.691   2.309  0.4108 -0.5328 -0.1845
 1661ntf    on5 9791   6.488   0.855   2.101  0.5152 -0.3048 -0.2462
 1661ntf    on5 9792   6.371   0.796   2.306 -0.0290  0.3658 -0.4560
 1661ntf    fn4 9793   6.447   0.508   2.238 -0.0526 -0.4417 -0.0062
 1661ntf    fn4 9794   6.395   0.608   2.057 -0.0343 -0.5663  0.1477
 1661ntf    fn4 9795   6.596   0.580   2.106 -0.3907  0.1760  0.2545
 1662ntf    cn1 9796   1.721   5.551   3.802  0.1080 -0.0143  0.2763
 1662ntf    sn2 9797   1.876   5.641   3.774  0.0247 -0.0663 -0.3581
 1662ntf    nn3 9798   1.881   5.624   3.617 -0.1844 -0.9155 -0.2780
 1662ntf    sn2 9799   1.817   5.737   3.528  0.2093 -0.1332  0.4112
 1662ntf    cn1 9800   1.822   5.633   3.379  0.2248  0.4078  0.0326
 1662ntf    fn4 9801   1.703   5.453   3.715 -0.3755  0.6476 -0.3813
 1662ntf    fn4 9802   1.710   5.509   3.927  0.0610 -0.1362  0.2315
 1662ntf    fn4 9803   1.620   5.635   3.782 -0.0845 -0.2331  0.3156
 1662ntf    on5 9804   1.869   5.771   3.836 -0.4571 -0.2535 -0.0178
 1662ntf    on5 9805   1.976   5.558   3.835 -0.0472  0.2380  0.1771
 1662ntf    on5 9806   1.903   5.847   3.491 -0.8058  0.5269 -0.0019
 1662ntf    on5 9807   1.676   5.760   3.546  0.1030 -0.6390  0.2315
 1662ntf    fn4 9808   1.944   5.631   3.329  0.4796  0.0020  0.6713
 1662ntf    fn4 9809   1.771   5.513   3.401  0.4361  0.2763 -0.1900
 1662ntf    fn4 9810   1.747   5.674   3.278  0.0774 -0.7033 -0.3164
 1663ntf    cn1 9811   2.944   2.666   5.956  0.1841 -0.1704 -0.3362
 1663ntf    sn2 9812   2.866   2.547   5.843 -0.1741 -0.2623  0.0069
 1663ntf    nn3 9813   2.987   2.515   5.750 -0.5364 -0.3633 -0.4312
 1663ntf    sn2 9814   3.094   2.400   5.744  0.0230  0.1212  0.0585
 1663ntf    cn1 9815   3.246   2.497   5.760 -0.1207  0.3058  0.2979
 1663ntf    fn4 9816   3.064   2.631   5.999  0.4291 -0.1944 -1.0384
 1663ntf    fn4 9817   2.964   2.783   5.897  0.3247  0.2345  0.4981
 1663ntf    fn4 9818   2.871   2.688   6.064 -0.5911 -0.7323 -0.7420
 1663ntf    on5 9819   2.817   2.435   5.920 -0.1833  0.0132  0.4061
 1663ntf    on5 9820   2.757   2.622   5.785  0.5310  0.1080 -0.8420
 1663ntf    on5 9821   3.102   2.326   5.620 -0.3248  0.0875  0.0557
 1663ntf    on5 9822   3.102   2.327   5.868  0.0853 -0.2176 -0.1426
 1663ntf    fn4 9823   3.254   2.560   5.876 -0.4015  0.1162  0.4228
 1663ntf    fn4 9824   3.364   2.439   5.749 -0.2581  0.0210  0.3258
 1663ntf    fn4 9825   3.232   2.586   5.663 -0.3798  0.0574  0.1066
 1664ntf    cn1 9826   5.604   3.833   6.575  0.4713 -0.0577 -0.1802
 1664ntf    sn2 9827   5.565   3.992   6.654 -0.1825 -0.3343  0.0604
 1664ntf    nn3 9828   5.543   3.938   6.800  0.1690 -0.3953  0.0917
 1664ntf    sn2 9829   5.409   3.906   6.876  0.2655  0.1237  0.4898
 1664ntf    cn1 9830   5.387   4.061   6.967  0.6184  0.1796  0.4810
 1664ntf    fn4 9831   5.683   3.757   6.649  0.6486 -0.2073 -0.5204
 1664ntf    fn4 9832   5.491   3.766   6.558  0.1086  0.3270  0.6559
 1664ntf    fn4 9833   5.659   3.845   6.456 -0.0357  0.2999 -0.3821
 1664ntf    on5 9834   5.684   4.072   6.645 -0.3160 -0.1798 -0.3536
 1664ntf    on5 9835   5.451   4.053   6.589 -0.3860 -0.4777  0.2805
 1664ntf    on5 9836   5.436   3.818   6.987  0.0364  0.1153  0.5389
 1664ntf    on5 9837   5.289   3.896   6.796  0.2978 -0.5275  0.5202
 1664ntf    fn4 9838   5.261   4.101   6.978  0.5653  0.2353 -0.2475
 1664ntf    fn4 9839   5.429   4.040   7.091  0.1290 -0.0644  0.6065
 1664ntf    fn4 9840   5.468   4.161   6.933  0.6067 -0.0543 -0.2468
 1665ntf    cn1 9841   6.081   5.128   1.993  0.2785  0.2439  0.3633
 1665ntf    sn2 9842   6.188   5.154   1.849 -0.0914  0.1497  0.0688
 1665ntf    nn3 9843   6.238   5.301   1.872  0.5928  0.0153 -0.4969
 1665ntf    sn2 9844   6.166   5.435   1.833 -0.3484 -0.5046 -0.5877
 1665ntf    cn1 9845   6.264   5.556   1.927 -0.5515 -0.3497 -0.5748
 1665ntf    fn4 9846   6.106   5.010   2.049  0.0397  0.2674  0.5214
 1665ntf    fn4 9847   6.089   5.217   2.090 -0.4459  0.3820  0.3046
 1665ntf    fn4 9848   5.954   5.123   1.957  0.1962 -0.7134  0.7555
 1665ntf    on5 9849   6.295   5.057   1.862  0.4347  0.6656 -0.3442
 1665ntf    on5 9850   6.096   5.146   1.739  0.2083  0.2735 -0.1923
 1665ntf    on5 9851   6.033   5.448   1.887  0.0080 -0.3196  0.2491
 1665ntf    on5 9852   6.191   5.477   1.697 -0.1129  0.3751 -0.2796
 1665ntf    fn4 9853   6.268   5.510   2.052  0.7350 -0.3611 -0.6116
 1665ntf    fn4 9854   6.388   5.581   1.889 -0.2677  0.0902  0.6033
 1665ntf    fn4 9855   6.201   5.671   1.936  0.5545  0.2347 -0.0763
 1666ntf    cn1 9856   0.319   0.999   2.121 -0.1584 -0.0640 -0.2983
 1666ntf    sn2 9857   0.396   1.045   1.963 -0.4037  0.0898 -0.3735
 1666ntf    nn3 9858   0.270   1.085   1.878 -0.9532  0.0841  0.4230
 1666ntf    sn2 9859   0.226   1.230   1.837 -0.3005  0.1765  0.0332
 1666ntf    cn1 9860   0.145   1.204   1.677 -0.1646 -0.5101  0.0749
 1666ntf    fn4 9861   0.239   1.096   2.162  0.4802  0.6631 -0.7452
 1666ntf    fn4 9862   0.250   0.886   2.108 -0.4571  0.0836 -0.0231
 1666ntf    fn4 9863   0.399   0.972   2.223 -0.4511 -0.2877 -0.1273
 1666ntf    on5 9864   0.484   1.153   2.000  0.2973 -0.6771  0.2279
 1666ntf    on5 9865   0.460   0.921   1.927 -0.3534 -0.0048  0.0315
 1666ntf    on5 9866   0.329   1.325   1.800 -0.2455  0.5521  1.1062
 1666ntf    on5 9867   0.122   1.287   1.919 -0.6191 -0.0525 -0.2113
 1666ntf    fn4 9868   0.106   1.313   1.613  0.4319 -0.0326  0.5167
 1666ntf    fn4 9869   0.229   1.153   1.589 -0.0215 -0.5759  0.2490
 1666ntf    fn4 9870   0.042   1.122   1.690  0.3623 -1.1153  0.4799
 1667ntf    cn1 9871   5.743   4.092   1.093 -0.2955  0.0313 -0.1781
 1667ntf    sn2 9872   5.710   3.942   0.996  0.0081 -0.1811  0.0454
 1667ntf    nn3 9873   5.777   3.988   0.862 -0.1150  0.2697  0.1364
 1667ntf    sn2 9874   5.723   4.066   0.736 -0.1593  0.3690  0.2163
 1667ntf    cn1 9875   5.686   3.941   0.610  0.2589  0.0411  0.4146
 1667ntf    fn4 9876   5.702   4.081   1.219 -0.1384 -0.1071 -0.1383
 1667ntf    fn4 9877   5.873   4.109   1.109 -0.3226 -0.2878  0.4104
 1667ntf    fn4 9878   5.698   4.204   1.038 -0.7078  0.1900  0.4646
 1667ntf    on5 9879   5.794   3.846   1.063 -0.2818  0.1263  0.8662
 1667ntf    on5 9880   5.567   3.927   1.005 -0.0684  0.0412 -0.7349
 1667ntf    on5 9881   5.821   4.145   0.667 -0.5645  0.1573 -0.6053
 1667ntf    on5 9882   5.597   4.132   0.759 -0.1626  0.4436 -0.0217
 1667ntf    fn4 9883   5.798   3.884   0.568  0.3735  0.0775  0.6691
 1667ntf    fn4 9884   5.598   3.851   0.653 -0.1494  0.3587  0.2455
 1667ntf    fn4 9885   5.628   3.994   0.504  0.1416 -0.4899  0.2063
 1668ntf    cn1 9886   2.356   5.355   5.298 -0.2120  0.4171 -0.1019
 1668ntf    sn2 9887   2.484   5.476   5.344  0.0508  0.0656  0.0956
 1668ntf    nn3 9888   2.594   5.449   5.235 -0.0850  0.1348 -0.0582
 1668ntf    sn2 9889   2.748   5.443   5.265 -0.0344  0.4336 -0.2550
 1668ntf    cn1 9890   2.781   5.267   5.298  0.1901  0.5636  0.2181
 1668ntf    fn4 9891   2.238   5.372   5.356  0.0775 -0.0666  0.6538
 1668ntf    fn4 9892   2.335   5.351   5.168  0.2159 -0.1519 -0.1570
 1668ntf    fn4 9893   2.389   5.228   5.318 -0.2951  0.4229  0.0788
 1668ntf    on5 9894   2.410   5.599   5.339 -0.5088 -0.2866 -0.6113
 1668ntf    on5 9895   2.525   5.428   5.473  1.0518  0.1753 -0.1725
 1668ntf    on5 9896   2.803   5.502   5.384  0.3435 -0.1298 -0.1479
 1668ntf    on5 9897   2.832   5.469   5.151 -0.1292  0.1410 -0.3945
 1668ntf    fn4 9898   2.701   5.222   5.392 -0.1493  0.1052 -0.2862
 1668ntf    fn4 9899   2.756   5.205   5.184 -0.0338  0.4342  0.3372
 1668ntf    fn4 9900   2.905   5.244   5.337  0.0278 -0.0918  0.3481
 1669ntf    cn1 9901   3.304   2.272   3.275 -0.2951  0.3286  0.5084
 1669ntf    sn2 9902   3.405   2.285   3.426  0.1771 -0.0018  0.2228
 1669ntf    nn3 9903   3.519   2.381   3.379 -0.1141 -0.1671 -0.8487
 1669ntf    sn2 9904   3.517   2.537   3.388  0.0195 -0.2087 -0.0175
 1669ntf    cn1 9905   3.593   2.588   3.230 -0.6211 -0.1068 -0.2960
 1669ntf    fn4 9906   3.280   2.391   3.221  0.8672  0.1838 -0.3699
 1669ntf    fn4 9907   3.368   2.210   3.177 -0.8064  0.3902  0.1291
 1669ntf    fn4 9908   3.190   2.208   3.298  0.0167 -0.4839 -0.1739
 1669ntf    on5 9909   3.313   2.336   3.524 -0.2240 -0.2995  0.0096
 1669ntf    on5 9910   3.452   2.149   3.434 -0.5712 -0.2736  0.1411
 1669ntf    on5 9911   3.611   2.589   3.484 -0.1813  0.3814 -0.1356
 1669ntf    on5 9912   3.389   2.603   3.380  0.0450 -0.2160 -0.5206
 1669ntf    fn4 9913   3.713   2.534   3.223 -0.5376  0.0515 -0.0951
 1669ntf    fn4 9914   3.514   2.549   3.131  0.2702 -0.5079 -0.8558
 1669ntf    fn4 9915   3.616   2.718   3.223  0.6673 -0.3087  0.0445
 1670ntf    cn1 9916   6.828   1.582   4.080  0.1833  0.4066 -0.2002
 1670ntf    sn2 9917   6.686   1.649   4.172  0.0013  0.0351 -0.2043
 1670ntf    nn3 9918   6.568   1.546   4.160 -0.0533  0.0649  0.0780
 1670ntf    sn2 9919   6.450   1.518   4.260 -0.1287 -0.0372 -0.0395
 1670ntf    cn1 9920   6.526   1.378   4.347 -0.2129 -0.2577 -0.3194
 1670ntf    fn4 9921   6.849   1.454   4.107  0.1741  0.4083 -0.1846
 1670ntf    fn4 9922   6.799   1.595   3.951 -0.5299  0.0534 -0.0820
 1670ntf    fn4 9923   6.935   1.653   4.109  0.2297  0.2513  0.0100
 1670ntf    on5 9924   6.745   1.650   4.303 -0.4419  0.5845 -0.0019
 1670ntf    on5 9925   6.647   1.778   4.120  0.2525  0.6904  1.1883
 1670ntf    on5 9926   6.341   1.462   4.185 -0.2306 -0.0234  0.0979
 1670ntf    on5 9927   6.420   1.617   4.360 -0.3783  0.2452 -0.3886
 1670ntf    fn4 9928   6.489   1.347   4.470 -0.1207  0.0012 -0.2249
 1670ntf    fn4 9929   6.522   1.264   4.280  0.6623 -0.6118  0.2155
 1670ntf    fn4 9930   6.656   1.399   4.363 -0.3864  0.3725  0.2780
 1671ntf    cn1 9931   0.144   2.710   2.750  0.2321  0.0064  0.0849
 1671ntf    sn2 9932   0.027   2.587   2.685 -0.0850  0.2141  0.2608
 1671ntf    nn3 9933   0.029   2.481   2.801 -0.7994  0.1652  0.2336
 1671ntf    sn2 9934   0.125   2.357   2.809 -0.4983  0.4288  0.7670
 1671ntf    cn1 9935   0.011   2.224   2.761 -0.2063  0.1788  0.7586
 1671ntf    fn4 9936   0.268   2.667   2.761  0.3448  0.3711  0.2617
 1671ntf    fn4 9937   0.145   2.819   2.675  0.5698  0.0337  0.1289
 1671ntf    fn4 9938   0.108   2.753   2.870  0.1734  0.1233  0.0260
 1671ntf    on5 9939  -0.102   2.652   2.678 -0.1898 -0.0832 -0.6619
 1671ntf    on5 9940   0.088   2.546   2.561 -0.1325 -0.6287  0.5115
 1671ntf    on5 9941   0.160   2.326   2.945  0.7934 -0.6117  0.2231
 1671ntf    on5 9942   0.228   2.351   2.707 -0.5238 -0.4392  0.7865
 1671ntf    fn4 9943  -0.069   2.186   2.859 -0.0334  0.1249  0.8775
 1671ntf    fn4 9944  -0.071   2.265   2.665  0.0507 -0.8084  0.1099
 1671ntf    fn4 9945   0.064   2.111   2.718 -0.7257  0.2234 -0.0240
 1672ntf    cn1 9946   0.364   3.379   5.892  0.1703 -0.1279  0.0214
 1672ntf    sn2 9947   0.468   3.244   5.828  0.0509 -0.1576 -0.1114
 1672ntf    nn3 9948   0.390   3.123   5.889  0.1116  0.0499  0.3843
 1672ntf    sn2 9949   0.282   3.027   5.827  0.4066 -0.0885  0.0828
 1672ntf    cn1 9950   0.156   3.076   5.949  0.5775  0.2672  0.1183
 1672ntf    fn4 9951   0.242   3.368   5.842  0.2230  0.1399 -0.1697
 1672ntf    fn4 9952   0.359   3.378   6.024  0.0856 -0.0015  0.0189
 1672ntf    fn4 9953   0.400   3.499   5.850 -0.4139  0.2825  0.6720
 1672ntf    on5 9954   0.461   3.261   5.685 -0.0355 -0.8275 -0.1896
 1672ntf    on5 9955   0.590   3.274   5.899 -0.0638 -0.0451  0.0388
 1672ntf    on5 9956   0.300   2.886   5.854 -0.5747 -0.1913  0.2456
 1672ntf    on5 9957   0.228   3.061   5.698  0.9211  0.7317  0.0807
 1672ntf    fn4 9958   0.179   3.036   6.073 -0.2184 -0.0803  0.1644
 1672ntf    fn4 9959   0.136   3.206   5.941 -0.0008  0.2054  0.4915
 1672ntf    fn4 9960   0.039   3.018   5.926  0.3226  0.7865  0.1057
 1673ntf    cn1 9961   2.555   2.993   1.613 -0.1422 -0.0735  0.6848
 1673ntf    sn2 9962   2.564   3.165   1.554 -0.0679 -0.2251  0.2544
 1673ntf    nn3 9963   2.564   3.236   1.694  0.2003  0.2853  0.0003
 1673ntf    sn2 9964   2.455   3.327   1.761  0.2301  0.2427  0.1069
 1673ntf    cn1 9965   2.425   3.229   1.911 -0.2965  0.0536 -0.1182
 1673ntf    fn4 9966   2.545   2.902   1.518  0.1797 -0.2392  0.8066
 1673ntf    fn4 9967   2.661   2.957   1.684 -0.0137 -0.0375  0.5119
 1673ntf    fn4 9968   2.440   2.980   1.677 -0.3368 -0.2658  0.2962
 1673ntf    on5 9969   2.683   3.175   1.472  0.4090 -0.5707  0.8985
 1673ntf    on5 9970   2.445   3.190   1.477 -0.0933  0.2992  0.4611
 1673ntf    on5 9971   2.321   3.336   1.708  0.2054  0.1344  0.1504
 1673ntf    on5 9972   2.517   3.452   1.799 -0.2795  0.5533 -0.0796
 1673ntf    fn4 9973   2.401   3.104   1.875 -0.2112 -0.0341  0.1253
 1673ntf    fn4 9974   2.531   3.240   1.990 -0.0991 -0.4953 -0.3033
 1673ntf    fn4 9975   2.318   3.273   1.976 -0.1741 -0.6579  0.5879
 1674ntf    cn1 9976   3.987   2.843   3.610 -0.1987  0.1376  0.0360
 1674ntf    sn2 9977   4.037   2.896   3.444 -0.1436  0.0718  0.0317
 1674ntf    nn3 9978   4.192   2.908   3.465 -0.0788 -0.1276 -0.3154
 1674ntf    sn2 9979   4.306   2.958   3.369 -0.2129 -0.3953 -0.6155
 1674ntf    cn1 9980   4.402   2.808   3.332  0.3343 -0.1646 -0.1533
 1674ntf    fn4 9981   4.003   2.945   3.693  0.0116  0.2014 -0.0826
 1674ntf    fn4 9982   3.859   2.812   3.623 -0.2392  0.3816  0.2336
 1674ntf    fn4 9983   4.059   2.746   3.664 -0.1091 -0.2986 -0.8448
 1674ntf    on5 9984   4.000   2.779   3.368 -0.4951  0.1276  0.1179
 1674ntf    on5 9985   3.966   3.020   3.425  0.1990  0.3763  0.7255
 1674ntf    on5 9986   4.407   3.037   3.435 -0.5851 -0.5079  0.1001
 1674ntf    on5 9987   4.252   3.005   3.244 -0.3972  0.7279 -0.1312
 1674ntf    fn4 9988   4.457   2.762   3.443 -0.5774 -0.0793  0.3497
 1674ntf    fn4 9989   4.335   2.701   3.290  0.2396 -0.1607 -0.0136
 1674ntf    fn4 9990   4.500   2.838   3.249 -0.2322 -0.5492 -0.9757
 1675ntf    cn1 9991   6.076   1.121   0.547  0.4253  0.0034 -0.2631
 1675ntf    sn2 9992   5.998   1.245   0.654  0.5933 -0.1882  0.0854
 1675ntf    nn3 9993   5.982   1.341   0.531  0.3138  0.0630  0.3162
 1675ntf    sn2 9994   6.029   1.491   0.519  0.5222 -0.0451 -0.2333
 1675ntf    cn1 9995   5.923   1.552   0.385 -0.1328  0.3483  0.4584
 1675ntf    fn4 9996   6.123   1.022   0.622 -0.7553 -0.2008  0.2267
 1675ntf    fn4 9997   5.986   1.067   0.467  0.1812 -0.0436  0.0418
 1675ntf    fn4 9998   6.177   1.164   0.473  0.3483  0.1137 -0.3035
 1675ntf    on5 9999   5.879   1.179   0.701  0.4068  0.1837  0.1402
 1675ntf    on510000   6.105   1.276   0.746  0.5894  0.3298 -0.0815
 1675ntf    on510001   6.161   1.506   0.463  0.6529  0.0362  0.0964
 1675ntf    on510002   5.992   1.576   0.629  0.2317 -0.7309  0.2049
 1675ntf    fn410003   5.946   1.485   0.273  0.0921 -0.1384  0.7903
 1675ntf    fn410004   5.795   1.527   0.408  0.0148 -0.5805  0.3372
 1675ntf    fn410005   5.943   1.679   0.353 -0.3562  0.2623 -0.0298
 1676ntf    cn110006   0.704   4.622   2.153 -0.4387  0.2204 -0.5011
 1676ntf    sn210007   0.750   4.509   2.018  0.1763 -0.3275  0.1612
 1676ntf    nn310008   0.662   4.385   2.060 -0.2325  0.0026  0.2949
 1676ntf    sn210009   0.525   4.342   1.997 -0.0811 -0.0530 -0.0014
 1676ntf    cn110010   0.571   4.256   1.844  0.0860 -0.1696  0.1128
 1676ntf    fn410011   0.781   4.728   2.167  0.0394 -0.2137  0.2034
 1676ntf    fn410012   0.579   4.666   2.152 -0.3449  0.4994 -0.0539
 1676ntf    fn410013   0.718   4.559   2.268 -0.3809  0.2335 -0.5008
 1676ntf    on510014   0.711   4.568   1.892 -0.4958 -0.1629  0.4394
 1676ntf    on510015   0.891   4.481   2.030  0.1954 -0.3181 -0.0449
 1676ntf    on510016   0.447   4.450   1.943 -0.1748  0.2449  0.7218
 1676ntf    on510017   0.455   4.239   2.071  0.1877 -0.2507 -0.0191
 1676ntf    fn410018   0.646   4.328   1.762 -0.3170  0.3967  0.2388
 1676ntf    fn410019   0.636   4.143   1.863  0.1686 -0.1935 -0.2914
 1676ntf    fn410020   0.462   4.221   1.777 -0.0116 -0.3368  0.3623
 1677ntf    cn110021   0.741   0.135   0.398 -0.0014  0.1839  0.3645
 1677ntf    sn210022   0.796   0.309   0.387 -0.0221  0.1893  0.3489
 1677ntf    nn310023   0.724   0.388   0.502 -0.0283  0.6712  0.0162
 1677ntf    sn210024   0.761   0.451   0.641 -0.1139  0.3371  0.1922
 1677ntf    cn110025   0.673   0.610   0.644 -0.2209  0.2814  0.0243
 1677ntf    fn410026   0.785   0.064   0.500 -0.2228 -0.2472  0.1620
 1677ntf    fn410027   0.609   0.130   0.402 -0.0008 -0.2050 -0.0470
 1677ntf    fn410028   0.775   0.067   0.290 -0.0997  0.7417 -0.0215
 1677ntf    on510029   0.940   0.312   0.388 -0.0189  0.3026 -0.0252
 1677ntf    on510030   0.744   0.357   0.261  0.1600 -0.2565  0.0979
 1677ntf    on510031   0.896   0.500   0.651  0.0307 -0.1997  0.9288
 1677ntf    on510032   0.700   0.390   0.756 -0.1928  0.0068 -0.0219
 1677ntf    fn410033   0.737   0.709   0.704  0.4661 -0.3307  0.3139
 1677ntf    fn410034   0.656   0.652   0.519 -0.3709 -0.1477 -0.1014
 1677ntf    fn410035   0.547   0.597   0.683 -0.1508 -0.4077  0.0390
 1678ntf    cn110036   1.102   0.055   3.680 -0.3301 -0.0248 -0.1230
 1678ntf    sn210037   1.044   0.113   3.518 -0.0877 -0.0254 -0.2106
 1678ntf    nn310038   1.172   0.180   3.456 -0.5677  0.4253 -0.7287
 1678ntf    sn210039   1.265   0.138   3.337  0.4443 -0.0049  0.2025
 1678ntf    cn110040   1.317   0.297   3.266  0.0924 -0.0839 -0.2350
 1678ntf    fn410041   1.025  -0.029   3.747 -0.0108 -0.6915 -0.5766
 1678ntf    fn410042   1.222  -0.001   3.672 -0.2688  0.1475 -0.4516
 1678ntf    fn410043   1.124   0.158   3.760  0.3031 -0.0978 -0.1958
 1678ntf    on510044   0.995  -0.008   3.455  0.0774 -0.1565 -0.0850
 1678ntf    on510045   0.945   0.211   3.555  0.3911  0.0813  0.7970
 1678ntf    on510046   1.204   0.068   3.226 -0.2365  0.5350  0.2318
 1678ntf    on510047   1.393   0.088   3.382  0.4464  0.0128  0.2161
 1678ntf    fn410048   1.222   0.361   3.200  0.5967 -0.0230 -0.9171
 1678ntf    fn410049   1.356   0.385   3.356 -0.4682 -0.4579  0.3747
 1678ntf    fn410050   1.416   0.282   3.179  0.0279 -0.7873 -0.1931
 1679ntf    cn110051   6.537   6.579   3.570 -0.2055 -0.0314  0.4520
 1679ntf    sn210052   6.719   6.570   3.575 -0.2216 -0.4927  0.2568
 1679ntf    nn310053   6.758   6.431   3.513 -0.0970 -0.0445 -0.6705
 1679ntf    sn210054   6.864   6.321   3.548 -0.0947  0.1080 -0.1880
 1679ntf    cn110055   6.993   6.374   3.431 -0.0010  0.0585 -0.1071
 1679ntf    fn410056   6.478   6.482   3.638  0.1521 -0.9048 -0.4644
 1679ntf    fn410057   6.487   6.688   3.626 -0.4158 -0.0629  0.3256
 1679ntf    fn410058   6.481   6.575   3.451  0.2446 -0.5486  0.2529
 1679ntf    on510059   6.756   6.677   3.487 -0.1361 -0.3577  0.4568
 1679ntf    on510060   6.760   6.587   3.712  0.0178  0.4486  0.0684
 1679ntf    on510061   6.841   6.186   3.503  0.5547 -0.2143  0.4287
 1679ntf    on510062   6.926   6.335   3.677 -0.5425  0.0382  0.0335
 1679ntf    fn410063   6.996   6.309   3.315  0.2084  0.2447 -0.2068
 1679ntf    fn410064   6.992   6.505   3.414 -0.0998  0.1256  0.4069
 1679ntf    fn410065   7.114   6.361   3.482  0.2258 -0.0065 -0.6475
 1680ntf    cn110066   3.378   1.393   0.497 -0.3520 -0.2011 -0.4326
 1680ntf    sn210067   3.415   1.234   0.417  0.0899 -0.3596  0.0834
 1680ntf    nn310068   3.272   1.168   0.419  0.0816 -0.3366  0.2903
 1680ntf    sn210069   3.193   1.125   0.291 -0.0480 -0.2142  0.3290
 1680ntf    cn110070   3.134   1.287   0.233  0.4357 -0.1540  0.0010
 1680ntf    fn410071   3.400   1.385   0.627  0.7055  0.1540 -0.5788
 1680ntf    fn410072   3.463   1.490   0.467 -0.0693 -0.4401 -0.4085
 1680ntf    fn410073   3.259   1.446   0.476 -0.3450 -0.0912 -0.1878
 1680ntf    on510074   3.464   1.280   0.290 -0.3156  0.2905  0.1566
 1680ntf    on510075   3.503   1.162   0.506 -0.0119 -0.5477  0.0313
 1680ntf    on510076   3.074   1.055   0.333 -0.1700 -0.0201  0.3072
 1680ntf    on510077   3.267   1.081   0.175 -0.5490  0.2540 -0.1766
 1680ntf    fn410078   3.050   1.273   0.131 -0.2354 -0.3578  0.5762
 1680ntf    fn410079   3.072   1.348   0.333  0.4501  0.4598 -0.3576
 1680ntf    fn410080   3.225   1.371   0.186  0.0644  0.3419  0.1575
 1681ntf    cn110081   5.820   6.790   6.542 -0.2004  0.0358 -0.0698
 1681ntf    sn210082   5.700   6.874   6.434 -0.2771 -0.1831 -0.1549
 1681ntf    nn310083   5.604   6.932   6.543  0.3666 -0.1226  0.3871
 1681ntf    sn210084   5.642   7.025   6.664  0.0998  0.1919  0.2330
 1681ntf    cn110085   5.508   7.147   6.655  0.0871  0.1667  0.0821
 1681ntf    fn410086   5.901   6.704   6.484 -0.5058 -0.1500 -0.2220
 1681ntf    fn410087   5.887   6.885   6.605 -0.3096 -0.0052  0.1107
 1681ntf    fn410088   5.759   6.715   6.633 -0.5332  0.1962 -0.1571
 1681ntf    on510089   5.778   6.960   6.349  0.0435 -0.1245  0.1964
 1681ntf    on510090   5.647   6.762   6.361  0.8437 -0.7226 -0.1643
 1681ntf    on510091   5.762   7.104   6.651  0.1589  0.0714  0.0419
 1681ntf    on510092   5.630   6.957   6.791 -0.2594 -0.2279 -0.0256
 1681ntf    fn410093   5.506   7.182   6.527  0.8916 -0.1537 -0.0262
 1681ntf    fn410094   5.389   7.098   6.681  0.0223  0.2134 -0.1237
 1681ntf    fn410095   5.539   7.256   6.724  0.8633 -0.1526  0.2559
 1682ntf    cn110096   2.563   0.844   1.163  0.1295 -0.3410 -0.0631
 1682ntf    sn210097   2.497   0.829   1.331  0.2856  0.2064  0.0493
 1682ntf    nn310098   2.344   0.855   1.310  0.3049  0.5655  0.3460
 1682ntf    sn210099   2.259   0.987   1.320 -0.3668  0.1867 -0.2724
 1682ntf    cn110100   2.097   0.907   1.300 -0.1524 -0.3469  0.1265
 1682ntf    fn410101   2.537   0.963   1.111  0.0412 -0.4408 -0.2492
 1682ntf    fn410102   2.694   0.826   1.167  0.1385 -0.4875 -0.7812
 1682ntf    fn410103   2.516   0.753   1.079 -0.0616 -0.5409  0.2586
 1682ntf    on510104   2.515   0.693   1.376 -0.1255  0.2006  0.2023
 1682ntf    on510105   2.570   0.936   1.395  0.0287  0.3711  0.0692
 1682ntf    on510106   2.276   1.076   1.208 -0.0026  0.1971 -0.2096
 1682ntf    on510107   2.249   1.040   1.454 -0.4058  0.2203 -0.2884
 1682ntf    fn410108   1.992   0.984   1.323  0.0101 -0.0936  0.0165
 1682ntf    fn410109   2.083   0.865   1.175 -0.1375  0.3901 -0.1243
 1682ntf    fn410110   2.082   0.801   1.379  0.2662 -0.6813 -0.2382
 1683ntf    cn110111   1.451   0.011   2.200 -0.0360  0.1555 -0.6695
 1683ntf    sn210112   1.282   0.068   2.238  0.1669  0.0781  0.3636
 1683ntf    nn310113   1.293   0.125   2.384  0.8018 -0.0558  0.3734
 1683ntf    sn210114   1.322   0.272   2.430  0.1548  0.3426 -0.4685
 1683ntf    cn110115   1.358   0.244   2.606  0.0565  0.1904 -0.4723
 1683ntf    fn410116   1.473  -0.086   2.286 -0.2503  0.4194 -0.3150
 1683ntf    fn410117   1.453  -0.033   2.075 -0.2968 -0.3562 -0.4944
 1683ntf    fn410118   1.549   0.098   2.221 -0.1329  0.1627 -0.2532
 1683ntf    on510119   1.259   0.163   2.132  1.4095 -0.2437 -0.2152
 1683ntf    on510120   1.198  -0.049   2.239 -0.4052  0.4826 -0.1034
 1683ntf    on510121   1.204   0.353   2.444  0.1017  0.2987 -0.6617
 1683ntf    on510122   1.441   0.340   2.385  0.5292 -0.1701 -0.2606
 1683ntf    fn410123   1.389   0.358   2.666  0.3480 -0.1063 -0.0556
 1683ntf    fn410124   1.264   0.195   2.685  0.2251  0.1929 -0.2700
 1683ntf    fn410125   1.459   0.161   2.627  0.1982  0.4179 -0.2498
 1684ntf    cn110126   1.784   0.739   4.042  0.0950 -0.3506  0.1026
 1684ntf    sn210127   1.729   0.698   3.873  0.0535  0.2018 -0.0170
 1684ntf    nn310128   1.825   0.578   3.840 -0.3642 -0.0899 -0.1773
 1684ntf    sn210129   1.949   0.568   3.744  0.1224  0.0883  0.4243
 1684ntf    cn110130   2.068   0.495   3.861  0.0913  0.0397  0.4254
 1684ntf    fn410131   1.795   0.631   4.118 -0.0182 -0.3560  0.1123
 1684ntf    fn410132   1.907   0.784   4.031  0.0503 -0.2404  0.0502
 1684ntf    fn410133   1.704   0.827   4.099  0.5827  0.0580  0.1591
 1684ntf    on510134   1.594   0.653   3.890  0.3392 -0.4289  0.6207
 1684ntf    on510135   1.747   0.820   3.797 -0.1129 -0.0216 -0.4162
 1684ntf    on510136   2.007   0.696   3.712 -0.5956  0.4040  0.3581
 1684ntf    on510137   1.937   0.470   3.639 -0.3352  0.6679 -0.0710
 1684ntf    fn410138   2.023   0.381   3.911  0.5513 -0.4873 -0.3322
 1684ntf    fn410139   2.189   0.475   3.811 -0.1481  0.0397 -0.1636
 1684ntf    fn410140   2.088   0.579   3.961  0.0894  0.0805  0.3916
 1685ntf    cn110141   0.627   5.278   3.986  0.2909  0.2563 -0.6699
 1685ntf    sn210142   0.755   5.256   4.113 -0.3841  0.2551  0.0177
 1685ntf    nn310143   0.891   5.261   4.034 -0.4719  0.4212 -0.1220
 1685ntf    sn210144   0.964   5.388   3.978  0.0437  0.1399 -0.0844
 1685ntf    cn110145   1.080   5.435   4.110 -0.1749 -0.0686  0.1825
 1685ntf    fn410146   0.644   5.389   3.915 -0.1071  0.6193 -0.2101
 1685ntf    fn410147   0.628   5.181   3.897  0.6246 -0.0100 -0.3761
 1685ntf    fn410148   0.504   5.287   4.035  0.7983  0.5206  0.5978
 1685ntf    on510149   0.734   5.360   4.210  0.3547 -0.4420  0.9402
 1685ntf    on510150   0.735   5.118   4.150  0.5592  0.1225  0.0751
 1685ntf    on510151   0.896   5.513   3.954  0.2052  0.3138  0.3424
 1685ntf    on510152   1.050   5.344   3.871  0.1372  0.4041 -0.1184
 1685ntf    fn410153   1.026   5.429   4.231 -0.3323  0.0359  0.1173
 1685ntf    fn410154   1.184   5.353   4.113 -0.4578 -0.4453 -0.1922
 1685ntf    fn410155   1.127   5.557   4.092  0.4303 -0.3661 -0.2799
 1686ntf    cn110156   5.950   4.804   3.872  0.0472  0.3422  0.2296
 1686ntf    sn210157   6.127   4.786   3.909  0.1458  0.2364 -0.2806
 1686ntf    nn310158   6.184   4.902   3.819  0.3804  0.1248 -0.2772
 1686ntf    sn210159   6.211   5.055   3.842  0.1017  0.2524 -0.7789
 1686ntf    cn110160   6.220   5.106   3.668  0.3861  0.2624 -0.7631
 1686ntf    fn410161   5.895   4.912   3.924  0.3676  0.8680 -0.5081
 1686ntf    fn410162   5.928   4.804   3.741 -0.4897  0.0490  0.3160
 1686ntf    fn410163   5.871   4.707   3.914  0.2041  0.1306  0.0387
 1686ntf    on510164   6.128   4.821   4.049  0.4122  0.3507 -0.3104
 1686ntf    on510165   6.156   4.650   3.871 -0.9192 -0.0371 -0.1597
 1686ntf    on510166   6.342   5.083   3.896 -0.3478 -0.2654  0.6207
 1686ntf    on510167   6.104   5.132   3.899  0.0637 -0.4744  0.1734
 1686ntf    fn410168   6.122   5.052   3.597 -0.4362  0.3828  0.2492
 1686ntf    fn410169   6.209   5.237   3.652 -0.1439  0.3052 -0.1231
 1686ntf    fn410170   6.323   5.056   3.604  0.7675  0.0100  0.0343
 1687ntf    cn110171   2.735   3.947   3.490  0.6022  0.2194 -0.2659
 1687ntf    sn210172   2.882   3.955   3.596  0.2720  0.1790  0.2011
 1687ntf    nn310173   3.004   3.975   3.499  0.9559 -0.4981  0.9075
 1687ntf    sn210174   3.107   4.092   3.482  0.0428  0.1921  0.0430
 1687ntf    cn110175   3.271   4.018   3.508 -0.1635 -0.3556 -0.2128
 1687ntf    fn410176   2.720   4.069   3.441 -0.1198  0.2552  0.0277
 1687ntf    fn410177   2.736   3.849   3.401  0.3850  0.1972 -0.2456
 1687ntf    fn410178   2.625   3.921   3.560  0.6449 -0.5325 -0.4702
 1687ntf    on510179   2.846   4.064   3.683 -0.3780  0.1350 -0.0086
 1687ntf    on510180   2.888   3.824   3.656  0.0567  0.2390  0.3518
 1687ntf    on510181   3.096   4.197   3.580  0.1562 -0.3373  0.6274
 1687ntf    on510182   3.124   4.132   3.344 -1.5768  0.3893 -0.1181
 1687ntf    fn410183   3.363   4.112   3.517 -0.2435 -0.2964 -0.0150
 1687ntf    fn410184   3.274   3.941   3.616  0.5245 -0.2015 -0.1218
 1687ntf    fn410185   3.309   3.948   3.403  0.3080  0.1190 -0.3612
 1688ntf    cn110186   3.157   6.222   6.316 -0.0185  0.0661  0.2899
 1688ntf    sn210187   3.216   6.192   6.486 -0.1295 -0.1639  0.2880
 1688ntf    nn310188   3.325   6.304   6.502  0.1187 -0.4304  0.4620
 1688ntf    sn210189   3.480   6.290   6.521  0.1706 -0.2518  0.1745
 1688ntf    cn110190   3.521   6.465   6.493  0.0632 -0.2897 -0.2324
 1688ntf    fn410191   3.109   6.344   6.303  0.1082  0.0437 -0.4218
 1688ntf    fn410192   3.251   6.201   6.225 -0.1434 -0.2453  0.2321
 1688ntf    fn410193   3.067   6.136   6.272  0.3056 -0.4312  0.5914
 1688ntf    on510194   3.104   6.212   6.574 -0.0991  0.2138  0.2409
 1688ntf    on510195   3.273   6.062   6.460  0.4228  0.0113  0.6095
 1688ntf    on510196   3.549   6.227   6.411  0.0119 -0.1935  0.0421
 1688ntf    on510197   3.531   6.274   6.655  0.4094  0.5717  0.1863
 1688ntf    fn410198   3.468   6.540   6.588  0.6232 -0.4371  0.2027
 1688ntf    fn410199   3.649   6.498   6.487 -0.0515  0.2573  0.2711
 1688ntf    fn410200   3.463   6.517   6.386 -0.6536  0.4300  0.4956
 1689ntf    cn110201   0.625   4.157   5.950  0.2013 -0.2945 -0.0825
 1689ntf    sn210202   0.554   4.008   5.876 -0.2885 -0.0736 -0.0601
 1689ntf    nn310203   0.590   4.034   5.725  0.5202 -0.4980  0.0552
 1689ntf    sn210204   0.511   4.119   5.619  0.5173 -0.0851  0.3830
 1689ntf    cn110205   0.632   4.241   5.561 -0.2814  0.4914 -0.0915
 1689ntf    fn410206   0.741   4.198   5.901  0.2940 -0.4894 -0.0254
 1689ntf    fn410207   0.542   4.261   5.949  0.0045 -0.4509 -0.0724
 1689ntf    fn410208   0.648   4.144   6.080  0.0840  0.1802 -0.0106
 1689ntf    on510209   0.631   3.898   5.927  0.4115  0.1772 -0.5650
 1689ntf    on510210   0.415   4.011   5.916 -0.1938  0.4477  0.2356
 1689ntf    on510211   0.405   4.202   5.671 -0.1556 -0.8198  0.2060
 1689ntf    on510212   0.483   4.038   5.503  0.1892  0.0204  0.3891
 1689ntf    fn410213   0.724   4.193   5.480 -0.0106 -0.0397  0.5231
 1689ntf    fn410214   0.572   4.332   5.485 -0.1710  0.3816 -0.3106
 1689ntf    fn410215   0.700   4.296   5.660 -0.1388  0.2045 -0.0287
 1690ntf    cn110216   6.610   2.172   3.713  0.1427 -0.2185  0.2936
 1690ntf    sn210217   6.566   2.348   3.731  0.0448 -0.2237  0.1003
 1690ntf    nn310218   6.433   2.329   3.813  0.0621  0.5068  0.3004
 1690ntf    sn210219   6.414   2.279   3.960 -0.0941 -0.0804  0.0856
 1690ntf    cn110220   6.281   2.391   4.015 -0.0210  0.0509 -0.0035
 1690ntf    fn410221   6.726   2.165   3.650 -0.2783 -0.0732 -0.5121
 1690ntf    fn410222   6.631   2.107   3.826 -0.1820 -0.3564  0.2753
 1690ntf    fn410223   6.531   2.097   3.640  0.9111 -0.0380 -0.7445
 1690ntf    on510224   6.681   2.398   3.801 -0.2098  0.1945  0.2249
 1690ntf    on510225   6.548   2.378   3.591  0.0193 -0.5969  0.0204
 1690ntf    on510226   6.513   2.329   4.053  0.0226 -0.2350  0.0436
 1690ntf    on510227   6.347   2.152   3.970 -1.0415  0.3984 -0.0927
 1690ntf    fn410228   6.297   2.517   3.980 -0.0145 -0.1004 -0.5453
 1690ntf    fn410229   6.161   2.368   3.965 -0.0783  0.7781 -0.2082
 1690ntf    fn410230   6.269   2.392   4.147 -0.2531 -0.4357 -0.0155
 1691ntf    cn110231   0.844   4.512   5.210 -0.0737  0.0081  0.0025
 1691ntf    sn210232   0.982   4.399   5.176  0.0089  0.0223  0.2881
 1691ntf    nn310233   0.907   4.261   5.185  0.3440 -0.1951 -0.1702
 1691ntf    sn210234   0.812   4.192   5.082 -0.0143 -0.1971  0.1617
 1691ntf    cn110235   0.918   4.085   4.980  0.1914  0.2107 -0.0542
 1691ntf    fn410236   0.896   4.633   5.205 -0.0902  0.0142 -0.0159
 1691ntf    fn410237   0.746   4.513   5.120  0.1997 -0.5198 -0.3090
 1691ntf    fn410238   0.785   4.498   5.327 -0.5273 -0.0669 -0.2333
 1691ntf    on510239   1.022   4.433   5.041 -0.7238 -0.2670 -0.0055
 1691ntf    on510240   1.067   4.422   5.290  0.4040  0.3051 -0.0584
 1691ntf    on510241   0.757   4.275   4.978  0.0237 -0.1513  0.1776
 1691ntf    on510242   0.720   4.103   5.149 -0.1205 -0.5045 -0.3836
 1691ntf    fn410243   0.856   4.031   4.876  0.4965 -0.4032  0.0832
 1691ntf    fn410244   1.009   4.164   4.925 -0.5007  0.6510 -0.5905
 1691ntf    fn410245   0.979   3.984   5.040 -0.4888 -0.3203 -0.2369
 1692ntf    cn110246   2.043   2.511   4.561 -0.1973 -0.5179  0.1948
 1692ntf    sn210247   2.160   2.556   4.694  0.0035  0.4105 -0.2852
 1692ntf    nn310248   2.172   2.420   4.771  0.3987  0.8764  0.4777
 1692ntf    sn210249   2.085   2.362   4.889  0.0870  0.1166 -0.1197
 1692ntf    cn110250   2.180   2.434   5.026  0.3735  0.2452 -0.3826
 1692ntf    fn410251   1.997   2.620   4.502 -0.0134 -0.2760  0.4928
 1692ntf    fn410252   2.099   2.446   4.461 -0.0859  0.1591 -0.1881
 1692ntf    fn410253   1.940   2.435   4.592 -0.5197  0.2368  1.0522
 1692ntf    on510254   2.283   2.576   4.620  0.1795 -0.0753 -0.1272
 1692ntf    on510255   2.095   2.663   4.765  0.0019 -0.1139  0.5098
 1692ntf    on510256   2.088   2.222   4.923  0.7011  0.1838  0.1111
 1692ntf    on510257   1.953   2.421   4.890  0.0592  0.0414  0.3910
 1692ntf    fn410258   2.200   2.564   5.015 -0.0718  0.3083 -0.4978
 1692ntf    fn410259   2.127   2.410   5.145  0.6340 -0.0993 -0.3356
 1692ntf    fn410260   2.301   2.381   5.029  0.3191  0.1627  0.4808
 1693ntf    cn110261   0.878   2.486   4.230  0.1945 -0.2108 -0.2408
 1693ntf    sn210262   1.010   2.583   4.309  0.2129 -0.2705 -0.1982
 1693ntf    nn310263   1.045   2.684   4.194  0.5743 -0.0759  0.0789
 1693ntf    sn210264   1.045   2.840   4.178 -0.0469 -0.0629  0.1874
 1693ntf    cn110265   1.223   2.855   4.216  0.0240 -0.0816 -0.1338
 1693ntf    fn410266   0.803   2.426   4.321 -0.1782  0.3990 -0.1359
 1693ntf    fn410267   0.803   2.564   4.154 -0.1651  0.0956  0.4123
 1693ntf    fn410268   0.927   2.391   4.153 -0.2239  0.0458 -0.8282
 1693ntf    on510269   0.949   2.639   4.426  0.8583 -0.2091  0.1150
 1693ntf    on510270   1.116   2.486   4.323  0.3163 -0.0372  0.6605
 1693ntf    on510271   0.979   2.919   4.280 -0.6546  0.4183 -0.5707
 1693ntf    on510272   1.036   2.899   4.047 -0.2835 -0.5211 -0.0077
 1693ntf    fn410273   1.253   2.782   4.323  0.2135  0.0203 -0.1191
 1693ntf    fn410274   1.305   2.832   4.115  0.3182 -0.4529  0.1866
 1693ntf    fn410275   1.237   2.975   4.268  0.0605  0.0157 -0.3691
 1694ntf    cn110276   3.138   2.015   4.920 -0.0202 -0.2370  0.1365
 1694ntf    sn210277   2.978   2.093   4.957  0.0552  0.0971 -0.2295
 1694ntf    nn310278   2.983   2.064   5.111 -0.2770  0.3386 -0.1734
 1694ntf    sn210279   3.034   2.160   5.225 -0.0106  0.2501 -0.2169
 1694ntf    cn110280   2.876   2.226   5.286  0.2834  0.4106  0.3730
 1694ntf    fn410281   3.185   2.046   4.800 -0.3559  0.9397  0.2928
 1694ntf    fn410282   3.234   2.040   5.008  0.3688  0.3496 -0.4406
 1694ntf    fn410283   3.134   1.883   4.917  0.2871 -0.2590  0.6243
 1694ntf    on510284   2.990   2.231   4.917  0.0349  0.3626  0.6524
 1694ntf    on510285   2.878   2.007   4.897  0.1963 -0.2016 -0.0432
 1694ntf    on510286   3.119   2.270   5.187  0.4576 -0.1859 -0.4451
 1694ntf    on510287   3.083   2.086   5.338  0.4366 -0.1396 -0.6571
 1694ntf    fn410288   2.798   2.132   5.338 -0.5405  0.4148 -0.8076
 1694ntf    fn410289   2.887   2.316   5.382 -0.4935  0.2187  0.6533
 1694ntf    fn410290   2.804   2.280   5.189 -0.6314 -0.4305  0.5640
 1695ntf    cn110291   4.333   0.336   2.548 -0.0052 -0.0854 -0.2195
 1695ntf    sn210292   4.156   0.367   2.523 -0.0316 -0.0467  0.0085
 1695ntf    nn310293   4.149   0.491   2.427 -0.2452 -0.3238 -0.3350
 1695ntf    sn210294   4.049   0.612   2.423  0.3089  0.1549  0.1669
 1695ntf    cn110295   4.152   0.746   2.491 -0.1217  0.3804  0.3799
 1695ntf    fn410296   4.398   0.446   2.584  0.1561 -0.3102  0.1977
 1695ntf    fn410297   4.351   0.243   2.640 -0.2844 -0.6206 -0.7026
 1695ntf    fn410298   4.386   0.293   2.435  0.1940 -0.4513  0.0125
 1695ntf    on510299   4.105   0.253   2.451 -0.5663 -0.2297  0.6675
 1695ntf    on510300   4.109   0.405   2.654  0.5607  0.1143  0.1745
 1695ntf    on510301   3.940   0.613   2.517  0.2066 -0.1236  0.0494
 1695ntf    on510302   4.008   0.641   2.288 -0.2025 -0.5926  0.1568
 1695ntf    fn410303   4.089   0.854   2.532 -0.0613  0.4063  0.4055
 1695ntf    fn410304   4.221   0.696   2.592  0.4758  0.0424 -0.1913
 1695ntf    fn410305   4.246   0.790   2.409  0.0560  0.2274  0.5000
 1696ntf    cn110306   2.172   5.275   0.026  0.3332 -0.1932 -0.2270
 1696ntf    sn210307   2.047   5.159  -0.038  0.2724 -0.1933 -0.1089
 1696ntf    nn310308   1.923   5.251  -0.013  0.4239 -0.1377  0.4670
 1696ntf    sn210309   1.815   5.281   0.096 -0.0377  0.0238 -0.0279
 1696ntf    cn110310   1.715   5.129   0.102 -0.1522  0.1011  0.0490
 1696ntf    fn410311   2.172   5.383  -0.051 -0.0101  0.3511  0.5281
 1696ntf    fn410312   2.154   5.316   0.150  0.4656 -0.3997 -0.1390
 1696ntf    fn410313   2.293   5.223   0.016  0.1833 -0.4941 -0.5138
 1696ntf    on510314   2.081   5.130  -0.175 -0.1511  0.3629 -0.3309
 1696ntf    on510315   2.056   5.056   0.063 -0.2269 -0.7662 -0.6379
 1696ntf    on510316   1.713   5.378   0.062 -0.1569 -0.0579  0.0942
 1696ntf    on510317   1.869   5.290   0.230  0.5006 -0.1406 -0.2340
 1696ntf    fn410318   1.794   5.029   0.140 -0.1507 -0.1558 -0.6243
 1696ntf    fn410319   1.612   5.146   0.183  0.3334  0.5733  0.5810
 1696ntf    fn410320   1.659   5.100  -0.014  0.2836 -0.3266 -0.0544
 1697ntf    cn110321   5.167   5.383   0.307  0.2047  0.2271 -0.0375
 1697ntf    sn210322   5.110   5.494   0.175  0.1357  0.0882 -0.1250
 1697ntf    nn310323   5.200   5.441   0.058 -0.2886 -0.1235 -0.3558
 1697ntf    sn210324   5.336   5.503   0.011 -0.1815 -0.0434  0.0574
 1697ntf    cn110325   5.454   5.365   0.010  0.2057  0.2868 -0.2402
 1697ntf    fn410326   5.095   5.419   0.413 -0.0073  0.0184 -0.1096
 1697ntf    fn410327   5.133   5.256   0.298  1.1241 -0.0348  0.1106
 1697ntf    fn410328   5.293   5.395   0.345  0.3432 -0.2656 -0.3477
 1697ntf    on510329   4.973   5.449   0.163  0.3387 -0.7062  0.4800
 1697ntf    on510330   5.133   5.626   0.230 -0.2671  0.4271 -0.7547
 1697ntf    on510331   5.397   5.590   0.109 -0.0834 -0.0815  0.0296
 1697ntf    on510332   5.346   5.545  -0.127 -0.4303 -0.3998 -0.0697
 1697ntf    fn410333   5.545   5.363  -0.086  0.6276 -0.2528  0.1618
 1697ntf    fn410334   5.526   5.374   0.121  0.0933  0.5844 -0.1899
 1697ntf    fn410335   5.387   5.251   0.008  0.5207  0.0989 -0.0170
 1698ntf    cn110336   6.880   0.071   4.210  0.1645  0.5109 -0.0076
 1698ntf    sn210337   6.996  -0.047   4.133 -0.3184 -0.1046  0.2069
 1698ntf    nn310338   7.129  -0.030   4.215  0.2374 -0.1257 -0.6851
 1698ntf    sn210339   7.172  -0.115   4.339  0.1393  0.3656 -0.3112
 1698ntf    cn110340   7.224  -0.274   4.268  0.2779  0.1749  0.2152
 1698ntf    fn410341   6.766   0.081   4.144  0.1373  0.5948  0.0528
 1698ntf    fn410342   6.859   0.031   4.334  0.4592  0.3121 -0.0203
 1698ntf    fn410343   6.940   0.190   4.210  0.3791  0.4056 -0.3474
 1698ntf    on510344   6.929  -0.174   4.139 -0.0372 -0.2417  0.4553
 1698ntf    on510345   7.014   0.014   4.003 -0.2704 -0.1706  0.1831
 1698ntf    on510346   7.059  -0.148   4.422  0.5875 -0.1062  0.1174
 1698ntf    on510347   7.289  -0.076   4.415  0.2197 -0.3018 -0.0794
 1698ntf    fn410348   7.283  -0.353   4.357  0.3580  0.0244  0.0300
 1698ntf    fn410349   7.121  -0.341   4.220  0.2475  0.1871  0.2635
 1698ntf    fn410350   7.304  -0.261   4.164 -0.0341  0.4174  0.0060
 1699ntf    cn110351   4.106   0.656   4.375  0.2162  0.0923 -0.1857
 1699ntf    sn210352   4.050   0.517   4.272  0.0117  0.3486 -0.4225
 1699ntf    nn310353   4.087   0.384   4.346 -0.3057  0.2561 -0.4306
 1699ntf    sn210354   4.000   0.276   4.419  0.2001  0.5323  0.5958
 1699ntf    cn110355   4.126   0.148   4.447  0.3051  0.4153 -0.3725
 1699ntf    fn410356   4.236   0.659   4.398  0.1016 -0.7683  0.6312
 1699ntf    fn410357   4.085   0.770   4.310  0.7110 -0.0681 -0.6283
 1699ntf    fn410358   4.039   0.677   4.487 -0.0291  0.8019 -0.4605
 1699ntf    on510359   3.909   0.544   4.262  0.0284  0.4120 -0.4919
 1699ntf    on510360   4.124   0.535   4.149 -0.2265  0.9893 -0.4783
 1699ntf    on510361   3.908   0.215   4.326  0.3263  0.2434  0.6577
 1699ntf    on510362   3.958   0.309   4.553  0.1813  0.2708  0.6551
 1699ntf    fn410363   4.185   0.104   4.337  0.0349 -0.5252 -0.1458
 1699ntf    fn410364   4.230   0.184   4.521  0.3053  0.0660 -0.2040
 1699ntf    fn410365   4.069   0.051   4.517  0.3677  0.4852 -0.2234
 1700ntf    cn110366   0.180   4.292   4.570  0.5026  0.1568 -0.0794
 1700ntf    sn210367   0.359   4.320   4.554  0.5055  0.2022  0.0357
 1700ntf    nn310368   0.416   4.181   4.509  0.3153  0.0148  0.3687
 1700ntf    sn210369   0.465   4.140   4.366 -0.4826  0.0219  0.0879
 1700ntf    cn110370   0.625   4.226   4.359 -0.3700 -0.1936 -0.0189
 1700ntf    fn410371   0.128   4.397   4.632  0.5065  0.0130  0.1692
 1700ntf    fn410372   0.114   4.274   4.457  0.5429 -0.0868 -0.0653
 1700ntf    fn410373   0.157   4.186   4.646 -0.4902  0.3419 -0.1059
 1700ntf    on510374   0.374   4.436   4.470  0.0241  0.0750 -0.2254
 1700ntf    on510375   0.396   4.345   4.692  0.1586  0.2180  0.1260
 1700ntf    on510376   0.394   4.190   4.251 -0.1680 -0.1799 -0.1966
 1700ntf    on510377   0.507   4.002   4.350  0.3365  0.2425  0.2936
 1700ntf    fn410378   0.691   4.203   4.247 -0.2174 -0.1454  0.0609
 1700ntf    fn410379   0.623   4.358   4.375  0.2927 -0.1416 -0.3241
 1700ntf    fn410380   0.704   4.190   4.458  0.0282  0.2681 -0.1678
 1701ntf    cn110381   5.461   5.281   3.850 -0.2030  0.0684 -0.2444
 1701ntf    sn210382   5.347   5.186   3.746  0.0703 -0.5637  0.0290
 1701ntf    nn310383   5.212   5.255   3.786  0.3438 -0.1068  0.1770
 1701ntf    sn210384   5.119   5.217   3.906 -0.2141  0.2009 -0.1519
 1701ntf    cn110385   5.131   5.378   3.990  0.1783  0.0586  0.0652
 1701ntf    fn410386   5.452   5.255   3.980 -0.0962  0.3916 -0.1684
 1701ntf    fn410387   5.585   5.252   3.812  0.0114  0.3760  0.2027
 1701ntf    fn410388   5.437   5.411   3.838 -0.5107  0.0235 -0.1252
 1701ntf    on510389   5.387   5.229   3.614  0.2126  0.1963  0.3117
 1701ntf    on510390   5.367   5.051   3.792  0.9901 -0.3447  0.3107
 1701ntf    on510391   5.175   5.123   4.000 -0.9321 -0.0749  0.0010
 1701ntf    on510392   4.979   5.196   3.880 -0.1528 -0.1220 -0.2165
 1701ntf    fn410393   5.256   5.389   4.034  0.2286 -1.0686  0.2403
 1701ntf    fn410394   5.100   5.484   3.918 -0.2306 -0.2463 -0.2072
 1701ntf    fn410395   5.057   5.390   4.099  0.2677  0.4186  0.0887
 1702ntf    cn110396   1.363   4.359   0.577 -0.4073  0.0116  0.0793
 1702ntf    sn210397   1.235   4.245   0.637  0.0670 -0.4921  0.1491
 1702ntf    nn310398   1.234   4.270   0.792  0.1553  0.0731  0.0612
 1702ntf    sn210399   1.155   4.385   0.863  0.2034  0.1962 -0.0836
 1702ntf    cn110400   0.992   4.309   0.889  0.2287  0.0514 -0.3479
 1702ntf    fn410401   1.379   4.369   0.446 -0.8037  0.2121  0.0465
 1702ntf    fn410402   1.353   4.478   0.633  0.2806  0.0359  0.1661
 1702ntf    fn410403   1.477   4.308   0.620 -0.1598 -0.2159 -0.8255
 1702ntf    on510404   1.116   4.281   0.563  0.2559 -0.5568 -0.1836
 1702ntf    on510405   1.295   4.121   0.595  0.3618 -0.2592 -0.1136
 1702ntf    on510406   1.133   4.505   0.787 -0.8622 -0.1601 -0.3490
 1702ntf    on510407   1.207   4.412   0.995 -0.2358  1.0018 -0.0665
 1702ntf    fn410408   0.919   4.308   0.778 -0.6400 -0.1704  0.2149
 1702ntf    fn410409   1.024   4.184   0.916  0.6393  0.1528 -0.3665
 1702ntf    fn410410   0.923   4.366   0.986 -0.3777  0.4161 -0.9871
 1703ntf    cn110411   3.071   6.353   5.906  0.1004  0.0522  0.0880
 1703ntf    sn210412   3.121   6.384   5.734 -0.0483 -0.0238  0.0309
 1703ntf    nn310413   3.182   6.244   5.699  0.0109 -0.0325  0.1752
 1703ntf    sn210414   3.102   6.114   5.663  0.1606 -0.1065  0.1045
 1703ntf    cn110415   3.149   6.007   5.802  0.2862 -0.1058  0.0616
 1703ntf    fn410416   2.980   6.257   5.909 -0.0746  0.1911 -0.5163
 1703ntf    fn410417   3.171   6.324   5.987  0.1918 -0.4399 -0.1956
 1703ntf    fn410418   3.007   6.458   5.955  0.5302  0.1979  0.3362
 1703ntf    on510419   2.997   6.421   5.670  0.1210  0.5554  0.0296
 1703ntf    on510420   3.222   6.487   5.741  0.0324 -0.1304  0.4290
 1703ntf    on510421   3.159   6.056   5.545  0.1284  0.4317 -0.1806
 1703ntf    on510422   2.958   6.119   5.676  0.1034 -0.3533 -0.4197
 1703ntf    fn410423   3.134   6.070   5.917 -0.0606  0.2851 -0.1957
 1703ntf    fn410424   3.075   5.898   5.815  0.3907 -0.2284 -0.3559
 1703ntf    fn410425   3.274   5.963   5.794  0.2119 -0.2928 -0.0907
 1704ntf    cn110426   4.112   5.830   0.162  0.0033  0.7132 -0.0150
 1704ntf    sn210427   4.075   5.932   0.308 -0.2862  0.1760  0.2923
 1704ntf    nn310428   3.959   6.022   0.251 -0.4001 -0.1828 -0.0498
 1704ntf    sn210429   3.925   6.174   0.273 -0.0311 -0.0963 -0.0731
 1704ntf    cn110430   3.745   6.162   0.296 -0.0121 -0.0480  0.1031
 1704ntf    fn410431   4.139   5.895   0.050  0.3596 -0.2461 -0.4933
 1704ntf    fn410432   4.220   5.759   0.189 -0.6232 -0.1781  0.2124
 1704ntf    fn410433   4.018   5.745   0.122  0.2899  0.3023  0.1769
 1704ntf    on510434   4.026   5.840   0.407 -0.7776  0.6364  0.4846
 1704ntf    on510435   4.207   5.988   0.325 -0.0658  0.0428 -0.8668
 1704ntf    on510436   3.938   6.252   0.152  0.1684 -0.0020  0.0089
 1704ntf    on510437   3.971   6.235   0.395 -0.2740  0.5094 -0.2816
 1704ntf    fn410438   3.711   6.096   0.405 -0.3465 -0.1354 -0.0555
 1704ntf    fn410439   3.680   6.277   0.297 -0.5406 -0.3469  0.3303
 1704ntf    fn410440   3.697   6.090   0.196  0.3750 -0.4945  0.2365
 1705ntf    cn110441   0.371   6.517   2.749 -0.0721 -0.0169  0.0445
 1705ntf    sn210442   0.541   6.542   2.810 -0.1436  0.0612  0.2124
 1705ntf    nn310443   0.519   6.499   2.960 -0.9759  0.4158  0.1992
 1705ntf    sn210444   0.539   6.584   3.090  0.0161 -0.1539  0.4301
 1705ntf    cn110445   0.649   6.469   3.179  0.3233 -0.1103  0.1049
 1705ntf    fn410446   0.289   6.559   2.844 -0.0202  0.0076  0.0787
 1705ntf    fn410447   0.345   6.580   2.635  0.1586  0.1534  0.0846
 1705ntf    fn410448   0.345   6.388   2.735  0.1624 -0.0682  0.0700
 1705ntf    on510449   0.618   6.445   2.735 -0.1913 -0.3573  0.6976
 1705ntf    on510450   0.562   6.682   2.784  0.4924  0.0868  0.8310
 1705ntf    on510451   0.430   6.587   3.185 -0.1590 -0.5412  0.2424
 1705ntf    on510452   0.613   6.707   3.074  0.3155 -0.3054  0.6337
 1705ntf    fn410453   0.587   6.354   3.200 -0.1859  0.2021  0.3389
 1705ntf    fn410454   0.755   6.441   3.104  0.2875  0.5044 -0.1864
 1705ntf    fn410455   0.700   6.522   3.289 -0.0949 -0.0444  0.2698
 1706ntf    cn110456   4.886   2.516   5.303  0.0635  0.1939 -0.1086
 1706ntf    sn210457   4.904   2.523   5.123 -0.1098  0.0411 -0.1316
 1706ntf    nn310458   4.752   2.518   5.083 -0.1211  0.2088 -0.1111
 1706ntf    sn210459   4.655   2.634   5.044 -0.2824  0.2468  0.4055
 1706ntf    cn110460   4.652   2.585   4.869 -0.0098  0.7686  0.2527
 1706ntf    fn410461   4.995   2.555   5.367  0.1189  0.3922 -0.3225
 1706ntf    fn410462   4.781   2.582   5.349  0.1538 -0.0955  0.5339
 1706ntf    fn410463   4.862   2.391   5.338 -0.3738  0.4407  0.5025
 1706ntf    on510464   4.976   2.641   5.082 -0.2572 -0.0778 -0.7436
 1706ntf    on510465   4.968   2.398   5.089  0.0567  0.1929 -0.3765
 1706ntf    on510466   4.703   2.770   5.037 -0.4464  0.3168  0.5927
 1706ntf    on510467   4.517   2.608   5.079 -0.1427  0.0537  0.8257
 1706ntf    fn410468   4.624   2.456   4.859  0.5783  0.7224 -0.9122
 1706ntf    fn410469   4.547   2.630   4.803  0.2076  0.2644 -0.4509
 1706ntf    fn410470   4.752   2.616   4.789 -0.2775  0.4620 -0.2043
 1707ntf    cn110471   6.403   6.274   2.422  0.0737  0.5768 -0.0961
 1707ntf    sn210472   6.539   6.284   2.301  0.4954 -0.2469  0.2983
 1707ntf    nn310473   6.648   6.365   2.380 -0.0775  0.3514  0.4899
 1707ntf    sn210474   6.763   6.453   2.318 -0.3539  0.1863 -0.2690
 1707ntf    cn110475   6.850   6.535   2.455 -0.2195 -0.5626  0.1038
 1707ntf    fn410476   6.444   6.197   2.521 -0.2433  0.2631 -0.2051
 1707ntf    fn410477   6.378   6.393   2.473  0.5818  0.5505  0.2233
 1707ntf    fn410478   6.287   6.220   2.386  0.0170  0.2896  0.5079
 1707ntf    on510479   6.564   6.144   2.282 -0.0810 -0.3356  0.1730
 1707ntf    on510480   6.466   6.353   2.197 -0.5597 -0.0008  1.1846
 1707ntf    on510481   6.710   6.566   2.246 -0.6169  0.0572 -0.2784
 1707ntf    on510482   6.865   6.374   2.252 -0.0943  0.6430 -0.4178
 1707ntf    fn410483   6.773   6.615   2.528 -0.2301 -0.4512 -0.0269
 1707ntf    fn410484   6.920   6.457   2.535  0.6217  0.1596  0.0917
 1707ntf    fn410485   6.947   6.616   2.415 -0.7373 -0.1119 -0.2612
 1708ntf    cn110486   5.145   1.633   2.764  0.9371  0.1325  0.1763
 1708ntf    sn210487   5.212   1.785   2.690 -0.0751  0.5578  0.1174
 1708ntf    nn310488   5.258   1.865   2.817  0.4065  0.1092  0.2311
 1708ntf    sn210489   5.377   1.968   2.825  0.3976  0.1389 -0.0100
 1708ntf    cn110490   5.502   1.867   2.909 -0.0262 -0.2136  0.2045
 1708ntf    fn410491   5.142   1.528   2.683 -0.2139  0.3823 -0.1189
 1708ntf    fn410492   5.211   1.592   2.871  0.4884 -0.0498  0.3860
 1708ntf    fn410493   5.020   1.653   2.802  1.0603  0.6892  0.2939
 1708ntf    on510494   5.328   1.726   2.627  0.0925  0.2605  0.6965
 1708ntf    on510495   5.112   1.847   2.608 -0.3453 -0.0204  0.0038
 1708ntf    on510496   5.346   2.075   2.917 -0.8979  0.0528 -0.3215
 1708ntf    on510497   5.447   2.007   2.705  0.2857 -0.3407 -0.2354
 1708ntf    fn410498   5.630   1.902   2.910 -0.0995  0.0739 -0.0466
 1708ntf    fn410499   5.465   1.847   3.034 -0.3853  0.0681  0.1433
 1708ntf    fn410500   5.502   1.746   2.854 -0.3554  0.1340 -0.5765
 1709ntf    cn110501   5.344   3.893   1.254  0.1800 -0.2733 -0.1677
 1709ntf    sn210502   5.167   3.904   1.214  0.1515 -0.0328  0.0161
 1709ntf    nn310503   5.170   3.899   1.057  0.1989  0.2927  0.0068
 1709ntf    sn210504   5.112   3.799   0.951 -0.1466  0.1575  0.3253
 1709ntf    cn110505   4.933   3.825   0.969 -0.1952 -0.4077  0.6955
 1709ntf    fn410506   5.370   3.872   1.382  0.0787 -0.2611 -0.1446
 1709ntf    fn410507   5.402   3.795   1.187  0.5459 -0.5442  0.5338
 1709ntf    fn410508   5.400   4.007   1.214  0.2430 -0.1604  0.2359
 1709ntf    on510509   5.112   3.787   1.277  0.0327 -0.4629 -0.8670
 1709ntf    on510510   5.123   4.031   1.266 -0.1988 -0.0692 -0.1876
 1709ntf    on510511   5.143   3.662   0.983 -0.7439  0.0234  0.3471
 1709ntf    on510512   5.144   3.845   0.819 -0.2567 -0.6178  0.0210
 1709ntf    fn410513   4.860   3.749   0.888 -0.1556  0.0252  0.2484
 1709ntf    fn410514   4.890   3.815   1.094 -0.4724 -0.5363  0.5911
 1709ntf    fn410515   4.901   3.949   0.937 -0.1749 -0.6013 -0.0956
 1710ntf    cn110516   2.298   3.263   5.101 -0.0094  0.0464  0.3246
 1710ntf    sn210517   2.204   3.163   5.221 -0.0068 -0.0495  0.2457
 1710ntf    nn310518   2.308   3.173   5.338  0.7098 -0.1291 -0.3745
 1710ntf    sn210519   2.336   3.296   5.431 -0.0533 -0.2007 -0.0474
 1710ntf    cn110520   2.259   3.240   5.586  0.1325  0.1066  0.1566
 1710ntf    fn410521   2.331   3.384   5.142  0.5371  0.0288 -0.0570
 1710ntf    fn410522   2.412   3.201   5.079  0.0435  0.2790 -0.0564
 1710ntf    fn410523   2.228   3.274   4.989 -0.5598  0.8726  0.7365
 1710ntf    on510524   2.076   3.227   5.227  0.0290  0.0921 -0.4304
 1710ntf    on510525   2.202   3.028   5.170 -0.8293  0.1353 -0.2170
 1710ntf    on510526   2.275   3.424   5.403  0.8265  0.2477  0.0504
 1710ntf    on510527   2.477   3.312   5.456 -0.1186  0.4421 -0.0784
 1710ntf    fn410528   2.316   3.130   5.634 -0.5201 -0.1011  0.4600
 1710ntf    fn410529   2.247   3.332   5.681 -0.6217  0.3446 -0.1649
 1710ntf    fn410530   2.135   3.204   5.557  0.0468  0.4069  0.1516
 1711ntf    cn110531   6.390   5.328   3.213 -0.2168  0.2704 -0.0967
 1711ntf    sn210532   6.451   5.390   3.373  0.0935 -0.2290 -0.0208
 1711ntf    nn310533   6.324   5.416   3.461 -0.0142  0.2773 -0.3208
 1711ntf    sn210534   6.274   5.545   3.536 -0.2960  0.0508 -0.1168
 1711ntf    cn110535   6.096   5.510   3.541 -0.2161 -0.3326  0.1221
 1711ntf    fn410536   6.367   5.198   3.218 -0.5322  0.3287  0.0388
 1711ntf    fn410537   6.269   5.379   3.194 -0.3268  0.0875  0.1071
 1711ntf    fn410538   6.469   5.352   3.110  0.2315 -0.0177  0.1766
 1711ntf    on510539   6.530   5.280   3.423  0.2254  0.0504  0.3907
 1711ntf    on510540   6.519   5.512   3.335  0.0917 -0.2401 -0.0595
 1711ntf    on510541   6.291   5.670   3.467 -0.2087  0.1247  0.0390
 1711ntf    on510542   6.311   5.544   3.675 -0.1528 -1.2122 -0.1520
 1711ntf    fn410543   6.028   5.583   3.628 -0.6856 -0.3586 -0.2192
 1711ntf    fn410544   6.034   5.534   3.427 -0.4089  0.1262  0.3180
 1711ntf    fn410545   6.076   5.386   3.583  0.3860 -0.5587 -0.2509
 1712ntf    cn110546   6.910   0.880   2.834 -0.3475  0.2462  0.1816
 1712ntf    sn210547   7.048   0.989   2.880 -0.1933  0.1718 -0.0997
 1712ntf    nn310548   6.981   1.119   2.936 -0.2557  0.0969 -0.0008
 1712ntf    sn210549   6.954   1.258   2.868  0.1838  0.2827  0.1972
 1712ntf    cn110550   6.772   1.265   2.880  0.1242  0.1156 -0.5464
 1712ntf    fn410551   6.950   0.771   2.770 -0.1419  0.1053  0.5494
 1712ntf    fn410552   6.845   0.838   2.941 -0.3374 -0.3113 -0.0262
 1712ntf    fn410553   6.822   0.931   2.749 -0.5812 -0.2678  0.1103
 1712ntf    on510554   7.118   0.918   2.984  0.6468 -0.2388 -0.9331
 1712ntf    on510555   7.119   1.007   2.756  0.2591  0.4442  0.1964
 1712ntf    on510556   6.981   1.264   2.726  0.3848 -0.1530  0.2158
 1712ntf    on510557   6.996   1.375   2.941 -0.0166  0.1401  0.5446
 1712ntf    fn410558   6.722   1.385   2.859 -0.1035  0.0681 -0.2802
 1712ntf    fn410559   6.709   1.185   2.796 -0.0168  0.2173 -0.5372
 1712ntf    fn410560   6.736   1.231   3.002  0.0248  0.4351 -0.4868
 1713ntf    cn110561   1.445   6.869   1.507 -0.0091  0.5156  0.2043
 1713ntf    sn210562   1.583   6.981   1.467  0.1984  0.1967  0.0163
 1713ntf    nn310563   1.707   6.903   1.522  0.3286 -0.0390 -0.6137
 1713ntf    sn210564   1.797   6.798   1.447  0.4960 -0.3141 -0.0322
 1713ntf    cn110565   1.934   6.914   1.418 -0.0008  0.2193 -0.2727
 1713ntf    fn410566   1.324   6.902   1.465  0.2213 -0.1892 -1.0626
 1713ntf    fn410567   1.468   6.749   1.456  0.3028  0.6537  0.0108
 1713ntf    fn410568   1.432   6.859   1.638 -0.3820 -0.5298  0.0916
 1713ntf    on510569   1.578   7.008   1.325 -0.0524  0.5660  0.0924
 1713ntf    on510570   1.553   7.094   1.553  0.0793  0.4203 -0.3172
 1713ntf    on510571   1.759   6.752   1.316  0.4277 -0.0320 -0.1116
 1713ntf    on510572   1.848   6.693   1.532  0.6419 -0.1833  0.0441
 1713ntf    fn410573   2.025   6.855   1.341 -0.2994 -0.3200 -0.2208
 1713ntf    fn410574   1.900   7.026   1.357 -0.6984  0.0842 -0.1389
 1713ntf    fn410575   1.982   6.952   1.535 -0.4809 -0.2108  0.0650
 1714ntf    cn110576   4.343   5.616   3.561  0.1081 -0.0317  0.4312
 1714ntf    sn210577   4.250   5.466   3.607 -0.1609 -0.0023 -0.0148
 1714ntf    nn310578   4.239   5.484   3.762 -0.1314 -0.0346 -0.0089
 1714ntf    sn210579   4.122   5.509   3.864 -0.0640  0.1765  0.0168
 1714ntf    cn110580   3.988   5.595   3.776  0.1811  0.7145  0.1617
 1714ntf    fn410581   4.255   5.714   3.546 -0.0010 -0.1976 -0.0246
 1714ntf    fn410582   4.437   5.650   3.648  0.1656  0.0793  0.3256
 1714ntf    fn410583   4.407   5.607   3.446  0.0539  0.2240  0.3815
 1714ntf    on510584   4.127   5.475   3.532 -0.2818 -0.8979  0.0721
 1714ntf    on510585   4.339   5.358   3.570  0.4455  0.4332  0.1447
 1714ntf    on510586   4.166   5.601   3.967  0.0993  0.6346 -0.4559
 1714ntf    on510587   4.059   5.388   3.909 -0.2736  0.0485 -0.6195
 1714ntf    fn410588   4.038   5.682   3.691  0.1883 -0.1707 -0.7556
 1714ntf    fn410589   3.912   5.514   3.704  0.6836  0.2270  0.1692
 1714ntf    fn410590   3.911   5.662   3.860 -0.4053  0.3774 -0.1051
 1715ntf    cn110591   2.456   6.202   0.541 -0.0869 -0.2693  0.4396
 1715ntf    sn210592   2.362   6.048   0.564  0.0234 -0.3291  0.4887
 1715ntf    nn310593   2.471   5.966   0.642  0.1816 -0.7053 -0.1204
 1715ntf    sn210594   2.452   5.857   0.753  0.0816 -0.4010  0.1640
 1715ntf    cn110595   2.492   5.954   0.901  0.0913 -0.0026 -0.1003
 1715ntf    fn410596   2.385   6.294   0.478  0.5245 -0.1172 -0.0331
 1715ntf    fn410597   2.499   6.258   0.653 -0.3491  0.4870  0.1698
 1715ntf    fn410598   2.563   6.178   0.468 -0.2891 -0.1908  0.1121
 1715ntf    on510599   2.246   6.100   0.632 -0.3847 -0.2471 -0.2628
 1715ntf    on510600   2.351   6.000   0.429  0.3294  0.0188  0.3376
 1715ntf    on510601   2.554   5.755   0.752  0.1497 -0.3390  0.5136
 1715ntf    on510602   2.319   5.802   0.770  0.0161 -0.0965  0.6633
 1715ntf    fn410603   2.404   6.051   0.925  0.2966  0.1264  0.1310
 1715ntf    fn410604   2.484   5.874   1.006  0.5363  0.5280  0.3484
 1715ntf    fn410605   2.611   6.011   0.895 -0.0770  0.4006  0.2865
 1716ntf    cn110606   1.080   1.171   4.915 -0.0234  0.0816  0.1495
 1716ntf    sn210607   1.184   1.286   4.821 -0.0795  0.0771  0.0816
 1716ntf    nn310608   1.080   1.398   4.785  0.3076  0.3717 -0.1327
 1716ntf    sn210609   1.053   1.538   4.851 -0.4766  0.1614 -0.0011
 1716ntf    cn110610   0.961   1.625   4.721  0.1546  0.2522 -0.3919
 1716ntf    fn410611   1.158   1.092   4.987 -0.3816  0.1284  0.5955
 1716ntf    fn410612   0.998   1.243   4.990  0.2396  0.3289  0.2006
 1716ntf    fn410613   0.999   1.097   4.841  0.7357 -0.2180 -0.3867
 1716ntf    on510614   1.289   1.320   4.915 -0.3782 -0.3476  0.5670
 1716ntf    on510615   1.230   1.220   4.702 -0.2610  0.0686  0.0163
 1716ntf    on510616   1.175   1.612   4.870 -0.2164 -0.1657 -0.3723
 1716ntf    on510617   0.962   1.534   4.963 -0.2982 -0.4368  0.1273
 1716ntf    fn410618   0.860   1.553   4.676 -0.1245  0.0875  0.4687
 1716ntf    fn410619   0.915   1.739   4.770 -0.0581  0.1118 -0.2627
 1716ntf    fn410620   1.044   1.657   4.623  0.5850 -0.1560 -0.1635
 1717ntf    cn110621   2.753   3.402   0.925 -0.4176 -0.3740  0.1838
 1717ntf    sn210622   2.610   3.438   1.031 -0.2318  0.2861  0.2086
 1717ntf    nn310623   2.492   3.382   0.943  0.2085 -0.5063  0.1163
 1717ntf    sn210624   2.360   3.316   0.995 -0.0051 -0.3383 -0.2106
 1717ntf    cn110625   2.259   3.467   0.987  0.3049 -0.1329 -0.2661
 1717ntf    fn410626   2.861   3.460   0.972 -0.4531 -0.4600  0.3706
 1717ntf    fn410627   2.791   3.276   0.908 -0.2143 -0.3034  0.1182
 1717ntf    fn410628   2.726   3.453   0.806 -0.1276  0.3044  0.4099
 1717ntf    on510629   2.634   3.364   1.152 -0.0963 -0.1130 -0.0633
 1717ntf    on510630   2.603   3.582   1.041 -0.2359  0.2730  0.3875
 1717ntf    on510631   2.344   3.278   1.133 -0.0748  0.0593 -0.1067
 1717ntf    on510632   2.295   3.227   0.902 -0.1316 -0.2873 -0.1713
 1717ntf    fn410633   2.139   3.444   1.038  0.3111 -0.6989 -0.4949
 1717ntf    fn410634   2.318   3.566   1.051  0.2462 -0.2111 -0.0913
 1717ntf    fn410635   2.236   3.502   0.861  0.1275  0.0455 -0.1846
 1718ntf    cn110636   1.492   3.456   6.483 -0.0987  0.1368 -0.0271
 1718ntf    sn210637   1.552   3.293   6.429 -0.2876  0.0237  0.1070
 1718ntf    nn310638   1.706   3.321   6.435 -0.2773 -0.0143  0.0115
 1718ntf    sn210639   1.796   3.375   6.318  0.1125 -0.3676  0.1443
 1718ntf    cn110640   1.845   3.225   6.229 -0.1590 -0.0892 -0.4804
 1718ntf    fn410641   1.557   3.548   6.414 -0.4502  0.0950 -0.4158
 1718ntf    fn410642   1.362   3.475   6.487 -0.0380  0.5148  0.2094
 1718ntf    fn410643   1.533   3.484   6.606  0.5601 -0.5525 -0.0817
 1718ntf    on510644   1.508   3.200   6.531 -0.0307  0.0874  0.2761
 1718ntf    on510645   1.492   3.274   6.300  0.3018 -0.2935 -0.1232
 1718ntf    on510646   1.918   3.433   6.368 -0.0996  0.3205 -0.1226
 1718ntf    on510647   1.721   3.447   6.218 -0.2682 -0.4735  0.3467
 1718ntf    fn410648   1.896   3.143   6.319  0.2406  0.5133 -0.1600
 1718ntf    fn410649   1.748   3.162   6.163 -0.5086 -0.4849  0.3979
 1718ntf    fn410650   1.931   3.252   6.132  0.2065 -0.1721 -0.1802
 1719ntf    cn110651   3.740   5.568   1.450 -0.2151  0.1773  0.0770
 1719ntf    sn210652   3.870   5.446   1.486 -0.3750 -0.1055 -0.2975
 1719ntf    nn310653   3.823   5.405   1.630 -0.4255  0.0970 -0.2554
 1719ntf    sn210654   3.865   5.448   1.775 -0.3146 -0.1500 -0.2123
 1719ntf    cn110655   3.963   5.311   1.842 -0.2902  0.0514  0.1649
 1719ntf    fn410656   3.708   5.569   1.321  0.0761 -0.3042 -0.0011
 1719ntf    fn410657   3.626   5.546   1.514 -0.1434 -0.0412  0.1281
 1719ntf    fn410658   3.767   5.694   1.481  0.1300  0.1103  0.0471
 1719ntf    on510659   3.849   5.345   1.385 -0.1049 -0.4502 -0.0110
 1719ntf    on510660   3.989   5.526   1.485 -0.2868 -0.2393 -0.6012
 1719ntf    on510661   3.750   5.453   1.862  0.2679  0.5283  0.5329
 1719ntf    on510662   3.945   5.566   1.795  0.4578 -0.7273  0.1416
 1719ntf    fn410663   4.080   5.287   1.786 -0.0605  0.0676  0.6248
 1719ntf    fn410664   3.992   5.335   1.969  0.3810 -0.0515  0.0361
 1719ntf    fn410665   3.898   5.197   1.841 -0.5013  0.1733 -0.3193
 1720ntf    cn110666   6.297   4.641   1.254  0.1865 -0.1338 -0.3554
 1720ntf    sn210667   6.126   4.589   1.216  0.0361 -0.0040  0.1412
 1720ntf    nn310668   6.064   4.543   1.353 -0.7222 -0.4821 -0.3613
 1720ntf    sn210669   5.975   4.617   1.458  0.3222  0.0363  0.1693
 1720ntf    cn110670   5.813   4.597   1.378  0.2308 -0.0278  0.3699
 1720ntf    fn410671   6.377   4.549   1.201 -0.1508 -0.3408 -0.5125
 1720ntf    fn410672   6.329   4.752   1.191  0.5533  0.0117  0.0839
 1720ntf    fn410673   6.323   4.646   1.383  0.4689  0.1738 -0.4228
 1720ntf    on510674   6.072   4.715   1.170 -0.1254 -0.0658  0.1625
 1720ntf    on510675   6.133   4.487   1.115  0.0841  0.3522 -0.2177
 1720ntf    on510676   5.992   4.760   1.460  0.6471  0.0064 -0.4380
 1720ntf    on510677   5.967   4.537   1.578 -0.3675  0.0253  0.1179
 1720ntf    fn410678   5.786   4.476   1.334  0.5359 -0.1304  0.4630
 1720ntf    fn410679   5.722   4.627   1.470  0.2995 -0.5000  0.5937
 1720ntf    fn410680   5.796   4.689   1.285  0.1361  0.0504  0.4632
 1721ntf    cn110681   6.719   4.575   0.614 -0.0953  0.0344  0.1069
 1721ntf    sn210682   6.624   4.446   0.700 -0.1832 -0.1741 -0.3014
 1721ntf    nn310683   6.563   4.378   0.572  0.6556 -0.7250 -0.4151
 1721ntf    sn210684   6.497   4.240   0.539 -0.1422 -0.3824 -0.2612
 1721ntf    cn110685   6.351   4.311   0.455  0.2076  0.1923 -0.3898
 1721ntf    fn410686   6.754   4.673   0.695 -0.1434  0.2242 -0.0990
 1721ntf    fn410687   6.831   4.525   0.565 -0.1587 -0.9507  0.9312
 1721ntf    fn410688   6.657   4.640   0.517  0.2037 -0.4085 -0.3838
 1721ntf    on510689   6.719   4.363   0.769 -0.6733 -0.6336 -0.1774
 1721ntf    on510690   6.533   4.515   0.788  0.8852  0.7252  0.1224
 1721ntf    on510691   6.442   4.158   0.644  0.0142 -0.1898 -0.0293
 1721ntf    on510692   6.564   4.167   0.434  0.4824  0.3317 -0.3692
 1721ntf    fn410693   6.262   4.214   0.442  0.4497 -0.1374  0.3426
 1721ntf    fn410694   6.299   4.413   0.521 -0.0411  0.0545 -0.3729
 1721ntf    fn410695   6.371   4.348   0.330  0.2476 -0.9825 -0.7470
 1722ntf    cn110696   4.414   6.013   5.046 -0.1852  0.2369  0.4853
 1722ntf    sn210697   4.373   5.845   5.101  0.0206  0.0740  0.1457
 1722ntf    nn310698   4.369   5.783   4.956 -0.1913 -0.2799  0.2986
 1722ntf    sn210699   4.394   5.637   4.906  0.0730 -0.0618 -0.2182
 1722ntf    cn110700   4.481   5.654   4.748  0.4398  0.5361  0.0451
 1722ntf    fn410701   4.540   6.016   5.007 -0.1089  0.4968  0.7480
 1722ntf    fn410702   4.340   6.062   4.947  0.8409  0.3525 -0.2334
 1722ntf    fn410703   4.407   6.100   5.145 -0.0012  0.4046  0.3515
 1722ntf    on510704   4.483   5.802   5.184  0.2241  0.4156  0.0564
 1722ntf    on510705   4.247   5.854   5.171  0.2150  0.0525  0.5006
 1722ntf    on510706   4.267   5.574   4.878 -0.1281  0.2726 -0.0673
 1722ntf    on510707   4.478   5.562   4.997 -0.1055 -0.0470 -0.0389
 1722ntf    fn410708   4.502   5.539   4.685 -0.6247 -0.0868  0.8102
 1722ntf    fn410709   4.425   5.746   4.671 -0.6657 -0.0201  0.1677
 1722ntf    fn410710   4.604   5.691   4.782  0.5526  0.0800  0.1392
 1723ntf    cn110711   1.293   4.912   2.269  0.1064  0.1655 -0.0234
 1723ntf    sn210712   1.131   4.832   2.261  0.3260 -0.3375  0.5035
 1723ntf    nn310713   1.083   4.893   2.397  0.5997  0.0498  0.4273
 1723ntf    sn210714   0.956   4.978   2.433  0.4542 -0.0938  0.2499
 1723ntf    cn110715   0.837   4.844   2.465  0.1532  0.1912  0.3327
 1723ntf    fn410716   1.375   4.867   2.175  0.1038  0.3307 -0.1051
 1723ntf    fn410717   1.291   5.044   2.259 -0.1458  0.1948  0.4252
 1723ntf    fn410718   1.342   4.881   2.388 -0.8434 -0.0767  0.3129
 1723ntf    on510719   1.078   4.894   2.142 -0.5981 -0.7394  0.6932
 1723ntf    on510720   1.153   4.690   2.269 -0.7473 -0.5365  0.2031
 1723ntf    on510721   0.893   5.059   2.331  0.5925 -0.0216  0.2223
 1723ntf    on510722   0.973   5.035   2.564 -0.2728  0.7015  0.0081
 1723ntf    fn410723   0.848   4.736   2.389  0.1368  0.6142 -0.2849
 1723ntf    fn410724   0.846   4.809   2.592 -0.4342 -0.8208  0.1063
 1723ntf    fn410725   0.712   4.887   2.454  0.0090 -0.3295 -0.1397
 1724ntf    cn110726   3.528   5.342   5.704 -0.3217 -0.0510  0.3543
 1724ntf    sn210727   3.405   5.466   5.654  0.1434  0.2304 -0.1079
 1724ntf    nn310728   3.487   5.600   5.650 -0.1453  0.4184  0.1860
 1724ntf    sn210729   3.570   5.653   5.528  0.0385 -0.3056 -0.0129
 1724ntf    cn110730   3.591   5.819   5.601 -0.4855 -0.0888 -0.3494
 1724ntf    fn410731   3.605   5.311   5.600 -0.1403  0.1930  0.4146
 1724ntf    fn410732   3.612   5.392   5.793 -0.3381  0.1965  0.2325
 1724ntf    fn410733   3.495   5.228   5.762 -0.8361  0.0631  0.2864
 1724ntf    on510734   3.352   5.412   5.531  0.2593 -0.6149  0.2027
 1724ntf    on510735   3.320   5.465   5.770  0.4337 -0.4757  0.1058
 1724ntf    on510736   3.494   5.671   5.406 -0.0528  0.1706  0.1103
 1724ntf    on510737   3.701   5.593   5.520 -0.1571 -0.6818 -0.4261
 1724ntf    fn410738   3.675   5.803   5.701 -0.5324  0.4052 -0.2331
 1724ntf    fn410739   3.643   5.902   5.513  0.3836  0.1214  0.3479
 1724ntf    fn410740   3.473   5.868   5.636 -0.5086 -0.2548 -0.1935
 1725ntf    cn110741   2.081   3.562   6.833  0.0074 -0.7307 -0.0491
 1725ntf    sn210742   2.241   3.619   6.900 -0.3833  0.1355  0.1562
 1725ntf    nn310743   2.323   3.486   6.915 -0.3953  0.0716 -0.3362
 1725ntf    sn210744   2.392   3.440   7.048 -0.2605 -0.3719 -0.5582
 1725ntf    cn110745   2.395   3.259   7.028 -0.1408 -0.4680  0.2936
 1725ntf    fn410746   2.025   3.474   6.914 -0.3845 -0.2010  0.2623
 1725ntf    fn410747   1.987   3.655   6.832 -0.1532 -0.8916  0.1774
 1725ntf    fn410748   2.095   3.508   6.713  0.4038  0.0768 -0.3759
 1725ntf    on510749   2.275   3.707   6.791 -0.2152 -0.0923  0.0233
 1725ntf    on510750   2.201   3.689   7.020 -0.4101 -0.4454  0.4906
 1725ntf    on510751   2.312   3.454   7.167  0.2232 -0.8829 -0.1672
 1725ntf    on510752   2.533   3.466   7.056 -0.2519 -0.3179 -0.8722
 1725ntf    fn410753   2.472   3.227   6.925 -0.1252  0.5737 -0.0313
 1725ntf    fn410754   2.443   3.198   7.135  0.0451 -0.4018  0.2475
 1725ntf    fn410755   2.275   3.206   7.011 -0.2292 -0.2776  0.3241
 1726ntf    cn110756   0.841   1.536   3.127 -0.1019  0.1060  0.1454
 1726ntf    sn210757   1.017   1.502   3.158 -0.0698  0.0673 -0.0751
 1726ntf    nn310758   1.004   1.353   3.208  0.4092  0.1081  0.1759
 1726ntf    sn210759   0.931   1.299   3.336 -0.0243  0.0247 -0.1072
 1726ntf    cn110760   0.792   1.213   3.256  0.3275 -0.3907 -0.2814
 1726ntf    fn410761   0.762   1.528   3.233 -0.4187  0.6927 -0.0454
 1726ntf    fn410762   0.816   1.650   3.065 -0.2579 -0.0725 -0.1251
 1726ntf    fn410763   0.795   1.449   3.038 -0.0527  0.4091 -0.1783
 1726ntf    on510764   1.079   1.508   3.028 -0.2553  0.7941 -0.1334
 1726ntf    on510765   1.060   1.602   3.252 -0.1940 -0.2949  0.3731
 1726ntf    on510766   0.865   1.393   3.423 -0.5588 -0.3734 -0.0750
 1726ntf    on510767   1.014   1.195   3.392 -0.0256 -0.0025 -0.1547
 1726ntf    fn410768   0.706   1.159   3.342 -0.5618  0.7862 -0.3957
 1726ntf    fn410769   0.719   1.302   3.190 -0.3444 -0.4944  0.2965
 1726ntf    fn410770   0.824   1.126   3.162 -0.0814 -0.2858 -0.5200
 1727ntf    cn110771   0.916   0.964   6.527  0.1882 -0.1817  0.2325
 1727ntf    sn210772   0.929   0.880   6.367  0.1795  0.3130 -0.0269
 1727ntf    nn310773   1.014   0.989   6.292  0.4165  0.2836  0.2009
 1727ntf    sn210774   0.980   1.083   6.171  0.1360 -0.2825 -0.1640
 1727ntf    cn110775   1.026   0.965   6.041  0.0604 -0.5762  0.0756
 1727ntf    fn410776   1.032   0.990   6.584  0.0366  0.4641  0.2560
 1727ntf    fn410777   0.849   1.078   6.521  0.7774  0.1138 -0.8162
 1727ntf    fn410778   0.843   0.889   6.608 -0.6406 -0.5671 -0.8473
 1727ntf    on510779   1.003   0.761   6.399 -0.8681 -0.1498  0.7340
 1727ntf    on510780   0.793   0.857   6.325  0.2597  0.2606 -0.2606
 1727ntf    on510781   1.079   1.187   6.159 -0.0341 -0.0022  0.7711
 1727ntf    on510782   0.841   1.110   6.146  0.1276 -0.2172 -0.0450
 1727ntf    fn410783   1.029   1.035   5.929 -0.4461  0.1138  0.4901
 1727ntf    fn410784   1.148   0.913   6.054  0.0471 -0.6485 -0.0861
 1727ntf    fn410785   0.941   0.865   6.022  0.1639 -0.5976 -0.2909
 1728ntf    cn110786   2.914   0.859   6.351  0.0824 -0.1108 -0.0038
 1728ntf    sn210787   2.955   0.727   6.469 -0.3019 -0.2707 -0.0507
 1728ntf    nn310788   2.840   0.623   6.441 -0.2170 -0.2261 -0.5793
 1728ntf    sn210789   2.700   0.610   6.510 -0.1428 -0.0540 -0.3947
 1728ntf    cn110790   2.712   0.435   6.558  0.4904  0.1598  0.2562
 1728ntf    fn410791   2.998   0.962   6.342 -0.0402  0.0685  0.7881
 1728ntf    fn410792   2.900   0.807   6.231  0.2722 -0.1779  0.0018
 1728ntf    fn410793   2.799   0.907   6.395  0.1971 -0.0413  0.2275
 1728ntf    on510794   3.080   0.680   6.416  0.0783  0.4168  0.2369
 1728ntf    on510795   2.960   0.791   6.598  0.3765 -0.1684 -0.1258
 1728ntf    on510796   2.585   0.616   6.423 -0.6147 -0.6101  0.1713
 1728ntf    on510797   2.682   0.668   6.641  0.0621  0.4572 -0.5918
 1728ntf    fn410798   2.815   0.410   6.637  0.5091  0.6040  0.3742
 1728ntf    fn410799   2.602   0.401   6.624  0.1510 -0.2359 -0.4955
 1728ntf    fn410800   2.719   0.350   6.456 -0.1280  0.0348  0.3095
 1729ntf    cn110801   1.631   3.335   0.682  0.1466 -0.1847  0.1114
 1729ntf    sn210802   1.646   3.422   0.523  0.3964 -0.1146  0.1726
 1729ntf    nn310803   1.494   3.446   0.489  0.4159 -0.2158  0.0121
 1729ntf    sn210804   1.428   3.552   0.395 -0.0872 -0.4377  0.1114
 1729ntf    cn110805   1.294   3.612   0.503 -0.2672 -0.1985 -0.2412
 1729ntf    fn410806   1.745   3.331   0.748 -0.2866 -0.3313  0.8600
 1729ntf    fn410807   1.535   3.389   0.755  0.0776 -0.2254  0.0509
 1729ntf    fn410808   1.604   3.206   0.668 -0.0353 -0.2035  0.6048
 1729ntf    on510809   1.707   3.548   0.558  0.0825  0.1213 -0.1200
 1729ntf    on510810   1.718   3.341   0.428 -0.5730 -0.0092 -0.6727
 1729ntf    on510811   1.357   3.492   0.285 -0.0849  0.1925 -0.2372
 1729ntf    on510812   1.505   3.673   0.377 -0.3670 -0.2789 -0.0251
 1729ntf    fn410813   1.350   3.660   0.613 -0.7085  0.5980 -0.3565
 1729ntf    fn410814   1.225   3.708   0.445  0.2160  0.1830 -0.1918
 1729ntf    fn410815   1.204   3.523   0.543  0.0114 -0.2297  0.3264
 1730ntf    cn110816   2.798   6.501   1.814  0.1723 -0.0512  0.0695
 1730ntf    sn210817   2.630   6.517   1.883  0.1360  0.0695 -0.0455
 1730ntf    nn310818   2.605   6.385   1.965 -0.0392  0.1762  0.0727
 1730ntf    sn210819   2.664   6.350   2.106 -0.1359  0.7358  0.2542
 1730ntf    cn110820   2.553   6.213   2.148  0.2030  0.3429 -0.1208
 1730ntf    fn410821   2.832   6.604   1.739 -0.0662 -0.0894 -0.0907
 1730ntf    fn410822   2.882   6.505   1.916 -0.0636  0.2729  0.2557
 1730ntf    fn410823   2.817   6.398   1.734  0.0740  0.2370 -0.3283
 1730ntf    on510824   2.642   6.640   1.958 -0.1043 -0.3366  0.6740
 1730ntf    on510825   2.557   6.517   1.759  0.1661  0.2687 -0.0636
 1730ntf    on510826   2.655   6.449   2.211 -0.4582  0.8778  0.0929
 1730ntf    on510827   2.797   6.296   2.095 -0.1569  0.6365  0.4761
 1730ntf    fn410828   2.435   6.261   2.182  0.0027 -0.0552 -0.2509
 1730ntf    fn410829   2.536   6.134   2.044 -0.1171  0.0099  0.1823
 1730ntf    fn410830   2.594   6.133   2.245 -0.0598  0.1708 -0.1504
 1731ntf    cn110831   4.728   5.962   6.694  0.2477 -0.0483  0.2514
 1731ntf    sn210832   4.791   5.955   6.524 -0.0327 -0.1536  0.1503
 1731ntf    nn310833   4.929   6.031   6.532 -0.1641  0.1584 -0.4903
 1731ntf    sn210834   5.047   6.025   6.429  0.0205  0.3901 -0.2918
 1731ntf    cn110835   5.142   5.894   6.514 -0.6244 -0.0793 -0.2857
 1731ntf    fn410836   4.781   6.065   6.758  0.3348  0.2561 -0.3049
 1731ntf    fn410837   4.597   5.969   6.711  0.2762  0.0072  0.4480
 1731ntf    fn410838   4.757   5.847   6.754 -0.2280 -0.0395  0.5100
 1731ntf    on510839   4.800   5.812   6.510  0.5997 -0.1717  0.6787
 1731ntf    on510840   4.687   6.018   6.446 -0.0851  0.1349  0.4507
 1731ntf    on510841   5.129   6.143   6.444  0.5754  0.0241 -0.3901
 1731ntf    on510842   5.019   5.977   6.296 -0.4560  0.6569 -0.2886
 1731ntf    fn410843   5.272   5.886   6.494 -0.6197 -0.2132 -0.1991
 1731ntf    fn410844   5.114   5.894   6.643 -0.3976  0.1714 -0.2352
 1731ntf    fn410845   5.108   5.774   6.472 -0.1218 -0.3118 -0.0327
 1732ntf    cn110846   2.946   1.600   3.351 -0.1641  0.1198 -0.0335
 1732ntf    sn210847   2.892   1.682   3.198  0.2362  0.0004 -0.2411
 1732ntf    nn310848   2.769   1.595   3.154 -0.1446  0.5444 -0.2610
 1732ntf    sn210849   2.751   1.513   3.021  0.3064  0.0726 -0.0354
 1732ntf    cn110850   2.574   1.556   3.011  0.3316  0.1448 -0.1614
 1732ntf    fn410851   2.845   1.575   3.432  0.1576  0.7288  0.5720
 1732ntf    fn410852   3.016   1.491   3.324 -0.3504 -0.0890  0.3241
 1732ntf    fn410853   3.021   1.677   3.429  0.3238 -0.6971  0.3259
 1732ntf    on510854   2.849   1.813   3.241  0.5639  0.1352 -0.3257
 1732ntf    on510855   3.006   1.681   3.110  0.6807  0.2599  0.3251
 1732ntf    on510856   2.754   1.372   3.053  0.4564  0.1870  0.4697
 1732ntf    on510857   2.818   1.555   2.901  0.0167  0.3880 -0.0890
 1732ntf    fn410858   2.550   1.684   3.036  0.4024  0.1710 -0.2280
 1732ntf    fn410859   2.519   1.536   2.892  0.5548 -0.1993 -0.2060
 1732ntf    fn410860   2.491   1.484   3.084  0.1345  0.5006 -0.0316
 1733ntf    cn110861   4.922   5.332   4.516 -0.3332 -0.2172 -0.0690
 1733ntf    sn210862   5.038   5.249   4.628 -0.2146 -0.0781 -0.0889
 1733ntf    nn310863   5.110   5.379   4.679 -0.1075 -0.1778  0.0153
 1733ntf    sn210864   5.258   5.424   4.654 -0.1172 -0.0270  0.2360
 1733ntf    cn110865   5.233   5.603   4.635 -0.1095 -0.0814 -0.2847
 1733ntf    fn410866   4.907   5.458   4.555 -0.7068 -0.4263  0.4772
 1733ntf    fn410867   4.947   5.339   4.386 -0.5465  0.2900 -0.0893
 1733ntf    fn410868   4.801   5.279   4.531 -0.4199 -0.1683 -0.5660
 1733ntf    on510869   4.960   5.180   4.728  0.0095  0.2807  0.3375
 1733ntf    on510870   5.100   5.161   4.532 -0.4788  0.6282 -0.9140
 1733ntf    on510871   5.321   5.372   4.536 -0.3254  1.0665 -0.3696
 1733ntf    on510872   5.344   5.414   4.770 -0.3152 -0.3221  0.3595
 1733ntf    fn410873   5.148   5.638   4.540 -0.2598  0.4302  0.0337
 1733ntf    fn410874   5.183   5.655   4.745 -0.4728 -0.8567 -0.0768
 1733ntf    fn410875   5.342   5.675   4.613 -0.2195 -0.0106 -0.6087
 1734ntf    cn110876   3.040   3.601   6.695 -0.1065 -0.4221 -0.0186
 1734ntf    sn210877   3.052   3.512   6.853 -0.0700  0.1735  0.3149
 1734ntf    nn310878   3.189   3.561   6.912 -0.2685  0.7083  0.3428
 1734ntf    sn210879   3.239   3.561   7.061 -0.1232  0.2364  0.2978
 1734ntf    cn110880   3.404   3.488   7.043 -0.1625  0.1987  0.0859
 1734ntf    fn410881   3.046   3.731   6.716  0.2147 -0.5071  0.4307
 1734ntf    fn410882   3.143   3.584   6.612  0.2989  0.2404  0.3445
 1734ntf    fn410883   2.929   3.575   6.627  0.1201 -0.2040 -0.4793
 1734ntf    on510884   2.934   3.538   6.932  0.1599  0.0382  0.7077
 1734ntf    on510885   3.060   3.377   6.804  0.0115  0.2492  0.1196
 1734ntf    on510886   3.168   3.465   7.141 -0.0781  0.2026  0.2965
 1734ntf    on510887   3.272   3.691   7.116  0.6988  0.0367  0.2921
 1734ntf    fn410888   3.408   3.360   7.008  0.1881  0.2280  0.0165
 1734ntf    fn410889   3.483   3.558   6.963  0.1746  0.0268  0.2638
 1734ntf    fn410890   3.465   3.481   7.161 -0.7710 -0.2160  0.3805
 1735ntf    cn110891   0.526   1.872   0.317 -0.3081  0.1152  0.1043
 1735ntf    sn210892   0.658   1.959   0.227 -0.3160  0.0117 -0.0080
 1735ntf    nn310893   0.589   2.005   0.093 -0.2303  0.1284 -0.0123
 1735ntf    sn210894   0.634   1.982  -0.055 -0.4679  0.0824 -0.0786
 1735ntf    cn110895   0.807   2.037  -0.062 -0.4747  0.1251  0.0981
 1735ntf    fn410896   0.491   1.766   0.246  0.0206 -0.0134  0.1325
 1735ntf    fn410897   0.567   1.841   0.439 -1.3975  0.1994  0.4955
 1735ntf    fn410898   0.417   1.944   0.335 -0.0530  0.5334 -0.0238
 1735ntf    on510899   0.679   2.071   0.315  0.1917  0.0504 -0.1787
 1735ntf    on510900   0.769   1.870   0.210 -0.5191 -0.2084 -0.1813
 1735ntf    on510901   0.579   2.081  -0.145 -0.7736  0.3821  0.4354
 1735ntf    on510902   0.629   1.845  -0.100  0.7644  0.0356 -0.1285
 1735ntf    fn410903   0.889   1.950  -0.005  0.0525  0.0214 -0.8018
 1735ntf    fn410904   0.849   2.049  -0.187  0.0193  0.3482  0.2811
 1735ntf    fn410905   0.823   2.157  -0.008 -0.7558  0.1585  0.1062
 1736ntf    cn110906   3.158   4.439   5.758  0.3885  0.0331  0.2483
 1736ntf    sn210907   3.218   4.609   5.736  0.3851  0.0709  0.5246
 1736ntf    nn310908   3.347   4.594   5.648 -0.1250 -0.5492 -0.1312
 1736ntf    sn210909   3.491   4.655   5.668 -0.1885 -0.3686 -0.2189
 1736ntf    cn110910   3.545   4.637   5.495  0.2002  0.3152 -0.1700
 1736ntf    fn410911   3.260   4.356   5.774  0.1601 -0.2892  0.0378
 1736ntf    fn410912   3.090   4.425   5.871  0.2224  0.5382  0.2094
 1736ntf    fn410913   3.082   4.389   5.662  0.6592  0.1014 -0.0008
 1736ntf    on510914   3.112   4.667   5.658  0.0022 -0.4928  0.6225
 1736ntf    on510915   3.238   4.653   5.872  0.6928  0.0209  0.4978
 1736ntf    on510916   3.576   4.565   5.741  0.4829 -0.2137 -0.7920
 1736ntf    on510917   3.517   4.796   5.676 -0.0465 -0.3932 -0.2558
 1736ntf    fn410918   3.529   4.512   5.456  0.1299  0.4921 -0.7158
 1736ntf    fn410919   3.479   4.714   5.410 -0.3439 -0.2186 -0.2318
 1736ntf    fn410920   3.676   4.655   5.483  0.2323  0.1066 -0.1282
 1737ntf    cn110921   2.529   6.050   3.763 -0.1505 -0.5068 -0.3619
 1737ntf    sn210922   2.386   6.151   3.711  0.0052 -0.1234 -0.0432
 1737ntf    nn310923   2.283   6.130   3.828  0.3888 -0.8801  0.1629
 1737ntf    sn210924   2.317   6.148   3.980 -0.0691  0.0482  0.1598
 1737ntf    cn110925   2.178   6.254   4.029 -0.3773 -0.0457 -0.5036
 1737ntf    fn410926   2.609   6.124   3.838 -0.5603  0.0957 -0.5073
 1737ntf    fn410927   2.491   5.938   3.821  0.5034 -0.3733  0.3362
 1737ntf    fn410928   2.604   6.006   3.663  0.3161  0.2602 -0.3555
 1737ntf    on510929   2.435   6.287   3.712  0.4566 -0.2850  0.4188
 1737ntf    on510930   2.348   6.092   3.585 -0.0844  0.4766 -0.3023
 1737ntf    on510931   2.433   6.228   4.011  0.0598  0.0715 -0.3765
 1737ntf    on510932   2.305   6.023   4.050 -0.4978  0.5272  0.9539
 1737ntf    fn410933   2.058   6.219   3.986 -0.3962 -0.8458  0.1946
 1737ntf    fn410934   2.165   6.263   4.160 -0.8269 -0.8349 -0.4906
 1737ntf    fn410935   2.201   6.379   3.990  0.5896  0.2876  1.0633
 1738ntf    cn110936   6.384   4.040   1.938 -0.0045  0.0864  0.3518
 1738ntf    sn210937   6.386   4.220   1.960  0.2981  0.1228  0.0303
 1738ntf    nn310938   6.539   4.254   1.955  0.4610 -0.5763  0.1405
 1738ntf    sn210939   6.628   4.341   2.051 -0.0610 -0.1204  0.2149
 1738ntf    cn110940   6.701   4.212   2.157  0.1629  0.1227  0.3573
 1738ntf    fn410941   6.257   4.000   1.937 -0.0747  0.3137 -0.2347
 1738ntf    fn410942   6.428   3.998   1.821  0.1652  0.2262  0.3652
 1738ntf    fn410943   6.451   3.978   2.034  0.2835  0.3345  0.3087
 1738ntf    on510944   6.322   4.267   1.840  0.4286  0.2364  0.0046
 1738ntf    on510945   6.312   4.244   2.081  0.4049  0.3788  0.0458
 1738ntf    on510946   6.554   4.426   2.142  0.2058  0.3283  0.0165
 1738ntf    on510947   6.737   4.407   1.983  0.0169 -0.0185  0.4378
 1738ntf    fn410948   6.816   4.159   2.117  0.0364  0.1143  0.0029
 1738ntf    fn410949   6.720   4.250   2.282  0.7665 -0.4748  0.4543
 1738ntf    fn410950   6.616   4.111   2.160 -0.2254  0.4188 -0.2682
 1739ntf    cn110951   0.587   5.871   1.958  0.0105  0.0495  0.1787
 1739ntf    sn210952   0.421   5.802   1.984  0.0183 -0.1314 -0.2416
 1739ntf    nn310953   0.373   5.800   1.835  0.5800  0.0398 -0.4254
 1739ntf    sn210954   0.335   5.679   1.743 -0.1351 -0.0200 -0.0541
 1739ntf    cn110955   0.295   5.778   1.596 -0.2076 -0.0258 -0.0389
 1739ntf    fn410956   0.671   5.796   1.889  0.0536  0.5010 -0.2630
 1739ntf    fn410957   0.583   5.988   1.896 -0.2949 -0.2286 -0.3278
 1739ntf    fn410958   0.655   5.889   2.070  0.0593 -0.2220  0.1926
 1739ntf    on510959   0.443   5.674   2.045 -0.8257  0.0186  0.3967
 1739ntf    on510960   0.370   5.906   2.070 -0.4690  0.2481 -0.9771
 1739ntf    on510961   0.215   5.607   1.780  0.0596  0.0791  0.7842
 1739ntf    on510962   0.447   5.598   1.702  0.3662  0.5512  0.1756
 1739ntf    fn410963   0.174   5.828   1.611 -0.0662  0.1966  0.3699
 1739ntf    fn410964   0.373   5.881   1.569 -0.5066  0.3310  0.4544
 1739ntf    fn410965   0.298   5.706   1.484 -0.1213  0.0912 -0.1121
 1740ntf    cn110966   2.518   5.468   3.663 -0.5085 -0.0541 -0.3305
 1740ntf    sn210967   2.661   5.421   3.561 -0.4874  0.1992 -0.4183
 1740ntf    nn310968   2.647   5.265   3.573 -0.0759  0.1583 -0.4749
 1740ntf    sn210969   2.641   5.147   3.470 -0.1409 -0.2592  0.0030
 1740ntf    cn110970   2.641   4.994   3.568  0.2678 -0.0605  0.3151
 1740ntf    fn410971   2.512   5.600   3.670  0.4365 -0.0234  0.0211
 1740ntf    fn410972   2.400   5.420   3.625 -0.4668 -0.6168  0.2493
 1740ntf    fn410973   2.535   5.431   3.788  0.8471  0.2455 -0.4129
 1740ntf    on510974   2.630   5.483   3.434 -0.6190  0.1811 -0.3950
 1740ntf    on510975   2.774   5.472   3.634 -0.3432 -0.1870 -0.3690
 1740ntf    on510976   2.757   5.139   3.385 -0.0069  0.4078  0.1135
 1740ntf    on510977   2.517   5.148   3.397  0.1596  0.1891 -0.5111
 1740ntf    fn410978   2.523   4.968   3.622  0.1546  0.0040  0.1018
 1740ntf    fn410979   2.677   4.887   3.500  0.4277  0.0726  0.1878
 1740ntf    fn410980   2.731   5.008   3.665  0.1300 -0.2762  0.4760
 1741ntf    cn110981   4.163   1.278   4.700 -0.3492 -0.0993 -0.1725
 1741ntf    sn210982   4.142   1.182   4.853  0.3696 -0.1687 -0.1130
 1741ntf    nn310983   4.104   1.291   4.960 -0.0703 -0.2103 -0.2244
 1741ntf    sn210984   4.203   1.372   5.052 -0.1443 -0.3215 -0.0476
 1741ntf    cn110985   4.148   1.537   5.001 -0.1437 -0.2022  0.3375
 1741ntf    fn410986   4.247   1.380   4.701 -0.6241  0.1280 -0.0788
 1741ntf    fn410987   4.209   1.191   4.613  0.2052  0.0152  0.0006
 1741ntf    fn410988   4.049   1.318   4.646 -0.3473 -0.3768 -0.3835
 1741ntf    on510989   4.032   1.100   4.809  0.4420 -0.5878  0.4700
 1741ntf    on510990   4.263   1.106   4.871  0.3834 -0.1235 -0.0140
 1741ntf    on510991   4.343   1.363   5.018 -0.1385  0.0812 -0.1319
 1741ntf    on510992   4.159   1.366   5.189 -0.6200  0.4880 -0.1590
 1741ntf    fn410993   4.020   1.560   5.026 -0.1672 -0.4151  0.4089
 1741ntf    fn410994   4.213   1.631   5.068 -0.1997 -0.1395  0.3043
 1741ntf    fn410995   4.164   1.566   4.873 -0.4773 -0.0471  0.3287
 1742ntf    cn110996   0.089   6.591   1.632  0.4941 -0.0268 -0.1196
 1742ntf    sn210997   0.008   6.493   1.502 -0.4541  0.0556  0.4047
 1742ntf    nn310998  -0.133   6.482   1.572 -0.9807 -0.4474 -0.7064
 1742ntf    sn210999  -0.183   6.391   1.689 -0.2293 -0.1820 -0.1634
 1742ntf    cn111000  -0.265   6.263   1.588 -0.0147 -0.2050 -0.3075
 1742ntf    fn411001   0.138   6.516   1.729  0.3200  0.0898  0.0587
 1742ntf    fn411002   0.191   6.663   1.587  0.0648  0.5535 -0.1736
 1742ntf    fn411003   0.015   6.679   1.698  0.4314  0.0582 -0.3025
 1742ntf    on511004   0.015   6.575   1.384  0.1969 -0.3420  0.1608
 1742ntf    on511005   0.076   6.367   1.486 -0.5566  0.0911 -0.3343
 1742ntf    on511006  -0.289   6.456   1.763 -0.2090 -0.1398 -0.1731
 1742ntf    on511007  -0.085   6.317   1.764 -0.0758  0.2604  0.0754
 1742ntf    fn411008  -0.181   6.215   1.498  0.5202  0.6240 -0.2668
 1742ntf    fn411009  -0.302   6.155   1.654  0.0949 -0.3904 -0.5468
 1742ntf    fn411010  -0.366   6.316   1.521 -0.2615  0.2894  0.4459
 1743ntf    cn111011   6.537   6.086   0.351  0.8074 -0.1290  0.2682
 1743ntf    sn211012   6.470   5.921   0.388 -0.1377  0.2071  0.0987
 1743ntf    nn311013   6.561   5.859   0.276 -0.2736 -0.4314  0.3380
 1743ntf    sn211014   6.699   5.786   0.290  0.1162  0.2107 -0.0855
 1743ntf    cn111015   6.737   5.762   0.114 -0.1392  0.0612 -0.1209
 1743ntf    fn411016   6.496   6.175   0.441  0.2599 -0.3698  0.2604
 1743ntf    fn411017   6.669   6.093   0.360  0.8451 -0.3506 -0.0989
 1743ntf    fn411018   6.500   6.134   0.233  0.1846 -0.6448  0.2447
 1743ntf    on511019   6.515   5.897   0.523 -0.3319 -0.8190 -0.0138
 1743ntf    on511020   6.330   5.921   0.357 -0.0090 -0.0847 -0.4878
 1743ntf    on511021   6.693   5.654   0.349  0.7077  0.1922 -0.0547
 1743ntf    on511022   6.794   5.883   0.339  0.1685 -0.0644  0.3684
 1743ntf    fn411023   6.865   5.737   0.092 -0.4149 -1.1686 -0.4186
 1743ntf    fn411024   6.674   5.661   0.056 -0.4776 -0.0058  0.3642
 1743ntf    fn411025   6.718   5.873   0.044  0.3497  0.0453 -0.2865
 1744ntf    cn111026   3.527   1.712   3.772 -0.7008  0.7652  0.3987
 1744ntf    sn211027   3.633   1.846   3.709 -0.2097  0.2018  0.0070
 1744ntf    nn311028   3.763   1.779   3.767 -0.2180  0.4050  0.2598
 1744ntf    sn211029   3.846   1.807   3.897  0.1791 -0.2780  0.1533
 1744ntf    cn111030   3.951   1.659   3.911  0.1911 -0.2786  0.0525
 1744ntf    fn411031   3.399   1.744   3.777 -0.7531  0.4916  0.9587
 1744ntf    fn411032   3.534   1.601   3.699  0.3969  0.5842  0.7496
 1744ntf    fn411033   3.565   1.673   3.893 -0.5502  0.3411  0.2168
 1744ntf    on511034   3.615   1.843   3.566  0.4419 -0.0782 -0.0738
 1744ntf    on511035   3.573   1.953   3.785  0.3318  0.0375  0.6778
 1744ntf    on511036   3.770   1.795   4.019 -0.2965  0.0441 -0.1119
 1744ntf    on511037   3.945   1.911   3.878  0.1486 -0.2720  0.0280
 1744ntf    fn411038   4.059   1.665   3.834  0.0860  0.8929 -0.0141
 1744ntf    fn411039   3.997   1.650   4.035 -0.0580  0.1185  0.1756
 1744ntf    fn411040   3.884   1.549   3.883 -0.0234 -0.0373 -0.3886
 1745ntf    cn111041   5.005   4.108   4.413  0.2008  0.2127  0.2261
 1745ntf    sn211042   4.825   4.123   4.396  0.2253  0.1476 -0.0869
 1745ntf    nn311043   4.787   4.124   4.548 -0.5509 -0.1812 -0.2751
 1745ntf    sn211044   4.768   4.248   4.642 -0.5075 -0.3626 -0.0278
 1745ntf    cn111045   4.591   4.286   4.628 -0.3351  0.4781  0.0411
 1745ntf    fn411046   5.038   4.020   4.506  0.1489  0.1307  0.1663
 1745ntf    fn411047   5.064   4.065   4.302 -0.1419  1.0032 -0.2697
 1745ntf    fn411048   5.074   4.214   4.452 -0.2882  0.2947  0.8783
 1745ntf    on511049   4.795   4.244   4.323 -0.5476  0.2220  0.3423
 1745ntf    on511050   4.785   4.002   4.326 -0.1120  0.2640 -0.0969
 1745ntf    on511051   4.841   4.368   4.609 -0.5998 -0.1740  0.4420
 1745ntf    on511052   4.775   4.205   4.780 -0.0612 -0.1825  0.0089
 1745ntf    fn411053   4.559   4.361   4.524  0.0626 -0.3069 -0.6569
 1745ntf    fn411054   4.531   4.168   4.626  0.1840  0.2198 -0.5254
 1745ntf    fn411055   4.547   4.348   4.737  0.3309  0.8162  0.1275
 1746ntf    cn111056   0.482   3.385   0.500 -0.3725 -0.2108 -0.2127
 1746ntf    sn211057   0.465   3.467   0.662 -0.1182 -0.4233 -0.0786
 1746ntf    nn311058   0.617   3.498   0.690 -0.1630  0.1715 -0.4641
 1746ntf    sn211059   0.705   3.617   0.639  0.1013  0.1109 -0.1501
 1746ntf    cn111060   0.837   3.536   0.543  0.0263 -0.5215  0.2767
 1746ntf    fn411061   0.575   3.291   0.497  0.0505  0.1990 -0.0187
 1746ntf    fn411062   0.371   3.327   0.456 -0.2085 -0.2906 -0.5245
 1746ntf    fn411063   0.504   3.460   0.394  0.3084 -0.6646 -0.3984
 1746ntf    on511064   0.375   3.578   0.642  0.4241  0.0231 -0.0885
 1746ntf    on511065   0.409   3.357   0.737 -0.8084 -0.6230 -0.8710
 1746ntf    on511066   0.777   3.700   0.732 -0.7775  0.4555  0.2223
 1746ntf    on511067   0.636   3.697   0.541 -0.5938 -0.5095 -0.1755
 1746ntf    fn411068   0.929   3.464   0.607  0.5483 -0.7697 -0.7256
 1746ntf    fn411069   0.791   3.468   0.439  0.4355  0.1061 -0.3253
 1746ntf    fn411070   0.913   3.628   0.487 -0.1561 -0.1460  0.6396
 1747ntf    cn111071   2.629   4.668   6.380  0.3571 -0.2290  0.5437
 1747ntf    sn211072   2.632   4.849   6.393 -0.0063 -0.1972  0.1984
 1747ntf    nn311073   2.761   4.864   6.481 -0.1864  0.2935  0.3848
 1747ntf    sn211074   2.885   4.950   6.439 -0.1930  0.1497  0.0693
 1747ntf    cn111075   2.970   4.999   6.592  0.1665 -0.1859 -0.0195
 1747ntf    fn411076   2.719   4.620   6.295 -0.1241  0.5530 -0.4262
 1747ntf    fn411077   2.650   4.606   6.495  0.1353 -0.1666  0.6189
 1747ntf    fn411078   2.522   4.616   6.321  0.2334  0.6428 -0.0281
 1747ntf    on511079   2.639   4.893   6.256 -0.3342 -0.1153  0.2075
 1747ntf    on511080   2.513   4.874   6.471 -0.0496 -0.2033  0.1342
 1747ntf    on511081   2.851   5.083   6.394  1.0250  0.5293  0.2353
 1747ntf    on511082   2.990   4.877   6.372  0.3039  0.3903  0.5739
 1747ntf    fn411083   3.061   5.093   6.572  0.5559 -0.5693 -0.0421
 1747ntf    fn411084   2.891   5.048   6.687  0.5008 -0.4603  0.4026
 1747ntf    fn411085   3.019   4.892   6.652  0.0375 -0.0186  0.3895
 1748ntf    cn111086   1.374   2.170   0.946 -0.0526 -0.4694 -0.0660
 1748ntf    sn211087   1.246   2.253   0.849 -0.1299 -0.0122  0.4243
 1748ntf    nn311088   1.134   2.143   0.856 -0.1353 -0.0232  0.1651
 1748ntf    sn211089   0.978   2.145   0.872 -0.1473  0.2824  0.0288
 1748ntf    cn111090   0.918   2.195   0.708 -0.0559  0.0673 -0.0708
 1748ntf    fn411091   1.490   2.234   0.943 -0.2814 -0.0567 -0.0887
 1748ntf    fn411092   1.330   2.160   1.070  0.5767 -0.2313  0.1837
 1748ntf    fn411093   1.388   2.043   0.910 -0.4343 -0.4116 -0.4162
 1748ntf    on511094   1.222   2.384   0.905 -0.4858  0.2668 -0.3599
 1748ntf    on511095   1.306   2.253   0.718 -0.4847  0.2493  0.2561
 1748ntf    on511096   0.932   2.248   0.961  0.0902  0.4290 -0.0168
 1748ntf    on511097   0.928   2.011   0.891 -0.0200  0.2886  0.4121
 1748ntf    fn411098   0.798   2.252   0.707 -0.0103  0.1757  0.3679
 1748ntf    fn411099   1.005   2.280   0.657 -0.3861  0.3316 -0.1966
 1748ntf    fn411100   0.920   2.101   0.615  0.8317 -0.0027  0.0164
 1749ntf    cn111101   5.661   4.168   5.187  0.4154 -0.2380 -0.0993
 1749ntf    sn211102   5.700   3.997   5.235 -0.1868 -0.2816  0.2386
 1749ntf    nn311103   5.611   3.921   5.131  0.5970 -0.4098 -0.3436
 1749ntf    sn211104   5.466   3.867   5.154  0.5295 -0.0513  0.0713
 1749ntf    cn111105   5.427   3.822   4.982 -0.1215 -0.0497  0.2134
 1749ntf    fn411106   5.534   4.195   5.211  0.6013 -0.2534  0.9219
 1749ntf    fn411107   5.740   4.257   5.245 -0.0350  0.1130 -0.0170
 1749ntf    fn411108   5.676   4.192   5.057  0.2437 -0.0433 -0.0833
 1749ntf    on511109   5.839   3.989   5.197 -0.2472 -0.3042  0.0254
 1749ntf    on511110   5.662   3.989   5.374  0.4174  0.4889  0.4591
 1749ntf    on511111   5.368   3.969   5.185 -0.0987 -0.3503 -0.8791
 1749ntf    on511112   5.466   3.740   5.223 -0.0632 -0.0637  0.0583
 1749ntf    fn411113   5.529   3.749   4.940  0.0239  0.1047  0.2908
 1749ntf    fn411114   5.314   3.756   4.966 -0.3734  0.3513  0.3187
 1749ntf    fn411115   5.418   3.922   4.896  0.3475  0.1968  0.4417
 1750ntf    cn111116   0.923   6.112   4.755 -0.3553  0.0597  0.2725
 1750ntf    sn211117   0.989   5.982   4.864 -0.1664 -0.5552 -0.5645
 1750ntf    nn311118   0.874   5.986   4.970  0.7524  0.2773  0.4327
 1750ntf    sn211119   0.827   6.104   5.062  0.1634  0.5233 -0.1785
 1750ntf    cn111120   0.731   6.014   5.187  0.2664  0.4423 -0.1575
 1750ntf    fn411121   0.802   6.085   4.707 -0.4138  0.1802  0.3536
 1750ntf    fn411122   0.915   6.227   4.820 -0.7843  0.3546 -0.2915
 1750ntf    fn411123   1.000   6.123   4.649 -0.3167 -0.5112  0.2345
 1750ntf    on511124   0.995   5.860   4.788 -0.0554 -1.0727  0.2647
 1750ntf    on511125   1.115   6.039   4.907 -0.6818 -0.0561  0.2994
 1750ntf    on511126   0.728   6.194   5.008 -0.1997  0.9028  1.0896
 1750ntf    on511127   0.931   6.164   5.143  0.4717 -0.2981  0.0416
 1750ntf    fn411128   0.656   6.094   5.261  0.0154  0.1121 -0.0515
 1750ntf    fn411129   0.647   5.927   5.133  0.2769  0.1173  0.3440
 1750ntf    fn411130   0.807   5.944   5.269 -0.1663  0.0376 -0.0973
 1751ntf    cn111131   2.391   2.281   5.630  0.2083 -0.0847  0.0944
 1751ntf    sn211132   2.377   2.322   5.807  0.4280 -0.2511  0.1511
 1751ntf    nn311133   2.254   2.240   5.859  0.2295 -0.2792 -0.3526
 1751ntf    sn211134   2.105   2.290   5.856  0.3451  0.1189  0.2463
 1751ntf    cn111135   2.055   2.259   6.028  0.0764 -0.2186  0.1082
 1751ntf    fn411136   2.394   2.150   5.611  0.4056  0.0256 -0.6698
 1751ntf    fn411137   2.283   2.323   5.567  0.0369  0.4228  0.7100
 1751ntf    fn411138   2.488   2.343   5.564 -0.1435  0.1967 -0.1609
 1751ntf    on511139   2.501   2.276   5.864  0.8029  0.5308 -0.0114
 1751ntf    on511140   2.356   2.465   5.798  0.2960 -0.3035 -0.4197
 1751ntf    on511141   2.019   2.199   5.784  0.8099 -0.0694 -0.0776
 1751ntf    on511142   2.083   2.432   5.848 -0.6737 -0.0615 -0.3978
 1751ntf    fn411143   2.088   2.139   6.075  0.3196 -0.2337 -0.0986
 1751ntf    fn411144   2.112   2.347   6.108 -0.6633  0.2453  0.1312
 1751ntf    fn411145   1.925   2.273   6.045  0.0652 -0.1415 -0.0373
 1752ntf    cn111146   6.166   5.821   6.335 -0.4959 -0.1945  0.0977
 1752ntf    sn211147   6.260   5.890   6.474 -0.2458 -0.0787 -0.1288
 1752ntf    nn311148   6.202   5.807   6.594 -0.2656  0.1060 -0.0105
 1752ntf    sn211149   6.255   5.666   6.637 -0.1388  0.1286 -0.0930
 1752ntf    cn111150   6.375   5.724   6.760 -0.3460 -0.1584  0.2473
 1752ntf    fn411151   6.140   5.693   6.356  0.4780 -0.3417  0.4242
 1752ntf    fn411152   6.051   5.881   6.309 -0.2266  0.2957  0.0228
 1752ntf    fn411153   6.227   5.830   6.218 -0.3088  0.4077  0.2405
 1752ntf    on511154   6.400   5.874   6.443 -0.1754  0.3285 -0.0314
 1752ntf    on511155   6.211   6.025   6.467 -0.0823  0.0186  0.5195
 1752ntf    on511156   6.337   5.596   6.541 -0.0861 -0.6895  0.5345
 1752ntf    on511157   6.160   5.593   6.718  0.0843 -0.1005 -0.0379
 1752ntf    fn411158   6.454   5.824   6.725 -0.3135 -0.2421  0.0785
 1752ntf    fn411159   6.308   5.760   6.868 -0.3690  0.3268  0.0752
 1752ntf    fn411160   6.453   5.624   6.797  0.1980  0.0678 -0.2750
 1753ntf    cn111161   5.117   3.259   3.781 -0.2329  0.0713 -0.4974
 1753ntf    sn211162   4.977   3.294   3.892  0.0318  0.0494 -0.1527
 1753ntf    nn311163   4.910   3.153   3.912 -0.2602  0.2435  0.2459
 1753ntf    sn211164   4.941   3.037   4.012  0.4207  0.0983 -0.1266
 1753ntf    cn111165   4.957   2.895   3.899  0.0074 -0.0447 -0.0090
 1753ntf    fn411166   5.181   3.364   3.732  0.0956 -0.0202 -0.2726
 1753ntf    fn411167   5.214   3.208   3.855 -0.1631  0.5711 -0.2364
 1753ntf    fn411168   5.086   3.184   3.677  0.0678 -0.3191 -0.3114
 1753ntf    on511169   5.036   3.372   3.998  0.6072 -0.1765 -0.2989
 1753ntf    on511170   4.892   3.373   3.807 -0.3441  0.0202  0.1930
 1753ntf    on511171   4.822   3.005   4.087  0.4999  0.1383  0.0154
 1753ntf    on511172   5.071   3.041   4.075  0.1875  0.6509  0.3262
 1753ntf    fn411173   4.843   2.878   3.835  0.0484 -0.6266  0.0715
 1753ntf    fn411174   5.052   2.916   3.810  0.0031 -0.0938 -0.0248
 1753ntf    fn411175   4.992   2.789   3.971  0.4177  0.0962  0.0056
 1754ntf    cn111176   1.882   0.415   5.329  0.4971  0.4046  0.0973
 1754ntf    sn211177   1.918   0.360   5.159  0.2158  0.3792  0.0464
 1754ntf    nn311178   2.024   0.469   5.119  0.2527  0.2337 -0.2538
 1754ntf    sn211179   2.178   0.439   5.108  0.1727 -0.1842 -0.2669
 1754ntf    cn111180   2.235   0.609   5.080 -0.0191 -0.0802 -0.0312
 1754ntf    fn411181   1.817   0.530   5.334 -0.1389  0.0803 -0.4999
 1754ntf    fn411182   1.806   0.322   5.385 -0.6021  0.9057 -0.5292
 1754ntf    fn411183   1.993   0.415   5.401  0.5419 -0.6468  0.0503
 1754ntf    on511184   1.965   0.225   5.175  0.4556  0.4042 -0.4324
 1754ntf    on511185   1.791   0.375   5.091  0.2285 -0.1180 -0.0868
 1754ntf    on511186   2.213   0.372   4.985 -0.8838 -0.3277 -0.5031
 1754ntf    on511187   2.245   0.396   5.228 -1.2176  0.1134  0.6346
 1754ntf    fn411188   2.212   0.684   5.186  0.4386  0.4176 -0.2757
 1754ntf    fn411189   2.364   0.612   5.051 -0.0074 -0.2475  0.0054
 1754ntf    fn411190   2.176   0.663   4.975  0.4940  0.5075 -0.0251
 1755ntf    cn111191   5.251   4.809   3.424  0.0136 -0.0020  0.2054
 1755ntf    sn211192   5.393   4.751   3.326 -0.2908 -0.1682 -0.1430
 1755ntf    nn311193   5.344   4.790   3.182 -0.1685  0.1477 -0.0990
 1755ntf    sn211194   5.408   4.755   3.044 -0.3076 -0.3337 -0.0420
 1755ntf    cn111195   5.512   4.900   3.009 -0.2515 -0.3315  0.1338
 1755ntf    fn411196   5.244   4.749   3.542 -1.1043  0.6658  0.4923
 1755ntf    fn411197   5.265   4.940   3.437  0.4975 -0.0442  0.1092
 1755ntf    fn411198   5.126   4.798   3.380 -0.0324  0.8976  0.0967
 1755ntf    on511199   5.506   4.830   3.368 -0.0253 -0.4383 -0.3500
 1755ntf    on511200   5.382   4.608   3.346 -0.0040 -0.2898 -0.8443
 1755ntf    on511201   5.306   4.748   2.942 -0.2227 -0.5075 -0.1167
 1755ntf    on511202   5.505   4.648   3.048 -0.4296 -0.4100  1.1581
 1755ntf    fn411203   5.594   4.878   2.908 -0.0487  0.2750  0.1652
 1755ntf    fn411204   5.441   5.008   2.979 -0.0817 -0.1868  0.2503
 1755ntf    fn411205   5.595   4.938   3.104  0.0570 -0.2979 -0.1505
 1756ntf    cn111206   5.442   2.299   1.146  0.0409  0.1713  0.0827
 1756ntf    sn211207   5.410   2.383   0.989 -0.3566 -0.1713 -0.0198
 1756ntf    nn311208   5.419   2.262   0.889 -0.0022  0.1034 -0.3247
 1756ntf    sn211209   5.519   2.211   0.779 -0.0302  0.0203 -0.3115
 1756ntf    cn111210   5.656   2.155   0.884  0.0758  0.4928 -0.1994
 1756ntf    fn411211   5.449   2.371   1.257 -0.0935  0.3201 -0.0065
 1756ntf    fn411212   5.369   2.190   1.159  0.3601 -0.0839 -0.2315
 1756ntf    fn411213   5.566   2.252   1.139 -0.0451  0.0159 -0.4001
 1756ntf    on511214   5.274   2.428   1.004 -0.2973 -0.1068  0.3187
 1756ntf    on511215   5.515   2.482   0.981 -0.2178 -0.2558  0.7218
 1756ntf    on511216   5.571   2.311   0.690  0.8251 -0.1341  0.0034
 1756ntf    on511217   5.477   2.087   0.719 -0.5477  0.2687 -0.4644
 1756ntf    fn411218   5.728   2.253   0.937  0.3557  0.1166  0.1290
 1756ntf    fn411219   5.620   2.069   0.978  0.3615  0.2613 -0.3019
 1756ntf    fn411220   5.743   2.083   0.815  0.5480  0.2857  0.5924
 1757ntf    cn111221   4.454   4.760   3.476  0.2988  0.0624  0.2677
 1757ntf    sn211222   4.501   4.601   3.550  0.2221 -0.2270 -0.3022
 1757ntf    nn311223   4.541   4.643   3.695  0.2368 -0.0298 -0.3629
 1757ntf    sn211224   4.669   4.723   3.739  0.0920 -0.1882  0.3556
 1757ntf    cn111225   4.805   4.605   3.717  0.2767  0.1043 -0.0781
 1757ntf    fn411226   4.410   4.853   3.559 -0.0160  0.5088 -0.3839
 1757ntf    fn411227   4.549   4.820   3.406  0.1885  0.0699  0.1238
 1757ntf    fn411228   4.358   4.752   3.385  0.0205 -0.3173  0.5917
 1757ntf    on511229   4.379   4.527   3.527 -0.2709  0.5405 -0.1706
 1757ntf    on511230   4.610   4.557   3.467  0.6750  0.4954 -0.0898
 1757ntf    on511231   4.669   4.754   3.880 -0.5798  0.0311  0.3111
 1757ntf    on511232   4.709   4.830   3.651 -0.2338 -0.8194 -0.5736
 1757ntf    fn411233   4.877   4.588   3.827  0.3343  0.2560 -0.0917
 1757ntf    fn411234   4.759   4.485   3.688  0.0641 -0.0388  0.8132
 1757ntf    fn411235   4.898   4.629   3.626 -0.1457  0.2749 -0.4678
 1758ntf    cn111236   1.562   1.290   3.798  0.7431  0.1134  0.0949
 1758ntf    sn211237   1.476   1.359   3.943  0.0897 -0.1001 -0.1891
 1758ntf    nn311238   1.414   1.485   3.873 -0.4647 -0.0624  0.3575
 1758ntf    sn211239   1.403   1.631   3.928  0.1348  0.1424 -0.0464
 1758ntf    cn111240   1.500   1.724   3.806 -0.3354  0.0364 -0.5077
 1758ntf    fn411241   1.622   1.174   3.819 -0.1140 -0.3057  0.2466
 1758ntf    fn411242   1.480   1.258   3.700  0.3743  1.0774  0.0784
 1758ntf    fn411243   1.654   1.370   3.744  0.2591  0.5844 -0.0412
 1758ntf    on511244   1.383   1.255   3.982  0.2895 -0.2308 -0.0579
 1758ntf    on511245   1.589   1.375   4.032 -0.4024 -0.3614  0.4958
 1758ntf    on511246   1.463   1.677   4.051  0.3817 -0.0218 -0.1064
 1758ntf    on511247   1.267   1.677   3.908 -0.1250 -0.4801  0.2639
 1758ntf    fn411248   1.450   1.736   3.685 -0.0802  0.5773 -0.5632
 1758ntf    fn411249   1.525   1.847   3.850 -0.5090 -0.3305  0.6714
 1758ntf    fn411250   1.618   1.670   3.784 -0.2262  0.0653 -0.0233
 1759ntf    cn111251   4.649   2.153   0.715  0.0405  0.6393 -0.0796
 1759ntf    sn211252   4.705   2.073   0.562 -0.3133  0.0685  0.0858
 1759ntf    nn311253   4.748   1.935   0.624  0.2941  0.1055 -0.2492
 1759ntf    sn211254   4.710   1.790   0.578  0.0260  0.1156 -0.0551
 1759ntf    cn111255   4.877   1.722   0.603  0.0042  0.0662 -0.0428
 1759ntf    fn411256   4.706   2.113   0.828 -0.7255  0.3579  0.2140
 1759ntf    fn411257   4.669   2.282   0.734  0.1586  0.5484  0.4177
 1759ntf    fn411258   4.518   2.140   0.733  0.0996  0.0068 -0.0913
 1759ntf    on511259   4.595   2.067   0.470  0.3301  0.1198 -0.7026
 1759ntf    on511260   4.811   2.165   0.527 -0.2557 -0.3006 -0.7357
 1759ntf    on511261   4.689   1.770   0.437 -0.0342  0.7228 -0.1323
 1759ntf    on511262   4.627   1.715   0.669 -0.0130  0.2525  0.0221
 1759ntf    fn411263   4.895   1.618   0.524  0.4865  0.1199 -0.0070
 1759ntf    fn411264   4.969   1.814   0.577 -0.3341  0.3495 -0.2505
 1759ntf    fn411265   4.899   1.667   0.721 -0.1052 -0.1099 -0.1036
 1760ntf    cn111266   3.725   0.909   5.653  0.2068 -0.3551  0.4097
 1760ntf    sn211267   3.892   0.899   5.581  0.0705  0.0595  0.0348
 1760ntf    nn311268   3.865   0.817   5.450  0.1028 -0.1645  0.1683
 1760ntf    sn211269   3.803   0.859   5.312  0.2865 -0.1323  0.0943
 1760ntf    cn111270   3.954   0.919   5.231 -0.0420  0.1336 -0.3230
 1760ntf    fn411271   3.666   0.792   5.669  0.0769 -0.2913  0.3997
 1760ntf    fn411272   3.734   0.971   5.769  0.2022  0.5643 -0.0730
 1760ntf    fn411273   3.654   0.988   5.573  0.6198 -0.2945  0.0998
 1760ntf    on511274   3.932   1.036   5.556 -0.0067  0.1219  0.2460
 1760ntf    on511275   3.959   0.816   5.678  0.1513  0.1211  0.0316
 1760ntf    on511276   3.714   0.971   5.297 -0.1723 -0.5004  0.0306
 1760ntf    on511277   3.766   0.742   5.236 -0.4840 -0.0688  0.3622
 1760ntf    fn411278   4.006   1.027   5.288 -0.0390 -0.1923  0.3031
 1760ntf    fn411279   4.047   0.826   5.235 -0.0530  0.1168 -0.4718
 1760ntf    fn411280   3.940   0.946   5.102 -0.0997 -0.0500 -0.3555
 1761ntf    cn111281   2.595   6.633   0.934 -0.2065  0.4800 -0.2365
 1761ntf    sn211282   2.509   6.545   1.068  0.3005 -0.0063 -0.2293
 1761ntf    nn311283   2.431   6.663   1.137  0.4915  0.3481 -0.6113
 1761ntf    sn211284   2.311   6.751   1.087  0.1332  0.0582 -0.2719
 1761ntf    cn111285   2.174   6.659   1.163 -0.0361 -0.0513 -0.7019
 1761ntf    fn411286   2.639   6.753   0.968 -0.9253  0.5717  0.4060
 1761ntf    fn411287   2.706   6.572   0.897 -0.0960  0.2790  0.4113
 1761ntf    fn411288   2.523   6.650   0.825 -0.7144  0.3738  0.0778
 1761ntf    on511289   2.439   6.437   1.004 -0.4075 -0.0083  0.5302
 1761ntf    on511290   2.623   6.503   1.145  0.6067  0.2417 -0.5431
 1761ntf    on511291   2.281   6.744   0.946  0.0823  0.5865 -0.2867
 1761ntf    on511292   2.296   6.885   1.138 -0.2711  0.1051 -0.5127
 1761ntf    fn411293   2.190   6.634   1.292 -0.1926  0.4476 -0.5820
 1761ntf    fn411294   2.054   6.711   1.145 -0.0702  0.1226 -0.0252
 1761ntf    fn411295   2.169   6.536   1.115 -0.0927 -0.2112 -0.2915
 1762ntf    cn111296   3.115   1.237   4.693  0.2529  0.8021 -0.2716
 1762ntf    sn211297   3.242   1.214   4.565 -0.0601  0.3172 -0.5015
 1762ntf    nn311298   3.352   1.145   4.655 -0.1525  0.5714 -0.1908
 1762ntf    sn211299   3.503   1.186   4.665  0.1044 -0.3053 -0.4251
 1762ntf    cn111300   3.514   1.143   4.841 -0.1647  0.1309 -0.2998
 1762ntf    fn411301   3.005   1.285   4.637 -0.2805  0.3733  0.3951
 1762ntf    fn411302   3.078   1.119   4.742  0.2552  0.8442 -0.1683
 1762ntf    fn411303   3.149   1.312   4.797  0.0999 -0.1615  0.4934
 1762ntf    on511304   3.188   1.119   4.471 -0.0787 -0.1985  0.0242
 1762ntf    on511305   3.264   1.350   4.522  0.0827  0.3919 -0.2007
 1762ntf    on511306   3.536   1.326   4.668  0.8502 -0.4921  0.3336
 1762ntf    on511307   3.593   1.093   4.603 -0.4531 -0.8744 -0.3909
 1762ntf    fn411308   3.641   1.133   4.878 -0.2246  0.1384 -0.0928
 1762ntf    fn411309   3.458   1.228   4.925  0.0760 -0.1587  0.1568
 1762ntf    fn411310   3.456   1.026   4.862  0.3049  0.0051  0.3408
 1763ntf    cn111311   2.161   5.539   5.755  0.3670  0.0223 -0.0983
 1763ntf    sn211312   2.163   5.393   5.863  0.1423 -0.1220 -0.2892
 1763ntf    nn311313   2.050   5.427   5.967  0.5359 -0.1557  0.1527
 1763ntf    sn211314   1.961   5.343   6.065  0.1153 -0.2729 -0.3270
 1763ntf    cn111315   1.858   5.474   6.139  0.2549 -0.1183 -0.4069
 1763ntf    fn411316   2.266   5.548   5.675  0.2567  0.0674 -0.2383
 1763ntf    fn411317   2.057   5.551   5.674 -0.2990  0.2874  0.7849
 1763ntf    fn411318   2.165   5.650   5.827 -1.1939 -0.0483  0.1288
 1763ntf    on511319   2.137   5.296   5.759 -0.5508 -0.0644 -0.1764
 1763ntf    on511320   2.295   5.381   5.921 -0.2137 -0.9651  0.3739
 1763ntf    on511321   2.034   5.286   6.175  0.2611 -0.3684 -0.4711
 1763ntf    on511322   1.867   5.253   6.002  0.3410 -0.3138 -0.6066
 1763ntf    fn411323   1.757   5.426   6.209  0.7147 -0.0618  0.3009
 1763ntf    fn411324   1.911   5.562   6.222 -0.1589 -0.3127  0.0635
 1763ntf    fn411325   1.804   5.551   6.046  0.2001 -0.2104 -0.4513
 1764ntf    cn111326   2.669   3.994   4.868 -0.2162  0.3826 -0.0522
 1764ntf    sn211327   2.591   3.861   4.964  0.2851 -0.0026 -0.1753
 1764ntf    nn311328   2.661   3.737   4.899  0.6266  0.1332 -0.0685
 1764ntf    sn211329   2.790   3.673   4.960  0.4757  0.3510  0.4779
 1764ntf    cn111330   2.733   3.569   5.098 -0.2699 -0.4288 -0.4076
 1764ntf    fn411331   2.799   3.975   4.852 -0.3374 -0.5723  0.0233
 1764ntf    fn411332   2.607   4.024   4.755 -0.0533 -0.0001 -0.2425
 1764ntf    fn411333   2.662   4.106   4.939 -0.3833  0.3090  0.0488
 1764ntf    on511334   2.606   3.881   5.106 -0.2924  0.8145 -0.2221
 1764ntf    on511335   2.452   3.846   4.928  0.2712  0.0096 -0.1269
 1764ntf    on511336   2.879   3.773   5.015  0.5677  0.1756  0.6522
 1764ntf    on511337   2.847   3.580   4.866  0.6967  0.3354  0.6249
 1764ntf    fn411338   2.770   3.442   5.102  0.6605 -0.1655 -0.4329
 1764ntf    fn411339   2.763   3.622   5.216 -0.1056 -0.2962 -0.5081
 1764ntf    fn411340   2.601   3.564   5.090 -0.2100 -1.0198 -1.0416
 1765ntf    cn111341   1.006   4.271   3.520  0.7931  0.4482  0.6527
 1765ntf    sn211342   0.924   4.249   3.681 -0.1182 -0.0879  0.1210
 1765ntf    nn311343   0.967   4.380   3.756 -0.0801 -0.0292 -0.0025
 1765ntf    sn211344   0.877   4.501   3.800 -0.0481  0.0271 -0.0911
 1765ntf    cn111345   0.863   4.492   3.981 -0.1827 -0.3118 -0.1181
 1765ntf    fn411346   1.125   4.327   3.540  0.5806  1.0964  0.1540
 1765ntf    fn411347   1.025   4.157   3.456 -0.3159  0.1318  0.8727
 1765ntf    fn411348   0.940   4.354   3.441  0.5092 -0.2050  0.1956
 1765ntf    on511349   0.785   4.234   3.648 -0.3281 -0.2995  1.0817
 1765ntf    on511350   0.981   4.138   3.752  0.0842 -0.1255 -0.0964
 1765ntf    on511351   0.739   4.505   3.758 -0.1754 -0.0946  0.3116
 1765ntf    on511352   0.960   4.618   3.782  0.4890 -0.2067  0.7838
 1765ntf    fn411353   0.977   4.491   4.048 -0.0029 -0.2788 -0.4225
 1765ntf    fn411354   0.794   4.591   4.036  0.1672 -0.3462  0.3937
 1765ntf    fn411355   0.794   4.393   4.034 -0.3427 -0.2360 -0.1858
 1766ntf    cn111356   3.562   2.841   5.585  0.0804 -0.2114  0.3644
 1766ntf    sn211357   3.684   2.970   5.624  0.1583 -0.1663 -0.0178
 1766ntf    nn311358   3.610   3.048   5.738  0.1524 -0.2345  0.0248
 1766ntf    sn211359   3.499   3.159   5.730  0.3430 -0.0556 -0.1419
 1766ntf    cn111360   3.405   3.121   5.881  0.1554 -0.5526 -0.3796
 1766ntf    fn411361   3.446   2.883   5.537  0.1213 -0.2031  0.2709
 1766ntf    fn411362   3.592   2.766   5.480 -0.6861 -0.0566  0.0276
 1766ntf    fn411363   3.532   2.763   5.687 -1.1719 -0.0274  0.1539
 1766ntf    on511364   3.797   2.896   5.675 -0.0496 -0.5015 -0.0391
 1766ntf    on511365   3.708   3.036   5.498 -0.0513  0.3426  0.2060
 1766ntf    on511366   3.405   3.143   5.622  0.1475 -0.7985  0.1357
 1766ntf    on511367   3.536   3.297   5.753  0.4734 -0.1320  0.1100
 1766ntf    fn411368   3.281   3.166   5.882  0.3379 -0.0412 -0.2831
 1766ntf    fn411369   3.386   2.993   5.904 -0.0502 -0.5341 -0.4403
 1766ntf    fn411370   3.458   3.173   5.991 -0.5566 -0.4689 -0.0728
 1767ntf    cn111371   4.263   2.462   0.420 -0.0563 -0.2531  0.0686
 1767ntf    sn211372   4.217   2.558   0.568 -0.3682 -0.2258 -0.0450
 1767ntf    nn311373   4.121   2.463   0.647  0.0266 -0.7444 -0.1803
 1767ntf    sn211374   4.077   2.463   0.798 -0.0560 -0.2337 -0.1998
 1767ntf    cn111375   4.190   2.339   0.870 -0.0720 -0.0366  0.1643
 1767ntf    fn411376   4.298   2.338   0.452  0.5159 -0.1116 -0.0125
 1767ntf    fn411377   4.162   2.444   0.336  0.0033  0.0963 -0.0808
 1767ntf    fn411378   4.362   2.516   0.352  0.1510 -0.5686  0.1188
 1767ntf    on511379   4.348   2.580   0.624 -0.3719  0.0025 -0.1259
 1767ntf    on511380   4.147   2.674   0.517  0.0149 -0.0444 -0.1605
 1767ntf    on511381   3.942   2.418   0.822 -0.0115 -0.3558 -0.1742
 1767ntf    on511382   4.117   2.583   0.868  0.4663 -0.3191 -0.3422
 1767ntf    fn411383   4.316   2.366   0.840  0.0184 -0.3183  0.2920
 1767ntf    fn411384   4.186   2.325   1.001 -0.2838 -0.2135  0.1386
 1767ntf    fn411385   4.169   2.221   0.816 -0.3312  0.1860 -0.2253
 1768ntf    cn111386   4.125   4.783   3.088  0.2141 -0.3072  0.4504
 1768ntf    sn211387   4.199   4.618   3.069  0.2192 -0.2727  0.1655
 1768ntf    nn311388   4.186   4.601   2.913 -0.8270  0.0925  0.2039
 1768ntf    sn211389   4.294   4.599   2.800 -0.4591  0.1487  0.5504
 1768ntf    cn111390   4.330   4.421   2.782 -0.1942  0.2194  0.3662
 1768ntf    fn411391   4.184   4.883   3.024  0.0850 -0.3739  0.2263
 1768ntf    fn411392   4.000   4.785   3.045  0.0822 -0.7518  0.8065
 1768ntf    fn411393   4.112   4.819   3.214 -0.4156  0.3630  0.2044
 1768ntf    on511394   4.333   4.637   3.118  0.3137 -0.5875  0.0332
 1768ntf    on511395   4.112   4.528   3.141  0.1640 -0.2195  0.1653
 1768ntf    on511396   4.423   4.653   2.833 -0.2425 -0.0430  0.0288
 1768ntf    on511397   4.245   4.630   2.668  0.4576 -0.0287  0.1616
 1768ntf    fn411398   4.352   4.364   2.900  0.0365 -0.2549  0.0924
 1768ntf    fn411399   4.232   4.359   2.719 -0.3857  0.1089  0.7715
 1768ntf    fn411400   4.441   4.401   2.713 -0.3091 -0.1963  0.3009
 1769ntf    cn111401   1.056   2.867   1.592 -0.1194 -0.0656 -0.2721
 1769ntf    sn211402   1.003   3.037   1.627  0.2172 -0.0225  0.0418
 1769ntf    nn311403   0.945   3.084   1.488 -0.2510 -0.1331  0.1956
 1769ntf    sn211404   0.823   3.178   1.457  0.0602  0.1010 -0.3365
 1769ntf    cn111405   0.722   3.053   1.372 -0.0123 -0.0195 -0.0771
 1769ntf    fn411406   0.952   2.788   1.570 -0.1105 -0.0276 -0.4458
 1769ntf    fn411407   1.143   2.845   1.496 -0.3611  0.3235 -0.5822
 1769ntf    fn411408   1.114   2.819   1.701  0.2961  0.4687 -0.2553
 1769ntf    on511409   0.893   3.017   1.719 -0.1645  0.4123 -0.3126
 1769ntf    on511410   1.121   3.110   1.666 -0.1050  0.4980  0.0627
 1769ntf    on511411   0.852   3.277   1.356 -0.2386  0.3609 -0.1674
 1769ntf    on511412   0.741   3.218   1.568 -0.2933  0.4070 -0.7068
 1769ntf    fn411413   0.656   2.979   1.459  0.2644 -0.1092  0.0573
 1769ntf    fn411414   0.638   3.105   1.283  0.2204 -0.0074 -0.2920
 1769ntf    fn411415   0.788   2.971   1.292  0.0926 -0.3917  0.3876
 1770ntf    cn111416   6.878   0.898   6.804  0.0353  0.0543  0.1543
 1770ntf    sn211417   7.052   0.857   6.775 -0.0979 -0.0495 -0.5062
 1770ntf    nn311418   7.126   0.995   6.772  0.1226 -0.1673 -0.5133
 1770ntf    sn211419   7.165   1.074   6.642 -0.0683 -0.0178 -0.4804
 1770ntf    cn111420   7.331   1.001   6.623 -0.1234 -0.4461  0.6465
 1770ntf    fn411421   6.795   0.795   6.800 -0.1960  0.2116  0.7917
 1770ntf    fn411422   6.862   0.940   6.928 -0.2254  0.2607  0.0521
 1770ntf    fn411423   6.825   0.988   6.723  0.1348 -0.0931 -0.0748
 1770ntf    on511424   7.089   0.777   6.889  0.1008  0.2381 -0.3699
 1770ntf    on511425   7.042   0.781   6.653  0.1519 -0.8091 -0.0611
 1770ntf    on511426   7.194   1.213   6.665 -0.2482 -0.1028  0.2651
 1770ntf    on511427   7.097   1.039   6.520 -0.1922 -0.2846 -0.3348
 1770ntf    fn411428   7.396   1.039   6.515 -0.4169  0.1102  0.6609
 1770ntf    fn411429   7.406   1.040   6.724 -0.0196 -0.9708  0.7752
 1770ntf    fn411430   7.339   0.869   6.614  0.0268 -0.4100  0.2256
 1771ntf    cn111431   1.715   4.195   0.256 -0.0843  0.1502  0.0540
 1771ntf    sn211432   1.798   4.203   0.417  0.1081 -0.0621 -0.0338
 1771ntf    nn311433   1.947   4.185   0.374  0.1841  1.1067 -0.2973
 1771ntf    sn211434   2.073   4.247   0.444  0.4352  0.3020 -0.0244
 1771ntf    cn111435   2.067   4.139   0.591  0.0052 -0.1572 -0.3767
 1771ntf    fn411436   1.768   4.286   0.177 -0.2006 -0.0878 -0.3035
 1771ntf    fn411437   1.727   4.076   0.199  0.7328  0.0364  0.4639
 1771ntf    fn411438   1.586   4.224   0.261 -0.2140 -0.3568 -0.2551
 1771ntf    on511439   1.756   4.333   0.464 -0.6480 -0.0909 -0.6143
 1771ntf    on511440   1.740   4.088   0.481 -0.1136  0.1421  0.1350
 1771ntf    on511441   2.059   4.380   0.498 -0.3586  0.1092  0.2609
 1771ntf    on511442   2.194   4.209   0.376  0.3056 -0.0134 -0.0811
 1771ntf    fn411443   2.193   4.123   0.629  0.0138 -0.1161 -0.3874
 1771ntf    fn411444   2.001   4.178   0.699  0.3519  0.2129 -0.2974
 1771ntf    fn411445   2.020   4.017   0.571 -0.2982 -0.0356 -0.4059
 1772ntf    cn111446   3.794   2.845   2.646 -0.0326 -0.5289 -0.6215
 1772ntf    sn211447   3.666   2.974   2.655  0.3480 -0.1725 -0.2677
 1772ntf    nn311448   3.541   2.880   2.668  0.4495 -0.2345  0.2883
 1772ntf    sn211449   3.468   2.804   2.551  0.0131  0.0749  0.3540
 1772ntf    cn111450   3.322   2.912   2.552  0.0874  0.1763  0.2490
 1772ntf    fn411451   3.913   2.898   2.628 -0.1163 -0.2402 -0.3403
 1772ntf    fn411452   3.812   2.776   2.758  0.2703 -0.3930 -0.5872
 1772ntf    fn411453   3.771   2.752   2.555 -0.5023 -0.9074 -0.1260
 1772ntf    on511454   3.690   3.049   2.776  0.7005  0.5845 -0.8032
 1772ntf    on511455   3.684   3.045   2.531  0.3651 -0.5860 -0.5055
 1772ntf    on511456   3.407   2.677   2.585 -0.3356  0.0767 -0.2548
 1772ntf    on511457   3.531   2.819   2.422  0.0981  0.3718  0.4297
 1772ntf    fn411458   3.347   3.042   2.543 -0.0344  0.2117  0.4183
 1772ntf    fn411459   3.243   2.890   2.449  0.8059 -0.4584 -0.1719
 1772ntf    fn411460   3.248   2.897   2.661 -0.0155 -0.0691  0.1455
 1773ntf    cn111461   0.807   4.552   5.926  0.3477  0.2560 -0.3099
 1773ntf    sn211462   0.693   4.693   5.914  0.2161  0.1574 -0.2178
 1773ntf    nn311463   0.558   4.613   5.899 -0.2431  0.9516 -0.3616
 1773ntf    sn211464   0.448   4.614   5.787  0.0628  0.2939 -0.6758
 1773ntf    cn111465   0.329   4.715   5.881 -0.1818 -0.2886 -0.3568
 1773ntf    fn411466   0.773   4.461   5.835  0.3974  0.0379 -0.1092
 1773ntf    fn411467   0.928   4.595   5.894  0.4266  0.4617  0.2558
 1773ntf    fn411468   0.812   4.483   6.039 -0.2082  0.0328 -0.4175
 1773ntf    on511469   0.707   4.759   6.042  0.5008 -0.0622 -0.1339
 1773ntf    on511470   0.750   4.751   5.796  0.0387  0.1855 -0.2892
 1773ntf    on511471   0.390   4.482   5.790  0.3226  0.1934  0.5151
 1773ntf    on511472   0.462   4.687   5.663  0.2024  0.6021 -0.4810
 1773ntf    fn411473   0.276   4.648   5.981  0.0388  0.4915  0.2935
 1773ntf    fn411474   0.384   4.830   5.918  0.3054 -0.5306 -0.3188
 1773ntf    fn411475   0.226   4.755   5.810 -0.4330 -0.1561  0.0808
 1774ntf    cn111476   6.367   0.917   3.032 -0.1127  0.0340  0.0063
 1774ntf    sn211477   6.201   0.846   3.052 -0.1198  0.0149 -0.1159
 1774ntf    nn311478   6.147   0.911   3.184  0.4352  0.0670  0.0869
 1774ntf    sn211479   6.125   0.839   3.322  0.6048 -0.2571 -0.0535
 1774ntf    cn111480   6.231   0.939   3.432  0.0350  0.0041  0.2604
 1774ntf    fn411481   6.368   1.049   3.022  0.6956  0.0579  0.2936
 1774ntf    fn411482   6.450   0.892   3.132  0.4092  0.2707 -0.3627
 1774ntf    fn411483   6.423   0.873   2.920  0.8683  0.5540  0.2766
 1774ntf    on511484   6.142   0.898   2.931 -0.0411 -0.5026 -0.3813
 1774ntf    on511485   6.221   0.703   3.057  0.1022  0.0513  0.0673
 1774ntf    on511486   6.176   0.707   3.347 -0.1042 -0.4381  0.4553
 1774ntf    on511487   5.993   0.870   3.371  0.6416  0.4215 -0.3700
 1774ntf    fn411488   6.222   1.069   3.409 -0.2061 -0.0477  0.0531
 1774ntf    fn411489   6.205   0.917   3.560  0.0292 -0.4409  0.1849
 1774ntf    fn411490   6.356   0.900   3.416 -0.1341 -0.4653  0.0528
 1775ntf    cn111491   0.695   3.015   3.152  0.2099 -0.0597  0.3114
 1775ntf    sn211492   0.853   3.018   3.241  0.1213  0.1297  0.4623
 1775ntf    nn311493   0.937   2.900   3.180  0.0811  0.2342  0.2049
 1775ntf    sn211494   1.067   2.899   3.091 -0.0992  0.1354 -0.0575
 1775ntf    cn111495   1.180   2.796   3.190  0.0967  0.3745 -0.0330
 1775ntf    fn411496   0.698   3.072   3.032 -0.5886 -0.4658  0.0884
 1775ntf    fn411497   0.641   2.894   3.140 -0.6458  0.3618 -0.2440
 1775ntf    fn411498   0.598   3.078   3.215 -0.0258 -0.0497 -0.0596
 1775ntf    on511499   0.902   3.148   3.203 -0.5334  0.3521  0.3784
 1775ntf    on511500   0.815   2.999   3.379  0.2079  0.5339  0.5440
 1775ntf    on511501   1.139   3.023   3.076  0.0558 -0.0014 -0.4699
 1775ntf    on511502   1.040   2.822   2.972  0.2451 -0.2237  0.0966
 1775ntf    fn411503   1.295   2.777   3.127  0.2046  0.0380  0.2622
 1775ntf    fn411504   1.214   2.852   3.305  0.6241  0.0870 -0.0461
 1775ntf    fn411505   1.132   2.674   3.204 -0.0371  0.4932  0.5695
 1776ntf    cn111506   1.451   2.379   4.924  0.0321 -0.3621  0.1622
 1776ntf    sn211507   1.388   2.429   5.087  0.0146  0.2447 -0.0295
 1776ntf    nn311508   1.242   2.372   5.070  0.1083 -0.2669  0.8164
 1776ntf    sn211509   1.114   2.463   5.069  0.2733 -0.0331  0.1958
 1776ntf    cn111510   0.990   2.367   5.162  0.0551  0.1785  0.1253
 1776ntf    fn411511   1.425   2.474   4.836 -0.1735 -0.0295  0.5786
 1776ntf    fn411512   1.583   2.369   4.925  0.0425 -0.2668 -0.2276
 1776ntf    fn411513   1.401   2.262   4.889 -0.1032 -0.2474 -0.0266
 1776ntf    on511514   1.466   2.349   5.177 -0.1878 -0.1454 -0.1966
 1776ntf    on511515   1.419   2.569   5.093  0.1087  0.2169  0.1143
 1776ntf    on511516   1.046   2.480   4.943  0.0097  0.7255  0.4302
 1776ntf    on511517   1.114   2.588   5.141  0.2302  0.2253 -0.2489
 1776ntf    fn411518   0.988   2.237   5.137  0.1751  0.1083  0.4829
 1776ntf    fn411519   1.005   2.388   5.291  0.1277 -0.0757  0.1583
 1776ntf    fn411520   0.870   2.408   5.125  0.1385 -0.1513 -0.5308
 1777ntf    cn111521   4.771   4.700   6.737  0.0990 -0.5470  0.0821
 1777ntf    sn211522   4.663   4.788   6.620  0.2183 -0.1861  0.2427
 1777ntf    nn311523   4.765   4.884   6.550  0.0596  0.0062  0.2739
 1777ntf    sn211524   4.853   4.848   6.425 -0.0964 -0.2250  0.2292
 1777ntf    cn111525   5.007   4.941   6.453 -0.1769  0.0348 -0.1807
 1777ntf    fn411526   4.783   4.758   6.855 -0.2958 -0.7183  0.2089
 1777ntf    fn411527   4.745   4.571   6.745 -0.6789 -0.3862  0.2741
 1777ntf    fn411528   4.896   4.705   6.695 -0.1379  0.0604 -0.5772
 1777ntf    on511529   4.608   4.684   6.537 -0.0580  0.2423 -0.1190
 1777ntf    on511530   4.568   4.850   6.709 -0.0679 -0.3208  0.0341
 1777ntf    on511531   4.798   4.911   6.308  0.5633 -0.7598 -0.3729
 1777ntf    on511532   4.906   4.714   6.418  0.0697 -0.1498  0.0218
 1777ntf    fn411533   4.980   5.068   6.427 -1.0209 -0.1280 -0.1265
 1777ntf    fn411534   5.067   4.925   6.570  0.1949 -0.0253 -0.3800
 1777ntf    fn411535   5.100   4.901   6.369 -0.0915  0.0950 -0.1162
 1778ntf    cn111536   4.278   1.990   3.677 -0.6335  0.3088 -0.0822
 1778ntf    sn211537   4.318   2.002   3.500 -0.0874 -0.0540  0.0123
 1778ntf    nn311538   4.236   2.128   3.455 -0.0602  0.0373  0.2209
 1778ntf    sn211539   4.279   2.279   3.457  0.1151 -0.0078 -0.2161
 1778ntf    cn111540   4.347   2.291   3.289  0.4603  0.1540 -0.0656
 1778ntf    fn411541   4.347   1.898   3.742 -0.2838  0.9003  0.3846
 1778ntf    fn411542   4.290   2.103   3.744 -0.6037  0.1277  0.2180
 1778ntf    fn411543   4.151   1.957   3.694 -0.6489  0.1137 -0.5421
 1778ntf    on511544   4.462   2.012   3.496 -0.1122 -0.0487 -1.0682
 1778ntf    on511545   4.246   1.890   3.445 -0.0725 -0.3456  0.5845
 1778ntf    on511546   4.388   2.303   3.549 -0.6513  0.6430  0.5364
 1778ntf    on511547   4.169   2.372   3.457  0.1024 -0.0236 -0.1394
 1778ntf    fn411548   4.415   2.404   3.269  0.7465  0.1151  0.6644
 1778ntf    fn411549   4.430   2.191   3.264  0.4707  0.1799 -0.1380
 1778ntf    fn411550   4.252   2.279   3.198  0.1433  0.3209  0.2435
 1779ntf    cn111551   4.765   1.066   3.137 -0.3962  0.1778  0.2632
 1779ntf    sn211552   4.683   1.176   3.019  0.0538  0.1394 -0.0890
 1779ntf    nn311553   4.739   1.315   3.065  0.2133 -0.0319  0.2310
 1779ntf    sn211554   4.691   1.462   3.034 -0.1651 -0.2395 -0.1783
 1779ntf    cn111555   4.644   1.461   2.859 -0.1034  0.6522 -0.2051
 1779ntf    fn411556   4.718   1.077   3.261  0.3153 -0.5039  0.6029
 1779ntf    fn411557   4.768   0.938   3.104  0.0835  0.2050  0.1982
 1779ntf    fn411558   4.890   1.105   3.155 -0.4227  0.2269  0.3389
 1779ntf    on511559   4.722   1.138   2.885 -0.4781 -0.4371 -0.0862
 1779ntf    on511560   4.544   1.159   3.053 -0.1226 -0.3933 -1.0304
 1779ntf    on511561   4.797   1.559   3.037 -0.0892 -0.3315  0.4718
 1779ntf    on511562   4.570   1.501   3.102  0.0470 -0.1552  0.1561
 1779ntf    fn411563   4.579   1.571   2.825 -0.3318  0.6864  0.3349
 1779ntf    fn411564   4.747   1.444   2.777 -0.7955 -0.3654 -0.8964
 1779ntf    fn411565   4.559   1.362   2.836  0.6674 -0.1655  0.3628
 1780ntf    cn111566   1.403   3.322   2.249 -0.3404 -0.0452 -0.1207
 1780ntf    sn211567   1.571   3.348   2.185 -0.2727  0.4789  0.2657
 1780ntf    nn311568   1.643   3.374   2.322 -0.1641  0.0500  0.2940
 1780ntf    sn211569   1.651   3.507   2.405  0.2754  0.0343  0.2781
 1780ntf    cn111570   1.655   3.427   2.568  0.0458  0.0801  0.3062
 1780ntf    fn411571   1.321   3.286   2.151 -0.0082 -0.5155 -0.2328
 1780ntf    fn411572   1.412   3.217   2.329  0.5174  0.0050 -0.1416
 1780ntf    fn411573   1.354   3.425   2.316 -0.8806 -0.0600 -0.4841
 1780ntf    on511574   1.602   3.222   2.121  0.1344  0.7094  0.0082
 1780ntf    on511575   1.576   3.463   2.100  0.6406  0.5599  0.4205
 1780ntf    on511576   1.528   3.583   2.403  0.0154 -0.3906  0.1366
 1780ntf    on511577   1.779   3.575   2.409 -0.1188  0.8085  0.0035
 1780ntf    fn411578   1.715   3.309   2.575  0.2765  0.1724 -0.0871
 1780ntf    fn411579   1.703   3.499   2.668  0.3303 -0.2541  0.4129
 1780ntf    fn411580   1.530   3.403   2.604 -0.0360  0.3714  0.2153
 1781ntf    cn111581   5.556   2.619   6.530 -0.5670  0.2450 -0.3353
 1781ntf    sn211582   5.617   2.641   6.360 -0.0052  0.0166 -0.1658
 1781ntf    nn311583   5.771   2.618   6.376 -0.0046 -0.2087 -0.4783
 1781ntf    sn211584   5.869   2.495   6.368  0.3620  0.0315  0.2356
 1781ntf    cn111585   5.955   2.537   6.213 -0.1835  0.0831 -0.0546
 1781ntf    fn411586   5.424   2.605   6.527 -0.5257 -0.2532  0.1116
 1781ntf    fn411587   5.613   2.509   6.577 -0.6030  0.2411 -0.3005
 1781ntf    fn411588   5.599   2.708   6.617 -0.2953 -0.1742 -0.0386
 1781ntf    on511589   5.545   2.544   6.280  0.3936 -0.3232 -0.1126
 1781ntf    on511590   5.594   2.780   6.332  0.0965 -0.0249 -0.4697
 1781ntf    on511591   5.796   2.373   6.347  0.1187  0.1819  0.2008
 1781ntf    on511592   5.979   2.491   6.461  0.4235 -0.0836  0.1570
 1781ntf    fn411593   6.032   2.643   6.226 -0.6832  0.4696 -0.2301
 1781ntf    fn411594   6.039   2.441   6.178 -0.1334 -0.1985  0.8096
 1781ntf    fn411595   5.868   2.561   6.116 -0.0530 -0.5030 -0.3203
 1782ntf    cn111596   5.907   3.243   2.501 -0.0430  0.0858 -0.1176
 1782ntf    sn211597   6.024   3.308   2.624 -0.0388 -0.1636  0.0126
 1782ntf    nn311598   5.988   3.460   2.645 -0.1073 -0.1592 -0.1362
 1782ntf    sn211599   6.029   3.574   2.545 -0.2797  0.0556  0.0368
 1782ntf    cn111600   6.156   3.666   2.636 -0.1546  0.1502 -0.2324
 1782ntf    fn411601   5.915   3.302   2.383  0.4203  0.1849 -0.0391
 1782ntf    fn411602   5.937   3.115   2.483 -0.2130  0.0475 -0.1283
 1782ntf    fn411603   5.779   3.235   2.534 -0.0532  0.6678 -0.0171
 1782ntf    on511604   6.000   3.230   2.743  0.5385  0.6591  0.6802
 1782ntf    on511605   6.151   3.278   2.562 -0.0019 -0.1145  0.0644
 1782ntf    on511606   5.927   3.675   2.541  0.0436  0.3708 -0.3631
 1782ntf    on511607   6.091   3.541   2.419  0.0118  0.5577  0.0461
 1782ntf    fn411608   6.172   3.791   2.595 -0.4964  0.3644  0.2646
 1782ntf    fn411609   6.130   3.685   2.764  0.0971 -0.0093 -0.1569
 1782ntf    fn411610   6.271   3.602   2.630 -0.4386 -0.4127  0.2068
 1783ntf    cn111611   3.624   5.653   4.725  0.1194  0.0572 -0.0268
 1783ntf    sn211612   3.603   5.489   4.648 -0.2988  0.1197 -0.0494
 1783ntf    nn311613   3.667   5.405   4.765 -0.3903  0.3778  0.1891
 1783ntf    sn211614   3.602   5.331   4.886 -0.2606  0.0860  0.0824
 1783ntf    cn111615   3.500   5.205   4.802  0.1861 -0.3644  0.2097
 1783ntf    fn411616   3.748   5.698   4.711  0.0157  0.4459  0.3018
 1783ntf    fn411617   3.538   5.743   4.681 -0.1181 -0.2875 -0.2688
 1783ntf    fn411618   3.612   5.645   4.856  0.3954  0.1525  0.0059
 1783ntf    on511619   3.461   5.470   4.636 -0.3253  0.2197  0.0930
 1783ntf    on511620   3.689   5.490   4.532 -0.3285 -0.6702 -0.0844
 1783ntf    on511621   3.510   5.403   4.971 -0.4002 -0.1122  0.1003
 1783ntf    on511622   3.703   5.252   4.952  0.1314  0.4948 -0.0222
 1783ntf    fn411623   3.509   5.095   4.874 -0.2267 -0.2963  0.3676
 1783ntf    fn411624   3.375   5.239   4.775  0.2391  0.2021  0.6447
 1783ntf    fn411625   3.550   5.169   4.685  0.3422  0.3517  0.0490
 1784ntf    cn111626   6.262   5.659   4.745 -0.2392  0.6315  0.1764
 1784ntf    sn211627   6.310   5.616   4.575 -0.3926  0.0650  0.2767
 1784ntf    nn311628   6.384   5.479   4.599  0.1396  0.1405 -0.8603
 1784ntf    sn211629   6.334   5.331   4.596  0.0276  0.1721 -0.5269
 1784ntf    cn111630   6.382   5.276   4.763 -0.1047  0.2643 -0.4579
 1784ntf    fn411631   6.142   5.616   4.777 -0.0825 -0.4061 -0.5694
 1784ntf    fn411632   6.346   5.616   4.838 -0.2906  0.1780  0.0161
 1784ntf    fn411633   6.248   5.789   4.764 -0.2918  0.5118  0.9735
 1784ntf    on511634   6.181   5.613   4.509 -0.0891  0.3011 -0.3414
 1784ntf    on511635   6.396   5.729   4.553 -0.2444  0.0775  0.9034
 1784ntf    on511636   6.414   5.247   4.510  0.4729  0.4940 -0.4255
 1784ntf    on511637   6.190   5.320   4.596  0.0073  0.4255 -0.2137
 1784ntf    fn411638   6.359   5.365   4.858  0.0547 -0.3454  0.1634
 1784ntf    fn411639   6.304   5.176   4.801  0.1488  0.2491  0.0301
 1784ntf    fn411640   6.507   5.236   4.776 -0.0214  0.6066 -0.2009
 1785ntf    cn111641   3.182   6.490   3.790  0.0017  0.2130 -0.0494
 1785ntf    sn211642   3.220   6.599   3.931  0.0170  0.3329 -0.1459
 1785ntf    nn311643   3.076   6.618   3.989  0.0431  0.2354 -0.0487
 1785ntf    sn211644   2.979   6.740   3.971 -0.0061  0.1603 -0.2930
 1785ntf    cn111645   3.037   6.861   4.094 -0.4789 -0.2905  0.3817
 1785ntf    fn411646   3.176   6.553   3.674  0.4092 -0.3147 -0.3581
 1785ntf    fn411647   3.277   6.399   3.778 -0.2596 -0.0841  0.1066
 1785ntf    fn411648   3.070   6.421   3.806  0.3557 -0.3480  0.0219
 1785ntf    on511649   3.293   6.513   4.021  0.4775  0.1033 -0.7334
 1785ntf    on511650   3.289   6.709   3.868 -0.3784  0.4979 -0.2924
 1785ntf    on511651   2.843   6.709   4.008  0.0813  0.0021 -0.0992
 1785ntf    on511652   2.987   6.807   3.844  0.0824  0.4044 -0.1591
 1785ntf    fn411653   2.999   6.986   4.072 -0.3225 -0.2206  0.5108
 1785ntf    fn411654   2.990   6.839   4.215  0.0800  0.3067  0.7109
 1785ntf    fn411655   3.169   6.856   4.106 -0.5035 -0.3054  0.6344
 1786ntf    cn111656   5.659   1.592   1.194 -0.2077  0.2289 -0.2568
 1786ntf    sn211657   5.511   1.531   1.281  0.1864 -0.2234  0.0968
 1786ntf    nn311658   5.415   1.645   1.234 -0.2684 -0.2920  0.8464
 1786ntf    sn211659   5.352   1.767   1.312 -0.2591  0.1893  0.1099
 1786ntf    cn111660   5.342   1.883   1.172 -0.2483  0.2416  0.1523
 1786ntf    fn411661   5.777   1.559   1.243 -0.3616 -0.3735 -0.2872
 1786ntf    fn411662   5.652   1.561   1.066  0.3989  0.0167 -0.2423
 1786ntf    fn411663   5.659   1.724   1.193 -0.7101  0.2393  0.2726
 1786ntf    on511664   5.492   1.403   1.217  0.5604 -0.1054 -0.2573
 1786ntf    on511665   5.546   1.525   1.421  0.1653  0.0734  0.1155
 1786ntf    on511666   5.438   1.824   1.413 -0.0529 -0.0082  0.0476
 1786ntf    on511667   5.213   1.747   1.345 -0.0858  0.1115  0.8095
 1786ntf    fn411668   5.301   1.815   1.067  0.1598 -0.1471  0.2387
 1786ntf    fn411669   5.245   1.971   1.186 -0.4743 -0.0007  0.1250
 1786ntf    fn411670   5.454   1.934   1.123  0.2245 -0.3217  0.6177
 1787ntf    cn111671   5.712   0.765   1.426  0.0146  0.3692  0.3155
 1787ntf    sn211672   5.639   0.704   1.581  0.0088  0.0061  0.1697
 1787ntf    nn311673   5.767   0.666   1.663  0.3757 -0.2023 -0.4916
 1787ntf    sn211674   5.785   0.666   1.819 -0.0253 -0.1126 -0.4442
 1787ntf    cn111675   5.863   0.827   1.852 -0.1380 -0.1652  0.0860
 1787ntf    fn411676   5.622   0.792   1.333 -0.6148 -0.2935  0.7235
 1787ntf    fn411677   5.773   0.881   1.445  0.3689  0.2059  0.1829
 1787ntf    fn411678   5.795   0.672   1.382 -0.0080  0.0161  1.0095
 1787ntf    on511679   5.565   0.816   1.634 -0.7295 -0.3654 -0.0652
 1787ntf    on511680   5.569   0.586   1.538 -0.1191 -0.0058  0.4066
 1787ntf    on511681   5.875   0.562   1.863 -0.7398 -0.6841 -0.3203
 1787ntf    on511682   5.671   0.688   1.904 -0.2611 -0.8224 -0.5698
 1787ntf    fn411683   5.814   0.914   1.766  0.3280 -0.0923 -0.1085
 1787ntf    fn411684   5.835   0.881   1.970 -0.1841  0.2341 -0.1078
 1787ntf    fn411685   5.994   0.815   1.843 -0.0665  0.4714  0.2217
 1788ntf    cn111686   0.213   2.187   0.707  0.1522 -0.2812 -0.0139
 1788ntf    sn211687   0.128   2.306   0.815 -0.0628 -0.6155  0.1855
 1788ntf    nn311688   0.207   2.438   0.785  0.2947 -0.7361  0.5938
 1788ntf    sn211689   0.261   2.558   0.870 -0.4612  0.0284  0.0105
 1788ntf    cn111690   0.207   2.697   0.765  0.2156  0.0612 -0.3004
 1788ntf    fn411691   0.203   2.218   0.579  0.5541  0.1932  0.0665
 1788ntf    fn411692   0.342   2.197   0.733  0.0223  0.6021  0.3447
 1788ntf    fn411693   0.176   2.064   0.736  0.1011 -0.1448  0.5033
 1788ntf    on511694  -0.011   2.302   0.775  0.1001  0.3550 -0.4990
 1788ntf    on511695   0.145   2.257   0.949 -0.6609 -0.4777  0.3148
 1788ntf    on511696   0.405   2.563   0.867 -0.4739 -0.1410 -1.5440
 1788ntf    on511697   0.184   2.582   0.989 -0.1559 -0.2795  0.2729
 1788ntf    fn411698   0.203   2.807   0.838  0.1445  0.1850 -0.4905
 1788ntf    fn411699   0.289   2.719   0.664 -0.4514  0.3538 -0.7792
 1788ntf    fn411700   0.090   2.673   0.708  0.0322  0.1533  0.0343
 1789ntf    cn111701   2.538   0.737   0.398  0.1080 -0.2784  0.0219
 1789ntf    sn211702   2.433   0.593   0.436  0.0971 -0.2567  0.0741
 1789ntf    nn311703   2.352   0.647   0.559  0.1435 -0.1425  0.0550
 1789ntf    sn211704   2.416   0.726   0.679  0.1889 -0.2782  0.1206
 1789ntf    cn111705   2.278   0.708   0.796 -0.0321  0.2365 -0.0610
 1789ntf    fn411706   2.611   0.708   0.291  0.1857  0.7487 -0.2138
 1789ntf    fn411707   2.461   0.845   0.388  0.4329 -0.0413  0.0825
 1789ntf    fn411708   2.624   0.767   0.493 -0.0426 -0.2795  0.1597
 1789ntf    on511709   2.351   0.585   0.318 -0.2780  0.5264  0.2750
 1789ntf    on511710   2.526   0.486   0.462  0.4033 -0.1035 -0.3756
 1789ntf    on511711   2.421   0.868   0.655 -0.7264 -0.3390 -0.4624
 1789ntf    on511712   2.528   0.661   0.744  0.0614 -0.3111  0.3078
 1789ntf    fn411713   2.167   0.768   0.756 -0.4549 -0.3181  0.2774
 1789ntf    fn411714   2.252   0.579   0.807  0.5050  0.1357  0.0741
 1789ntf    fn411715   2.309   0.749   0.918  0.9103  0.4281 -0.3491
 1790ntf    cn111716   6.563   4.324   4.463 -0.1719 -0.3233  0.0132
 1790ntf    sn211717   6.469   4.449   4.557  0.1049 -0.5634  0.6116
 1790ntf    nn311718   6.590   4.516   4.631 -0.2157 -0.0647  0.6850
 1790ntf    sn211719   6.624   4.670   4.635 -0.0396 -0.0796  0.0413
 1790ntf    cn111720   6.733   4.689   4.492  0.3730 -0.2074  0.3369
 1790ntf    fn411721   6.494   4.223   4.414  0.0241 -0.4409 -0.0233
 1790ntf    fn411722   6.631   4.373   4.360 -0.5330 -0.0553 -0.0992
 1790ntf    fn411723   6.658   4.267   4.535  0.0408  0.1431  0.1108
 1790ntf    on511724   6.408   4.521   4.449  0.7048 -1.2269 -0.1892
 1790ntf    on511725   6.380   4.376   4.644 -0.7698 -0.0153  0.1864
 1790ntf    on511726   6.717   4.696   4.742 -0.1265  0.0266  0.0909
 1790ntf    on511727   6.520   4.764   4.601  0.0006 -0.0268  0.0630
 1790ntf    fn411728   6.693   4.607   4.396  0.4344 -0.0996  0.2178
 1790ntf    fn411729   6.718   4.812   4.444  0.1213 -0.3549  0.0366
 1790ntf    fn411730   6.863   4.669   4.507  0.5578  0.5927 -0.1330
 1791ntf    cn111731   5.900   5.953   3.307 -0.4807  0.0713  0.4442
 1791ntf    sn211732   5.936   6.130   3.330  0.3347 -0.0455  0.1095
 1791ntf    nn311733   5.793   6.169   3.381 -0.0667 -0.0859 -0.9779
 1791ntf    sn211734   5.649   6.178   3.319 -0.3148 -0.3750 -0.4477
 1791ntf    cn111735   5.601   6.353   3.332  0.2275 -0.2369 -0.3232
 1791ntf    fn411736   5.899   5.874   3.414  0.2167 -0.3445  0.1522
 1791ntf    fn411737   5.787   5.923   3.245 -0.2909 -0.0244  0.1428
 1791ntf    fn411738   5.996   5.906   3.229 -0.5343 -0.2841  0.5892
 1791ntf    on511739   6.035   6.134   3.436 -0.0252  0.0066  0.4470
 1791ntf    on511740   5.971   6.182   3.201  0.0390  0.3121  0.1737
 1791ntf    on511741   5.558   6.116   3.412 -0.0723 -0.1149 -0.0378
 1791ntf    on511742   5.641   6.142   3.179 -1.1028  0.5354 -0.6478
 1791ntf    fn411743   5.667   6.430   3.248 -0.3824 -0.1020 -0.6799
 1791ntf    fn411744   5.472   6.370   3.311  0.2047  0.3635  0.2609
 1791ntf    fn411745   5.614   6.395   3.457 -0.4069 -0.5446 -0.1497
 1792ntf    cn111746   1.555   0.572   6.015  0.1531  0.0414  0.0023
 1792ntf    sn211747   1.653   0.426   6.059  0.0933 -0.0046 -0.0178
 1792ntf    nn311748   1.773   0.454   5.962 -0.0945 -0.0545 -0.2680
 1792ntf    sn211749   1.904   0.368   5.951 -0.1515 -0.2146  0.2660
 1792ntf    cn111750   1.921   0.367   5.770 -0.5211  0.1003  0.2273
 1792ntf    fn411751   1.616   0.685   6.049  0.1326  0.0067  0.1541
 1792ntf    fn411752   1.534   0.566   5.884  0.3486 -0.3892 -0.0083
 1792ntf    fn411753   1.432   0.578   6.064  0.0353 -0.3283 -0.2446
 1792ntf    on511754   1.689   0.454   6.195 -0.0705  0.3097 -0.0386
 1792ntf    on511755   1.565   0.313   6.036 -0.2895  0.3064 -0.0837
 1792ntf    on511756   1.895   0.229   5.989 -0.1850 -0.3091 -0.0767
 1792ntf    on511757   2.013   0.448   6.001 -0.3255  0.0967  0.1548
 1792ntf    fn411758   1.962   0.482   5.717 -0.4891  0.3371  0.7537
 1792ntf    fn411759   1.999   0.268   5.730 -0.4084  0.4035 -0.3244
 1792ntf    fn411760   1.805   0.345   5.712 -0.3824 -0.0365 -0.0006
 1793ntf    cn111761   3.825   5.995   4.552 -0.1416  0.3675 -0.1407
 1793ntf    sn211762   3.736   6.144   4.608 -0.0573  0.3525  0.0350
 1793ntf    nn311763   3.639   6.180   4.490 -0.1710  0.6903  0.2319
 1793ntf    sn211764   3.668   6.273   4.367  0.1764  0.1419 -0.1036
 1793ntf    cn111765   3.575   6.183   4.239 -0.0516  0.4498 -0.1562
 1793ntf    fn411766   3.885   5.929   4.650 -0.0969 -0.3807 -0.6685
 1793ntf    fn411767   3.743   5.905   4.500 -0.0358  0.5254 -0.5804
 1793ntf    fn411768   3.915   6.019   4.459 -0.3825  0.1316 -0.4364
 1793ntf    on511769   3.651   6.104   4.717 -0.2226  0.2940 -0.1131
 1793ntf    on511770   3.833   6.243   4.644  0.4091 -0.0931  0.0162
 1793ntf    on511771   3.802   6.264   4.314 -0.0925 -0.0244 -0.7677
 1793ntf    on511772   3.610   6.404   4.380  0.2792  0.2207 -0.4342
 1793ntf    fn411773   3.460   6.154   4.298  0.3059  0.4329  0.5521
 1793ntf    fn411774   3.549   6.244   4.125 -0.2741  0.7768  0.0689
 1793ntf    fn411775   3.630   6.067   4.205  0.2772  0.3926  0.5621
 1794ntf    cn111776   2.480   3.108   2.897 -0.0359  0.0711 -0.2467
 1794ntf    sn211777   2.589   3.253   2.877 -0.0356  0.0654 -0.2880
 1794ntf    nn311778   2.498   3.356   2.800 -0.4405  0.2387  0.4103
 1794ntf    sn211779   2.514   3.418   2.657  0.1566 -0.1917  0.2857
 1794ntf    cn111780   2.676   3.500   2.659 -0.2033  0.5276  0.0649
 1794ntf    fn411781   2.398   3.129   2.998  0.4251  0.1635  0.1103
 1794ntf    fn411782   2.409   3.080   2.789  0.0457 -0.2837 -0.2064
 1794ntf    fn411783   2.552   3.004   2.934  0.0778  0.2509  0.0362
 1794ntf    on511784   2.609   3.290   3.015  0.3587 -0.5254 -0.1821
 1794ntf    on511785   2.705   3.203   2.809  0.1831  0.5012 -0.2335
 1794ntf    on511786   2.422   3.527   2.639 -0.2463 -0.5465  0.1792
 1794ntf    on511787   2.526   3.325   2.547  0.1942 -0.1174  0.2268
 1794ntf    fn411788   2.698   3.571   2.768  0.5568 -0.2639  0.4319
 1794ntf    fn411789   2.781   3.420   2.648 -0.2634  0.4124  0.3253
 1794ntf    fn411790   2.691   3.590   2.562 -0.0628  0.0695 -0.3429
 1795ntf    cn111791   4.772   6.424   2.953  0.0211 -0.0429  0.0421
 1795ntf    sn211792   4.664   6.550   3.027  0.0786  0.0358 -0.0080
 1795ntf    nn311793   4.705   6.532   3.178 -0.2214  0.3985  0.1169
 1795ntf    sn211794   4.707   6.633   3.299  0.1524  0.4553  0.0624
 1795ntf    cn111795   4.645   6.529   3.434  0.6126  0.4086  0.2405
 1795ntf    fn411796   4.759   6.404   2.823  0.2319 -0.1884  0.0423
 1795ntf    fn411797   4.899   6.450   2.982 -0.0778  0.0106  0.4383
 1795ntf    fn411798   4.751   6.303   3.004 -0.3187 -0.0604 -0.1415
 1795ntf    on511799   4.706   6.668   2.957 -0.5380  0.2357 -0.0426
 1795ntf    on511800   4.537   6.493   2.988  0.0889 -0.3233  0.4674
 1795ntf    on511801   4.610   6.739   3.293 -0.4217 -0.0782 -0.1769
 1795ntf    on511802   4.841   6.655   3.347  0.2269 -0.8557  0.4937
 1795ntf    fn411803   4.649   6.585   3.554  0.1955  0.1748  0.3649
 1795ntf    fn411804   4.516   6.503   3.417  0.7440  0.1301 -0.3652
 1795ntf    fn411805   4.706   6.412   3.424 -0.4522 -0.1315 -0.0339
 1796ntf    cn111806   4.981   0.519   3.022  0.1041 -0.2151  0.2377
 1796ntf    sn211807   5.067   0.579   2.874  0.1037 -0.4967  0.1217
 1796ntf    nn311808   5.008   0.493   2.757  0.1486 -0.2121 -0.1130
 1796ntf    sn211809   5.054   0.475   2.608  0.0369  0.1267 -0.1894
 1796ntf    cn111810   5.138   0.314   2.620 -0.2059  0.0419  0.4478
 1796ntf    fn411811   4.853   0.555   3.024  0.2741  0.4405 -0.5367
 1796ntf    fn411812   4.981   0.386   3.020  0.0758 -0.2169  0.3325
 1796ntf    fn411813   5.031   0.569   3.134  0.2162  0.0550  0.0667
 1796ntf    on511814   5.044   0.721   2.859  0.3915 -0.4242  0.3681
 1796ntf    on511815   5.201   0.540   2.907  0.4019  0.0030 -0.4612
 1796ntf    on511816   5.153   0.566   2.558  0.0550 -0.1102 -0.5861
 1796ntf    on511817   4.945   0.449   2.517  0.0304  0.3461 -0.2457
 1796ntf    fn411818   5.068   0.222   2.682 -0.3395  0.1049  0.3910
 1796ntf    fn411819   5.171   0.276   2.497 -0.2598  0.5039  0.2862
 1796ntf    fn411820   5.250   0.314   2.691  0.1448  0.2612 -0.0936
 1797ntf    cn111821   4.792   2.192   3.683  0.2487  0.0911 -0.3050
 1797ntf    sn211822   4.947   2.106   3.648  0.3402  0.2432 -0.2745
 1797ntf    nn311823   5.057   2.207   3.696  0.1446  0.3762 -0.1123
 1797ntf    sn211824   5.104   2.225   3.845  0.0689 -0.1128 -0.0288
 1797ntf    cn111825   4.998   2.365   3.895  0.3949  0.0397  0.2364
 1797ntf    fn411826   4.768   2.226   3.809 -0.1154  0.4301 -0.4611
 1797ntf    fn411827   4.782   2.299   3.605 -0.0994  0.0781 -0.2827
 1797ntf    fn411828   4.691   2.111   3.655  0.4488 -0.3351  0.1883
 1797ntf    on511829   4.946   1.986   3.727  0.1889 -0.0194 -0.6684
 1797ntf    on511830   4.935   2.089   3.505  0.3423 -0.5564 -0.1835
 1797ntf    on511831   5.235   2.284   3.852  0.1417 -0.3738  0.9448
 1797ntf    on511832   5.071   2.127   3.946 -0.4053  0.1716  0.0999
 1797ntf    fn411833   4.913   2.400   3.800  0.2159 -0.0986  0.3456
 1797ntf    fn411834   4.936   2.355   4.011  0.2223 -0.5502  0.0967
 1797ntf    fn411835   5.070   2.475   3.908  0.0519  0.4011 -0.8111
 1798ntf    cn111836   2.676   6.042   6.183 -0.0621  0.0708  0.2311
 1798ntf    sn211837   2.562   5.925   6.103  0.0788 -0.1496  0.3528
 1798ntf    nn311838   2.504   5.869   6.237 -0.0307 -0.3996  0.2003
 1798ntf    sn211839   2.358   5.871   6.295 -0.2634  0.0407 -0.3906
 1798ntf    cn111840   2.288   5.746   6.183 -0.3907  0.0971 -0.3735
 1798ntf    fn411841   2.777   5.987   6.247  0.0159 -0.2857 -0.1951
 1798ntf    fn411842   2.734   6.124   6.096 -0.4290 -0.1348 -0.2145
 1798ntf    fn411843   2.611   6.116   6.271 -0.2627 -0.1390  0.2599
 1798ntf    on511844   2.470   5.995   6.017  0.2649 -0.5890 -0.2074
 1798ntf    on511845   2.653   5.834   6.038  0.0834  0.1760 -0.1069
 1798ntf    on511846   2.290   5.996   6.271  0.1494  0.2531 -0.4616
 1798ntf    on511847   2.350   5.802   6.422 -0.2094 -0.0563 -0.4398
 1798ntf    fn411848   2.156   5.737   6.194 -0.2984 -0.1974  0.5612
 1798ntf    fn411849   2.309   5.781   6.057  0.5866  0.2816 -0.1650
 1798ntf    fn411850   2.336   5.624   6.201  0.6178  0.5484  0.0861
 1799ntf    cn111851   0.703   5.197   3.108 -0.2899 -0.1560 -0.2980
 1799ntf    sn211852   0.648   5.140   3.272  0.1889 -0.1616 -0.1384
 1799ntf    nn311853   0.527   5.063   3.208  0.2701  0.0271 -0.5198
 1799ntf    sn211854   0.515   4.915   3.157  0.3343 -0.1928  0.0920
 1799ntf    cn111855   0.418   4.853   3.297  0.0937 -0.4652 -0.1939
 1799ntf    fn411856   0.750   5.099   3.034  0.4240 -0.4655  0.5415
 1799ntf    fn411857   0.611   5.252   3.030  0.2737  0.9596 -0.1975
 1799ntf    fn411858   0.795   5.292   3.112  0.2189 -0.6537  0.0143
 1799ntf    on511859   0.751   5.067   3.342 -0.6753 -1.0028  0.2800
 1799ntf    on511860   0.604   5.268   3.323  0.0718 -0.5570  0.7759
 1799ntf    on511861   0.629   4.828   3.156  0.4647 -0.0306  0.7372
 1799ntf    on511862   0.417   4.891   3.053  0.0799  0.4663  0.1698
 1799ntf    fn411863   0.465   4.894   3.413 -0.4576 -0.5122  0.0520
 1799ntf    fn411864   0.292   4.893   3.295  0.3785  0.4641  0.0362
 1799ntf    fn411865   0.419   4.720   3.293 -0.0682 -0.4750  0.0489
 1800ntf    cn111866   2.478   1.505   4.365  0.2935 -0.2074  0.1885
 1800ntf    sn211867   2.317   1.556   4.297  0.3986  0.3870  0.3827
 1800ntf    nn311868   2.345   1.539   4.144 -0.4711 -0.0915  0.2711
 1800ntf    sn211869   2.314   1.411   4.059  0.2602  0.0267 -0.1791
 1800ntf    cn111870   2.433   1.427   3.922 -0.0149  0.2729 -0.3902
 1800ntf    fn411871   2.488   1.374   4.379 -0.6486 -0.3608 -0.4388
 1800ntf    fn411872   2.585   1.548   4.300  0.6678 -0.2571  0.7708
 1800ntf    fn411873   2.494   1.555   4.486 -0.1837  0.2748  0.0626
 1800ntf    on511874   2.232   1.461   4.365  0.0625  0.4765  0.0945
 1800ntf    on511875   2.309   1.692   4.345 -0.2138  0.4554  0.1056
 1800ntf    on511876   2.191   1.421   3.984  0.3270 -0.1815 -0.3179
 1800ntf    on511877   2.349   1.292   4.131  0.1421  0.3417  0.4005
 1800ntf    fn411878   2.387   1.510   3.830 -0.6560  0.1753 -0.1694
 1800ntf    fn411879   2.550   1.470   3.965  0.1849 -0.3926 -0.2496
 1800ntf    fn411880   2.443   1.313   3.855 -0.2248 -0.0504  0.1243
 1801ntf    cn111881   5.798   5.996   5.997 -0.0994  0.1005  0.2475
 1801ntf    sn211882   5.705   6.143   6.048 -0.0233  0.3159 -0.2364
 1801ntf    nn311883   5.826   6.238   6.079  0.1963 -0.0778  0.1037
 1801ntf    sn211884   5.918   6.231   6.207  0.0905 -0.2075  0.1737
 1801ntf    cn111885   5.860   6.387   6.281  0.0384 -0.2056  0.1304
 1801ntf    fn411886   5.929   6.018   5.991 -0.2831  1.0959 -0.2631
 1801ntf    fn411887   5.779   5.888   6.071  0.1586 -0.2328 -0.1732
 1801ntf    fn411888   5.758   5.967   5.875 -0.0482  0.4546  0.1440
 1801ntf    on511889   5.633   6.168   5.925 -0.2995  0.3526 -0.0674
 1801ntf    on511890   5.620   6.089   6.151 -0.1457  0.1459 -0.4266
 1801ntf    on511891   6.055   6.262   6.173  0.0848  0.1078  0.4278
 1801ntf    on511892   5.884   6.131   6.304  0.6438 -0.3703  0.1985
 1801ntf    fn411893   5.905   6.483   6.202  0.0446 -0.4706 -0.1909
 1801ntf    fn411894   5.728   6.389   6.290  0.0378 -0.5134  0.1969
 1801ntf    fn411895   5.895   6.407   6.407  0.6678  0.5061 -0.1511
 1802ntf    cn111896   3.854   3.703   2.512  0.0078  0.2002 -0.0739
 1802ntf    sn211897   3.689   3.776   2.489 -0.0286  0.1381 -0.0096
 1802ntf    nn311898   3.724   3.923   2.533 -0.2683  0.3931 -0.6586
 1802ntf    sn211899   3.721   3.986   2.677  0.2077 -0.2064 -0.3825
 1802ntf    cn111900   3.578   4.097   2.656  0.1670 -0.2554 -0.3646
 1802ntf    fn411901   3.864   3.674   2.641 -0.1327 -0.4848 -0.2172
 1802ntf    fn411902   3.871   3.587   2.453  0.2293  0.3350 -0.2781
 1802ntf    fn411903   3.950   3.790   2.482 -0.1722  0.6361  0.5872
 1802ntf    on511904   3.679   3.765   2.346 -0.5012  0.2481  0.0132
 1802ntf    on511905   3.598   3.697   2.567 -0.1207 -0.4127 -0.6666
 1802ntf    on511906   3.836   4.070   2.701 -0.1155  0.2814 -0.5097
 1802ntf    on511907   3.672   3.898   2.780  0.4516  0.2466  0.1249
 1802ntf    fn411908   3.535   4.141   2.773 -0.0709  0.0193 -0.5549
 1802ntf    fn411909   3.602   4.194   2.570 -0.2195  0.5357  0.4086
 1802ntf    fn411910   3.473   4.032   2.608  0.2513 -0.3224 -0.4600
 1803ntf    cn111911   6.307   6.900   3.355  0.0748  0.1684 -0.6648
 1803ntf    sn211912   6.404   7.037   3.286 -0.0525  0.5472 -0.0924
 1803ntf    nn311913   6.460   7.094   3.422 -0.3477 -0.3724  0.4244
 1803ntf    sn211914   6.388   7.181   3.531 -0.5853 -0.1225  0.0697
 1803ntf    cn111915   6.478   7.339   3.528 -0.5416 -0.1545 -0.4081
 1803ntf    fn411916   6.241   6.837   3.259  0.4988 -0.2681 -0.6720
 1803ntf    fn411917   6.373   6.806   3.419 -0.4742  0.6259  0.5996
 1803ntf    fn411918   6.218   6.955   3.436  0.6773 -0.2857  0.3175
 1803ntf    on511919   6.505   6.972   3.206 -0.4777 -0.1382 -0.0814
 1803ntf    on511920   6.311   7.123   3.218 -0.7583 -0.6071 -0.6000
 1803ntf    on511921   6.427   7.132   3.661 -0.3125 -0.5786 -0.1794
 1803ntf    on511922   6.252   7.220   3.505 -0.4461  0.3741  0.0775
 1803ntf    fn411923   6.483   7.391   3.406 -0.6791  0.4453 -0.1612
 1803ntf    fn411924   6.427   7.425   3.614  0.9340  0.4109 -0.0702
 1803ntf    fn411925   6.607   7.327   3.555 -0.5090  0.6248 -0.1869
 1804ntf    cn111926   4.136   3.339   2.180  0.3449  0.0633  0.3372
 1804ntf    sn211927   4.315   3.354   2.210  0.3996 -0.0376  0.0605
 1804ntf    nn311928   4.367   3.207   2.192 -0.1209 -0.1636 -0.4455
 1804ntf    sn211929   4.509   3.167   2.139  0.0964 -0.0382  0.0321
 1804ntf    cn111930   4.455   3.157   1.966  0.0438  0.0001  0.0463
 1804ntf    fn411931   4.072   3.259   2.263 -0.1080  0.0957  0.0194
 1804ntf    fn411932   4.062   3.447   2.196  0.5299  0.2675 -0.1458
 1804ntf    fn411933   4.115   3.295   2.057 -0.3613 -0.0628  0.5014
 1804ntf    on511934   4.342   3.446   2.102  0.5465 -0.1749 -0.0211
 1804ntf    on511935   4.327   3.395   2.348  0.1632  0.1076  0.0392
 1804ntf    on511936   4.542   3.032   2.173 -0.8641 -0.3332 -0.1642
 1804ntf    on511937   4.616   3.263   2.152  0.2026 -0.1192 -0.2296
 1804ntf    fn411938   4.351   3.238   1.948  0.0088 -0.0802 -0.1212
 1804ntf    fn411939   4.550   3.204   1.887  0.1812  0.0692  0.2545
 1804ntf    fn411940   4.432   3.037   1.914 -0.4916  0.4525 -0.8032
 1805ntf    cn111941   0.763   0.074   5.681  0.1234 -0.0575 -0.2446
 1805ntf    sn211942   0.669   0.223   5.723 -0.2273 -0.2813 -0.2253
 1805ntf    nn311943   0.728   0.312   5.608 -0.4386  0.7159  0.4127
 1805ntf    sn211944   0.660   0.420   5.517  0.0285  0.5580 -0.1377
 1805ntf    cn111945   0.733   0.570   5.590  0.2186  0.3981  0.0005
 1805ntf    fn411946   0.891   0.093   5.657  0.2001  0.0481  0.2425
 1805ntf    fn411947   0.756  -0.018   5.775  0.0376  0.4851  0.2816
 1805ntf    fn411948   0.720   0.019   5.568  0.4370 -0.1351 -0.3268
 1805ntf    on511949   0.536   0.167   5.721 -0.3483 -0.0126  0.1327
 1805ntf    on511950   0.716   0.264   5.853 -0.1577 -0.6019 -0.1495
 1805ntf    on511951   0.521   0.447   5.547 -0.0404 -0.4377  0.4590
 1805ntf    on511952   0.714   0.424   5.384  0.1916  0.7946 -0.0659
 1805ntf    fn411953   0.742   0.575   5.722  0.3388  0.2339 -0.0007
 1805ntf    fn411954   0.855   0.602   5.551  0.1114  0.3720 -0.3582
 1805ntf    fn411955   0.660   0.673   5.551 -0.4228 -0.1732 -0.3295
 1806ntf    cn111956   2.127   0.217   4.318 -0.2070 -0.0737 -0.0462
 1806ntf    sn211957   2.092   0.043   4.361 -0.0137 -0.1867 -0.3407
 1806ntf    nn311958   2.174  -0.022   4.244 -0.1286 -0.1122 -0.4647
 1806ntf    sn211959   2.144  -0.028   4.090 -0.1566 -0.2091 -0.4554
 1806ntf    cn111960   2.111  -0.207   4.084  0.1880 -0.2743 -0.4357
 1806ntf    fn411961   2.070   0.255   4.205  0.4271 -0.6853 -0.5820
 1806ntf    fn411962   2.066   0.295   4.405 -0.1185 -0.1911  0.1220
 1806ntf    fn411963   2.257   0.241   4.319 -0.1837 -0.1473 -0.7102
 1806ntf    on511964   2.151   0.020   4.490 -0.1612  0.4604 -0.1528
 1806ntf    on511965   1.948   0.043   4.355 -0.0255 -0.2103 -0.0789
 1806ntf    on511966   2.257  -0.003   4.004 -0.1183  0.4929 -0.2033
 1806ntf    on511967   2.015   0.027   4.059 -0.0953  0.1553 -0.0737
 1806ntf    fn411968   2.019  -0.238   4.174  0.0854  0.0108 -0.4431
 1806ntf    fn411969   2.073  -0.249   3.965 -0.2227 -0.6953 -0.1591
 1806ntf    fn411970   2.215  -0.279   4.124 -0.1438 -0.4042  0.2183
 1807ntf    cn111971   2.261   6.700   3.056 -0.3720 -0.3376 -0.2750
 1807ntf    sn211972   2.293   6.867   2.992 -0.2447 -0.3095 -0.1363
 1807ntf    nn311973   2.240   6.960   3.107 -0.0382 -0.1346 -0.1806
 1807ntf    sn211974   2.135   7.077   3.107  0.0096 -0.0921 -0.1062
 1807ntf    cn111975   1.977   7.005   3.054  0.1718 -0.1770 -0.4795
 1807ntf    fn411976   2.321   6.673   3.171  0.2385 -0.1907 -0.5510
 1807ntf    fn411977   2.132   6.679   3.073 -0.4403  0.1619 -0.1786
 1807ntf    fn411978   2.300   6.608   2.969  0.0035  0.1068 -0.5820
 1807ntf    on511979   2.436   6.868   2.972 -0.2479 -0.2886 -0.1603
 1807ntf    on511980   2.216   6.874   2.871 -0.6320  0.1681  0.1325
 1807ntf    on511981   2.160   7.185   3.015  0.2692  0.0875  0.1740
 1807ntf    on511982   2.102   7.112   3.243 -0.0631 -0.1335 -0.1133
 1807ntf    fn411983   1.875   7.076   3.099  0.1180 -0.8309  0.4803
 1807ntf    fn411984   1.957   6.986   2.925 -0.2299 -0.0727 -0.4347
 1807ntf    fn411985   1.959   6.884   3.104 -0.6064  0.1297  0.0039
 1808ntf    cn111986   5.887   3.181   0.967 -0.0219 -0.4080 -0.0629
 1808ntf    sn211987   5.817   3.055   0.856  0.0354 -0.2974 -0.2260
 1808ntf    nn311988   5.720   3.147   0.775  0.1284 -0.0795 -0.0899
 1808ntf    sn211989   5.722   3.197   0.626  0.1492  0.7022  0.1642
 1808ntf    cn111990   5.552   3.152   0.580  0.4166  0.2069 -0.3589
 1808ntf    fn411991   5.976   3.118   1.043 -0.1469  0.1048  0.5097
 1808ntf    fn411992   5.937   3.290   0.911 -0.0020  0.0420  0.8106
 1808ntf    fn411993   5.793   3.223   1.049  0.4047 -0.6603  0.5682
 1808ntf    on511994   5.934   3.007   0.787  0.3377  0.0222  0.0640
 1808ntf    on511995   5.745   2.969   0.948 -0.1908  0.4363  0.2893
 1808ntf    on511996   5.795   3.120   0.527  0.3723  0.6643  0.3557
 1808ntf    on511997   5.716   3.340   0.612 -0.3104  0.6722  0.0230
 1808ntf    fn411998   5.531   3.179   0.452  0.6690  0.6011 -0.3179
 1808ntf    fn411999   5.536   3.021   0.590 -0.1352  0.3728  1.0562
 1808ntf    fn412000   5.447   3.197   0.646  0.1561 -0.3441 -0.3938
 1809ntf    cn112001   1.977   6.592   3.617 -0.3060 -0.0619 -0.2496
 1809ntf    sn212002   1.809   6.525   3.600 -0.3374 -0.1382  0.3537
 1809ntf    nn312003   1.820   6.406   3.498 -0.0817 -0.4983  0.7987
 1809ntf    sn212004   1.927   6.293   3.479  0.3277  0.0079  0.0622
 1809ntf    cn112005   1.964   6.318   3.303  0.0992 -0.0293  0.0078
 1809ntf    fn412006   1.989   6.715   3.665 -0.2071 -0.1658 -0.0064
 1809ntf    fn412007   2.047   6.511   3.694  0.1464  0.4404 -0.1266
 1809ntf    fn412008   2.033   6.587   3.497  0.2555 -0.2651  0.0217
 1809ntf    on512009   1.769   6.467   3.726 -0.4843  0.0645  0.4015
 1809ntf    on512010   1.730   6.636   3.551 -0.3073 -0.4030 -0.2992
 1809ntf    on512011   1.866   6.162   3.481  0.3114  0.0166  0.1653
 1809ntf    on512012   2.060   6.314   3.531  0.0229  0.8665  0.5195
 1809ntf    fn412013   2.094   6.318   3.275  0.0243  0.1219 -0.3436
 1809ntf    fn412014   1.907   6.227   3.225 -0.5717  0.5496 -0.1879
 1809ntf    fn412015   1.928   6.439   3.262 -0.3624 -0.2113 -0.1226
 1810ntf    cn112016   6.695   0.186   6.491  0.3251  0.0985  0.0878
 1810ntf    sn212017   6.539   0.150   6.579  0.3797  0.1423  0.2032
 1810ntf    nn312018   6.433   0.203   6.476  0.0724 -0.0009  0.4461
 1810ntf    sn212019   6.328   0.318   6.497 -0.1902 -0.2255  0.3798
 1810ntf    cn112020   6.173   0.223   6.503 -0.0610 -0.4618  0.0041
 1810ntf    fn412021   6.751   0.095   6.414  0.8114  0.7211 -0.3007
 1810ntf    fn412022   6.680   0.286   6.405 -0.2194  0.2294  0.3250
 1810ntf    fn412023   6.789   0.226   6.575  0.4997  0.3438 -0.2220
 1810ntf    on512024   6.539   0.007   6.593  0.8229  0.0947 -0.2284
 1810ntf    on512025   6.546   0.227   6.701 -0.0435  0.7553 -0.1525
 1810ntf    on512026   6.301   0.396   6.379 -0.5976 -0.2507  0.4563
 1810ntf    on512027   6.331   0.393   6.620  0.9060 -0.1603  0.3283
 1810ntf    fn412028   6.064   0.288   6.468  0.0461 -0.0840  0.3626
 1810ntf    fn412029   6.189   0.111   6.434 -0.0052  0.0418 -0.8175
 1810ntf    fn412030   6.144   0.179   6.624  0.1772  0.0612  0.2544
 1811ntf    cn112031   2.044   5.904   1.340  0.1780  0.0160 -0.3547
 1811ntf    sn212032   2.090   5.788   1.472  0.2518  0.4329 -0.0145
 1811ntf    nn312033   2.063   5.875   1.600  0.0311  0.4195 -0.0507
 1811ntf    sn212034   2.153   5.959   1.698  0.1027  0.0564  0.1951
 1811ntf    cn112035   2.111   5.869   1.849  0.4747  0.1432  0.3526
 1811ntf    fn412036   2.130   6.001   1.314  0.5113 -0.1089  0.2643
 1811ntf    fn412037   2.014   5.852   1.221 -0.3004  0.1589 -0.2979
 1811ntf    fn412038   1.933   5.967   1.374  0.1904  0.0306 -0.3416
 1811ntf    on512039   1.992   5.683   1.456 -0.1315  0.7020  0.5425
 1811ntf    on512040   2.228   5.753   1.449  0.0489 -0.3602 -0.0674
 1811ntf    on512041   2.114   6.096   1.715  0.2319  0.0921  0.2116
 1811ntf    on512042   2.294   5.931   1.686  0.2506  0.8921 -0.1084
 1811ntf    fn412043   1.989   5.888   1.896  0.2508  0.2283 -0.2558
 1811ntf    fn412044   2.124   5.741   1.818  0.4028  0.2423 -0.0797
 1811ntf    fn412045   2.197   5.894   1.946  0.2390  0.2519  0.5351
 1812ntf    cn112046   4.422   3.088   5.574  0.0968 -0.3957  0.0061
 1812ntf    sn212047   4.478   2.943   5.669 -0.3997 -0.2918  0.4621
 1812ntf    nn312048   4.407   2.836   5.580 -0.0480 -0.3099  0.2064
 1812ntf    sn212049   4.468   2.767   5.452  0.0494  0.0657  0.0473
 1812ntf    cn112050   4.322   2.671   5.401  0.0114  0.0220  0.2351
 1812ntf    fn412051   4.451   3.201   5.637 -0.2787 -0.2429 -0.0925
 1812ntf    fn412052   4.480   3.099   5.456  0.5798  0.2346  0.2960
 1812ntf    fn412053   4.292   3.075   5.551  0.1360 -0.7157 -0.0394
 1812ntf    on512054   4.621   2.941   5.659 -0.3899 -0.0846  0.5461
 1812ntf    on512055   4.432   2.970   5.804 -0.4755 -0.3172  0.4408
 1812ntf    on512056   4.561   2.663   5.488  0.0357 -0.0174 -0.1596
 1812ntf    on512057   4.500   2.857   5.345 -0.0708  0.2023  0.1273
 1812ntf    fn412058   4.225   2.749   5.357  0.0924  0.0500  0.1069
 1812ntf    fn412059   4.356   2.605   5.292  0.8075  0.1617  0.3957
 1812ntf    fn412060   4.276   2.585   5.490  0.1061  0.2053  0.4621
 1813ntf    cn112061   1.754   3.903   1.409  0.2602  0.0802  0.3556
 1813ntf    sn212062   1.768   3.733   1.471  0.2491 -0.0231  0.0764
 1813ntf    nn312063   1.640   3.668   1.407  0.1866  0.0050  0.1733
 1813ntf    sn212064   1.591   3.519   1.415 -0.0186  0.0711  0.1427
 1813ntf    cn112065   1.604   3.471   1.240 -0.2630 -0.2599  0.2143
 1813ntf    fn412066   1.865   3.970   1.434  0.3534 -0.0148  0.1986
 1813ntf    fn412067   1.737   3.914   1.278  0.6078 -0.2205  0.2859
 1813ntf    fn412068   1.657   3.976   1.462 -0.1479 -0.0867 -0.1467
 1813ntf    on512069   1.898   3.690   1.425 -0.0088 -0.3994 -0.3099
 1813ntf    on512070   1.754   3.738   1.614 -0.2713  0.4657  0.0120
 1813ntf    on512071   1.449   3.515   1.442 -0.0989 -0.0849 -0.2922
 1813ntf    on512072   1.683   3.430   1.481  0.4243  0.2255 -0.2633
 1813ntf    fn412073   1.569   3.345   1.219 -0.6368 -0.0429 -0.4778
 1813ntf    fn412074   1.531   3.541   1.155  0.0390  0.0770  0.2326
 1813ntf    fn412075   1.733   3.481   1.215 -0.1886 -0.0506  0.6790
 1814ntf    cn112076   3.977   6.454   5.753 -0.3551  0.1330  0.0587
 1814ntf    sn212077   3.905   6.581   5.645  0.1567  0.3385 -0.0461
 1814ntf    nn312078   3.934   6.519   5.503  0.6598 -0.1516  0.2670
 1814ntf    sn212079   3.975   6.594   5.371 -0.0528  0.2013  0.2428
 1814ntf    cn112080   4.153   6.556   5.381  0.0169  0.4389 -0.0619
 1814ntf    fn412081   3.914   6.339   5.735 -0.7284  0.4366 -0.6129
 1814ntf    fn412082   4.103   6.434   5.715 -0.5458 -0.0809 -0.4714
 1814ntf    fn412083   3.983   6.485   5.881 -0.2373 -0.2586  0.1506
 1814ntf    on512084   3.765   6.579   5.680  0.2266 -0.2025  0.2137
 1814ntf    on512085   3.979   6.699   5.682  0.4821  0.1145  0.0228
 1814ntf    on512086   3.982   6.738   5.373 -0.8215  0.2434 -0.0455
 1814ntf    on512087   3.923   6.530   5.253  0.1974 -0.2518  0.3726
 1814ntf    fn412088   4.163   6.424   5.376 -0.0854  0.3938  0.6903
 1814ntf    fn412089   4.212   6.597   5.271  0.1909  0.5255  0.0649
 1814ntf    fn412090   4.218   6.587   5.492  0.1923  0.0671 -0.0586
 1815ntf    cn112091   3.272   3.429   0.816 -0.2151  0.0152  0.0249
 1815ntf    sn212092   3.197   3.279   0.746 -0.1479 -0.0206  0.0300
 1815ntf    nn312093   3.326   3.206   0.692  0.0737  0.6004 -0.2797
 1815ntf    sn212094   3.442   3.143   0.776 -0.1623  0.3703 -0.1264
 1815ntf    cn112095   3.583   3.147   0.662  0.1939 -0.2493  0.2868
 1815ntf    fn412096   3.316   3.414   0.940 -0.2730 -0.0839  0.0332
 1815ntf    fn412097   3.369   3.482   0.743 -0.1250  0.0328  0.1572
 1815ntf    fn412098   3.180   3.523   0.829  0.4806  0.6436  0.4802
 1815ntf    on512099   3.141   3.211   0.861 -0.0918 -0.2346 -0.0674
 1815ntf    on512100   3.108   3.335   0.648 -0.4711 -0.3048  0.1601
 1815ntf    on512101   3.420   3.005   0.812  0.1862  0.4303  0.3196
 1815ntf    on512102   3.493   3.225   0.883 -1.2373 -0.4702  1.0631
 1815ntf    fn412103   3.692   3.102   0.722  0.5527  0.0830 -0.1069
 1815ntf    fn412104   3.564   3.064   0.561 -0.0230 -0.3723  0.4280
 1815ntf    fn412105   3.619   3.263   0.609  0.6627 -0.6383 -0.2564
 1816ntf    cn112106   4.758   0.853   4.266 -0.1813 -0.3480  0.1068
 1816ntf    sn212107   4.830   0.706   4.345  0.3175 -0.2367 -0.1389
 1816ntf    nn312108   4.741   0.606   4.263 -0.0155 -0.0646  0.0159
 1816ntf    sn212109   4.626   0.506   4.304 -0.1091  0.0217 -0.0357
 1816ntf    cn112110   4.469   0.576   4.248 -0.1220 -0.0118 -0.0425
 1816ntf    fn412111   4.642   0.888   4.318 -0.1094 -0.2793  0.2218
 1816ntf    fn412112   4.836   0.959   4.281 -0.2709 -0.2235 -0.3047
 1816ntf    fn412113   4.740   0.851   4.135 -0.2284  0.5091  0.0941
 1816ntf    on512114   4.971   0.713   4.312  0.4521 -0.0884  0.4618
 1816ntf    on512115   4.788   0.710   4.483  0.3476  0.4556 -0.1506
 1816ntf    on512116   4.606   0.486   4.446  0.1879  0.2383  0.0385
 1816ntf    on512117   4.631   0.386   4.225  0.1828 -0.4556  0.6911
 1816ntf    fn412118   4.440   0.695   4.299  0.4702  0.1850 -0.1631
 1816ntf    fn412119   4.491   0.601   4.120  0.0106  0.2017  0.0219
 1816ntf    fn412120   4.366   0.495   4.267 -0.2267  0.1497  0.0821
 1817ntf    cn112121   0.743   1.492   1.088 -0.3333  0.2564  0.4829
 1817ntf    sn212122   0.754   1.644   1.187  0.0129  0.7523 -0.3030
 1817ntf    nn312123   0.860   1.594   1.291 -0.3074  0.0445 -0.3098
 1817ntf    sn212124   0.838   1.542   1.437 -0.0856 -0.0094 -0.2949
 1817ntf    cn112125   0.836   1.692   1.541 -0.2666 -0.0562 -0.2309
 1817ntf    fn412126   0.859   1.473   1.026 -0.5365  0.1593  0.1298
 1817ntf    fn412127   0.728   1.388   1.169 -1.2014 -0.1821 -0.2291
 1817ntf    fn412128   0.649   1.488   0.996 -0.1652 -0.3060  0.3300
 1817ntf    on512129   0.805   1.740   1.092  0.8366  0.5173 -0.1029
 1817ntf    on512130   0.622   1.667   1.241 -0.2076 -0.6426 -0.2235
 1817ntf    on512131   0.952   1.471   1.489  0.4334  0.6127 -0.5722
 1817ntf    on512132   0.711   1.480   1.464 -0.0747  0.2180  0.2980
 1817ntf    fn412133   0.942   1.768   1.524 -0.4491  0.2797  0.1369
 1817ntf    fn412134   0.731   1.768   1.516 -0.3637 -0.4200 -0.9598
 1817ntf    fn412135   0.843   1.646   1.665  0.2190  0.1375 -0.1854
 1818ntf    cn112136   4.953   3.860   3.045  0.0384 -0.4978  0.0082
 1818ntf    sn212137   5.070   3.946   2.936 -0.2323 -0.2296 -0.0717
 1818ntf    nn312138   4.978   4.025   2.836  0.4103  0.1417 -0.3800
 1818ntf    sn212139   4.919   3.977   2.699 -0.3984 -0.2716  0.1044
 1818ntf    cn112140   5.039   4.061   2.592  0.1241 -0.4886  0.5184
 1818ntf    fn412141   4.913   3.945   3.139  0.3263  0.0795 -0.3842
 1818ntf    fn412142   4.846   3.818   2.980  0.0257 -0.1056 -0.2262
 1818ntf    fn412143   5.008   3.762   3.115  0.6758 -0.2719 -0.1717
 1818ntf    on512144   5.141   4.030   3.030 -0.2920 -0.3007  0.0370
 1818ntf    on512145   5.148   3.841   2.876 -0.4962 -0.3878 -0.1378
 1818ntf    on512146   4.792   4.038   2.667 -0.2502  0.2705  0.5325
 1818ntf    on512147   4.935   3.844   2.646 -0.0953 -0.2004  0.0153
 1818ntf    fn412148   5.045   4.191   2.611 -0.7785 -0.4247  0.4032
 1818ntf    fn412149   5.159   4.011   2.615  0.0678 -0.6311  0.5069
 1818ntf    fn412150   5.019   4.044   2.462 -0.0483  0.4163  0.4235
 1819ntf    cn112151   5.938   0.649   5.571 -0.4270 -0.2879 -0.0903
 1819ntf    sn212152   5.929   0.611   5.394  0.1193  0.2400 -0.2339
 1819ntf    nn312153   5.903   0.755   5.336  0.8069  0.3923 -0.1704
 1819ntf    sn212154   5.796   0.787   5.226  0.3294 -0.2007  0.1158
 1819ntf    cn112155   5.654   0.818   5.335  0.4234  0.2844  0.1054
 1819ntf    fn412156   6.034   0.727   5.618 -0.2119 -0.3382 -0.4424
 1819ntf    fn412157   5.823   0.705   5.606 -0.2799 -0.1203  0.1216
 1819ntf    fn412158   5.943   0.536   5.639  0.2146 -0.1153  0.1543
 1819ntf    on512159   6.061   0.563   5.361 -0.0432  0.0100 -0.5572
 1819ntf    on512160   5.824   0.512   5.385  0.0438  0.2976  0.0292
 1819ntf    on512161   5.759   0.677   5.141  0.3403  0.3134 -0.5567
 1819ntf    on512162   5.807   0.914   5.158  0.2815 -0.2606 -0.0038
 1819ntf    fn412163   5.670   0.908   5.431 -0.0513  0.1229  0.3410
 1819ntf    fn412164   5.543   0.851   5.271  0.3188  0.1922  0.2380
 1819ntf    fn412165   5.613   0.707   5.394  0.0714  0.3411 -0.0302
 1820ntf    cn112166   2.678   0.033   6.492  0.2936 -0.3667 -0.4078
 1820ntf    sn212167   2.713  -0.104   6.606  0.5049 -0.0616 -0.1015
 1820ntf    nn312168   2.775  -0.021   6.724 -0.5294  0.1643  0.2953
 1820ntf    sn212169   2.779  -0.044   6.879 -0.0461 -0.1980  0.2315
 1820ntf    cn112170   2.957  -0.029   6.915 -0.0545  0.0481  0.1670
 1820ntf    fn412171   2.627   0.142   6.549  0.2492 -0.1888 -0.7836
 1820ntf    fn412172   2.790   0.081   6.442 -0.0045  0.8967  0.0765
 1820ntf    fn412173   2.601  -0.001   6.390 -0.1692 -0.1532 -0.1362
 1820ntf    on512174   2.583  -0.168   6.612  0.4464  0.0681  0.0147
 1820ntf    on512175   2.815  -0.172   6.530  0.1630 -0.3933 -0.2683
 1820ntf    on512176   2.751  -0.179   6.922  0.5859 -0.2885  0.3644
 1820ntf    on512177   2.726   0.063   6.959 -0.3061 -0.1080 -0.0573
 1820ntf    fn412178   2.985  -0.024   7.044 -0.4815  0.2990  0.2521
 1820ntf    fn412179   3.029  -0.123   6.857 -0.0990  0.3957 -0.4650
 1820ntf    fn412180   3.008   0.080   6.860 -0.7612  0.1893 -0.2248
 1821ntf    cn112181   6.253   3.123   1.873 -0.1290 -0.1733  0.3921
 1821ntf    sn212182   6.387   3.126   1.995 -0.0185  0.1217  0.2659
 1821ntf    nn312183   6.445   2.980   1.986 -0.1240  0.0892  0.1117
 1821ntf    sn212184   6.409   2.863   2.084  0.2393 -0.0557  0.0735
 1821ntf    cn112185   6.537   2.892   2.209  0.1169  0.2991  0.1168
 1821ntf    fn412186   6.214   3.244   1.835  0.5667 -0.2236 -0.5066
 1821ntf    fn412187   6.284   3.068   1.757 -0.3295  0.1636  0.1765
 1821ntf    fn412188   6.150   3.056   1.922  0.0836 -0.4364  0.4778
 1821ntf    on512189   6.482   3.221   1.945 -0.0154 -0.1783 -0.3058
 1821ntf    on512190   6.320   3.169   2.116 -0.1696 -0.6039  0.4491
 1821ntf    on512191   6.449   2.734   2.033 -0.4323 -0.3509  0.2855
 1821ntf    on512192   6.291   2.869   2.167  0.0715 -0.4454 -0.1297
 1821ntf    fn412193   6.545   3.014   2.259  0.0513 -0.0007  0.8665
 1821ntf    fn412194   6.518   2.810   2.311 -0.0493  0.0194 -0.1371
 1821ntf    fn412195   6.658   2.864   2.162 -0.0149 -0.1953  0.0635
 1822ntf    cn112196   2.659   3.966   2.649 -0.0371 -0.2115  0.3227
 1822ntf    sn212197   2.616   4.121   2.733 -0.2883 -0.0812 -0.0467
 1822ntf    nn312198   2.700   4.100   2.863 -0.0580 -0.0031 -0.1827
 1822ntf    sn212199   2.846   4.144   2.905 -0.0316 -0.2234 -0.0433
 1822ntf    cn112200   2.900   3.983   2.969 -0.2081 -0.3704 -0.2578
 1822ntf    fn412201   2.606   3.959   2.528  0.0788 -0.2054  0.2708
 1822ntf    fn412202   2.789   3.945   2.630  0.0928  0.3190  0.6139
 1822ntf    fn412203   2.622   3.859   2.718 -0.0281 -0.1669  0.3970
 1822ntf    on512204   2.664   4.226   2.646 -0.8456 -0.0003 -0.2627
 1822ntf    on512205   2.475   4.107   2.759 -0.3516 -0.2423 -0.4647
 1822ntf    on512206   2.836   4.219   3.027  0.2293 -0.2103 -0.0303
 1822ntf    on512207   2.947   4.182   2.810 -0.0816  0.0116 -0.0017
 1822ntf    fn412208   2.806   3.925   3.042 -0.6280  0.1903 -0.3492
 1822ntf    fn412209   2.937   3.905   2.869  0.2524 -0.0431 -0.3463
 1822ntf    fn412210   3.010   3.999   3.041 -0.3514 -0.4507 -0.0184
 1823ntf    cn112211   3.765   5.371   2.501  0.1013  0.2697  0.5965
 1823ntf    sn212212   3.933   5.306   2.524  0.0004 -0.2810 -0.1810
 1823ntf    nn312213   3.898   5.201   2.636  0.2313 -0.0525  0.1078
 1823ntf    sn212214   3.913   5.204   2.792  0.0749  0.0499  0.1213
 1823ntf    cn112215   4.053   5.092   2.819 -0.0854 -0.2111 -0.1241
 1823ntf    fn412216   3.677   5.275   2.520 -0.2397  0.5079  0.2394
 1823ntf    fn412217   3.722   5.467   2.582  0.0789  0.2572  0.5990
 1823ntf    fn412218   3.747   5.418   2.379  0.0460 -0.7306  0.2110
 1823ntf    on512219   3.955   5.233   2.402  0.4373  0.1095 -0.3354
 1823ntf    on512220   4.017   5.419   2.553  0.0169 -0.4099  0.2798
 1823ntf    on512221   3.800   5.156   2.867 -0.0468 -0.2694 -0.2629
 1823ntf    on512222   3.964   5.330   2.839  0.8544  0.2165 -1.1190
 1823ntf    fn412223   4.169   5.131   2.768  0.0946 -0.4869  0.0749
 1823ntf    fn412224   4.085   5.071   2.945  0.2821  1.0270 -0.0017
 1823ntf    fn412225   4.027   4.980   2.753 -0.2020 -0.3356  0.1348
 1824ntf    cn112226   3.335   6.327   1.768  0.0602  0.3439  0.9090
 1824ntf    sn212227   3.468   6.210   1.726 -0.4727  0.0472  0.0316
 1824ntf    nn312228   3.439   6.189   1.573 -0.0355 -0.4044  0.0100
 1824ntf    sn212229   3.545   6.174   1.458 -0.0160 -0.2449  0.0067
 1824ntf    cn112230   3.457   6.050   1.358 -0.0631  0.0344 -0.2975
 1824ntf    fn412231   3.323   6.336   1.900  0.1059 -0.0107  0.9377
 1824ntf    fn412232   3.367   6.446   1.721  0.3663  0.0729  0.4192
 1824ntf    fn412233   3.218   6.288   1.720  0.3089  0.5220  0.1422
 1824ntf    on512234   3.582   6.295   1.748  0.0588 -0.6082 -0.1814
 1824ntf    on512235   3.449   6.097   1.814 -0.1491 -0.3256 -0.3764
 1824ntf    on512236   3.666   6.101   1.486  0.3701  0.2237 -0.4123
 1824ntf    on512237   3.550   6.285   1.366 -0.2112 -0.0093  0.2764
 1824ntf    fn412238   3.505   6.052   1.234  0.0318  0.7049 -0.2568
 1824ntf    fn412239   3.474   5.925   1.396  0.2000  0.1365 -0.0841
 1824ntf    fn412240   3.325   6.066   1.355  0.0148  0.7065 -0.2906
 1825ntf    cn112241   4.094   2.026   0.466  0.1036 -0.3292  0.3164
 1825ntf    sn212242   3.949   1.932   0.409  0.0543 -0.0176 -0.0723
 1825ntf    nn312243   4.008   1.792   0.368  0.2585  0.1239 -0.2691
 1825ntf    sn212244   3.994   1.655   0.444  0.1647  0.2842  0.0071
 1825ntf    cn112245   3.825   1.623   0.386  0.1873 -0.0249  0.1141
 1825ntf    fn412246   4.205   2.008   0.397  0.1172  0.1396  0.2099
 1825ntf    fn412247   4.061   2.154   0.462  0.5102 -0.2392 -0.2609
 1825ntf    fn412248   4.120   2.010   0.595  0.5150 -0.2435  0.2441
 1825ntf    on512249   3.869   1.936   0.528 -0.4682  0.2138 -0.4275
 1825ntf    on512250   3.900   2.014   0.300  0.5809 -0.0618 -0.3507
 1825ntf    on512251   3.986   1.666   0.587  0.1939 -0.5039  0.0715
 1825ntf    on512252   4.077   1.547   0.395 -0.1468  0.1075 -0.1337
 1825ntf    fn412253   3.734   1.706   0.434  0.1705  0.0207  0.0026
 1825ntf    fn412254   3.817   1.637   0.255 -0.1877 -0.7618  0.0493
 1825ntf    fn412255   3.775   1.501   0.401 -0.1862  0.1020 -0.0974
 1826ntf    cn112256   0.715   1.049   0.495 -0.6211  0.1595 -0.0497
 1826ntf    sn212257   0.777   1.088   0.329 -0.0979 -0.1374  0.0718
 1826ntf    nn312258   0.814   1.240   0.346 -0.4051 -0.0265 -0.2241
 1826ntf    sn212259   0.724   1.366   0.323 -0.2013  0.0876 -0.3972
 1826ntf    cn112260   0.788   1.479   0.451 -0.1190 -0.0574 -0.3095
 1826ntf    fn412261   0.720   0.918   0.512  0.1580  0.1514 -0.2983
 1826ntf    fn412262   0.775   1.111   0.596  0.4587 -0.4406 -0.3064
 1826ntf    fn412263   0.589   1.088   0.506 -0.5311  0.4451 -0.0221
 1826ntf    on512264   0.892   1.002   0.322 -0.6645 -0.9461  0.5013
 1826ntf    on512265   0.675   1.051   0.233  0.2294  0.3037 -0.4529
 1826ntf    on512266   0.585   1.344   0.353  0.0283 -1.2262 -0.2338
 1826ntf    on512267   0.749   1.440   0.201 -0.6963 -0.3663 -0.7772
 1826ntf    fn412268   0.806   1.415   0.565  0.1187 -0.3200 -0.4947
 1826ntf    fn412269   0.905   1.530   0.416 -0.0580  0.0673  0.0784
 1826ntf    fn412270   0.713   1.586   0.475  0.1733  0.1865 -0.4792
 1827ntf    cn112271   5.316   1.190   2.304  0.2073  0.1763  0.4497
 1827ntf    sn212272   5.186   1.223   2.181  0.0963  0.2450  0.5854
 1827ntf    nn312273   5.082   1.304   2.266 -0.7231 -0.0217 -0.1434
 1827ntf    sn212274   5.072   1.461   2.271 -0.2264  0.0122 -0.0931
 1827ntf    cn112275   4.983   1.504   2.118 -0.5405  0.4654  0.2181
 1827ntf    fn412276   5.389   1.299   2.321 -0.0119  0.4103 -0.0941
 1827ntf    fn412277   5.265   1.150   2.419 -1.0084  0.3712 -0.0058
 1827ntf    fn412278   5.405   1.101   2.263  0.0022  0.0078  0.3731
 1827ntf    on512279   5.249   1.293   2.071 -0.1875 -0.1188  0.1908
 1827ntf    on512280   5.145   1.088   2.151 -0.2353  0.3830  0.4151
 1827ntf    on512281   5.198   1.527   2.250 -0.2005 -0.2246 -0.7068
 1827ntf    on512282   4.992   1.502   2.384 -0.2731  0.0345 -0.1343
 1827ntf    fn412283   5.039   1.448   2.013  0.4658  0.1379  0.9121
 1827ntf    fn412284   4.858   1.459   2.117 -0.4470  0.2179 -0.2953
 1827ntf    fn412285   4.972   1.634   2.096  0.9572  0.5151 -0.3443
 1828ntf    cn112286   1.653   3.759   2.902  0.1465 -0.1708  0.0858
 1828ntf    sn212287   1.666   3.732   3.081 -0.4184 -0.1137  0.1372
 1828ntf    nn312288   1.539   3.640   3.097 -0.1407 -0.4522  0.4142
 1828ntf    sn212289   1.543   3.488   3.135 -0.1517 -0.4968  0.2388
 1828ntf    cn112290   1.583   3.498   3.313  0.1560  0.2500  0.1321
 1828ntf    fn412291   1.694   3.652   2.835  0.2517 -0.0300 -0.0758
 1828ntf    fn412292   1.527   3.779   2.867  0.2325  0.3330  0.0671
 1828ntf    fn412293   1.728   3.860   2.862  0.2204 -0.5087 -0.6512
 1828ntf    on512294   1.797   3.675   3.096 -0.2789  0.1431 -0.1031
 1828ntf    on512295   1.639   3.860   3.141 -0.6334  0.3253 -0.8832
 1828ntf    on512296   1.657   3.408   3.098  0.2546 -0.3125  1.0472
 1828ntf    on512297   1.412   3.427   3.133 -0.2549 -0.2600 -0.2478
 1828ntf    fn412298   1.683   3.580   3.340  0.0421  0.3757  0.1754
 1828ntf    fn412299   1.481   3.542   3.386  0.0627  0.1069  0.0899
 1828ntf    fn412300   1.613   3.376   3.353  0.1686  0.2316  0.0667
 1829ntf    cn112301   1.576   0.056   0.019  0.2926 -0.4766  0.2391
 1829ntf    sn212302   1.621   0.072  -0.157  0.0792 -0.1773  0.2113
 1829ntf    nn312303   1.755  -0.008  -0.171 -0.0382 -0.2579 -0.4859
 1829ntf    sn212304   1.899   0.043  -0.207 -0.0787  0.0628 -0.1994
 1829ntf    cn112305   1.968   0.074  -0.042  0.0961 -0.2410 -0.2141
 1829ntf    fn412306   1.679   0.024   0.095  0.8334  0.2250 -0.1764
 1829ntf    fn412307   1.517   0.168   0.058  0.4712 -0.1990 -0.2617
 1829ntf    fn412308   1.483  -0.037   0.028 -0.0036 -0.1959  0.0888
 1829ntf    on512309   1.515   0.009  -0.230 -0.3583 -0.5024  1.1108
 1829ntf    on512310   1.618   0.216  -0.173 -0.0633 -0.1346  0.5959
 1829ntf    on512311   1.907   0.176  -0.262  0.1957  0.1724  0.1000
 1829ntf    on512312   1.978  -0.066  -0.259  0.2331  0.2164 -0.0504
 1829ntf    fn412313   1.919   0.179   0.022  0.4468 -0.2756  0.1194
 1829ntf    fn412314   1.953  -0.029   0.039 -0.1262  0.1848  0.2974
 1829ntf    fn412315   2.099   0.090  -0.057  0.2093 -0.2507  0.6843
 1830ntf    cn112316   3.761   1.422   1.364 -0.4057  0.3118  0.0513
 1830ntf    sn212317   3.850   1.536   1.254  0.0245 -0.1393 -0.0745
 1830ntf    nn312318   3.780   1.671   1.295  0.0618 -0.2428  0.3365
 1830ntf    sn212319   3.845   1.793   1.369 -0.2217  0.1116  0.0056
 1830ntf    cn112320   3.884   1.708   1.525 -0.3642 -0.0332 -0.0377
 1830ntf    fn412321   3.777   1.441   1.494 -0.3054 -0.3093  0.1343
 1830ntf    fn412322   3.629   1.421   1.357 -0.4348  0.9075  0.5076
 1830ntf    fn412323   3.801   1.296   1.359 -0.8765  0.1615 -0.0401
 1830ntf    on512324   3.989   1.505   1.275 -0.0243 -0.3087  0.0016
 1830ntf    on512325   3.794   1.488   1.130 -0.0201 -0.4021  0.0472
 1830ntf    on512326   3.756   1.904   1.394 -0.1146  0.3008 -0.4451
 1830ntf    on512327   3.974   1.825   1.314 -0.0045 -0.1790  0.3435
 1830ntf    fn412328   3.777   1.665   1.589 -0.5509  0.2802 -0.1375
 1830ntf    fn412329   3.958   1.600   1.506  0.2858  0.4229 -0.1060
 1830ntf    fn412330   3.939   1.799   1.603  0.1239 -0.5352  0.2101
 1831ntf    cn112331   6.637   6.516   0.148 -0.2811 -0.3116 -0.0896
 1831ntf    sn212332   6.781   6.428   0.079  0.1166  0.3264 -0.0777
 1831ntf    nn312333   6.777   6.473  -0.071  0.1378 -0.3384 -0.2774
 1831ntf    sn212334   6.888   6.535  -0.163  0.0560  0.0534 -0.1118
 1831ntf    cn112335   6.846   6.710  -0.135 -0.1490 -0.0486  0.2169
 1831ntf    fn412336   6.661   6.643   0.174 -0.2330 -0.3400  0.0047
 1831ntf    fn412337   6.557   6.532   0.044 -0.1309  0.3517 -0.1074
 1831ntf    fn412338   6.562   6.459   0.241 -0.5587 -0.4945 -0.4217
 1831ntf    on512339   6.893   6.483   0.151 -0.0464  0.7994 -0.1787
 1831ntf    on512340   6.749   6.289   0.097  0.2450  0.3030 -0.0358
 1831ntf    on512341   6.868   6.513  -0.305  0.0486 -1.2561  0.0779
 1831ntf    on512342   7.023   6.518  -0.116 -0.0874 -0.2033  0.2053
 1831ntf    fn412343   6.861   6.748  -0.009 -0.0319  0.2867  0.1032
 1831ntf    fn412344   6.929   6.784  -0.206  0.0783  0.1708  0.7017
 1831ntf    fn412345   6.728   6.751  -0.176 -0.2531 -0.7608 -0.1981
 1832ntf    cn112346   1.256   3.628   5.667  0.0348 -0.2216 -0.0051
 1832ntf    sn212347   1.135   3.509   5.602  0.4420 -0.4279 -0.3873
 1832ntf    nn312348   1.128   3.410   5.724  0.7461  0.8029  0.6465
 1832ntf    sn212349   1.214   3.280   5.746 -0.2804  0.0032 -0.0000
 1832ntf    cn112350   1.101   3.153   5.683 -0.2291 -0.0121 -0.0615
 1832ntf    fn412351   1.248   3.737   5.594  0.2634 -0.2613 -0.0892
 1832ntf    fn412352   1.224   3.663   5.791 -0.1363  0.4833 -0.2455
 1832ntf    fn412353   1.379   3.582   5.680 -0.1160 -0.4736  0.5876
 1832ntf    on512354   1.008   3.576   5.587  0.3808 -0.4695 -0.0655
 1832ntf    on512355   1.199   3.472   5.479 -0.4621 -0.5614 -0.8286
 1832ntf    on512356   1.223   3.254   5.888 -0.1847 -0.7297 -0.1358
 1832ntf    on512357   1.327   3.255   5.660 -0.1901  0.4446 -0.0129
 1832ntf    fn412358   1.100   3.136   5.552  0.0027 -0.5205  0.0008
 1832ntf    fn412359   1.136   3.034   5.730  0.2113  0.1972  0.1407
 1832ntf    fn412360   0.979   3.179   5.727 -0.1119  0.2715  0.0942
 1833ntf    cn112361   6.565   0.602   5.724 -0.3632 -0.0363  0.3850
 1833ntf    sn212362   6.745   0.584   5.742 -0.3174 -0.0221 -0.0481
 1833ntf    nn312363   6.783   0.655   5.607 -0.1702  0.3853  0.2054
 1833ntf    sn212364   6.926   0.664   5.544 -0.2810  0.1111 -0.0869
 1833ntf    cn112365   6.909   0.542   5.411 -0.2556 -0.1825  0.1767
 1833ntf    fn412366   6.520   0.517   5.634 -0.6648  0.2556  0.2590
 1833ntf    fn412367   6.493   0.590   5.834 -0.1685 -0.2775  0.4859
 1833ntf    fn412368   6.534   0.723   5.680 -0.0141 -0.0211  0.1738
 1833ntf    on512369   6.766   0.657   5.865 -0.8991 -0.4596  0.3155
 1833ntf    on512370   6.764   0.441   5.744  0.0385  0.0293  0.7566
 1833ntf    on512371   7.038   0.613   5.621 -0.4112 -0.4143 -0.2392
 1833ntf    on512372   6.950   0.789   5.477 -0.2973  0.4251  0.4783
 1833ntf    fn412373   6.935   0.417   5.446 -0.3746 -0.2679 -0.0403
 1833ntf    fn412374   6.788   0.546   5.358 -0.0006  0.6659 -0.3634
 1833ntf    fn412375   6.996   0.562   5.313 -0.7440  0.6364 -0.0885
 1834ntf    cn112376   5.314   1.857   5.638  0.3940 -0.6531 -0.4814
 1834ntf    sn212377   5.140   1.815   5.665  0.2391  0.1221 -0.2383
 1834ntf    nn312378   5.074   1.954   5.633 -0.1916 -0.0099  0.0603
 1834ntf    sn212379   5.130   2.100   5.651 -0.0188 -0.0382 -0.2427
 1834ntf    cn112380   4.976   2.190   5.685  0.2185  0.2252  0.1322
 1834ntf    fn412381   5.338   1.896   5.514 -0.4108  0.3751 -0.3275
 1834ntf    fn412382   5.357   1.956   5.715  0.2481 -0.7928 -0.2188
 1834ntf    fn412383   5.396   1.760   5.675  0.0670 -0.4706  0.7710
 1834ntf    on512384   5.115   1.719   5.560  0.6241  0.1762 -0.3819
 1834ntf    on512385   5.127   1.765   5.799 -0.2161 -0.0396 -0.3401
 1834ntf    on512386   5.175   2.161   5.528  0.4187  0.5527  0.2017
 1834ntf    on512387   5.215   2.128   5.763 -0.1938 -0.2825 -0.0484
 1834ntf    fn412388   4.927   2.185   5.808 -0.3613 -0.1593 -0.1112
 1834ntf    fn412389   4.994   2.319   5.659  0.6528 -0.0115 -0.7677
 1834ntf    fn412390   4.884   2.145   5.602  0.4693  0.5878 -0.3443
 1835ntf    cn112391   1.202   4.459   2.982 -0.0353  0.1172  0.0926
 1835ntf    sn212392   1.036   4.406   3.035 -0.0492  0.0806  0.0122
 1835ntf    nn312393   1.025   4.275   2.950 -0.1226 -0.1654  0.4031
 1835ntf    sn212394   1.049   4.128   3.000  0.3417 -0.1526  0.2222
 1835ntf    cn112395   0.882   4.083   3.059  0.2084 -0.3268 -0.2872
 1835ntf    fn412396   1.181   4.579   2.931 -0.1775  0.0639  0.0244
 1835ntf    fn412397   1.277   4.486   3.088 -0.2933  0.3286  0.2222
 1835ntf    fn412398   1.271   4.387   2.896  0.7088  0.2961  0.5341
 1835ntf    on512399   1.030   4.391   3.178  0.1919  0.7350  0.0948
 1835ntf    on512400   0.957   4.514   2.980  0.0795  0.1832  0.0266
 1835ntf    on512401   1.138   4.118   3.113  0.1543 -0.9531  0.3045
 1835ntf    on512402   1.069   4.036   2.891  0.4855  0.4602 -0.2736
 1835ntf    fn412403   0.887   3.975   3.135 -0.9358  0.0121  0.2897
 1835ntf    fn412404   0.826   4.175   3.134  0.1903 -0.3469 -0.2760
 1835ntf    fn412405   0.799   4.066   2.957 -0.2344  0.0240  0.0164
 1836ntf    cn112406   0.549   2.432   5.986 -0.4306  0.1860 -0.8724
 1836ntf    sn212407   0.719   2.370   5.990 -0.4461  0.1891  0.0046
 1836ntf    nn312408   0.732   2.329   5.839  0.9105  0.1728  0.1129
 1836ntf    sn212409   0.775   2.409   5.711  0.1632 -0.2385 -0.4003
 1836ntf    cn112410   0.936   2.335   5.674  0.2054  0.0196 -0.7360
 1836ntf    fn412411   0.548   2.517   5.884  0.2968  0.5134 -0.6125
 1836ntf    fn412412   0.456   2.339   5.974 -0.5773  0.1267  0.5821
 1836ntf    fn412413   0.521   2.505   6.092  0.1305 -0.3070 -0.3784
 1836ntf    on512414   0.797   2.488   6.019  0.2512 -0.1056 -0.6145
 1836ntf    on512415   0.716   2.266   6.090  0.7502 -0.0831 -0.2155
 1836ntf    on512416   0.786   2.552   5.724 -0.3774 -0.2050 -0.2835
 1836ntf    on512417   0.686   2.373   5.604 -0.0423 -0.0252 -0.3033
 1836ntf    fn412418   0.921   2.208   5.642  0.0338 -0.0292 -0.4616
 1836ntf    fn412419   1.002   2.394   5.575  0.2451  0.1775 -0.6154
 1836ntf    fn412420   1.004   2.344   5.787  0.4167 -0.3297 -0.8347
 1837ntf    cn112421   4.077   3.027   4.525 -0.4696  0.1427 -0.4337
 1837ntf    sn212422   4.061   3.094   4.694 -0.2461 -0.2332 -0.2608
 1837ntf    nn312423   3.929   3.176   4.674  0.1912  0.4851 -0.2404
 1837ntf    sn212424   3.829   3.218   4.788  0.2385  0.2148 -0.0981
 1837ntf    cn112425   3.738   3.062   4.814  0.3602  0.1304 -0.1766
 1837ntf    fn412426   4.174   2.938   4.508 -0.6620 -0.1395 -0.0877
 1837ntf    fn412427   3.958   2.982   4.489 -0.2131 -0.7544 -0.1921
 1837ntf    fn412428   4.098   3.122   4.436  0.6425  0.1885 -0.1412
 1837ntf    on512429   4.043   2.979   4.779  0.2768 -0.0495  0.1046
 1837ntf    on512430   4.181   3.170   4.718 -0.6103  0.3124 -0.1469
 1837ntf    on512431   3.727   3.304   4.732  0.3194  0.2038 -0.2633
 1837ntf    on512432   3.873   3.251   4.921 -0.5123 -0.0797  0.2350
 1837ntf    fn412433   3.810   2.965   4.867  0.0381 -0.0277 -0.0299
 1837ntf    fn412434   3.631   3.085   4.888  0.4404  0.6415 -0.2149
 1837ntf    fn412435   3.693   3.013   4.700  0.1330  0.2014 -0.1183
 1838ntf    cn112436   1.341   5.400   5.440  0.0087 -0.2402 -0.1087
 1838ntf    sn212437   1.168   5.414   5.494  0.0397 -0.0458 -0.0590
 1838ntf    nn312438   1.118   5.295   5.405  0.2289 -0.0816 -0.1180
 1838ntf    sn212439   1.095   5.141   5.426 -0.1385 -0.0313 -0.1419
 1838ntf    cn112440   0.925   5.144   5.491 -0.1417 -0.1510 -0.1448
 1838ntf    fn412441   1.419   5.487   5.503 -0.3645  0.3735 -0.4897
 1838ntf    fn412442   1.381   5.278   5.472  0.2220 -0.1850 -0.1601
 1838ntf    fn412443   1.346   5.411   5.309 -0.3070  0.5093 -0.0650
 1838ntf    on512444   1.181   5.396   5.637  0.8039  0.1040 -0.1059
 1838ntf    on512445   1.134   5.545   5.445  0.3513  0.1229  0.1649
 1838ntf    on512446   1.169   5.076   5.532  0.1323  0.0285 -0.2935
 1838ntf    on512447   1.088   5.075   5.298 -0.2205  0.8460 -0.5951
 1838ntf    fn412448   0.873   5.023   5.502  0.4818 -0.3838  0.3234
 1838ntf    fn412449   0.921   5.210   5.605 -0.0583 -0.0478 -0.2013
 1838ntf    fn412450   0.835   5.205   5.416 -0.1756 -0.0735 -0.0412
 1839ntf    cn112451   4.056   4.312   1.725 -0.3278 -0.0074  0.1623
 1839ntf    sn212452   4.063   4.170   1.611 -0.2495  0.4363 -0.3897
 1839ntf    nn312453   3.989   4.063   1.698  0.2685  0.0022 -0.4782
 1839ntf    sn212454   3.834   4.033   1.703  0.2111  0.3521 -0.1210
 1839ntf    cn112455   3.810   3.904   1.578  0.2940 -0.0359  0.2638
 1839ntf    fn412456   4.094   4.292   1.850  0.2969 -0.1145 -0.0425
 1839ntf    fn412457   4.132   4.403   1.667 -0.5164 -0.3681 -0.6627
 1839ntf    fn412458   3.933   4.360   1.728 -0.2697  0.1839 -0.3336
 1839ntf    on512459   3.985   4.220   1.500 -0.3188  0.3610 -0.3746
 1839ntf    on512460   4.204   4.141   1.599 -0.1566  0.3786  0.7060
 1839ntf    on512461   3.745   4.141   1.670  0.6060  0.8322  0.3526
 1839ntf    on512462   3.812   3.972   1.832 -0.4710  0.3583 -0.2305
 1839ntf    fn412463   3.885   3.908   1.469 -0.6335  0.3530 -0.3700
 1839ntf    fn412464   3.861   3.789   1.622  0.1325 -0.4912 -0.7212
 1839ntf    fn412465   3.688   3.870   1.541  0.1806 -0.1431  0.7260
 1840ntf    cn112466   5.397   5.967   4.507 -0.1337  0.1229  0.0219
 1840ntf    sn212467   5.574   5.928   4.499 -0.2118 -0.2662  0.1521
 1840ntf    nn312468   5.602   5.974   4.351  0.6867  0.2383  0.4686
 1840ntf    sn212469   5.710   5.921   4.250  0.3049 -0.2027  0.2896
 1840ntf    cn112470   5.623   5.781   4.171  0.0664 -0.2322  0.6025
 1840ntf    fn412471   5.324   5.924   4.406  0.7861  0.1624 -0.6730
 1840ntf    fn412472   5.347   5.933   4.625 -0.1770 -0.0403 -0.0435
 1840ntf    fn412473   5.391   6.099   4.495  0.0988  0.1320  0.0009
 1840ntf    on512474   5.626   6.012   4.604  0.0954  0.2418 -0.4022
 1840ntf    on512475   5.588   5.789   4.533  0.1588 -0.1855  0.3426
 1840ntf    on512476   5.823   5.861   4.316 -0.0129 -0.3497  0.7043
 1840ntf    on512477   5.737   6.012   4.141 -0.3751  0.1574  0.4180
 1840ntf    fn412478   5.704   5.733   4.079 -0.4974  0.1472 -0.0983
 1840ntf    fn412479   5.595   5.683   4.255  0.1242 -0.5954  0.2010
 1840ntf    fn412480   5.510   5.822   4.118  0.4822 -0.4540 -0.4729
 1841ntf    cn112481   5.989   2.349   1.304 -0.2960  0.3002 -0.2664
 1841ntf    sn212482   6.154   2.408   1.353 -0.1770 -0.5010  0.3144
 1841ntf    nn312483   6.227   2.273   1.321 -0.2947 -0.4413 -0.2267
 1841ntf    sn212484   6.296   2.175   1.423 -0.7083 -0.1587  0.3307
 1841ntf    cn112485   6.465   2.176   1.356 -0.6694 -0.2215  0.4262
 1841ntf    fn412486   6.009   2.273   1.198  0.1693  0.2016 -0.1102
 1841ntf    fn412487   5.939   2.264   1.392  0.4697  0.1491  0.0304
 1841ntf    fn412488   5.885   2.429   1.284 -0.1254  0.6351  0.1686
 1841ntf    on512489   6.191   2.511   1.259 -0.8532 -0.4361  0.1124
 1841ntf    on512490   6.131   2.444   1.491 -0.5354  0.4883  0.0057
 1841ntf    on512491   6.263   2.036   1.408 -0.5066 -0.1388 -0.3251
 1841ntf    on512492   6.317   2.226   1.557 -0.4427 -0.2617  0.3291
 1841ntf    fn412493   6.535   2.286   1.379  0.2920 -0.6940 -0.1541
 1841ntf    fn412494   6.539   2.079   1.407  0.3189  0.2960  0.0009
 1841ntf    fn412495   6.470   2.167   1.224  0.4002  0.0945  0.4360
 1842ntf    cn112496   4.021   3.739   3.708  0.3363 -0.0483 -0.2835
 1842ntf    sn212497   3.925   3.633   3.595 -0.1095  0.3746 -0.3050
 1842ntf    nn312498   3.782   3.635   3.661  0.0886 -0.5942  0.1739
 1842ntf    sn212499   3.646   3.699   3.615  0.1587 -0.4888  0.1112
 1842ntf    cn112500   3.523   3.596   3.702 -0.1125 -0.2566  0.0048
 1842ntf    fn412501   4.137   3.778   3.658  0.3627  0.0887 -0.1138
 1842ntf    fn412502   3.940   3.836   3.747 -0.0225 -0.1108 -0.8477
 1842ntf    fn412503   4.066   3.681   3.818 -0.2953 -0.0447 -0.0192
 1842ntf    on512504   3.942   3.700   3.469  0.7542  0.1309 -0.3235
 1842ntf    on512505   3.984   3.503   3.612  0.5070  0.6650 -0.2146
 1842ntf    on512506   3.615   3.679   3.476 -0.3805 -0.1906  0.1832
 1842ntf    on512507   3.626   3.833   3.664 -0.4520 -0.7047  0.4771
 1842ntf    fn412508   3.400   3.637   3.679 -0.0971 -0.0179  0.3318
 1842ntf    fn412509   3.531   3.470   3.663  0.4792 -0.0637 -0.5139
 1842ntf    fn412510   3.537   3.593   3.834  0.0166  0.5334  0.0154
 1843ntf    cn112511   0.249   3.064   3.141  0.0305  0.5344  0.2399
 1843ntf    sn212512   0.112   3.011   3.248 -0.0286  0.1581 -0.0207
 1843ntf    nn312513   0.050   3.154   3.272 -0.0287  0.2102 -0.3267
 1843ntf    sn212514  -0.087   3.184   3.341  0.1519  0.1508  0.0592
 1843ntf    cn112515  -0.030   3.316   3.453 -0.2918  0.2643  0.1564
 1843ntf    fn412516   0.313   2.966   3.080 -0.5502  0.2336  0.1104
 1843ntf    fn412517   0.209   3.143   3.042 -0.5474 -0.0713 -0.0109
 1843ntf    fn412518   0.338   3.137   3.206  0.4626 -0.0982  0.3673
 1843ntf    on512519   0.027   2.931   3.163  0.0246  0.5747 -0.4738
 1843ntf    on512520   0.176   2.960   3.367 -0.4116  0.8169  0.4791
 1843ntf    on512521  -0.135   3.075   3.423 -0.1622  0.0353 -0.2771
 1843ntf    on512522  -0.175   3.260   3.255 -0.0881 -0.1089  0.0752
 1843ntf    fn412523  -0.125   3.392   3.504 -0.4558  0.0785  0.1276
 1843ntf    fn412524   0.029   3.269   3.562  0.1286  0.4256  0.0032
 1843ntf    fn412525   0.056   3.389   3.384 -0.3017  0.6477  0.5497
 1844ntf    cn112526   5.149   1.704   4.480  0.1401  0.1278 -0.0098
 1844ntf    sn212527   5.162   1.614   4.638 -0.0481 -0.0289 -0.0823
 1844ntf    nn312528   5.160   1.729   4.745 -0.3184  0.3728 -0.5090
 1844ntf    sn212529   5.289   1.790   4.810 -0.5558  0.2386  0.1059
 1844ntf    cn112530   5.346   1.663   4.926 -0.0725  0.2370 -0.1275
 1844ntf    fn412531   5.219   1.816   4.482  0.4838 -0.0847 -0.0215
 1844ntf    fn412532   5.196   1.642   4.372  0.5852 -0.1643  0.3478
 1844ntf    fn412533   5.025   1.743   4.457  0.0356 -0.3441 -0.2534
 1844ntf    on512534   5.041   1.537   4.640 -0.1310  0.0993 -0.1589
 1844ntf    on512535   5.280   1.533   4.622 -0.0656 -0.0311 -0.2044
 1844ntf    on512536   5.250   1.903   4.891  0.3004  0.5798  0.0642
 1844ntf    on512537   5.405   1.813   4.726 -0.0689 -0.5271  0.5540
 1844ntf    fn412538   5.401   1.558   4.867  0.0550  0.3384 -0.1904
 1844ntf    fn412539   5.437   1.716   5.006  0.0918  0.4827 -0.4730
 1844ntf    fn412540   5.244   1.616   4.996  0.1450  0.4204  0.3191
 1845ntf    cn112541   4.456   3.804   1.882 -0.2810  0.1039  0.0897
 1845ntf    sn212542   4.572   3.943   1.903  0.1263 -0.1865 -0.2141
 1845ntf    nn312543   4.692   3.880   1.984  0.0375  0.1255  0.1631
 1845ntf    sn212544   4.820   3.800   1.943  0.1277  0.2468  0.2088
 1845ntf    cn112545   4.947   3.909   2.014  0.1736  0.3340 -0.0053
 1845ntf    fn412546   4.503   3.708   1.804 -0.4502  0.0890  0.0049
 1845ntf    fn412547   4.422   3.747   1.996 -0.7286 -0.5873 -0.3812
 1845ntf    fn412548   4.357   3.846   1.805 -0.2152 -0.5302 -0.3466
 1845ntf    on512549   4.601   3.984   1.768  0.1586  0.1187 -0.1154
 1845ntf    on512550   4.501   4.031   1.993  0.0089  0.2228 -0.7083
 1845ntf    on512551   4.850   3.798   1.801 -0.4722  0.3817  0.0778
 1845ntf    on512552   4.830   3.674   2.010 -0.4719  0.3690  0.5312
 1845ntf    fn412553   5.067   3.853   2.024  0.0696 -0.0413 -0.8235
 1845ntf    fn412554   4.966   4.010   1.931 -0.1553  0.1189 -0.3451
 1845ntf    fn412555   4.917   3.972   2.127 -0.5561 -0.5850  0.3204
 1846ntf    cn112556   4.252   0.665   5.391 -0.3464  0.2057 -0.3176
 1846ntf    sn212557   4.341   0.673   5.233  0.2408 -0.1247 -0.0045
 1846ntf    nn312558   4.488   0.673   5.289  0.2831  0.1210 -0.1125
 1846ntf    sn212559   4.587   0.795   5.288  0.1561  0.2244 -0.0594
 1846ntf    cn112560   4.669   0.763   5.447 -0.4955  0.0275  0.2429
 1846ntf    fn412561   4.266   0.547   5.450 -0.1410  0.1735 -0.4324
 1846ntf    fn412562   4.297   0.756   5.475 -0.0378  0.0166 -0.2765
 1846ntf    fn412563   4.122   0.677   5.369 -0.4019  0.2178  0.0097
 1846ntf    on512564   4.299   0.551   5.171 -0.1791  0.0930 -0.1485
 1846ntf    on512565   4.298   0.796   5.171 -0.7731 -0.4112  0.1293
 1846ntf    on512566   4.519   0.919   5.317 -0.0915  0.2736 -0.8326
 1846ntf    on512567   4.689   0.788   5.187 -0.1481 -0.3767 -0.3313
 1846ntf    fn412568   4.730   0.645   5.441 -0.1380  0.2057  0.3096
 1846ntf    fn412569   4.756   0.858   5.479  0.0435 -0.3979  0.0707
 1846ntf    fn412570   4.588   0.752   5.551 -0.0017 -0.2094  0.6079
 1847ntf    cn112571   5.543   4.216   4.348  0.2604  0.1312  0.3774
 1847ntf    sn212572   5.660   4.117   4.250 -0.1528  0.1294 -0.1167
 1847ntf    nn312573   5.633   3.968   4.290  0.4051  0.0894  0.1280
 1847ntf    sn212574   5.610   3.843   4.197  0.0999  0.3422 -0.1384
 1847ntf    cn112575   5.669   3.705   4.300 -0.1243 -0.1519 -0.6648
 1847ntf    fn412576   5.532   4.340   4.301  0.7089 -0.0110 -0.1166
 1847ntf    fn412577   5.420   4.170   4.359  0.2590  0.1101  0.2663
 1847ntf    fn412578   5.569   4.225   4.477  0.6320  0.0645  0.3088
 1847ntf    on512579   5.619   4.168   4.121 -0.4558 -0.4442 -0.2526
 1847ntf    on512580   5.784   4.163   4.306  0.1475  0.1986 -0.8216
 1847ntf    on512581   5.702   3.848   4.086  0.1921  0.8080 -0.0447
 1847ntf    on512582   5.470   3.810   4.183  0.2556 -0.2307 -0.3947
 1847ntf    fn412583   5.683   3.603   4.218  0.1134 -0.2060 -0.5570
 1847ntf    fn412584   5.788   3.730   4.351 -0.5709 -0.3015  0.4794
 1847ntf    fn412585   5.592   3.660   4.398  0.2645 -0.1808 -0.3722
 1848ntf    cn112586   4.494   0.623   3.306  0.0470 -0.2653  0.4720
 1848ntf    sn212587   4.319   0.587   3.274  0.0389  0.0195  0.1946
 1848ntf    nn312588   4.280   0.528   3.414 -0.1985  0.6438  0.3945
 1848ntf    sn212589   4.222   0.387   3.452  0.2952  0.3049 -0.0825
 1848ntf    cn112590   4.082   0.368   3.336 -0.0620  0.4443  0.3220
 1848ntf    fn412591   4.545   0.701   3.212 -0.1320 -0.3853  0.2751
 1848ntf    fn412592   4.509   0.694   3.417  0.2454  0.5928 -0.0923
 1848ntf    fn412593   4.582   0.525   3.322 -0.0770 -0.2904  0.9994
 1848ntf    on512594   4.264   0.718   3.249  0.2936  0.0593 -0.1740
 1848ntf    on512595   4.318   0.493   3.165  0.2316  0.1217  0.1033
 1848ntf    on512596   4.152   0.410   3.576 -0.3967 -0.2450 -0.3585
 1848ntf    on512597   4.302   0.270   3.430  0.0398  0.0411  0.3690
 1848ntf    fn412598   4.120   0.355   3.210  0.0260  0.3011  0.3614
 1848ntf    fn412599   3.997   0.268   3.353 -0.2603  0.4871 -0.4107
 1848ntf    fn412600   4.008   0.477   3.337 -0.2739  0.3001  0.2247
 1849ntf    cn112601   2.047   0.462   2.132 -0.7070 -0.1608  0.0705
 1849ntf    sn212602   2.139   0.306   2.141 -0.4642 -0.0164  0.1191
 1849ntf    nn312603   2.196   0.326   1.996 -0.3416 -0.7397  0.0625
 1849ntf    sn212604   2.317   0.250   1.931 -0.1620 -0.1974 -0.2435
 1849ntf    cn112605   2.405   0.172   2.069  0.6382  0.5452 -0.3291
 1849ntf    fn412606   2.126   0.565   2.104 -0.9055 -0.0573 -0.1179
 1849ntf    fn412607   1.965   0.461   2.028 -0.7952 -0.0411  0.1385
 1849ntf    fn412608   1.969   0.492   2.235 -0.2166  0.2583  0.3270
 1849ntf    on512609   2.220   0.341   2.255  0.3296 -0.3307 -0.3428
 1849ntf    on512610   2.032   0.208   2.140 -0.3830 -0.1087  0.3800
 1849ntf    on512611   2.411   0.345   1.877 -0.3280 -0.1575 -0.4665
 1849ntf    on512612   2.271   0.152   1.835 -0.6997 -0.1675 -0.0200
 1849ntf    fn412613   2.509   0.100   2.030  0.4806 -0.1119  0.4281
 1849ntf    fn412614   2.462   0.266   2.144 -0.0492  0.6732  0.0432
 1849ntf    fn412615   2.328   0.092   2.142  0.6308  0.2678 -0.6409
 1850ntf    cn112616   6.574   1.370   5.169  0.3159 -0.4281  0.1443
 1850ntf    sn212617   6.643   1.231   5.074  0.2029 -0.3067 -0.1148
 1850ntf    nn312618   6.782   1.280   5.020  0.3258 -0.1433  0.3444
 1850ntf    sn212619   6.800   1.412   4.936 -0.0563 -0.3195 -0.0165
 1850ntf    cn112620   6.913   1.501   5.047  0.0250 -0.3773 -0.0534
 1850ntf    fn412621   6.662   1.460   5.212 -0.0319  0.0576 -0.1464
 1850ntf    fn412622   6.485   1.444   5.106  0.1196 -0.7353  0.0651
 1850ntf    fn412623   6.507   1.337   5.278 -0.2140 -0.4732 -0.1934
 1850ntf    on512624   6.662   1.130   5.176 -0.0331 -0.5570 -0.3179
 1850ntf    on512625   6.543   1.197   4.976 -0.1239  0.4294 -0.0448
 1850ntf    on512626   6.695   1.509   4.925  0.4928  0.3024  0.1588
 1850ntf    on512627   6.883   1.393   4.819  0.1071 -0.3407  0.1026
 1850ntf    fn412628   7.028   1.436   5.059  0.0684 -0.2970 -0.0333
 1850ntf    fn412629   6.940   1.622   5.004 -0.2244 -0.2792  0.0636
 1850ntf    fn412630   6.868   1.511   5.172 -0.1594 -0.3977 -0.1174
 1851ntf    cn112631   6.083   1.849   6.604  0.1591  0.2051  0.4489
 1851ntf    sn212632   5.936   1.895   6.507  0.1362 -0.2061  0.2897
 1851ntf    nn312633   5.935   1.757   6.430 -0.1682  0.0590 -0.1900
 1851ntf    sn212634   5.951   1.735   6.276  0.2167 -0.2438 -0.1106
 1851ntf    cn112635   5.788   1.664   6.238  0.2012 -0.2033 -0.1187
 1851ntf    fn412636   6.070   1.739   6.676  0.0302  0.0306  0.1608
 1851ntf    fn412637   6.185   1.845   6.521 -0.0009 -0.9633  0.2891
 1851ntf    fn412638   6.115   1.940   6.694  0.3841  0.4593  0.1115
 1851ntf    on512639   5.828   1.913   6.601 -0.3127 -0.1230 -0.2365
 1851ntf    on512640   5.984   2.013   6.441 -0.3235 -0.1920 -0.0246
 1851ntf    on512641   6.033   1.624   6.235  0.9624  0.2558  0.0261
 1851ntf    on512642   5.954   1.855   6.195  0.1921 -0.8855 -1.0839
 1851ntf    fn412643   5.762   1.665   6.108  0.0064  0.5727 -0.0794
 1851ntf    fn412644   5.779   1.537   6.274 -0.4122  0.0536  0.6627
 1851ntf    fn412645   5.684   1.724   6.293 -0.1404 -0.4623 -0.4711
 1852ntf    cn112646   1.081   1.051   2.711 -0.1893  0.0800  0.4304
 1852ntf    sn212647   0.911   0.989   2.719 -0.1177 -0.1867 -0.0536
 1852ntf    nn312648   0.906   0.916   2.580  0.5990  0.0468 -0.2060
 1852ntf    sn212649   0.877   0.764   2.552  0.1012  0.0613  0.2088
 1852ntf    cn112650   1.041   0.702   2.503 -0.0783 -0.3290  0.1022
 1852ntf    fn412651   1.165   0.948   2.713 -0.4129 -0.1012  0.4597
 1852ntf    fn412652   1.096   1.131   2.607 -0.2443  0.3237  0.6086
 1852ntf    fn412653   1.116   1.125   2.815  0.3333  0.3343  0.0784
 1852ntf    on512654   0.904   0.908   2.838 -0.3283  0.7571  0.5912
 1852ntf    on512655   0.831   1.109   2.716  0.5676  0.2553 -1.2226
 1852ntf    on512656   0.792   0.734   2.439 -0.7481  0.5680  0.7038
 1852ntf    on512657   0.851   0.678   2.665  0.8463  0.1887  0.4816
 1852ntf    fn412658   1.082   0.755   2.389 -0.5016  0.2669  0.2199
 1852ntf    fn412659   1.132   0.702   2.599 -0.1253  0.3941  0.1519
 1852ntf    fn412660   1.029   0.571   2.484 -0.1134 -0.2942 -0.1155
 1853ntf    cn112661   3.344   6.837   1.580 -0.0455  0.0690 -0.4225
 1853ntf    sn212662   3.327   6.903   1.749 -0.2620 -0.2663 -0.3126
 1853ntf    nn312663   3.305   7.055   1.716  0.2356 -0.2285 -0.4807
 1853ntf    sn212664   3.197   7.138   1.638 -0.1122 -0.3801 -0.1678
 1853ntf    cn112665   3.069   7.158   1.765 -0.0617 -0.1272 -0.1566
 1853ntf    fn412666   3.440   6.899   1.513  0.2716 -0.0223 -0.0551
 1853ntf    fn412667   3.383   6.710   1.577  0.2725  0.1569 -0.0655
 1853ntf    fn412668   3.231   6.834   1.511 -0.4037 -0.1480  0.1587
 1853ntf    on512669   3.217   6.822   1.797  0.2640 -0.5801  0.3755
 1853ntf    on512670   3.460   6.896   1.803 -0.1951  0.0062 -0.4423
 1853ntf    on512671   3.134   7.081   1.522  0.1765 -0.3066 -0.3626
 1853ntf    on512672   3.233   7.277   1.623 -0.1992 -0.3265  0.1245
 1853ntf    fn412673   3.105   7.226   1.873 -0.3185 -0.4117  0.1100
 1853ntf    fn412674   2.957   7.213   1.722 -0.1980  0.4288  0.8765
 1853ntf    fn412675   3.031   7.039   1.809  0.0356  0.2593  0.9971
 1854ntf    cn112676   1.983   5.808   3.052 -0.3068 -0.1356  0.1192
 1854ntf    sn212677   2.116   5.774   2.933 -0.2178  0.1254  0.1443
 1854ntf    nn312678   2.219   5.891   2.954  0.2219 -0.0609 -0.9068
 1854ntf    sn212679   2.321   5.907   3.072 -0.6035 -0.0883 -0.1782
 1854ntf    cn112680   2.416   6.039   2.991 -0.1401 -0.3694 -0.0968
 1854ntf    fn412681   1.888   5.715   3.049 -0.1523 -0.2845 -0.3557
 1854ntf    fn412682   2.018   5.811   3.179 -0.1040  0.2360  0.0545
 1854ntf    fn412683   1.918   5.921   3.027  0.4709  0.2039 -0.4014
 1854ntf    on512684   2.171   5.643   2.958 -0.0597  0.0726 -0.4491
 1854ntf    on512685   2.050   5.789   2.806 -0.0530 -0.7264 -0.0510
 1854ntf    on512686   2.418   5.801   3.087 -0.1200  0.3628 -0.0719
 1854ntf    on512687   2.280   5.984   3.187 -0.0684 -0.1441  0.0537
 1854ntf    fn412688   2.340   6.147   2.979 -0.3304 -0.5328 -0.3700
 1854ntf    fn412689   2.523   6.083   3.055  0.0234 -0.3345 -0.3924
 1854ntf    fn412690   2.464   5.998   2.874  0.5022  0.6446 -0.2010
 1855ntf    cn112691   4.444   1.643   6.227  0.2631  0.1321 -0.0393
 1855ntf    sn212692   4.443   1.470   6.283 -0.5992  0.1690  0.0758
 1855ntf    nn312693   4.334   1.475   6.396 -0.3164  0.0064  0.3584
 1855ntf    sn212694   4.189   1.417   6.380 -0.2093 -0.1825  0.0739
 1855ntf    cn112695   4.103   1.502   6.515 -0.1917 -0.3141  0.1684
 1855ntf    fn412696   4.425   1.727   6.327  0.7450  0.1994 -0.0022
 1855ntf    fn412697   4.550   1.678   6.156  0.8207 -0.7118  0.3598
 1855ntf    fn412698   4.333   1.663   6.158  0.3931 -0.5810 -0.4704
 1855ntf    on512699   4.413   1.392   6.166 -0.1338  0.4178 -0.2124
 1855ntf    on512700   4.574   1.444   6.339 -0.2715  0.5381 -0.5088
 1855ntf    on512701   4.179   1.274   6.399  0.5171 -0.3424 -0.6493
 1855ntf    on512702   4.117   1.462   6.263 -0.1883 -0.3649 -0.0098
 1855ntf    fn412703   4.139   1.450   6.631  0.4119 -0.2122  0.0303
 1855ntf    fn412704   4.126   1.632   6.526 -0.2875 -0.2581 -0.2927
 1855ntf    fn412705   3.972   1.482   6.507 -0.1904 -0.1676 -0.2636
 1856ntf    cn112706   0.157   5.723   1.098  0.0974 -0.0298  0.4039
 1856ntf    sn212707   0.243   5.763   0.943  0.0087  0.0623  0.3779
 1856ntf    nn312708   0.395   5.733   0.970  0.0426  0.0063  0.1293
 1856ntf    sn212709   0.506   5.674   0.876  0.1524  0.1272  0.1830
 1856ntf    cn112710   0.539   5.835   0.797  0.0824  0.3246  0.5538
 1856ntf    fn412711   0.035   5.776   1.097  0.0864 -0.0525  0.4883
 1856ntf    fn412712   0.133   5.596   1.123 -0.9103  0.1192  0.2394
 1856ntf    fn412713   0.221   5.771   1.203  0.0096  0.1012  0.3982
 1856ntf    on512714   0.177   5.686   0.841 -0.4509  0.0629  0.6704
 1856ntf    on512715   0.218   5.905   0.933  0.1854  0.0729  0.0957
 1856ntf    on512716   0.478   5.588   0.764  0.6067  0.6473 -0.3377
 1856ntf    on512717   0.627   5.645   0.948  0.3252 -0.4131 -0.3200
 1856ntf    fn412718   0.429   5.874   0.736  0.1855  0.0652  0.1971
 1856ntf    fn412719   0.568   5.921   0.894  0.1752  0.8513  0.0663
 1856ntf    fn412720   0.644   5.839   0.716  0.1419 -0.1470  0.6058
 1857ntf    cn112721   2.676   1.649   2.075 -0.2581  0.1970  0.1442
 1857ntf    sn212722   2.695   1.562   2.233  0.2213  0.3146  0.1550
 1857ntf    nn312723   2.551   1.504   2.256  0.2926 -0.0195 -0.2389
 1857ntf    sn212724   2.442   1.524   2.367  0.3374 -0.5715 -0.0911
 1857ntf    cn112725   2.372   1.356   2.358 -0.1177 -0.3780 -0.2063
 1857ntf    fn412726   2.762   1.611   1.982  0.0772  0.1049  0.4923
 1857ntf    fn412727   2.557   1.640   2.018 -0.2193  0.0514  0.0863
 1857ntf    fn412728   2.697   1.779   2.090  0.0204  0.1291  0.3534
 1857ntf    on512729   2.791   1.461   2.199 -0.5781 -0.3145 -0.2651
 1857ntf    on512730   2.722   1.672   2.323  0.0450  0.4919 -0.0089
 1857ntf    on512731   2.340   1.619   2.331  0.3400 -0.6044 -0.1860
 1857ntf    on512732   2.500   1.535   2.499 -0.8003 -0.3108  0.4013
 1857ntf    fn412733   2.294   1.340   2.252 -0.1808  0.2141 -0.2523
 1857ntf    fn412734   2.469   1.266   2.357  0.0813 -0.1656 -0.1363
 1857ntf    fn412735   2.284   1.333   2.454  0.2044 -0.8345 -0.0174
 1858ntf    cn112736   0.914   6.509   4.501 -0.4352  0.0107 -0.3191
 1858ntf    sn212737   1.008   6.660   4.465 -0.1999 -0.0521  0.0328
 1858ntf    nn312738   1.051   6.620   4.319 -0.7428  0.7254 -0.3450
 1858ntf    sn212739   1.184   6.651   4.242 -0.3311  0.1977  0.1436
 1858ntf    cn112740   1.122   6.721   4.086  0.2190 -0.0351 -0.1806
 1858ntf    fn412741   0.814   6.492   4.415 -0.4160 -0.2477 -0.2928
 1858ntf    fn412742   0.988   6.400   4.493 -0.0281  0.2851 -0.2968
 1858ntf    fn412743   0.860   6.518   4.621 -0.3756  0.0214 -0.2937
 1858ntf    on512744   0.906   6.761   4.478 -0.2305 -0.0532 -0.1878
 1858ntf    on512745   1.114   6.658   4.563  0.0143 -0.2476 -0.2010
 1858ntf    on512746   1.250   6.532   4.196 -0.4231  0.1100  0.2392
 1858ntf    on512747   1.265   6.757   4.297 -0.6872  0.6996 -0.2844
 1858ntf    fn412748   1.219   6.716   3.996  0.2285 -0.1714 -0.1627
 1858ntf    fn412749   1.021   6.647   4.042  0.1593  0.2991 -0.6135
 1858ntf    fn412750   1.075   6.844   4.100  0.4794 -0.0616  1.0445
 1859ntf    cn112751   0.345   0.221   3.654 -0.2592  0.4981 -0.0807
 1859ntf    sn212752   0.402   0.382   3.716  0.0154  0.3346  0.0958
 1859ntf    nn312753   0.463   0.468   3.600  0.1686 -0.3475 -0.3346
 1859ntf    sn212754   0.570   0.582   3.615 -0.0565 -0.2022  0.2080
 1859ntf    cn112755   0.466   0.730   3.624 -0.1495 -0.2629  0.1407
 1859ntf    fn412756   0.450   0.159   3.602 -0.5503 -0.2332  0.1772
 1859ntf    fn412757   0.283   0.157   3.752 -0.4707  0.5130 -0.2029
 1859ntf    fn412758   0.261   0.234   3.553  0.1040 -0.3893 -0.5091
 1859ntf    on512759   0.273   0.438   3.750 -0.1047  0.1742 -0.0897
 1859ntf    on512760   0.492   0.341   3.820  0.4839  0.4192 -0.2757
 1859ntf    on512761   0.652   0.595   3.497 -0.0615  0.0053  0.2281
 1859ntf    on512762   0.635   0.596   3.743  0.7457 -0.1823 -0.1943
 1859ntf    fn412763   0.369   0.728   3.534 -0.5409  0.3160  0.5393
 1859ntf    fn412764   0.417   0.746   3.746  0.0927 -0.9914  0.3375
 1859ntf    fn412765   0.536   0.841   3.604 -0.0912 -0.3701 -0.2497
 1860ntf    cn112766   6.859   1.165   0.982 -0.1825  0.1269 -0.3949
 1860ntf    sn212767   6.899   1.178   1.158 -0.2571  0.0507 -0.3717
 1860ntf    nn312768   6.863   1.034   1.207  0.7594 -0.0253  0.2006
 1860ntf    sn212769   6.863   0.983   1.355  0.2934 -0.0502  0.1941
 1860ntf    cn112770   7.037   0.950   1.396  0.3763  0.0839 -0.0508
 1860ntf    fn412771   6.737   1.115   0.962 -0.3989  0.4654  0.0668
 1860ntf    fn412772   6.849   1.284   0.925  0.2511  0.2836 -0.1446
 1860ntf    fn412773   6.938   1.092   0.904 -0.1381 -0.0894 -0.1476
 1860ntf    on512774   7.041   1.206   1.154 -0.3145  0.4625  0.3030
 1860ntf    on512775   6.817   1.286   1.207  0.4121  0.4652 -0.1495
 1860ntf    on512776   6.802   0.854   1.375 -0.0713  0.0242 -0.4130
 1860ntf    on512777   6.826   1.089   1.446  0.0684  0.0771 -0.0425
 1860ntf    fn412778   7.094   0.870   1.308 -0.0710 -0.1182 -0.1597
 1860ntf    fn412779   7.101   1.066   1.397  0.2465  0.1562 -0.1450
 1860ntf    fn412780   7.054   0.898   1.516 -0.0414  0.1030  0.0184
 1861ntf    cn112781   2.376   4.161   2.377 -0.1294 -0.0181 -0.2652
 1861ntf    sn212782   2.290   4.254   2.246 -0.2770  0.2542  0.0243
 1861ntf    nn312783   2.232   4.135   2.163  0.0627 -0.0439  0.2147
 1861ntf    sn212784   2.267   4.089   2.016 -0.0699 -0.2326  0.2427
 1861ntf    cn112785   2.102   4.094   1.939 -0.1590  0.0085  0.4465
 1861ntf    fn412786   2.465   4.071   2.340  0.2416  0.2293  0.0182
 1861ntf    fn412787   2.442   4.251   2.448 -0.5574 -0.0856  0.2263
 1861ntf    fn412788   2.284   4.100   2.450  0.7984 -1.2875 -0.1336
 1861ntf    on512789   2.190   4.319   2.327 -0.0513 -0.3811  0.8270
 1861ntf    on512790   2.395   4.334   2.188  0.0937  0.3561  0.8255
 1861ntf    on512791   2.306   3.950   2.011 -0.0389 -0.2232  0.2304
 1861ntf    on512792   2.342   4.180   1.934 -0.3214 -0.2588 -0.0183
 1861ntf    fn412793   2.038   3.983   1.973  0.4104 -0.3722  0.2987
 1861ntf    fn412794   2.021   4.196   1.960  0.0372  0.2710 -0.0321
 1861ntf    fn412795   2.096   4.091   1.806 -0.1671  0.5648  0.4318
 1862ntf    cn112796   2.258   2.085   6.489 -0.0363 -0.2866 -0.2159
 1862ntf    sn212797   2.306   2.207   6.614 -0.1623 -0.2205 -0.2315
 1862ntf    nn312798   2.217   2.326   6.563  0.5112  0.0467 -0.8031
 1862ntf    sn212799   2.253   2.478   6.550  0.5463  0.0800 -0.3308
 1862ntf    cn112800   2.272   2.509   6.728  0.1565 -0.5318 -0.1772
 1862ntf    fn412801   2.132   2.103   6.452  0.0065 -0.2422 -0.3409
 1862ntf    fn412802   2.332   2.102   6.381 -0.0173 -0.2082 -0.1911
 1862ntf    fn412803   2.269   1.962   6.536 -0.0216  0.0147  0.5783
 1862ntf    on512804   2.263   2.150   6.740 -0.0349  0.2337  0.0231
 1862ntf    on512805   2.447   2.225   6.592 -0.2386 -0.0339 -0.5717
 1862ntf    on512806   2.147   2.567   6.510  0.1585 -0.2670 -0.0873
 1862ntf    on512807   2.380   2.508   6.488  0.4335 -0.0607 -0.6333
 1862ntf    fn412808   2.278   2.638   6.760 -0.0257 -0.4743 -0.3711
 1862ntf    fn412809   2.179   2.455   6.804  0.0529  0.2751  0.2912
 1862ntf    fn412810   2.386   2.454   6.767  0.1139 -0.4429  0.0771
 1863ntf    cn112811   0.477   6.740   6.185 -0.6137  0.3137  0.2160
 1863ntf    sn212812   0.357   6.666   6.071 -0.0123 -0.1376 -0.1266
 1863ntf    nn312813   0.453   6.554   6.016  0.1370 -0.1500  0.1561
 1863ntf    sn212814   0.415   6.403   5.994 -0.0271 -0.0674 -0.1403
 1863ntf    cn112815   0.535   6.364   5.864 -0.0011  0.0813 -0.1621
 1863ntf    fn412816   0.528   6.659   6.277 -0.0498 -0.1165 -0.4673
 1863ntf    fn412817   0.589   6.772   6.122 -0.1927 -0.5252  0.5141
 1863ntf    fn412818   0.431   6.847   6.248  0.0040  0.8628 -0.2502
 1863ntf    on512819   0.250   6.627   6.159 -0.2823  0.3947 -0.2178
 1863ntf    on512820   0.338   6.780   5.985 -0.3080 -0.0725  0.0244
 1863ntf    on512821   0.288   6.376   5.932  0.1055  0.0294 -0.4546
 1863ntf    on512822   0.447   6.320   6.107 -0.0868  0.1855  0.0652
 1863ntf    fn412823   0.521   6.438   5.756  0.1297 -0.3825 -0.4990
 1863ntf    fn412824   0.662   6.381   5.897  0.1280 -0.4655 -0.3625
 1863ntf    fn412825   0.515   6.239   5.824 -0.4139  0.1315 -0.1131
 1864ntf    cn112826   6.104   5.769   5.263  0.0587 -0.0085  0.7847
 1864ntf    sn212827   5.932   5.817   5.295 -0.0828  0.1201 -0.1345
 1864ntf    nn312828   5.872   5.746   5.422 -0.6183  0.4233 -0.2137
 1864ntf    sn212829   5.813   5.800   5.556 -0.1046  0.0529  0.1668
 1864ntf    cn112830   5.860   5.664   5.667  0.2906 -0.3826 -0.5345
 1864ntf    fn412831   6.115   5.641   5.231 -0.9149  0.0621  0.1120
 1864ntf    fn412832   6.159   5.835   5.162 -0.2522 -0.4956  0.2900
 1864ntf    fn412833   6.188   5.787   5.363  0.3380 -0.1028  0.5682
 1864ntf    on512834   5.942   5.961   5.303  0.5977  0.0497  0.3532
 1864ntf    on512835   5.859   5.762   5.183 -0.1642 -0.1587  0.0556
 1864ntf    on512836   5.669   5.794   5.543 -0.0709  0.8537 -0.7160
 1864ntf    on512837   5.873   5.920   5.609 -0.0110  0.2303 -0.3338
 1864ntf    fn412838   5.987   5.628   5.671  0.5376  0.5663  0.6335
 1864ntf    fn412839   5.829   5.698   5.791 -0.1544  0.3454 -0.8383
 1864ntf    fn412840   5.789   5.557   5.635  0.4025 -0.5659 -0.1727
 1865ntf    cn112841   6.051   3.773   3.832  0.0749 -0.1865 -0.2167
 1865ntf    sn212842   6.210   3.690   3.856  0.3214  0.2891 -0.1806
 1865ntf    nn312843   6.233   3.695   4.011 -0.0842 -0.2365 -0.0983
 1865ntf    sn212844   6.370   3.720   4.083 -0.1895  0.2167 -0.0500
 1865ntf    cn112845   6.358   3.632   4.242 -0.1765  0.1621 -0.0796
 1865ntf    fn412846   5.966   3.730   3.923 -0.1090  0.1470 -0.2292
 1865ntf    fn412847   6.060   3.903   3.859  0.2437 -0.1411 -0.4884
 1865ntf    fn412848   6.007   3.760   3.707 -0.1397 -0.0017 -0.1629
 1865ntf    on512849   6.183   3.556   3.808  0.0619  0.0519  0.6223
 1865ntf    on512850   6.300   3.778   3.786  0.1553  0.2823 -0.4037
 1865ntf    on512851   6.379   3.858   4.123  0.1692  0.2500 -0.2420
 1865ntf    on512852   6.480   3.650   4.020 -0.3797 -0.2082  0.0850
 1865ntf    fn412853   6.470   3.609   4.308 -0.2874 -0.4508 -0.1009
 1865ntf    fn412854   6.283   3.699   4.327  0.1275  0.7036 -0.2303
 1865ntf    fn412855   6.302   3.513   4.232 -0.0469  0.0921  0.0301
 1866ntf    cn112856   1.690   5.230   4.721  0.0007  0.1131 -0.7434
 1866ntf    sn212857   1.556   5.113   4.757  0.0282  0.2682 -0.1325
 1866ntf    nn312858   1.604   5.081   4.903  0.5031 -0.6675 -0.4780
 1866ntf    sn212859   1.530   5.026   5.030  0.1223  0.0600 -0.3746
 1866ntf    cn112860   1.574   4.852   4.998  0.1483 -0.0065  0.0163
 1866ntf    fn412861   1.812   5.179   4.718  0.1296  0.3987 -0.4207
 1866ntf    fn412862   1.663   5.281   4.602  0.1091  0.6601 -0.5372
 1866ntf    fn412863   1.688   5.338   4.797  0.4255 -0.0573 -0.4844
 1866ntf    on512864   1.436   5.191   4.753 -0.2650 -0.1674  0.0975
 1866ntf    on512865   1.579   4.999   4.671  0.3055  0.0921  0.1703
 1866ntf    on512866   1.386   5.022   5.036  0.1558 -0.3664  0.3891
 1866ntf    on512867   1.600   5.050   5.154 -0.0477  0.6587 -0.3951
 1866ntf    fn412868   1.560   4.824   4.870  0.0059  0.0091  0.0282
 1866ntf    fn412869   1.699   4.820   5.028  0.1533 -0.0266 -0.0265
 1866ntf    fn412870   1.499   4.765   5.064  0.3043  0.1660  0.4247
 1867ntf    cn112871   0.939   3.784   6.424  0.9332  0.2910 -0.1313
 1867ntf    sn212872   1.014   3.949   6.432  0.0388  0.6893  0.1300
 1867ntf    nn312873   1.150   3.919   6.360 -0.0333 -1.0006  0.6618
 1867ntf    sn212874   1.300   3.948   6.397 -0.0284 -0.2175  0.0478
 1867ntf    cn112875   1.354   4.024   6.240  0.2478 -0.5941 -0.0401
 1867ntf    fn412876   0.924   3.742   6.300  0.0661  0.2589 -0.0183
 1867ntf    fn412877   1.012   3.692   6.486  0.0545 -0.1890  0.2149
 1867ntf    fn412878   0.821   3.771   6.483  0.6213  0.3442 -0.7465
 1867ntf    on512879   0.921   4.023   6.349 -0.1738  0.2524 -0.0233
 1867ntf    on512880   1.019   3.974   6.574  0.3894  0.4431  0.1615
 1867ntf    on512881   1.372   3.824   6.403  0.0686 -0.1885 -0.4427
 1867ntf    on512882   1.327   4.047   6.498  0.1455 -0.1530 -0.0616
 1867ntf    fn412883   1.273   4.119   6.195  0.7872  0.0385  0.3077
 1867ntf    fn412884   1.473   4.080   6.252  0.0579 -0.2299  0.1403
 1867ntf    fn412885   1.355   3.938   6.139 -0.0235 -0.5143 -0.1113
 1868ntf    cn112886   2.044   1.721   5.236  0.4136  0.3957 -0.4482
 1868ntf    sn212887   2.048   1.539   5.245  0.0299  0.4218  0.2652
 1868ntf    nn312888   2.067   1.491   5.097  0.2279 -1.0443  0.7533
 1868ntf    sn212889   2.200   1.461   5.019  0.1098 -0.1392  0.1816
 1868ntf    cn112890   2.248   1.303   5.097 -0.0589 -0.2571  0.0442
 1868ntf    fn412891   1.959   1.769   5.146 -0.0789  0.2437 -0.0653
 1868ntf    fn412892   2.005   1.777   5.349  0.3158 -0.1691 -0.2004
 1868ntf    fn412893   2.165   1.767   5.209  0.4369  0.2609 -0.5782
 1868ntf    on512894   2.168   1.513   5.319  0.1296  0.2754  0.0527
 1868ntf    on512895   1.919   1.497   5.294 -0.1398  0.6636  0.0305
 1868ntf    on512896   2.309   1.553   5.039 -0.1021  0.0738  0.3548
 1868ntf    on512897   2.170   1.424   4.883  0.0041 -0.1827  0.2164
 1868ntf    fn412898   2.336   1.249   5.014  0.1523  0.7123 -0.3769
 1868ntf    fn412899   2.315   1.316   5.210 -0.3208  0.1620  0.1553
 1868ntf    fn412900   2.151   1.214   5.111 -0.1734 -0.1669 -0.1562
 1869ntf    cn112901   0.374   0.212   2.204 -0.1099  0.8003 -0.3983
 1869ntf    sn212902   0.553   0.183   2.211 -0.2213  0.1946  0.0115
 1869ntf    nn312903   0.572   0.116   2.071  1.3690  0.2278  0.1946
 1869ntf    sn212904   0.577  -0.034   2.024 -0.1486  0.1641  0.1889
 1869ntf    cn112905   0.742  -0.030   1.948 -0.0578  0.0151  0.3792
 1869ntf    fn412906   0.306   0.101   2.183 -0.5986  0.9176  0.4844
 1869ntf    fn412907   0.315   0.268   2.310 -0.1230  0.1328 -0.0511
 1869ntf    fn412908   0.341   0.293   2.105  1.1263  0.4356 -1.1264
 1869ntf    on512909   0.616   0.313   2.210  0.3201 -0.0600  0.3579
 1869ntf    on512910   0.574   0.099   2.327 -0.1568 -0.1815 -0.2720
 1869ntf    on512911   0.490  -0.067   1.914  0.0665 -0.2659  0.1450
 1869ntf    on512912   0.575  -0.139   2.122  0.8009 -0.0628 -0.0246
 1869ntf    fn412913   0.762  -0.153   1.904  0.3998  0.2262 -0.0101
 1869ntf    fn412914   0.750   0.046   1.841 -0.0124 -0.3952  0.0885
 1869ntf    fn412915   0.847  -0.002   2.025  0.3715 -0.5519  0.0106
 1870ntf    cn112916   4.896   1.051   1.396  0.1280 -0.2244 -0.4821
 1870ntf    sn212917   4.912   1.182   1.271  0.1902  0.1093 -0.1277
 1870ntf    nn312918   4.805   1.122   1.172  0.0309  0.1283  0.0337
 1870ntf    sn212919   4.829   1.017   1.059  0.3204  0.1275  0.0957
 1870ntf    cn112920   4.855   1.129   0.919 -0.2163 -0.0756 -0.1721
 1870ntf    fn412921   4.780   1.049   1.459  0.4071  0.4686  0.0708
 1870ntf    fn412922   4.909   0.934   1.336  0.1489 -0.3802 -0.1787
 1870ntf    fn412923   4.987   1.049   1.492 -0.2095 -0.0933 -0.1582
 1870ntf    on512924   4.857   1.303   1.327 -0.3438 -0.2116  0.0488
 1870ntf    on512925   5.048   1.178   1.225  0.3557 -0.3156  0.3801
 1870ntf    on512926   4.710   0.949   1.013  0.2660  0.0034  0.4138
 1870ntf    on512927   4.951   0.941   1.072  0.3326  0.1352  0.0236
 1870ntf    fn412928   4.969   1.195   0.939 -0.3913  0.1684  0.0206
 1870ntf    fn412929   4.872   1.074   0.799 -0.2579 -0.1380 -0.1492
 1870ntf    fn412930   4.759   1.218   0.906 -0.1791  0.0603  0.4507
 1871ntf    cn112931   0.033   0.366   2.966  0.2638  0.0293  0.0782
 1871ntf    sn212932  -0.005   0.197   2.911  0.0712  0.1095 -0.0406
 1871ntf    nn312933   0.134   0.145   2.861  0.1186  0.0592  0.1416
 1871ntf    sn212934   0.203   0.184   2.725  0.0307 -0.2371  0.0107
 1871ntf    cn112935   0.125   0.065   2.613 -0.4458  0.0817  0.0024
 1871ntf    fn412936   0.130   0.364   3.056 -0.0007  0.6836  0.3825
 1871ntf    fn412937   0.081   0.450   2.876  0.1469 -0.0732 -0.0814
 1871ntf    fn412938  -0.068   0.423   3.030  0.2504  0.4655 -0.3231
 1871ntf    on512939  -0.053   0.133   3.031  0.0200  0.1632 -0.0325
 1871ntf    on512940  -0.112   0.225   2.819  0.2536 -0.0880 -0.3132
 1871ntf    on512941   0.343   0.155   2.708  0.1228  0.1022  0.1780
 1871ntf    on512942   0.172   0.316   2.677 -0.0319 -0.1959  0.1648
 1871ntf    fn412943   0.145   0.090   2.485  0.2851  0.4077  0.1806
 1871ntf    fn412944   0.154  -0.063   2.630 -0.5079 -0.0269 -0.6966
 1871ntf    fn412945  -0.007   0.074   2.618 -0.4649 -0.3698  0.4149
 1872ntf    cn112946   5.994   6.875   2.366  0.2776 -0.0530  0.3159
 1872ntf    sn212947   5.996   6.924   2.541  0.3158 -0.0967  0.3279
 1872ntf    nn312948   6.084   7.054   2.539 -0.4371  0.4224  0.5482
 1872ntf    sn212949   6.044   7.205   2.519 -0.2194  0.3884 -0.1579
 1872ntf    cn112950   6.191   7.258   2.426 -0.1628  0.2491 -0.1498
 1872ntf    fn412951   5.944   6.755   2.341  0.0344  0.0710  0.2015
 1872ntf    fn412952   5.933   6.959   2.285 -0.0084 -0.1165  0.4640
 1872ntf    fn412953   6.121   6.868   2.332  0.0343 -0.1864 -0.5740
 1872ntf    on512954   5.858   6.947   2.574  0.2808  0.1584  0.0006
 1872ntf    on512955   6.066   6.816   2.606  0.2412 -0.3520 -0.0119
 1872ntf    on512956   6.054   7.280   2.641  0.3746  0.0411  0.0121
 1872ntf    on512957   5.933   7.231   2.430 -0.7099 -0.8696  0.0612
 1872ntf    fn412958   6.295   7.210   2.493 -0.3011  0.3541  0.1453
 1872ntf    fn412959   6.199   7.190   2.313  0.4839  0.2966 -0.1367
 1872ntf    fn412960   6.219   7.385   2.400 -0.0553  0.2396 -0.0814
 1873ntf    cn112961   2.493   3.280   5.989 -0.0613 -0.1467 -0.2322
 1873ntf    sn212962   2.659   3.338   6.031 -0.0672 -0.2789 -0.0260
 1873ntf    nn312963   2.734   3.212   5.974  0.3229 -0.2661  0.4501
 1873ntf    sn212964   2.827   3.188   5.850 -0.1126  0.0847  0.0508
 1873ntf    cn112965   2.940   3.088   5.952 -0.4932 -0.3782  0.0230
 1873ntf    fn412966   2.393   3.344   6.048  0.3651  0.3655 -0.0653
 1873ntf    fn412967   2.452   3.294   5.864 -0.1792 -0.2111 -0.2009
 1873ntf    fn412968   2.485   3.153   6.025 -0.3406  0.0101  0.2713
 1873ntf    on512969   2.669   3.466   5.964  0.4750 -0.1414  0.3018
 1873ntf    on512970   2.666   3.339   6.175  0.6707 -0.3784 -0.0561
 1873ntf    on512971   2.902   3.302   5.805  0.1269  0.2253  0.7830
 1873ntf    on512972   2.774   3.091   5.757 -0.5006 -0.0110  0.3673
 1873ntf    fn412973   3.023   3.157   6.028 -0.0025 -0.4778 -0.4115
 1873ntf    fn412974   2.881   2.998   6.028 -0.8265 -0.1023  0.0939
 1873ntf    fn412975   3.021   3.018   5.874  0.2156 -0.2182  0.6103
 1874ntf    cn112976   3.251   3.928   0.921 -0.0863 -0.1462  0.4105
 1874ntf    sn212977   3.412   3.984   0.983  0.1077  0.1466 -0.3587
 1874ntf    nn312978   3.444   4.109   0.892 -0.4155  0.2061 -0.4622
 1874ntf    sn212979   3.421   4.260   0.929  0.0844  0.1230  0.2207
 1874ntf    cn112980   3.591   4.306   0.974  0.3738 -0.5440 -0.1692
 1874ntf    fn412981   3.211   3.826   0.996 -0.3016 -0.2302  0.1833
 1874ntf    fn412982   3.154   4.018   0.922  0.1160  0.0727  0.2757
 1874ntf    fn412983   3.258   3.875   0.800  0.4415  0.6351  0.0924
 1874ntf    on512984   3.375   4.010   1.120 -0.8164 -0.6258 -0.4513
 1874ntf    on512985   3.492   3.869   0.948 -0.4740 -0.2514 -0.3919
 1874ntf    on512986   3.351   4.284   1.052  0.3359 -0.2745  0.4421
 1874ntf    on512987   3.392   4.344   0.815  0.3712  0.1856  0.1934
 1874ntf    fn412988   3.605   4.425   1.030  0.3320 -0.7707  0.3328
 1874ntf    fn412989   3.633   4.220   1.066  0.3081 -0.5315 -0.1271
 1874ntf    fn412990   3.669   4.292   0.869  0.4179 -0.1035 -0.1935
 1875ntf    cn112991   2.300   1.000   2.375  0.0305  0.0126  0.1135
 1875ntf    sn212992   2.258   0.962   2.548  0.3976  0.2127  0.2493
 1875ntf    nn312993   2.370   1.049   2.614  0.3612  0.5478 -0.1283
 1875ntf    sn212994   2.497   1.001   2.693  0.0654  0.0238  0.0316
 1875ntf    cn112995   2.639   1.103   2.644 -0.1676  0.1825 -0.3162
 1875ntf    fn412996   2.431   0.987   2.355 -0.0254 -0.3915  0.0052
 1875ntf    fn412997   2.244   0.922   2.285 -0.1493 -0.0963  0.3195
 1875ntf    fn412998   2.259   1.121   2.342 -0.0441 -0.0381  0.0230
 1875ntf    on512999   2.129   1.022   2.569  0.1076 -0.4189  0.2958
 1875ntf    on513000   2.276   0.819   2.548 -0.3148  0.1176 -0.0404
 1875ntf    on513001   2.547   0.869   2.664 -0.3259 -0.2645  0.6256
 1875ntf    on513002   2.487   1.041   2.832  0.7573 -0.4668  0.2276
 1875ntf    fn413003   2.617   1.144   2.520  0.2580  0.0216 -0.4468
 1875ntf    fn413004   2.658   1.206   2.726 -0.0708  0.0352 -0.1528
 1875ntf    fn413005   2.756   1.042   2.633 -0.1226  0.2988 -0.4872
 1876ntf    cn113006   2.227   5.274   2.672  0.4231 -0.1801  0.3360
 1876ntf    sn213007   2.408   5.277   2.672  0.4213  0.2175 -0.3563
 1876ntf    nn313008   2.436   5.180   2.552 -0.7336  0.1877 -0.6080
 1876ntf    sn213009   2.448   5.023   2.551 -0.0112  0.2330  0.0213
 1876ntf    cn113010   2.427   4.983   2.375 -0.3088 -0.2409  0.1647
 1876ntf    fn413011   2.175   5.155   2.647  0.3984 -0.0354 -0.3368
 1876ntf    fn413012   2.171   5.313   2.785  0.3822  0.0158  0.2483
 1876ntf    fn413013   2.181   5.348   2.573  0.0048  0.0576  0.7034
 1876ntf    on513014   2.421   5.417   2.642  0.1509  0.3549  0.1564
 1876ntf    on513015   2.440   5.227   2.804 -1.0346 -0.5100 -0.2623
 1876ntf    on513016   2.336   4.956   2.612 -0.1493  0.0405 -0.4412
 1876ntf    on513017   2.578   4.970   2.583 -0.1775  0.1746  0.6070
 1876ntf    fn413018   2.417   4.854   2.348  0.5962 -0.3104  0.1377
 1876ntf    fn413019   2.325   5.048   2.321 -0.2103 -0.6223 -0.4930
 1876ntf    fn413020   2.534   5.025   2.310 -0.5653  0.3215  0.1031
 1877ntf    cn113021   2.392   4.919   4.593  0.4362 -0.1710  0.0570
 1877ntf    sn213022   2.483   5.045   4.499  0.0842  0.2241  0.2431
 1877ntf    nn313023   2.501   4.960   4.369 -0.1101  0.1498  0.2646
 1877ntf    sn213024   2.476   5.012   4.222 -0.3716 -0.3182  0.1419
 1877ntf    cn113025   2.417   4.858   4.145  0.5758 -0.3720 -0.4921
 1877ntf    fn413026   2.286   4.874   4.526  0.1757  0.1380  0.2609
 1877ntf    fn413027   2.466   4.814   4.623  0.1813 -0.1683  0.7031
 1877ntf    fn413028   2.343   4.955   4.710  0.3710 -0.1036  0.0090
 1877ntf    on513029   2.378   5.144   4.490  0.0433  0.1021 -0.6424
 1877ntf    on513030   2.601   5.082   4.574  0.3384  0.2461 -0.1689
 1877ntf    on513031   2.596   5.044   4.149 -0.0510 -0.3808  0.6303
 1877ntf    on513032   2.368   5.105   4.203  0.2301  0.2643 -0.4736
 1877ntf    fn413033   2.370   4.877   4.023 -0.2669  0.2342 -0.0845
 1877ntf    fn413034   2.508   4.763   4.129  0.6966 -0.3224 -0.1133
 1877ntf    fn413035   2.315   4.802   4.208  0.1046  0.1960 -0.7506
 1878ntf    cn113036   0.392   6.695   0.872  0.0056 -0.0144 -0.1128
 1878ntf    sn213037   0.223   6.629   0.857 -0.0638  0.1876 -0.2302
 1878ntf    nn313038   0.142   6.743   0.928 -0.0196  0.1470 -0.1148
 1878ntf    sn213039   0.040   6.850   0.876  0.0099  0.1693 -0.1270
 1878ntf    cn113040  -0.110   6.750   0.852  0.2086 -0.1838  0.0999
 1878ntf    fn413041   0.483   6.616   0.817  0.1582  0.0139  0.0989
 1878ntf    fn413042   0.406   6.823   0.843  0.3872 -0.0357 -0.0217
 1878ntf    fn413043   0.424   6.698   1.001 -0.2223  0.0382 -0.0569
 1878ntf    on513044   0.213   6.615   0.714  0.0120 -0.4279 -0.1801
 1878ntf    on513045   0.229   6.512   0.941 -0.2428  0.5191  0.2464
 1878ntf    on513046   0.072   6.898   0.744  0.0890  0.6792  0.0760
 1878ntf    on513047  -0.008   6.939   0.978  0.0996 -0.5768  0.5792
 1878ntf    fn413048  -0.097   6.674   0.745  0.0068  0.3942 -0.3375
 1878ntf    fn413049  -0.131   6.663   0.950 -0.4403 -0.6476 -0.4433
 1878ntf    fn413050  -0.225   6.816   0.850  0.4399  0.2072 -0.3102
 1879ntf    cn113051   3.167   5.694   3.274 -0.0194 -0.0229  0.1641
 1879ntf    sn213052   3.301   5.598   3.352  0.1692  0.3051  0.2453
 1879ntf    nn313053   3.275   5.647   3.499 -0.1595 -0.4050  0.4260
 1879ntf    sn213054   3.386   5.717   3.585 -0.1101 -0.1815  0.1840
 1879ntf    cn113055   3.411   5.879   3.507  0.0570 -0.2529  0.0892
 1879ntf    fn413056   3.173   5.824   3.297 -0.0953  0.0001  0.0513
 1879ntf    fn413057   3.178   5.688   3.143  0.1554 -0.1420  0.1832
 1879ntf    fn413058   3.047   5.654   3.310 -0.0125  0.1632  0.3996
 1879ntf    on513059   3.259   5.462   3.330  0.8457  0.1586 -0.1767
 1879ntf    on513060   3.420   5.645   3.285  0.3993 -0.0014  0.4412
 1879ntf    on513061   3.513   5.649   3.594 -0.4451 -0.7784  0.4895
 1879ntf    on513062   3.330   5.751   3.714 -0.1051  0.5986 -0.0156
 1879ntf    fn413063   3.306   5.956   3.532  0.2252 -0.1142  0.3715
 1879ntf    fn413064   3.522   5.946   3.535 -0.2317  0.0732  0.4727
 1879ntf    fn413065   3.421   5.868   3.376  0.6778  0.7596  0.0457
 1880ntf    cn113066   0.681   6.155   6.764  0.0486 -0.0210 -0.0589
 1880ntf    sn213067   0.714   6.240   6.921 -0.3340 -0.1312  0.0836
 1880ntf    nn313068   0.606   6.353   6.909 -0.0472  0.1223 -0.1381
 1880ntf    sn213069   0.631   6.508   6.900  0.0493  0.1145 -0.0063
 1880ntf    cn113070   0.670   6.536   7.075 -0.1247 -0.0382  0.0575
 1880ntf    fn413071   0.766   6.055   6.748 -0.0305 -0.2075  0.6770
 1880ntf    fn413072   0.558   6.107   6.749  0.3202 -1.0091  0.7497
 1880ntf    fn413073   0.702   6.237   6.662  0.4320 -0.5971 -0.4445
 1880ntf    on513074   0.678   6.135   7.013 -0.2431 -0.5889 -0.3949
 1880ntf    on513075   0.853   6.274   6.908 -0.1301 -0.7420  0.6291
 1880ntf    on513076   0.509   6.581   6.879  0.3829  0.4026 -0.9843
 1880ntf    on513077   0.744   6.536   6.815  0.4614 -0.4271  0.3553
 1880ntf    fn413078   0.730   6.653   7.090 -0.1537 -0.0326  0.1336
 1880ntf    fn413079   0.566   6.523   7.155 -0.0365  0.1056  0.1971
 1880ntf    fn413080   0.760   6.447   7.115 -0.1376 -0.1496 -0.1623
 1881ntf    cn113081   2.917   1.664   5.341 -0.0555  0.1131 -0.2991
 1881ntf    sn213082   2.931   1.757   5.496 -0.1888 -0.1293 -0.1401
 1881ntf    nn313083   2.971   1.646   5.600  0.0134 -0.1525 -0.2426
 1881ntf    sn213084   3.114   1.587   5.628  0.0614 -0.0645 -0.3007
 1881ntf    cn113085   3.152   1.664   5.788 -0.3903 -0.0642 -0.1906
 1881ntf    fn413086   3.028   1.595   5.317 -0.2758 -0.2874 -0.1831
 1881ntf    fn413087   2.824   1.570   5.332  0.4779 -0.4824  0.2778
 1881ntf    fn413088   2.891   1.744   5.239 -0.1973  0.3519 -0.0748
 1881ntf    on513089   3.042   1.847   5.475  0.4904 -0.9504 -0.0919
 1881ntf    on513090   2.800   1.808   5.529 -0.0542  0.0274  0.1670
 1881ntf    on513091   3.221   1.631   5.542  0.2768  0.4247  0.2094
 1881ntf    on513092   3.114   1.449   5.669 -0.2262  0.1213  0.3363
 1881ntf    fn413093   3.123   1.793   5.787 -0.4460 -0.0717  0.2685
 1881ntf    fn413094   3.070   1.611   5.877 -0.4864 -0.0210 -0.2538
 1881ntf    fn413095   3.278   1.643   5.825 -0.3328  0.0446 -0.3242
 1882ntf    cn113096   5.726   5.551   0.646  0.3391 -0.5793 -0.0709
 1882ntf    sn213097   5.866   5.654   0.699 -0.0559 -0.1080  0.0658
 1882ntf    nn313098   5.810   5.790   0.755  0.0397 -0.3347  0.7126
 1882ntf    sn213099   5.740   5.907   0.679  0.5673 -0.3455  0.2015
 1882ntf    cn113100   5.884   6.016   0.656 -0.2473  0.6601 -0.2286
 1882ntf    fn413101   5.665   5.593   0.536  0.1965 -0.3623  0.0910
 1882ntf    fn413102   5.770   5.430   0.618 -0.0715 -0.8026  0.2466
 1882ntf    fn413103   5.641   5.537   0.746  0.4171  0.6478  0.1875
 1882ntf    on513104   5.905   5.576   0.813 -0.4904 -0.1176  0.2086
 1882ntf    on513105   5.964   5.664   0.593 -0.0917 -0.1276  0.0303
 1882ntf    on513106   5.656   5.977   0.773  0.2369 -0.8621  0.2963
 1882ntf    on513107   5.703   5.885   0.541 -0.4221  0.2993  0.3511
 1882ntf    fn413108   5.990   5.954   0.608 -0.6151  0.0914 -0.3271
 1882ntf    fn413109   5.859   6.114   0.571 -0.1155  0.4828 -0.4739
 1882ntf    fn413110   5.923   6.070   0.770 -0.0277  0.5904 -0.2706
 1883ntf    cn113111   2.702   0.772   4.379  0.0191  0.3427  0.1874
 1883ntf    sn213112   2.665   0.602   4.433 -0.1281  0.2726 -0.1335
 1883ntf    nn313113   2.790   0.529   4.371 -0.3224 -0.4355  0.2926
 1883ntf    sn213114   2.808   0.405   4.277 -0.1537 -0.1351 -0.0741
 1883ntf    cn113115   2.767   0.285   4.407  0.0186 -0.0669  0.0438
 1883ntf    fn413116   2.643   0.865   4.453 -0.1876  0.4911 -0.1630
 1883ntf    fn413117   2.829   0.807   4.378  0.1709 -0.2009 -0.0674
 1883ntf    fn413118   2.658   0.789   4.256 -0.3287 -0.0109  0.2593
 1883ntf    on513119   2.671   0.618   4.576  0.4611  0.0271 -0.1264
 1883ntf    on513120   2.535   0.566   4.381  0.0704 -0.1859 -0.3142
 1883ntf    on513121   2.947   0.382   4.244  0.0366  0.7556  0.0847
 1883ntf    on513122   2.713   0.386   4.170  0.1505 -0.1426 -0.3450
 1883ntf    fn413123   2.643   0.301   4.451  0.0392 -0.0766  0.1055
 1883ntf    fn413124   2.787   0.163   4.359 -0.5045 -0.1830  0.1213
 1883ntf    fn413125   2.846   0.288   4.514 -0.2978 -0.2142  0.2832
 1884ntf    cn113126   0.816   6.160   1.422  0.3841 -0.1297  0.1735
 1884ntf    sn213127   0.989   6.212   1.407  0.3162  0.1049  0.2101
 1884ntf    nn313128   1.020   6.234   1.560  0.5261 -0.6172  0.2776
 1884ntf    sn213129   1.092   6.357   1.626  0.3758 -0.2071 -0.3061
 1884ntf    cn113130   0.951   6.471   1.618  0.4099 -0.1710 -0.3854
 1884ntf    fn413131   0.752   6.239   1.506  0.4713  0.0092  0.1084
 1884ntf    fn413132   0.764   6.181   1.302 -0.1510 -0.8908  0.2646
 1884ntf    fn413133   0.796   6.032   1.449 -0.3527 -0.2408 -0.8244
 1884ntf    on513134   1.057   6.095   1.356  0.1408  0.2792 -0.4257
 1884ntf    on513135   0.993   6.325   1.317  0.3834  0.1692  0.2938
 1884ntf    on513136   1.194   6.430   1.555  0.5346  0.1834  0.3100
 1884ntf    on513137   1.107   6.342   1.769 -0.3181  0.1241 -0.1946
 1884ntf    fn413138   0.915   6.500   1.494 -0.1253 -0.3513 -0.2735
 1884ntf    fn413139   0.838   6.430   1.674  0.1290 -0.1948 -0.9627
 1884ntf    fn413140   0.972   6.591   1.670  0.3027 -0.0491 -0.6199
 1885ntf    cn113141   6.324   6.345   1.115  0.1510  0.0696  0.0436
 1885ntf    sn213142   6.243   6.399   0.961  0.2769 -0.2481 -0.1338
 1885ntf    nn313143   6.369   6.398   0.867 -0.3494 -0.6474 -0.9825
 1885ntf    sn213144   6.410   6.504   0.758  0.0269 -0.1487 -0.3656
 1885ntf    cn113145   6.393   6.396   0.613  0.0924  0.0733 -0.5372
 1885ntf    fn413146   6.349   6.215   1.122 -0.2605 -0.0172 -0.1062
 1885ntf    fn413147   6.429   6.419   1.148 -0.1115  0.4075  0.1240
 1885ntf    fn413148   6.243   6.356   1.218 -0.0658 -0.3244 -0.0822
 1885ntf    on513149   6.147   6.292   0.949 -0.2274  0.2122 -0.1980
 1885ntf    on513150   6.195   6.525   1.010  0.0835 -0.3117 -0.1594
 1885ntf    on513151   6.549   6.541   0.768 -0.0709  0.2203 -0.3645
 1885ntf    on513152   6.315   6.608   0.730  0.7155  0.2732 -1.1527
 1885ntf    fn413153   6.364   6.272   0.648 -0.2677  0.2854 -0.0828
 1885ntf    fn413154   6.288   6.431   0.541 -0.4183 -0.4760 -0.0618
 1885ntf    fn413155   6.500   6.395   0.534  0.2661 -0.3699 -0.2960
 1886ntf    cn113156   3.859   3.364   6.771 -0.1352  0.0025 -0.2024
 1886ntf    sn213157   3.839   3.196   6.704  0.1098 -0.1145  0.0146
 1886ntf    nn313158   3.741   3.196   6.582  0.1678  0.2035 -0.0305
 1886ntf    sn213159   3.666   3.073   6.519  0.0676 -0.0402  0.5662
 1886ntf    cn113160   3.681   3.114   6.343 -0.0772  0.1757  0.6041
 1886ntf    fn413161   3.931   3.438   6.688  0.4993  0.0593  0.3865
 1886ntf    fn413162   3.744   3.426   6.792 -0.1262 -0.0941  0.1331
 1886ntf    fn413163   3.924   3.356   6.886  0.2082 -0.1256 -0.4012
 1886ntf    on513164   3.972   3.163   6.659  0.1414  0.5992 -0.4215
 1886ntf    on513165   3.789   3.131   6.824  0.2123  0.4263  0.3532
 1886ntf    on513166   3.526   3.071   6.553 -0.3337  0.0635 -1.0228
 1886ntf    on513167   3.733   2.946   6.534 -0.1887 -0.2137  0.2498
 1886ntf    fn413168   3.640   3.009   6.274 -0.4707  0.7208 -0.0053
 1886ntf    fn413169   3.605   3.215   6.303 -0.0685 -0.1314 -0.2104
 1886ntf    fn413170   3.801   3.145   6.299 -0.3968 -0.1673 -0.5536
 1887ntf    cn113171   5.626   2.684   0.228 -0.2768  0.0514  0.3420
 1887ntf    sn213172   5.716   2.761   0.091 -0.1092  0.2202  0.5466
 1887ntf    nn313173   5.671   2.908   0.118  0.0677  0.3516  0.1437
 1887ntf    sn213174   5.553   2.991   0.054  0.1762  0.3246 -0.0909
 1887ntf    cn113175   5.630   3.031  -0.106  0.2579 -0.1834 -0.1813
 1887ntf    fn413176   5.660   2.737   0.344 -0.4727  0.2990  0.2857
 1887ntf    fn413177   5.494   2.698   0.224 -0.3108 -0.2478  0.3460
 1887ntf    fn413178   5.654   2.557   0.253  0.6616  0.1722 -0.0348
 1887ntf    on513179   5.852   2.739   0.133  0.2181  0.3933 -0.3874
 1887ntf    on513180   5.657   2.690  -0.020  0.0592 -0.3994  0.8507
 1887ntf    on513181   5.546   3.124   0.109  0.3901  0.2014  0.2390
 1887ntf    on513182   5.425   2.928   0.038  0.2927  0.1582 -0.3725
 1887ntf    fn413183   5.587   3.148  -0.150  0.1780  0.0812  0.5797
 1887ntf    fn413184   5.759   3.050  -0.085  0.2825 -0.2463 -0.2780
 1887ntf    fn413185   5.597   2.953  -0.208  0.4046 -0.1739 -0.2363
 1888ntf    cn113186   4.029   6.886   6.508  0.0146 -0.1134 -0.1865
 1888ntf    sn213187   4.174   6.994   6.505 -0.1805  0.1620  0.1506
 1888ntf    nn313188   4.154   7.040   6.654  0.2384  0.0827  0.2322
 1888ntf    sn213189   4.243   6.996   6.775  0.3855 -0.3254 -0.0209
 1888ntf    cn113190   4.125   7.058   6.898  0.0741  0.2760 -0.6160
 1888ntf    fn413191   4.017   6.823   6.393 -0.0007  0.3883 -0.4618
 1888ntf    fn413192   4.048   6.785   6.592 -0.0845  0.4893  0.5693
 1888ntf    fn413193   3.913   6.943   6.540  0.1964 -0.0662  0.4091
 1888ntf    on513194   4.280   6.898   6.486 -0.1721  0.3096 -0.5650
 1888ntf    on513195   4.151   7.092   6.401 -0.2298  0.2594  0.2538
 1888ntf    on513196   4.364   7.072   6.802  0.0743  0.2544 -0.2347
 1888ntf    on513197   4.242   6.854   6.800  0.2303 -0.2966  0.1381
 1888ntf    fn413198   4.147   7.022   7.024 -0.4524 -0.0709 -0.6198
 1888ntf    fn413199   4.115   7.190   6.904 -0.0674  0.2430 -0.0686
 1888ntf    fn413200   4.002   7.015   6.874  0.0013  0.0592  0.1132
 1889ntf    cn113201   6.586   5.735   1.088  0.0235 -0.0230 -0.0258
 1889ntf    sn213202   6.529   5.646   1.236 -0.0074 -0.0008 -0.0244
 1889ntf    nn313203   6.568   5.758   1.339 -0.1082  0.1349 -0.1329
 1889ntf    sn213204   6.477   5.831   1.444  0.3032  0.3158  0.1003
 1889ntf    cn113205   6.427   5.979   1.350  0.2385  0.1131 -0.1839
 1889ntf    fn413206   6.493   5.817   1.043  0.3251  0.1858 -0.2734
 1889ntf    fn413207   6.689   5.816   1.105 -0.3450  0.3670  0.3648
 1889ntf    fn413208   6.611   5.657   0.983 -0.5116 -0.1192 -0.0864
 1889ntf    on513209   6.389   5.613   1.222 -0.1174  0.3171  0.3219
 1889ntf    on513210   6.625   5.539   1.238  0.0409  0.0346 -0.4376
 1889ntf    on513211   6.547   5.873   1.563  0.0427  0.2167  0.2902
 1889ntf    on513212   6.356   5.758   1.473  0.4558  0.2021  0.4627
 1889ntf    fn413213   6.351   6.057   1.425  0.4419  0.0202  0.1229
 1889ntf    fn413214   6.535   6.053   1.332  0.5233 -0.1704  0.3285
 1889ntf    fn413215   6.369   5.960   1.232 -0.2699 -0.3296  0.1336
 1890ntf    cn113216   0.031   2.606   0.270  0.0782 -0.1240  0.3355
 1890ntf    sn213217   0.078   2.701   0.123  0.1297 -0.1964  0.3052
 1890ntf    nn313218   0.171   2.812   0.184 -0.1850  0.2175  0.0444
 1890ntf    sn213219   0.322   2.787   0.221 -0.1504  0.1706 -0.1271
 1890ntf    cn113220   0.409   2.834   0.069 -0.3445  0.2309 -0.2200
 1890ntf    fn413221   0.121   2.521   0.317 -0.5333 -0.9314  0.0579
 1890ntf    fn413222   0.014   2.692   0.370  0.5962  0.3244  0.0454
 1890ntf    fn413223  -0.082   2.540   0.255 -0.2811  0.5853 -0.1085
 1890ntf    on513224   0.141   2.611   0.030  0.1969 -0.1847  0.3388
 1890ntf    on513225  -0.041   2.768   0.078  0.0937 -0.3701  0.1388
 1890ntf    on513226   0.366   2.650   0.239 -0.0337  0.0567 -1.2128
 1890ntf    on513227   0.375   2.878   0.320 -0.0966 -0.0890  0.0858
 1890ntf    fn413228   0.363   2.775  -0.039  0.1218 -0.1414 -0.2173
 1890ntf    fn413229   0.398   2.964   0.047 -0.0511  0.4294  0.7660
 1890ntf    fn413230   0.540   2.814   0.069 -0.4117 -0.2282  0.0703
 1891ntf    cn113231   2.632   5.443   1.249  0.4182 -0.0750  0.3489
 1891ntf    sn213232   2.769   5.520   1.341  0.2953  0.4408  0.1040
 1891ntf    nn313233   2.832   5.617   1.234  0.1433  0.6214  0.1766
 1891ntf    sn213234   2.968   5.601   1.156 -0.1848  0.2391 -0.3202
 1891ntf    cn113235   3.074   5.713   1.251  0.0031 -0.0468 -0.1922
 1891ntf    fn413236   2.663   5.357   1.153  0.0723  0.4603 -0.2484
 1891ntf    fn413237   2.540   5.396   1.331 -0.4194  0.5170 -0.2387
 1891ntf    fn413238   2.574   5.540   1.180  0.3690 -0.0563  0.4163
 1891ntf    on513239   2.705   5.604   1.440  0.1037  0.1720  0.2075
 1891ntf    on513240   2.839   5.405   1.394 -0.7335 -0.0011  0.5149
 1891ntf    on513241   2.956   5.676   1.034  0.1247 -0.1127 -0.5673
 1891ntf    on513242   3.040   5.476   1.143  0.1162  0.4259 -0.4363
 1891ntf    fn413243   3.080   5.689   1.381  0.3151 -0.1274 -0.2199
 1891ntf    fn413244   3.202   5.709   1.215 -0.0227 -0.2665 -0.2586
 1891ntf    fn413245   3.030   5.836   1.232  0.1043 -0.0022 -0.1448
 1892ntf    cn113246   1.638   0.752   0.602  0.2163  0.1363 -0.2409
 1892ntf    sn213247   1.623   0.748   0.783 -0.2952  0.2873 -0.2776
 1892ntf    nn313248   1.728   0.633   0.807 -1.2365 -0.5798 -0.2131
 1892ntf    sn213249   1.731   0.510   0.905  0.4198 -0.1204  0.3525
 1892ntf    cn113250   1.871   0.559   1.009 -0.0250  0.6127  0.6188
 1892ntf    fn413251   1.760   0.760   0.553  0.5200 -0.0584  0.4794
 1892ntf    fn413252   1.581   0.645   0.549 -0.1411  0.1464  0.1180
 1892ntf    fn413253   1.577   0.858   0.551 -0.0494 -0.2262 -0.6878
 1892ntf    on513254   1.672   0.877   0.824 -0.4605  0.3784 -0.3636
 1892ntf    on513255   1.488   0.703   0.807 -0.1485  0.0013  0.0175
 1892ntf    on513256   1.763   0.392   0.830 -0.1914 -0.1334  0.1059
 1892ntf    on513257   1.627   0.503   1.005 -0.0085  0.2015 -0.0618
 1892ntf    fn413258   1.899   0.464   1.096 -0.2550 -0.3642 -0.3562
 1892ntf    fn413259   1.977   0.589   0.935 -0.4787 -0.1711 -0.3662
 1892ntf    fn413260   1.841   0.670   1.074 -0.3594  0.9335 -0.0781
 1893ntf    cn113261   6.799   1.767   1.602 -0.1568 -0.0130 -0.1175
 1893ntf    sn213262   6.759   1.590   1.584  0.0111 -0.0984  0.3408
 1893ntf    nn313263   6.602   1.594   1.575  0.0590  0.1387 -0.4505
 1893ntf    sn213264   6.520   1.548   1.449 -0.1093  0.1463 -0.3437
 1893ntf    cn113265   6.385   1.450   1.522 -0.3624  0.2616 -0.6534
 1893ntf    fn413266   6.928   1.787   1.583 -0.1086 -0.2943 -0.0951
 1893ntf    fn413267   6.739   1.841   1.510  0.0169 -0.3257 -0.4901
 1893ntf    fn413268   6.764   1.812   1.721 -0.2799 -0.1377 -0.1057
 1893ntf    on513269   6.820   1.552   1.459 -0.7131 -0.3081  0.0414
 1893ntf    on513270   6.802   1.521   1.703 -0.3772 -0.4950  0.2516
 1893ntf    on513271   6.573   1.454   1.354 -0.5100  0.3301 -0.7487
 1893ntf    on513272   6.460   1.669   1.397 -0.6325 -0.1344 -0.4003
 1893ntf    fn413273   6.320   1.382   1.429 -0.3227 -0.2776 -0.2915
 1893ntf    fn413274   6.420   1.356   1.608  0.5346  0.6278 -0.5984
 1893ntf    fn413275   6.303   1.527   1.592 -0.2733 -0.2623  0.0415
 1894ntf    cn113276   6.774   5.011   1.732 -0.0916  0.2023 -0.1838
 1894ntf    sn213277   6.826   4.946   1.570  0.0873 -0.1386  0.0094
 1894ntf    nn313278   6.966   5.016   1.555  0.0373 -0.0848 -0.2229
 1894ntf    sn213279   7.106   4.948   1.581  0.0099  0.0071  0.1711
 1894ntf    cn113280   7.196   5.088   1.655 -0.2145  0.1869  0.1043
 1894ntf    fn413281   6.783   5.143   1.736  0.0238  0.1823  0.3087
 1894ntf    fn413282   6.648   4.989   1.764 -0.0622  0.2693 -0.0183
 1894ntf    fn413283   6.851   4.962   1.828  0.0777  0.5153 -0.1548
 1894ntf    on513284   6.814   4.804   1.589  0.0615 -0.1684 -0.2296
 1894ntf    on513285   6.721   5.012   1.496  0.1073  0.4795  0.5236
 1894ntf    on513286   7.172   4.912   1.458 -0.8275  0.7775 -0.5267
 1894ntf    on513287   7.111   4.860   1.695  0.7711 -0.4522 -0.2095
 1894ntf    fn413288   7.130   5.147   1.753  0.1548  0.1388  0.3785
 1894ntf    fn413289   7.306   5.044   1.712  0.0512  0.7010 -0.0015
 1894ntf    fn413290   7.230   5.189   1.577  0.0043 -0.3167 -0.4584
 1895ntf    cn113291   1.548   2.987   5.766 -0.1569 -0.3524  0.3177
 1895ntf    sn213292   1.544   2.832   5.672  0.1037 -0.0728 -0.1614
 1895ntf    nn313293   1.459   2.743   5.769 -0.0115 -0.0253 -0.2179
 1895ntf    sn213294   1.492   2.631   5.874  0.0574  0.0349 -0.1754
 1895ntf    cn113295   1.417   2.707   6.021  0.0568  0.0072 -0.1616
 1895ntf    fn413296   1.432   3.026   5.815 -0.5088 -0.2562 -0.5818
 1895ntf    fn413297   1.633   2.985   5.868  0.3773  0.0762 -0.1080
 1895ntf    fn413298   1.594   3.085   5.690  0.2140 -0.2842  0.6264
 1895ntf    on513299   1.480   2.853   5.544  0.1376  1.0557  0.0025
 1895ntf    on513300   1.681   2.788   5.664  0.0520 -0.2478 -0.0862
 1895ntf    on513301   1.630   2.610   5.912  0.0720  0.5500  0.0706
 1895ntf    on513302   1.401   2.521   5.855  0.0163 -0.0627  0.5488
 1895ntf    fn413303   1.388   2.836   6.012  0.8252  0.2142  0.2186
 1895ntf    fn413304   1.300   2.653   6.050 -0.0252  0.3089  0.0830
 1895ntf    fn413305   1.494   2.696   6.128  0.4977 -0.3675 -0.5147
 1896ntf    cn113306   0.774   3.352   3.597  0.2649 -0.1049 -0.0208
 1896ntf    sn213307   0.785   3.286   3.766  0.2624  0.0584  0.0440
 1896ntf    nn313308   0.672   3.379   3.822 -0.2646 -0.7661  0.3786
 1896ntf    sn213309   0.676   3.488   3.935 -0.2217 -0.3457 -0.0253
 1896ntf    cn113310   0.644   3.634   3.832 -0.2458 -0.1826  0.2109
 1896ntf    fn413311   0.659   3.329   3.537  0.3775 -0.9582  0.0884
 1896ntf    fn413312   0.789   3.483   3.609 -0.0627 -0.1147  0.5052
 1896ntf    fn413313   0.867   3.322   3.508  0.1734 -0.2213 -0.0760
 1896ntf    on513314   0.742   3.148   3.762 -0.6248  0.3010  0.9309
 1896ntf    on513315   0.919   3.327   3.800  0.3112  0.1408 -0.2442
 1896ntf    on513316   0.805   3.510   3.996 -0.0976  0.0500 -0.4211
 1896ntf    on513317   0.562   3.480   4.023 -0.2494  0.1755 -0.0103
 1896ntf    fn413318   0.532   3.618   3.764  0.0423  0.1193 -0.3465
 1896ntf    fn413319   0.630   3.745   3.903 -0.0858 -0.0646  0.0603
 1896ntf    fn413320   0.741   3.650   3.743  0.0235 -0.5776  0.4321
 1897ntf    cn113321   0.764   2.887   6.740 -0.1667  0.3748  0.4568
 1897ntf    sn213322   0.854   2.860   6.584 -0.3552  0.0151  0.4106
 1897ntf    nn313323   0.855   2.703   6.585  0.5867  0.0106  0.0784
 1897ntf    sn213324   0.832   2.607   6.463 -0.1146  0.0293  0.1906
 1897ntf    cn113325   0.984   2.639   6.369  0.0771  0.0223  0.4968
 1897ntf    fn413326   0.758   3.016   6.770 -0.3197  0.2947  0.7778
 1897ntf    fn413327   0.642   2.837   6.744 -0.0552  0.0390 -0.2456
 1897ntf    fn413328   0.836   2.830   6.836 -0.3857 -0.2385  0.2603
 1897ntf    on513329   0.766   2.927   6.492  0.2038 -0.1829 -0.2706
 1897ntf    on513330   0.989   2.909   6.603 -0.0870 -0.5718  0.0354
 1897ntf    on513331   0.726   2.639   6.370  0.4248  0.4717 -0.2797
 1897ntf    on513332   0.839   2.468   6.501  0.0935  0.0414  0.2006
 1897ntf    fn413333   1.009   2.540   6.285 -0.2018  0.6419 -0.3317
 1897ntf    fn413334   0.962   2.747   6.296  0.1339 -0.1361  0.2431
 1897ntf    fn413335   1.095   2.651   6.441  0.0958  0.5708  0.3816
 1898ntf    cn113336   5.369   4.818   5.446 -0.2162 -0.1652  0.6975
 1898ntf    sn213337   5.235   4.763   5.336  0.1180 -0.0985  0.2576
 1898ntf    nn313338   5.116   4.741   5.435  0.4551 -0.0862  0.6674
 1898ntf    sn213339   5.071   4.598   5.482  0.3947 -0.2479  0.1210
 1898ntf    cn113340   4.925   4.646   5.579  0.1987  0.2131 -0.3933
 1898ntf    fn413341   5.487   4.839   5.391 -0.1894  0.0342  0.8294
 1898ntf    fn413342   5.337   4.930   5.508 -0.2503  0.2891 -0.1302
 1898ntf    fn413343   5.384   4.717   5.531 -0.1531 -0.2953  0.5330
 1898ntf    on513344   5.210   4.880   5.255  0.2295 -0.1680  0.1223
 1898ntf    on513345   5.288   4.645   5.273 -0.1524 -0.1033  0.0395
 1898ntf    on513346   5.160   4.539   5.578  0.5530 -0.6155 -0.2494
 1898ntf    on513347   5.007   4.508   5.389 -0.9117  0.3845  0.3714
 1898ntf    fn413348   4.964   4.666   5.704  0.3872  0.0338 -0.4240
 1898ntf    fn413349   4.864   4.756   5.539  0.2465  0.3991  0.0389
 1898ntf    fn413350   4.837   4.547   5.584  0.3848  0.0417 -0.5009
 1899ntf    cn113351   5.143   2.901   2.422 -0.5618 -0.1627  0.1760
 1899ntf    sn213352   5.286   2.987   2.494 -0.4940  0.0709 -0.2367
 1899ntf    nn313353   5.208   3.039   2.619  0.4254  0.2614  0.2685
 1899ntf    sn213354   5.133   3.176   2.641  0.0379  0.1466 -0.3161
 1899ntf    cn113355   4.984   3.117   2.727  0.1351  0.1764 -0.1259
 1899ntf    fn413356   5.072   2.821   2.500 -0.8505 -0.0993 -0.0215
 1899ntf    fn413357   5.059   2.989   2.370 -0.0421  0.4046  0.2838
 1899ntf    fn413358   5.183   2.828   2.318  0.0191  0.5859 -0.1383
 1899ntf    on513359   5.382   2.881   2.515 -0.6604  0.0530  0.4534
 1899ntf    on513360   5.317   3.083   2.391 -0.3608  0.4944  0.1946
 1899ntf    on513361   5.075   3.250   2.532  0.4082  0.6162 -0.1982
 1899ntf    on513362   5.193   3.247   2.751 -0.5038 -0.7177  0.5510
 1899ntf    fn413363   4.883   3.195   2.691  0.0716  0.3218  0.3656
 1899ntf    fn413364   4.948   2.997   2.686  0.1897  0.0186  0.2900
 1899ntf    fn413365   4.991   3.122   2.859  0.1779 -0.2216 -0.1116
 1900ntf    cn113366   1.531   4.983   0.370 -0.1312  0.2549  0.0939
 1900ntf    sn213367   1.451   4.864   0.482 -0.1829  0.3876  0.1976
 1900ntf    nn313368   1.349   4.955   0.560 -0.2487  0.2192  0.3076
 1900ntf    sn213369   1.376   5.019   0.701  0.0723  0.1737  0.2679
 1900ntf    cn113370   1.243   5.143   0.699 -0.1509 -0.0673  0.1984
 1900ntf    fn413371   1.651   4.944   0.331 -0.0267  0.1338  0.5350
 1900ntf    fn413372   1.451   4.990   0.265  0.4373 -0.0693 -0.3649
 1900ntf    fn413373   1.534   5.110   0.406 -0.0632  0.4715 -0.6671
 1900ntf    on513374   1.377   4.776   0.395  0.5838 -0.9300  0.8551
 1900ntf    on513375   1.563   4.809   0.554 -0.2536  0.5708  0.4515
 1900ntf    on513376   1.499   5.094   0.709 -0.0693  0.4347  0.0190
 1900ntf    on513377   1.349   4.928   0.809 -0.1777  0.4097  0.4057
 1900ntf    fn413378   1.119   5.096   0.702  0.0062 -0.4566  1.0593
 1900ntf    fn413379   1.245   5.221   0.806  0.7814 -0.2318  0.3088
 1900ntf    fn413380   1.240   5.226   0.597  0.6549 -0.0770  0.1619
 1901ntf    cn113381   0.123   1.654   0.986  0.0506  0.2717  0.2982
 1901ntf    sn213382  -0.023   1.732   1.059 -0.2470  0.2114 -0.2258
 1901ntf    nn313383  -0.143   1.717   0.959 -0.2856  0.4549 -0.2166
 1901ntf    sn213384  -0.243   1.597   0.949  0.4197 -0.1933  0.4221
 1901ntf    cn113385  -0.406   1.678   0.947  0.3274 -0.3859  0.0208
 1901ntf    fn413386   0.240   1.678   1.043  0.2967 -0.4075  0.1008
 1901ntf    fn413387   0.100   1.524   0.973  0.4704  0.2667 -0.5166
 1901ntf    fn413388   0.144   1.688   0.860  0.3530 -0.6095  0.0998
 1901ntf    on513389  -0.046   1.666   1.186 -0.0430 -0.2841 -0.4454
 1901ntf    on513390   0.025   1.867   1.071 -0.3298  0.2054  0.1999
 1901ntf    on513391  -0.248   1.509   1.063  0.2634 -0.2187  0.3958
 1901ntf    on513392  -0.233   1.550   0.813 -0.0436  0.1244  0.2735
 1901ntf    fn413393  -0.510   1.596   0.942  0.2430 -0.2765 -0.0223
 1901ntf    fn413394  -0.427   1.760   1.049  0.1919 -0.5513  0.1261
 1901ntf    fn413395  -0.407   1.756   0.841  0.5733  0.0023  0.2994
 1902ntf    cn113396   0.004   5.044   2.318  0.0120  0.1136 -0.2644
 1902ntf    sn213397  -0.132   5.069   2.437  0.0649  0.2828 -0.2392
 1902ntf    nn313398  -0.059   4.987   2.549 -0.0853  0.1447 -0.2426
 1902ntf    sn213399  -0.061   4.831   2.567 -0.1622  0.1497 -0.2053
 1902ntf    cn113400  -0.194   4.798   2.686  0.0824  0.0433  0.0424
 1902ntf    fn413401   0.008   5.142   2.229 -0.4274  0.6921  0.3440
 1902ntf    fn413402   0.125   5.048   2.372 -0.0573 -0.4224 -0.0594
 1902ntf    fn413403   0.006   4.931   2.249  0.6017  0.2007 -0.3929
 1902ntf    on513404  -0.129   5.207   2.476  0.4549  0.3403 -0.4628
 1902ntf    on513405  -0.254   5.010   2.386  0.1551  0.0068 -0.1374
 1902ntf    on513406   0.052   4.773   2.635 -0.0667  0.4013 -0.1495
 1902ntf    on513407  -0.109   4.751   2.456 -0.5922  0.2460 -0.0900
 1902ntf    fn413408  -0.227   4.670   2.694  0.1303  0.0020 -0.3982
 1902ntf    fn413409  -0.170   4.841   2.809 -0.2369  0.3772 -0.0073
 1902ntf    fn413410  -0.307   4.856   2.647  0.4842  0.4506 -0.5229
 1903ntf    cn113411   4.242   6.287   6.176 -0.0333 -0.0516  0.1129
 1903ntf    sn213412   4.256   6.243   6.000  0.0680 -0.0596  0.1227
 1903ntf    nn313413   4.266   6.087   6.014 -0.0343 -0.0756  0.0236
 1903ntf    sn213414   4.158   5.998   5.943  0.1066 -0.3092  0.1055
 1903ntf    cn113415   4.243   5.840   5.976 -0.0042 -0.3647  0.1263
 1903ntf    fn413416   4.354   6.260   6.241  0.1214 -0.1308 -0.1875
 1903ntf    fn413417   4.235   6.418   6.189  0.1690 -0.0435  0.1407
 1903ntf    fn413418   4.140   6.228   6.235 -0.2419 -0.5877 -0.7655
 1903ntf    on513419   4.137   6.298   5.938  0.1812  0.7791  0.6222
 1903ntf    on513420   4.380   6.307   5.964 -0.1560  0.5816  0.4730
 1903ntf    on513421   4.165   6.007   5.799 -0.0162  0.6999  0.1599
 1903ntf    on513422   4.030   5.991   6.008 -0.2234  0.1589 -0.4864
 1903ntf    fn413423   4.350   5.824   5.899 -0.5316 -0.1332 -0.6673
 1903ntf    fn413424   4.272   5.835   6.105 -0.4716 -0.4194  0.2297
 1903ntf    fn413425   4.163   5.739   5.950 -0.1607 -0.1626 -0.1807
 1904ntf    cn113426   1.869   1.370   2.140  0.3323  0.8649  0.2806
 1904ntf    sn213427   1.819   1.544   2.137  0.1960  0.8186 -0.3682
 1904ntf    nn313428   1.706   1.532   2.246  0.1550  0.2189 -0.4734
 1904ntf    sn213429   1.556   1.576   2.235 -0.0315 -0.3149 -0.0969
 1904ntf    cn113430   1.539   1.679   2.384  0.4838 -0.3702  0.0014
 1904ntf    fn413431   1.938   1.340   2.032  0.1913 -0.5864  0.5694
 1904ntf    fn413432   1.940   1.332   2.245  0.3595 -0.0736 -0.0617
 1904ntf    fn413433   1.764   1.289   2.140  0.5146  0.6267 -0.1783
 1904ntf    on513434   1.922   1.627   2.195  0.1580  0.7020 -0.1291
 1904ntf    on513435   1.782   1.566   2.000 -0.6784 -0.6264 -0.3842
 1904ntf    on513436   1.466   1.467   2.264 -0.6800  0.0116 -0.8131
 1904ntf    on513437   1.509   1.660   2.127  0.4423 -0.1637 -0.1857
 1904ntf    fn413438   1.641   1.763   2.397 -0.1464  0.3856  0.1456
 1904ntf    fn413439   1.430   1.754   2.377  0.3688 -0.4854  0.5260
 1904ntf    fn413440   1.532   1.615   2.499 -0.1106 -0.1502  0.0918
 1905ntf    cn113441   4.217   4.145   5.681 -0.6611  0.0116 -0.0201
 1905ntf    sn213442   4.273   4.282   5.786  0.1594 -0.3057 -0.0353
 1905ntf    nn313443   4.366   4.348   5.678  0.4407  0.0708  0.4328
 1905ntf    sn213444   4.518   4.319   5.655  0.3253 -0.1205 -0.1177
 1905ntf    cn113445   4.553   4.421   5.509  0.6720 -0.1136 -0.0317
 1905ntf    fn413446   4.176   4.181   5.561 -0.3801  0.0092 -0.1172
 1905ntf    fn413447   4.320   4.063   5.665  0.0282  0.7116  0.7801
 1905ntf    fn413448   4.115   4.080   5.735 -0.5282  0.0436  0.2725
 1905ntf    on513449   4.155   4.361   5.809  0.2388 -0.4289  0.8046
 1905ntf    on513450   4.340   4.219   5.896  0.2992  0.1020  0.1151
 1905ntf    on513451   4.549   4.180   5.627  0.4612 -0.0902 -0.1207
 1905ntf    on513452   4.607   4.383   5.749  0.4949 -0.3242 -0.1368
 1905ntf    fn413453   4.480   4.384   5.405  0.4141  0.2219  0.0306
 1905ntf    fn413454   4.525   4.547   5.534  0.1639 -0.2155 -0.0836
 1905ntf    fn413455   4.678   4.423   5.465  0.7778  0.0485  0.2766
 1906ntf    cn113456   1.394   6.024   1.086 -0.1502  0.0740  0.1294
 1906ntf    sn213457   1.535   5.956   0.993 -0.1438 -0.0627  0.2388
 1906ntf    nn313458   1.461   5.881   0.877 -0.4022  0.1943  0.2354
 1906ntf    sn213459   1.431   5.727   0.872 -0.0285  0.1241  0.1124
 1906ntf    cn113460   1.295   5.718   0.752  0.0485  0.0047  0.0336
 1906ntf    fn413461   1.300   5.931   1.088 -0.1164  0.0346 -0.1204
 1906ntf    fn413462   1.423   6.041   1.214 -0.0378  0.1441  0.0945
 1906ntf    fn413463   1.340   6.131   1.030 -0.4203 -0.1747 -0.0854
 1906ntf    on513464   1.593   6.070   0.928 -0.0366 -0.2570 -0.0075
 1906ntf    on513465   1.616   5.884   1.088 -0.2221  0.0089  0.3596
 1906ntf    on513466   1.368   5.666   0.986 -0.5528 -0.1795 -0.3355
 1906ntf    on513467   1.534   5.646   0.810 -0.0796  0.4171 -0.3555
 1906ntf    fn413468   1.193   5.800   0.771 -0.1155 -0.1979  0.0246
 1906ntf    fn413469   1.336   5.723   0.626 -0.1712  0.5390 -0.0192
 1906ntf    fn413470   1.250   5.594   0.761 -0.5219  0.2032  0.0034
 1907ntf    cn113471   2.846   4.501   1.515  0.0376 -0.0033 -0.3354
 1907ntf    sn213472   2.903   4.659   1.585  0.3644 -0.3321  0.1432
 1907ntf    nn313473   2.872   4.652   1.739 -0.2617 -0.1475  0.0268
 1907ntf    sn213474   2.749   4.710   1.818  0.0230  0.2696  0.1640
 1907ntf    cn113475   2.835   4.856   1.884  0.1679  0.2347  0.0538
 1907ntf    fn413476   2.939   4.407   1.504  0.1846  0.0889  0.1060
 1907ntf    fn413477   2.751   4.442   1.586 -0.2328  0.8711  0.0478
 1907ntf    fn413478   2.797   4.522   1.394 -0.4413  0.1837 -0.1110
 1907ntf    on513479   3.044   4.659   1.555  0.3596 -0.1789  0.1187
 1907ntf    on513480   2.827   4.755   1.509  0.2799 -0.6741 -0.2044
 1907ntf    on513481   2.732   4.642   1.944 -0.2461  0.1621  0.0695
 1907ntf    on513482   2.633   4.755   1.746 -0.2676  0.2487  0.6179
 1907ntf    fn413483   2.946   4.833   1.953  0.0712 -0.3666  0.0110
 1907ntf    fn413484   2.875   4.933   1.784  0.2380  0.3774  0.1900
 1907ntf    fn413485   2.755   4.931   1.958  0.1089  0.3256 -0.1013
 1908ntf    cn113486   4.874   2.418   2.085  0.4402  0.2631  0.2696
 1908ntf    sn213487   5.034   2.343   2.128  0.3040 -0.1355  0.0799
 1908ntf    nn313488   5.119   2.364   1.997  0.1340  0.0710  0.0035
 1908ntf    sn213489   5.275   2.361   1.988  0.1591 -0.1848  0.4982
 1908ntf    cn113490   5.288   2.220   1.874 -0.3064  0.2591 -0.1064
 1908ntf    fn413491   4.812   2.362   1.983  0.0749  0.2408  0.5019
 1908ntf    fn413492   4.786   2.402   2.183  0.1752 -0.7480 -0.1275
 1908ntf    fn413493   4.879   2.547   2.058 -0.2898  0.1181 -0.5951
 1908ntf    on513494   5.078   2.417   2.243  0.2194  0.0428 -0.0035
 1908ntf    on513495   4.997   2.207   2.161 -0.6352  0.0821 -0.0443
 1908ntf    on513496   5.346   2.306   2.101 -0.3466 -0.4640  0.6848
 1908ntf    on513497   5.340   2.472   1.922 -0.0348 -0.0296  0.5690
 1908ntf    fn413498   5.409   2.169   1.880 -0.2474  0.3849 -0.2325
 1908ntf    fn413499   5.199   2.124   1.897  0.0054 -0.0286 -0.1024
 1908ntf    fn413500   5.270   2.250   1.746  0.2050 -0.3144 -0.3211
 1909ntf    cn113501   3.284   2.720   1.783  0.0090  0.0744  0.6601
 1909ntf    sn213502   3.315   2.863   1.891 -0.1645  0.4292  0.2429
 1909ntf    nn313503   3.170   2.883   1.949 -0.2486 -0.1178  0.2301
 1909ntf    sn213504   3.101   3.020   1.981  0.1247  0.1626 -0.1496
 1909ntf    cn113505   2.999   3.018   1.831  0.1561  0.0743 -0.1699
 1909ntf    fn413506   3.297   2.604   1.845  0.2019 -0.0056  0.4749
 1909ntf    fn413507   3.164   2.727   1.729  0.3994 -0.0489 -0.2510
 1909ntf    fn413508   3.361   2.701   1.676 -0.1148 -0.1411  0.6090
 1909ntf    on513509   3.408   2.797   1.979  0.3355  0.5464 -0.1932
 1909ntf    on513510   3.347   2.962   1.792  0.2516  0.3500  0.2984
 1909ntf    on513511   3.169   3.146   1.972  0.1594  0.1973  0.5170
 1909ntf    on513512   3.005   3.004   2.088 -0.1223  0.2210 -0.3628
 1909ntf    fn413513   3.066   2.976   1.725  0.1977 -0.5764  0.1102
 1909ntf    fn413514   2.907   2.925   1.848  0.2592  0.0618  0.3397
 1909ntf    fn413515   2.947   3.135   1.796  0.0420  0.1620  0.2936
 1910ntf    cn113516   1.648   4.340   1.741 -0.1475  0.1962 -0.1094
 1910ntf    sn213517   1.582   4.478   1.643  0.1934  0.2905 -0.2077
 1910ntf    nn313518   1.625   4.419   1.504 -0.2647 -0.0719 -0.1992
 1910ntf    sn213519   1.540   4.422   1.373  0.1901 -0.1620 -0.5002
 1910ntf    cn113520   1.620   4.553   1.277  0.3157 -0.0728 -0.2729
 1910ntf    fn413521   1.677   4.368   1.867  0.1951  0.2450 -0.1989
 1910ntf    fn413522   1.562   4.239   1.736 -0.3309  0.3338  0.2657
 1910ntf    fn413523   1.759   4.284   1.696  0.1842  0.5166  0.3092
 1910ntf    on513524   1.441   4.476   1.675  0.1127 -0.5132 -0.5966
 1910ntf    on513525   1.654   4.594   1.690  0.0589  0.0440  0.6223
 1910ntf    on513526   1.402   4.463   1.383  0.2683 -0.1056  0.4791
 1910ntf    on513527   1.571   4.305   1.294  1.0241 -0.0535 -0.3357
 1910ntf    fn413528   1.637   4.663   1.348 -0.4001  0.0043 -0.2175
 1910ntf    fn413529   1.739   4.516   1.232  0.7965  0.0127  0.8871
 1910ntf    fn413530   1.548   4.583   1.170  0.0724 -0.4054 -0.2018
 1911ntf    cn113531   0.674   4.486   1.036  0.3373 -0.3400 -0.1950
 1911ntf    sn213532   0.566   4.630   1.009  0.3911 -0.2080  0.2923
 1911ntf    nn313533   0.477   4.573   0.893  0.3634 -0.4237  0.4177
 1911ntf    sn213534   0.321   4.561   0.879  0.3290  0.2647  0.1797
 1911ntf    cn113535   0.305   4.390   0.937 -0.4622  0.3325  0.1776
 1911ntf    fn413536   0.620   4.366   1.054 -0.1781 -0.1278 -0.2985
 1911ntf    fn413537   0.761   4.476   0.936  0.7387  0.1259  0.1024
 1911ntf    fn413538   0.747   4.498   1.145 -0.4924  0.8384  0.2492
 1911ntf    on513539   0.498   4.651   1.135 -0.1393  0.1922 -0.0611
 1911ntf    on513540   0.652   4.736   0.964 -0.2997  0.0792 -0.3581
 1911ntf    on513541   0.285   4.565   0.740  0.1384 -0.0903  0.2199
 1911ntf    on513542   0.244   4.649   0.964  0.1889  0.1207  0.2005
 1911ntf    fn413543   0.374   4.301   0.866 -0.0415  0.7043  0.1174
 1911ntf    fn413544   0.355   4.375   1.059  0.0340  0.3827 -0.0176
 1911ntf    fn413545   0.183   4.340   0.944  0.0209 -0.9868 -0.3452
 1912ntf    cn113546   5.758   3.848   6.000 -0.1948 -0.5201  0.3739
 1912ntf    sn213547   5.702   3.676   6.021  0.0711 -0.6234  0.2375
 1912ntf    nn313548   5.717   3.648   6.175 -0.0786 -0.6039  0.2561
 1912ntf    sn213549   5.850   3.632   6.257  0.2736  0.0768 -0.1755
 1912ntf    cn113550   5.858   3.451   6.243 -0.1298  0.1024 -0.7820
 1912ntf    fn413551   5.711   3.939   6.085  0.3589 -0.2667  0.4168
 1912ntf    fn413552   5.889   3.867   6.009 -0.2742  0.2200  0.0642
 1912ntf    fn413553   5.724   3.894   5.881 -0.1888 -0.2264  0.4837
 1912ntf    on513554   5.563   3.695   5.987  0.3095  0.1730 -0.3197
 1912ntf    on513555   5.792   3.598   5.940 -0.2422 -0.1025 -0.6278
 1912ntf    on513556   5.834   3.658   6.398 -0.1260  0.2505 -0.2507
 1912ntf    on513557   5.970   3.692   6.202  0.5924  0.3766  0.8247
 1912ntf    fn413558   5.969   3.390   6.282 -0.6891 -0.1604  0.4403
 1912ntf    fn413559   5.766   3.388   6.314  0.3352  0.2348 -0.0519
 1912ntf    fn413560   5.837   3.399   6.123  0.1565 -0.2692 -0.6755
 1913ntf    cn113561   6.321   4.829   2.615  0.0257  0.0652 -0.2878
 1913ntf    sn213562   6.238   4.918   2.751 -0.0298 -0.0284 -0.2605
 1913ntf    nn313563   6.102   4.978   2.700  0.0803  0.2690 -0.2113
 1913ntf    sn213564   6.078   5.063   2.571 -0.0974  0.6531  0.0747
 1913ntf    cn113565   6.109   5.229   2.638  0.5245  0.5523  0.0402
 1913ntf    fn413566   6.388   4.719   2.644  0.0421  0.1311 -0.0725
 1913ntf    fn413567   6.226   4.787   2.534 -0.1071 -0.4916  0.1497
 1913ntf    fn413568   6.408   4.908   2.554 -0.1248  0.0579 -0.5100
 1913ntf    on513569   6.219   4.825   2.858 -0.5086 -0.1751 -0.4695
 1913ntf    on513570   6.323   5.032   2.776 -0.0041 -0.0741 -0.1406
 1913ntf    on513571   5.935   5.071   2.550 -0.0631  0.6156 -0.1869
 1913ntf    on513572   6.158   5.052   2.451 -0.0985  0.2010  0.1145
 1913ntf    fn413573   6.015   5.252   2.728  0.0454 -0.3060 -0.2356
 1913ntf    fn413574   6.222   5.245   2.705  0.1674  1.1854  0.5066
 1913ntf    fn413575   6.103   5.330   2.552  0.4504  0.8174  0.3535
 1914ntf    cn113576   2.180   5.793   6.816 -0.2270 -0.3122 -0.1613
 1914ntf    sn213577   2.306   5.923   6.826 -0.1049 -0.4617  0.2759
 1914ntf    nn313578   2.280   5.998   6.691 -0.2014 -0.0499  0.5234
 1914ntf    sn213579   2.298   6.153   6.668 -0.1146 -0.1265  0.0713
 1914ntf    cn113580   2.463   6.155   6.590 -0.2400  0.0264 -0.1914
 1914ntf    fn413581   2.053   5.829   6.821 -0.3595 -0.6419 -0.9088
 1914ntf    fn413582   2.189   5.731   6.699  0.0209  0.4483 -0.5538
 1914ntf    fn413583   2.201   5.705   6.912  0.2702  0.4232  0.4148
 1914ntf    on513584   2.268   6.001   6.941  0.1297 -0.5359  0.4056
 1914ntf    on513585   2.432   5.852   6.829  0.3986  0.3940 -0.0970
 1914ntf    on513586   2.325   6.234   6.784  0.3366  0.3072 -0.3298
 1914ntf    on513587   2.204   6.202   6.570 -0.6652 -0.8763  0.2096
 1914ntf    fn413588   2.483   6.074   6.488  0.1491 -0.1720  0.0374
 1914ntf    fn413589   2.493   6.272   6.537  1.0677 -0.0355  0.3603
 1914ntf    fn413590   2.556   6.135   6.683 -0.3310  0.2616 -0.0488
 1915ntf    cn113591   5.085   5.644   3.521 -0.1119 -0.3387 -0.6915
 1915ntf    sn213592   4.995   5.796   3.567 -0.1124 -0.4697 -0.2636
 1915ntf    nn313593   5.016   5.875   3.434  0.2676  0.0214  0.0838
 1915ntf    sn213594   5.119   5.991   3.408  0.4294 -0.1698 -0.1335
 1915ntf    cn113595   5.002   6.130   3.417  0.3542 -0.2453  0.0514
 1915ntf    fn413596   5.033   5.567   3.427 -0.7125 -1.2687  0.3777
 1915ntf    fn413597   5.208   5.676   3.483 -0.0102  0.1788  0.0505
 1915ntf    fn413598   5.108   5.562   3.622 -0.0198  0.3978 -0.1070
 1915ntf    on513599   4.861   5.744   3.579 -0.0861 -0.5617 -0.3735
 1915ntf    on513600   5.053   5.845   3.690 -0.6992 -0.1705 -0.1055
 1915ntf    on513601   5.168   5.999   3.272  0.5576  0.6939 -0.0431
 1915ntf    on513602   5.215   6.021   3.512 -0.1459  0.4625  0.2211
 1915ntf    fn413603   5.054   6.251   3.408 -0.0928 -0.1044 -0.6849
 1915ntf    fn413604   4.915   6.122   3.318 -0.5141  0.4101  0.7487
 1915ntf    fn413605   4.922   6.114   3.521 -0.4612  0.2426 -0.4880
 1916ntf    cn113606   0.168   2.804   4.924 -0.0488 -0.5370  0.0047
 1916ntf    sn213607   0.245   2.766   5.084 -0.1348 -0.0310  0.1670
 1916ntf    nn313608   0.169   2.631   5.113 -0.4269  0.1058  0.0405
 1916ntf    sn213609   0.060   2.603   5.223 -0.2386  0.0112  0.2037
 1916ntf    cn113610  -0.081   2.576   5.111  0.0548 -0.3136 -0.0885
 1916ntf    fn413611   0.094   2.699   4.889 -0.6054 -0.1178 -0.0892
 1916ntf    fn413612   0.087   2.908   4.932  0.9353  0.2254  0.1359
 1916ntf    fn413613   0.248   2.838   4.824 -0.5522 -1.0056 -0.5705
 1916ntf    on513614   0.386   2.745   5.067 -0.0955 -0.3489  0.8507
 1916ntf    on513615   0.208   2.881   5.163 -0.0243 -0.2451  0.5319
 1916ntf    on513616   0.015   2.703   5.316  0.0425 -0.2679  0.6404
 1916ntf    on513617   0.066   2.469   5.276  0.2602  0.0328  0.2078
 1916ntf    fn413618  -0.197   2.554   5.169  0.0197 -0.4637 -0.2152
 1916ntf    fn413619  -0.088   2.677   5.026 -0.3624 -0.0021  0.3109
 1916ntf    fn413620  -0.066   2.468   5.035 -0.2995 -0.5151  0.1265
 1917ntf    cn113621   1.131   3.605   4.759 -0.6427  0.2204 -0.2367
 1917ntf    sn213622   1.020   3.463   4.734 -0.1667 -0.2181  0.1114
 1917ntf    nn313623   1.119   3.341   4.733 -0.0335 -0.1087 -0.0129
 1917ntf    sn213624   1.085   3.197   4.784  0.0516  0.0228  0.4215
 1917ntf    cn113625   1.169   3.187   4.945  0.2107 -0.5964  0.3056
 1917ntf    fn413626   1.248   3.585   4.700 -0.2494  0.0967  0.5698
 1917ntf    fn413627   1.076   3.716   4.713 -0.4747  0.4096  0.0114
 1917ntf    fn413628   1.146   3.628   4.889 -1.0734 -0.5083 -0.0499
 1917ntf    on513629   0.938   3.475   4.852  0.0171  0.2789  0.1919
 1917ntf    on513630   0.968   3.491   4.603  0.5593 -0.1845 -0.1705
 1917ntf    on513631   1.165   3.100   4.713 -0.0535  0.1858  0.0776
 1917ntf    on513632   0.951   3.158   4.820 -0.0242 -0.2934 -0.1834
 1917ntf    fn413633   1.300   3.184   4.927  0.1966  0.4902 -0.0755
 1917ntf    fn413634   1.150   3.291   5.025  0.3256 -0.5919  0.3273
 1917ntf    fn413635   1.141   3.080   5.016 -0.0953 -0.5046  0.3264
 1918ntf    cn113636   5.478   2.622   3.834 -0.1224  0.0553  0.2244
 1918ntf    sn213637   5.634   2.666   3.918 -0.0329 -0.1238  0.1520
 1918ntf    nn313638   5.725   2.566   3.838  0.8794  0.2986  0.6555
 1918ntf    sn213639   5.846   2.574   3.738  0.4938  0.3042  0.1860
 1918ntf    cn113640   5.983   2.557   3.857  0.2039  0.4938  0.5469
 1918ntf    fn413641   5.476   2.674   3.712  0.0096  0.7214  0.4987
 1918ntf    fn413642   5.469   2.492   3.815  0.0658  0.1456 -0.5278
 1918ntf    fn413643   5.365   2.657   3.892 -0.0548  0.4008  0.1568
 1918ntf    on513644   5.657   2.805   3.886  0.1492 -0.1948 -0.0261
 1918ntf    on513645   5.592   2.627   4.050  0.5246  0.5105  0.5200
 1918ntf    on513646   5.871   2.693   3.661 -0.0022 -0.0849 -0.5910
 1918ntf    on513647   5.852   2.451   3.663  0.1284  0.0870  0.5041
 1918ntf    fn413648   5.972   2.452   3.937  0.2115 -0.3047 -0.4789
 1918ntf    fn413649   6.100   2.545   3.798 -0.0911  0.3168 -0.0060
 1918ntf    fn413650   5.995   2.668   3.929  0.5269  0.3859  0.6602
 1919ntf    cn113651   2.766   0.003   3.280  0.0349 -0.0588 -0.1729
 1919ntf    sn213652   2.669   0.110   3.391  0.0388 -0.2119 -0.0202
 1919ntf    nn313653   2.717   0.251   3.340  0.1436 -0.1079  0.3588
 1919ntf    sn213654   2.723   0.386   3.419  0.4578  0.0594  0.0561
 1919ntf    cn113655   2.890   0.389   3.491  0.4933  0.2337 -0.0331
 1919ntf    fn413656   2.756  -0.126   3.306 -0.3407  0.1344  0.6784
 1919ntf    fn413657   2.743   0.021   3.151  0.5377  0.2394 -0.2231
 1919ntf    fn413658   2.896   0.020   3.295  0.0062  0.3025 -0.3420
 1919ntf    on513659   2.533   0.076   3.360 -0.0375  0.0332  0.0444
 1919ntf    on513660   2.713   0.066   3.521  0.4238 -0.2668 -0.1656
 1919ntf    on513661   2.632   0.395   3.531  0.0263 -0.5105 -0.2429
 1919ntf    on513662   2.710   0.495   3.326  0.2122 -0.1101 -0.1109
 1919ntf    fn413663   2.986   0.400   3.401  0.4854  0.1092 -0.0565
 1919ntf    fn413664   2.907   0.492   3.572 -0.0494  0.2148  0.1121
 1919ntf    fn413665   2.922   0.278   3.557  0.1438 -0.2440 -0.6526
 1920ntf    cn113666   5.052   0.324   0.492  0.0627  0.4607 -0.6091
 1920ntf    sn213667   5.233   0.314   0.492  0.0491  0.1520  0.4437
 1920ntf    nn313668   5.246   0.331   0.648 -0.5099 -0.0033  0.5096
 1920ntf    sn213669   5.344   0.427   0.723  0.0014 -0.0660 -0.0679
 1920ntf    cn113670   5.499   0.334   0.701 -0.0311 -0.1080 -0.1129
 1920ntf    fn413671   5.004   0.434   0.547  0.1843  0.1176  0.1964
 1920ntf    fn413672   5.010   0.317   0.366 -0.0759 -0.6726 -0.5076
 1920ntf    fn413673   4.990   0.224   0.553 -0.4246  0.8467 -0.4644
 1920ntf    on513674   5.260   0.180   0.446 -0.3652  0.4100 -0.5760
 1920ntf    on513675   5.263   0.419   0.398 -0.3179  0.3033  0.4933
 1920ntf    on513676   5.317   0.437   0.865  0.5011  0.0510  0.0222
 1920ntf    on513677   5.363   0.556   0.661  0.1800 -0.0689 -0.0216
 1920ntf    fn413678   5.488   0.202   0.710 -0.3058 -0.0516  0.3936
 1920ntf    fn413679   5.556   0.347   0.582  0.1961 -0.1288 -0.0073
 1920ntf    fn413680   5.587   0.367   0.793  0.0159 -0.1177 -0.1539
 1921ntf    cn113681   1.341   1.126   1.631 -0.1984 -0.0763  0.4932
 1921ntf    sn213682   1.294   0.964   1.565 -0.2228  0.1104  0.0524
 1921ntf    nn313683   1.174   1.004   1.472 -0.2006 -0.0809 -0.0596
 1921ntf    sn213684   1.023   0.981   1.508 -0.1622 -0.0865  0.0977
 1921ntf    cn113685   1.001   0.801   1.517 -0.2452 -0.0939 -0.2301
 1921ntf    fn413686   1.356   1.216   1.535 -0.7704 -0.5768 -0.0761
 1921ntf    fn413687   1.251   1.171   1.717  0.2002  0.6197  0.5551
 1921ntf    fn413688   1.452   1.127   1.703 -0.3852  0.9480  0.7859
 1921ntf    on513689   1.416   0.938   1.492 -0.4075  0.1802 -0.2859
 1921ntf    on513690   1.259   0.883   1.679  0.0835 -0.3234 -0.1597
 1921ntf    on513691   0.943   1.019   1.394 -0.0422  0.4496  0.1868
 1921ntf    on513692   0.967   1.036   1.629  0.6827 -0.5975  0.7245
 1921ntf    fn413693   0.881   0.748   1.497 -0.1554 -0.1823 -0.5431
 1921ntf    fn413694   1.085   0.736   1.438 -0.1134 -0.0323 -0.1410
 1921ntf    fn413695   1.026   0.753   1.638  0.1321  0.0521 -0.2485
 1922ntf    cn113696   0.012   1.786   3.575  0.0164  0.0691 -0.7446
 1922ntf    sn213697   0.189   1.788   3.530  0.0865  0.2613 -0.4643
 1922ntf    nn313698   0.179   1.899   3.420  0.2992  0.6373 -0.1078
 1922ntf    sn213699   0.215   1.887   3.268 -0.1225 -0.2003 -0.1485
 1922ntf    cn113700   0.396   1.875   3.266 -0.1216 -0.1651 -0.2962
 1922ntf    fn413701  -0.025   1.904   3.622  0.2255 -0.0301 -0.3213
 1922ntf    fn413702  -0.058   1.767   3.465 -0.0720 -0.5363 -0.5887
 1922ntf    fn413703  -0.030   1.694   3.661 -0.2666 -0.0322 -0.9911
 1922ntf    on513704   0.267   1.843   3.638 -0.8620  0.5465  0.0925
 1922ntf    on513705   0.219   1.654   3.486 -0.4343 -0.0987  0.2500
 1922ntf    on513706   0.193   2.020   3.216 -0.1229  0.0616  0.5209
 1922ntf    on513707   0.163   1.775   3.193  0.2911 -0.7019  0.3105
 1922ntf    fn413708   0.440   1.758   3.309 -0.1478  0.1264  0.5426
 1922ntf    fn413709   0.434   1.884   3.139  0.1080 -0.6717 -0.2641
 1922ntf    fn413710   0.451   1.967   3.344 -0.1777  0.0127 -0.4656
 1923ntf    cn113711   4.877   4.973   2.413 -0.5333  0.3637  0.6195
 1923ntf    sn213712   4.713   4.898   2.390 -0.1326 -0.2795 -0.1793
 1923ntf    nn313713   4.726   4.829   2.249 -0.9955 -0.1914 -0.3059
 1923ntf    sn213714   4.803   4.693   2.238 -0.0027  0.3347 -0.0884
 1923ntf    cn113715   4.663   4.589   2.290  0.1778  0.2484  0.2258
 1923ntf    fn413716   4.950   4.903   2.498 -0.0636  0.9783  0.7356
 1923ntf    fn413717   4.956   4.966   2.307 -0.6051  0.4256  0.5619
 1923ntf    fn413718   4.871   5.101   2.447  0.5446  0.4763  0.4406
 1923ntf    on513719   4.692   4.818   2.508 -0.5133  0.0649 -0.0137
 1923ntf    on513720   4.630   5.013   2.367 -0.3399 -0.3612  0.1596
 1923ntf    on513721   4.916   4.671   2.324  0.1731  0.1131 -0.3747
 1923ntf    on513722   4.813   4.672   2.096  0.1614 -0.0816 -0.0160
 1923ntf    fn413723   4.645   4.490   2.205 -0.1223  0.6304 -0.1585
 1923ntf    fn413724   4.671   4.538   2.412 -0.3391 -0.5114 -0.0469
 1923ntf    fn413725   4.546   4.650   2.278  0.0383  0.0045  0.3253
 1924ntf    cn113726   0.874   5.894   3.674 -0.1708 -0.7967  0.2997
 1924ntf    sn213727   0.822   6.046   3.759  0.0232 -0.4096 -0.2665
 1924ntf    nn313728   0.892   6.151   3.666 -0.2995  0.0146 -0.0314
 1924ntf    sn213729   0.864   6.305   3.657  0.2889  0.1330  0.1508
 1924ntf    cn113730   0.758   6.303   3.510 -0.0299  0.2506  0.3778
 1924ntf    fn413731   0.813   5.784   3.716 -0.9562 -0.6067 -0.3157
 1924ntf    fn413732   0.852   5.902   3.543  0.2849  0.3683  0.2869
 1924ntf    fn413733   1.005   5.881   3.685 -0.1181 -0.2326  0.3767
 1924ntf    on513734   0.678   6.048   3.757  0.0102 -0.3058  0.5316
 1924ntf    on513735   0.881   6.035   3.890 -0.5781  0.1758  0.0550
 1924ntf    on513736   0.984   6.378   3.622  0.0105  0.7129  0.3876
 1924ntf    on513737   0.786   6.361   3.765 -0.2907 -0.0722 -0.1612
 1924ntf    fn413738   0.728   6.428   3.477 -0.2980  0.1791  0.3492
 1924ntf    fn413739   0.831   6.258   3.409  0.2586  0.0405  0.6804
 1924ntf    fn413740   0.646   6.234   3.517  0.1576 -0.1450 -0.4499
 1925ntf    cn113741   1.413   6.613   2.569  0.1816  0.0877 -0.2653
 1925ntf    sn213742   1.471   6.477   2.676 -0.1430  0.0536 -0.1303
 1925ntf    nn313743   1.384   6.487   2.806  1.1182 -0.3051  0.7601
 1925ntf    sn213744   1.323   6.382   2.906 -0.2328 -0.1742  0.0968
 1925ntf    cn113745   1.159   6.341   2.840 -0.2016 -0.0566 -0.0562
 1925ntf    fn413746   1.439   6.737   2.607 -0.0389  0.1203 -0.2202
 1925ntf    fn413747   1.443   6.596   2.442  0.8877 -0.7536 -0.0003
 1925ntf    fn413748   1.281   6.613   2.567  0.1678 -0.0153  0.4365
 1925ntf    on513749   1.446   6.362   2.593 -0.0785  0.3591 -0.5807
 1925ntf    on513750   1.608   6.516   2.703 -0.0881 -0.0676 -0.2294
 1925ntf    on513751   1.286   6.450   3.028  0.3241 -0.0357  0.1922
 1925ntf    on513752   1.390   6.255   2.921 -0.5634 -0.3359  0.2049
 1925ntf    fn413753   1.074   6.442   2.839 -0.2968 -0.1415 -0.8940
 1925ntf    fn413754   1.155   6.284   2.721 -0.1252 -0.5289  0.1655
 1925ntf    fn413755   1.100   6.256   2.922 -0.0984 -0.5009 -0.4374
 1926ntf    cn113756   6.594   0.421   1.759  0.3966  0.2081 -0.0143
 1926ntf    sn213757   6.658   0.258   1.711 -0.1460  0.0568 -0.2280
 1926ntf    nn313758   6.807   0.302   1.685  0.0650 -0.2836  0.3847
 1926ntf    sn213759   6.923   0.234   1.604 -0.2919 -0.6214  0.1548
 1926ntf    cn113760   7.014   0.151   1.737  0.0302 -0.1508  0.2305
 1926ntf    fn413761   6.481   0.431   1.826  0.5585 -0.3600  0.3541
 1926ntf    fn413762   6.683   0.476   1.840  0.3462  0.2081  0.0408
 1926ntf    fn413763   6.577   0.499   1.654  0.5302  0.1504 -0.0797
 1926ntf    on513764   6.643   0.186   1.835  0.1791  0.7150  0.1993
 1926ntf    on513765   6.585   0.226   1.591  0.1865  0.4844 -0.5452
 1926ntf    on513766   7.012   0.335   1.551 -0.5315 -0.1799  0.5812
 1926ntf    on513767   6.890   0.126   1.515  0.3129 -0.4984 -0.2208
 1926ntf    fn413768   7.139   0.117   1.711  0.2006  0.0573  0.7650
 1926ntf    fn413769   7.026   0.229   1.843  0.2248  0.1397 -0.0021
 1926ntf    fn413770   6.943   0.049   1.782 -0.1655 -0.0519  0.1486
 1927ntf    cn113771   3.374   0.396   3.797  0.1471 -0.0969 -0.2108
 1927ntf    sn213772   3.479   0.537   3.844 -0.0120 -0.1220  0.2204
 1927ntf    nn313773   3.382   0.657   3.820 -0.0704 -0.2109  0.0091
 1927ntf    sn213774   3.296   0.734   3.926  0.1380  0.1455 -0.0756
 1927ntf    cn113775   3.426   0.844   3.988  0.2665  0.1579 -0.3694
 1927ntf    fn413776   3.439   0.281   3.790 -0.3599 -0.3617 -0.6293
 1927ntf    fn413777   3.270   0.384   3.878  0.1021  0.5957 -0.1640
 1927ntf    fn413778   3.323   0.415   3.676 -0.3739  0.0793  0.0372
 1927ntf    on513779   3.529   0.512   3.977 -0.0571 -0.5169  0.1648
 1927ntf    on513780   3.579   0.537   3.740  0.0976  0.1569  0.3261
 1927ntf    on513781   3.257   0.639   4.028  0.3025 -0.1459 -0.2815
 1927ntf    on513782   3.202   0.827   3.870 -0.2443  0.1329  0.5264
 1927ntf    fn413783   3.457   0.945   3.908  0.1583  0.5226  0.0482
 1927ntf    fn413784   3.396   0.899   4.104  0.3796  0.4721 -0.4888
 1927ntf    fn413785   3.548   0.791   3.996  0.4459  0.6657  0.3927
 1928ntf    cn113786   3.522   5.007   1.259  0.1271 -0.2640 -0.5511
 1928ntf    sn213787   3.407   4.908   1.158 -0.2488 -0.1704 -0.2168
 1928ntf    nn313788   3.513   4.838   1.066 -0.3585 -0.3976 -0.1709
 1928ntf    sn213789   3.498   4.796   0.915 -0.1083 -0.0862 -0.2838
 1928ntf    cn113790   3.578   4.931   0.825  0.1868 -0.2240 -0.2270
 1928ntf    fn413791   3.557   5.121   1.202  0.2528 -0.1906 -0.3265
 1928ntf    fn413792   3.454   5.035   1.369 -0.4072 -0.1213 -0.9141
 1928ntf    fn413793   3.618   4.933   1.311 -0.0063  0.0052  0.0871
 1928ntf    on513794   3.347   4.816   1.252  0.4969 -0.1113  0.3333
 1928ntf    on513795   3.343   5.018   1.092  0.0540  0.1322 -0.0088
 1928ntf    on513796   3.363   4.798   0.863 -0.0554  0.2952 -0.4093
 1928ntf    on513797   3.578   4.683   0.875 -0.0220 -0.0628 -0.1791
 1928ntf    fn413798   3.549   4.929   0.696  0.6706 -0.0122 -0.3432
 1928ntf    fn413799   3.527   5.043   0.873  0.5807 -0.1797  0.1002
 1928ntf    fn413800   3.709   4.939   0.846 -0.0708  0.2749  1.2836
 1929ntf    cn113801   4.558   2.849   1.208 -0.2582  0.0872  0.2713
 1929ntf    sn213802   4.530   2.694   1.116 -0.1769  0.3660 -0.2286
 1929ntf    nn313803   4.642   2.606   1.182 -0.3605  0.2159 -0.1143
 1929ntf    sn213804   4.624   2.496   1.292 -0.0373  0.1515 -0.1251
 1929ntf    cn113805   4.575   2.359   1.183  0.0575 -0.2287  0.3056
 1929ntf    fn413806   4.682   2.889   1.188 -0.1975 -0.4077 -0.3847
 1929ntf    fn413807   4.476   2.948   1.175  0.5586  0.8082  0.3632
 1929ntf    fn413808   4.553   2.842   1.340 -0.2914  0.0325  0.2673
 1929ntf    on513809   4.397   2.651   1.150  0.3516 -1.1275  0.0149
 1929ntf    on513810   4.554   2.731   0.979  0.0747 -0.0970 -0.3120
 1929ntf    on513811   4.519   2.517   1.389 -0.2437 -0.1546 -0.2829
 1929ntf    on513812   4.753   2.457   1.345 -0.0234  0.3528 -0.0092
 1929ntf    fn413813   4.458   2.380   1.124  0.0491 -0.7376  0.1396
 1929ntf    fn413814   4.661   2.338   1.085  0.0546  0.1226  0.2228
 1929ntf    fn413815   4.567   2.245   1.249 -0.0161 -0.3723  0.0467
 1930ntf    cn113816   1.337   2.430   2.856  0.1193 -0.1709  0.0245
 1930ntf    sn213817   1.348   2.251   2.828  0.0551 -0.1665 -0.0285
 1930ntf    nn313818   1.502   2.221   2.840  0.1464  0.1977 -0.3019
 1930ntf    sn213819   1.602   2.208   2.720  0.2201 -0.0175 -0.2166
 1930ntf    cn113820   1.587   2.030   2.684  0.5177 -0.1413  0.2587
 1930ntf    fn413821   1.396   2.477   2.965 -0.2933 -0.5172  0.4000
 1930ntf    fn413822   1.392   2.499   2.758  0.2777 -0.1613  0.1189
 1930ntf    fn413823   1.211   2.468   2.860  0.1860  0.0675 -0.1006
 1930ntf    on513824   1.275   2.193   2.938  0.8740 -0.0819  0.5644
 1930ntf    on513825   1.286   2.221   2.701  0.1503 -0.5297  0.0081
 1930ntf    on513826   1.738   2.226   2.765  0.2455  0.7143 -0.5707
 1930ntf    on513827   1.572   2.272   2.594 -0.0225 -0.3582 -0.3336
 1930ntf    fn413828   1.472   2.010   2.621  0.4826  0.0790  0.2500
 1930ntf    fn413829   1.686   1.995   2.605  0.0865 -0.2320 -0.2496
 1930ntf    fn413830   1.579   1.962   2.797 -0.3135  0.1411  0.3839
 1931ntf    cn113831   3.821   1.926   5.480 -0.6510 -0.3277 -0.0283
 1931ntf    sn213832   3.767   2.061   5.588 -0.1128 -0.0606 -0.0869
 1931ntf    nn313833   3.617   2.065   5.543 -0.1191 -0.6605 -0.1167
 1931ntf    sn213834   3.484   2.030   5.620 -0.1272  0.2419  0.2902
 1931ntf    cn113835   3.474   2.183   5.718 -0.5750  0.4605 -0.0901
 1931ntf    fn413836   3.819   1.955   5.351  0.0306  0.2896  0.0929
 1931ntf    fn413837   3.944   1.887   5.510 -0.3453  0.0290 -0.7783
 1931ntf    fn413838   3.733   1.829   5.494 -0.0190 -0.9914 -0.5586
 1931ntf    on513839   3.779   2.019   5.726 -0.2316 -0.0271 -0.0658
 1931ntf    on513840   3.846   2.172   5.540 -0.1099 -0.0183  0.0134
 1931ntf    on513841   3.480   1.919   5.712  0.2517 -0.3743 -0.4231
 1931ntf    on513842   3.369   2.045   5.534  0.0405 -0.4790 -0.0686
 1931ntf    fn413843   3.357   2.205   5.775 -0.5265 -0.3474  0.3294
 1931ntf    fn413844   3.564   2.186   5.815 -0.5667  0.6796 -0.1052
 1931ntf    fn413845   3.495   2.287   5.639  0.7767  0.5069  0.2988
 1932ntf    cn113846   4.314   1.940   1.818  0.3707  0.2846 -0.0874
 1932ntf    sn213847   4.390   1.796   1.736  0.0371 -0.0930  0.2600
 1932ntf    nn313848   4.391   1.835   1.583 -0.5820 -0.7321  0.0864
 1932ntf    sn213849   4.506   1.817   1.477 -0.4649  0.0211  0.0793
 1932ntf    cn113850   4.606   1.966   1.503 -0.3879 -0.0272  0.0563
 1932ntf    fn413851   4.280   1.897   1.938  0.0988  0.1766 -0.2035
 1932ntf    fn413852   4.395   2.043   1.838 -0.0776  0.5350  0.4794
 1932ntf    fn413853   4.211   1.989   1.752 -0.1544 -0.4163  0.2006
 1932ntf    on513854   4.513   1.789   1.809  0.6791  0.2075 -0.7704
 1932ntf    on513855   4.284   1.703   1.764  0.3747 -0.6176 -0.1904
 1932ntf    on513856   4.450   1.842   1.346 -0.4049 -0.7982 -0.1108
 1932ntf    on513857   4.599   1.709   1.502 -0.5259 -0.2420 -0.7901
 1932ntf    fn413858   4.679   2.005   1.399 -0.6049 -0.1326 -0.1368
 1932ntf    fn413859   4.531   2.070   1.534 -0.4085 -0.0682  0.1442
 1932ntf    fn413860   4.695   1.939   1.597 -0.8015  0.5846  0.6380
 1933ntf    cn113861   2.666   2.402   0.392  0.1906  0.0975 -0.0589
 1933ntf    sn213862   2.638   2.518   0.529 -0.0691  0.0576 -0.0783
 1933ntf    nn313863   2.704   2.449   0.653  0.2325 -0.4346 -0.5077
 1933ntf    sn213864   2.784   2.523   0.766 -0.3593 -0.1553 -0.2640
 1933ntf    cn113865   2.950   2.510   0.692 -0.1779  0.4333  0.0328
 1933ntf    fn413866   2.608   2.432   0.276  0.0522  0.0930  0.0096
 1933ntf    fn413867   2.796   2.380   0.381  0.0816 -0.6566  0.1597
 1933ntf    fn413868   2.626   2.280   0.424  0.0830  0.1424 -0.0234
 1933ntf    on513869   2.705   2.636   0.481  0.1995  0.1451  0.5059
 1933ntf    on513870   2.494   2.531   0.535 -0.0390  0.3738  0.0112
 1933ntf    on513871   2.806   2.448   0.887 -0.6837 -0.1848 -0.2238
 1933ntf    on513872   2.768   2.665   0.781  0.0937 -0.1039 -0.2386
 1933ntf    fn413873   3.009   2.392   0.696 -0.0483  0.4679 -0.6310
 1933ntf    fn413874   2.957   2.550   0.565  0.2586  0.0467 -0.0673
 1933ntf    fn413875   3.029   2.591   0.761  0.5767 -0.2849  0.0256
 1934ntf    cn113876   4.866   4.538   0.580 -0.6029  0.4253 -0.1272
 1934ntf    sn213877   4.895   4.695   0.667  0.1329  0.2499 -0.0492
 1934ntf    nn313878   4.854   4.786   0.547 -0.5563  0.0250  0.0098
 1934ntf    sn213879   4.933   4.855   0.430 -0.0205 -0.2851  0.1866
 1934ntf    cn113880   4.856   5.018   0.453 -0.2523 -0.3547 -0.0950
 1934ntf    fn413881   4.867   4.426   0.650 -0.1993  0.1574 -0.5561
 1934ntf    fn413882   4.758   4.527   0.506 -0.5946  0.0307 -0.0836
 1934ntf    fn413883   4.961   4.524   0.489  0.0594 -0.0481  0.6182
 1934ntf    on513884   4.790   4.690   0.766 -0.1989  0.1511 -0.4062
 1934ntf    on513885   5.029   4.687   0.722  0.1029  0.2360  0.0214
 1934ntf    on513886   4.887   4.816   0.299  0.5032 -0.9193  0.1822
 1934ntf    on513887   5.071   4.894   0.446 -0.1248 -0.0514  0.5205
 1934ntf    fn413888   4.922   5.091   0.541 -0.7446  0.0257 -0.0380
 1934ntf    fn413889   4.853   5.099   0.348  0.2287 -0.4558 -0.1893
 1934ntf    fn413890   4.734   5.004   0.503 -0.5037 -0.2433 -0.6728
 1935ntf    cn113891   2.912   4.218   0.742 -0.2166 -0.0872 -0.0651
 1935ntf    sn213892   2.762   4.293   0.671 -0.2531  0.2649  0.3775
 1935ntf    nn313893   2.651   4.199   0.730  0.1203 -0.6502 -0.3540
 1935ntf    sn213894   2.572   4.220   0.864  0.2709 -0.2937 -0.3206
 1935ntf    cn113895   2.444   4.320   0.783  0.2558 -0.1794 -0.1559
 1935ntf    fn413896   2.947   4.108   0.677  0.3605  0.2947 -0.4113
 1935ntf    fn413897   3.017   4.298   0.726 -0.1788 -0.1747 -0.2625
 1935ntf    fn413898   2.894   4.189   0.869  0.1077 -0.6613 -0.1500
 1935ntf    on513899   2.763   4.427   0.723 -0.3551  0.1596  0.6544
 1935ntf    on513900   2.780   4.272   0.529 -0.0450  0.1551  0.4198
 1935ntf    on513901   2.627   4.314   0.959  0.1733 -0.1811 -0.3756
 1935ntf    on513902   2.515   4.098   0.916 -0.9281  0.1013 -0.6884
 1935ntf    fn413903   2.389   4.265   0.676  0.7712 -0.0777 -0.4715
 1935ntf    fn413904   2.341   4.360   0.856 -0.0152 -0.5735 -0.3135
 1935ntf    fn413905   2.506   4.429   0.742  0.0348  0.0808  0.1986
 1936ntf    cn113906   5.010   5.624   0.937 -0.8287  0.1248  0.1188
 1936ntf    sn213907   5.073   5.545   1.088 -0.1692  0.3054 -0.0613
 1936ntf    nn313908   5.114   5.674   1.169 -0.4423  0.2357  0.1900
 1936ntf    sn213909   5.259   5.712   1.215 -0.1835 -0.4408 -0.0478
 1936ntf    cn113910   5.227   5.864   1.309  0.5246 -0.5379  0.3626
 1936ntf    fn413911   5.020   5.541   0.834  0.0663 -0.1725  0.4421
 1936ntf    fn413912   4.883   5.658   0.953 -0.9525 -0.4005  0.2776
 1936ntf    fn413913   5.078   5.733   0.907 -0.8424 -0.0453 -0.5500
 1936ntf    on513914   4.957   5.484   1.147  0.0742 -0.4267 -0.3333
 1936ntf    on513915   5.179   5.460   1.040 -0.2564 -0.0330  0.3445
 1936ntf    on513916   5.352   5.758   1.115 -0.1602 -0.7637 -0.1742
 1936ntf    on513917   5.308   5.619   1.314  0.4727 -0.2531 -0.1906
 1936ntf    fn413918   5.221   5.970   1.230  0.2244 -0.3201  0.6708
 1936ntf    fn413919   5.112   5.851   1.373  0.3308 -0.0846  0.1165
 1936ntf    fn413920   5.321   5.894   1.396  0.3547  0.1194  0.3306
 1937ntf    cn113921   6.782   6.233   5.600  0.0035  0.0742  0.0509
 1937ntf    sn213922   6.804   6.084   5.498  0.0936 -0.0556  0.2600
 1937ntf    nn313923   6.742   5.972   5.589 -0.0850 -0.1913 -0.0279
 1937ntf    sn213924   6.657   5.844   5.560 -0.5117  0.0771  0.0258
 1937ntf    cn113925   6.695   5.751   5.712 -0.2043  0.2424  0.0503
 1937ntf    fn413926   6.837   6.347   5.560 -0.9147  0.5404  0.0979
 1937ntf    fn413927   6.654   6.264   5.615  0.0042  0.1984 -0.2044
 1937ntf    fn413928   6.815   6.210   5.726 -0.2385  0.4590  0.1867
 1937ntf    on513929   6.724   6.125   5.386  0.1967 -0.2220  0.1243
 1937ntf    on513930   6.947   6.078   5.479  0.1110  0.4518  0.2122
 1937ntf    on513931   6.707   5.754   5.459 -0.2469 -0.4832  0.6447
 1937ntf    on513932   6.516   5.874   5.561 -0.5960 -0.3086 -0.0394
 1937ntf    fn413933   6.649   5.809   5.821  0.2467  1.0949 -0.2032
 1937ntf    fn413934   6.629   5.636   5.703  0.4854 -0.1596  0.0495
 1937ntf    fn413935   6.823   5.725   5.735 -0.4673 -0.8833  0.3030
 1938ntf    cn113936   5.783   4.990   0.503 -0.0888 -0.0577  0.2265
 1938ntf    sn213937   5.723   4.820   0.475  0.0850 -0.0609 -0.1388
 1938ntf    nn313938   5.610   4.813   0.584  0.1302  0.4293 -0.0562
 1938ntf    sn213939   5.622   4.809   0.740  0.1655 -0.1343 -0.0700
 1938ntf    cn113940   5.454   4.868   0.774  0.1478 -0.4409  0.3704
 1938ntf    fn413941   5.859   5.034   0.404 -0.0270  0.1175  0.3517
 1938ntf    fn413942   5.685   5.076   0.521 -0.4735 -0.4025 -0.1790
 1938ntf    fn413943   5.874   4.993   0.600 -0.1780  0.8203  0.2828
 1938ntf    on513944   5.677   4.815   0.338 -0.0140 -0.1593 -0.1017
 1938ntf    on513945   5.832   4.732   0.507  0.1883  0.1875  0.1941
 1938ntf    on513946   5.706   4.914   0.793 -0.2689  0.3024 -0.2348
 1938ntf    on513947   5.632   4.675   0.791  0.5943 -0.3288 -0.6530
 1938ntf    fn413948   5.448   4.898   0.903 -0.1298 -0.2415  0.3117
 1938ntf    fn413949   5.421   4.971   0.698  0.1980 -0.3431  0.4799
 1938ntf    fn413950   5.362   4.780   0.737 -0.1559  0.0125  0.0415
 1939ntf    cn113951   1.736   2.754   0.466  0.2705 -0.0488  0.2133
 1939ntf    sn213952   1.890   2.754   0.369  0.1763 -0.0922  0.0623
 1939ntf    nn313953   1.834   2.798   0.229 -0.2708 -0.0171  0.2614
 1939ntf    sn213954   1.740   2.720   0.130  0.2308  0.1064 -0.3180
 1939ntf    cn113955   1.857   2.680  -0.003  0.2861 -0.3674 -0.1267
 1939ntf    fn413956   1.716   2.864   0.536 -0.3763  0.1285 -0.2429
 1939ntf    fn413957   1.632   2.747   0.384  0.4103 -0.4149  0.0658
 1939ntf    fn413958   1.722   2.655   0.552 -0.5707  0.0314  0.1814
 1939ntf    on513959   1.967   2.854   0.441 -0.0184 -0.0089  0.1559
 1939ntf    on513960   1.940   2.619   0.374 -0.1205 -0.2043  0.0415
 1939ntf    on513961   1.650   2.806   0.058 -0.3457  0.1116  0.3951
 1939ntf    on513962   1.692   2.594   0.179  0.4681 -0.0345 -0.4427
 1939ntf    fn413963   1.983   2.662   0.036  0.4088 -0.2748 -0.4784
 1939ntf    fn413964   1.829   2.566  -0.065 -0.5048 -0.3905  0.2600
 1939ntf    fn413965   1.861   2.765  -0.104 -0.0834 -0.1570  0.0321
 1940ntf    cn113966   4.213   1.495   5.697  0.0772  0.0058  0.0291
 1940ntf    sn213967   4.321   1.622   5.623 -0.1542  0.1198 -0.1138
 1940ntf    nn313968   4.380   1.534   5.507 -0.1350 -0.4183  0.2983
 1940ntf    sn213969   4.465   1.402   5.511  0.2438 -0.1833  0.0782
 1940ntf    cn113970   4.598   1.440   5.392  0.3272  0.1842  0.2885
 1940ntf    fn413971   4.153   1.539   5.807 -0.9847  0.1853 -0.6028
 1940ntf    fn413972   4.116   1.456   5.617  0.0215  0.0269  0.0851
 1940ntf    fn413973   4.277   1.382   5.720  0.1599 -0.1221 -0.8200
 1940ntf    on513974   4.226   1.718   5.573  0.1208  0.2739 -0.3438
 1940ntf    on513975   4.410   1.661   5.729 -0.4151  0.4714 -0.0237
 1940ntf    on513976   4.388   1.298   5.447 -0.3334  0.1789  0.1742
 1940ntf    on513977   4.535   1.380   5.635  0.2912  0.5867  0.1943
 1940ntf    fn413978   4.670   1.546   5.425  0.5308  0.1923 -0.1808
 1940ntf    fn413979   4.679   1.336   5.379 -0.0880 -0.1650  0.4563
 1940ntf    fn413980   4.555   1.465   5.269  0.5762 -0.0060  0.1632
 1941ntf    cn113981   4.366   0.493   5.745  0.1774 -0.3860 -0.5492
 1941ntf    sn213982   4.448   0.336   5.786  0.3775 -0.0615  0.3113
 1941ntf    nn313983   4.485   0.362   5.936 -0.3140  0.9827  0.3158
 1941ntf    sn213984   4.385   0.345   6.056 -0.1794  0.1072  0.3139
 1941ntf    cn113985   4.416   0.174   6.110 -0.1544 -0.0897 -0.3101
 1941ntf    fn413986   4.295   0.490   5.633 -0.7396 -0.6310  0.0251
 1941ntf    fn413987   4.282   0.532   5.840  0.3966 -0.3076 -0.3863
 1941ntf    fn413988   4.447   0.596   5.731 -0.1144 -0.0751  0.0057
 1941ntf    on513989   4.347   0.238   5.754  0.1902  0.2336 -0.0083
 1941ntf    on513990   4.564   0.337   5.701 -0.1857 -0.3783 -0.4719
 1941ntf    on513991   4.245   0.345   6.020  0.0162 -0.7057 -0.4829
 1941ntf    on513992   4.427   0.424   6.169 -0.1942  0.0548  0.3568
 1941ntf    fn413993   4.468   0.093   6.019  0.2561 -0.3696  0.1644
 1941ntf    fn413994   4.496   0.171   6.216 -0.6681  0.3669  0.0960
 1941ntf    fn413995   4.305   0.112   6.145 -0.2856  0.1774 -0.2462
 1942ntf    cn113996   4.936   1.559   6.576  0.0488 -0.3868  0.2632
 1942ntf    sn213997   5.088   1.615   6.493  0.0449 -0.3125  0.3057
 1942ntf    nn313998   5.190   1.559   6.599  0.0779 -0.6600  0.0907
 1942ntf    sn213999   5.327   1.618   6.646 -0.2228  0.1763 -0.0655
 1942ntf    cn114000   5.364   1.501   6.780 -0.2416  0.4391  0.1686
 1942ntf    fn414001   4.826   1.591   6.510  0.2406  0.0174  0.1345
 1942ntf    fn414002   4.943   1.429   6.602 -0.3851 -0.4208  0.2223
 1942ntf    fn414003   4.932   1.621   6.693 -0.0972 -0.0597  0.0877
 1942ntf    on514004   5.099   1.540   6.371  0.3503  0.4614 -0.1464
 1942ntf    on514005   5.063   1.756   6.483  0.0519 -0.3001  0.4618
 1942ntf    on514006   5.324   1.746   6.711  0.5423  0.0597  0.2119
 1942ntf    on514007   5.432   1.586   6.551  0.0803 -0.2904  0.4241
 1942ntf    fn414008   5.306   1.526   6.897 -0.2849  0.4251  0.1505
 1942ntf    fn414009   5.334   1.375   6.752  0.0851  0.3974 -0.0023
 1942ntf    fn414010   5.491   1.512   6.813 -0.1544  0.0624 -0.0320
 1943ntf    cn114011   3.981   4.582   1.932  0.0058  0.1900 -0.5376
 1943ntf    sn214012   3.955   4.702   2.066  0.1125 -0.5195  0.1332
 1943ntf    nn314013   3.832   4.788   2.018  0.3310 -0.3749 -0.1699
 1943ntf    sn214014   3.824   4.922   1.936  0.2931 -0.2048  0.1118
 1943ntf    cn114015   3.807   5.048   2.066  0.2450  0.0265 -0.1174
 1943ntf    fn414016   3.864   4.545   1.885 -0.0067 -0.7237  0.1812
 1943ntf    fn414017   4.055   4.630   1.833 -0.0597  0.6388 -0.3681
 1943ntf    fn414018   4.046   4.475   1.977 -0.2425  0.3752  0.2907
 1943ntf    on514019   3.922   4.614   2.175 -0.7868 -0.3517  0.0023
 1943ntf    on514020   4.083   4.768   2.061 -0.0962 -0.1498 -0.6280
 1943ntf    on514021   3.704   4.943   1.858  0.3600 -0.2205  0.0042
 1943ntf    on514022   3.947   4.953   1.867  0.2055  0.1225  0.1022
 1943ntf    fn414023   3.726   5.014   2.165  0.4351 -0.0509  0.0114
 1943ntf    fn414024   3.928   5.071   2.113 -0.0500  0.3429  0.4987
 1943ntf    fn414025   3.766   5.160   2.010  0.4764 -0.0063 -0.3564
 1944ntf    cn114026   1.618   5.728   2.312  0.2548  0.1589 -0.0155
 1944ntf    sn214027   1.612   5.547   2.299  0.0279  0.1694 -0.0757
 1944ntf    nn314028   1.694   5.528   2.166 -0.5551 -0.1182 -0.3986
 1944ntf    sn214029   1.845   5.489   2.151 -0.4969  0.0852 -0.3372
 1944ntf    cn114030   1.906   5.573   2.001  0.3782 -0.3002 -0.2022
 1944ntf    fn414031   1.518   5.772   2.387 -0.2182 -0.2371 -0.4017
 1944ntf    fn414032   1.729   5.770   2.369  0.1839 -0.5834  0.6793
 1944ntf    fn414033   1.608   5.789   2.195 -0.4476 -0.0294 -0.0603
 1944ntf    on514034   1.668   5.493   2.420 -0.3808 -0.7573 -0.2950
 1944ntf    on514035   1.471   5.518   2.288  0.0866 -0.0989 -0.1352
 1944ntf    on514036   1.859   5.351   2.114  0.6418 -0.0210  0.4172
 1944ntf    on514037   1.933   5.536   2.256 -0.3063 -0.6535 -0.1630
 1944ntf    fn414038   1.855   5.509   1.897 -0.0261 -0.3573  0.0288
 1944ntf    fn414039   1.869   5.699   1.987 -0.2254 -0.4565 -0.0556
 1944ntf    fn414040   2.038   5.567   1.991  0.3967 -0.1327 -0.0698
 1945ntf    cn114041   3.294   0.692   2.005 -0.1291  0.4537  0.1554
 1945ntf    sn214042   3.270   0.773   2.166 -0.1406 -0.0892  0.4295
 1945ntf    nn314043   3.158   0.682   2.228 -0.2086 -0.4830 -0.2685
 1945ntf    sn214044   3.012   0.734   2.252  0.1259  0.2145  0.2972
 1945ntf    cn114045   3.025   0.801   2.420 -0.5687 -0.0822  0.4731
 1945ntf    fn414046   3.313   0.562   2.023  0.0680  0.4762  0.1140
 1945ntf    fn414047   3.187   0.694   1.927  0.1441 -0.2030 -0.2410
 1945ntf    fn414048   3.386   0.754   1.932 -0.3706  0.3784 -0.2151
 1945ntf    on514049   3.399   0.754   2.227  0.5166  0.5726 -0.7225
 1945ntf    on514050   3.239   0.909   2.128 -0.0756 -0.2686 -0.2841
 1945ntf    on514051   2.939   0.614   2.286  0.1049  0.0123 -0.4366
 1945ntf    on514052   2.944   0.819   2.157  0.3876  0.5842  0.4397
 1945ntf    fn414053   3.096   0.731   2.507  0.3082  0.1726 -0.0317
 1945ntf    fn414054   3.088   0.917   2.409  0.2402 -0.6027 -0.5006
 1945ntf    fn414055   2.906   0.823   2.474 -0.5581  0.8131  0.1543
 1946ntf    cn114056   4.177   4.167   4.328 -0.1109  0.1912  0.2171
 1946ntf    sn214057   4.058   4.216   4.199  0.3118 -0.2087 -0.3324
 1946ntf    nn314058   4.127   4.140   4.081  0.8365  0.6767 -0.6054
 1946ntf    sn214059   4.066   4.052   3.966  0.2645  0.0158  0.2003
 1946ntf    cn114060   4.207   4.078   3.854  0.0595  0.2970  0.0055
 1946ntf    fn414061   4.208   4.039   4.315 -0.0653  0.2387 -0.1763
 1946ntf    fn414062   4.298   4.219   4.314  0.1157 -0.5098 -0.5031
 1946ntf    fn414063   4.138   4.197   4.451 -0.2130 -0.1163  0.2584
 1946ntf    on514064   3.930   4.160   4.233  0.2873 -0.0883 -0.2233
 1946ntf    on514065   4.074   4.360   4.198  0.0586 -0.1796 -0.1552
 1946ntf    on514066   3.948   4.100   3.899  0.5549  0.2005 -0.1858
 1946ntf    on514067   4.071   3.909   3.987 -0.0076  0.1145  0.9700
 1946ntf    fn414068   4.201   4.021   3.735  0.4851  0.3502 -0.0426
 1946ntf    fn414069   4.227   4.206   3.827  0.2545  0.2350 -0.1427
 1946ntf    fn414070   4.323   4.041   3.906 -0.1194 -0.2613  0.0238
 1947ntf    cn114071   4.318   3.246   6.875  0.2467 -0.0887 -0.1396
 1947ntf    sn214072   4.452   3.305   6.766  0.0997  0.0253 -0.2579
 1947ntf    nn314073   4.582   3.265   6.844  0.0402 -0.1297 -0.2384
 1947ntf    sn214074   4.675   3.343   6.943 -0.2239  0.0418 -0.1229
 1947ntf    cn114075   4.789   3.413   6.820 -0.0276  0.1662  0.1299
 1947ntf    fn414076   4.338   3.270   7.003  0.0588  0.0946 -0.1434
 1947ntf    fn414077   4.196   3.297   6.865  0.3919  0.3202  0.1264
 1947ntf    fn414078   4.308   3.114   6.866 -0.1887 -0.0413 -0.3893
 1947ntf    on514079   4.446   3.229   6.644  0.1843 -0.2835 -0.0705
 1947ntf    on514080   4.429   3.444   6.735 -0.3319 -0.1918 -0.9551
 1947ntf    on514081   4.760   3.258   7.022  0.3565  0.6172 -0.1228
 1947ntf    on514082   4.608   3.454   7.006 -0.3128 -0.3439  0.4686
 1947ntf    fn414083   4.839   3.320   6.740 -0.4242  0.1363 -0.0842
 1947ntf    fn414084   4.751   3.511   6.739 -0.4173 -0.0642  0.0328
 1947ntf    fn414085   4.891   3.478   6.874 -0.2150  0.6796 -0.1265
 1948ntf    cn114086   5.455   4.172   2.161 -0.0105  0.1514 -0.2754
 1948ntf    sn214087   5.590   4.274   2.227 -0.1418  0.0657  0.1283
 1948ntf    nn314088   5.606   4.220   2.374  0.2091 -0.2009 -0.0065
 1948ntf    sn214089   5.694   4.273   2.493 -0.0325  0.1739  0.0063
 1948ntf    cn114090   5.864   4.253   2.432  0.0106  0.3207  0.0779
 1948ntf    fn414091   5.416   4.208   2.040  0.0314  0.4035 -0.2138
 1948ntf    fn414092   5.488   4.044   2.169 -0.0473  0.1297 -0.4730
 1948ntf    fn414093   5.347   4.185   2.235 -0.3292 -0.3350 -0.6492
 1948ntf    on514094   5.705   4.259   2.141 -0.2221  0.1766  0.0011
 1948ntf    on514095   5.532   4.406   2.222 -0.3384 -0.0239  0.0519
 1948ntf    on514096   5.699   4.185   2.607  0.2403  0.3388  0.1212
 1948ntf    on514097   5.683   4.413   2.523  0.2091  0.3468 -0.6962
 1948ntf    fn414098   5.963   4.294   2.509  0.6042  0.4686 -0.7559
 1948ntf    fn414099   5.883   4.122   2.422 -0.2235  0.2690  0.2909
 1948ntf    fn414100   5.891   4.309   2.316 -0.0707 -0.2886 -0.2407
 1949ntf    cn114101   0.077   5.655   2.806 -0.2872 -0.2432 -0.1487
 1949ntf    sn214102   0.106   5.481   2.762 -0.0779 -0.3008  0.2136
 1949ntf    nn314103   0.236   5.492   2.675 -0.3783 -0.0006 -0.2069
 1949ntf    sn214104   0.260   5.458   2.524  0.1671  0.0093 -0.1243
 1949ntf    cn114105   0.350   5.607   2.472 -0.1080  0.2210  0.0051
 1949ntf    fn414106   0.185   5.731   2.805 -0.1951 -0.3750 -0.2644
 1949ntf    fn414107  -0.003   5.712   2.716 -0.5819  0.1960  0.3855
 1949ntf    fn414108   0.019   5.663   2.924  0.1260  1.0575 -0.0180
 1949ntf    on514109   0.131   5.417   2.888 -0.2859  0.1758  0.5006
 1949ntf    on514110  -0.017   5.448   2.693 -0.0488 -0.3470  0.1840
 1949ntf    on514111   0.137   5.446   2.450  0.0395 -0.2989  0.1364
 1949ntf    on514112   0.358   5.354   2.500  0.0477 -0.2900  0.6667
 1949ntf    fn414113   0.450   5.639   2.553 -0.0681  0.0424  0.0265
 1949ntf    fn414114   0.402   5.590   2.351 -0.0068  0.0190  0.0760
 1949ntf    fn414115   0.264   5.706   2.455 -0.1134  0.0882 -0.7784
 1950ntf    cn114116   5.766   1.740   1.842 -0.0379  0.0051  0.2031
 1950ntf    sn214117   5.770   1.640   1.994 -0.5788 -0.1805  0.0973
 1950ntf    nn314118   5.916   1.585   1.976 -0.4719 -0.0306  0.4947
 1950ntf    sn214119   5.969   1.459   2.054 -0.0099 -0.0313  0.1850
 1950ntf    cn114120   6.060   1.528   2.195 -0.0833  0.0230  0.2061
 1950ntf    fn414121   5.851   1.841   1.845 -0.0044 -0.0211  0.1354
 1950ntf    fn414122   5.787   1.676   1.729 -0.3935  0.4257 -0.1041
 1950ntf    fn414123   5.644   1.789   1.833  0.2700  0.6264 -0.6366
 1950ntf    on514124   5.757   1.738   2.099 -0.3048  0.4617 -0.4613
 1950ntf    on514125   5.665   1.544   1.972 -0.0435 -0.7266 -0.0951
 1950ntf    on514126   6.070   1.390   1.977 -0.2755  0.2701 -0.4466
 1950ntf    on514127   5.870   1.379   2.121 -0.1954  0.4163  0.4502
 1950ntf    fn414128   6.158   1.610   2.161 -0.1123 -0.0235  0.0093
 1950ntf    fn414129   5.981   1.600   2.274 -0.4315  0.7381 -0.7610
 1950ntf    fn414130   6.110   1.428   2.265  0.1845  0.1625  0.2141
 1951ntf    cn114131   5.005   0.816   1.622  0.0273  0.3485 -0.4502
 1951ntf    sn214132   4.910   0.662   1.609 -0.1221  0.3993  0.0220
 1951ntf    nn314133   4.786   0.688   1.702 -0.2058  0.4195 -0.0957
 1951ntf    sn214134   4.719   0.603   1.816  0.2801 -0.0087 -0.1305
 1951ntf    cn114135   4.590   0.508   1.729  0.1260  0.2721 -0.2067
 1951ntf    fn414136   4.916   0.913   1.634 -0.4047 -0.0027 -0.8264
 1951ntf    fn414137   5.081   0.814   1.730  0.2095  0.1913 -0.5800
 1951ntf    fn414138   5.078   0.847   1.516  0.4146 -0.0091 -0.2915
 1951ntf    on514139   4.877   0.662   1.469 -0.4787 -0.3919  0.1018
 1951ntf    on514140   5.003   0.558   1.644 -0.2471  0.2626 -0.0472
 1951ntf    on514141   4.649   0.679   1.915  0.5483  0.1585 -0.0668
 1951ntf    on514142   4.808   0.503   1.871  0.6812  0.2400 -0.3220
 1951ntf    fn414143   4.642   0.420   1.645  0.3570 -0.2391  0.4675
 1951ntf    fn414144   4.528   0.428   1.813  0.5129 -0.1325 -0.3041
 1951ntf    fn414145   4.510   0.590   1.662 -0.1185  0.1784 -0.0260
 1952ntf    cn114146   0.081   3.736   3.575  0.0382 -0.0590  0.2906
 1952ntf    sn214147   0.021   3.879   3.670  0.1261  0.0072  0.2461
 1952ntf    nn314148  -0.022   3.972   3.551  0.9898 -0.2261 -0.2607
 1952ntf    sn214149   0.059   4.092   3.489  0.2201  0.3898 -0.0852
 1952ntf    cn114150  -0.029   4.225   3.578 -0.4235  0.1442 -0.3443
 1952ntf    fn414151   0.137   3.642   3.649  0.2010 -0.3089 -0.1471
 1952ntf    fn414152  -0.024   3.686   3.512  0.1907 -0.1485  0.1056
 1952ntf    fn414153   0.165   3.762   3.475 -0.0962 -0.5610  0.0416
 1952ntf    on514154  -0.100   3.832   3.732  0.3843 -0.0706  0.6983
 1952ntf    on514155   0.136   3.916   3.748  0.0268 -0.0107  0.4002
 1952ntf    on514156   0.038   4.117   3.349 -0.4340  0.5442  0.0360
 1952ntf    on514157   0.198   4.097   3.524  0.2045  0.0664  0.0287
 1952ntf    fn414158   0.053   4.329   3.585 -0.0638 -0.2037  0.7895
 1952ntf    fn414159  -0.140   4.261   3.516 -0.6565  0.3327  0.1767
 1952ntf    fn414160  -0.049   4.193   3.705  0.2063 -0.9521 -0.5084
 1953ntf    cn114161   5.094   5.473   5.769  0.0706 -0.0449 -0.1902
 1953ntf    sn214162   4.927   5.543   5.760 -0.0516 -0.3255 -0.1136
 1953ntf    nn314163   4.837   5.415   5.776 -0.1744 -0.2885 -0.4968
 1953ntf    sn214164   4.703   5.388   5.699 -0.2489  0.1133 -0.5111
 1953ntf    cn114165   4.594   5.385   5.845 -0.0659 -0.6726 -0.3853
 1953ntf    fn414166   5.089   5.351   5.718 -0.1006 -0.0167 -0.2421
 1953ntf    fn414167   5.185   5.537   5.698 -0.1360  0.1631 -0.2684
 1953ntf    fn414168   5.140   5.459   5.893  0.5353 -0.6084 -0.4204
 1953ntf    on514169   4.918   5.648   5.859  0.5982  0.3689 -0.7794
 1953ntf    on514170   4.943   5.595   5.627  0.7699 -0.1664  0.0416
 1953ntf    on514171   4.706   5.249   5.660 -0.1322  0.1273 -0.5513
 1953ntf    on514172   4.647   5.482   5.604 -0.4762  0.6600  0.1548
 1953ntf    fn414173   4.466   5.390   5.813 -0.3161 -0.5565  0.6000
 1953ntf    fn414174   4.601   5.279   5.923 -0.3028 -0.0924  0.4331
 1953ntf    fn414175   4.614   5.480   5.935  0.9257 -0.7051 -0.5550
 1954ntf    cn114176   1.822   2.804   3.994  0.4569  0.0762 -0.2295
 1954ntf    sn214177   1.755   2.865   3.837 -0.1723  0.1898  0.0804
 1954ntf    nn314178   1.858   2.980   3.810 -0.0443  0.0865  0.1308
 1954ntf    sn214179   1.977   2.979   3.707 -0.1367 -0.0036  0.0260
 1954ntf    cn114180   2.028   3.153   3.714  0.3591 -0.1651  0.5047
 1954ntf    fn414181   1.737   2.711   4.036  0.1046  0.3901 -0.2413
 1954ntf    fn414182   1.939   2.743   3.987  0.2760 -0.2735 -0.2227
 1954ntf    fn414183   1.819   2.906   4.079 -0.1145  0.0619 -0.2298
 1954ntf    on514184   1.763   2.757   3.742  0.0772 -0.2670  0.6211
 1954ntf    on514185   1.624   2.914   3.873 -0.1943 -0.2167  0.5547
 1954ntf    on514186   1.945   2.938   3.573  0.8029  1.3059 -0.6127
 1954ntf    on514187   2.091   2.912   3.765 -0.2924 -0.2642  0.0340
 1954ntf    fn414188   1.934   3.231   3.663  0.9474 -0.1983 -0.6749
 1954ntf    fn414189   2.061   3.188   3.837 -0.4133  0.6700  0.4820
 1954ntf    fn414190   2.126   3.177   3.628  0.0199 -0.2517  0.0919
 1955ntf    cn114191   5.848   6.722   1.974 -0.0035  0.0098  0.1524
 1955ntf    sn214192   5.949   6.714   1.823 -0.6020  0.0212 -0.2501
 1955ntf    nn314193   5.872   6.601   1.747 -0.7634 -0.0615  0.0329
 1955ntf    sn214194   5.877   6.444   1.748 -0.1146 -0.0444  0.1493
 1955ntf    cn114195   5.894   6.424   1.568  0.3272 -0.1662  0.2033
 1955ntf    fn414196   5.851   6.604   2.035  0.3934 -0.1957 -0.2618
 1955ntf    fn414197   5.890   6.809   2.065  0.0221 -0.1632  0.3082
 1955ntf    fn414198   5.720   6.749   1.958 -0.1238 -0.4209  0.3490
 1955ntf    on514199   5.939   6.846   1.766 -0.2254  0.0099 -0.3437
 1955ntf    on514200   6.079   6.669   1.867 -0.4860 -0.1505 -0.7644
 1955ntf    on514201   5.748   6.384   1.770 -0.2050  0.1654  0.1935
 1955ntf    on514202   5.995   6.383   1.805 -0.0186  0.2136  0.2277
 1955ntf    fn414203   5.923   6.302   1.525 -0.1729 -0.0357 -0.5265
 1955ntf    fn414204   5.777   6.443   1.510  0.5104  0.6331  0.0909
 1955ntf    fn414205   5.976   6.517   1.524  0.1464 -0.1035 -0.0069
 1956ntf    cn114206   3.406   0.061   5.213 -0.1343 -0.1435 -0.0771
 1956ntf    sn214207   3.580   0.095   5.174 -0.0192 -0.2742  0.3215
 1956ntf    nn314208   3.582   0.077   5.018 -0.1361  0.2345  0.2600
 1956ntf    sn214209   3.559   0.193   4.915 -0.0889 -0.0873 -0.1114
 1956ntf    cn114210   3.712   0.289   4.896 -0.0852 -0.1151 -0.2257
 1956ntf    fn414211   3.336   0.173   5.221 -0.1974 -0.1765 -0.1741
 1956ntf    fn414212   3.350  -0.017   5.122 -0.3632 -0.1603  0.0787
 1956ntf    fn414213   3.395  -0.004   5.328  0.3574  0.3510  0.2583
 1956ntf    on514214   3.614   0.222   5.234  0.5540 -0.1330 -0.2887
 1956ntf    on514215   3.646  -0.013   5.244  0.2359 -0.6670 -0.5106
 1956ntf    on514216   3.453   0.279   4.961 -0.0410 -0.0758 -0.0231
 1956ntf    on514217   3.537   0.140   4.782  0.1368 -0.0217 -0.1747
 1956ntf    fn414218   3.684   0.418   4.885  0.1234 -0.0193  0.3166
 1956ntf    fn414219   3.789   0.271   5.002 -0.2921  0.0546 -0.0464
 1956ntf    fn414220   3.787   0.265   4.789  0.1522  0.5579 -0.2111
 1957ntf    cn114221   4.399   4.188   0.631 -0.2731 -0.2298  0.2617
 1957ntf    sn214222   4.447   4.260   0.791  0.2709 -0.0668  0.0257
 1957ntf    nn314223   4.308   4.251   0.863  0.1114  0.0545 -0.2652
 1957ntf    sn214224   4.192   4.357   0.871  0.2400  0.1703  0.1151
 1957ntf    cn114225   4.197   4.403   1.046  0.2469  0.0375  0.1502
 1957ntf    fn414226   4.507   4.207   0.557 -0.3137  0.2278  0.3177
 1957ntf    fn414227   4.378   4.058   0.644  0.0648 -0.3049  0.0567
 1957ntf    fn414228   4.295   4.242   0.569  0.1346  0.2364 -0.0194
 1957ntf    on514229   4.543   4.161   0.832 -0.0234 -0.1206  0.5984
 1957ntf    on514230   4.496   4.390   0.752 -0.5712  0.2419 -0.0306
 1957ntf    on514231   4.062   4.300   0.849  0.2757  0.2771 -0.3939
 1957ntf    on514232   4.218   4.482   0.803 -0.0260  0.3541  0.3533
 1957ntf    fn414233   4.181   4.309   1.138 -0.6245  0.0397  0.0109
 1957ntf    fn414234   4.312   4.459   1.080  0.2569 -0.0921  0.3300
 1957ntf    fn414235   4.102   4.493   1.070 -0.0533 -0.2637  0.0949
 1958ntf    cn114236   6.636   3.044   6.305  0.0106  0.5361 -0.1793
 1958ntf    sn214237   6.526   3.115   6.431 -0.2623  0.2344 -0.2456
 1958ntf    nn314238   6.393   3.139   6.351 -0.3718  0.4966  0.0110
 1958ntf    sn214239   6.274   3.047   6.307  0.0520 -0.1013  0.0877
 1958ntf    cn114240   6.166   3.085   6.448  0.0667  0.3593 -0.0228
 1958ntf    fn414241   6.756   3.027   6.357 -0.3416 -0.3882  0.3725
 1958ntf    fn414242   6.594   2.929   6.253  0.1679  0.1506  0.5373
 1958ntf    fn414243   6.658   3.117   6.197  0.5969  0.3251 -0.2046
 1958ntf    on514244   6.514   3.009   6.529  0.2948  0.1229 -0.2944
 1958ntf    on514245   6.582   3.239   6.477  0.3940 -0.1762  0.0883
 1958ntf    on514246   6.291   2.904   6.310 -0.2169 -0.1338  0.1248
 1958ntf    on514247   6.204   3.099   6.192  0.0688 -0.4235 -0.0682
 1958ntf    fn414248   6.223   3.061   6.565  0.0228  0.0315 -0.0680
 1958ntf    fn414249   6.121   3.210   6.454 -0.8254  0.0733 -0.5100
 1958ntf    fn414250   6.055   3.013   6.457  0.2954  0.0462  0.3115
 1959ntf    cn114251   0.716   5.524   5.758  0.0895  0.0126 -0.0291
 1959ntf    sn214252   0.659   5.473   5.923 -0.2782 -0.2093 -0.2217
 1959ntf    nn314253   0.788   5.516   6.002 -0.4747 -0.1628  0.0763
 1959ntf    sn214254   0.819   5.651   6.075 -0.3534 -0.0272 -0.2240
 1959ntf    cn114255   0.804   5.600   6.249 -0.1211 -0.3248 -0.2898
 1959ntf    fn414256   0.835   5.485   5.714  0.1104  0.4871 -0.4022
 1959ntf    fn414257   0.631   5.491   5.662  0.3495 -0.3174 -0.1502
 1959ntf    fn414258   0.737   5.655   5.758  0.3705 -0.0303  0.2348
 1959ntf    on514259   0.538   5.550   5.940 -0.3670 -0.5554  0.8039
 1959ntf    on514260   0.645   5.330   5.914 -0.0982 -0.2109 -0.4807
 1959ntf    on514261   0.731   5.764   6.062 -0.4159 -0.0849 -0.2991
 1959ntf    on514262   0.960   5.679   6.058 -0.3466 -0.2511 -0.5489
 1959ntf    fn414263   0.686   5.551   6.282 -0.0831 -0.2204  0.0081
 1959ntf    fn414264   0.895   5.511   6.284  0.0054 -0.3030 -0.5583
 1959ntf    fn414265   0.826   5.701   6.332  0.2641 -0.4930 -0.1836
 1960ntf    cn114266   3.884   3.220   1.185  0.1192 -0.1626 -0.0717
 1960ntf    sn214267   3.735   3.212   1.289 -0.0113  0.1236 -0.2359
 1960ntf    nn314268   3.803   3.217   1.430 -0.7839  0.1074  0.1404
 1960ntf    sn214269   3.818   3.337   1.531  0.1611  0.2139 -0.1236
 1960ntf    cn114270   3.988   3.337   1.595  0.2029 -0.2624 -0.2316
 1960ntf    fn414271   3.956   3.324   1.223 -0.1403  0.1572 -0.4444
 1960ntf    fn414272   3.968   3.120   1.202  0.2244 -0.0568  0.0362
 1960ntf    fn414273   3.847   3.226   1.058  0.2087 -0.1142 -0.0959
 1960ntf    on514274   3.671   3.338   1.258 -0.2224  0.0185 -0.2328
 1960ntf    on514275   3.662   3.092   1.257 -0.6217  0.5100 -0.3213
 1960ntf    on514276   3.745   3.319   1.653  0.3054 -0.2320 -0.1015
 1960ntf    on514277   3.809   3.468   1.472 -0.0709 -0.0937 -0.7825
 1960ntf    fn414278   4.017   3.421   1.693 -0.4507 -0.5617  0.2254
 1960ntf    fn414279   4.026   3.218   1.639  0.6751 -0.0278  0.0089
 1960ntf    fn414280   4.076   3.359   1.498  0.6584  0.5778  0.3581
 1961ntf    cn114281   4.827   0.170   0.901  0.2853  0.5493  0.0594
 1961ntf    sn214282   4.687   0.260   0.974 -0.1322 -0.1132  0.0883
 1961ntf    nn314283   4.744   0.406   0.985  0.0329 -0.1488 -0.2879
 1961ntf    sn214284   4.716   0.538   0.904 -0.1229 -0.0182 -0.0231
 1961ntf    cn114285   4.889   0.581   0.870 -0.1671  0.1049 -0.0910
 1961ntf    fn414286   4.932   0.187   0.979  0.1820  0.1742  0.2871
 1961ntf    fn414287   4.796   0.041   0.892  0.1285  0.5262  0.8069
 1961ntf    fn414288   4.843   0.214   0.778 -0.0285 -0.3541 -0.3119
 1961ntf    on514289   4.576   0.248   0.883  0.1835 -0.1822 -0.2898
 1961ntf    on514290   4.670   0.196   1.102 -0.1482 -0.2796  0.0028
 1961ntf    on514291   4.668   0.638   0.996  0.2536  0.0405  0.1113
 1961ntf    on514292   4.643   0.514   0.782 -0.4154  0.3670  0.0747
 1961ntf    fn414293   4.954   0.484   0.807 -0.1871  0.1312 -0.1518
 1961ntf    fn414294   4.901   0.695   0.804 -0.5064  0.3715  0.3076
 1961ntf    fn414295   4.953   0.591   0.985  0.2651  0.1213 -0.3318
 1962ntf    cn114296   6.290   0.559   0.503 -0.5692  0.2997 -0.3681
 1962ntf    sn214297   6.264   0.420   0.390 -0.1671 -0.2818  0.2462
 1962ntf    nn314298   6.266   0.296   0.487  0.9962 -0.3188  0.1969
 1962ntf    sn214299   6.146   0.228   0.562  0.2548  0.2200 -0.4719
 1962ntf    cn114300   6.143   0.070   0.474 -0.7422  0.1230 -0.2770
 1962ntf    fn414301   6.412   0.558   0.554 -0.3830  0.3812 -0.8096
 1962ntf    fn414302   6.268   0.677   0.448 -0.5304  0.5999  0.2506
 1962ntf    fn414303   6.212   0.544   0.609  0.5229  0.3471  0.4577
 1962ntf    on514304   6.140   0.442   0.320 -0.1301 -0.0658  0.2484
 1962ntf    on514305   6.387   0.420   0.314  0.0620 -0.1315  0.6192
 1962ntf    on514306   6.014   0.284   0.547  0.3172  0.5056  0.0025
 1962ntf    on514307   6.182   0.181   0.694 -0.2075 -0.4901 -0.5975
 1962ntf    fn414308   6.249  -0.009   0.483 -0.4832  0.5198  0.1621
 1962ntf    fn414309   6.040  -0.006   0.506 -0.2339 -0.3502  0.2724
 1962ntf    fn414310   6.128   0.086   0.343 -0.2866  0.7692 -0.2553
 1963ntf    cn114311   6.907   5.836   6.647 -0.3102  0.0814 -0.1184
 1963ntf    sn214312   7.070   5.757   6.631 -0.2245  0.2638 -0.1556
 1963ntf    nn314313   7.052   5.742   6.476 -0.0115 -0.5824 -0.1039
 1963ntf    sn214314   7.145   5.793   6.360 -0.1456  0.1695  0.1128
 1963ntf    cn114315   7.026   5.849   6.235 -0.0214  0.2748  0.0420
 1963ntf    fn414316   6.882   5.864   6.773 -0.1431 -0.5070  0.0483
 1963ntf    fn414317   6.892   5.945   6.573 -0.2509  0.1547 -0.0214
 1963ntf    fn414318   6.808   5.754   6.617  0.2049 -0.5417 -0.1363
 1963ntf    on514319   7.159   5.858   6.681 -0.2523  0.2137 -0.0031
 1963ntf    on514320   7.051   5.636   6.708  0.2486  0.1212 -0.2612
 1963ntf    on514321   7.225   5.687   6.303 -0.3654 -0.0839  0.2760
 1963ntf    on514322   7.204   5.921   6.388  0.3236  0.1369 -0.6823
 1963ntf    fn414323   6.910   5.878   6.291  0.2086  0.3808  0.4701
 1963ntf    fn414324   7.068   5.952   6.163  0.2611  0.3425  0.3024
 1963ntf    fn414325   6.991   5.753   6.150  0.5598  0.2329 -0.1574
 1964ntf    cn114326   6.488   1.680   2.566  0.2232  0.2996  0.2233
 1964ntf    sn214327   6.598   1.812   2.507  0.2155  0.0800 -0.2831
 1964ntf    nn314328   6.587   1.775   2.355  0.0561 -0.0804 -0.2326
 1964ntf    sn214329   6.660   1.851   2.237  0.1818 -0.2764 -0.2822
 1964ntf    cn114330   6.556   1.793   2.100 -0.2230 -0.0873 -0.0572
 1964ntf    fn414331   6.370   1.682   2.507 -0.1795  0.1226  1.0155
 1964ntf    fn414332   6.530   1.559   2.535 -0.4460  0.1777 -0.2225
 1964ntf    fn414333   6.459   1.683   2.695 -0.5802  0.2260  0.0500
 1964ntf    on514334   6.542   1.935   2.558  0.1055  0.1724 -0.6212
 1964ntf    on514335   6.726   1.771   2.558 -0.1250 -0.1289  0.4101
 1964ntf    on514336   6.789   1.797   2.202  0.3176 -0.0536 -0.1271
 1964ntf    on514337   6.639   1.993   2.241 -0.1042 -0.3280  0.1204
 1964ntf    fn414338   6.592   1.853   1.988  0.2568 -0.3502 -0.0466
 1964ntf    fn414339   6.575   1.663   2.082  0.1003 -0.0151 -0.2374
 1964ntf    fn414340   6.429   1.815   2.133 -0.0227 -0.3187  0.8833
 1965ntf    cn114341   1.647   0.515   0.090 -0.0918  0.0986 -0.1210
 1965ntf    sn214342   1.720   0.654  -0.002  0.3393 -0.0609 -0.0209
 1965ntf    nn314343   1.613   0.764   0.026  0.0710 -0.3786  0.2036
 1965ntf    sn214344   1.480   0.797  -0.052  0.1456 -0.4224  0.0590
 1965ntf    cn114345   1.358   0.806   0.082  0.0390  0.2280 -0.0782
 1965ntf    fn414346   1.679   0.503   0.218 -0.3272  0.8352  0.0087
 1965ntf    fn414347   1.515   0.518   0.087 -0.0734  0.8289 -0.5424
 1965ntf    fn414348   1.680   0.399   0.035  0.0952 -0.0910  0.3832
 1965ntf    on514349   1.842   0.678   0.071  0.4389 -0.3225 -0.0972
 1965ntf    on514350   1.735   0.605  -0.138  0.0243  0.3713 -0.2108
 1965ntf    on514351   1.433   0.689  -0.135  0.0943 -0.1080 -0.3233
 1965ntf    on514352   1.477   0.928  -0.112 -0.1913 -0.5184 -0.1351
 1965ntf    fn414353   1.255   0.886   0.061 -0.2361 -0.2892 -0.7265
 1965ntf    fn414354   1.298   0.691   0.107  0.2028  0.1996  0.1818
 1965ntf    fn414355   1.409   0.855   0.194  0.1322 -0.3819  0.1521
 1966ntf    cn114356   2.973   6.068   0.087  0.2936 -0.2145 -0.3964
 1966ntf    sn214357   3.029   6.172   0.225 -0.2955 -0.2652 -0.1145
 1966ntf    nn314358   3.175   6.200   0.175 -0.1780  0.1758  0.4624
 1966ntf    sn214359   3.293   6.261   0.259  0.1957 -0.0715  0.1266
 1966ntf    cn114360   3.377   6.101   0.274  0.1045 -0.1318 -0.0011
 1966ntf    fn414361   2.955   6.133  -0.026 -0.5136 -0.0662 -0.1923
 1966ntf    fn414362   3.050   5.964   0.058  0.1686 -0.3994 -0.0839
 1966ntf    fn414363   2.855   6.010   0.104 -0.0086  0.5121  0.0209
 1966ntf    on514364   2.932   6.277   0.209  0.3304  0.4211  0.5229
 1966ntf    on514365   3.026   6.089   0.344  0.9223 -0.5807 -0.2921
 1966ntf    on514366   3.258   6.297   0.394  0.2936 -0.0820  0.1544
 1966ntf    on514367   3.380   6.349   0.185 -0.0058  0.0577  0.0409
 1966ntf    fn414368   3.419   6.055   0.157  0.1425 -0.1051  0.0022
 1966ntf    fn414369   3.481   6.123   0.353 -0.0762  0.3087  0.1183
 1966ntf    fn414370   3.300   6.009   0.329 -0.2875  0.1992  0.0115
 1967ntf    cn114371   6.894   1.269   3.685 -0.2039  0.4610 -0.0209
 1967ntf    sn214372   6.757   1.156   3.724 -0.0297  0.3158  0.1760
 1967ntf    nn314373   6.758   1.146   3.880  0.0126 -0.5596  0.1227
 1967ntf    sn214374   6.832   1.046   3.976  0.1343 -0.4197  0.1759
 1967ntf    cn114375   6.689   0.935   3.989 -0.1122 -0.1175  0.0466
 1967ntf    fn414376   7.007   1.243   3.747 -0.1964  0.4061 -0.0577
 1967ntf    fn414377   6.925   1.261   3.556  0.6250 -0.1757  0.2140
 1967ntf    fn414378   6.870   1.394   3.722 -0.4468  0.2166  0.6540
 1967ntf    on514379   6.641   1.227   3.673  0.1591  0.5477  0.0671
 1967ntf    on514380   6.784   1.032   3.656 -0.7266  0.1580  0.1799
 1967ntf    on514381   6.854   1.083   4.113 -0.5926  1.3544 -0.1606
 1967ntf    on514382   6.934   0.968   3.909  0.3507 -0.0476  0.0720
 1967ntf    fn414383   6.718   0.839   4.076 -0.9904 -0.2629  0.1906
 1967ntf    fn414384   6.584   1.000   4.037 -0.1111  0.0574 -0.1878
 1967ntf    fn414385   6.658   0.873   3.876  0.7626  0.0047 -0.2628
 1968ntf    cn114386   3.120   4.295   0.090  0.0312  0.1002  0.2565
 1968ntf    sn214387   3.072   4.241  -0.077  0.0681 -0.1474  0.3260
 1968ntf    nn314388   2.941   4.328  -0.088  0.2963  0.1517 -0.0443
 1968ntf    sn214389   2.924   4.484  -0.079 -0.0228  0.1051  0.1450
 1968ntf    cn114390   2.866   4.519  -0.248 -0.4955  0.3186  0.3480
 1968ntf    fn414391   3.215   4.220   0.142 -0.2092  0.2686  0.9459
 1968ntf    fn414392   3.166   4.419   0.104 -0.4920  0.3491 -0.1886
 1968ntf    fn414393   3.013   4.290   0.168 -0.4069  0.1782 -0.3265
 1968ntf    on514394   3.181   4.286  -0.159  0.3257 -0.5150  0.4648
 1968ntf    on514395   3.055   4.099  -0.057 -0.7393 -0.0416  0.4432
 1968ntf    on514396   3.044   4.564  -0.076 -0.0173  0.1070 -0.1023
 1968ntf    on514397   2.815   4.530   0.004  0.0112  0.3096  0.0771
 1968ntf    fn414398   2.752   4.458  -0.273 -0.2571 -0.0416  0.1253
 1968ntf    fn414399   2.837   4.648  -0.249  0.4319  0.5377 -0.2420
 1968ntf    fn414400   2.948   4.499  -0.349 -0.2609  0.1057  0.5784
 1969ntf    cn114401   1.568   4.862   4.085 -0.1188 -0.0079  0.0264
 1969ntf    sn214402   1.664   4.804   3.942  0.1432  0.0184  0.1893
 1969ntf    nn314403   1.678   4.649   3.956  0.2749 -0.0525 -0.6492
 1969ntf    sn214404   1.784   4.565   4.036 -0.3967 -0.2810  0.0104
 1969ntf    cn114405   1.821   4.426   3.924  0.0815 -0.4073  0.3233
 1969ntf    fn414406   1.633   4.847   4.200  0.3264  0.5697 -0.1452
 1969ntf    fn414407   1.535   4.989   4.068  0.4050  0.1750  0.3311
 1969ntf    fn414408   1.451   4.800   4.090 -0.2380  0.2257  0.1304
 1969ntf    on514409   1.563   4.812   3.839 -0.3634 -0.1228  0.6711
 1969ntf    on514410   1.783   4.883   3.928  0.1053 -0.0057 -0.2850
 1969ntf    on514411   1.728   4.499   4.152  0.3173 -0.4150  0.2857
 1969ntf    on514412   1.909   4.632   4.057 -0.3742 -0.2441 -0.2405
 1969ntf    fn414413   1.870   4.473   3.811  0.7185 -0.9115  0.3833
 1969ntf    fn414414   1.900   4.331   3.972  0.8860 -0.0511 -0.2718
 1969ntf    fn414415   1.710   4.362   3.892 -0.2995  0.1781  0.4486
 1970ntf    cn114416   2.847   2.306   4.014  0.1897 -0.0884  0.5765
 1970ntf    sn214417   2.731   2.166   4.026  0.0815 -0.0642 -0.1348
 1970ntf    nn314418   2.709   2.158   4.181  0.2877  0.8105 -0.0545
 1970ntf    sn214419   2.802   2.093   4.290 -0.3800  0.1972  0.1546
 1970ntf    cn114420   2.712   1.936   4.307 -0.2149  0.0863  0.0073
 1970ntf    fn414421   2.955   2.292   4.089  0.3918 -0.0928  0.2851
 1970ntf    fn414422   2.884   2.321   3.888  0.5164 -0.5234  0.6215
 1970ntf    fn414423   2.796   2.425   4.043 -0.1838 -0.0181 -0.3463
 1970ntf    on514424   2.609   2.207   3.962 -0.3251 -0.4249  0.3963
 1970ntf    on514425   2.807   2.055   3.975 -0.0575  0.2236 -0.9896
 1970ntf    on514426   2.790   2.163   4.415  0.6354  0.0542  0.3346
 1970ntf    on514427   2.930   2.049   4.242 -0.1348  0.5380  0.4974
 1970ntf    fn414428   2.778   1.854   4.388 -0.0861  0.0542 -0.1306
 1970ntf    fn414429   2.595   1.945   4.368 -0.4612  0.4146 -0.5146
 1970ntf    fn414430   2.699   1.863   4.198 -0.2552  0.1653 -0.0396
 1971ntf    cn114431   6.288   4.003   0.170  0.1353  0.0016  0.3172
 1971ntf    sn214432   6.349   3.907   0.028 -0.1527  0.0190  0.1805
 1971ntf    nn314433   6.259   3.780   0.049 -0.1748 -0.0818 -0.5174
 1971ntf    sn214434   6.295   3.633   0.088  0.2233  0.1220 -0.1210
 1971ntf    cn114435   6.287   3.650   0.269  0.2546 -0.1307 -0.0944
 1971ntf    fn414436   6.331   4.128   0.155 -0.0038  0.0556  0.3625
 1971ntf    fn414437   6.156   4.008   0.175  0.1032  0.2454 -0.4812
 1971ntf    fn414438   6.328   3.961   0.288  0.0081  0.0999  0.3953
 1971ntf    on514439   6.313   3.978  -0.092  0.3741 -0.3357 -0.1918
 1971ntf    on514440   6.490   3.900   0.054 -0.1690 -0.3098  0.1818
 1971ntf    on514441   6.432   3.593   0.068  0.3671  0.3112  0.4590
 1971ntf    on514442   6.186   3.542   0.063  0.2154  0.1633 -0.2354
 1971ntf    fn414443   6.191   3.738   0.295  0.4946  0.1264 -0.0720
 1971ntf    fn414444   6.252   3.538   0.331  0.1597 -0.2075 -0.2867
 1971ntf    fn414445   6.397   3.695   0.327  0.4212  0.2514 -0.7040
 1972ntf    cn114446   5.250   0.990   0.351 -0.3198 -0.3901 -0.3892
 1972ntf    sn214447   5.271   1.140   0.251  0.0594  0.0024  0.2731
 1972ntf    nn314448   5.415   1.194   0.287 -0.0380  0.4543 -0.0171
 1972ntf    sn214449   5.557   1.177   0.223 -0.1455 -0.5499 -0.0119
 1972ntf    cn114450   5.659   1.207   0.370  0.0980  0.2171 -0.3324
 1972ntf    fn414451   5.264   1.020   0.480  0.2590 -0.2831 -0.4721
 1972ntf    fn414452   5.133   0.930   0.342 -0.4299 -0.2633  0.1385
 1972ntf    fn414453   5.344   0.899   0.329  0.1725  0.0603 -0.1699
 1972ntf    on514454   5.260   1.085   0.119  0.0290 -0.2526  0.3807
 1972ntf    on514455   5.162   1.220   0.301 -0.2303 -0.0493 -0.2774
 1972ntf    on514456   5.582   1.288   0.133 -0.1441  0.1915  0.8852
 1972ntf    on514457   5.591   1.042   0.189  0.6151 -0.3228 -0.1730
 1972ntf    fn414458   5.638   1.321   0.433 -0.7047 -0.0842 -0.0514
 1972ntf    fn414459   5.637   1.120   0.467 -0.1397 -0.3196 -0.8602
 1972ntf    fn414460   5.788   1.198   0.342  0.0591 -0.1404 -0.3990
 1973ntf    cn114461   2.694   1.762   6.593  0.2815  0.1841  0.2096
 1973ntf    sn214462   2.763   1.830   6.439  0.2353  0.0152  0.1137
 1973ntf    nn314463   2.884   1.734   6.409  0.2774  0.0916  0.0415
 1973ntf    sn214464   3.032   1.771   6.372  0.1613  0.5247 -0.0091
 1973ntf    cn114465   3.003   1.794   6.194 -0.0546 -0.3604 -0.0927
 1973ntf    fn414466   2.691   1.630   6.588  0.4044  0.1546  0.8468
 1973ntf    fn414467   2.759   1.790   6.704  0.2995 -0.0763  0.2641
 1973ntf    fn414468   2.568   1.802   6.610  0.2140  0.1032 -0.0900
 1973ntf    on514469   2.661   1.814   6.339 -0.1194 -0.4408  0.5406
 1973ntf    on514470   2.792   1.968   6.469 -0.2390  0.1552 -0.0720
 1973ntf    on514471   3.128   1.663   6.383  0.1138  0.5162  0.3092
 1973ntf    on514472   3.071   1.900   6.422  0.2319  0.3874  0.2902
 1973ntf    fn414473   3.108   1.854   6.140 -0.3889  0.4038  0.0994
 1973ntf    fn414474   2.980   1.676   6.137  0.5177 -0.2793 -0.5012
 1973ntf    fn414475   2.898   1.870   6.170  0.0859  0.0208  0.4767
 1974ntf    cn114476   3.187   0.177   2.574 -0.0023 -0.1893 -0.3031
 1974ntf    sn214477   3.147   0.001   2.555  0.2228 -0.2926  0.1728
 1974ntf    nn314478   3.293  -0.051   2.581  0.2769 -0.2070  0.0410
 1974ntf    sn214479   3.405  -0.092   2.480  0.4071 -0.1758  0.1720
 1974ntf    cn114480   3.432  -0.269   2.511 -0.1636 -0.2856  0.0541
 1974ntf    fn414481   3.089   0.256   2.534  0.3014  0.2588 -0.1741
 1974ntf    fn414482   3.204   0.211   2.700  0.4761 -0.3145 -0.3309
 1974ntf    fn414483   3.297   0.216   2.510  0.5039 -0.3158  0.4842
 1974ntf    on514484   3.048  -0.013   2.659  0.0680 -0.3928  0.0131
 1974ntf    on514485   3.094   0.005   2.421  0.0455  0.2573  0.2561
 1974ntf    on514486   3.534  -0.033   2.504  0.6068 -0.6292  0.2350
 1974ntf    on514487   3.369  -0.093   2.340 -0.3518  0.0084  0.3635
 1974ntf    fn414488   3.331  -0.339   2.463 -0.1864 -0.2774  0.0902
 1974ntf    fn414489   3.545  -0.314   2.458 -0.4214  0.1617 -0.9017
 1974ntf    fn414490   3.429  -0.307   2.638  0.3997 -0.0567  0.1366
 1975ntf    cn114491   1.124   2.787   0.493  0.3005  0.0966 -0.0388
 1975ntf    sn214492   1.191   2.954   0.515  0.4333  0.0486 -0.0848
 1975ntf    nn314493   1.109   3.005   0.639  0.5571 -0.1464  0.0785
 1975ntf    sn214494   1.162   3.020   0.786 -0.0141  0.4698  0.2260
 1975ntf    cn114495   1.260   3.173   0.785  0.2419  0.3066  0.1110
 1975ntf    fn414496   0.992   2.790   0.509  0.2597  0.1019 -0.3775
 1975ntf    fn414497   1.147   2.742   0.371 -0.1866  0.1672 -0.1616
 1975ntf    fn414498   1.170   2.699   0.581  0.2881  0.0593 -0.0693
 1975ntf    on514499   1.333   2.935   0.536  0.3586 -0.0739  0.3175
 1975ntf    on514500   1.148   3.022   0.395  0.2260 -0.0148 -0.0468
 1975ntf    on514501   1.243   2.914   0.841  0.4366  0.4757 -0.4201
 1975ntf    on514502   1.048   3.057   0.866 -0.6391  0.4304 -0.6360
 1975ntf    fn414503   1.364   3.180   0.704 -0.1115 -0.0420 -0.3859
 1975ntf    fn414504   1.184   3.278   0.756  0.0695  0.2162  0.2305
 1975ntf    fn414505   1.304   3.193   0.908  0.3503  0.1962  0.0898
 1976ntf    cn114506   1.769   2.607   2.189  0.2491 -0.0510  0.8755
 1976ntf    sn214507   1.879   2.752   2.187  0.0528  0.0878  0.1237
 1976ntf    nn314508   1.994   2.706   2.090  0.1418  0.9080 -0.1627
 1976ntf    sn214509   2.132   2.636   2.115 -0.3713 -0.0683 -0.0435
 1976ntf    cn114510   2.245   2.776   2.143  0.3322 -0.5035 -0.6859
 1976ntf    fn414511   1.740   2.579   2.063  0.1426  0.2562  0.8316
 1976ntf    fn414512   1.830   2.498   2.233  0.1378 -0.8098 -0.7834
 1976ntf    fn414513   1.657   2.626   2.257 -0.1051  0.1061  0.2564
 1976ntf    on514514   1.812   2.862   2.122  0.3071  0.2887  0.2028
 1976ntf    on514515   1.910   2.771   2.326  0.0871 -0.4562  0.1932
 1976ntf    on514516   2.180   2.574   1.994 -0.1008 -0.0758  0.0668
 1976ntf    on514517   2.147   2.564   2.239  0.4825  0.2633  0.0495
 1976ntf    fn414518   2.198   2.857   2.236  0.6026 -0.3064 -0.7201
 1976ntf    fn414519   2.357   2.727   2.192  0.2229 -0.2553 -0.1879
 1976ntf    fn414520   2.270   2.845   2.033  0.9901  0.3653  0.0024
 1977ntf    cn114521   0.662   6.868   6.632 -0.0242 -0.2696  0.2099
 1977ntf    sn214522   0.694   7.031   6.559  0.0230 -0.3290  0.0991
 1977ntf    nn314523   0.549   7.092   6.551  0.3519  0.4358 -0.2163
 1977ntf    sn214524   0.500   7.226   6.487  0.0394  0.2931 -0.2750
 1977ntf    cn114525   0.388   7.168   6.356  0.0518  0.1084 -0.2038
 1977ntf    fn414526   0.767   6.794   6.660  0.3921  0.2809  0.1181
 1977ntf    fn414527   0.590   6.874   6.743 -0.3173 -0.6264  0.0431
 1977ntf    fn414528   0.588   6.793   6.552 -0.0327 -0.0253 -0.0157
 1977ntf    on514529   0.778   7.090   6.660 -0.6229 -0.2677  0.6061
 1977ntf    on514530   0.754   6.997   6.432 -0.3516 -0.4226 -0.0519
 1977ntf    on514531   0.599   7.297   6.410  0.0691 -0.2293 -0.7303
 1977ntf    on514532   0.415   7.289   6.585  0.7189  0.5618  0.1455
 1977ntf    fn414533   0.273   7.119   6.401  0.3856 -0.3799  0.1290
 1977ntf    fn414534   0.352   7.262   6.270 -0.7511  0.1241  0.1453
 1977ntf    fn414535   0.433   7.068   6.282 -0.0882 -0.4960  0.5170
 1978ntf    cn114536   5.367   2.985   5.546 -0.2819  0.1699 -0.0612
 1978ntf    sn214537   5.320   2.858   5.667  0.1612  0.0768  0.0150
 1978ntf    nn314538   5.458   2.785   5.683 -0.5892 -1.3272  0.2876
 1978ntf    sn214539   5.556   2.784   5.806 -0.4643 -0.2974  0.2063
 1978ntf    cn114540   5.701   2.859   5.725 -0.3035 -0.8094  0.0165
 1978ntf    fn414541   5.266   3.037   5.478 -0.1093  0.4618 -0.0956
 1978ntf    fn414542   5.430   3.083   5.608 -0.3465  0.0229  0.2355
 1978ntf    fn414543   5.445   2.940   5.449  0.1584  0.2160  0.2698
 1978ntf    on514544   5.267   2.932   5.778  0.0096  0.7711 -0.5119
 1978ntf    on514545   5.235   2.774   5.587  0.6927 -0.4744  0.0218
 1978ntf    on514546   5.591   2.647   5.833 -0.2573 -0.2724  0.0667
 1978ntf    on514547   5.528   2.874   5.916  0.2824  0.1755  0.0166
 1978ntf    fn414548   5.796   2.875   5.816 -0.2625  0.2467 -0.1998
 1978ntf    fn414549   5.762   2.780   5.639  0.7567  0.5175 -0.4864
 1978ntf    fn414550   5.679   2.976   5.668  0.1827 -0.6798  0.0938
 1979ntf    cn114551   0.181   3.567   4.458  0.0232 -0.1006 -0.1580
 1979ntf    sn214552   0.013   3.512   4.418 -0.0655  0.1231 -0.0982
 1979ntf    nn314553   0.029   3.356   4.424 -0.4371  0.0852 -0.0346
 1979ntf    sn214554   0.084   3.252   4.319  0.3433 -0.2639  0.7003
 1979ntf    cn114555  -0.069   3.183   4.249  0.4383 -0.0273  0.2555
 1979ntf    fn414556   0.230   3.488   4.552  0.0736  0.0484 -0.0580
 1979ntf    fn414557   0.276   3.566   4.366  0.3670  0.1413  0.1915
 1979ntf    fn414558   0.186   3.690   4.507 -0.0275  0.0758 -0.5937
 1979ntf    on514559  -0.071   3.553   4.527 -0.1848 -0.1949 -0.0666
 1979ntf    on514560  -0.010   3.559   4.284  0.0112 -0.6909 -0.4053
 1979ntf    on514561   0.133   3.128   4.373 -0.1651 -0.4164  0.8177
 1979ntf    on514562   0.152   3.306   4.204 -0.5450 -0.2544  0.1719
 1979ntf    fn414563  -0.061   3.073   4.176 -0.0973 -0.3032  0.6088
 1979ntf    fn414564  -0.136   3.142   4.355 -0.4295 -0.4142 -0.4356
 1979ntf    fn414565  -0.146   3.273   4.191  0.5208  0.1560  0.4284
 1980ntf    cn114566   3.049   1.491   1.891 -0.1483 -0.1044  0.4459
 1980ntf    sn214567   3.201   1.450   1.800 -0.1836  0.2598  0.2229
 1980ntf    nn314568   3.153   1.473   1.653  0.2718  0.3719  0.0911
 1980ntf    sn214569   3.076   1.377   1.556 -0.1440  0.2598  0.5297
 1980ntf    cn114570   2.960   1.489   1.471 -0.0029 -0.0967 -0.1417
 1980ntf    fn414571   2.971   1.384   1.883 -0.3025  0.0584 -0.2369
 1980ntf    fn414572   3.072   1.518   2.019 -0.4793  0.1740  0.4473
 1980ntf    fn414573   2.992   1.601   1.846  0.0404 -0.1761  0.0267
 1980ntf    on514574   3.295   1.545   1.855  0.2930 -0.1665  0.1534
 1980ntf    on514575   3.223   1.310   1.827  0.2309  0.2364 -0.2283
 1980ntf    on514576   2.982   1.284   1.613  0.2379  0.0153  0.7614
 1980ntf    on514577   3.157   1.334   1.445 -0.7589  0.1055  0.1375
 1980ntf    fn414578   2.905   1.572   1.559  0.7353  0.2690 -0.0125
 1980ntf    fn414579   3.017   1.568   1.381 -0.0894 -0.4425 -0.4985
 1980ntf    fn414580   2.865   1.425   1.406  0.0990  0.1604 -0.5497
 1981ntf    cn114581   4.597   2.383   2.593  0.0352 -0.0540 -0.0779
 1981ntf    sn214582   4.572   2.226   2.681  0.1696 -0.0089  0.0405
 1981ntf    nn314583   4.430   2.189   2.626  0.0158  1.1570 -0.3638
 1981ntf    sn214584   4.296   2.179   2.708  0.3981 -0.4506  0.1052
 1981ntf    cn114585   4.197   2.165   2.556  0.0539 -0.0130  0.2873
 1981ntf    fn414586   4.531   2.480   2.654 -0.0119  0.2079 -0.5453
 1981ntf    fn414587   4.727   2.400   2.581  0.0379 -0.1758 -0.2354
 1981ntf    fn414588   4.547   2.391   2.471 -0.1164 -0.4833 -0.0468
 1981ntf    on514589   4.682   2.152   2.624  0.3006  0.2483 -0.0386
 1981ntf    on514590   4.582   2.264   2.820  0.3009  0.1200 -0.0049
 1981ntf    on514591   4.247   2.307   2.754  0.9162  0.2521 -1.2124
 1981ntf    on514592   4.272   2.055   2.777  0.1457 -0.7340 -0.4866
 1981ntf    fn414593   4.212   2.272   2.479 -0.0687 -0.4896 -0.4085
 1981ntf    fn414594   4.237   2.060   2.486  0.0095  0.0531  0.1624
 1981ntf    fn414595   4.067   2.153   2.577 -0.0229 -0.0382 -0.1817
 1982ntf    cn114596   6.475   1.046   5.798 -0.1130  0.6231 -0.3122
 1982ntf    sn214597   6.548   1.193   5.877  0.1633  0.2131  0.2055
 1982ntf    nn314598   6.526   1.294   5.759 -0.7498 -0.4556 -0.2146
 1982ntf    sn214599   6.446   1.429   5.746 -0.0150  0.0080 -0.0392
 1982ntf    cn114600   6.593   1.534   5.761  0.1169 -0.1044 -0.5279
 1982ntf    fn414601   6.397   1.090   5.701 -0.9789  0.1314  0.1497
 1982ntf    fn414602   6.564   0.966   5.742 -0.2899  0.1597  0.0589
 1982ntf    fn414603   6.404   0.970   5.880  0.0221  0.2005 -0.5900
 1982ntf    on514604   6.472   1.211   5.998 -0.3812 -0.4155 -0.0367
 1982ntf    on514605   6.681   1.145   5.903  0.0868 -0.2289 -0.2000
 1982ntf    on514606   6.361   1.465   5.856  0.2312 -0.1182  0.1932
 1982ntf    on514607   6.397   1.436   5.610  0.2594  0.2982 -0.1230
 1982ntf    fn414608   6.648   1.521   5.880 -0.6286 -0.3259 -0.2067
 1982ntf    fn414609   6.683   1.506   5.668  0.3033 -0.2413 -0.3066
 1982ntf    fn414610   6.575   1.663   5.735  0.8886  0.1045 -0.0443
 1983ntf    cn114611   5.267   6.796   2.124  0.0330 -0.1450  0.3269
 1983ntf    sn214612   5.214   6.834   1.955 -0.0282 -0.0725  0.3620
 1983ntf    nn314613   5.098   6.934   1.989  0.0576  0.2607 -0.3028
 1983ntf    sn214614   5.105   7.086   2.028  0.0342  0.1065  0.3172
 1983ntf    cn114615   5.009   7.084   2.182  0.3625 -0.2221  0.5200
 1983ntf    fn414616   5.364   6.707   2.138  0.1376 -0.1393 -0.3599
 1983ntf    fn414617   5.312   6.907   2.181  0.1904 -0.1248  0.1638
 1983ntf    fn414618   5.168   6.747   2.197 -0.1587  1.2937  1.0752
 1983ntf    on514619   5.334   6.889   1.897 -0.2364  0.2480  0.2291
 1983ntf    on514620   5.157   6.710   1.908 -0.2502  0.1214  0.1111
 1983ntf    on514621   5.042   7.181   1.940  0.1037 -0.2138 -0.0832
 1983ntf    on514622   5.236   7.136   2.063  0.1108 -0.0526  0.2599
 1983ntf    fn414623   4.885   7.042   2.157  0.2360  0.4909 -0.1035
 1983ntf    fn414624   5.064   7.003   2.271  0.9524 -0.1281  0.2455
 1983ntf    fn414625   4.999   7.206   2.232  0.3652  0.2052 -0.4810
 1984ntf    cn114626   5.897   1.153   2.693 -0.3194  0.0332 -0.3358
 1984ntf    sn214627   5.732   1.121   2.625 -0.3986  0.0729 -0.1641
 1984ntf    nn314628   5.658   1.123   2.763 -0.3525 -0.1478 -0.1346
 1984ntf    sn214629   5.555   1.228   2.819  0.2389  0.3721 -0.0178
 1984ntf    cn114630   5.407   1.141   2.761  0.2318  0.2184  0.2281
 1984ntf    fn414631   5.907   1.276   2.739  0.1520 -0.1651  0.1081
 1984ntf    fn414632   5.922   1.067   2.791 -0.2969  0.2314 -0.1660
 1984ntf    fn414633   5.996   1.137   2.607 -0.1449  0.3918 -0.2022
 1984ntf    on514634   5.716   1.231   2.533 -0.8773 -0.3614 -0.6064
 1984ntf    on514635   5.739   0.993   2.559 -0.4587 -0.2431  0.4332
 1984ntf    on514636   5.563   1.354   2.749  0.0682  0.6078  0.3828
 1984ntf    on514637   5.542   1.216   2.962 -0.4044  0.1378 -0.0923
 1984ntf    fn414638   5.304   1.222   2.783  0.3272  0.3582  0.1588
 1984ntf    fn414639   5.400   1.119   2.631 -0.2007  0.0792  0.2722
 1984ntf    fn414640   5.377   1.029   2.824 -0.0147  0.0534 -0.1747
 1985ntf    cn114641   5.825   1.941   3.102  0.0476 -0.4308  0.0375
 1985ntf    sn214642   5.945   1.909   3.234  0.0729 -0.1129  0.0928
 1985ntf    nn314643   6.001   1.766   3.202 -0.1570 -0.2346  0.2317
 1985ntf    sn214644   6.145   1.728   3.151 -0.3569 -0.4346 -0.1867
 1985ntf    cn114645   6.172   1.565   3.227  0.1660 -0.2000  0.1373
 1985ntf    fn414646   5.727   1.853   3.089 -0.4540  0.2047 -0.5674
 1985ntf    fn414647   5.766   2.058   3.122  0.7869  0.0119 -0.3258
 1985ntf    fn414648   5.874   1.953   2.979 -0.4975  0.3496 -0.1125
 1985ntf    on514649   6.034   2.022   3.223  0.1518 -0.1887 -0.0513
 1985ntf    on514650   5.869   1.895   3.356 -0.3673  0.2948 -0.1329
 1985ntf    on514651   6.253   1.804   3.208 -1.0020  0.2111  0.2044
 1985ntf    on514652   6.143   1.695   3.011  0.0750 -0.2619 -0.2325
 1985ntf    fn414653   6.059   1.496   3.232  0.2724 -0.3631  0.3225
 1985ntf    fn414654   6.269   1.506   3.160  0.3026  0.0709  0.0990
 1985ntf    fn414655   6.212   1.566   3.353 -0.2842 -0.4209  0.2883
 1986ntf    cn114656   5.700   1.933   3.899  0.2763  0.0631  0.2027
 1986ntf    sn214657   5.673   1.773   3.815 -0.0164  0.3174 -0.1902
 1986ntf    nn314658   5.815   1.709   3.829 -0.3750 -0.5700 -0.5412
 1986ntf    sn214659   5.874   1.624   3.947 -0.1065  0.1541 -0.1413
 1986ntf    cn114660   5.829   1.453   3.903  0.0814  0.0603  0.0336
 1986ntf    fn414661   5.580   1.980   3.929 -0.0960 -0.5675 -0.2462
 1986ntf    fn414662   5.766   1.916   4.012  0.4063  0.0257  0.1220
 1986ntf    fn414663   5.766   2.017   3.822 -0.0462  0.0522 -0.0908
 1986ntf    on514664   5.569   1.718   3.899  0.2730 -0.0960 -0.1019
 1986ntf    on514665   5.647   1.810   3.678 -0.5109 -0.4416 -0.3044
 1986ntf    on514666   5.817   1.641   4.078  0.3985  0.2279  0.0711
 1986ntf    on514667   6.017   1.614   3.933 -0.0766 -0.4103  0.5087
 1986ntf    fn414668   5.856   1.359   3.992 -0.3185 -0.2747 -0.1959
 1986ntf    fn414669   5.701   1.445   3.874  0.2390 -0.0925 -0.6269
 1986ntf    fn414670   5.900   1.412   3.799 -0.0943 -0.8953  0.2759
 1987ntf    cn114671   0.373   3.488   6.791 -0.4919  0.3241 -0.3013
 1987ntf    sn214672   0.358   3.311   6.829 -0.1688  0.3095 -0.2418
 1987ntf    nn314673   0.211   3.294   6.778 -0.1194  0.0985 -0.3164
 1987ntf    sn214674   0.074   3.290   6.854  0.1715 -0.1225  0.1986
 1987ntf    cn114675  -0.025   3.386   6.735  0.5121  0.0890  0.0858
 1987ntf    fn414676   0.360   3.518   6.663 -0.0497  0.0590 -0.4126
 1987ntf    fn414677   0.277   3.554   6.853  0.1219  0.2461  0.7581
 1987ntf    fn414678   0.493   3.536   6.818 -0.3211 -0.1529 -0.2028
 1987ntf    on514679   0.453   3.241   6.745 -0.0074  0.0772  0.1323
 1987ntf    on514680   0.377   3.321   6.972  0.4982 -0.9655 -0.2197
 1987ntf    on514681   0.071   3.379   6.967 -0.1531  0.1314 -0.0082
 1987ntf    on514682   0.017   3.157   6.855  0.4667 -0.2591 -0.4240
 1987ntf    fn414683   0.018   3.511   6.726  0.0617  0.2022 -0.5311
 1987ntf    fn414684  -0.019   3.339   6.611  0.5160  0.2012  0.0440
 1987ntf    fn414685  -0.149   3.404   6.778  0.3789  0.1297 -0.3075
 1988ntf    cn114686   0.876   5.717   2.637 -0.3143  0.3023  0.0775
 1988ntf    sn214687   0.823   5.881   2.695 -0.3351  0.2813  0.1177
 1988ntf    nn314688   0.933   5.898   2.806  0.0628 -0.2603 -0.1849
 1988ntf    sn214689   0.911   5.947   2.953  0.5085 -0.1704 -0.1485
 1988ntf    cn114690   0.892   5.782   3.026  0.1900 -0.0855 -0.0379
 1988ntf    fn414691   0.908   5.634   2.735 -0.1953  0.0399 -0.1806
 1988ntf    fn414692   0.776   5.653   2.579 -0.1783 -0.1478  0.3268
 1988ntf    fn414693   0.975   5.715   2.548 -0.3930  0.4716 -0.0138
 1988ntf    on514694   0.824   5.968   2.580  0.1158  0.0487 -0.0592
 1988ntf    on514695   0.690   5.855   2.744 -0.0390 -0.2099  0.6710
 1988ntf    on514696   0.788   6.018   2.977  0.7298  0.0758  0.2735
 1988ntf    on514697   1.032   5.990   3.020  0.4406 -0.3701  0.1071
 1988ntf    fn414698   0.780   5.734   2.976  0.2567 -0.0376 -0.2311
 1988ntf    fn414699   0.988   5.700   2.986  0.3102 -0.0236  0.1244
 1988ntf    fn414700   0.895   5.782   3.159  0.2127  0.6587 -0.0336
 1989ntf    cn114701   4.033   5.514   6.770 -0.0926 -0.2281 -0.0942
 1989ntf    sn214702   4.139   5.619   6.665  0.1165 -0.0036  0.3408
 1989ntf    nn314703   4.236   5.670   6.777 -0.2067  0.5118  0.3898
 1989ntf    sn214704   4.384   5.634   6.815 -0.1814  0.1104 -0.0807
 1989ntf    cn114705   4.441   5.792   6.887 -0.2171  0.0249  0.1339
 1989ntf    fn414706   4.102   5.407   6.805 -0.0723 -0.1317  0.1619
 1989ntf    fn414707   4.004   5.581   6.880 -1.0319 -0.0592 -0.4272
 1989ntf    fn414708   3.919   5.481   6.710  0.3861 -0.3627 -0.9581
 1989ntf    on514709   4.187   5.528   6.564 -0.1335  0.2663 -0.0239
 1989ntf    on514710   4.058   5.730   6.622 -0.4082 -0.5198 -0.0292
 1989ntf    on514711   4.470   5.616   6.700  0.1441  0.1566  0.1517
 1989ntf    on514712   4.398   5.543   6.926  0.4397  0.8749  0.4831
 1989ntf    fn414713   4.425   5.886   6.796 -0.1784 -0.2070 -0.1163
 1989ntf    fn414714   4.374   5.839   6.990  0.1551  0.2617  0.2693
 1989ntf    fn414715   4.567   5.787   6.928 -0.1846  0.3937  0.0843
 1990ntf    cn114716   3.064   2.083   2.305 -0.2187  0.2099  0.2217
 1990ntf    sn214717   2.933   2.126   2.424 -0.4627  0.0873 -0.0013
 1990ntf    nn314718   2.827   2.207   2.341 -0.0985  0.0624 -0.4968
 1990ntf    sn214719   2.849   2.354   2.289 -0.1143  0.1553 -0.2414
 1990ntf    cn114720   2.747   2.448   2.406 -0.0023 -0.4136  0.3265
 1990ntf    fn414721   3.013   2.012   2.206 -0.4835  0.2050  0.3593
 1990ntf    fn414722   3.111   2.195   2.253  0.2460  0.0235  0.2351
 1990ntf    fn414723   3.164   2.013   2.355 -0.0615 -0.0441 -0.4338
 1990ntf    on514724   2.870   2.004   2.467 -0.4456 -0.0678 -0.4067
 1990ntf    on514725   3.003   2.203   2.524  0.1623 -0.3194 -0.1209
 1990ntf    on514726   2.797   2.375   2.157  0.2200  0.1615 -0.3739
 1990ntf    on514727   2.978   2.411   2.319 -0.1966  0.2300 -0.0235
 1990ntf    fn414728   2.618   2.420   2.398 -0.1724  0.4780 -0.3010
 1990ntf    fn414729   2.778   2.440   2.534 -0.1152  0.4994  0.4213
 1990ntf    fn414730   2.748   2.576   2.370  0.0627 -0.5064 -0.0035
 1991ntf    cn114731   6.884   3.841   5.110  0.1055  0.7025  0.3503
 1991ntf    sn214732   6.861   3.804   5.286  0.1557 -0.5823  0.0960
 1991ntf    nn314733   6.824   3.951   5.329  0.4997 -0.5473  0.2721
 1991ntf    sn214734   6.916   4.057   5.400  0.0829 -0.0933  0.1340
 1991ntf    cn114735   6.856   4.190   5.292 -0.1795 -0.3221 -0.0050
 1991ntf    fn414736   6.981   3.923   5.072  0.4887  0.0527 -0.0885
 1991ntf    fn414737   6.924   3.727   5.056 -0.2340  0.6386  0.2349
 1991ntf    fn414738   6.772   3.871   5.046  0.1073 -0.0207  0.0011
 1991ntf    on514739   6.751   3.711   5.286  0.0044 -0.4044  0.3684
 1991ntf    on514740   6.990   3.755   5.327  0.3505 -0.2183 -0.0761
 1991ntf    on514741   7.056   4.049   5.368  0.1286  0.3702  0.2199
 1991ntf    on514742   6.882   4.089   5.537 -0.1665  0.0942  0.0296
 1991ntf    fn414743   6.724   4.198   5.295 -0.1788 -0.2496 -0.1287
 1991ntf    fn414744   6.907   4.308   5.321 -0.5180 -0.1018 -0.2961
 1991ntf    fn414745   6.876   4.180   5.161  0.2588 -0.3746  0.0649
 1992ntf    cn114746   4.751   6.869   0.450  0.0126  0.4731  0.0257
 1992ntf    sn214747   4.660   6.748   0.350  0.1670  0.3402  0.0462
 1992ntf    nn314748   4.720   6.778   0.208  0.3213  0.3128  0.1050
 1992ntf    sn214749   4.701   6.688   0.081  0.2261  0.3573  0.0879
 1992ntf    cn114750   4.753   6.817  -0.036  0.1374 -0.1027 -0.4616
 1992ntf    fn414751   4.882   6.853   0.444 -0.0259  0.0383  0.3444
 1992ntf    fn414752   4.709   6.991   0.420 -0.1938  0.3795 -0.0662
 1992ntf    fn414753   4.728   6.862   0.580  0.2876 -0.0586  0.0466
 1992ntf    on514754   4.708   6.627   0.412  0.2579 -0.1058 -0.8787
 1992ntf    on514755   4.521   6.779   0.374  0.0698 -0.4944  0.6071
 1992ntf    on514756   4.568   6.648   0.042  0.5353  0.1837 -0.8309
 1992ntf    on514757   4.804   6.589   0.060  0.2056  0.3412  0.0631
 1992ntf    fn414758   4.656   6.907  -0.044  0.1917 -0.0075 -0.0274
 1992ntf    fn414759   4.851   6.892   0.010 -0.6070  0.6390 -0.0610
 1992ntf    fn414760   4.791   6.777  -0.157  0.3485 -0.4290 -0.2859
 1993ntf    cn114761   0.270   3.269   2.562 -0.2855 -0.0148 -0.2102
 1993ntf    sn214762   0.429   3.206   2.623 -0.2661 -0.0033 -0.2484
 1993ntf    nn314763   0.522   3.332   2.620  0.1993 -0.3519 -0.4915
 1993ntf    sn214764   0.679   3.341   2.609  0.1893  0.0583 -0.3257
 1993ntf    cn114765   0.707   3.519   2.630 -0.3782  0.0759  0.3362
 1993ntf    fn414766   0.253   3.393   2.603 -0.3330 -0.1569  0.2058
 1993ntf    fn414767   0.266   3.260   2.430  0.3731 -0.6306 -0.1976
 1993ntf    fn414768   0.171   3.200   2.616 -0.0672  0.0404  0.2679
 1993ntf    on514769   0.412   3.163   2.760 -0.1526  0.5289 -0.0669
 1993ntf    on514770   0.460   3.108   2.522  0.4230 -0.0687  0.0230
 1993ntf    on514771   0.721   3.315   2.473 -0.2126  0.5564 -0.5462
 1993ntf    on514772   0.758   3.298   2.722  0.0796  0.3045 -0.1552
 1993ntf    fn414773   0.644   3.600   2.547 -0.2102  0.2518  0.3804
 1993ntf    fn414774   0.682   3.562   2.752 -0.0763  0.0934  0.3918
 1993ntf    fn414775   0.835   3.549   2.614 -0.4491  0.4344  0.4473
 1994ntf    cn114776   5.311   1.339   3.860  0.1292 -0.1179 -0.4625
 1994ntf    sn214777   5.377   1.208   3.752 -0.0589 -0.4859 -0.1334
 1994ntf    nn314778   5.242   1.133   3.720 -0.1494 -0.4276  0.1082
 1994ntf    sn214779   5.176   1.121   3.578 -0.2206 -0.6657  0.1611
 1994ntf    cn114780   5.048   0.998   3.614 -0.4171 -0.4442  0.2187
 1994ntf    fn414781   5.341   1.322   3.987 -0.7551 -0.0046 -0.2330
 1994ntf    fn414782   5.352   1.463   3.836  0.4220 -0.0078  0.5709
 1994ntf    fn414783   5.179   1.353   3.860  0.1746  0.3341  0.2744
 1994ntf    on514784   5.443   1.268   3.639  0.7092 -0.8361  0.1277
 1994ntf    on514785   5.461   1.135   3.843 -0.2172 -0.2811  0.1814
 1994ntf    on514786   5.253   1.064   3.470 -0.1279  0.6745 -0.5036
 1994ntf    on514787   5.095   1.238   3.553  0.4459 -0.1848  0.2140
 1994ntf    fn414788   4.980   0.957   3.508  0.0333  0.3358 -0.3795
 1994ntf    fn414789   5.111   0.888   3.653 -0.6599 -0.6699 -0.0187
 1994ntf    fn414790   4.968   1.019   3.717 -0.5517 -0.4320  0.1130
 1995ntf    cn114791   6.722   6.353   2.751 -0.0243 -0.2862 -0.0725
 1995ntf    sn214792   6.667   6.272   2.905 -0.0741 -0.3670 -0.1330
 1995ntf    nn314793   6.592   6.149   2.842 -0.8048  0.1986 -0.3879
 1995ntf    sn214794   6.585   5.997   2.882 -0.3023  0.3118  0.1525
 1995ntf    cn114795   6.470   5.942   2.752 -0.3849 -0.0009  0.3582
 1995ntf    fn414796   6.808   6.448   2.780  0.0198 -0.4830  0.4550
 1995ntf    fn414797   6.789   6.275   2.668 -0.0070 -0.3200 -0.0270
 1995ntf    fn414798   6.625   6.409   2.681  0.6072  0.1148 -0.6325
 1995ntf    on514799   6.793   6.240   2.968 -0.1519 -0.4253 -0.0079
 1995ntf    on514800   6.581   6.370   2.966  0.6113  0.0188  0.2252
 1995ntf    on514801   6.509   5.961   2.999 -0.7796  0.0296 -0.2423
 1995ntf    on514802   6.704   5.920   2.857 -0.2249  0.5298 -0.1635
 1995ntf    fn414803   6.500   5.994   2.634 -0.9218 -0.3571  0.0600
 1995ntf    fn414804   6.464   5.811   2.735  0.9710 -0.0312  0.0136
 1995ntf    fn414805   6.346   5.985   2.770 -0.5972 -0.3462 -0.2485
 1996ntf    cn114806   4.222   3.773   0.768 -0.3605  0.2445 -0.5366
 1996ntf    sn214807   4.189   3.597   0.798  0.1186  0.3200  0.4622
 1996ntf    nn314808   4.274   3.578   0.928  0.1654  0.1862  0.4115
 1996ntf    sn214809   4.230   3.568   1.079  0.0233  0.3270  0.3788
 1996ntf    cn114810   4.231   3.387   1.085  0.1984  0.3037 -0.2670
 1996ntf    fn414811   4.344   3.796   0.724 -0.0787  0.2192  0.2188
 1996ntf    fn414812   4.130   3.831   0.692 -0.6011 -0.0363 -0.4616
 1996ntf    fn414813   4.211   3.833   0.885  0.5414 -0.0978 -0.2684
 1996ntf    on514814   4.045   3.591   0.805  0.1214 -0.5453 -0.1186
 1996ntf    on514815   4.259   3.536   0.687 -0.1623  0.6030  0.1270
 1996ntf    on514816   4.097   3.614   1.110 -0.2067 -0.1642  0.1190
 1996ntf    on514817   4.343   3.599   1.163  0.1859 -0.0087  0.2858
 1996ntf    fn414818   4.349   3.326   1.086  0.1004  0.1156  0.3611
 1996ntf    fn414819   4.181   3.358   1.204 -0.3704  0.8453 -0.3706
 1996ntf    fn414820   4.159   3.324   0.994 -0.2910  0.1125  0.2466
 1997ntf    cn114821   5.946   0.891   4.510  0.1537  0.1343 -0.3788
 1997ntf    sn214822   5.816   0.996   4.582  0.4387 -0.1831  0.6142
 1997ntf    nn314823   5.711   0.888   4.628 -0.1080 -0.2790 -0.8313
 1997ntf    sn214824   5.557   0.871   4.604 -0.2937  0.1270  0.0493
 1997ntf    cn114825   5.580   0.753   4.467 -0.3123  0.0225  0.1365
 1997ntf    fn414826   5.976   0.781   4.578  0.3074  0.1978 -0.3435
 1997ntf    fn414827   5.905   0.843   4.394 -0.1955  0.3146 -0.3320
 1997ntf    fn414828   6.059   0.956   4.487  0.7642 -0.5673  0.5550
 1997ntf    on514829   5.883   1.066   4.689  0.3311  0.2112  0.4264
 1997ntf    on514830   5.779   1.064   4.461  0.6639 -0.7590  0.2170
 1997ntf    on514831   5.494   0.982   4.536 -0.1187  0.6172  0.6738
 1997ntf    on514832   5.479   0.793   4.696 -0.2784 -0.2673 -0.2703
 1997ntf    fn414833   5.581   0.815   4.350  0.2556  0.3755  0.3245
 1997ntf    fn414834   5.682   0.670   4.484 -0.0631  0.2867 -0.0648
 1997ntf    fn414835   5.475   0.672   4.463 -0.0598 -0.2896 -0.2476
 1998ntf    cn114836   2.821   3.028   3.346  0.4422 -0.2470 -0.2641
 1998ntf    sn214837   2.821   2.994   3.524  0.0840 -0.3121 -0.2763
 1998ntf    nn314838   2.876   3.133   3.574 -0.0394 -0.2613 -0.2802
 1998ntf    sn214839   3.027   3.157   3.609 -0.1003  0.0559 -0.2343
 1998ntf    cn114840   3.048   3.058   3.760  0.0868  0.2398 -0.1385
 1998ntf    fn414841   2.777   3.151   3.323 -0.2423 -0.3207  0.5957
 1998ntf    fn414842   2.937   3.030   3.282  0.2408  0.1905 -0.6229
 1998ntf    fn414843   2.737   2.949   3.281  0.1734 -0.7057  0.6296
 1998ntf    on514844   2.680   2.990   3.554  0.0082  0.1424 -0.5684
 1998ntf    on514845   2.909   2.881   3.534 -0.0025 -0.3733 -0.1941
 1998ntf    on514846   3.062   3.287   3.660  0.8399 -0.2271 -0.1438
 1998ntf    on514847   3.128   3.107   3.519  0.0019  0.2367 -0.2199
 1998ntf    fn414848   2.994   3.106   3.871 -0.2514 -0.1553 -0.1272
 1998ntf    fn414849   3.007   2.932   3.757  0.3671  0.1427  0.1056
 1998ntf    fn414850   3.175   3.051   3.796  0.0343  0.1659  0.0358
 1999ntf    cn114851   6.396   2.045   5.692  0.0863  0.1139 -0.4779
 1999ntf    sn214852   6.462   2.192   5.607  0.2542  0.3559  0.0644
 1999ntf    nn314853   6.438   2.143   5.459 -0.1270  0.0049  0.2394
 1999ntf    sn214854   6.507   2.195   5.328  0.2904 -0.1524  0.3961
 1999ntf    cn114855   6.406   2.343   5.300 -0.0211 -0.3741  0.3406
 1999ntf    fn414856   6.461   1.938   5.649  0.3599  0.0684  0.0476
 1999ntf    fn414857   6.411   2.052   5.823 -0.0923 -0.0878 -0.4471
 1999ntf    fn414858   6.267   2.032   5.667  0.0936  0.2471 -0.5847
 1999ntf    on514859   6.369   2.293   5.651 -0.0932  0.0426  0.0590
 1999ntf    on514860   6.599   2.197   5.652  0.2849 -0.1207  0.0351
 1999ntf    on514861   6.476   2.117   5.211  0.0772  0.1941  0.2209
 1999ntf    on514862   6.640   2.250   5.343 -0.1307  1.1004 -0.3930
 1999ntf    fn414863   6.415   2.428   5.401  0.0533  0.0925 -0.0546
 1999ntf    fn414864   6.446   2.417   5.198 -0.1321 -0.2895  0.3576
 1999ntf    fn414865   6.278   2.316   5.283 -0.1174  0.1456  0.2153
 2000ntf    cn114866   6.333   2.730   5.161 -0.1629 -0.1880 -0.3740
 2000ntf    sn214867   6.287   2.875   5.061  0.2680  0.3259  0.1599
 2000ntf    nn314868   6.335   2.820   4.921 -0.3442  0.0777  0.0439
 2000ntf    sn214869   6.243   2.762   4.808 -0.2251  0.4078 -0.2220
 2000ntf    cn114870   6.349   2.770   4.660 -0.1480 -0.3000 -0.2084
 2000ntf    fn414871   6.275   2.736   5.279  0.2534 -0.3876 -0.1555
 2000ntf    fn414872   6.302   2.612   5.111 -0.6158 -0.1564 -0.1693
 2000ntf    fn414873   6.464   2.728   5.178 -0.1496 -0.7987 -0.5358
 2000ntf    on514874   6.143   2.882   5.073  0.2114 -0.5160  0.0640
 2000ntf    on514875   6.364   2.987   5.108  0.7153 -0.0873  0.4172
 2000ntf    on514876   6.135   2.853   4.779 -0.4527  0.0195 -0.6042
 2000ntf    on514877   6.211   2.622   4.815  0.0261  0.3485 -0.2356
 2000ntf    fn414878   6.388   2.894   4.637  0.7882 -0.5785 -0.1566
 2000ntf    fn414879   6.458   2.700   4.687 -0.1311 -0.0158  0.4896
 2000ntf    fn414880   6.289   2.723   4.552 -0.3418  0.3381 -0.3857
 2001ntf    cn114881   3.788   6.109   2.645 -0.1579  0.4155  0.1384
 2001ntf    sn214882   3.787   5.965   2.533 -0.0022  0.4607  0.0786
 2001ntf    nn314883   3.646   5.987   2.468 -0.0138  0.7567  0.1990
 2001ntf    sn214884   3.505   5.947   2.524  0.0212  0.1523 -0.1351
 2001ntf    cn114885   3.509   5.775   2.465 -0.6843  0.1633 -0.2297
 2001ntf    fn414886   3.771   6.226   2.585 -0.2814  0.4363  0.2136
 2001ntf    fn414887   3.695   6.097   2.738 -0.2409 -0.2704 -0.0293
 2001ntf    fn414888   3.901   6.124   2.711 -0.1040 -0.5968  0.2857
 2001ntf    on514889   3.898   6.003   2.449  0.2650  1.0866  0.6985
 2001ntf    on514890   3.802   5.847   2.615  0.2129  0.3901 -0.0630
 2001ntf    on514891   3.392   6.003   2.454  0.1666  0.6634  0.0359
 2001ntf    on514892   3.508   5.933   2.668  1.1039 -0.1610 -0.1786
 2001ntf    fn414893   3.391   5.716   2.472 -0.3702 -0.4381  0.2074
 2001ntf    fn414894   3.537   5.762   2.337  0.0692  0.3966 -0.0960
 2001ntf    fn414895   3.585   5.704   2.547 -0.3893  0.2985 -0.3832
 2002ntf    cn114896   1.572   5.353   3.123  0.4455  0.0753 -0.5112
 2002ntf    sn214897   1.475   5.208   3.071  0.0457  0.1633 -0.0254
 2002ntf    nn314898   1.547   5.101   3.160  0.7600  0.6376 -0.0187
 2002ntf    sn214899   1.632   4.975   3.121 -0.0478  0.1009 -0.0718
 2002ntf    cn114900   1.520   4.834   3.143 -0.0259  0.1172  0.1399
 2002ntf    fn414901   1.699   5.358   3.085  0.4546  0.2487 -0.4563
 2002ntf    fn414902   1.518   5.463   3.076  0.4099  0.4312  0.3393
 2002ntf    fn414903   1.579   5.372   3.254 -0.2765 -0.1898 -0.4308
 2002ntf    on514904   1.340   5.235   3.111 -0.4316 -0.6144 -1.0608
 2002ntf    on514905   1.490   5.195   2.928 -0.9317  0.5730 -0.1715
 2002ntf    on514906   1.730   4.954   3.225 -0.1743 -0.2268 -0.0167
 2002ntf    on514907   1.682   4.968   2.986 -0.3008  0.1770 -0.1694
 2002ntf    fn414908   1.513   4.807   3.273 -0.8306 -0.1735  0.0443
 2002ntf    fn414909   1.395   4.860   3.108 -0.1885  0.0943  0.6868
 2002ntf    fn414910   1.558   4.723   3.082 -0.5424 -0.0546  0.1189
 2003ntf    cn114911   1.466   5.913   4.479  0.2559  0.4313  0.2551
 2003ntf    sn214912   1.482   6.082   4.545 -0.2027  0.5011  0.1893
 2003ntf    nn314913   1.637   6.078   4.566 -0.1235 -0.3798 -0.5331
 2003ntf    sn214914   1.744   6.127   4.462  0.3948 -0.1880  0.0839
 2003ntf    cn114915   1.868   5.999   4.500  0.2797 -0.3240  0.0032
 2003ntf    fn414916   1.554   5.889   4.384 -0.5438 -0.0189 -0.3882
 2003ntf    fn414917   1.499   5.821   4.568 -0.2097  0.4860  0.4864
 2003ntf    fn414918   1.348   5.880   4.430  0.4084 -0.3285  0.3918
 2003ntf    on514919   1.430   6.169   4.443  0.2134  0.1606 -0.3194
 2003ntf    on514920   1.410   6.090   4.670 -0.6073  0.4578 -0.0401
 2003ntf    on514921   1.808   6.250   4.501  0.0986  0.0830 -0.2816
 2003ntf    on514922   1.721   6.107   4.321  0.1734 -0.0040  0.0949
 2003ntf    fn414923   1.816   5.878   4.516  0.1210 -0.1646  0.7084
 2003ntf    fn414924   1.965   5.983   4.411  0.3391  0.2377 -0.0354
 2003ntf    fn414925   1.926   6.028   4.615  0.1569 -0.5535  0.1230
 2004ntf    cn114926   0.367   3.989   1.412 -0.0513 -0.3957  0.1044
 2004ntf    sn214927   0.188   3.967   1.397 -0.0795 -0.0666 -0.0440
 2004ntf    nn314928   0.140   4.091   1.313 -0.3705  0.0001  0.2197
 2004ntf    sn214929   0.001   4.165   1.313 -0.1277  0.4578 -0.0533
 2004ntf    cn114930   0.017   4.236   1.146 -0.1011 -0.0109 -0.2528
 2004ntf    fn414931   0.402   4.091   1.488 -0.0816  0.2552 -0.7369
 2004ntf    fn414932   0.429   3.888   1.470  0.1458 -0.0220  0.5481
 2004ntf    fn414933   0.425   4.011   1.295 -0.0954 -0.3529  0.0907
 2004ntf    on514934   0.179   3.841   1.328 -0.6738  0.0081 -0.1156
 2004ntf    on514935   0.146   3.981   1.534  0.3569 -0.1812  0.1016
 2004ntf    on514936  -0.005   4.281   1.398 -0.1198  0.0724  0.4764
 2004ntf    on514937  -0.118   4.084   1.314  0.1260  0.0843  0.1614
 2004ntf    fn414938   0.014   4.137   1.059  0.0240 -0.4603  0.2488
 2004ntf    fn414939  -0.079   4.325   1.124 -0.1084  0.1173  0.2855
 2004ntf    fn414940   0.129   4.304   1.129 -0.2653  0.1354 -0.7757
 2005ntf    cn114941   4.136   2.372   6.232 -0.2180 -0.2056  0.0508
 2005ntf    sn214942   3.997   2.366   6.115 -0.1220 -0.1192 -0.0689
 2005ntf    nn314943   3.865   2.335   6.193  0.2236 -0.2878  0.4508
 2005ntf    sn214944   3.790   2.203   6.235  0.1522 -0.2109  0.5673
 2005ntf    cn114945   3.870   2.183   6.397  0.7277  0.4293  0.3658
 2005ntf    fn414946   4.170   2.248   6.259 -0.5168 -0.2220  0.3588
 2005ntf    fn414947   4.243   2.430   6.180  0.0654 -0.8579 -0.0951
 2005ntf    fn414948   4.097   2.434   6.342 -0.2317 -0.2400  0.0645
 2005ntf    on514949   3.989   2.500   6.061 -0.7265 -0.0214  0.2590
 2005ntf    on514950   4.050   2.266   6.025 -0.0705  0.1149 -0.3021
 2005ntf    on514951   3.830   2.091   6.152 -0.1463 -0.3350  0.5891
 2005ntf    on514952   3.648   2.218   6.254  0.1001 -0.1824  0.1603
 2005ntf    fn414953   3.999   2.154   6.398  0.7748  0.6250  0.0397
 2005ntf    fn414954   3.862   2.295   6.467  0.4648  0.2908  0.5564
 2005ntf    fn414955   3.809   2.084   6.460 -0.2524  0.3548 -0.6649
 2006ntf    cn114956   1.516   1.543   0.766  0.4059  0.0303 -0.0681
 2006ntf    sn214957   1.507   1.441   0.616  0.4870  0.0724 -0.1017
 2006ntf    nn314958   1.470   1.303   0.681  0.2938  0.1790  0.0159
 2006ntf    sn214959   1.337   1.275   0.760  0.3044 -0.0336 -0.0416
 2006ntf    cn114960   1.254   1.190   0.623  0.1625 -0.0654  0.0641
 2006ntf    fn414961   1.421   1.635   0.775  0.4066  0.0267 -0.0242
 2006ntf    fn414962   1.524   1.483   0.883 -0.7901  0.1463  0.0861
 2006ntf    fn414963   1.618   1.628   0.760  0.0745  0.3906 -0.7426
 2006ntf    on514964   1.412   1.506   0.528 -0.1806 -0.3157  0.3259
 2006ntf    on514965   1.641   1.435   0.565  0.4107  0.0134 -0.2984
 2006ntf    on514966   1.263   1.395   0.788 -0.0275 -0.1268 -0.5031
 2006ntf    on514967   1.337   1.182   0.869 -0.7359 -0.0198 -0.0216
 2006ntf    fn414968   1.212   1.278   0.534  0.2510  0.3603  0.4406
 2006ntf    fn414969   1.327   1.095   0.567  0.2677  0.0312  0.0371
 2006ntf    fn414970   1.140   1.137   0.665  0.6958 -1.0353  0.3188
 2007ntf    cn114971   3.762   6.720   0.597  0.3613  0.5556  0.1554
 2007ntf    sn214972   3.934   6.752   0.550  0.3524 -0.0625 -0.2975
 2007ntf    nn314973   3.948   6.907   0.568 -0.6621 -0.0212  0.1853
 2007ntf    sn214974   3.999   6.994   0.688 -0.2407  0.0757 -0.0608
 2007ntf    cn114975   3.881   7.132   0.680 -0.2952  0.0236 -0.1507
 2007ntf    fn414976   3.727   6.596   0.570 -0.5518  0.8162  0.0832
 2007ntf    fn414977   3.736   6.731   0.727 -0.4840 -0.1299  0.0550
 2007ntf    fn414978   3.675   6.795   0.531  0.2564  0.0042 -0.3373
 2007ntf    on514979   4.006   6.672   0.647  0.5522 -0.6466 -0.9140
 2007ntf    on514980   3.949   6.701   0.416  0.4388  0.2893 -0.4234
 2007ntf    on514981   4.123   7.059   0.653 -0.0544 -0.0899  0.2793
 2007ntf    on514982   3.988   6.948   0.824 -0.0714 -0.3015 -0.1737
 2007ntf    fn414983   3.856   7.194   0.794  0.5251 -0.0806  0.0912
 2007ntf    fn414984   3.910   7.226   0.591  0.7696 -0.2715 -0.1234
 2007ntf    fn414985   3.759   7.091   0.647 -0.3577 -0.1935  0.3413
 2008ntf    cn114986   6.481   3.748   2.918 -0.2157 -0.3977  0.2411
 2008ntf    sn214987   6.579   3.599   2.880  0.1306 -0.1791  0.2843
 2008ntf    nn314988   6.587   3.601   2.724 -0.4269  0.1851  0.2555
 2008ntf    sn214989   6.613   3.481   2.626  0.2663  0.4984  0.0496
 2008ntf    cn114990   6.786   3.517   2.581  0.3221 -0.0420 -0.1846
 2008ntf    fn414991   6.452   3.747   3.047  0.6853 -0.1703  0.4470
 2008ntf    fn414992   6.559   3.852   2.896 -0.5369 -0.1324  0.3615
 2008ntf    fn414993   6.365   3.758   2.854  0.3452 -0.3627 -0.8064
 2008ntf    on514994   6.708   3.618   2.942  0.0010  0.1128  0.4714
 2008ntf    on514995   6.494   3.496   2.934 -0.0140  0.0804  0.5564
 2008ntf    on514996   6.541   3.516   2.506  0.8429  0.1312 -0.4141
 2008ntf    on514997   6.593   3.344   2.667  0.0230  0.4850 -0.1098
 2008ntf    fn414998   6.789   3.600   2.478 -0.4230  0.1008 -0.0989
 2008ntf    fn414999   6.855   3.563   2.684 -0.2476  0.2538  0.0737
 2008ntf    fn415000   6.848   3.404   2.551  0.0958 -0.1617 -0.2105
 2009ntf    cn115001   1.988   4.508   5.158 -0.1953 -0.0048 -0.3169
 2009ntf    sn215002   1.947   4.395   5.022 -0.4382  0.0023 -0.2500
 2009ntf    nn315003   2.069   4.431   4.930 -0.0403  0.3285  0.3968
 2009ntf    sn215004   2.191   4.340   4.890 -0.1372  0.4833 -0.2629
 2009ntf    cn115005   2.335   4.410   4.977 -0.1833  0.2145  0.0320
 2009ntf    fn415006   2.104   4.479   5.215 -0.0802 -0.2414 -0.6668
 2009ntf    fn415007   1.990   4.631   5.111  0.8582  0.1014 -0.0286
 2009ntf    fn415008   1.893   4.498   5.249  0.4935  0.4102  0.4671
 2009ntf    on515009   1.940   4.266   5.086 -0.6984 -0.1519 -0.5876
 2009ntf    on515010   1.821   4.441   4.969 -0.4627 -0.0457 -0.2328
 2009ntf    on515011   2.215   4.371   4.751 -0.6384  0.4558 -0.3572
 2009ntf    on515012   2.184   4.201   4.926  0.2246  0.4241 -0.4221
 2009ntf    fn415013   2.450   4.398   4.913 -0.4665 -0.0838 -0.4264
 2009ntf    fn415014   2.312   4.540   4.986  0.1931  0.2704  0.2293
 2009ntf    fn415015   2.343   4.360   5.099  0.0882  0.1314 -0.0210
 2010ntf    cn115016   4.360   3.530   5.765  0.0882  0.1393 -0.1526
 2010ntf    sn215017   4.212   3.514   5.870  0.2711  0.1078  0.1008
 2010ntf    nn315018   4.183   3.668   5.875 -0.2522  0.0245 -0.2696
 2010ntf    sn215019   4.159   3.769   5.993 -0.1617 -0.0230 -0.2108
 2010ntf    cn115020   4.332   3.791   6.044 -0.2347 -0.0251  0.0425
 2010ntf    fn415021   4.403   3.414   5.718 -0.2736  0.2463 -0.7584
 2010ntf    fn415022   4.340   3.610   5.662 -0.1841  0.1813 -0.0691
 2010ntf    fn415023   4.463   3.571   5.837  0.2629 -0.7458  0.1176
 2010ntf    on515024   4.123   3.434   5.788  0.0644  0.0553  0.3748
 2010ntf    on515025   4.257   3.446   5.989  0.2021  0.5459  0.3770
 2010ntf    on515026   4.095   3.730   6.117  0.6430 -0.0697  0.1945
 2010ntf    on515027   4.124   3.898   5.940 -0.0457  0.1547  0.1374
 2010ntf    fn415028   4.368   3.898   6.114  0.7059 -0.5210  0.3331
 2010ntf    fn415029   4.375   3.687   6.113  0.1304 -0.1347 -0.3427
 2010ntf    fn415030   4.406   3.803   5.935  0.0473  0.3275  0.2679
 2011ntf    cn115031   4.068   1.189   2.128  0.1157 -0.1309  0.0180
 2011ntf    sn215032   4.228   1.172   2.212  0.0780 -0.3259  0.0503
 2011ntf    nn315033   4.203   1.211   2.362  0.2073 -0.1604  0.0292
 2011ntf    sn215034   4.200   1.347   2.440  0.2722 -0.2917  0.2627
 2011ntf    cn115035   4.024   1.376   2.476  0.2514 -0.1628  0.0592
 2011ntf    fn415036   4.020   1.312   2.118 -0.5930 -0.4075 -0.0755
 2011ntf    fn415037   4.074   1.135   2.007 -0.3983 -0.4385  0.1269
 2011ntf    fn415038   3.967   1.129   2.188  0.2485 -0.0731  0.3001
 2011ntf    on515039   4.247   1.029   2.206  0.2651 -0.3039  0.1247
 2011ntf    on515040   4.308   1.258   2.129  0.3224 -0.0586  0.5553
 2011ntf    on515041   4.230   1.459   2.353 -1.0758 -0.3602 -0.3131
 2011ntf    on515042   4.262   1.340   2.570 -0.1967 -0.9270  0.4552
 2011ntf    fn415043   4.005   1.478   2.558  0.0419  0.0051 -0.1978
 2011ntf    fn415044   3.949   1.405   2.371  0.1907 -0.5284  0.0011
 2011ntf    fn415045   3.964   1.271   2.529  0.0310  0.0279  0.1888
 2012ntf    cn115046   2.220   6.717   0.529  0.1731 -0.1699 -0.0395
 2012ntf    sn215047   2.163   6.842   0.411  0.2933  0.2085  0.3000
 2012ntf    nn315048   2.293   6.915   0.363  0.4587 -0.3936 -0.1794
 2012ntf    sn215049   2.305   7.025   0.251  0.1170 -0.1749 -0.0035
 2012ntf    cn115050   2.383   6.944   0.108  0.3332  0.1762 -0.0853
 2012ntf    fn415051   2.284   6.763   0.635 -0.4594 -0.2807  0.3962
 2012ntf    fn415052   2.125   6.648   0.590  0.0290 -0.1701 -0.2626
 2012ntf    fn415053   2.299   6.628   0.471  0.1576 -0.1948 -0.0227
 2012ntf    on515054   2.102   6.758   0.311  0.5405  0.1626  0.1861
 2012ntf    on515055   2.073   6.913   0.498 -0.3733 -0.4586  0.1632
 2012ntf    on515056   2.403   7.120   0.296 -0.2222  0.1572  0.0334
 2012ntf    on515057   2.182   7.082   0.205  0.5717  0.5566 -0.3303
 2012ntf    fn415058   2.430   7.031   0.021 -0.5195  0.5398 -0.1930
 2012ntf    fn415059   2.471   6.852   0.145 -0.0657 -0.0011  0.4338
 2012ntf    fn415060   2.288   6.871   0.052  0.0622  0.2032  0.3356
 2013ntf    cn115061   5.197   6.881   1.167  0.2938 -0.0852 -0.5927
 2013ntf    sn215062   5.345   6.782   1.207  0.2514  0.0456 -0.0997
 2013ntf    nn315063   5.456   6.835   1.109  0.0133  0.0667 -0.3585
 2013ntf    sn215064   5.506   6.760   0.980  0.0040 -0.0535 -0.2922
 2013ntf    cn115065   5.495   6.897   0.861 -0.4997  0.3372  0.1999
 2013ntf    fn415066   5.209   7.002   1.219  0.2219 -0.2525 -0.1830
 2013ntf    fn415067   5.184   6.888   1.036 -0.4180 -0.5119 -0.5475
 2013ntf    fn415068   5.081   6.841   1.217  0.1340  0.2758 -0.6753
 2013ntf    on515069   5.384   6.816   1.341  0.0843 -0.6456  0.1283
 2013ntf    on515070   5.300   6.646   1.192  0.4373  0.0654 -0.8775
 2013ntf    on515071   5.429   6.660   0.910  0.7441 -0.6686 -0.2415
 2013ntf    on515072   5.647   6.731   0.992 -0.1145 -0.4069  0.3253
 2013ntf    fn415073   5.526   6.866   0.736 -0.0716  0.9786  0.1438
 2013ntf    fn415074   5.371   6.943   0.862 -0.5276  0.2602  0.3257
 2013ntf    fn415075   5.559   7.004   0.905  0.1615  0.0130  0.0307
 2014ntf    cn115076   5.248   5.103   1.743 -0.0904 -0.0429 -0.1695
 2014ntf    sn215077   5.203   4.939   1.808 -0.5256  0.2602  0.3042
 2014ntf    nn315078   5.322   4.858   1.745 -0.1552  0.3783  0.8475
 2014ntf    sn215079   5.461   4.818   1.806  0.0487  0.0099  0.1504
 2014ntf    cn115080   5.516   4.687   1.693  0.1069  0.0964  0.0778
 2014ntf    fn415081   5.352   5.155   1.806 -0.3055  0.0839  0.0876
 2014ntf    fn415082   5.278   5.100   1.615 -0.9928 -0.1602 -0.3816
 2014ntf    fn415083   5.149   5.190   1.753 -0.0306  0.0101 -0.0240
 2014ntf    on515084   5.214   4.952   1.951 -0.0947 -0.1917  0.3121
 2014ntf    on515085   5.074   4.921   1.746 -0.5784 -0.5501  0.6414
 2014ntf    on515086   5.457   4.754   1.935  0.0192 -0.1308  0.0793
 2014ntf    on515087   5.570   4.912   1.791 -0.1353  0.2086  0.0466
 2014ntf    fn415088   5.464   4.567   1.710  0.1490  0.0581 -0.0590
 2014ntf    fn415089   5.516   4.717   1.565  0.4240 -0.0834  0.0329
 2014ntf    fn415090   5.646   4.676   1.717  0.0127 -0.4702  0.3417
 2015ntf    cn115091   6.103   2.241   4.606  0.4572  0.2503  0.1091
 2015ntf    sn215092   6.087   2.066   4.655 -0.1293  0.2114 -0.2145
 2015ntf    nn315093   6.017   2.082   4.795  0.1245  0.0561 -0.0689
 2015ntf    sn215094   5.866   2.053   4.830  0.2045  0.0275  0.2597
 2015ntf    cn115095   5.865   1.878   4.880 -0.2300 -0.1482 -0.3495
 2015ntf    fn415096   6.218   2.299   4.636  0.5059  0.1319  0.1516
 2015ntf    fn415097   6.078   2.260   4.478  0.1808 -0.3476  0.0669
 2015ntf    fn415098   6.018   2.324   4.663 -0.1074 -0.5811  0.5122
 2015ntf    on515099   6.008   2.008   4.550  0.5770 -0.3779 -0.4270
 2015ntf    on515100   6.219   2.010   4.654  0.0768  0.6714  0.5051
 2015ntf    on515101   5.776   2.055   4.718  0.6410  0.7395 -0.0879
 2015ntf    on515102   5.832   2.122   4.951 -0.0581  0.0797  0.1560
 2015ntf    fn415103   5.930   1.857   4.993 -0.1743 -0.1137 -0.3752
 2015ntf    fn415104   5.740   1.839   4.900 -0.1912 -0.0409  0.1222
 2015ntf    fn415105   5.910   1.790   4.792 -0.4170 -0.2769 -0.3151
 2016ntf    cn115106   4.260   5.113   4.222  0.4415  0.3339 -0.1064
 2016ntf    sn215107   4.337   4.956   4.274 -0.0045  0.0539 -0.2843
 2016ntf    nn315108   4.302   4.959   4.427  0.5341  0.3770 -0.1654
 2016ntf    sn215109   4.392   5.030   4.535  0.0471  0.2423  0.3359
 2016ntf    cn115110   4.513   4.902   4.581 -0.4159 -0.3472 -0.0699
 2016ntf    fn415111   4.336   5.219   4.240  0.0713  0.5893 -0.0301
 2016ntf    fn415112   4.236   5.107   4.092  0.7076  0.4108 -0.1608
 2016ntf    fn415113   4.142   5.140   4.275  0.1966 -0.0971 -0.4261
 2016ntf    on515114   4.262   4.855   4.204 -0.5059 -0.0480  0.3955
 2016ntf    on515115   4.476   4.965   4.238  0.0222  0.3310 -0.1138
 2016ntf    on515116   4.304   5.048   4.647 -0.4145  0.3732 -0.0447
 2016ntf    on515117   4.473   5.142   4.492  0.6158 -0.0516  0.6319
 2016ntf    fn415118   4.578   4.931   4.693 -0.1501 -0.2171 -0.2569
 2016ntf    fn415119   4.445   4.792   4.610  0.0523 -0.6017  0.0606
 2016ntf    fn415120   4.609   4.880   4.494  0.1545  0.2390  0.4045
 2017ntf    cn115121   6.772   5.048   0.446 -0.1693  0.3094 -0.0616
 2017ntf    sn215122   6.708   5.166   0.569  0.1156  0.0484  0.3421
 2017ntf    nn315123   6.590   5.079   0.627 -0.0404  0.2178  0.2785
 2017ntf    sn215124   6.438   5.071   0.591  0.0833 -0.1354 -0.1759
 2017ntf    cn115125   6.381   5.173   0.730  0.3806 -0.4418  0.1741
 2017ntf    fn415126   6.817   4.936   0.500 -0.5168  0.0869 -0.2304
 2017ntf    fn415127   6.689   5.023   0.347 -0.0110  0.0045 -0.1179
 2017ntf    fn415128   6.877   5.097   0.382  0.3109 -0.2433  0.2880
 2017ntf    on515129   6.824   5.178   0.653  0.1178  0.4440  0.2856
 2017ntf    on515130   6.672   5.282   0.492  0.0876 -0.0846  0.1523
 2017ntf    on515131   6.387   4.937   0.608  0.7394 -0.3856 -0.1553
 2017ntf    on515132   6.393   5.148   0.478  0.5161  0.2902 -0.0592
 2017ntf    fn415133   6.461   5.279   0.732 -0.5237  0.2688 -0.3672
 2017ntf    fn415134   6.257   5.219   0.736  0.4349 -0.1802 -0.5155
 2017ntf    fn415135   6.401   5.131   0.853  0.1077 -0.4225  0.2260
 2018ntf    cn115136   3.294   3.991   4.471  0.4285 -0.4718  0.4731
 2018ntf    sn215137   3.238   3.895   4.327 -0.2424  0.2432  0.2522
 2018ntf    nn315138   3.366   3.806   4.313 -0.3941  0.1663 -0.6672
 2018ntf    sn215139   3.362   3.649   4.311  0.2038  0.1303  0.4146
 2018ntf    cn115140   3.417   3.599   4.477 -0.1550 -0.2099  0.4319
 2018ntf    fn415141   3.201   4.056   4.539  0.0845 -0.0837 -0.3551
 2018ntf    fn415142   3.357   3.922   4.565 -0.0094 -0.7348  0.5771
 2018ntf    fn415143   3.379   4.085   4.434  0.1111 -0.5005 -0.3538
 2018ntf    on515144   3.115   3.842   4.382 -0.0592  0.0890  0.5130
 2018ntf    on515145   3.239   3.989   4.219  0.4051  0.5917  0.5585
 2018ntf    on515146   3.466   3.595   4.226  0.2065  0.0889  0.4436
 2018ntf    on515147   3.236   3.583   4.290  0.3179 -0.1465  0.5910
 2018ntf    fn415148   3.330   3.514   4.529 -0.7426  0.4003  0.4649
 2018ntf    fn415149   3.536   3.543   4.487 -0.2382 -0.4450  0.1312
 2018ntf    fn415150   3.430   3.707   4.552  0.5397 -0.1175  0.1860
 2019ntf    cn115151   2.929   1.819   0.414  0.0277 -0.1207  0.2955
 2019ntf    sn215152   2.947   1.902   0.575 -0.1028 -0.0557  0.2773
 2019ntf    nn315153   3.071   1.823   0.631 -0.1195  0.0247  0.4270
 2019ntf    sn215154   3.225   1.853   0.621 -0.1160 -0.0907  0.1352
 2019ntf    cn115155   3.229   1.977   0.754  0.6896  0.0122  0.0170
 2019ntf    fn415156   2.841   1.890   0.344  0.0881  0.2782  0.6185
 2019ntf    fn415157   3.040   1.832   0.344 -0.0335  0.0830  0.2351
 2019ntf    fn415158   2.892   1.692   0.416 -0.1524 -0.0724  0.1064
 2019ntf    on515159   2.967   2.041   0.543  0.0231 -0.0591  0.3407
 2019ntf    on515160   2.823   1.871   0.642  0.1114 -0.2165  0.6004
 2019ntf    on515161   3.276   1.929   0.509 -0.3383 -0.0224  0.0796
 2019ntf    on515162   3.303   1.737   0.655 -0.0223 -0.0340  0.1154
 2019ntf    fn415163   3.352   2.021   0.777  0.6529  0.3198 -0.3457
 2019ntf    fn415164   3.151   2.078   0.719 -0.3870 -0.7676  0.1474
 2019ntf    fn415165   3.180   1.940   0.870 -0.0860  0.1028 -0.2780
 2020ntf    cn115166   0.021   4.561   3.875  0.2618  0.1332 -0.4571
 2020ntf    sn215167   0.005   4.739   3.843  0.1844  0.2609  0.2785
 2020ntf    nn315168   0.033   4.758   3.690 -0.1864  0.2032  0.2015
 2020ntf    sn215169   0.136   4.853   3.619  0.1608 -0.2509  0.0938
 2020ntf    cn115170   0.027   4.942   3.504  0.4258  0.0215  0.0490
 2020ntf    fn415171   0.133   4.512   3.824  0.5432  0.1657  0.1160
 2020ntf    fn415172   0.021   4.542   4.006  0.7515 -0.1131 -0.4894
 2020ntf    fn415173  -0.072   4.485   3.819 -0.5292  0.6329  0.1642
 2020ntf    on515174  -0.133   4.769   3.870  0.0237  0.1592 -0.4085
 2020ntf    on515175   0.097   4.796   3.938 -0.1290  0.5189  0.4252
 2020ntf    on515176   0.223   4.785   3.526 -0.0716  0.0550 -0.3498
 2020ntf    on515177   0.195   4.956   3.701  0.5675 -0.2621 -0.1772
 2020ntf    fn415178  -0.059   5.027   3.558  0.5577 -0.0770  0.4152
 2020ntf    fn415179   0.092   5.009   3.410 -0.3105  0.2811 -0.2887
 2020ntf    fn415180  -0.054   4.857   3.442  0.3586  0.4713 -0.4909
 2021ntf    cn115181   1.437   6.152   6.412 -0.0643 -0.1505  0.4869
 2021ntf    sn215182   1.458   6.299   6.308 -0.1146 -0.1699  0.4498
 2021ntf    nn315183   1.338   6.296   6.207 -0.1143 -0.2849  0.4537
 2021ntf    sn215184   1.187   6.329   6.235 -0.0765 -0.0604  0.3889
 2021ntf    cn115185   1.169   6.496   6.166 -0.4603 -0.2600  0.0052
 2021ntf    fn415186   1.332   6.078   6.382 -0.1002  0.0132  0.2105
 2021ntf    fn415187   1.539   6.069   6.399  0.2379  0.2178  0.4770
 2021ntf    fn415188   1.426   6.172   6.542  0.3586  0.4150  0.4423
 2021ntf    on515189   1.447   6.413   6.396 -0.1451  0.5487 -0.4595
 2021ntf    on515190   1.585   6.280   6.241 -0.5597 -0.5507 -0.2962
 2021ntf    on515191   1.147   6.350   6.372  0.5370 -0.1966  0.5918
 2021ntf    on515192   1.101   6.255   6.147 -0.1879  0.0072  0.4412
 2021ntf    fn415193   1.267   6.575   6.207 -0.5562  0.0856 -0.4144
 2021ntf    fn415194   1.176   6.513   6.034 -0.5127 -0.0259  0.0317
 2021ntf    fn415195   1.055   6.560   6.189 -0.5188 -0.4592  0.2684
 2022ntf    cn115196   2.289   1.436   0.267  0.1645 -0.1017 -0.0176
 2022ntf    sn215197   2.462   1.382   0.252  0.1123 -0.3013  0.0971
 2022ntf    nn315198   2.455   1.357   0.097 -0.3442  0.0512  0.0594
 2022ntf    sn215199   2.553   1.427  -0.004  0.0563 -0.2370  0.2449
 2022ntf    cn115200   2.700   1.322   0.016 -0.0026 -0.2842  0.4357
 2022ntf    fn415201   2.256   1.446   0.394 -0.5880 -0.1250 -0.2067
 2022ntf    fn415202   2.268   1.554   0.210  0.3323  0.1282  0.3952
 2022ntf    fn415203   2.205   1.352   0.208  0.1023  0.2582 -0.4505
 2022ntf    on515204   2.528   1.498   0.307 -0.9868  0.3946 -0.0178
 2022ntf    on515205   2.458   1.256   0.321 -0.2685 -0.5636 -0.3989
 2022ntf    on515206   2.593   1.562   0.025 -0.8230  0.2804 -0.8517
 2022ntf    on515207   2.516   1.393  -0.140  0.2785 -0.4540  0.2377
 2022ntf    fn415208   2.808   1.388  -0.026 -0.2633 -0.1130  0.0217
 2022ntf    fn415209   2.716   1.290   0.143  0.0226  0.1814  0.5535
 2022ntf    fn415210   2.698   1.206  -0.048 -0.3991  0.3230 -0.6915
 2023ntf    cn115211   2.578   1.124   5.151 -0.1241 -0.2038  0.1492
 2023ntf    sn215212   2.722   1.018   5.185  0.1682  0.1490  0.0245
 2023ntf    nn315213   2.738   1.015   5.341 -0.3074  0.5267  0.0814
 2023ntf    sn215214   2.858   1.043   5.439  0.0216 -0.2463 -0.0920
 2023ntf    cn115215   2.922   0.874   5.453 -0.0796 -0.3006 -0.2837
 2023ntf    fn415216   2.623   1.245   5.181 -0.7411  0.0563  0.0465
 2023ntf    fn415217   2.532   1.122   5.028 -0.5476  0.0724  0.3017
 2023ntf    fn415218   2.472   1.094   5.225 -0.4808  0.0841 -0.2417
 2023ntf    on515219   2.673   0.891   5.136  0.7411 -0.2083  0.3680
 2023ntf    on515220   2.827   1.082   5.110  0.5615 -0.1967  0.2749
 2023ntf    on515221   2.818   1.084   5.571  0.3466 -0.1167 -0.0343
 2023ntf    on515222   2.966   1.116   5.378 -0.0550  0.0630  0.1394
 2023ntf    fn415223   2.973   0.830   5.339 -0.0199 -0.1868 -0.3013
 2023ntf    fn415224   3.020   0.871   5.541 -0.2083  0.2845 -0.1139
 2023ntf    fn415225   2.832   0.786   5.493 -0.1500 -0.1613 -0.1371
 2024ntf    cn115226   4.683   5.882   3.019 -0.1707 -0.5922 -0.0914
 2024ntf    sn215227   4.555   5.768   2.958 -0.5469 -0.1549 -0.1274
 2024ntf    nn315228   4.543   5.813   2.808 -0.2719  0.0420 -0.0919
 2024ntf    sn215229   4.647   5.790   2.693 -0.1547 -0.1901  0.0605
 2024ntf    cn115230   4.667   5.963   2.641  0.2468 -0.2646 -0.0309
 2024ntf    fn415231   4.646   6.007   2.992  0.0554 -0.3276  0.7948
 2024ntf    fn415232   4.704   5.871   3.149  0.0772 -0.1019 -0.0874
 2024ntf    fn415233   4.799   5.868   2.957 -0.0335 -0.8554  0.2269
 2024ntf    on515234   4.586   5.630   2.981 -0.5574 -0.0384  0.6135
 2024ntf    on515235   4.441   5.816   3.033 -0.2659 -0.0817  0.2557
 2024ntf    on515236   4.597   5.743   2.567 -0.6453 -0.0685  0.2055
 2024ntf    on515237   4.779   5.739   2.719  0.1984  0.4764 -0.4046
 2024ntf    fn415238   4.759   5.961   2.545  0.3565  0.1798  0.0645
 2024ntf    fn415239   4.560   6.022   2.591  0.0208 -0.6429  0.0076
 2024ntf    fn415240   4.716   6.045   2.732 -0.0782  0.1752 -0.2521
 2025ntf    cn115241   4.292   1.143   0.620 -0.0817  0.1002  0.0465
 2025ntf    sn215242   4.181   1.011   0.677 -0.1956  0.1315 -0.1017
 2025ntf    nn315243   4.207   0.884   0.588  0.1650  0.0747  0.0835
 2025ntf    sn215244   4.327   0.783   0.578  0.2611  0.1474  0.4851
 2025ntf    cn115245   4.247   0.620   0.595  0.1940  0.1019 -0.2261
 2025ntf    fn415246   4.286   1.166   0.490  0.5015  0.0241  0.0049
 2025ntf    fn415247   4.271   1.266   0.666  0.0914  0.2773 -0.3423
 2025ntf    fn415248   4.421   1.120   0.636 -0.1285  0.1390  0.5088
 2025ntf    on515249   4.202   0.989   0.818  0.4194  0.0181 -0.2064
 2025ntf    on515250   4.050   1.062   0.646 -0.3647 -0.1739  0.1111
 2025ntf    on515251   4.416   0.791   0.691 -0.3843  0.1787  1.0009
 2025ntf    on515252   4.386   0.786   0.447  0.2918 -0.2439  0.4867
 2025ntf    fn415253   4.191   0.599   0.713  0.3321  0.2947 -0.1245
 2025ntf    fn415254   4.160   0.582   0.503 -0.0978 -0.2420  0.1850
 2025ntf    fn415255   4.344   0.530   0.587 -0.2373 -0.4088  0.2044
 2026ntf    cn115256   4.028   1.024   3.889  0.0889 -0.2922 -0.1520
 2026ntf    sn215257   3.941   1.124   3.764  0.1434 -0.0565 -0.0023
 2026ntf    nn315258   3.956   1.033   3.637  0.0469  0.0927 -0.1206
 2026ntf    sn215259   4.005   1.075   3.494 -0.0012  0.0424 -0.1518
 2026ntf    cn115260   3.861   1.165   3.431  0.1841  0.3587 -0.1245
 2026ntf    fn415261   4.150   0.998   3.843  0.2231  0.5663 -0.2944
 2026ntf    fn415262   4.050   1.091   4.000  0.3168 -1.0705  0.2818
 2026ntf    fn415263   3.969   0.909   3.917  0.4738 -0.3843  0.2929
 2026ntf    on515264   3.804   1.131   3.808 -0.1193 -0.4458 -0.7432
 2026ntf    on515265   4.013   1.249   3.762  0.6529 -0.3470 -0.2482
 2026ntf    on515266   4.022   0.960   3.408  0.2508 -0.5263  0.6394
 2026ntf    on515267   4.111   1.172   3.488  0.5212 -0.4785  0.3975
 2026ntf    fn415268   3.822   1.251   3.524  0.7326  0.1910  0.2634
 2026ntf    fn415269   3.894   1.221   3.316  0.3389  0.1894 -0.1615
 2026ntf    fn415270   3.761   1.081   3.412  0.5214 -0.1458  0.3255
 2027ntf    cn115271   1.611   6.281   0.006  0.5578  0.5776  0.4216
 2027ntf    sn215272   1.597   6.266   0.187  0.1426  0.2845  0.3659
 2027ntf    nn315273   1.583   6.110   0.204  0.3170  0.2747  0.4234
 2027ntf    sn215274   1.511   6.026   0.315  0.0901 -0.1438 -0.0373
 2027ntf    cn115275   1.424   5.912   0.203 -0.5239  0.0246  0.2630
 2027ntf    fn415276   1.492   6.247  -0.042  1.0304 -0.2711 -0.1876
 2027ntf    fn415277   1.631   6.407  -0.026 -0.0949  0.6757  0.3815
 2027ntf    fn415278   1.701   6.201  -0.050 -0.1256 -0.2304  0.4420
 2027ntf    on515279   1.719   6.324   0.236  0.3054 -0.0546  0.3681
 2027ntf    on515280   1.474   6.338   0.211 -0.1167  0.0466 -0.2257
 2027ntf    on515281   1.404   6.077   0.397 -0.3645 -0.0766 -0.6738
 2027ntf    on515282   1.605   5.936   0.379  0.0524  0.1396  0.4236
 2027ntf    fn415283   1.369   5.968   0.097 -0.0903 -0.3030 -0.1412
 2027ntf    fn415284   1.509   5.822   0.155 -0.2921 -0.3718  1.3845
 2027ntf    fn415285   1.325   5.839   0.251 -0.6237  0.2923  0.4650
 2028ntf    cn115286   0.654   1.477   4.381 -0.2387 -0.0010 -0.2789
 2028ntf    sn215287   0.586   1.520   4.218 -0.2416  0.2235 -0.2186
 2028ntf    nn315288   0.565   1.379   4.152 -0.6375  0.2271 -0.1022
 2028ntf    sn215289   0.546   1.340   4.001 -0.0338  0.1941 -0.1684
 2028ntf    cn115290   0.366   1.359   4.008  0.0174  0.6520 -0.0578
 2028ntf    fn415291   0.565   1.434   4.468 -0.0513  0.6447  0.2466
 2028ntf    fn415292   0.757   1.395   4.372  0.1829  0.4961 -0.0617
 2028ntf    fn415293   0.696   1.592   4.432  0.0844 -0.2737  0.0741
 2028ntf    on515294   0.457   1.579   4.242 -0.2527 -0.1940  0.7955
 2028ntf    on515295   0.689   1.596   4.153 -0.4175  0.4107 -0.2789
 2028ntf    on515296   0.568   1.197   3.993  0.1222  0.1690  0.6040
 2028ntf    on515297   0.586   1.425   3.892  0.4993  0.5823  0.3194
 2028ntf    fn415298   0.313   1.270   4.090  0.0636  0.1195 -0.5926
 2028ntf    fn415299   0.322   1.477   4.048  0.0957  0.4007  0.7899
 2028ntf    fn415300   0.312   1.333   3.890  0.0073  0.6195 -0.0460
 2029ntf    cn115301   3.709   0.196   0.226  0.2013  0.0725 -0.0614
 2029ntf    sn215302   3.599   0.337   0.256  0.0060 -0.0377 -0.2576
 2029ntf    nn315303   3.472   0.287   0.178 -0.3531  0.0811  0.2469
 2029ntf    sn215304   3.348   0.363   0.119 -0.2783 -0.4089 -0.5465
 2029ntf    cn115305   3.429   0.497   0.027  0.1525 -0.3047 -0.0197
 2029ntf    fn415306   3.839   0.220   0.221  0.1121  0.4689 -0.5483
 2029ntf    fn415307   3.688   0.100   0.316  0.1212 -0.0348 -0.1940
 2029ntf    fn415308   3.676   0.151   0.106  0.3935  0.6726 -0.3408
 2029ntf    on515309   3.569   0.325   0.397  0.4501 -0.3411 -0.1901
 2029ntf    on515310   3.681   0.450   0.219 -0.3512  0.1126 -0.5957
 2029ntf    on515311   3.268   0.432   0.217  0.4735 -0.8227  0.3656
 2029ntf    on515312   3.281   0.288   0.015 -0.1221 -0.5837 -0.5224
 2029ntf    fn415313   3.478   0.585   0.113 -0.5083  0.1906 -0.1392
 2029ntf    fn415314   3.529   0.450  -0.046  0.0601  0.0497 -0.3784
 2029ntf    fn415315   3.345   0.560  -0.054  0.1595 -0.3526 -0.0642
 2030ntf    cn115316   4.923   6.095   1.142 -0.6191 -0.1199 -0.0782
 2030ntf    sn215317   4.865   6.186   1.289 -0.2942  0.1978 -0.1459
 2030ntf    nn315318   4.927   6.098   1.403  0.4727  0.3212 -0.4591
 2030ntf    sn215319   4.984   6.142   1.542 -0.1349 -0.2118 -0.0368
 2030ntf    cn115320   5.150   6.198   1.496 -0.1310  0.2063  0.4675
 2030ntf    fn415321   4.852   6.134   1.038  0.4261  0.8258 -0.4579
 2030ntf    fn415322   5.050   6.117   1.113 -0.6560 -0.0608 -0.1948
 2030ntf    fn415323   4.904   5.966   1.161 -0.1131 -0.1940 -0.0807
 2030ntf    on515324   4.909   6.322   1.267 -0.0097  0.0906 -0.2335
 2030ntf    on515325   4.721   6.177   1.284 -0.3018  0.5351 -0.6986
 2030ntf    on515326   5.001   6.031   1.633 -0.4366  0.3473  0.7164
 2030ntf    on515327   4.929   6.265   1.594  0.3968  0.1401 -0.3037
 2030ntf    fn415328   5.226   6.227   1.600  0.1989 -0.2621  0.3660
 2030ntf    fn415329   5.217   6.105   1.429 -0.3413 -0.0346  0.5902
 2030ntf    fn415330   5.155   6.312   1.430 -0.2808 -0.3467 -0.5330
 2031ntf    cn115331   4.895   3.339   6.398  0.0481  0.4565  0.2489
 2031ntf    sn215332   5.060   3.308   6.328 -0.0856 -0.2170  0.2275
 2031ntf    nn315333   5.035   3.171   6.255  0.1960  0.0578 -0.3907
 2031ntf    sn215334   5.102   3.030   6.262 -0.0451 -0.0285  0.2532
 2031ntf    cn115335   5.170   3.016   6.093  0.0396 -0.2180  0.3020
 2031ntf    fn415336   4.807   3.348   6.301  0.0432 -0.7985  0.1208
 2031ntf    fn415337   4.856   3.238   6.475 -0.3423  0.7234  0.4038
 2031ntf    fn415338   4.887   3.447   6.475  0.1513 -0.3481  1.4183
 2031ntf    on515339   5.065   3.417   6.233 -0.1238 -0.0403  0.4283
 2031ntf    on515340   5.151   3.312   6.440 -0.2242 -0.1767  0.3381
 2031ntf    on515341   5.004   2.925   6.270 -0.0119 -0.1015 -0.2519
 2031ntf    on515342   5.215   3.012   6.349 -0.0031 -0.8006  0.0527
 2031ntf    fn415343   5.194   2.888   6.071  0.2919 -0.1344  0.0818
 2031ntf    fn415344   5.068   3.050   6.016 -0.0733  0.0112  0.5460
 2031ntf    fn415345   5.275   3.093   6.068 -0.2219  0.0805  0.1092
 2032ntf    cn115346   5.831   4.539   6.055 -0.3059  0.1427 -0.3310
 2032ntf    sn215347   5.919   4.560   5.898  0.3540  0.2513  0.0494
 2032ntf    nn315348   6.036   4.461   5.931  0.6682  0.5375 -0.1816
 2032ntf    sn215349   6.075   4.324   5.866  0.3559  0.3968 -0.0794
 2032ntf    cn115350   6.009   4.218   5.998  0.3886  0.3979 -0.0625
 2032ntf    fn415351   5.896   4.607   6.148 -0.5071 -0.1943  0.0616
 2032ntf    fn415352   5.708   4.587   6.056 -0.2640  0.2498 -0.2766
 2032ntf    fn415353   5.818   4.418   6.107 -0.4790  0.2187 -0.1936
 2032ntf    on515354   5.817   4.520   5.804 -0.3165  0.6329  0.6082
 2032ntf    on515355   5.957   4.699   5.890  0.2938  0.2754  0.1937
 2032ntf    on515356   6.213   4.283   5.863  0.1737 -0.2553  0.2457
 2032ntf    on515357   6.001   4.282   5.749 -0.4027  0.4633  0.3765
 2032ntf    fn415358   6.023   4.271   6.119  0.1872  0.5776 -0.1173
 2032ntf    fn415359   5.879   4.206   5.977  0.3651  0.1039  0.2307
 2032ntf    fn415360   6.061   4.097   6.010 -0.2316  0.0603 -0.7098
 2033ntf    cn115361   3.792   2.671   1.989 -0.2892  0.5973  0.1308
 2033ntf    sn215362   3.904   2.637   1.850 -0.1410  0.3258  0.3173
 2033ntf    nn315363   3.849   2.731   1.738 -0.3816 -0.0466  0.1222
 2033ntf    sn215364   3.776   2.673   1.612  0.4276 -0.5024 -0.1445
 2033ntf    cn115365   3.692   2.824   1.556  0.6322 -0.2270  0.2913
 2033ntf    fn415366   3.668   2.626   1.978 -0.2099  0.3801  0.1234
 2033ntf    fn415367   3.851   2.617   2.094  0.0445  0.1765 -0.2691
 2033ntf    fn415368   3.796   2.798   2.024 -0.0151  0.5987  0.0948
 2033ntf    on515369   4.033   2.684   1.897  0.0722 -0.5030  0.5875
 2033ntf    on515370   3.896   2.494   1.832  0.1407  0.3151  0.2712
 2033ntf    on515371   3.665   2.585   1.641  0.2681 -0.2429  0.0355
 2033ntf    on515372   3.863   2.637   1.502  0.7446 -0.0867 -0.0302
 2033ntf    fn415373   3.607   2.793   1.459  0.5859  0.9597 -0.0678
 2033ntf    fn415374   3.625   2.873   1.660  0.0228 -0.2566 -0.0793
 2033ntf    fn415375   3.774   2.914   1.503  0.4931 -0.1820  0.1513
 2034ntf    cn115376   5.581   6.624   5.012  0.0570  0.1391  0.7054
 2034ntf    sn215377   5.736   6.691   5.077  0.4598  0.3152 -0.4299
 2034ntf    nn315378   5.712   6.700   5.232 -0.2184 -0.4820 -0.4861
 2034ntf    sn215379   5.758   6.587   5.330 -0.3361 -0.2163 -0.1213
 2034ntf    cn115380   5.699   6.648   5.490  0.2764  0.2596 -0.0729
 2034ntf    fn415381   5.572   6.623   4.880  0.3743  0.0081  0.6835
 2034ntf    fn415382   5.565   6.495   5.039  0.3671 -0.0709 -0.0882
 2034ntf    fn415383   5.473   6.689   5.054 -0.3884 -0.5584  0.6773
 2034ntf    on515384   5.831   6.593   5.031 -0.4510 -0.5450 -0.4886
 2034ntf    on515385   5.744   6.825   5.023 -0.0897  0.2195 -0.7536
 2034ntf    on515386   5.901   6.590   5.348 -0.4321 -0.5160  0.7218
 2034ntf    on515387   5.688   6.461   5.322 -0.1465 -0.3279 -0.0335
 2034ntf    fn415388   5.700   6.780   5.494 -0.7121  0.2870 -0.3760
 2034ntf    fn415389   5.569   6.627   5.502  0.2596  0.2844 -0.2107
 2034ntf    fn415390   5.755   6.594   5.597 -0.1614  0.3008  0.1782
 2035ntf    cn115391   3.843   0.828   1.622  0.1693 -0.0703 -0.1357
 2035ntf    sn215392   3.901   0.712   1.494  0.2941  0.1071 -0.2398
 2035ntf    nn315393   4.053   0.748   1.511  0.4590 -0.6644 -0.0763
 2035ntf    sn215394   4.159   0.783   1.400  0.0896 -0.0689 -0.2443
 2035ntf    cn115395   4.165   0.964   1.387  0.2889 -0.0620 -0.0579
 2035ntf    fn415396   3.887   0.952   1.610  0.3894 -0.1536 -0.1938
 2035ntf    fn415397   3.712   0.840   1.629  0.1693 -0.0729 -0.1343
 2035ntf    fn415398   3.891   0.792   1.740 -0.0668  0.2907  0.0693
 2035ntf    on515399   3.862   0.581   1.539  0.1143  0.3289  0.2518
 2035ntf    on515400   3.837   0.756   1.373 -0.2621  0.0723  0.0374
 2035ntf    on515401   4.130   0.743   1.265  0.1988 -0.5689 -0.1235
 2035ntf    on515402   4.290   0.746   1.449  0.1093  0.7214  0.3275
 2035ntf    fn415403   4.180   1.022   1.506 -0.4596  0.1636 -0.0686
 2035ntf    fn415404   4.267   1.008   1.315  0.0902  0.7098  0.1172
 2035ntf    fn415405   4.056   1.014   1.332  0.2233  0.0480  0.1706
 2036ntf    cn115406   6.667   6.324   4.920 -0.2772 -0.2877 -0.1153
 2036ntf    sn215407   6.541   6.435   4.849 -0.1524 -0.1640 -0.1439
 2036ntf    nn315408   6.420   6.340   4.819 -0.5637  0.2381  0.2228
 2036ntf    sn215409   6.334   6.320   4.690  0.3766 -0.3106 -0.3320
 2036ntf    cn115410   6.456   6.236   4.585  0.7503 -0.0552 -0.1045
 2036ntf    fn415411   6.733   6.262   4.824 -0.4291 -0.3677 -0.1687
 2036ntf    fn415412   6.759   6.385   4.993 -0.1594  0.3472 -0.7715
 2036ntf    fn415413   6.612   6.234   4.999 -0.1672  0.1627  0.4834
 2036ntf    on515414   6.529   6.537   4.951  0.2959  0.2149 -0.4633
 2036ntf    on515415   6.613   6.483   4.734 -0.2110  0.1977 -0.0323
 2036ntf    on515416   6.287   6.440   4.626 -0.3656 -0.7806 -0.6878
 2036ntf    on515417   6.234   6.220   4.719  0.0899  0.1471  0.2625
 2036ntf    fn415418   6.522   6.154   4.665 -0.2930  0.0988  0.9241
 2036ntf    fn415419   6.411   6.151   4.494  0.0416  0.3689 -0.1547
 2036ntf    fn415420   6.537   6.321   4.523  0.6131  0.0523 -0.1377
 2037ntf    cn115421   0.877   2.459   3.530  0.0604 -0.3055  0.4585
 2037ntf    sn215422   0.953   2.346   3.650  0.0794 -0.1218  0.6213
 2037ntf    nn315423   0.897   2.211   3.592  0.5796 -0.1864  0.2818
 2037ntf    sn215424   0.973   2.087   3.534  0.2898 -0.1429 -0.1920
 2037ntf    cn115425   0.904   2.086   3.365 -0.0151 -0.1003 -0.0689
 2037ntf    fn415426   0.921   2.461   3.406 -0.1252  0.1866  0.3991
 2037ntf    fn415427   0.746   2.442   3.518  0.0701  0.1837 -0.4177
 2037ntf    fn415428   0.889   2.585   3.570  0.4271  0.0085 -0.6369
 2037ntf    on515429   1.095   2.362   3.633  0.0552 -0.4982  0.0440
 2037ntf    on515430   0.890   2.387   3.773 -0.4326  0.6013  0.1231
 2037ntf    on515431   0.940   1.955   3.583  0.2590 -0.2558 -0.5089
 2037ntf    on515432   1.112   2.103   3.497  0.4228 -0.3928  0.1956
 2037ntf    fn415433   0.961   1.994   3.288 -0.5833 -0.3687 -0.1692
 2037ntf    fn415434   0.773   2.068   3.362 -0.0446  0.2467 -1.0782
 2037ntf    fn415435   0.932   2.203   3.310 -0.0550  0.2123  0.5650
 2038ntf    cn115436   5.906   2.706   3.194 -0.2666  0.4861  0.1192
 2038ntf    sn215437   5.983   2.732   3.031 -0.2871 -0.2977 -0.0200
 2038ntf    nn315438   6.125   2.673   3.062 -0.0256  0.3088 -0.0446
 2038ntf    sn215439   6.252   2.745   3.119 -0.0314  0.3129 -0.0368
 2038ntf    cn115440   6.341   2.776   2.964 -0.0913 -0.0594 -0.1436
 2038ntf    fn415441   5.794   2.777   3.195 -0.6509 -0.1128  0.0474
 2038ntf    fn415442   5.877   2.579   3.218  0.7282  0.2334  0.0135
 2038ntf    fn415443   5.984   2.754   3.288  0.7278  0.4908 -0.6923
 2038ntf    on515444   5.901   2.642   2.953 -0.3244 -0.1357 -0.1680
 2038ntf    on515445   5.972   2.874   3.006  0.3592 -0.2671 -0.1397
 2038ntf    on515446   6.336   2.645   3.179 -0.8437  0.2145  0.9706
 2038ntf    on515447   6.229   2.871   3.186 -0.5324  0.1065  0.1845
 2038ntf    fn415448   6.384   2.660   2.915 -0.2332 -0.1024 -0.1701
 2038ntf    fn415449   6.265   2.834   2.871 -0.3119  0.0391  0.0972
 2038ntf    fn415450   6.449   2.848   2.986 -0.0365 -0.0515 -0.4266
 2039ntf    cn115451   4.029   3.819   5.124 -0.2781  0.1307 -0.1955
 2039ntf    sn215452   4.171   3.931   5.105  0.1436 -0.3478  0.1328
 2039ntf    nn315453   4.182   3.924   4.949  0.3982 -0.0522  0.1379
 2039ntf    sn215454   4.097   3.974   4.826  0.3094 -0.2938  0.1012
 2039ntf    cn115455   4.230   4.024   4.713  0.4858 -0.1156  0.3841
 2039ntf    fn415456   3.914   3.861   5.074 -0.1832 -0.2612 -0.7499
 2039ntf    fn415457   4.055   3.705   5.063 -0.1433 -0.0620  0.2185
 2039ntf    fn415458   4.004   3.786   5.250  0.1471  0.3176 -0.0607
 2039ntf    on515459   4.133   4.059   5.159 -0.5015 -0.5369  0.1297
 2039ntf    on515460   4.279   3.862   5.172 -0.0790 -0.3017  0.5422
 2039ntf    on515461   4.013   4.090   4.842  1.0001  0.2309 -0.0157
 2039ntf    on515462   4.033   3.872   4.748  0.1576  0.3940 -0.6814
 2039ntf    fn415463   4.337   3.947   4.720  0.3441 -0.3026  0.4977
 2039ntf    fn415464   4.187   4.034   4.588  0.1623 -0.5614  0.4572
 2039ntf    fn415465   4.276   4.145   4.738 -0.2107  0.2835 -0.1973
 2040ntf    cn115466   1.523   3.438   4.571 -0.1421 -0.2244  0.1426
 2040ntf    sn215467   1.615   3.295   4.637  0.0584 -0.0198  0.3068
 2040ntf    nn315468   1.592   3.302   4.792 -0.2656  0.2295  0.2494
 2040ntf    sn215469   1.658   3.403   4.893  0.0615  0.0322  0.2323
 2040ntf    cn115470   1.809   3.309   4.934  0.3207  0.4287  0.1887
 2040ntf    fn415471   1.595   3.505   4.483 -0.7505 -0.3063 -0.4253
 2040ntf    fn415472   1.411   3.405   4.508 -0.1346 -0.2369  0.1359
 2040ntf    fn415473   1.492   3.519   4.670  0.1109  0.5868 -0.4324
 2040ntf    on515474   1.539   3.183   4.589  0.2824 -0.0002 -0.0998
 2040ntf    on515475   1.748   3.309   4.584 -0.3036  0.3517 -0.5393
 2040ntf    on515476   1.590   3.410   5.019 -0.3665  0.6002 -0.0283
 2040ntf    on515477   1.711   3.525   4.838 -0.0939  0.0446  0.1100
 2040ntf    fn415478   1.786   3.191   4.987  0.5761  0.2569 -0.0798
 2040ntf    fn415479   1.893   3.290   4.834 -0.4452 -0.5332 -0.2933
 2040ntf    fn415480   1.873   3.374   5.030  0.2832  0.1546  0.4010
 2041ntf    cn115481   4.293   3.838   6.505  0.0959  0.0276  0.1437
 2041ntf    sn215482   4.241   3.924   6.656 -0.0418  0.1192  0.0438
 2041ntf    nn315483   4.266   4.073   6.614  0.0955  0.1228  0.1379
 2041ntf    sn215484   4.403   4.146   6.637  0.1944  0.0120 -0.0977
 2041ntf    cn115485   4.399   4.193   6.812 -0.1871  0.5604 -0.2522
 2041ntf    fn415486   4.421   3.849   6.471  0.0640  0.0241  0.0215
 2041ntf    fn415487   4.260   3.710   6.511  0.0585  0.0559  0.5577
 2041ntf    fn415488   4.231   3.892   6.401  0.1560 -0.5340 -0.1864
 2041ntf    on515489   4.101   3.895   6.674  0.0441 -0.3486 -0.0248
 2041ntf    on515490   4.329   3.880   6.761  0.3942 -0.3149 -0.4988
 2041ntf    on515491   4.411   4.274   6.570  0.4343 -0.2095 -0.4953
 2041ntf    on515492   4.521   4.063   6.625  0.5082  0.4408 -0.0102
 2041ntf    fn415493   4.480   4.292   6.844  0.6511 -0.2817  0.2818
 2041ntf    fn415494   4.279   4.225   6.860 -0.2855  0.3645 -0.3678
 2041ntf    fn415495   4.424   4.096   6.899 -0.3992  0.4040 -0.3634
 2042ntf    cn115496   0.004   3.624   2.205  0.0792 -0.3778 -0.1678
 2042ntf    sn215497  -0.092   3.609   2.052 -0.5327 -0.0742  0.1826
 2042ntf    nn315498  -0.073   3.455   2.033  0.3938  0.0564  0.0011
 2042ntf    sn215499   0.051   3.391   1.961  0.1854  0.1114 -0.4092
 2042ntf    cn115500   0.061   3.236   2.054 -0.0366  0.4140  0.1198
 2042ntf    fn415501   0.124   3.672   2.176 -0.0535 -0.0909 -0.2413
 2042ntf    fn415502  -0.046   3.716   2.286  0.5627  0.0350 -0.3359
 2042ntf    fn415503   0.012   3.509   2.270  0.3477 -0.1048  0.2974
 2042ntf    on515504  -0.224   3.659   2.082 -0.4371  0.3441 -0.0839
 2042ntf    on515505  -0.011   3.694   1.968 -0.2442 -0.0611  0.4691
 2042ntf    on515506   0.173   3.458   1.998  0.0089  0.0962  0.2002
 2042ntf    on515507   0.030   3.358   1.822 -0.3274 -0.3126 -0.2299
 2042ntf    fn415508   0.083   3.264   2.182  0.2391  0.0245  0.1608
 2042ntf    fn415509  -0.051   3.167   2.039  0.1591 -0.0109  0.5497
 2042ntf    fn415510   0.158   3.155   2.014 -0.4432 -0.1691  0.2999
 2043ntf    cn115511   6.049   1.897   2.264 -0.1208 -0.1156  0.0089
 2043ntf    sn215512   5.996   2.056   2.333  0.3250 -0.0311  0.1634
 2043ntf    nn315513   6.113   2.085   2.433  0.0984 -0.2205  0.4897
 2043ntf    sn215514   6.107   2.167   2.567 -0.2131  0.0480  0.3119
 2043ntf    cn115515   6.054   2.030   2.675 -0.0843 -0.5217 -0.3364
 2043ntf    fn415516   6.176   1.898   2.227 -0.2047 -0.5587 -0.3071
 2043ntf    fn415517   6.042   1.803   2.358  0.2052 -0.1800 -0.0268
 2043ntf    fn415518   5.979   1.856   2.160  0.4739 -0.1436 -0.3841
 2043ntf    on515519   6.007   2.141   2.217 -0.2650 -0.7805 -0.4577
 2043ntf    on515520   5.870   2.027   2.398  0.1904  0.4150  0.1044
 2043ntf    on515521   6.009   2.273   2.565 -0.2944 -0.0254  0.3769
 2043ntf    on515522   6.239   2.203   2.610  0.1757 -0.6583 -0.2597
 2043ntf    fn415523   6.137   1.927   2.680  0.4275 -0.0695  0.9147
 2043ntf    fn415524   6.061   2.077   2.799  0.1920  0.1292 -0.5944
 2043ntf    fn415525   5.932   1.983   2.655 -0.4332  0.2002  0.0592
 2044ntf    cn115526   0.040   5.083   4.568 -0.1100 -0.6658  0.0911
 2044ntf    sn215527   0.200   5.136   4.635 -0.1910 -0.2324 -0.0576
 2044ntf    nn315528   0.293   5.083   4.520  0.0248  0.6141 -0.2805
 2044ntf    sn215529   0.443   5.037   4.522 -0.1267  0.1193 -0.1876
 2044ntf    cn115530   0.535   5.187   4.476 -0.4122  0.2629 -0.2884
 2044ntf    fn415531   0.057   4.975   4.493 -0.2239 -0.3833 -0.3459
 2044ntf    fn415532  -0.038   5.034   4.663  0.0316  0.7437  0.9646
 2044ntf    fn415533  -0.031   5.169   4.497  0.1877 -0.1998  0.3499
 2044ntf    on515534   0.187   5.280   4.645  0.7527 -0.1258 -0.2371
 2044ntf    on515535   0.224   5.067   4.760 -0.4279  0.4670  0.3824
 2044ntf    on515536   0.476   4.949   4.413 -0.2208 -0.1697  0.0153
 2044ntf    on515537   0.494   5.000   4.652 -0.4721 -0.2460 -0.1572
 2044ntf    fn415538   0.490   5.246   4.366 -0.5562 -0.7942 -0.8027
 2044ntf    fn415539   0.525   5.281   4.569 -0.2408  0.4149 -0.4225
 2044ntf    fn415540   0.663   5.160   4.460 -0.3685 -0.0719  0.5908
 2045ntf    cn115541   5.642   4.518   5.006 -0.4363 -0.2408 -0.4970
 2045ntf    sn215542   5.593   4.673   4.925  0.0648 -0.0701 -0.4766
 2045ntf    nn315543   5.634   4.652   4.775  0.2591 -0.0875 -0.4202
 2045ntf    sn215544   5.733   4.737   4.688  0.7487 -0.2589 -0.0381
 2045ntf    cn115545   5.610   4.852   4.618  0.7113 -0.1870  0.1440
 2045ntf    fn415546   5.577   4.414   4.956  0.4179 -1.1259  0.1802
 2045ntf    fn415547   5.770   4.489   4.990 -0.1586  0.4744  0.3709
 2045ntf    fn415548   5.622   4.503   5.136 -0.2828 -0.1783 -0.4671
 2045ntf    on515549   5.451   4.672   4.949  0.1911 -0.3539  0.2960
 2045ntf    on515550   5.671   4.764   5.004  0.4724 -0.4037 -0.4911
 2045ntf    on515551   5.777   4.670   4.568  0.1250  0.2414 -0.5574
 2045ntf    on515552   5.831   4.817   4.759  0.0842  0.0445  0.5477
 2045ntf    fn415553   5.532   4.883   4.720  0.1758 -0.3214 -0.2190
 2045ntf    fn415554   5.661   4.954   4.552  0.2596  0.0374  0.1436
 2045ntf    fn415555   5.527   4.790   4.536  0.1129  0.5897  0.1601
 2046ntf    cn115556   1.780   0.832   4.870 -0.1281  0.2897  0.0898
 2046ntf    sn215557   1.875   0.956   4.777  0.0709  0.1804  0.1473
 2046ntf    nn315558   1.758   1.054   4.744 -0.4008 -0.4761 -0.1568
 2046ntf    sn215559   1.764   1.181   4.650  0.0800 -0.3126  0.0908
 2046ntf    cn115560   1.623   1.150   4.539 -0.2112  0.0960  0.3412
 2046ntf    fn415561   1.856   0.736   4.920  0.0859  0.4462  0.0651
 2046ntf    fn415562   1.712   0.885   4.971 -0.3421 -0.6593  0.4598
 2046ntf    fn415563   1.691   0.785   4.784  0.3346 -0.2586 -0.0941
 2046ntf    on515564   1.960   1.003   4.884 -0.2121  0.4400  0.2580
 2046ntf    on515565   1.936   0.877   4.673 -0.0731 -0.1511  0.3136
 2046ntf    on515566   1.872   1.184   4.555  0.4585 -0.2250  0.5206
 2046ntf    on515567   1.729   1.301   4.722 -0.1162  0.2019 -0.8437
 2046ntf    fn415568   1.511   1.168   4.607 -0.4202  0.1523 -0.0161
 2046ntf    fn415569   1.619   1.246   4.449 -0.1353  0.4802  0.7442
 2046ntf    fn415570   1.622   1.029   4.486 -0.2073  0.1444  0.2300
 2047ntf    cn115571   4.661   5.743   0.693  0.2126  0.3630  0.3374
 2047ntf    sn215572   4.735   5.898   0.754  0.3345  0.5701 -0.3348
 2047ntf    nn315573   4.636   5.995   0.680 -0.2428  0.1658 -0.1004
 2047ntf    sn215574   4.681   6.064   0.547 -0.0777 -0.2540 -0.2628
 2047ntf    cn115575   4.517   6.093   0.473 -0.0716  0.4633  0.0025
 2047ntf    fn415576   4.729   5.633   0.723 -0.6717 -0.4073 -0.4085
 2047ntf    fn415577   4.535   5.730   0.729  0.2014 -0.2134  0.1023
 2047ntf    fn415578   4.650   5.742   0.561 -0.3240 -0.0694  0.3842
 2047ntf    on515579   4.712   5.892   0.896  0.5272 -0.5175 -0.3421
 2047ntf    on515580   4.872   5.899   0.709  0.1746 -0.3632 -0.8874
 2047ntf    on515581   4.765   5.995   0.452 -0.1954 -0.2728 -0.3545
 2047ntf    on515582   4.731   6.197   0.572 -0.6485 -0.1000  0.0736
 2047ntf    fn415583   4.524   6.137   0.348  0.2599 -0.0641 -0.1660
 2047ntf    fn415584   4.460   5.974   0.473  0.2498  0.2996  0.9189
 2047ntf    fn415585   4.438   6.180   0.533 -0.1596  0.4305 -0.0648
 2048ntf    cn115586   3.931   6.896   3.671 -0.0620 -0.0662 -0.3905
 2048ntf    sn215587   3.937   6.728   3.738 -0.1491  0.2004  0.2918
 2048ntf    nn315588   3.943   6.750   3.894 -0.8593 -0.2120  0.3833
 2048ntf    sn215589   4.064   6.730   3.992 -0.1452  0.0005 -0.4447
 2048ntf    cn115590   4.008   6.802   4.148  0.0036  0.3754 -0.5632
 2048ntf    fn415591   3.841   6.965   3.739 -0.1792 -0.9664  0.3835
 2048ntf    fn415592   4.045   6.957   3.700 -0.0600 -0.3346  0.1767
 2048ntf    fn415593   3.920   6.906   3.539 -0.0948  0.0698 -0.3787
 2048ntf    on515594   3.809   6.670   3.705  0.2092 -0.5145  0.1276
 2048ntf    on515595   4.052   6.663   3.682 -0.4346 -0.0589  0.0015
 2048ntf    on515596   4.171   6.820   3.957 -0.2166  0.1542 -0.2675
 2048ntf    on515597   4.090   6.595   4.036 -0.0794  0.1946  0.1098
 2048ntf    fn415598   3.918   6.728   4.211  0.1513  0.4164 -0.3035
 2048ntf    fn415599   4.099   6.824   4.242 -0.3479 -0.4624 -0.0121
 2048ntf    fn415600   3.947   6.917   4.123 -0.7294  0.0920 -0.1129
 2049ntf    cn115601   4.153   5.340   6.264 -0.1842 -0.0755  0.3679
 2049ntf    sn215602   4.079   5.241   6.131 -0.1699  0.1029  0.2271
 2049ntf    nn315603   4.004   5.139   6.223  0.0237  0.1196  0.4047
 2049ntf    sn215604   4.045   4.997   6.276 -0.5064 -0.1198  0.1833
 2049ntf    cn115605   3.924   4.897   6.185 -0.4400 -0.2428  0.2315
 2049ntf    fn415606   4.241   5.264   6.328  0.1137  0.0090  0.0648
 2049ntf    fn415607   4.214   5.448   6.218 -0.3274 -0.0661  0.2007
 2049ntf    fn415608   4.060   5.379   6.349 -0.0567  0.5941  0.2043
 2049ntf    on515609   3.992   5.332   6.060  0.1561  0.0628 -0.2296
 2049ntf    on515610   4.185   5.188   6.048 -0.9172 -0.3230 -0.4761
 2049ntf    on515611   4.002   4.982   6.413  0.1615 -0.4956  0.3584
 2049ntf    on515612   4.174   4.945   6.237 -0.4852  0.4170 -0.4715
 2049ntf    fn415613   3.944   4.771   6.223  0.0466 -0.2891 -0.1670
 2049ntf    fn415614   3.801   4.931   6.221 -0.4373 -0.2934  0.2883
 2049ntf    fn415615   3.931   4.909   6.054 -0.1505 -0.7189  0.1986
 2050ntf    cn115616   5.873   3.287   1.809  0.3758  0.3372 -0.2015
 2050ntf    sn215617   5.873   3.453   1.883  0.0562  0.3029 -0.1222
 2050ntf    nn315618   5.740   3.450   1.966  0.1538  0.3224  0.0356
 2050ntf    sn215619   5.599   3.416   1.907  0.2143  0.2341 -0.0561
 2050ntf    cn115620   5.526   3.574   1.957 -0.2430  0.0551 -0.1564
 2050ntf    fn415621   5.765   3.266   1.736 -0.1294 -0.1689  0.6675
 2050ntf    fn415622   5.981   3.271   1.734  0.2512 -0.0713 -0.2977
 2050ntf    fn415623   5.874   3.191   1.901  0.1777 -0.0589 -0.6116
 2050ntf    on515624   5.988   3.449   1.971 -0.0574  0.4258  0.0329
 2050ntf    on515625   5.882   3.541   1.770  0.4377  0.3633 -0.0470
 2050ntf    on515626   5.520   3.319   1.979  0.6212 -0.4061 -0.4536
 2050ntf    on515627   5.572   3.429   1.765 -0.0992  0.0966 -0.0100
 2050ntf    fn415628   5.407   3.592   1.902 -0.2494 -0.6867 -0.3875
 2050ntf    fn415629   5.508   3.572   2.088 -0.3927  0.5593 -0.1673
 2050ntf    fn415630   5.607   3.675   1.933 -0.1371  0.0396  0.1307
 2051ntf    cn115631   5.164   6.199   5.124  0.0781 -0.0208  0.1319
 2051ntf    sn215632   5.062   6.067   5.198 -0.3761  0.2386 -0.0267
 2051ntf    nn315633   4.954   6.161   5.262 -0.0545  0.6819 -0.1287
 2051ntf    sn215634   4.831   6.137   5.356  0.3583 -0.0795  0.2282
 2051ntf    cn115635   4.699   6.185   5.241 -0.0465 -0.4701  0.5280
 2051ntf    fn415636   5.277   6.156   5.071  0.1867  0.2501  0.1437
 2051ntf    fn415637   5.108   6.254   5.018 -0.0622 -0.5960 -0.1008
 2051ntf    fn415638   5.208   6.299   5.197  0.2775  0.2083 -0.3009
 2051ntf    on515639   5.010   6.000   5.081 -0.5315  0.0813  0.1332
 2051ntf    on515640   5.154   5.997   5.285 -0.5790 -0.4103 -0.3264
 2051ntf    on515641   4.798   6.220   5.470 -0.3597  1.0298 -0.7653
 2051ntf    on515642   4.806   5.997   5.379 -0.4835 -0.1203 -0.8911
 2051ntf    fn415643   4.581   6.141   5.282 -0.1294 -0.4858  0.2737
 2051ntf    fn415644   4.680   6.315   5.223  0.5818 -0.4889 -0.3373
 2051ntf    fn415645   4.704   6.128   5.122  0.0909 -0.1256  0.3664
 2052ntf    cn115646   5.336   5.614   1.737  0.5989 -0.4241 -0.2093
 2052ntf    sn215647   5.364   5.650   1.913 -0.2686 -0.2069 -0.1082
 2052ntf    nn315648   5.400   5.803   1.906  0.6163 -0.3894  0.3229
 2052ntf    sn215649   5.534   5.885   1.911  0.3476  0.0412  0.4642
 2052ntf    cn115650   5.478   6.041   1.985 -0.0820  0.2268 -0.2353
 2052ntf    fn415651   5.225   5.679   1.703  0.2266 -0.9017  0.0784
 2052ntf    fn415652   5.436   5.660   1.664  0.7841  0.2735  0.4661
 2052ntf    fn415653   5.325   5.484   1.721  0.1643 -0.4330  0.1376
 2052ntf    on515654   5.234   5.623   1.969 -0.3132  0.3561  0.0636
 2052ntf    on515655   5.469   5.557   1.946 -0.4313 -0.3878 -0.0982
 2052ntf    on515656   5.576   5.926   1.779 -0.4582 -0.0909  0.1633
 2052ntf    on515657   5.636   5.832   1.997  0.2059 -0.4001  0.3639
 2052ntf    fn415658   5.360   6.026   2.042  0.1681 -0.5840  0.0892
 2052ntf    fn415659   5.564   6.091   2.073  0.1787  0.0963 -0.4147
 2052ntf    fn415660   5.457   6.136   1.896 -0.6012 -0.1186 -0.4807
 2053ntf    cn115661   6.415   3.159   5.404  0.8150  0.2473  0.2475
 2053ntf    sn215662   6.383   3.193   5.580 -0.0368 -0.4389  0.2335
 2053ntf    nn315663   6.227   3.186   5.577 -0.0469 -0.1991  0.1697
 2053ntf    sn215664   6.127   3.088   5.649 -0.4658  0.1044  0.0051
 2053ntf    cn115665   5.976   3.177   5.600 -0.2391  0.2817 -0.3776
 2053ntf    fn415666   6.383   3.034   5.376 -0.5836  0.5766  0.3176
 2053ntf    fn415667   6.336   3.233   5.329  0.0509 -0.2056  0.5949
 2053ntf    fn415668   6.541   3.179   5.369  0.6900 -0.0244 -0.3715
 2053ntf    on515669   6.450   3.090   5.656 -0.3317 -0.5900  0.2888
 2053ntf    on515670   6.430   3.329   5.589  0.0271 -0.4701  0.3896
 2053ntf    on515671   6.133   3.092   5.794  0.1905  0.1782 -0.0225
 2053ntf    on515672   6.117   2.959   5.587 -0.2538  0.2901 -0.4137
 2053ntf    fn415673   5.983   3.296   5.658  0.3440  0.1996 -0.2720
 2053ntf    fn415674   5.964   3.185   5.469 -0.2171  0.4195 -0.3709
 2053ntf    fn415675   5.865   3.115   5.637  0.0197 -0.2158 -0.4321
 2054ntf    cn115676   5.184   6.582   2.493  0.3416 -0.4532 -0.1493
 2054ntf    sn215677   5.022   6.509   2.531  0.1718 -0.1056 -0.2014
 2054ntf    nn315678   5.052   6.361   2.488 -0.4986 -0.3829  0.2611
 2054ntf    sn215679   5.142   6.250   2.552 -0.0834 -0.1109  0.1519
 2054ntf    cn115680   5.016   6.158   2.645 -0.2114 -0.3633 -0.2678
 2054ntf    fn415681   5.283   6.549   2.574  0.2947  0.1267  0.1498
 2054ntf    fn415682   5.224   6.537   2.375  0.5308 -0.6469 -0.0129
 2054ntf    fn415683   5.185   6.714   2.500 -1.0828 -0.4600  0.5946
 2054ntf    on515684   5.005   6.530   2.673 -0.5499 -0.0391 -0.2942
 2054ntf    on515685   4.934   6.579   2.441 -0.1211 -0.1000  0.0872
 2054ntf    on515686   5.238   6.301   2.646  0.1515  0.2507 -0.2814
 2054ntf    on515687   5.192   6.155   2.455 -0.3447 -0.4002  0.2959
 2054ntf    fn415688   4.951   6.233   2.733  0.4558  0.1297 -0.1914
 2054ntf    fn415689   4.930   6.102   2.561  0.3532 -0.0206 -1.0911
 2054ntf    fn415690   5.073   6.056   2.707 -1.0492 -0.6867 -0.0127
 2055ntf    cn115691   0.752   4.276   6.862  0.3922 -0.0720 -0.0516
 2055ntf    sn215692   0.704   4.143   6.977  0.0088  0.1905  0.0964
 2055ntf    nn315693   0.558   4.114   6.926  0.1544 -0.2643 -0.0671
 2055ntf    sn215694   0.430   4.187   6.979  0.1154 -0.0477 -0.4580
 2055ntf    cn115695   0.319   4.146   6.841 -0.2768  0.0159 -0.1635
 2055ntf    fn415696   0.660   4.371   6.856  0.4221 -0.0697 -0.4365
 2055ntf    fn415697   0.863   4.331   6.907 -0.0400  0.7297  0.0526
 2055ntf    fn415698   0.792   4.236   6.743 -0.8673 -0.2944 -0.4169
 2055ntf    on515699   0.792   4.031   6.955 -0.2391  0.0557 -0.2191
 2055ntf    on515700   0.717   4.194   7.112 -0.6706  0.4383  0.0697
 2055ntf    on515701   0.433   4.331   6.980 -0.1883 -0.0435  0.0952
 2055ntf    on515702   0.368   4.131   7.097  0.2939  0.1596 -0.2640
 2055ntf    fn415703   0.367   4.183   6.723  0.3393  0.2191  0.1433
 2055ntf    fn415704   0.305   4.015   6.833  0.3079 -0.0416 -0.2835
 2055ntf    fn415705   0.199   4.201   6.851 -0.4397 -0.3855  0.1265
 2056ntf    cn115706   0.872   1.522   6.408  0.3261  0.4909 -0.4298
 2056ntf    sn215707   0.747   1.628   6.329 -0.0946  0.6785  0.4779
 2056ntf    nn315708   0.619   1.589   6.411 -0.2801 -0.2017 -0.2102
 2056ntf    sn215709   0.475   1.542   6.371 -0.3445 -0.3267  0.1701
 2056ntf    cn115710   0.491   1.361   6.369  0.7348 -0.2303 -0.1553
 2056ntf    fn415711   0.904   1.560   6.530 -0.4321 -0.3528  0.0419
 2056ntf    fn415712   0.825   1.399   6.418  0.5454  0.3910 -0.6074
 2056ntf    fn415713   0.990   1.514   6.347  0.3277 -0.5429 -0.3145
 2056ntf    on515714   0.792   1.763   6.349  0.1586  0.6569  0.0609
 2056ntf    on515715   0.750   1.582   6.192  0.4320  0.3121  0.6097
 2056ntf    on515716   0.439   1.583   6.238 -0.0031  0.1417  0.2230
 2056ntf    on515717   0.379   1.557   6.478 -0.1601  0.4084  0.2395
 2056ntf    fn415718   0.586   1.324   6.285  0.8364 -0.1267 -0.0862
 2056ntf    fn415719   0.526   1.305   6.483  0.0717  0.2923  0.3111
 2056ntf    fn415720   0.384   1.301   6.318  0.5334 -0.2108  0.2464
 2057ntf    cn115721   5.675   0.282   3.876 -0.0377 -0.6419  0.0261
 2057ntf    sn215722   5.627   0.318   3.705  0.2105 -0.1911  0.0480
 2057ntf    nn315723   5.492   0.389   3.741  0.0738 -0.1501 -0.5288
 2057ntf    sn215724   5.433   0.535   3.740  0.2540 -0.0705 -0.0640
 2057ntf    cn115725   5.328   0.529   3.592 -0.1563  0.2351  0.2134
 2057ntf    fn415726   5.584   0.207   3.936 -0.4676  0.0870  0.2951
 2057ntf    fn415727   5.793   0.221   3.880  0.1109 -0.3235  0.6609
 2057ntf    fn415728   5.693   0.391   3.950 -0.0323 -0.2778 -0.5044
 2057ntf    on515729   5.732   0.402   3.652 -0.5515  1.0399  0.4458
 2057ntf    on515730   5.612   0.186   3.649 -0.3688 -0.1239  0.0392
 2057ntf    on515731   5.512   0.654   3.725 -0.1160  0.1351 -0.3999
 2057ntf    on515732   5.346   0.547   3.854  0.0963  0.0260 -0.1931
 2057ntf    fn415733   5.226   0.447   3.609  0.1224 -0.1441  0.0763
 2057ntf    fn415734   5.286   0.652   3.563 -0.1161  0.1107 -0.3898
 2057ntf    fn415735   5.395   0.488   3.485 -0.0106  0.0499  0.3763
 2058ntf    cn115736   6.273   3.684   0.927  0.3221 -0.1138  0.0416
 2058ntf    sn215737   6.236   3.681   1.105  0.0115 -0.1083 -0.0224
 2058ntf    nn315738   6.375   3.702   1.174 -0.1444  0.0957  0.2343
 2058ntf    sn215739   6.487   3.593   1.193 -0.1144  0.0339 -0.2636
 2058ntf    cn115740   6.635   3.687   1.241 -0.1600 -0.0096 -0.0364
 2058ntf    fn415741   6.352   3.788   0.903 -0.5269  0.4411 -0.4053
 2058ntf    fn415742   6.337   3.575   0.888  0.4070 -0.2267  0.5004
 2058ntf    fn415743   6.167   3.693   0.848  0.2938 -0.0979  0.0816
 2058ntf    on515744   6.152   3.798   1.121 -0.5264 -0.4052 -0.6170
 2058ntf    on515745   6.171   3.554   1.121 -0.4053  0.0963 -0.0622
 2058ntf    on515746   6.511   3.526   1.069 -0.2070  0.5336 -0.5561
 2058ntf    on515747   6.470   3.510   1.310 -0.1068 -0.0696 -0.3363
 2058ntf    fn415748   6.608   3.773   1.338 -0.3562  0.0508 -0.1439
 2058ntf    fn415749   6.736   3.610   1.280 -0.5383 -0.5279 -0.0689
 2058ntf    fn415750   6.673   3.761   1.139  0.4944  0.6632  0.6751
 2059ntf    cn115751   2.551   6.485   6.056 -0.0226  0.0018  0.3681
 2059ntf    sn215752   2.375   6.466   6.012 -0.0140 -0.1067  0.3814
 2059ntf    nn315753   2.331   6.608   5.963  0.0500 -0.1632  0.1587
 2059ntf    sn215754   2.308   6.652   5.814 -0.1881 -0.1280  0.2042
 2059ntf    cn115755   2.268   6.829   5.828  0.1521  0.0002 -0.3710
 2059ntf    fn415756   2.610   6.367   6.064  0.3734  0.1635 -0.1084
 2059ntf    fn415757   2.605   6.556   5.958 -0.2374 -0.6440 -0.2253
 2059ntf    fn415758   2.565   6.542   6.174 -0.0918  0.2410  0.2613
 2059ntf    on515759   2.368   6.357   5.918 -0.2658  0.0192  0.2533
 2059ntf    on515760   2.317   6.437   6.141  0.3332 -0.2272  0.5145
 2059ntf    on515761   2.190   6.595   5.754  0.0996 -0.0396 -0.4584
 2059ntf    on515762   2.427   6.656   5.732 -0.5242 -0.0436 -0.2870
 2059ntf    fn415763   2.224   6.873   5.711 -0.1791  0.1378 -0.1963
 2059ntf    fn415764   2.180   6.877   5.915  0.4904 -0.5681  0.2894
 2059ntf    fn415765   2.374   6.904   5.853 -0.0858  0.3622 -0.4312
 2060ntf    cn115766   4.299   5.283   1.071  0.0470 -0.1034  0.0609
 2060ntf    sn215767   4.361   5.134   1.156 -0.2213 -0.3229 -0.1301
 2060ntf    nn315768   4.452   5.072   1.044 -0.2836 -1.0200  0.2026
 2060ntf    sn215769   4.574   4.973   1.055  0.2308 -0.3935  0.1635
 2060ntf    cn115770   4.706   5.095   1.080 -0.0673  0.0515 -0.4092
 2060ntf    fn415771   4.198   5.344   1.130 -0.1853 -0.6588  0.2511
 2060ntf    fn415772   4.391   5.375   1.049 -0.4651  0.4179  0.0832
 2060ntf    fn415773   4.262   5.243   0.951 -0.4513  0.6060 -0.0265
 2060ntf    on515774   4.448   5.202   1.248 -0.2317 -0.7946  0.2333
 2060ntf    on515775   4.237   5.068   1.190 -0.0734 -0.3573  0.3384
 2060ntf    on515776   4.609   4.909   0.931  0.0085 -0.1513 -0.0254
 2060ntf    on515777   4.567   4.888   1.171  0.5872 -1.1564 -0.3708
 2060ntf    fn415778   4.702   5.142   1.204 -0.0581  0.2269 -0.4754
 2060ntf    fn415779   4.825   5.039   1.067 -0.2837 -0.4160 -0.3761
 2060ntf    fn415780   4.725   5.200   1.001  0.0948  0.5816  0.3251
 2061ntf    cn115781   4.464   3.540   2.868  0.0992  0.0360 -0.0431
 2061ntf    sn215782   4.604   3.637   2.931 -0.0759  0.3545 -0.1411
 2061ntf    nn315783   4.526   3.706   3.049 -0.5637 -0.7403  0.1992
 2061ntf    sn215784   4.463   3.848   3.076  0.4003 -0.2226 -0.2195
 2061ntf    cn115785   4.297   3.796   3.127  0.5035 -0.5247 -0.1905
 2061ntf    fn415786   4.489   3.470   2.758  0.5890 -0.1164  0.1644
 2061ntf    fn415787   4.413   3.453   2.954 -0.5519 -0.2214 -0.6721
 2061ntf    fn415788   4.357   3.615   2.846 -0.1652 -0.0616  0.8462
 2061ntf    on515789   4.683   3.536   2.996 -0.0755  0.5486  0.1622
 2061ntf    on515790   4.644   3.718   2.819 -0.9691  0.0999 -0.6540
 2061ntf    on515791   4.441   3.938   2.965 -0.3934 -0.2637 -0.0976
 2061ntf    on515792   4.519   3.901   3.197  0.2875  0.5098 -0.4847
 2061ntf    fn415793   4.221   3.898   3.166 -0.0751 -0.7905 -0.6068
 2061ntf    fn415794   4.229   3.742   3.027 -0.6947 -0.2462  0.4553
 2061ntf    fn415795   4.311   3.707   3.224  0.2121 -0.0345  0.3040
 2062ntf    cn115796   6.053   6.647   4.179 -0.3924 -0.1956  0.2166
 2062ntf    sn215797   6.080   6.514   4.058 -0.1790  0.1570 -0.1268
 2062ntf    nn315798   6.228   6.476   4.091 -0.2937 -0.0987  0.0964
 2062ntf    sn215799   6.343   6.432   3.994 -0.4119 -0.3358  0.0636
 2062ntf    cn115800   6.418   6.291   4.082  0.1019 -0.0716  0.0521
 2062ntf    fn415801   6.075   6.611   4.304  0.3534  0.0958  0.1748
 2062ntf    fn415802   6.140   6.746   4.165 -0.3215 -0.2958 -0.0545
 2062ntf    fn415803   5.928   6.691   4.171 -0.3438 -0.1407 -0.2950
 2062ntf    on515804   5.984   6.416   4.102  0.3881 -0.3750 -0.0714
 2062ntf    on515805   6.062   6.590   3.937  0.0177  0.0559 -0.2192
 2062ntf    on515806   6.446   6.532   3.988 -0.7359 -0.0287 -0.3947
 2062ntf    on515807   6.296   6.377   3.869 -0.0091 -0.2517 -0.1304
 2062ntf    fn415808   6.510   6.231   4.008 -0.0287 -0.4140  0.1666
 2062ntf    fn415809   6.474   6.322   4.197  0.4562 -0.1600 -0.0946
 2062ntf    fn415810   6.325   6.200   4.105  0.3705 -0.5404 -0.6743
 2063ntf    cn115811   2.988   2.773   5.054 -0.1597 -0.0967  0.3423
 2063ntf    sn215812   3.034   2.842   4.892 -0.1146 -0.2414  0.2935
 2063ntf    nn315813   3.090   2.986   4.918  0.0192 -0.2534  0.0705
 2063ntf    sn215814   3.241   3.023   4.942 -0.0542  0.0945 -0.0022
 2063ntf    cn115815   3.307   3.026   4.772 -0.0827 -0.1686 -0.0180
 2063ntf    fn415816   3.087   2.754   5.139  0.3624  0.3793 -0.1488
 2063ntf    fn415817   2.896   2.837   5.125 -0.1808  0.0444  0.1894
 2063ntf    fn415818   2.939   2.651   5.038  0.4299 -0.2317 -0.5025
 2063ntf    on515819   3.122   2.743   4.835 -0.0859 -0.1290  0.1440
 2063ntf    on515820   2.904   2.860   4.832  0.0261 -0.4164 -0.0660
 2063ntf    on515821   3.317   2.923   5.012 -0.6335 -0.4185 -0.0934
 2063ntf    on515822   3.254   3.155   4.998 -0.0175  0.0279  0.1472
 2063ntf    fn415823   3.264   2.922   4.703 -0.1688 -0.2160  0.1077
 2063ntf    fn415824   3.263   3.120   4.691  0.9974  0.3079 -0.0750
 2063ntf    fn415825   3.439   3.031   4.770 -0.0965  0.0762 -0.3089
 2064ntf    cn115826   3.779   4.614   3.335 -0.0635  0.1556  0.2808
 2064ntf    sn215827   3.624   4.638   3.427 -0.2106 -0.2984  0.1575
 2064ntf    nn315828   3.616   4.506   3.511 -0.4503 -0.1931  0.3021
 2064ntf    sn215829   3.615   4.465   3.663  0.0791 -0.1384  0.3225
 2064ntf    cn115830   3.445   4.412   3.697 -0.1733  0.1043 -0.5218
 2064ntf    fn415831   3.859   4.533   3.402 -0.4585 -0.3242  0.1823
 2064ntf    fn415832   3.772   4.566   3.212  0.4721  0.4014  0.1508
 2064ntf    fn415833   3.856   4.721   3.324 -0.0160  0.0851 -0.1089
 2064ntf    on515834   3.648   4.757   3.505 -0.0943 -0.0404 -0.2665
 2064ntf    on515835   3.526   4.649   3.322  0.7721  0.4882 -0.7005
 2064ntf    on515836   3.635   4.569   3.761 -0.5984  0.2498  0.0516
 2064ntf    on515837   3.692   4.344   3.680 -0.6785 -0.6155  0.4011
 2064ntf    fn415838   3.360   4.503   3.652  0.3926  0.6005 -0.5938
 2064ntf    fn415839   3.413   4.291   3.654  0.2538 -0.2830  0.2231
 2064ntf    fn415840   3.417   4.403   3.826 -0.3865 -0.7869 -0.6220
 2065ntf    cn115841   3.726   1.212   6.043 -0.1014 -0.2811 -0.0705
 2065ntf    sn215842   3.688   1.067   6.145  0.3604 -0.3751 -0.0283
 2065ntf    nn315843   3.702   1.128   6.289 -0.1261  0.4309 -0.3195
 2065ntf    sn215844   3.598   1.177   6.396  0.0457  0.3066 -0.0945
 2065ntf    cn115845   3.703   1.293   6.487 -0.1298  0.0680  0.4167
 2065ntf    fn415846   3.694   1.192   5.917  0.3891  0.6976 -0.3637
 2065ntf    fn415847   3.660   1.314   6.095 -0.3218 -0.1860 -0.5391
 2065ntf    fn415848   3.854   1.246   6.048 -0.2963  0.4558 -0.0222
 2065ntf    on515849   3.556   1.034   6.096 -0.3521 -0.0848  1.6143
 2065ntf    on515850   3.796   0.978   6.111  0.1064 -0.5182 -0.4666
 2065ntf    on515851   3.562   1.075   6.492  0.6137 -0.3000 -0.5171
 2065ntf    on515852   3.490   1.261   6.350 -0.3819 -0.0217  0.3050
 2065ntf    fn415853   3.644   1.334   6.598  0.2193 -0.7464  0.9162
 2065ntf    fn415854   3.808   1.224   6.528  0.1792  0.2467 -0.0600
 2065ntf    fn415855   3.749   1.396   6.418  0.4981 -0.2803  0.2982
 2066ntf    cn115856   0.323   2.552   3.755 -0.5953  0.0052 -0.2759
 2066ntf    sn215857   0.321   2.459   3.911  0.1740 -0.1201 -0.3377
 2066ntf    nn315858   0.414   2.541   4.008  0.2816 -0.6302 -0.0046
 2066ntf    sn215859   0.414   2.549   4.164  0.2613 -0.1543 -0.0292
 2066ntf    cn115860   0.340   2.709   4.211 -0.0091 -0.2932  0.0218
 2066ntf    fn415861   0.216   2.530   3.681 -0.5396  0.6341 -0.5541
 2066ntf    fn415862   0.334   2.682   3.775 -1.0932  0.0552 -0.3118
 2066ntf    fn415863   0.421   2.519   3.672  0.0343  0.1552  0.3932
 2066ntf    on515864   0.182   2.461   3.949  0.4151  0.2370  0.5371
 2066ntf    on515865   0.374   2.330   3.872 -0.3003 -0.5014  0.2595
 2066ntf    on515866   0.544   2.553   4.226  0.1823  0.1389  0.1221
 2066ntf    on515867   0.327   2.455   4.231 -0.1978  0.0002 -0.4006
 2066ntf    fn415868   0.241   2.740   4.129 -0.0813  0.2063  0.2944
 2066ntf    fn415869   0.289   2.704   4.333  0.3280  0.3422  0.1932
 2066ntf    fn415870   0.426   2.810   4.207 -0.5708  0.2079  0.4610
 2067ntf    cn115871   6.681   4.538   5.372  0.1405  0.4504  0.1783
 2067ntf    sn215872   6.601   4.692   5.426 -0.1731  0.3188  0.0931
 2067ntf    nn315873   6.635   4.711   5.578 -0.2328 -0.1182  0.1618
 2067ntf    sn215874   6.779   4.676   5.631  0.0890  0.1303 -0.5404
 2067ntf    cn115875   6.742   4.738   5.798  0.0517  0.1413 -0.5523
 2067ntf    fn415876   6.657   4.498   5.249 -0.0346 -0.1492  0.3982
 2067ntf    fn415877   6.813   4.548   5.374  0.2331 -0.4414 -0.6326
 2067ntf    fn415878   6.650   4.435   5.450 -0.0428  0.2765 -0.1231
 2067ntf    on515879   6.639   4.787   5.324  0.2336 -0.4897 -0.5172
 2067ntf    on515880   6.461   4.661   5.415 -0.1239  0.0378  0.2338
 2067ntf    on515881   6.888   4.754   5.576  0.5403  0.2746  0.5341
 2067ntf    on515882   6.817   4.540   5.656 -0.3714 -0.1042 -1.0889
 2067ntf    fn415883   6.810   4.665   5.886  0.6353  0.6673 -0.5626
 2067ntf    fn415884   6.772   4.866   5.810 -0.0730  0.1309 -0.0983
 2067ntf    fn415885   6.615   4.741   5.834  0.1779  0.0270 -0.0930
 2068ntf    cn115886   3.479   1.942   2.424 -0.0427  0.2274  0.1427
 2068ntf    sn215887   3.657   1.907   2.422 -0.1227 -0.1743 -0.0235
 2068ntf    nn315888   3.669   1.840   2.281 -0.5335 -0.2253 -0.0353
 2068ntf    sn215889   3.682   1.915   2.144 -0.4893 -0.4297 -0.1434
 2068ntf    cn115890   3.590   1.799   2.038 -0.5374 -0.2027 -0.3509
 2068ntf    fn415891   3.454   2.072   2.415 -0.1352  0.1842 -0.2618
 2068ntf    fn415892   3.413   1.886   2.324 -0.0093 -0.5782  0.5610
 2068ntf    fn415893   3.423   1.899   2.536  0.1593 -0.0284  0.1441
 2068ntf    on515894   3.746   2.020   2.431  0.6905 -0.7788 -0.2884
 2068ntf    on515895   3.670   1.816   2.533  0.2657  0.1898  0.2320
 2068ntf    on515896   3.815   1.907   2.089 -0.3272  0.7253  0.0763
 2068ntf    on515897   3.607   2.036   2.120 -0.1671 -0.2056 -0.0211
 2068ntf    fn415898   3.571   1.858   1.921 -0.8744 -0.0009 -0.1951
 2068ntf    fn415899   3.633   1.678   2.006 -0.5250 -0.1076 -0.7047
 2068ntf    fn415900   3.471   1.772   2.090 -0.2755 -0.1177  0.3001
 2069ntf    cn115901   5.694   6.781   3.393  0.0279 -0.2462 -0.9414
 2069ntf    sn215902   5.518   6.819   3.370  0.0058  0.0883 -0.2426
 2069ntf    nn315903   5.538   6.931   3.261  0.2221  0.3682  0.0831
 2069ntf    sn215904   5.431   6.994   3.165  0.3550  0.2832 -0.1206
 2069ntf    cn115905   5.550   7.050   3.039  0.6740 -0.3066 -0.0868
 2069ntf    fn415906   5.748   6.727   3.285  0.2445  0.3982 -1.1593
 2069ntf    fn415907   5.751   6.898   3.418 -0.2578 -0.1516 -0.7202
 2069ntf    fn415908   5.710   6.690   3.488 -0.0603  0.4834 -0.2127
 2069ntf    on515909   5.465   6.693   3.324 -0.1788  0.0472  0.0787
 2069ntf    on515910   5.482   6.864   3.503  0.0418 -0.3836 -0.0733
 2069ntf    on515911   5.377   7.113   3.226 -0.0551 -0.1577  0.3902
 2069ntf    on515912   5.339   6.907   3.096  0.3712  0.4482 -0.3491
 2069ntf    fn415913   5.663   6.981   3.039  0.5911 -0.4451  0.2864
 2069ntf    fn415914   5.493   7.051   2.920  0.3294 -0.5067  0.0732
 2069ntf    fn415915   5.584   7.176   3.058  0.1448 -0.1365 -0.2563
 2070ntf    cn115916   3.295   5.361   6.228 -0.1341  0.0363  0.1595
 2070ntf    sn215917   3.193   5.496   6.294  0.1598  0.3765 -0.0799
 2070ntf    nn315918   3.144   5.437   6.431  0.3061  0.7775  0.1444
 2070ntf    sn215919   3.214   5.430   6.571  0.1803 -0.1220  0.1683
 2070ntf    cn115920   3.154   5.589   6.635  0.0355 -0.1143  0.0099
 2070ntf    fn415921   3.234   5.244   6.243 -0.2626 -0.0238 -0.7343
 2070ntf    fn415922   3.322   5.367   6.098  0.4017 -0.1642  0.2583
 2070ntf    fn415923   3.411   5.354   6.291 -0.1763 -0.4766  0.1892
 2070ntf    on515924   3.283   5.607   6.305  0.4912  0.0887  0.1254
 2070ntf    on515925   3.083   5.501   6.201 -0.0587  0.1723  0.1642
 2070ntf    on515926   3.357   5.438   6.589  0.2127  0.2297 -0.2328
 2070ntf    on515927   3.156   5.335   6.662  0.5105 -0.1945  0.3079
 2070ntf    fn415928   3.183   5.690   6.555 -0.2050  0.1627  0.2678
 2070ntf    fn415929   3.022   5.588   6.646 -0.0010 -0.1325 -0.4130
 2070ntf    fn415930   3.210   5.624   6.749  0.2554 -0.4979  0.0193
 2071ntf    cn115931   5.582   5.345   2.943 -0.3332 -0.1832  0.2932
 2071ntf    sn215932   5.406   5.319   2.979 -0.4314  0.3036  0.1740
 2071ntf    nn315933   5.359   5.231   2.858  0.4097  0.2722 -0.1363
 2071ntf    sn215934   5.249   5.269   2.752 -0.1171  0.0736  0.3356
 2071ntf    cn115935   5.262   5.138   2.627 -0.3166  0.4638 -0.0990
 2071ntf    fn415936   5.598   5.356   2.812 -0.2831  0.2864  0.3382
 2071ntf    fn415937   5.630   5.454   3.000 -0.4218  0.2019 -0.3524
 2071ntf    fn415938   5.651   5.234   2.962 -0.3442 -0.2907 -0.2774
 2071ntf    on515939   5.408   5.249   3.105 -0.2537 -0.1677 -0.0878
 2071ntf    on515940   5.350   5.451   2.970  0.4762  0.7216  0.5992
 2071ntf    on515941   5.274   5.391   2.679  0.3362 -0.3007 -0.1400
 2071ntf    on515942   5.117   5.249   2.806  0.0314  0.0263  0.6844
 2071ntf    fn415943   5.225   5.018   2.671 -0.0271  0.4338  0.0673
 2071ntf    fn415944   5.192   5.170   2.520 -0.5826  0.5643  0.1028
 2071ntf    fn415945   5.388   5.116   2.592 -0.4712  0.1755 -0.4809
 2072ntf    cn115946   1.546   6.686   0.637 -0.2198 -0.0123 -0.1625
 2072ntf    sn215947   1.405   6.763   0.722 -0.0221  0.0669  0.0949
 2072ntf    nn315948   1.274   6.688   0.676 -0.1726  0.4041 -0.0266
 2072ntf    sn215949   1.136   6.644   0.737 -0.0983 -0.3772 -0.4215
 2072ntf    cn115950   1.028   6.698   0.601  0.0825  0.1755 -0.3481
 2072ntf    fn415951   1.656   6.751   0.671 -0.3403 -0.1478  0.5108
 2072ntf    fn415952   1.557   6.556   0.660  0.1112  0.0472  0.0260
 2072ntf    fn415953   1.544   6.703   0.506 -0.3548 -0.4915 -0.2261
 2072ntf    on515954   1.429   6.754   0.864  0.4606 -0.4952 -0.0168
 2072ntf    on515955   1.416   6.897   0.671 -0.0155 -0.1178 -0.3896
 2072ntf    on515956   1.087   6.717   0.850  0.3816 -0.2467 -0.2940
 2072ntf    on515957   1.115   6.501   0.741  0.1348 -0.4021 -0.0439
 2072ntf    fn415958   0.975   6.818   0.621  0.3888  0.1688  0.5462
 2072ntf    fn415959   1.089   6.698   0.484  0.3996 -0.1513 -0.1860
 2072ntf    fn415960   0.932   6.608   0.587 -0.1633  0.3864 -0.0275
 2073ntf    cn115961   1.181   4.820   6.599 -0.0926 -0.0990  0.0786
 2073ntf    sn215962   1.106   4.670   6.668  0.1236 -0.3193 -0.1633
 2073ntf    nn315963   0.990   4.656   6.563  0.1844 -0.2349 -0.2419
 2073ntf    sn215964   0.840   4.701   6.575  0.2343 -0.1150 -0.0598
 2073ntf    cn115965   0.807   4.708   6.396  0.9641 -0.0245 -0.1950
 2073ntf    fn415966   1.254   4.889   6.685 -0.4603  0.2874  0.0851
 2073ntf    fn415967   1.250   4.810   6.486  0.0949  0.2685  0.1593
 2073ntf    fn415968   1.079   4.900   6.571  0.1495 -0.0738 -0.7810
 2073ntf    on515969   1.204   4.567   6.646  0.3735 -0.1261  0.0442
 2073ntf    on515970   1.076   4.709   6.803 -0.6170  0.1414 -0.4584
 2073ntf    on515971   0.823   4.838   6.617  0.2256  0.2249 -1.1400
 2073ntf    on515972   0.747   4.598   6.614 -0.3029  0.5318  0.3918
 2073ntf    fn415973   0.678   4.728   6.373  0.9840 -0.0668 -0.3423
 2073ntf    fn415974   0.875   4.797   6.326  0.7914  0.4372  0.2094
 2073ntf    fn415975   0.824   4.586   6.349  0.2831 -0.1681 -0.0858
 2074ntf    cn115976   5.365   1.076   5.527 -0.1869 -0.0684  0.0156
 2074ntf    sn215977   5.214   1.164   5.476 -0.0516  0.1740  0.0355
 2074ntf    nn315978   5.123   1.087   5.578  0.1962 -0.1049  0.0482
 2074ntf    sn215979   4.995   1.006   5.540 -0.1377  0.5203 -0.1812
 2074ntf    cn115980   4.877   1.144   5.524 -0.2099  0.4468 -0.2832
 2074ntf    fn415981   5.474   1.106   5.458 -0.3151  0.4808  0.0447
 2074ntf    fn415982   5.398   1.105   5.652  0.3669  0.5205 -0.2607
 2074ntf    fn415983   5.349   0.945   5.515  0.0491 -0.1094  0.1320
 2074ntf    on515984   5.241   1.303   5.506 -0.0774  0.0247  0.7877
 2074ntf    on515985   5.205   1.124   5.338 -0.3562  0.2501  0.0325
 2074ntf    on515986   4.952   0.931   5.657  0.7294 -0.2685 -0.3569
 2074ntf    on515987   4.995   0.946   5.409 -0.5288  0.3737 -0.1159
 2074ntf    fn415988   4.834   1.185   5.642 -0.4649 -0.4130 -0.0693
 2074ntf    fn415989   4.936   1.248   5.469  0.2663  0.1855 -0.2736
 2074ntf    fn415990   4.774   1.117   5.445 -0.1315 -0.9536  0.0576
 2075ntf    cn115991   0.334   2.214   1.977  0.2371 -0.1047  0.2865
 2075ntf    sn215992   0.316   2.279   1.809 -0.0116  0.0157  0.3596
 2075ntf    nn315993   0.298   2.431   1.843  0.0582  0.0421  0.2789
 2075ntf    sn215994   0.177   2.528   1.823  0.0620  0.0461  0.2750
 2075ntf    cn115995   0.212   2.632   1.968  0.2225  0.3343  0.0321
 2075ntf    fn415996   0.220   2.220   2.044  0.0102  0.1102 -0.1218
 2075ntf    fn415997   0.376   2.089   1.991 -0.0184 -0.3139 -0.7553
 2075ntf    fn415998   0.419   2.290   2.045 -0.1479  0.5762  0.0113
 2075ntf    on515999   0.446   2.243   1.756 -0.4837  0.2127 -0.9722
 2075ntf    on516000   0.206   2.206   1.751  0.1109  0.0170  0.1215
 2075ntf    on516001   0.048   2.475   1.860 -0.4909  0.4559 -0.9985
 2075ntf    on516002   0.179   2.615   1.708 -0.0783 -0.2395  0.0543
 2075ntf    fn416003   0.178   2.564   2.076 -0.1301 -0.4487 -0.5561
 2075ntf    fn416004   0.342   2.650   1.983  0.3787  0.0149 -0.8618
 2075ntf    fn416005   0.144   2.746   1.977  0.8504  0.7084  0.0582
 2076ntf    cn116006   6.191   2.121   0.694  0.2217 -0.6095 -0.1629
 2076ntf    sn216007   6.289   2.241   0.598 -0.4840  0.0565 -0.0602
 2076ntf    nn316008   6.210   2.243   0.463  0.0799 -0.2453 -0.3978
 2076ntf    sn216009   6.166   2.369   0.380 -0.0899  0.1413  0.2721
 2076ntf    cn116010   6.034   2.433   0.487 -0.1306 -0.1803  0.4156
 2076ntf    fn416011   6.064   2.155   0.689  0.2766 -0.4541 -0.5451
 2076ntf    fn416012   6.201   1.998   0.647  0.4874 -0.4540 -0.5229
 2076ntf    fn416013   6.228   2.120   0.821  0.2927 -0.1651 -0.1786
 2076ntf    on516014   6.287   2.360   0.679 -0.1631  0.1091 -0.1272
 2076ntf    on516015   6.414   2.169   0.595 -0.5902 -0.1893  0.8694
 2076ntf    on516016   6.103   2.335   0.255  0.2734 -0.3161  0.2065
 2076ntf    on516017   6.268   2.471   0.370  0.1949 -0.1994 -0.4389
 2076ntf    fn416018   5.924   2.360   0.481 -0.2094 -0.0076 -0.2628
 2076ntf    fn416019   6.068   2.449   0.614  0.5117  0.5488  0.1611
 2076ntf    fn416020   5.997   2.551   0.441  0.4789 -0.2057 -0.1619
 2077ntf    cn116021   6.699   5.036   6.066  0.4424  0.0669  0.0632
 2077ntf    sn216022   6.674   5.182   6.172  0.2294  0.1344 -0.0778
 2077ntf    nn316023   6.564   5.256   6.088 -0.1612 -0.1523  0.1826
 2077ntf    sn216024   6.410   5.244   6.114 -0.0665 -0.3307  0.6687
 2077ntf    cn116025   6.378   5.361   6.250  0.5040  0.1421  0.3987
 2077ntf    fn416026   6.692   5.062   5.936 -0.3296 -0.3816  0.0058
 2077ntf    fn416027   6.813   4.972   6.078  0.1924 -0.3984 -0.0202
 2077ntf    fn416028   6.600   4.950   6.084 -0.0063  0.5145 -0.2010
 2077ntf    on516029   6.638   5.127   6.300 -0.0149  0.4976  0.0085
 2077ntf    on516030   6.805   5.242   6.186  0.1917  0.0912  0.4537
 2077ntf    on516031   6.348   5.118   6.148  0.1604 -0.5300  0.3459
 2077ntf    on516032   6.330   5.305   6.011  0.3591 -0.4157  0.2881
 2077ntf    fn416033   6.446   5.346   6.362  0.3283 -0.3584  0.4422
 2077ntf    fn416034   6.402   5.484   6.209  0.1949  0.1528  0.2421
 2077ntf    fn416035   6.248   5.363   6.277  0.3041  0.2054 -0.5307
 2078ntf    cn116036   1.516   0.807   1.939  0.0537 -0.0113  0.2386
 2078ntf    sn216037   1.611   0.766   2.089  0.1580 -0.1981  0.1228
 2078ntf    nn316038   1.757   0.784   2.033  0.1526 -0.1521  0.1234
 2078ntf    sn216039   1.849   0.911   2.047  0.0684 -0.0630 -0.1155
 2078ntf    cn116040   1.827   1.007   1.895  0.2808  0.3402  0.1084
 2078ntf    fn416041   1.510   0.699   1.862 -0.6423  0.4909 -0.4218
 2078ntf    fn416042   1.392   0.830   1.977 -0.0143  0.3835 -0.2256
 2078ntf    fn416043   1.558   0.913   1.873 -0.1018  0.1312  0.3696
 2078ntf    on516044   1.559   0.859   2.187  0.2607 -0.2900  0.2644
 2078ntf    on516045   1.582   0.627   2.114 -0.6014 -0.0268  0.1952
 2078ntf    on516046   1.986   0.866   2.040  0.1568  0.1588  0.1466
 2078ntf    on516047   1.825   1.003   2.155  0.2007 -0.2280  0.0569
 2078ntf    fn416048   1.911   1.109   1.883 -0.1148  0.6139 -0.3468
 2078ntf    fn416049   1.855   0.934   1.788 -0.1725  0.6725 -0.2403
 2078ntf    fn416050   1.707   1.059   1.878 -0.0481 -0.4966 -0.1309
 2079ntf    cn116051   2.274   2.305   2.842  0.0056  0.0571  0.2381
 2079ntf    sn216052   2.443   2.320   2.779 -0.2165  0.1363 -0.3392
 2079ntf    nn316053   2.455   2.476   2.792 -0.3708  0.1313 -0.1281
 2079ntf    sn216054   2.504   2.554   2.919  0.0800 -0.1736 -0.1094
 2079ntf    cn116055   2.406   2.708   2.914 -0.2561 -0.3958 -0.4261
 2079ntf    fn416056   2.211   2.199   2.794 -0.1403  0.2989 -0.1067
 2079ntf    fn416057   2.266   2.315   2.974  0.3190 -0.2742  0.2844
 2079ntf    fn416058   2.203   2.404   2.790  0.4535  0.2896  0.0728
 2079ntf    on516059   2.514   2.240   2.875  0.1898  0.3357 -0.4676
 2079ntf    on516060   2.434   2.275   2.642  0.0315 -0.5567 -0.1309
 2079ntf    on516061   2.636   2.607   2.896  0.1060 -0.4670 -0.6556
 2079ntf    on516062   2.481   2.497   3.049 -0.3007  0.1365 -0.0381
 2079ntf    fn416063   2.432   2.791   3.014  0.3896 -0.6049 -0.4182
 2079ntf    fn416064   2.439   2.774   2.805 -0.1502 -0.2716 -0.3190
 2079ntf    fn416065   2.276   2.684   2.916 -0.2524 -0.3946  0.1331
 2080ntf    cn116066   2.522   3.374   4.150 -0.2290 -0.2477  0.0149
 2080ntf    sn216067   2.654   3.297   4.248 -0.1026  0.1946  0.1960
 2080ntf    nn316068   2.559   3.216   4.343 -0.2228  0.2931  0.1603
 2080ntf    sn216069   2.563   3.074   4.410 -0.1791  0.3368  0.2489
 2080ntf    cn116070   2.423   2.996   4.326 -0.0591  0.1571  0.2163
 2080ntf    fn416071   2.573   3.448   4.053  0.4173 -0.4886  0.1648
 2080ntf    fn416072   2.443   3.291   4.084 -0.2972 -0.2016  0.0385
 2080ntf    fn416073   2.442   3.454   4.220  0.3889  0.5958 -0.2238
 2080ntf    on516074   2.726   3.220   4.150  0.3269  0.1444  0.5474
 2080ntf    on516075   2.717   3.404   4.322  0.3285  0.1277 -0.0664
 2080ntf    on516076   2.518   3.078   4.548  0.3550 -1.0793  0.4816
 2080ntf    on516077   2.679   3.000   4.367 -0.2124  0.3719  0.1002
 2080ntf    fn416078   2.304   3.050   4.346 -0.3681 -0.0920 -0.8815
 2080ntf    fn416079   2.440   2.985   4.195 -0.0480  0.1630  0.2173
 2080ntf    fn416080   2.410   2.867   4.356  0.0803  0.0639 -0.1121
 2081ntf    cn116081   3.928   4.820   5.331  0.4030  0.0341 -0.0906
 2081ntf    sn216082   4.059   4.939   5.374  0.2826  0.3109 -0.4783
 2081ntf    nn316083   4.182   4.850   5.336  0.0074 -0.2562 -0.0621
 2081ntf    sn216084   4.275   4.856   5.209  0.1517  0.3889  0.0717
 2081ntf    cn116085   4.390   4.717   5.234 -0.5045 -0.0938  0.4395
 2081ntf    fn416086   3.935   4.793   5.202  0.3295 -0.3112 -0.0221
 2081ntf    fn416087   3.940   4.705   5.394  0.1717  0.0270 -0.0605
 2081ntf    fn416088   3.808   4.866   5.362  0.5883  0.3506  0.1600
 2081ntf    on516089   4.032   5.058   5.297  0.2619  0.2662 -0.5396
 2081ntf    on516090   4.050   4.948   5.518 -0.2867  0.1045 -0.4976
 2081ntf    on516091   4.367   4.964   5.233  0.4205  0.0932  0.3874
 2081ntf    on516092   4.217   4.824   5.081  0.1270  0.4001  0.0797
 2081ntf    fn416093   4.482   4.721   5.140 -0.4919 -0.3907  0.4415
 2081ntf    fn416094   4.456   4.749   5.344  0.2012  0.6082 -0.1682
 2081ntf    fn416095   4.338   4.596   5.247  0.2889 -0.4986 -0.0809
 2082ntf    cn116096   6.774   3.719   6.449  0.3860 -0.5272  0.0860
 2082ntf    sn216097   6.923   3.783   6.368  0.2322  0.0969  0.2938
 2082ntf    nn316098   6.868   3.892   6.269 -0.0081  0.1667  0.5029
 2082ntf    sn216099   6.916   4.039   6.242 -0.0757  0.1322  0.1909
 2082ntf    cn116100   6.798   4.128   6.347 -0.6175 -0.0787 -0.2326
 2082ntf    fn416101   6.685   3.695   6.354 -0.1963  0.1586  0.4424
 2082ntf    fn416102   6.791   3.607   6.517  0.3749 -0.3129  0.4463
 2082ntf    fn416103   6.713   3.800   6.535 -0.2836 -0.3688 -0.5276
 2082ntf    on516104   6.985   3.831   6.490  0.3270 -0.4681  0.4725
 2082ntf    on516105   6.974   3.668   6.298 -0.0774  0.0064  0.2176
 2082ntf    on516106   6.889   4.086   6.108 -0.0416 -0.0683  0.1137
 2082ntf    on516107   7.042   4.077   6.300  0.1262 -0.3299  0.0599
 2082ntf    fn416108   6.678   4.123   6.292 -0.4248  0.1688 -0.6829
 2082ntf    fn416109   6.784   4.066   6.463  0.2191  0.0728 -0.0444
 2082ntf    fn416110   6.823   4.255   6.376  0.6456 -0.3950  0.1454
 2083ntf    cn116111   0.565   5.632   5.363 -0.2306 -0.0766 -0.2412
 2083ntf    sn216112   0.447   5.499   5.324 -0.7611  0.2810  0.1358
 2083ntf    nn316113   0.502   5.447   5.187 -0.0258 -0.6966  0.7878
 2083ntf    sn216114   0.480   5.311   5.112 -0.2499 -0.1141 -0.2272
 2083ntf    cn116115   0.639   5.228   5.144 -0.2085  0.1073  0.1510
 2083ntf    fn416116   0.520   5.710   5.460 -0.2532 -0.4968  0.0890
 2083ntf    fn416117   0.691   5.598   5.383 -0.1257  0.1326 -0.5468
 2083ntf    fn416118   0.562   5.709   5.255  0.0603  0.0880 -0.1321
 2083ntf    on516119   0.459   5.412   5.438  0.5157 -0.8161 -0.8094
 2083ntf    on516120   0.319   5.566   5.317 -0.9642 -0.0718  0.4316
 2083ntf    on516121   0.478   5.331   4.969 -0.1408  0.1573 -0.1908
 2083ntf    on516122   0.371   5.234   5.165  0.1414 -0.2740  0.3567
 2083ntf    fn416123   0.653   5.097   5.131  0.2911  0.1391  0.3667
 2083ntf    fn416124   0.736   5.279   5.070 -0.5468  0.2720 -0.1839
 2083ntf    fn416125   0.667   5.248   5.271 -0.7715 -0.3790  0.3584
 2084ntf    cn116126   5.821   5.203   5.786 -0.5829  0.1423 -0.0557
 2084ntf    sn216127   5.980   5.146   5.718 -0.4012  0.2037  0.3198
 2084ntf    nn316128   5.968   5.145   5.562  0.0706 -0.9502  0.2837
 2084ntf    sn216129   6.079   5.181   5.457 -0.0921 -0.3261  0.3208
 2084ntf    cn116130   6.058   5.358   5.424 -0.3543 -0.5177 -0.5741
 2084ntf    fn416131   5.707   5.169   5.726 -0.3283  0.0251 -0.4773
 2084ntf    fn416132   5.817   5.156   5.909 -0.3344  0.4522  0.0691
 2084ntf    fn416133   5.812   5.334   5.803  0.1421  0.2125 -0.1880
 2084ntf    on516134   6.073   5.235   5.784 -0.0965 -0.1131  0.3188
 2084ntf    on516135   5.987   5.011   5.767  0.2946 -0.2377 -0.9669
 2084ntf    on516136   6.052   5.114   5.332  0.4636  0.2818 -0.1346
 2084ntf    on516137   6.216   5.176   5.501 -0.0901 -0.4725  0.3000
 2084ntf    fn416138   6.123   5.420   5.521  0.0560 -0.4172 -0.9092
 2084ntf    fn416139   6.104   5.401   5.308  0.4779  0.1766  0.0024
 2084ntf    fn416140   5.930   5.390   5.438 -0.1046  0.4988 -0.5279
 2085ntf    cn116141   2.348   4.540   3.245  0.1784  0.0217 -0.3608
 2085ntf    sn216142   2.214   4.532   3.367  0.5908  0.1989  0.1042
 2085ntf    nn316143   2.142   4.402   3.318  0.0333  0.7631 -0.5868
 2085ntf    sn216144   1.991   4.389   3.276  0.0018 -0.2487 -0.2047
 2085ntf    cn116145   1.960   4.222   3.339 -0.2351 -0.1468 -0.0462
 2085ntf    fn416146   2.448   4.457   3.272 -0.0834  0.0336  0.6541
 2085ntf    fn416147   2.296   4.514   3.126 -0.4892 -0.1549 -0.0309
 2085ntf    fn416148   2.411   4.657   3.243  0.1855  0.0243  0.0454
 2085ntf    on516149   2.280   4.506   3.493  0.2136  0.1655  0.2941
 2085ntf    on516150   2.145   4.657   3.352 -0.0341 -0.2472 -0.7918
 2085ntf    on516151   1.977   4.387   3.133  0.0899 -0.6838 -0.2065
 2085ntf    on516152   1.891   4.459   3.354  0.2364  0.0696 -0.1856
 2085ntf    fn416153   1.841   4.183   3.295 -0.2866  0.3046 -0.3049
 2085ntf    fn416154   2.050   4.132   3.303 -0.0963 -0.0804  0.1374
 2085ntf    fn416155   1.961   4.223   3.471 -0.2369 -0.0036 -0.0476
 2086ntf    cn116156   3.586   2.466   6.681  0.1068  0.1523  0.0192
 2086ntf    sn216157   3.524   2.437   6.849 -0.1831  0.2929 -0.0616
 2086ntf    nn316158   3.581   2.558   6.931 -0.2566  0.1651  0.1815
 2086ntf    sn216159   3.539   2.609   7.073 -0.1618  0.0208  0.2617
 2086ntf    cn116160   3.531   2.452   7.163  0.2251 -0.0468  0.1812
 2086ntf    fn416161   3.549   2.584   6.635 -0.5556 -0.0382  0.0505
 2086ntf    fn416162   3.717   2.451   6.668  0.1320 -0.0377  0.4629
 2086ntf    fn416163   3.532   2.370   6.608 -0.1004  0.3174 -0.0469
 2086ntf    on516164   3.381   2.424   6.837 -0.1293 -0.5293  0.1220
 2086ntf    on516165   3.599   2.316   6.875  0.1964  0.4247 -0.5493
 2086ntf    on516166   3.406   2.664   7.064 -0.4281 -0.6132  0.2590
 2086ntf    on516167   3.639   2.685   7.143 -0.3472 -0.0776  0.6356
 2086ntf    fn416168   3.512   2.469   7.293 -0.3498 -0.4165  0.1509
 2086ntf    fn416169   3.432   2.386   7.105  0.0045  0.5992 -0.1843
 2086ntf    fn416170   3.641   2.381   7.143  0.3056  0.1982 -0.2519
 2087ntf    cn116171   6.330   0.687   4.367  0.1087  0.0795  0.1171
 2087ntf    sn216172   6.234   0.563   4.275 -0.0751  0.0903  0.2945
 2087ntf    nn316173   6.127   0.641   4.192 -0.3182  0.0787  0.5960
 2087ntf    sn216174   6.005   0.579   4.116 -0.0350  0.3051 -0.0483
 2087ntf    cn116175   5.860   0.581   4.226  0.0701  0.5163  0.0862
 2087ntf    fn416176   6.250   0.759   4.444  0.2264  0.2095  0.1187
 2087ntf    fn416177   6.422   0.634   4.446  0.3965 -0.5258 -0.6073
 2087ntf    fn416178   6.403   0.770   4.294 -0.3583  0.4072  0.0228
 2087ntf    on516179   6.342   0.501   4.203 -0.0529 -0.3686  0.7159
 2087ntf    on516180   6.173   0.473   4.370  0.1006 -0.0669  0.2611
 2087ntf    on516181   6.018   0.440   4.077 -0.2043  0.1967  0.2765
 2087ntf    on516182   5.969   0.676   4.015 -0.3940  1.0044  0.7406
 2087ntf    fn416183   5.801   0.699   4.236  0.0835  0.5663 -0.3980
 2087ntf    fn416184   5.769   0.490   4.193 -0.0119  0.8836 -0.7439
 2087ntf    fn416185   5.897   0.548   4.348  0.3321  0.4651 -0.0047
 2088ntf    cn116186   5.185   0.038   4.899  0.1204  0.3973 -0.0637
 2088ntf    sn216187   5.034   0.139   4.895 -0.0411  0.1619  0.0423
 2088ntf    nn316188   5.045   0.195   5.041 -0.6516  0.1476  0.0982
 2088ntf    sn216189   5.082   0.342   5.083 -0.0684  0.1320 -0.3480
 2088ntf    cn116190   4.916   0.413   5.107 -0.1045  0.0150 -0.2534
 2088ntf    fn416191   5.218   0.010   5.024 -1.0871 -0.2962  0.1209
 2088ntf    fn416192   5.179  -0.082   4.844  0.2805  0.2948  0.1390
 2088ntf    fn416193   5.292   0.100   4.853  0.0397  0.6322  0.0642
 2088ntf    on516194   5.056   0.228   4.784 -0.7690  0.5644  0.2188
 2088ntf    on516195   4.925   0.046   4.881  0.0003  0.1103  0.0639
 2088ntf    on516196   5.145   0.418   4.978  0.4132  0.0512 -0.1207
 2088ntf    on516197   5.136   0.356   5.216  0.4332 -0.0056 -0.5328
 2088ntf    fn416198   4.849   0.413   4.993 -0.1146  0.6668 -0.2487
 2088ntf    fn416199   4.841   0.341   5.189 -0.1851  0.9842  0.5446
 2088ntf    fn416200   4.930   0.536   5.154 -0.0816 -0.1072  0.0639
 2089ntf    cn116201   2.464   3.969   4.249 -0.0025  0.1134 -0.4252
 2089ntf    sn216202   2.483   4.070   4.099 -0.0888  0.2442 -0.3481
 2089ntf    nn316203   2.460   4.216   4.151 -0.2100  0.1682 -0.1886
 2089ntf    sn216204   2.533   4.347   4.103  0.0104  0.1169  0.0034
 2089ntf    cn116205   2.397   4.436   4.023  0.0965 -0.1535 -0.4499
 2089ntf    fn416206   2.350   3.903   4.260  0.2555 -0.2168  0.3169
 2089ntf    fn416207   2.561   3.880   4.263  0.1775  0.4509  0.5464
 2089ntf    fn416208   2.473   4.054   4.350  0.6205 -0.3184 -0.1121
 2089ntf    on516209   2.618   4.041   4.059 -0.1133 -0.0193 -0.2448
 2089ntf    on516210   2.378   4.013   4.018 -0.3718 -0.6711  0.6372
 2089ntf    on516211   2.618   4.340   3.987  0.0447 -0.6293  0.0634
 2089ntf    on516212   2.563   4.431   4.216  0.2798  0.4870 -0.3417
 2089ntf    fn416213   2.437   4.502   3.915  0.7429  0.2030  0.0039
 2089ntf    fn416214   2.293   4.362   3.988  0.1299 -0.5409  0.2722
 2089ntf    fn416215   2.347   4.525   4.107 -0.6440 -0.3805 -0.6417
 2090ntf    cn116216   1.957   4.470   6.408 -0.2428 -0.1101  0.0342
 2090ntf    sn216217   2.035   4.325   6.483 -0.4469 -0.0482  0.3662
 2090ntf    nn316218   1.941   4.313   6.609 -0.4266 -0.2130  0.3654
 2090ntf    sn216219   1.966   4.358   6.757  0.1971 -0.4945  0.3527
 2090ntf    cn116220   1.965   4.191   6.829  0.6964 -0.7068 -0.1343
 2090ntf    fn416221   2.017   4.525   6.303  0.0325 -0.3603  0.0609
 2090ntf    fn416222   1.831   4.444   6.375 -0.2929 -0.4660  0.4949
 2090ntf    fn416223   1.944   4.561   6.502 -0.5416 -0.6009  0.4727
 2090ntf    on516224   2.010   4.221   6.385  0.5660  0.2801 -0.2520
 2090ntf    on516225   2.170   4.373   6.501 -0.3727 -0.2761  0.4305
 2090ntf    on516226   1.858   4.434   6.817 -0.0625 -0.3434 -0.2949
 2090ntf    on516227   2.095   4.418   6.776 -0.0313  0.0000  0.3803
 2090ntf    fn416228   1.861   4.131   6.774  0.2022  0.0033  0.0169
 2090ntf    fn416229   2.075   4.126   6.793  0.6118 -0.7969 -0.2341
 2090ntf    fn416230   1.944   4.195   6.959 -0.4366  0.5400 -0.3364
 2091ntf    cn116231   1.365   4.082   4.140  0.2848  0.0120 -0.0020
 2091ntf    sn216232   1.450   3.997   4.003 -0.3644 -0.0433 -0.3789
 2091ntf    nn316233   1.436   3.850   4.056  0.3875  0.0333  0.0500
 2091ntf    sn216234   1.551   3.748   4.086  0.1190 -0.1218  0.5715
 2091ntf    cn116235   1.615   3.799   4.248  0.3248  0.0870  0.4268
 2091ntf    fn416236   1.416   4.038   4.254  0.4720 -0.1815 -0.1599
 2091ntf    fn416237   1.389   4.212   4.146  0.2192  0.0123  0.2414
 2091ntf    fn416238   1.234   4.064   4.133  0.2341  0.5029 -0.3406
 2091ntf    on516239   1.366   4.015   3.888 -0.1368 -0.2748 -0.5829
 2091ntf    on516240   1.581   4.058   4.000 -0.2488 -0.2249  0.6550
 2091ntf    on516241   1.667   3.755   4.000 -0.2977 -1.0568 -0.0800
 2091ntf    on516242   1.498   3.616   4.110 -0.3421 -0.1705 -0.6173
 2091ntf    fn416243   1.672   3.918   4.246  0.0535  0.2090 -0.4139
 2091ntf    fn416244   1.511   3.808   4.330 -0.1362 -0.1862 -0.1246
 2091ntf    fn416245   1.701   3.714   4.302  0.6086  0.2441  0.2211
 2092ntf    cn116246   4.986   1.319   4.114 -0.0650  0.0994 -0.1354
 2092ntf    sn216247   4.858   1.360   4.236 -0.0740 -0.0095 -0.1083
 2092ntf    nn316248   4.730   1.303   4.165  0.0360 -0.0794 -0.2490
 2092ntf    sn216249   4.611   1.362   4.081  0.0313  0.2991  0.0211
 2092ntf    cn116250   4.489   1.229   4.100  0.4049 -0.0735 -0.1531
 2092ntf    fn416251   4.993   1.192   4.077 -0.4167  0.0386  0.0055
 2092ntf    fn416252   4.979   1.395   4.005  0.1088 -0.1755 -0.3403
 2092ntf    fn416253   5.103   1.354   4.164 -0.1740  0.3062 -0.0240
 2092ntf    on516254   4.887   1.279   4.352  0.1164 -0.0848 -0.2090
 2092ntf    on516255   4.888   1.501   4.249 -0.2785  0.0513 -0.2915
 2092ntf    on516256   4.633   1.369   3.938 -0.0794 -0.4421 -0.0366
 2092ntf    on516257   4.554   1.476   4.148 -0.3439 -0.0414  0.2865
 2092ntf    fn416258   4.467   1.184   4.222  0.2312  0.4292  0.0039
 2092ntf    fn416259   4.367   1.260   4.058  0.4290  0.0716 -0.1153
 2092ntf    fn416260   4.521   1.120   4.032  0.5324 -0.1491  0.0291
 2093ntf    cn116261   1.690   6.824   4.995 -0.1772 -0.0618  0.1584
 2093ntf    sn216262   1.516   6.811   5.046 -0.2033  0.0571  0.1005
 2093ntf    nn316263   1.539   6.820   5.201  0.4506 -0.3244  0.0293
 2093ntf    sn216264   1.460   6.757   5.321 -0.2606  0.2794 -0.1140
 2093ntf    cn116265   1.385   6.904   5.399 -0.0746  0.0698  0.4658
 2093ntf    fn416266   1.723   6.949   4.964 -0.4722 -0.0109  0.0508
 2093ntf    fn416267   1.774   6.791   5.091 -0.1038 -0.5343 -0.0662
 2093ntf    fn416268   1.726   6.755   4.888  0.1382  0.3790 -0.0259
 2093ntf    on516269   1.455   6.937   5.010  1.2481  0.8558  0.3555
 2093ntf    on516270   1.474   6.686   4.988  0.1397 -0.1036  0.1991
 2093ntf    on516271   1.545   6.701   5.423 -0.6286  0.1444  0.1198
 2093ntf    on516272   1.348   6.675   5.284  0.0730  0.1466 -0.8520
 2093ntf    fn416273   1.472   6.997   5.435  0.2157 -0.0844  0.1776
 2093ntf    fn416274   1.301   6.976   5.326 -0.0840  0.1351  0.5415
 2093ntf    fn416275   1.326   6.876   5.513 -0.1398 -0.8093  0.2271
 2094ntf    cn116276   6.095   1.540   5.401 -0.0090 -0.4780 -0.1778
 2094ntf    sn216277   5.933   1.586   5.332  0.0794  0.1216  0.0120
 2094ntf    nn316278   5.916   1.742   5.346 -0.1657  0.0754  0.2480
 2094ntf    sn216279   5.829   1.819   5.451 -0.0018  0.7449 -0.1022
 2094ntf    cn116280   5.898   1.987   5.444  0.0334  0.7391  0.1142
 2094ntf    fn416281   6.113   1.588   5.523 -0.7832  0.1713 -0.3118
 2094ntf    fn416282   6.119   1.410   5.396 -0.5914 -0.6194  0.6907
 2094ntf    fn416283   6.193   1.591   5.327 -0.1368 -0.0793 -0.0706
 2094ntf    on516284   5.946   1.545   5.195  0.9853  0.0728  0.1074
 2094ntf    on516285   5.838   1.510   5.409 -0.3562 -0.0868 -0.7198
 2094ntf    on516286   5.849   1.770   5.585 -0.2086  0.0991 -0.3018
 2094ntf    on516287   5.692   1.847   5.415 -0.2467 -0.2216  0.0357
 2094ntf    fn416288   5.904   2.032   5.320 -0.1332  0.2883 -0.0580
 2094ntf    fn416289   5.831   2.080   5.510 -0.2467  0.2422  0.5385
 2094ntf    fn416290   6.015   1.978   5.506  0.3636 -0.1850 -0.6270
 2095ntf    cn116291   1.736   6.190   2.055  0.0201 -0.3079 -0.0938
 2095ntf    sn216292   1.815   6.329   2.140  0.0378 -0.1886 -0.3046
 2095ntf    nn316293   1.960   6.276   2.114  0.2238  0.3436 -0.3735
 2095ntf    sn216294   2.093   6.290   2.196  0.3510  0.2696 -0.5650
 2095ntf    cn116295   2.186   6.412   2.099  0.2331  0.4316 -0.4759
 2095ntf    fn416296   1.787   6.074   2.094 -0.4169 -0.3760  0.2832
 2095ntf    fn416297   1.606   6.174   2.076  0.0006  0.1543  0.1392
 2095ntf    fn416298   1.755   6.199   1.924  0.1298  0.2353 -0.0446
 2095ntf    on516299   1.783   6.450   2.068 -0.0844 -0.1626 -0.2073
 2095ntf    on516300   1.781   6.314   2.279 -0.3750  0.5034 -0.3217
 2095ntf    on516301   2.173   6.170   2.196  0.2156  0.1713  0.2270
 2095ntf    on516302   2.097   6.358   2.323 -0.1848 -0.9706  0.1264
 2095ntf    fn416303   2.293   6.450   2.167  0.5192 -0.5194 -0.3716
 2095ntf    fn416304   2.237   6.361   1.987 -0.6774 -0.0028 -0.6992
 2095ntf    fn416305   2.129   6.526   2.065  0.1043  0.5174  0.0298
 2096ntf    cn116306   3.674   1.422   2.907 -0.1351 -0.0350 -0.0261
 2096ntf    sn216307   3.570   1.278   2.870 -0.3510  0.1063  0.0318
 2096ntf    nn316308   3.534   1.236   3.017  0.4142 -0.2722  0.1157
 2096ntf    sn216309   3.407   1.252   3.109  0.1667 -0.2273 -0.2310
 2096ntf    cn116310   3.310   1.109   3.053  0.0784 -0.2380 -0.0515
 2096ntf    fn416311   3.701   1.505   2.807 -0.4376 -0.0265 -0.1003
 2096ntf    fn416312   3.627   1.511   2.992  0.7353  0.1200  0.3068
 2096ntf    fn416313   3.791   1.381   2.952 -0.3499 -0.8125 -0.1644
 2096ntf    on516314   3.459   1.330   2.793 -0.6278 -0.6924 -0.1265
 2096ntf    on516315   3.649   1.180   2.800  0.1504  0.4700  0.0866
 2096ntf    on516316   3.325   1.369   3.094  0.3178 -0.1484 -0.4494
 2096ntf    on516317   3.448   1.212   3.241  0.3501  0.4203 -0.0877
 2096ntf    fn416318   3.186   1.101   3.097  0.2822 -0.3116  0.5218
 2096ntf    fn416319   3.292   1.107   2.922  0.9977  0.3217 -0.1969
 2096ntf    fn416320   3.376   0.998   3.085 -0.0973 -0.3639 -0.1220
 2097ntf    cn116321   5.334   3.508   3.325  0.0344 -0.3213  0.4575
 2097ntf    sn216322   5.501   3.529   3.257 -0.2071  0.1903  0.0173
 2097ntf    nn316323   5.585   3.420   3.332 -0.7262  0.0768  0.4366
 2097ntf    sn216324   5.672   3.417   3.463 -0.2771  0.1833  0.1399
 2097ntf    cn116325   5.575   3.299   3.561 -0.0186 -0.0286  0.1409
 2097ntf    fn416326   5.246   3.572   3.250  0.6973 -0.5545 -0.5345
 2097ntf    fn416327   5.305   3.379   3.335 -0.4706 -0.2376  0.1122
 2097ntf    fn416328   5.322   3.554   3.448  0.0491  0.6366  0.1107
 2097ntf    on516329   5.480   3.495   3.119 -0.1037  0.4174 -0.0553
 2097ntf    on516330   5.537   3.667   3.282  0.0048  0.2974 -0.8502
 2097ntf    on516331   5.669   3.532   3.549  0.2485  0.1165  0.2501
 2097ntf    on516332   5.800   3.354   3.437 -0.4431  0.2450 -0.8846
 2097ntf    fn416333   5.618   3.273   3.683 -0.5530  0.4338  0.4281
 2097ntf    fn416334   5.454   3.349   3.577 -0.0577 -0.2820  0.6502
 2097ntf    fn416335   5.563   3.184   3.496 -0.4985 -0.2442  0.6107
 2098ntf    cn116336   0.267   6.887   5.279  0.0892 -0.0407  0.4609
 2098ntf    sn216337   0.190   6.753   5.183  0.0867  0.3837 -0.1277
 2098ntf    nn316338   0.325   6.692   5.131  0.0223 -0.0940  0.2617
 2098ntf    sn216339   0.411   6.575   5.190  0.0969 -0.1930 -0.0425
 2098ntf    cn116340   0.319   6.441   5.108 -0.1405 -0.0057 -0.0805
 2098ntf    fn416341   0.178   6.978   5.316  0.6658  0.7069  0.0312
 2098ntf    fn416342   0.341   6.852   5.383  0.4982  0.1454  0.2356
 2098ntf    fn416343   0.343   6.958   5.198 -0.9077  1.1960  0.5690
 2098ntf    on516344   0.117   6.671   5.276 -0.0144  0.5714 -0.0414
 2098ntf    on516345   0.126   6.808   5.065  0.2891  0.2008 -0.3238
 2098ntf    on516346   0.404   6.558   5.333  0.3787 -0.2514 -0.0339
 2098ntf    on516347   0.544   6.569   5.136  0.1082 -0.0218 -0.0334
 2098ntf    fn416348   0.327   6.446   4.976  0.3739 -0.0642 -0.0517
 2098ntf    fn416349   0.353   6.318   5.143  0.3781  0.1322 -0.1034
 2098ntf    fn416350   0.188   6.443   5.128 -0.0673 -0.0447  0.4172
 2099ntf    cn116351   3.939   2.196   4.983  0.2135 -0.5803 -0.0149
 2099ntf    sn216352   3.851   2.221   4.826  0.0627  0.2808  0.2057
 2099ntf    nn316353   3.803   2.076   4.792  0.5526  0.1768 -0.0401
 2099ntf    sn216354   3.669   2.011   4.742  0.4030  0.2790  0.2252
 2099ntf    cn116355   3.606   1.927   4.891 -0.0168 -0.0469 -0.1342
 2099ntf    fn416356   3.858   2.148   5.077  0.2888 -0.1802  0.2541
 2099ntf    fn416357   4.030   2.101   4.970  0.3511 -0.5100  0.4340
 2099ntf    fn416358   3.999   2.308   5.020 -0.1736 -0.0184 -1.0406
 2099ntf    on516359   3.750   2.319   4.860 -0.4682  0.0413 -0.6351
 2099ntf    on516360   3.953   2.253   4.729 -0.1810 -0.6635 -0.3698
 2099ntf    on516361   3.689   1.896   4.657 -0.1360  0.3673 -0.0202
 2099ntf    on516362   3.564   2.102   4.706  0.6457  0.1926 -0.7179
 2099ntf    fn416363   3.681   1.824   4.924  0.2520  0.2525  0.1970
 2099ntf    fn416364   3.597   2.010   4.993  0.4477 -0.1774  0.0120
 2099ntf    fn416365   3.484   1.879   4.876 -0.2638  0.1824  1.0553
 2100ntf    cn116366   0.862   3.919   2.035  0.2187 -0.1655  0.0110
 2100ntf    sn216367   0.977   3.883   1.900  0.1578  0.3815 -0.1892
 2100ntf    nn316368   0.875   3.870   1.782 -0.0701 -0.6231  0.1148
 2100ntf    sn216369   0.881   3.901   1.628  0.1430  0.4034  0.3270
 2100ntf    cn116370   0.703   3.927   1.598  0.1041 -0.1260  0.0873
 2100ntf    fn416371   0.796   4.034   2.023 -0.0605 -0.3343 -0.0802
 2100ntf    fn416372   0.781   3.817   2.056  0.1933 -0.0231  0.6449
 2100ntf    fn416373   0.936   3.926   2.145  0.0672 -0.1706  0.1141
 2100ntf    on516374   1.068   3.995   1.890  0.3328  0.1949 -0.7638
 2100ntf    on516375   1.035   3.761   1.949  0.5387  0.6204 -0.0361
 2100ntf    on516376   0.900   3.787   1.542 -1.4854  0.0223  0.4371
 2100ntf    on516377   0.938   4.027   1.586 -0.4251  0.5867  0.0820
 2100ntf    fn416378   0.627   3.820   1.615 -0.5564  0.2826 -0.2467
 2100ntf    fn416379   0.653   4.020   1.678 -0.3975 -0.1200 -0.2317
 2100ntf    fn416380   0.675   3.986   1.482 -0.0779  0.4398  0.4121
 2101ntf    cn116381   2.929   6.830   0.785 -0.0368 -0.2355 -0.1917
 2101ntf    sn216382   3.032   6.821   0.934 -0.2517  0.2712 -0.0112
 2101ntf    nn316383   3.098   6.679   0.924 -0.3749  0.2256 -0.1843
 2101ntf    sn216384   3.092   6.539   0.996  0.1114  0.2011 -0.1859
 2101ntf    cn116385   3.253   6.545   1.079 -0.0906 -0.1179  0.2345
 2101ntf    fn416386   2.998   6.810   0.675 -0.8499 -0.5431 -0.6587
 2101ntf    fn416387   2.840   6.731   0.788  0.1565 -0.3939  0.3886
 2101ntf    fn416388   2.865   6.946   0.781  0.6952  0.2251  0.9000
 2101ntf    on516389   3.129   6.925   0.911 -0.2145  0.1253 -0.5153
 2101ntf    on516390   2.936   6.828   1.041 -0.0922  0.4913  0.1201
 2101ntf    on516391   3.101   6.430   0.902 -0.0712 -0.1356  0.1840
 2101ntf    on516392   2.993   6.528   1.101  0.6081  0.2249  0.2856
 2101ntf    fn416393   3.273   6.455   1.173  0.5684 -0.0469  0.1716
 2101ntf    fn416394   3.347   6.519   0.989 -0.0987  0.5209  0.0321
 2101ntf    fn416395   3.285   6.663   1.131  0.0559 -0.3460  0.6654
 2102ntf    cn116396   2.786   0.195   5.631  0.0070 -0.1913 -0.2153
 2102ntf    sn216397   2.926   0.225   5.519  0.0783 -0.0254 -0.0819
 2102ntf    nn316398   3.012   0.307   5.622 -0.3469  0.2908  0.0223
 2102ntf    sn216399   3.147   0.382   5.592 -0.2905  0.1573 -0.0597
 2102ntf    cn116400   3.070   0.545   5.563 -0.5471 -0.0607 -0.6208
 2102ntf    fn416401   2.683   0.135   5.573 -0.3254  0.0639  0.1028
 2102ntf    fn416402   2.820   0.137   5.744 -0.1213 -0.1328 -0.1459
 2102ntf    fn416403   2.733   0.308   5.676  0.4534  0.0345 -0.2482
 2102ntf    on516404   2.974   0.091   5.496 -0.2887 -0.0536 -0.6963
 2102ntf    on516405   2.870   0.295   5.406  0.2913  0.1648 -0.0716
 2102ntf    on516406   3.217   0.340   5.473 -0.8855 -0.0130 -0.3547
 2102ntf    on516407   3.228   0.393   5.710  0.3035  0.8395 -0.5217
 2102ntf    fn416408   3.001   0.530   5.451 -0.4507 -0.3252 -0.6473
 2102ntf    fn416409   2.993   0.589   5.661  0.3250  0.4177 -0.1323
 2102ntf    fn416410   3.157   0.642   5.543 -0.6404  0.1625  0.0363
 2103ntf    cn116411   0.995   0.600   4.435  0.0862 -0.3586 -0.0421
 2103ntf    sn216412   1.045   0.437   4.498  0.1553 -0.3918 -0.1805
 2103ntf    nn316413   0.904   0.380   4.538  0.5159 -1.1373  0.0305
 2103ntf    sn216414   0.859   0.304   4.668 -0.2966 -0.3665  0.2031
 2103ntf    cn116415   0.736   0.190   4.597 -0.0282 -0.5025 -0.0449
 2103ntf    fn416416   0.979   0.691   4.529  0.5870 -0.3957  0.0791
 2103ntf    fn416417   1.083   0.646   4.347 -0.0552 -0.1880 -0.0968
 2103ntf    fn416418   0.884   0.597   4.363 -0.3206  0.2653  0.5462
 2103ntf    on516419   1.110   0.371   4.388  0.4953 -0.1639 -0.1170
 2103ntf    on516420   1.126   0.474   4.611  0.2060 -0.0642 -0.3231
 2103ntf    on516421   0.781   0.389   4.755  0.1762  0.1874  0.0923
 2103ntf    on516422   0.946   0.209   4.730 -0.3658 -0.6983 -0.2016
 2103ntf    fn416423   0.676   0.132   4.700 -0.5894 -0.0380 -0.1076
 2103ntf    fn416424   0.645   0.245   4.518 -0.4052 -0.1253  0.6407
 2103ntf    fn416425   0.788   0.098   4.517  0.0723 -0.2670 -0.2519
 2104ntf    cn116426   2.953   5.109   3.956  0.0931  0.2238  0.0080
 2104ntf    sn216427   3.049   5.107   3.802 -0.0597 -0.0234 -0.0844
 2104ntf    nn316428   3.189   5.141   3.866  0.0595  0.8180 -0.7728
 2104ntf    sn216429   3.244   5.263   3.948  0.1316  0.2009  0.1108
 2104ntf    cn116430   3.416   5.277   3.890  0.0755  0.2808 -0.0382
 2104ntf    fn416431   2.950   5.232   4.004  0.4675  0.0625  0.4387
 2104ntf    fn416432   2.828   5.070   3.934  0.1771 -0.2084  0.3015
 2104ntf    fn416433   3.002   5.027   4.046  0.2918  0.1117 -0.2003
 2104ntf    on516434   3.034   4.968   3.767  0.1785 -0.0144 -0.2266
 2104ntf    on516435   2.991   5.208   3.716  0.2629  0.0725 -0.1922
 2104ntf    on516436   3.260   5.231   4.087  0.0201 -0.6315 -0.0625
 2104ntf    on516437   3.192   5.392   3.911 -0.1300 -0.0770 -0.5159
 2104ntf    fn416438   3.479   5.375   3.952  0.1315 -0.0504  0.4402
 2104ntf    fn416439   3.488   5.168   3.909  0.0334  0.2887  0.1735
 2104ntf    fn416440   3.424   5.296   3.760  0.1703 -0.6062 -0.1724
 2105ntf    cn116441   1.779   0.866   5.504  0.3064 -0.1708 -1.0771
 2105ntf    sn216442   1.672   1.003   5.451  0.0452  0.0864  0.0849
 2105ntf    nn316443   1.529   0.942   5.472  0.0117 -0.0305 -0.4605
 2105ntf    sn216444   1.396   1.004   5.417 -0.0063  0.1846 -0.1767
 2105ntf    cn116445   1.321   1.049   5.576  0.0498  0.0595 -0.1151
 2105ntf    fn416446   1.754   0.756   5.434  0.0128 -0.5522 -0.3831
 2105ntf    fn416447   1.909   0.887   5.493  0.4064  0.2527  0.7126
 2105ntf    fn416448   1.760   0.841   5.632  0.0651 -0.1299 -1.1045
 2105ntf    on516449   1.719   1.105   5.541  0.5128 -0.0457 -0.0069
 2105ntf    on516450   1.717   1.022   5.315 -0.4985 -0.0417 -0.1156
 2105ntf    on516451   1.310   0.905   5.357  0.6576 -0.5850  0.1368
 2105ntf    on516452   1.406   1.135   5.357 -0.6771  0.1628 -0.3480
 2105ntf    fn416453   1.402   1.119   5.653  0.7387  0.1168 -0.8766
 2105ntf    fn416454   1.210   1.120   5.563  0.0331  0.1704  0.5896
 2105ntf    fn416455   1.290   0.940   5.646 -0.0605  0.2793  0.1825
 2106ntf    cn116456   3.003   0.742   1.080 -0.1290  0.2673  0.2294
 2106ntf    sn216457   3.140   0.632   1.124 -0.2613 -0.0349 -0.1144
 2106ntf    nn316458   3.268   0.705   1.069  0.0189 -0.2001  0.3145
 2106ntf    sn216459   3.350   0.674   0.939 -0.1699 -0.1905  0.1932
 2106ntf    cn116460   3.464   0.550   1.007  0.1998  0.1092  0.1196
 2106ntf    fn416461   3.003   0.764   0.949  0.0638 -0.4813  0.1017
 2106ntf    fn416462   2.892   0.680   1.114 -0.3370  0.5240  0.0284
 2106ntf    fn416463   2.988   0.863   1.132 -0.2882  0.1613  0.4321
 2106ntf    on516464   3.125   0.651   1.266  0.1757  0.2880 -0.1107
 2106ntf    on516465   3.102   0.500   1.078 -0.4057 -0.3180  0.8071
 2106ntf    on516466   3.445   0.774   0.900 -0.2324 -0.1497  0.1459
 2106ntf    on516467   3.281   0.600   0.836 -0.2684  0.3399 -0.1260
 2106ntf    fn416468   3.544   0.591   1.104 -0.4761  0.4212  0.5493
 2106ntf    fn416469   3.398   0.445   1.053 -0.0447  0.0463 -0.3674
 2106ntf    fn416470   3.542   0.505   0.910  1.0328  0.0287  0.8165
 2107ntf    cn116471   5.253   4.463   3.823  0.0713  0.2540 -0.0600
 2107ntf    sn216472   5.274   4.307   3.732 -0.1122  0.2062 -0.0204
 2107ntf    nn316473   5.140   4.287   3.652 -0.0530 -0.1305 -0.0344
 2107ntf    sn216474   5.063   4.151   3.635  0.1365 -0.2175 -0.1969
 2107ntf    cn116475   4.942   4.162   3.770  0.1573  0.2286 -0.2156
 2107ntf    fn416476   5.171   4.449   3.925 -0.4528  0.4910 -0.4424
 2107ntf    fn416477   5.371   4.494   3.873  0.0362  0.2808  0.0055
 2107ntf    fn416478   5.209   4.561   3.746 -0.3218  0.0271 -0.1266
 2107ntf    on516479   5.392   4.328   3.653  0.0718 -0.1894  0.1498
 2107ntf    on516480   5.285   4.221   3.847  0.1116 -0.2235 -0.3614
 2107ntf    on516481   5.134   4.029   3.665  0.0352 -0.2752 -0.1940
 2107ntf    on516482   4.983   4.142   3.515  0.1450  0.3171 -0.2451
 2107ntf    fn416483   4.851   4.067   3.764 -0.0619  0.4336 -0.1703
 2107ntf    fn416484   4.998   4.151   3.889  0.0945  0.0464 -0.2036
 2107ntf    fn416485   4.870   4.273   3.770 -0.1255  0.0442  0.1096
 2108ntf    cn116486   1.645   1.744   1.173  0.2186 -0.0682 -0.2322
 2108ntf    sn216487   1.756   1.737   1.317 -0.1300  0.2015  0.0502
 2108ntf    nn316488   1.647   1.780   1.421 -0.4154  0.1512 -0.2264
 2108ntf    sn216489   1.645   1.906   1.515  0.0353 -0.2418  0.3085
 2108ntf    cn116490   1.729   1.831   1.659  0.3934  0.1200  0.2910
 2108ntf    fn416491   1.598   1.867   1.169  0.3535 -0.0098 -0.0164
 2108ntf    fn416492   1.706   1.713   1.059  0.5681  0.1378 -0.1031
 2108ntf    fn416493   1.553   1.649   1.179  0.5921 -0.4274 -0.1082
 2108ntf    on516494   1.793   1.598   1.324 -0.2795  0.1567 -0.0353
 2108ntf    on516495   1.855   1.836   1.282 -0.0067  0.1842  0.3484
 2108ntf    on516496   1.510   1.930   1.558  0.1532 -0.0304  0.5660
 2108ntf    on516497   1.731   2.017   1.482 -0.0594 -0.2970 -0.1242
 2108ntf    fn416498   1.649   1.740   1.712  0.5922 -0.0438  0.3084
 2108ntf    fn416499   1.838   1.768   1.620  0.2141  0.0826 -0.1610
 2108ntf    fn416500   1.754   1.909   1.762 -0.3086  0.2214  0.3944
 2109ntf    cn116501   4.970   0.160   5.948 -0.3012 -0.2313 -0.3733
 2109ntf    sn216502   4.893  -0.002   5.977 -0.3775 -0.0348  0.5666
 2109ntf    nn316503   5.012  -0.103   5.959 -0.3374  0.2252 -0.7600
 2109ntf    sn216504   5.013  -0.251   5.907 -0.2481 -0.1205  0.1953
 2109ntf    cn116505   5.085  -0.337   6.050  0.2568 -0.1368 -0.0674
 2109ntf    fn416506   5.045   0.198   6.051 -0.0267  0.0227 -0.6643
 2109ntf    fn416507   5.044   0.163   5.839  0.4533 -0.3773  0.1201
 2109ntf    fn416508   4.884   0.259   5.929 -0.2090 -0.0122  0.2882
 2109ntf    on516509   4.856   0.007   6.116 -0.2186 -0.2219  0.6206
 2109ntf    on516510   4.785  -0.014   5.882  0.3115 -0.3605 -0.1847
 2109ntf    on516511   5.108  -0.273   5.801 -0.7108  0.4225 -0.3448
 2109ntf    on516512   4.881  -0.308   5.892 -0.2026 -0.1174 -0.2337
 2109ntf    fn416513   5.121  -0.462   6.022 -0.3441 -0.1954 -0.6051
 2109ntf    fn416514   5.192  -0.270   6.088 -0.2994  0.2877  0.7870
 2109ntf    fn416515   4.997  -0.348   6.148  0.5195 -0.3630  0.1428
 2110ntf    cn116516   2.673   4.288   5.703  0.3387  0.2851  0.0024
 2110ntf    sn216517   2.529   4.315   5.809  0.2978 -0.0058  0.0226
 2110ntf    nn316518   2.465   4.440   5.738  0.5912  0.0655 -0.1159
 2110ntf    sn216519   2.446   4.592   5.772 -0.1420  0.0755 -0.5489
 2110ntf    cn116520   2.317   4.578   5.900  0.2522  0.0125 -0.1548
 2110ntf    fn416521   2.750   4.395   5.716  0.0809  0.3841  0.7323
 2110ntf    fn416522   2.749   4.184   5.735  0.3712  0.3534  0.1441
 2110ntf    fn416523   2.639   4.278   5.575  0.2381 -0.1394  0.0597
 2110ntf    on516524   2.459   4.191   5.786 -0.2294  0.1060  0.9596
 2110ntf    on516525   2.583   4.351   5.938  0.0660  0.8341 -0.1028
 2110ntf    on516526   2.388   4.667   5.664  0.3321 -0.0379 -0.8849
 2110ntf    on516527   2.554   4.656   5.843 -0.2830  0.2976 -0.5321
 2110ntf    fn416528   2.352   4.529   6.017 -0.4737  0.4631  0.2573
 2110ntf    fn416529   2.251   4.692   5.912  0.2809  0.0828 -0.6444
 2110ntf    fn416530   2.221   4.496   5.860  0.3197  0.1381 -0.5856
 2111ntf    cn116531   1.234   5.333   1.286 -0.3273  0.0169  0.0660
 2111ntf    sn216532   1.072   5.321   1.367 -0.2440  0.1534  0.2535
 2111ntf    nn316533   1.129   5.319   1.513 -0.3073  0.0654  0.2770
 2111ntf    sn216534   1.103   5.231   1.640 -0.3423 -0.2092  0.0802
 2111ntf    cn116535   1.006   5.351   1.736  0.2074  0.2717  0.0432
 2111ntf    fn416536   1.223   5.356   1.156 -0.2764 -0.0112  0.0561
 2111ntf    fn416537   1.299   5.440   1.329 -0.5683  0.1785  0.0273
 2111ntf    fn416538   1.316   5.229   1.297 -0.5846 -0.1707  0.2041
 2111ntf    on516539   1.010   5.442   1.320  0.0771  0.0108 -0.5586
 2111ntf    on516540   1.015   5.197   1.321  0.2689  0.0880 -0.2121
 2111ntf    on516541   1.212   5.210   1.732 -0.8323 -0.5247  0.5938
 2111ntf    on516542   1.018   5.118   1.612 -0.6564  0.0669 -0.0729
 2111ntf    fn416543   0.969   5.300   1.853  0.3200  0.1130  0.0109
 2111ntf    fn416544   1.068   5.465   1.760  0.3384  0.2470 -0.1818
 2111ntf    fn416545   0.894   5.388   1.675  0.3737  0.2198 -0.2940
 2112ntf    cn116546   3.669   2.500   4.073  0.3604  0.4036  0.1262
 2112ntf    sn216547   3.611   2.575   4.229 -0.2195 -0.1722  0.1935
 2112ntf    nn316548   3.527   2.692   4.164  0.2340  0.1996  0.2691
 2112ntf    sn216549   3.372   2.692   4.139  0.2671  0.0909  0.0564
 2112ntf    cn116550   3.305   2.700   4.308 -0.0808 -0.0284 -0.0749
 2112ntf    fn416551   3.740   2.587   4.003 -0.2372  0.6018 -0.2459
 2112ntf    fn416552   3.722   2.380   4.089 -0.0826  0.1592 -0.2378
 2112ntf    fn416553   3.558   2.472   4.007  0.6016 -0.1226 -0.0535
 2112ntf    on516554   3.537   2.464   4.282  0.2493 -0.8144 -0.4846
 2112ntf    on516555   3.733   2.620   4.292 -0.3160  0.8338 -0.3130
 2112ntf    on516556   3.320   2.569   4.083  0.1843  0.0090  0.3104
 2112ntf    on516557   3.331   2.808   4.065  0.7820  0.5137  0.4308
 2112ntf    fn416558   3.186   2.756   4.318  0.2014  0.8151 -1.1931
 2112ntf    fn416559   3.303   2.585   4.373  0.2691 -0.0676 -0.1323
 2112ntf    fn416560   3.383   2.771   4.388  0.2963 -0.7053  0.1671
 2113ntf    cn116561   4.823   2.873   3.336  0.0004 -0.2584  0.1695
 2113ntf    sn216562   4.890   2.906   3.170 -0.1078 -0.1676  0.1442
 2113ntf    nn316563   5.039   2.861   3.184 -0.1121 -0.1637  0.2049
 2113ntf    sn216564   5.113   2.739   3.117 -0.3251 -0.1487 -0.0614
 2113ntf    cn116565   5.219   2.839   3.008  0.2507 -0.2032  0.4414
 2113ntf    fn416566   4.692   2.856   3.326 -0.0401  0.1010  0.0698
 2113ntf    fn416567   4.873   2.767   3.398  0.3392 -0.2962 -0.1651
 2113ntf    fn416568   4.840   2.976   3.417  0.2552  0.0250 -0.2396
 2113ntf    on516569   4.805   2.834   3.078  0.4251  0.0824 -0.5487
 2113ntf    on516570   4.872   3.049   3.165  0.5487 -0.0612  0.6750
 2113ntf    on516571   5.030   2.650   3.040 -0.0147 -0.0698 -0.4905
 2113ntf    on516572   5.206   2.684   3.213 -0.2393 -0.6182 -0.4107
 2113ntf    fn416573   5.273   2.778   2.903  0.4987  0.5809  0.1107
 2113ntf    fn416574   5.143   2.935   2.958  0.1751 -0.4774  0.0221
 2113ntf    fn416575   5.314   2.897   3.079  0.0835  0.0436  0.4607
 2114ntf    cn116576   2.353   4.852   1.230  0.4167  0.3993  0.0129
 2114ntf    sn216577   2.199   4.933   1.285 -0.0836 -0.5406  0.0131
 2114ntf    nn316578   2.111   4.808   1.320 -0.9380 -0.0914 -0.5168
 2114ntf    sn216579   2.083   4.756   1.465  0.2661 -0.1787 -0.3073
 2114ntf    cn116580   1.984   4.606   1.438 -0.5216  0.2404  0.1827
 2114ntf    fn416581   2.325   4.742   1.162 -0.1120  0.4549  0.1334
 2114ntf    fn416582   2.440   4.928   1.165  0.1352  0.7250  0.0152
 2114ntf    fn416583   2.413   4.801   1.336 -0.0630 -0.1654  0.0160
 2114ntf    on516584   2.252   5.023   1.384  0.3308 -0.1341 -0.5740
 2114ntf    on516585   2.158   4.996   1.162 -0.2377 -0.4381  0.1181
 2114ntf    on516586   1.985   4.826   1.545  0.8966  0.0905  0.2385
 2114ntf    on516587   2.200   4.708   1.534  0.1090  0.3063  0.3179
 2114ntf    fn416588   1.874   4.629   1.368 -0.0808  0.0523 -0.5905
 2114ntf    fn416589   2.058   4.516   1.375 -0.6816  0.3323 -0.1435
 2114ntf    fn416590   1.950   4.552   1.553  0.2424 -0.4171  0.1134
 2115ntf    cn116591   3.276   4.107   5.451 -0.2292  0.3096 -0.5369
 2115ntf    sn216592   3.338   3.955   5.531 -0.3708  0.4041 -0.2475
 2115ntf    nn316593   3.451   3.930   5.425 -0.7212  0.3946 -0.6226
 2115ntf    sn216594   3.460   3.839   5.297  0.4337 -0.1242 -0.1905
 2115ntf    cn116595   3.569   3.934   5.187  0.4898 -0.3939 -0.3664
 2115ntf    fn416596   3.197   4.175   5.532  0.0384 -0.1228  0.1001
 2115ntf    fn416597   3.371   4.191   5.414  0.5501 -0.1981  0.2641
 2115ntf    fn416598   3.208   4.093   5.338  0.7446  0.5383 -1.1637
 2115ntf    on516599   3.385   4.004   5.658 -0.2448  0.3699 -0.2806
 2115ntf    on516600   3.226   3.865   5.528  0.1849 -0.3124  0.3564
 2115ntf    on516601   3.332   3.842   5.231  0.0697  0.2976  0.5210
 2115ntf    on516602   3.524   3.713   5.324  0.0859 -0.2976 -0.1664
 2115ntf    fn416603   3.591   3.880   5.068 -0.0147  0.2722 -0.7681
 2115ntf    fn416604   3.514   4.050   5.156  0.2563 -0.4664 -0.2229
 2115ntf    fn416605   3.679   3.965   5.253 -0.1362  0.2688  0.3734
 2116ntf    cn116606   5.375   4.556   6.016 -0.1551  0.1714  0.1071
 2116ntf    sn216607   5.387   4.383   6.071 -0.6088  0.1513  0.1419
 2116ntf    nn316608   5.269   4.388   6.175 -0.1974 -0.0267  0.6222
 2116ntf    sn216609   5.178   4.265   6.208 -0.3499 -0.0197  0.2269
 2116ntf    cn116610   5.030   4.302   6.109 -0.0550  0.0745 -0.1822
 2116ntf    fn416611   5.248   4.579   5.989 -0.2819  0.2710  0.7747
 2116ntf    fn416612   5.424   4.649   6.096  0.3846 -0.3155  0.3560
 2116ntf    fn416613   5.436   4.572   5.899  0.0381 -0.7109  0.0761
 2116ntf    on516614   5.375   4.314   5.945 -0.0815 -0.1096  0.2313
 2116ntf    on516615   5.518   4.377   6.131 -0.4268  0.0068 -0.2657
 2116ntf    on516616   5.128   4.280   6.342 -0.4764 -0.0509  0.1836
 2116ntf    on516617   5.217   4.131   6.170  0.8580  0.3248  0.2297
 2116ntf    fn416618   5.049   4.297   5.978  0.0957 -0.1770 -0.1523
 2116ntf    fn416619   4.935   4.212   6.131  0.2953 -0.2084  0.1892
 2116ntf    fn416620   4.975   4.421   6.127 -0.0621  0.0943 -0.3357
 2117ntf    cn116621   4.797   2.641   6.728  0.4519  0.3230  0.0340
 2117ntf    sn216622   4.860   2.514   6.842 -0.0327 -0.0011 -0.0605
 2117ntf    nn316623   5.009   2.502   6.794  0.0014 -0.1513  0.0856
 2117ntf    sn216624   5.149   2.497   6.865 -0.0198 -0.3422  0.1143
 2117ntf    cn116625   5.229   2.373   6.760 -0.2186  0.0519 -0.5047
 2117ntf    fn416626   4.770   2.588   6.610 -0.0600  0.3445  0.1426
 2117ntf    fn416627   4.686   2.704   6.762  0.0266 -0.0423 -0.6564
 2117ntf    fn416628   4.891   2.733   6.709  0.8617 -0.0689  0.1546
 2117ntf    on516629   4.852   2.570   6.974  0.2702  0.0653 -0.0703
 2117ntf    on516630   4.779   2.396   6.823 -0.2384  0.1161  0.0889
 2117ntf    on516631   5.154   2.442   6.999 -0.2159 -0.1299  0.2102
 2117ntf    on516632   5.225   2.618   6.851  0.3295 -0.5178  0.4697
 2117ntf    fn416633   5.171   2.254   6.764  0.1257 -0.0962  0.2231
 2117ntf    fn416634   5.225   2.405   6.631  0.1799  0.7798 -0.3392
 2117ntf    fn416635   5.357   2.361   6.790 -0.2406 -0.7946 -0.7047
 2118ntf    cn116636   6.369   4.678   6.881  0.4336 -0.3167 -0.1401
 2118ntf    sn216637   6.243   4.688   6.750 -0.0632  0.1514  0.3708
 2118ntf    nn316638   6.126   4.713   6.852  0.1288  0.3865  0.5353
 2118ntf    sn216639   5.985   4.774   6.820  0.1118 -0.0061 -0.1690
 2118ntf    cn116640   6.022   4.937   6.894 -0.7665 -0.0097  0.2899
 2118ntf    fn416641   6.358   4.570   6.957 -0.3365  0.0141  0.2231
 2118ntf    fn416642   6.488   4.677   6.823  0.6533 -0.4334  0.3100
 2118ntf    fn416643   6.364   4.781   6.963  0.4250  0.0931 -0.6467
 2118ntf    on516644   6.282   4.801   6.670 -0.2444  0.2507  0.4226
 2118ntf    on516645   6.234   4.561   6.683  0.2042  0.2694  0.1132
 2118ntf    on516646   5.884   4.714   6.904 -0.2292  0.1074 -0.4986
 2118ntf    on516647   5.951   4.809   6.684  0.4868  0.6311 -0.1067
 2118ntf    fn416648   6.103   5.002   6.812 -0.4698 -0.3973  0.2713
 2118ntf    fn416649   5.915   5.014   6.903 -0.0332  1.0101  0.3755
 2118ntf    fn416650   6.084   4.931   7.010 -0.4516 -0.3620  0.1061
 2119ntf    cn116651   1.605   3.893   5.697 -0.2347 -0.1048  0.1952
 2119ntf    sn216652   1.672   4.061   5.679 -0.2184 -0.1177  0.1376
 2119ntf    nn316653   1.602   4.122   5.806 -0.2768 -0.2813  0.1848
 2119ntf    sn216654   1.519   4.256   5.810  0.3579  0.1286 -0.1754
 2119ntf    cn116655   1.616   4.341   5.938 -0.2407  0.3007  0.1676
 2119ntf    fn416656   1.606   3.841   5.818  0.9332 -0.2755  0.1176
 2119ntf    fn416657   1.478   3.890   5.658 -0.0275  0.0831 -0.5176
 2119ntf    fn416658   1.673   3.815   5.614 -0.5413 -0.3472  0.1684
 2119ntf    on516659   1.814   4.040   5.678 -0.1002  0.6748 -0.2784
 2119ntf    on516660   1.616   4.104   5.553  0.3979 -0.1833 -0.1639
 2119ntf    on516661   1.389   4.224   5.862  0.4854 -0.5573 -0.2683
 2119ntf    on516662   1.511   4.345   5.697 -0.0035 -0.1987 -0.4138
 2119ntf    fn416663   1.578   4.463   5.970 -0.4748  0.1836  0.3358
 2119ntf    fn416664   1.607   4.267   6.047 -0.2139  0.3343  0.1922
 2119ntf    fn416665   1.746   4.353   5.916 -0.1338 -0.1139  0.5622
 2120ntf    cn116666   3.174   5.272   2.700  0.4560 -0.3096  0.0089
 2120ntf    sn216667   3.057   5.214   2.826  0.0767  0.3509 -0.0319
 2120ntf    nn316668   3.153   5.118   2.906 -0.0102 -0.0387 -0.3933
 2120ntf    sn216669   3.244   5.164   3.025 -0.7376 -0.0392  0.1719
 2120ntf    cn116670   3.145   5.125   3.173 -0.3017 -0.3030  0.4002
 2120ntf    fn416671   3.197   5.187   2.601  0.5885 -0.2996  0.0316
 2120ntf    fn416672   3.147   5.387   2.640  0.5463 -0.5730 -0.5466
 2120ntf    fn416673   3.292   5.288   2.757  0.7514  0.1707 -0.7180
 2120ntf    on516674   3.013   5.330   2.899  0.2120  0.3227  0.0971
 2120ntf    on516675   2.956   5.140   2.756  0.0332  0.3390  0.0429
 2120ntf    on516676   3.279   5.303   3.038 -0.2092 -0.1163 -0.3874
 2120ntf    on516677   3.350   5.067   3.045 -0.3501  0.3848  0.1862
 2120ntf    fn416678   3.081   5.011   3.150 -0.0810 -0.4488  0.5080
 2120ntf    fn416679   3.220   5.107   3.280  0.5258  0.2348 -0.0806
 2120ntf    fn416680   3.051   5.216   3.197  0.1273  0.0903  0.5880
 2121ntf    cn116681   5.376   6.576   4.181 -0.0317 -0.1159 -0.0339
 2121ntf    sn216682   5.361   6.755   4.152  0.2394 -0.1188 -0.2023
 2121ntf    nn316683   5.310   6.796   4.295  0.0820 -0.2678 -0.2148
 2121ntf    sn216684   5.396   6.813   4.425 -0.3931  0.2318  0.0373
 2121ntf    cn116685   5.413   6.993   4.445  0.1608  0.1855  0.0248
 2121ntf    fn416686   5.258   6.517   4.184 -0.1371  0.0408 -0.9457
 2121ntf    fn416687   5.443   6.504   4.092  0.0138 -0.3097  0.1554
 2121ntf    fn416688   5.438   6.544   4.293  0.2463  0.1068 -0.1229
 2121ntf    on516689   5.488   6.801   4.101  0.3666 -0.2987 -0.0518
 2121ntf    on516690   5.260   6.771   4.050 -0.3337 -0.2147  0.3425
 2121ntf    on516691   5.532   6.764   4.413 -0.3228  0.4486 -0.0480
 2121ntf    on516692   5.325   6.775   4.545 -0.3308  0.6264  0.2003
 2121ntf    fn416693   5.519   7.038   4.381  0.1108 -0.0214 -0.2068
 2121ntf    fn416694   5.301   7.047   4.400  0.0759  0.1027  0.1345
 2121ntf    fn416695   5.431   7.032   4.570  0.2526  0.1645  0.0171
 2122ntf    cn116696   0.464   3.957   2.831  0.0621  0.0228  0.1852
 2122ntf    sn216697   0.423   4.127   2.781 -0.1010  0.0180  0.3028
 2122ntf    nn316698   0.284   4.163   2.844 -0.1918  0.3632 -0.0890
 2122ntf    sn216699   0.237   4.247   2.968 -0.2509  0.2453 -0.0307
 2122ntf    cn116700   0.187   4.386   2.862  0.0491  0.3459 -0.0436
 2122ntf    fn416701   0.586   3.911   2.808 -0.0006 -0.0230 -0.0555
 2122ntf    fn416702   0.450   3.949   2.963  0.5239 -0.1336  0.2277
 2122ntf    fn416703   0.374   3.877   2.777  0.2432  0.2267 -0.4313
 2122ntf    on516704   0.530   4.214   2.821  0.1141 -0.1098  0.0158
 2122ntf    on516705   0.407   4.106   2.639 -0.2090  0.1144  0.3009
 2122ntf    on516706   0.331   4.293   3.067 -0.2207 -0.3594  0.2226
 2122ntf    on516707   0.119   4.190   3.027 -0.2181  0.4133  0.1983
 2122ntf    fn416708   0.268   4.424   2.765  0.0330  0.3909 -0.0391
 2122ntf    fn416709   0.067   4.363   2.810 -0.0751  0.1833  0.3060
 2122ntf    fn416710   0.179   4.498   2.932 -0.2691  0.2268  0.1126
 2123ntf    cn116711   2.018   2.142   0.702 -0.3226  0.0542  0.0696
 2123ntf    sn216712   2.104   1.982   0.695 -0.2959  0.0827 -0.2804
 2123ntf    nn316713   1.997   1.899   0.616 -0.2401 -0.3446  0.0897
 2123ntf    sn216714   1.998   1.862   0.463 -0.2224  0.2078 -0.0471
 2123ntf    cn116715   1.832   1.790   0.448  0.0567 -0.4773  0.0761
 2123ntf    fn416716   1.989   2.189   0.582  0.1857  0.2283  0.0152
 2123ntf    fn416717   1.902   2.136   0.766 -0.3740 -0.0077 -0.0300
 2123ntf    fn416718   2.087   2.239   0.760  0.3278  0.0847 -0.7330
 2123ntf    on516719   2.230   2.004   0.628 -0.0667  0.2504  0.2019
 2123ntf    on516720   2.112   1.948   0.835 -0.0227 -0.0770 -0.3343
 2123ntf    on516721   2.089   1.752   0.440 -0.2142  0.0019  0.9086
 2123ntf    on516722   2.003   1.977   0.377 -0.3909  0.1378 -0.1515
 2123ntf    fn416723   1.799   1.755   0.325 -0.2940  0.2967 -0.0566
 2123ntf    fn416724   1.817   1.686   0.528 -0.6717 -0.3112  0.1619
 2123ntf    fn416725   1.746   1.884   0.484  0.2631 -0.4218  0.4291
 2124ntf    cn116726   4.550   5.670   1.675 -0.3117  0.0942 -0.2453
 2124ntf    sn216727   4.491   5.645   1.845 -0.2611 -0.1883 -0.2698
 2124ntf    nn316728   4.615   5.705   1.920 -0.4344 -0.0566 -0.0884
 2124ntf    sn216729   4.613   5.830   2.015  0.2468 -0.1810  0.0939
 2124ntf    cn116730   4.618   5.963   1.891  0.0334 -0.2146  0.0494
 2124ntf    fn416731   4.677   5.633   1.676 -0.1032  0.7921  0.0174
 2124ntf    fn416732   4.491   5.600   1.580  0.4447 -0.0886 -0.5950
 2124ntf    fn416733   4.552   5.799   1.645 -0.1257  0.0758 -0.3211
 2124ntf    on516734   4.363   5.710   1.847 -0.0851  0.1579 -0.2022
 2124ntf    on516735   4.493   5.501   1.851  0.2235 -0.1956 -0.5468
 2124ntf    on516736   4.741   5.842   2.081  0.2349 -0.1681  0.1151
 2124ntf    on516737   4.500   5.830   2.104 -0.0363 -0.3983 -0.2647
 2124ntf    fn416738   4.727   5.966   1.817  0.0605  0.3123  0.1094
 2124ntf    fn416739   4.515   5.957   1.808 -0.1432  0.9994  0.1703
 2124ntf    fn416740   4.618   6.085   1.942 -0.0956  0.1648 -0.8560
 2125ntf    cn116741   6.801   4.724   6.835 -0.2147 -0.5680 -0.1566
 2125ntf    sn216742   6.843   4.818   6.685 -0.4802 -0.2611 -0.0383
 2125ntf    nn316743   6.909   4.953   6.732 -0.2971 -0.2420 -0.3528
 2125ntf    sn216744   7.063   4.975   6.754 -0.3899  0.2478 -0.1743
 2125ntf    cn116745   7.053   5.089   6.895  0.2222 -0.1281  0.1726
 2125ntf    fn416746   6.719   4.792   6.913  0.1182  0.3686 -0.6079
 2125ntf    fn416747   6.740   4.611   6.804  0.2213 -0.5888 -0.9681
 2125ntf    fn416748   6.907   4.689   6.906 -0.1265  0.2827  0.1473
 2125ntf    on516749   6.937   4.728   6.624  0.2909  0.3023  0.2956
 2125ntf    on516750   6.724   4.844   6.608 -0.1764 -0.7232 -0.6618
 2125ntf    on516751   7.127   5.049   6.648 -0.1374 -0.4960 -0.5464
 2125ntf    on516752   7.136   4.866   6.814  0.2520  0.4807 -0.5225
 2125ntf    fn416753   6.972   5.191   6.874 -0.1918 -0.5975 -0.5518
 2125ntf    fn416754   7.012   5.023   7.002 -0.1720  0.2396  0.2504
 2125ntf    fn416755   7.170   5.142   6.927  0.2145 -0.3410  0.5618
 2126ntf    cn116756   1.455   1.038   2.919 -0.0004  0.2471  0.1260
 2126ntf    sn216757   1.565   0.995   3.057 -0.0197 -0.2276 -0.0046
 2126ntf    nn316758   1.552   0.839   3.046 -0.1975 -0.2356  0.3037
 2126ntf    sn216759   1.638   0.741   2.958 -0.3302  0.2586 -0.3904
 2126ntf    cn116760   1.710   0.640   3.091 -0.2664  0.3650 -0.3434
 2126ntf    fn416761   1.477   0.964   2.812 -0.1974  0.1881  0.1260
 2126ntf    fn416762   1.328   1.011   2.947  0.0371 -0.1676 -0.0916
 2126ntf    fn416763   1.461   1.163   2.878  0.1581  0.3255  0.3832
 2126ntf    on516764   1.698   1.047   3.033 -0.3103  0.3147 -0.4611
 2126ntf    on516765   1.502   1.039   3.179  0.5554 -0.1691  0.2754
 2126ntf    on516766   1.745   0.795   2.878  0.0671  0.6905  0.4103
 2126ntf    on516767   1.554   0.646   2.891 -0.1577  0.0814 -0.3579
 2126ntf    fn416768   1.813   0.701   3.147  0.2214 -0.1493 -0.6649
 2126ntf    fn416769   1.626   0.603   3.187  0.4459 -0.3639  0.0115
 2126ntf    fn416770   1.748   0.520   3.049 -0.2418  0.1899  0.1650
 2127ntf    cn116771   0.387   1.491   5.254  0.0698 -0.1746  0.0573
 2127ntf    sn216772   0.419   1.580   5.409 -0.3074 -0.1205  0.1052
 2127ntf    nn316773   0.384   1.466   5.512 -0.4991 -0.0256  0.1463
 2127ntf    sn216774   0.478   1.376   5.599 -0.4894 -0.2440 -0.0889
 2127ntf    cn116775   0.365   1.281   5.705 -0.4810  0.0841  0.2151
 2127ntf    fn416776   0.395   1.575   5.153 -0.6904  0.1897  0.2886
 2127ntf    fn416777   0.474   1.395   5.229  0.0159 -0.2162  0.0298
 2127ntf    fn416778   0.266   1.438   5.253  0.0623 -0.1638  0.2676
 2127ntf    on516779   0.559   1.612   5.400 -0.3398 -0.1213 -0.4256
 2127ntf    on516780   0.324   1.689   5.410 -0.0365  0.1207 -0.3459
 2127ntf    on516781   0.548   1.449   5.702  0.3123 -0.4400 -0.4905
 2127ntf    on516782   0.559   1.274   5.537  0.3135  0.0463  0.4663
 2127ntf    fn416783   0.425   1.188   5.777  0.1839  0.4030  0.0738
 2127ntf    fn416784   0.301   1.356   5.794  0.4355  0.6578  0.3949
 2127ntf    fn416785   0.276   1.211   5.636 -0.3597 -0.0310  0.1770
 2128ntf    cn116786   5.024   0.658   6.453 -0.2766  0.1338  0.0789
 2128ntf    sn216787   4.871   0.756   6.452 -0.1242  0.3738 -0.2534
 2128ntf    nn316788   4.888   0.842   6.582  0.0693 -0.1061  0.0449
 2128ntf    sn216789   4.841   0.803   6.727  0.1156 -0.1375  0.0507
 2128ntf    cn116790   4.664   0.825   6.693  0.2255  0.6594 -0.0294
 2128ntf    fn416791   5.135   0.727   6.478 -0.4567  0.4994 -0.1141
 2128ntf    fn416792   5.026   0.545   6.521 -0.3528  0.1463  0.1017
 2128ntf    fn416793   5.049   0.615   6.330 -0.1441  0.6112 -0.0669
 2128ntf    on516794   4.879   0.834   6.331  0.6353 -0.1047 -0.5157
 2128ntf    on516795   4.761   0.662   6.455 -0.0199  0.2623  0.1730
 2128ntf    on516796   4.872   0.903   6.826 -0.5300  0.2109 -0.0987
 2128ntf    on516797   4.845   0.663   6.760  0.7149 -0.1157  0.0875
 2128ntf    fn416798   4.631   0.938   6.632 -0.6315  0.3105 -0.2279
 2128ntf    fn416799   4.613   0.727   6.621 -0.2177 -0.0535  1.2258
 2128ntf    fn416800   4.595   0.828   6.805  0.5776 -0.0252  0.2144
 2129ntf    cn116801   3.488   0.205   2.840 -0.1213 -0.6022  0.1473
 2129ntf    sn216802   3.411   0.270   2.992 -0.3144  0.2579 -0.3085
 2129ntf    nn316803   3.308   0.372   2.932 -0.3446  0.1837 -0.3843
 2129ntf    sn216804   3.312   0.529   2.925 -0.0172  0.1882 -0.1453
 2129ntf    cn116805   3.238   0.579   3.084 -0.0381 -0.0729 -0.0727
 2129ntf    fn416806   3.594   0.130   2.864 -0.0161 -0.3232  0.5724
 2129ntf    fn416807   3.402   0.128   2.776 -0.1892 -0.1648 -0.2918
 2129ntf    fn416808   3.529   0.302   2.760  0.0212 -0.4575  0.3938
 2129ntf    on516809   3.348   0.154   3.051 -0.4229  0.0459 -0.8324
 2129ntf    on516810   3.524   0.331   3.056 -0.3659  0.2449 -0.2056
 2129ntf    on516811   3.217   0.582   2.830 -0.6057 -0.3481  0.1353
 2129ntf    on516812   3.446   0.581   2.931  0.0985 -0.0950 -0.2526
 2129ntf    fn416813   3.304   0.521   3.183 -0.0841 -0.0734 -0.0425
 2129ntf    fn416814   3.259   0.709   3.098  0.2677 -0.1409  0.1265
 2129ntf    fn416815   3.110   0.546   3.087 -0.0334 -0.1582 -0.6522
 2130ntf    cn116816   2.400   2.329   3.407  0.0595 -0.0033 -0.0385
 2130ntf    sn216817   2.438   2.225   3.551  0.0053  0.2251  0.1415
 2130ntf    nn316818   2.291   2.180   3.585 -0.0649  0.4614  0.1512
 2130ntf    sn216819   2.203   2.210   3.711 -0.2425  0.1642  0.0990
 2130ntf    cn116820   2.080   2.079   3.683  0.3704 -0.3503 -0.1962
 2130ntf    fn416821   2.506   2.342   3.330  0.1400  0.7293  0.1889
 2130ntf    fn416822   2.307   2.269   3.334 -0.0818 -0.2723  0.3571
 2130ntf    fn416823   2.352   2.447   3.444 -0.1921 -0.1036 -0.0398
 2130ntf    on516824   2.518   2.120   3.493 -0.7347 -0.4372  0.3011
 2130ntf    on516825   2.497   2.308   3.653  0.3109  0.2880 -0.0897
 2130ntf    on516826   2.123   2.330   3.702 -0.2723  0.0807 -0.8263
 2130ntf    on516827   2.269   2.177   3.835 -0.3247 -0.1678  0.0564
 2130ntf    fn416828   2.004   2.109   3.579 -0.2725 -0.2008  0.3155
 2130ntf    fn416829   2.138   1.965   3.650  0.6296 -0.2123 -0.2221
 2130ntf    fn416830   2.004   2.058   3.789  0.5095  0.5045  0.0814
 2131ntf    cn116831   5.693   0.166   5.618 -0.1993 -0.3706  0.2163
 2131ntf    sn216832   5.721   0.256   5.774 -0.3000  0.2075 -0.0981
 2131ntf    nn316833   5.611   0.189   5.863  0.0760 -0.0988  0.1398
 2131ntf    sn216834   5.528   0.258   5.977 -0.0307  0.1056 -0.0606
 2131ntf    cn116835   5.373   0.303   5.894 -0.1370 -0.2013 -0.0276
 2131ntf    fn416836   5.574   0.202   5.573  0.0781  0.2312 -0.0394
 2131ntf    fn416837   5.776   0.200   5.521 -0.4570 -0.3547  0.0006
 2131ntf    fn416838   5.691   0.033   5.615  0.3680 -0.3728 -0.2039
 2131ntf    on516839   5.855   0.209   5.798 -0.3799 -0.2584 -0.5295
 2131ntf    on516840   5.711   0.395   5.736  0.5637  0.2105 -0.3494
 2131ntf    on516841   5.580   0.377   6.040 -0.1348 -0.1034  0.4246
 2131ntf    on516842   5.476   0.155   6.063  0.2412  0.0656  0.0552
 2131ntf    fn416843   5.309   0.201   5.838 -0.1897 -0.3747  0.3442
 2131ntf    fn416844   5.291   0.353   5.985 -0.0410 -0.0223 -0.0387
 2131ntf    fn416845   5.383   0.400   5.804 -0.2879 -0.0886  0.0775
 2132ntf    cn116846   2.127   1.632   3.281  0.1953  0.0235 -0.3445
 2132ntf    sn216847   1.997   1.576   3.166 -0.2312 -0.3622  0.3182
 2132ntf    nn316848   1.903   1.701   3.175  0.0226 -0.1187 -0.3285
 2132ntf    sn216849   1.746   1.698   3.189  0.0451  0.2096  0.0386
 2132ntf    cn116850   1.728   1.697   3.369  0.5890  0.0954  0.0943
 2132ntf    fn416851   2.082   1.660   3.402  0.1838 -0.0803 -0.3245
 2132ntf    fn416852   2.217   1.536   3.297  0.5078  0.3915  0.1035
 2132ntf    fn416853   2.195   1.737   3.238  0.4779  0.0022  0.0496
 2132ntf    on516854   2.064   1.558   3.040 -0.5052  0.1818  0.0918
 2132ntf    on516855   1.932   1.462   3.226  0.4209 -0.8829  0.0435
 2132ntf    on516856   1.683   1.578   3.140  0.0782  0.0215  0.4595
 2132ntf    on516857   1.687   1.825   3.157  0.2524  0.3508  0.2186
 2132ntf    fn416858   1.807   1.787   3.425  0.3182  0.2401  0.2477
 2132ntf    fn416859   1.603   1.719   3.405  0.0776 -0.8810 -1.0368
 2132ntf    fn416860   1.763   1.579   3.418  0.4446 -0.0313 -0.1106
 2133ntf    cn116861   2.539   5.864   4.457  0.1486  0.1938 -0.3997
 2133ntf    sn216862   2.689   5.762   4.455  0.2768  0.3635  0.1967
 2133ntf    nn316863   2.792   5.880   4.441  0.7646 -0.1386 -0.5407
 2133ntf    sn216864   2.935   5.882   4.504  0.4306  0.2583  0.2113
 2133ntf    cn116865   2.888   5.954   4.665  0.1450  0.2269  0.1418
 2133ntf    fn416866   2.425   5.801   4.475 -0.0503  0.7330  0.2789
 2133ntf    fn416867   2.543   5.955   4.554 -0.4387  0.2057 -0.3844
 2133ntf    fn416868   2.533   5.930   4.342 -0.4150  0.5644 -0.1650
 2133ntf    on516869   2.684   5.708   4.588  0.5635 -0.1262  0.0122
 2133ntf    on516870   2.687   5.676   4.339 -0.0762  0.2721  0.2702
 2133ntf    on516871   3.031   5.978   4.453  0.0072  0.9967  0.7703
 2133ntf    on516872   2.996   5.757   4.542  0.0387 -0.0493 -0.1677
 2133ntf    fn416873   2.995   5.970   4.741  0.6394 -0.9317 -0.2846
 2133ntf    fn416874   2.828   6.071   4.649  0.0770  0.2670  0.6841
 2133ntf    fn416875   2.806   5.886   4.744 -0.0961 -0.0601 -0.3484
 2134ntf    cn116876   3.116   5.373   2.254  0.3462 -0.3224 -0.6573
 2134ntf    sn216877   3.094   5.414   2.079 -0.3519 -0.0007 -0.4980
 2134ntf    nn316878   3.096   5.571   2.070 -0.0844  0.0272  0.0301
 2134ntf    sn216879   2.975   5.671   2.082 -0.1762 -0.0449 -0.2915
 2134ntf    cn116880   3.060   5.803   2.175  0.0914 -0.0271 -0.5562
 2134ntf    fn416881   3.208   5.455   2.302 -0.6563  0.3686  0.1348
 2134ntf    fn416882   3.004   5.405   2.317  0.5432 -0.1261 -0.4032
 2134ntf    fn416883   3.137   5.245   2.280  0.0772 -0.1770  0.3547
 2134ntf    on516884   3.219   5.366   2.025  0.1061 -0.1006  0.6363
 2134ntf    on516885   2.977   5.340   2.039 -0.1189 -0.1335 -0.9407
 2134ntf    on516886   2.863   5.627   2.161 -0.1968  0.3555 -0.0955
 2134ntf    on516887   2.951   5.741   1.958 -0.2846 -0.0126 -0.2519
 2134ntf    fn416888   3.092   5.749   2.292 -0.1569  0.3033 -0.3327
 2134ntf    fn416889   3.162   5.861   2.116  0.2011 -0.1401 -0.4777
 2134ntf    fn416890   2.970   5.895   2.207  0.2953  0.1221 -0.4149
 2135ntf    cn116891   0.769   0.425   1.182 -0.1081  0.1356  0.2158
 2135ntf    sn216892   0.735   0.399   1.358 -0.1161 -0.4080  0.1376
 2135ntf    nn316893   0.696   0.248   1.373 -0.0729 -0.4574 -0.2647
 2135ntf    sn216894   0.788   0.121   1.355  0.4667 -0.1269  0.1158
 2135ntf    cn116895   0.829   0.082   1.527 -0.1582 -0.1819  0.2571
 2135ntf    fn416896   0.817   0.545   1.153 -0.3533  0.0626 -0.5147
 2135ntf    fn416897   0.856   0.340   1.128 -0.2153 -0.1606  0.5054
 2135ntf    fn416898   0.658   0.406   1.113  0.2607 -0.9084 -0.1126
 2135ntf    on516899   0.857   0.430   1.429 -0.4626  0.6776  0.2880
 2135ntf    on516900   0.626   0.492   1.377  0.0801 -0.1288 -0.1094
 2135ntf    on516901   0.918   0.133   1.294  0.4404 -0.6611 -0.0544
 2135ntf    on516902   0.703   0.012   1.314  0.1156  0.0349  0.4092
 2135ntf    fn416903   0.864   0.192   1.592  0.1337 -0.0529 -0.1156
 2135ntf    fn416904   0.722   0.034   1.588 -0.2814 -0.6507 -0.3272
 2135ntf    fn416905   0.934   0.003   1.544  0.2638  0.4112  0.4570
 2136ntf    cn116906   4.779   0.328   3.495 -0.1207  0.2146 -0.3327
 2136ntf    sn216907   4.876   0.177   3.465 -0.3765 -0.0876  0.3500
 2136ntf    nn316908   4.820   0.091   3.584 -0.4851 -0.4556  0.0342
 2136ntf    sn216909   4.874   0.079   3.731  0.0749  0.3347 -0.1013
 2136ntf    cn116910   4.866  -0.101   3.752  0.1487  0.3104 -0.2856
 2136ntf    fn416911   4.805   0.377   3.615  0.4263 -0.7241 -0.0542
 2136ntf    fn416912   4.809   0.417   3.402  0.8983 -0.0845 -0.2971
 2136ntf    fn416913   4.652   0.294   3.485 -0.0255 -0.2054 -0.1471
 2136ntf    on516914   4.831   0.130   3.337  0.4343 -0.2077  0.1025
 2136ntf    on516915   5.013   0.220   3.477 -0.3816 -0.1528  0.6590
 2136ntf    on516916   4.782   0.134   3.828  0.0832  0.0995  0.0392
 2136ntf    on516917   5.014   0.101   3.756  0.2480 -0.8435 -0.0020
 2136ntf    fn416918   4.937  -0.173   3.666 -0.8076 -0.4974 -0.4246
 2136ntf    fn416919   4.907  -0.145   3.870 -0.6109 -0.0594 -0.1529
 2136ntf    fn416920   4.742  -0.148   3.749  0.4215 -0.4531  0.1346
 2137ntf    cn116921   1.742   2.106   3.905  0.0860  0.0435 -0.0995
 2137ntf    sn216922   1.654   2.251   3.969 -0.0458 -0.0191 -0.1379
 2137ntf    nn316923   1.771   2.354   3.986  0.0946 -0.1657 -0.2145
 2137ntf    sn216924   1.867   2.362   4.111 -0.3282  0.0314  0.1007
 2137ntf    cn116925   1.756   2.434   4.235  0.0607  0.3122  0.2882
 2137ntf    fn416926   1.844   2.061   3.977 -0.1219  0.3923  0.4172
 2137ntf    fn416927   1.658   2.006   3.886 -0.3198  0.3308  0.1780
 2137ntf    fn416928   1.802   2.134   3.791  0.4696 -0.0548  0.0731
 2137ntf    on516929   1.564   2.283   3.861 -0.2015  0.8923  0.2477
 2137ntf    on516930   1.592   2.211   4.093  0.2293  0.8792  0.2988
 2137ntf    on516931   1.969   2.461   4.088 -0.2128 -0.0202  0.3863
 2137ntf    on516932   1.905   2.236   4.170  0.1886  0.2975  0.3414
 2137ntf    fn416933   1.693   2.340   4.303 -0.0072 -0.2211 -0.4915
 2137ntf    fn416934   1.824   2.512   4.318  0.6110 -0.1760  0.2980
 2137ntf    fn416935   1.665   2.504   4.168  0.3275 -0.0565 -0.4702
 2138ntf    cn116936   1.436   2.370   0.093 -0.3778  0.1004  0.3092
 2138ntf    sn216937   1.376   2.202   0.131 -0.1509  0.0451  0.4326
 2138ntf    nn316938   1.469   2.110   0.044 -0.6458  0.0357 -0.0982
 2138ntf    sn216939   1.441   2.030  -0.088 -0.6052 -0.2298  0.0537
 2138ntf    cn116940   1.372   1.876  -0.020 -0.1266 -0.2974  0.3877
 2138ntf    fn416941   1.409   2.407  -0.030 -0.4293  0.4191  0.4163
 2138ntf    fn416942   1.375   2.454   0.175 -0.1154  0.2238  0.3805
 2138ntf    fn416943   1.567   2.378   0.112 -0.2891 -0.0134 -0.2474
 2138ntf    on516944   1.407   2.184   0.270  0.0032 -0.6069  0.3178
 2138ntf    on516945   1.239   2.211   0.084 -0.3103  0.1003  0.9024
 2138ntf    on516946   1.568   1.998  -0.147 -0.9646  0.1234 -0.9382
 2138ntf    on516947   1.342   2.090  -0.173 -0.2365  0.3122  0.0004
 2138ntf    fn416948   1.241   1.891  -0.008 -0.1705 -0.7102  0.4092
 2138ntf    fn416949   1.401   1.769  -0.091  0.1621 -0.0982  0.2016
 2138ntf    fn416950   1.429   1.844   0.096  0.5082  0.5728  0.3279
 2139ntf    cn116951   4.305   3.325   4.283 -0.0400  0.2442  0.6425
 2139ntf    sn216952   4.455   3.226   4.253 -0.2509  0.0988  0.0451
 2139ntf    nn316953   4.429   3.083   4.313  0.1447 -0.0711 -0.1863
 2139ntf    sn216954   4.364   2.955   4.250  0.0551 -0.0343 -0.1670
 2139ntf    cn116955   4.484   2.914   4.121  0.1544  0.4240 -0.2228
 2139ntf    fn416956   4.319   3.446   4.231 -0.0129 -0.1729 -0.3474
 2139ntf    fn416957   4.190   3.273   4.243  0.3156 -0.1804  0.1564
 2139ntf    fn416958   4.284   3.329   4.414  0.0752  1.0902  0.6402
 2139ntf    on516959   4.484   3.236   4.112  0.1491 -0.1528  0.1097
 2139ntf    on516960   4.548   3.291   4.342 -0.4006  0.2232  0.1114
 2139ntf    on516961   4.232   2.973   4.194  0.1794  0.0257 -0.4412
 2139ntf    on516962   4.380   2.835   4.328  0.6412  0.3067  0.2443
 2139ntf    fn416963   4.446   2.808   4.053 -0.2064  0.0809  0.5039
 2139ntf    fn416964   4.520   3.004   4.031  0.3611 -0.2138 -0.7900
 2139ntf    fn416965   4.601   2.882   4.174  0.1093  0.7452  0.0748
 2140ntf    cn116966   3.089   5.218   0.179 -0.3474  0.0285 -0.0186
 2140ntf    sn216967   3.259   5.256   0.230 -0.3285 -0.0211 -0.0453
 2140ntf    nn316968   3.274   5.412   0.216 -0.4271 -0.0261 -0.2083
 2140ntf    sn216969   3.216   5.523   0.310  0.2586  0.0338  0.1463
 2140ntf    cn116970   3.229   5.672   0.206 -0.0486  0.0842  0.1786
 2140ntf    fn416971   3.003   5.284   0.256 -0.2880 -0.2943  0.3301
 2140ntf    fn416972   3.056   5.252   0.056  0.2847  0.2408 -0.1297
 2140ntf    fn416973   3.051   5.093   0.201 -0.5072 -0.0457 -0.6893
 2140ntf    on516974   3.264   5.198   0.362  0.0853  0.1933  0.0370
 2140ntf    on516975   3.332   5.188   0.126  0.6811  0.1211  0.5547
 2140ntf    on516976   3.307   5.548   0.419  0.5365 -0.3705  0.0078
 2140ntf    on516977   3.075   5.507   0.337  0.1669  0.0966 -0.2888
 2140ntf    fn416978   3.344   5.685   0.142  0.0980 -0.5143  0.3174
 2140ntf    fn416979   3.132   5.685   0.117 -0.0849  0.0102  0.2078
 2140ntf    fn416980   3.218   5.786   0.273  0.1193  0.3140 -0.1797
 2141ntf    cn116981   4.964   4.769   1.229 -0.1639  0.0174 -0.4160
 2141ntf    sn216982   4.912   4.617   1.145 -0.0807 -0.2611  0.0346
 2141ntf    nn316983   4.864   4.527   1.264 -0.0968  0.6665  0.7401
 2141ntf    sn216984   4.722   4.470   1.301 -0.1222  0.3442  0.1537
 2141ntf    cn116985   4.775   4.300   1.337 -0.3503  0.1804 -0.2747
 2141ntf    fn416986   4.863   4.845   1.270 -0.4046 -0.3714 -0.2845
 2141ntf    fn416987   5.038   4.750   1.338  0.2992  0.2855 -0.6805
 2141ntf    fn416988   5.038   4.846   1.151  0.2446  0.0517 -0.0026
 2141ntf    on516989   4.800   4.662   1.067 -0.3091 -1.0125 -0.0752
 2141ntf    on516990   5.036   4.585   1.077 -0.3070 -0.2480 -0.3839
 2141ntf    on516991   4.636   4.442   1.189 -0.4037  0.4485  0.3431
 2141ntf    on516992   4.667   4.523   1.423 -0.6544  0.4660 -0.1356
 2141ntf    fn416993   4.675   4.222   1.374 -0.2260  0.2126  0.1333
 2141ntf    fn416994   4.833   4.248   1.230  0.0432 -0.3002  0.1635
 2141ntf    fn416995   4.860   4.281   1.436 -0.1161  0.2397 -0.4621
 2142ntf    cn116996   0.851   2.544   2.174 -0.3799  0.0981 -0.0800
 2142ntf    sn216997   0.897   2.646   2.318 -0.2007  0.0555 -0.1069
 2142ntf    nn316998   1.018   2.735   2.271 -0.4160  0.3526 -0.0993
 2142ntf    sn216999   1.010   2.869   2.190 -0.0112  0.2228 -0.3574
 2142ntf    cn117000   1.175   2.872   2.115  0.4049 -0.3496  0.5167
 2142ntf    fn417001   0.808   2.622   2.077  0.8491  0.2364 -0.5262
 2142ntf    fn417002   0.952   2.468   2.134 -0.4763 -0.0708 -0.0071
 2142ntf    fn417003   0.757   2.458   2.207  0.2293 -0.4125  0.3600
 2142ntf    on517004   0.778   2.722   2.346 -0.2498  0.1207 -0.4877
 2142ntf    on517005   0.932   2.548   2.418  0.2550  0.0995 -0.2191
 2142ntf    on517006   1.017   2.987   2.273  0.2711  0.1854 -0.3271
 2142ntf    on517007   0.927   2.866   2.072 -0.2535 -0.7445 -0.1719
 2142ntf    fn417008   1.195   2.984   2.047 -0.6616 -0.1747  0.4795
 2142ntf    fn417009   1.278   2.853   2.196  0.5236 -0.1813  0.4072
 2142ntf    fn417010   1.176   2.776   2.024 -0.0163  0.1931 -0.0686
 2143ntf    cn117011   2.223   2.624   1.300  0.3604  0.0572 -0.2420
 2143ntf    sn217012   2.084   2.519   1.248  0.0756  0.2883  0.0425
 2143ntf    nn317013   2.004   2.621   1.159 -0.0758 -0.0384 -0.2011
 2143ntf    sn217014   1.880   2.710   1.198 -0.0879 -0.0697 -0.1684
 2143ntf    cn117015   1.747   2.591   1.163 -0.1151 -0.1739  0.2872
 2143ntf    fn417016   2.318   2.569   1.373  0.4203  0.6622  0.1496
 2143ntf    fn417017   2.284   2.681   1.198  0.1698  0.3885 -0.1744
 2143ntf    fn417018   2.174   2.726   1.369  0.8038  0.3188 -0.3143
 2143ntf    on517019   2.150   2.426   1.159 -0.2363  0.1301 -0.0279
 2143ntf    on517020   2.020   2.473   1.368 -0.4721 -0.0457 -0.3717
 2143ntf    on517021   1.864   2.812   1.098 -0.0130 -0.4663 -0.5905
 2143ntf    on517022   1.865   2.739   1.338 -0.0924  0.0337 -0.1904
 2143ntf    fn417023   1.755   2.556   1.036 -0.8587  0.5354  0.0319
 2143ntf    fn417024   1.765   2.478   1.229 -0.0726 -0.2148  0.2053
 2143ntf    fn417025   1.621   2.629   1.176 -0.0413  0.4008 -0.6184
 2144ntf    cn117026   2.679   4.641   4.984 -0.1307  0.0956 -0.6474
 2144ntf    sn217027   2.805   4.672   4.857  0.0685  0.1563 -0.4367
 2144ntf    nn317028   2.939   4.683   4.938 -0.4266  0.1244  0.3978
 2144ntf    sn217029   3.004   4.809   5.006  0.1534 -0.1732  0.3995
 2144ntf    cn117030   3.178   4.764   4.975  0.1303  0.0461 -0.0562
 2144ntf    fn417031   2.672   4.743   5.068  0.4150 -0.2168 -0.2177
 2144ntf    fn417032   2.558   4.646   4.931 -0.4255  0.1971  0.0241
 2144ntf    fn417033   2.694   4.532   5.057  0.3415  0.2016 -0.5773
 2144ntf    on517034   2.801   4.552   4.777 -0.5678  0.0336 -0.2240
 2144ntf    on517035   2.759   4.784   4.778 -0.0589  0.0591 -0.5004
 2144ntf    on517036   2.985   4.804   5.149  0.3073 -0.0722  0.4237
 2144ntf    on517037   2.979   4.935   4.941 -0.1262 -0.3186  0.2221
 2144ntf    fn417038   3.210   4.661   5.051  0.7790  0.1776 -0.1519
 2144ntf    fn417039   3.210   4.719   4.855  0.0271  0.0020 -0.0672
 2144ntf    fn417040   3.259   4.863   5.009 -0.1101  0.2563 -0.0930
 2145ntf    cn117041   6.083   0.419   1.114 -0.4204  0.2086 -0.4053
 2145ntf    sn217042   6.198   0.523   1.208  0.0529 -0.4028 -0.2976
 2145ntf    nn317043   6.196   0.653   1.119  0.1545  0.0580  0.3661
 2145ntf    sn217044   6.167   0.802   1.157  0.1707  0.1020  0.2040
 2145ntf    cn117045   5.995   0.811   1.099  0.1519 -0.0194  0.2403
 2145ntf    fn417046   6.060   0.306   1.180 -0.0444  0.6046  0.4223
 2145ntf    fn417047   5.965   0.477   1.098 -0.3856  0.2877 -0.3724
 2145ntf    fn417048   6.123   0.389   0.991 -0.5110  0.0315 -0.3915
 2145ntf    on517049   6.132   0.520   1.336  0.4700  0.4863 -0.0495
 2145ntf    on517050   6.322   0.451   1.190  0.1277 -0.2179 -0.5386
 2145ntf    on517051   6.235   0.896   1.071 -0.4183  0.2272 -0.1344
 2145ntf    on517052   6.154   0.834   1.297 -0.2301  0.4103  0.0996
 2145ntf    fn417053   5.984   0.809   0.967 -0.5812 -0.4733  0.3004
 2145ntf    fn417054   5.910   0.723   1.149 -0.6342  0.0263 -0.9749
 2145ntf    fn417055   5.940   0.925   1.140  0.1169 -0.1399  0.5335
 2146ntf    cn117056   5.078   2.890   1.634  0.1630  0.1415  0.4398
 2146ntf    sn217057   5.218   3.003   1.606  0.4526 -0.3168  0.0243
 2146ntf    nn317058   5.315   2.937   1.709  0.1611 -0.2935  0.3149
 2146ntf    sn217059   5.455   2.874   1.676  0.0653 -0.3027 -0.0776
 2146ntf    cn117060   5.542   3.032   1.652 -0.1066 -0.1306  0.4206
 2146ntf    fn417061   5.091   2.784   1.555  0.5892  0.6634 -0.1992
 2146ntf    fn417062   5.080   2.848   1.760  0.2380  0.4045  0.5266
 2146ntf    fn417063   4.957   2.941   1.616  0.2716  0.1689 -0.2566
 2146ntf    on517064   5.244   2.993   1.464 -0.4534 -0.6885 -0.1236
 2146ntf    on517065   5.155   3.122   1.658 -0.3458 -0.4818 -0.5303
 2146ntf    on517066   5.476   2.801   1.553  0.0124 -0.2622 -0.1107
 2146ntf    on517067   5.528   2.829   1.792 -0.0986  0.3845  0.3007
 2146ntf    fn417068   5.671   3.012   1.636  0.0576  0.5595  0.8580
 2146ntf    fn417069   5.496   3.087   1.540  0.2290  0.1852  0.4359
 2146ntf    fn417070   5.525   3.115   1.754  0.3076  0.2067  0.2187
 2147ntf    cn117071   1.747   5.875   5.365 -0.3590  0.3936  0.2288
 2147ntf    sn217072   1.684   6.044   5.340  0.1808  0.5803  0.1117
 2147ntf    nn317073   1.627   6.069   5.484 -0.4887  0.1219 -0.0673
 2147ntf    sn217074   1.682   6.161   5.599 -0.1959 -0.0759 -0.0483
 2147ntf    cn117075   1.625   6.078   5.750  0.5879  0.2258  0.4209
 2147ntf    fn417076   1.668   5.774   5.333 -0.0402  0.2646 -0.1602
 2147ntf    fn417077   1.865   5.859   5.309 -0.4550 -0.1721  0.1833
 2147ntf    fn417078   1.772   5.854   5.493 -0.4750 -0.1365  0.1662
 2147ntf    on517079   1.796   6.125   5.299  0.1376  0.4975 -0.1744
 2147ntf    on517080   1.579   6.029   5.242 -0.3164 -0.3443  0.7669
 2147ntf    on517081   1.619   6.290   5.608  0.6622  0.3459  0.0019
 2147ntf    on517082   1.825   6.151   5.615 -0.1810 -0.0973 -0.1986
 2147ntf    fn417083   1.495   6.052   5.754  0.5792  0.2023 -0.0418
 2147ntf    fn417084   1.684   5.960   5.757  0.3226  0.0928  0.4320
 2147ntf    fn417085   1.650   6.144   5.863  0.1559  0.1989  0.5350
 2148ntf    cn117086   0.129   5.841   4.280 -0.4969  0.3780 -0.4264
 2148ntf    sn217087   0.084   5.929   4.433 -0.1108 -0.4568  0.1731
 2148ntf    nn317088   0.232   5.941   4.484 -0.0011  0.3934 -0.3185
 2148ntf    sn217089   0.332   6.061   4.491  0.3322  0.1021 -0.0210
 2148ntf    cn117090   0.274   6.141   4.643 -0.5005  0.0605 -0.3158
 2148ntf    fn417091   0.153   5.711   4.287 -0.8954  0.3032 -0.3759
 2148ntf    fn417092   0.036   5.852   4.186 -0.5180 -0.5227 -0.5242
 2148ntf    fn417093   0.231   5.899   4.219  0.2871  0.0691  0.5716
 2148ntf    on517094   0.012   6.046   4.390  0.0776 -0.5426 -0.3839
 2148ntf    on517095   0.013   5.827   4.507 -0.8119  0.2886  0.5402
 2148ntf    on517096   0.314   6.166   4.394 -0.4031  0.0419  0.0458
 2148ntf    on517097   0.465   6.015   4.526  0.0418 -0.0974  0.8401
 2148ntf    fn417098   0.147   6.179   4.635 -0.6921 -0.5832 -0.4099
 2148ntf    fn417099   0.292   6.069   4.752  0.2217  0.7682  0.0426
 2148ntf    fn417100   0.347   6.249   4.665 -0.0695 -0.1531 -0.6898
 2149ntf    cn117101   0.214   5.484   3.933 -0.1815  0.1925  0.3112
 2149ntf    sn217102   0.120   5.622   3.862 -0.0303 -0.0139 -0.2962
 2149ntf    nn317103   0.173   5.620   3.714 -0.3536  0.5960 -0.4241
 2149ntf    sn217104   0.281   5.708   3.642  0.4523  0.0109  0.0584
 2149ntf    cn117105   0.183   5.846   3.577 -0.0744 -0.2493  0.2938
 2149ntf    fn417106   0.343   5.513   3.921 -0.2475  0.2178 -0.3379
 2149ntf    fn417107   0.188   5.460   4.061 -0.2432 -0.0974  0.2463
 2149ntf    fn417108   0.187   5.369   3.873  0.2767  0.1758  0.1344
 2149ntf    on517109  -0.019   5.583   3.871 -0.0637  0.0615 -0.4847
 2149ntf    on517110   0.146   5.737   3.945 -0.2003 -0.0737 -0.1571
 2149ntf    on517111   0.334   5.653   3.520 -0.4871 -0.6557 -0.0587
 2149ntf    on517112   0.381   5.765   3.729  0.3012 -0.4590  0.5505
 2149ntf    fn417113   0.193   5.957   3.649  0.0396  0.1570 -0.3381
 2149ntf    fn417114   0.220   5.872   3.453  0.1373 -0.0905  0.3905
 2149ntf    fn417115   0.054   5.818   3.567 -0.1189  0.0971 -0.0965
 2150ntf    cn117116   6.017   3.626   4.822  0.1341 -0.3082 -0.3942
 2150ntf    sn217117   6.170   3.609   4.919  0.0399  0.2637 -0.1438
 2150ntf    nn317118   6.253   3.725   4.853 -0.0604  0.1381 -0.4921
 2150ntf    sn217119   6.291   3.865   4.914 -0.1170 -0.3174  0.5999
 2150ntf    cn117120   6.408   3.812   5.043  0.4463  0.1129  0.2628
 2150ntf    fn417121   5.976   3.750   4.841  0.6275 -0.2312  0.1858
 2150ntf    fn417122   6.031   3.593   4.695  0.1614  0.7449 -0.6687
 2150ntf    fn417123   5.917   3.553   4.868  0.1089  0.2720  0.4868
 2150ntf    on517124   6.125   3.635   5.054  0.0652 -0.3038 -0.0231
 2150ntf    on517125   6.221   3.478   4.887  0.2893  0.3965 -0.2945
 2150ntf    on517126   6.188   3.943   4.979  0.0273  0.4212 -0.0526
 2150ntf    on517127   6.371   3.940   4.821 -0.8415  0.0025  0.2252
 2150ntf    fn417128   6.458   3.917   5.107  0.3608  0.0510  0.4320
 2150ntf    fn417129   6.351   3.741   5.138  0.1641  0.1133  0.0931
 2150ntf    fn417130   6.508   3.745   4.988  0.1370 -0.0692 -0.0785
 2151ntf    cn117131   2.541   6.545   5.198  0.1260 -0.3842  0.4360
 2151ntf    sn217132   2.369   6.529   5.139  0.2194  0.0022  0.0532
 2151ntf    nn317133   2.398   6.555   4.987 -0.5508  0.2603 -0.0524
 2151ntf    sn217134   2.417   6.452   4.870  0.3467  0.1558  0.1747
 2151ntf    cn117135   2.508   6.567   4.763  0.2935  0.1797  0.1543
 2151ntf    fn417136   2.583   6.666   5.164 -0.9015 -0.1670 -0.1163
 2151ntf    fn417137   2.564   6.518   5.325  0.0326  0.4194  0.6313
 2151ntf    fn417138   2.627   6.467   5.136  0.3289  0.0519  0.1619
 2151ntf    on517139   2.341   6.391   5.170 -0.0652  0.0706  0.1046
 2151ntf    on517140   2.303   6.632   5.216 -0.2406  0.3777 -0.8343
 2151ntf    on517141   2.307   6.421   4.782 -0.0560  0.2893  0.6277
 2151ntf    on517142   2.517   6.349   4.887  0.5695  0.2168 -0.7344
 2151ntf    fn417143   2.424   6.655   4.711 -0.0852 -0.2868 -0.0354
 2151ntf    fn417144   2.602   6.633   4.828  0.2265  0.5864 -0.1625
 2151ntf    fn417145   2.555   6.499   4.659 -0.1406 -0.2193  0.2175
 2152ntf    cn117146   2.437   2.206   1.339  0.3297  0.1989  0.1343
 2152ntf    sn217147   2.545   2.073   1.400  0.0445  0.0038  0.2155
 2152ntf    nn317148   2.438   1.964   1.433 -0.0237 -0.1279 -0.4244
 2152ntf    sn217149   2.385   1.906   1.569  0.3129  0.3628 -0.0825
 2152ntf    cn117150   2.525   1.795   1.599  0.0638 -0.0854 -0.5724
 2152ntf    fn417151   2.381   2.278   1.435 -0.1075  0.5735 -0.3902
 2152ntf    fn417152   2.504   2.292   1.264  0.1986  0.3549  0.1951
 2152ntf    fn417153   2.342   2.165   1.256  0.2447 -0.3428  0.4998
 2152ntf    on517154   2.626   2.037   1.287  0.0945  0.1428  0.2063
 2152ntf    on517155   2.618   2.122   1.514 -0.1761  0.3951  0.1927
 2152ntf    on517156   2.272   1.818   1.548 -0.0190  0.7473  0.0603
 2152ntf    on517157   2.387   1.999   1.679 -0.1829 -0.4567  0.6337
 2152ntf    fn417158   2.506   1.708   1.698 -0.1118  0.0478 -0.4879
 2152ntf    fn417159   2.564   1.733   1.489  0.3731 -0.2222 -0.3872
 2152ntf    fn417160   2.628   1.858   1.653 -0.2218 -0.3317  0.2754
 2153ntf    cn117161   6.641   0.360   4.829 -0.0612  0.1098  0.1436
 2153ntf    sn217162   6.516   0.476   4.891 -0.1097  0.0855  0.0908
 2153ntf    nn317163   6.542   0.470   5.046  0.2598 -0.0784  0.0237
 2153ntf    sn217164   6.496   0.363   5.151  0.1057  0.0637  0.1020
 2153ntf    cn117165   6.344   0.436   5.219 -0.0966 -0.0732 -0.2017
 2153ntf    fn417166   6.762   0.406   4.857  0.0043  0.1339 -0.1671
 2153ntf    fn417167   6.640   0.238   4.882  0.2603  0.1463  0.2374
 2153ntf    fn417168   6.636   0.359   4.697  0.7146 -0.1984  0.1096
 2153ntf    on517169   6.536   0.604   4.829  0.4225 -0.0727 -0.0643
 2153ntf    on517170   6.391   0.415   4.853 -0.0663  0.2015 -0.2372
 2153ntf    on517171   6.592   0.363   5.259  0.0438  0.4334  0.1568
 2153ntf    on517172   6.448   0.238   5.097 -0.6738  0.2883  0.2683
 2153ntf    fn417173   6.360   0.547   5.289 -0.2277 -0.2923  0.1810
 2153ntf    fn417174   6.258   0.457   5.121  0.0740  0.8222 -0.1691
 2153ntf    fn417175   6.281   0.358   5.305  0.5402 -0.1955  0.1622
 2154ntf    cn117176   1.534   4.529   2.181 -0.2681  0.2962 -0.0065
 2154ntf    sn217177   1.576   4.604   2.341 -0.3700  0.2736  0.0306
 2154ntf    nn317178   1.699   4.515   2.385 -0.6054 -0.1479 -0.1539
 2154ntf    sn217179   1.699   4.403   2.495  0.0207 -0.2347 -0.2429
 2154ntf    cn117180   1.769   4.270   2.392  0.1174 -0.0058 -0.4758
 2154ntf    fn417181   1.544   4.397   2.170  0.2185  0.3047  0.2817
 2154ntf    fn417182   1.417   4.561   2.130 -0.1211  0.5120 -0.2078
 2154ntf    fn417183   1.621   4.571   2.090 -0.0389  0.0790  0.1101
 2154ntf    on517184   1.616   4.734   2.294  0.4502 -0.0094 -0.0764
 2154ntf    on517185   1.456   4.591   2.419 -0.0205 -0.1428  0.5075
 2154ntf    on517186   1.575   4.340   2.532  0.0110 -0.0717  0.0046
 2154ntf    on517187   1.796   4.417   2.601  0.1852  0.2721 -0.4548
 2154ntf    fn417188   1.872   4.302   2.315  0.5698  0.0515  0.1446
 2154ntf    fn417189   1.796   4.158   2.457  0.0096  0.2039 -0.0627
 2154ntf    fn417190   1.678   4.228   2.306 -0.3515 -0.0686  0.0442
 2155ntf    cn117191   3.273   2.316   1.038 -0.0642  0.8231 -0.2303
 2155ntf    sn217192   3.401   2.239   1.142 -0.6471  0.3749  0.1637
 2155ntf    nn317193   3.377   2.308   1.281 -0.1016  0.3899  0.2543
 2155ntf    sn217194   3.279   2.267   1.397  0.0585 -0.0587  0.2335
 2155ntf    cn117195   3.339   2.371   1.533  0.3227 -0.0865  0.1383
 2155ntf    fn417196   3.256   2.255   0.922  0.5927  0.3411 -0.0805
 2155ntf    fn417197   3.154   2.303   1.094 -0.2064 -0.8230 -0.8603
 2155ntf    fn417198   3.295   2.445   1.017  0.2966  0.7451 -0.3284
 2155ntf    on517199   3.381   2.096   1.132 -0.5813  0.3920 -0.2479
 2155ntf    on517200   3.519   2.276   1.068 -0.8285 -0.4723 -0.5731
 2155ntf    on517201   3.290   2.132   1.447  0.6111 -0.3861 -0.7306
 2155ntf    on517202   3.145   2.318   1.376  0.2584  0.4294  0.1270
 2155ntf    fn417203   3.333   2.502   1.515  0.7109 -0.2613 -1.3908
 2155ntf    fn417204   3.265   2.331   1.635  0.2058  0.1306  0.1386
 2155ntf    fn417205   3.464   2.341   1.564  0.3083 -0.0622  0.2192
 2156ntf    cn117206   1.711   1.560   6.627 -0.2124 -0.3383  0.0419
 2156ntf    sn217207   1.642   1.416   6.539 -0.1598 -0.3290 -0.0148
 2156ntf    nn317208   1.763   1.388   6.443  0.3902  0.9371  0.2836
 2156ntf    sn217209   1.886   1.296   6.476  0.0352  0.3548  0.0064
 2156ntf    cn117210   1.838   1.133   6.412 -0.3882  0.4560  0.0573
 2156ntf    fn417211   1.613   1.601   6.705  0.0223 -0.2036  0.2678
 2156ntf    fn417212   1.825   1.534   6.688  0.0019  0.5490  0.0177
 2156ntf    fn417213   1.741   1.658   6.544  0.1157 -0.3450  0.1530
 2156ntf    on517214   1.621   1.318   6.643  0.2973  0.2362  0.6236
 2156ntf    on517215   1.527   1.463   6.466 -0.0567  0.8961  0.5932
 2156ntf    on517216   1.921   1.278   6.615 -0.1218  0.0014  0.0020
 2156ntf    on517217   2.000   1.332   6.396 -0.2215  0.2287 -0.4229
 2156ntf    fn417218   1.715   1.091   6.437 -0.2364 -0.2380 -0.3259
 2156ntf    fn417219   1.844   1.121   6.280  0.1105 -0.6874  0.1713
 2156ntf    fn417220   1.925   1.043   6.456 -0.1391  0.3374 -0.6528
 2157ntf    cn117221   3.570   4.452   2.376  0.0541 -0.0222 -0.1053
 2157ntf    sn217222   3.465   4.502   2.516  0.3522 -0.1840  0.1790
 2157ntf    nn317223   3.349   4.574   2.437 -0.1061 -0.1442  0.8757
 2157ntf    sn217224   3.210   4.514   2.398  0.0206  0.1219 -0.0120
 2157ntf    cn117225   3.162   4.640   2.275 -0.1107  0.2780  0.1975
 2157ntf    fn417226   3.509   4.354   2.312 -0.3152  0.0398  0.1458
 2157ntf    fn417227   3.587   4.553   2.293 -0.7876 -0.3972 -0.7535
 2157ntf    fn417228   3.683   4.398   2.419 -0.0537 -0.2167 -0.0629
 2157ntf    on517229   3.416   4.385   2.583 -0.8963  0.1960 -0.0411
 2157ntf    on517230   3.545   4.593   2.594  0.6644 -0.5751  0.3164
 2157ntf    on517231   3.097   4.506   2.488 -0.3339 -0.0654 -0.4703
 2157ntf    on517232   3.219   4.404   2.305  0.2456 -0.0834  0.2539
 2157ntf    fn417233   3.241   4.647   2.170 -0.9236  0.8025 -0.3857
 2157ntf    fn417234   3.040   4.616   2.230  0.2739 -0.4369 -0.4971
 2157ntf    fn417235   3.164   4.760   2.331  0.4925  0.4103 -0.1031
 2158ntf    cn117236   5.482   5.358   6.053 -0.4699 -0.3514  0.2616
 2158ntf    sn217237   5.563   5.358   6.216  0.1370 -0.0202 -0.0367
 2158ntf    nn317238   5.557   5.208   6.260 -0.0549 -0.1208 -0.3999
 2158ntf    sn217239   5.558   5.152   6.407 -0.0552  0.2014 -0.2762
 2158ntf    cn117240   5.401   5.062   6.416  0.0914 -0.0794 -0.4937
 2158ntf    fn417241   5.361   5.306   6.059 -0.6161 -0.0764 -0.2297
 2158ntf    fn417242   5.466   5.481   6.005 -0.1222 -0.3518  0.1380
 2158ntf    fn417243   5.543   5.293   5.955 -0.0777 -0.4949  0.5972
 2158ntf    on517244   5.691   5.416   6.181 -0.0431  0.6966  0.4845
 2158ntf    on517245   5.473   5.439   6.294 -0.0233 -0.0611 -0.1766
 2158ntf    on517246   5.554   5.250   6.513 -0.2677 -0.4296  0.3046
 2158ntf    on517247   5.654   5.044   6.418  0.3954  0.5717 -0.5256
 2158ntf    fn417248   5.383   4.980   6.518 -0.0223  0.3027 -0.2012
 2158ntf    fn417249   5.293   5.139   6.411 -0.1554 -0.3959 -0.1183
 2158ntf    fn417250   5.388   4.980   6.313  0.4501  0.0616 -0.6507
 2159ntf    cn117251   2.186   1.457   5.984 -0.0917  0.0699 -0.0342
 2159ntf    sn217252   2.361   1.422   5.950 -0.0061  0.2374  0.2272
 2159ntf    nn317253   2.355   1.279   5.884 -0.1017  0.1877  0.3441
 2159ntf    sn217254   2.381   1.132   5.931  0.2208  0.1125 -0.0654
 2159ntf    cn117255   2.517   1.096   5.816  0.1573 -0.3639  0.0053
 2159ntf    fn417256   2.127   1.534   5.895 -0.0465  0.2087  0.0551
 2159ntf    fn417257   2.104   1.354   6.000 -0.2686  0.2297  0.1018
 2159ntf    fn417258   2.182   1.514   6.103 -0.1467 -1.0033  0.4929
 2159ntf    on517259   2.404   1.518   5.851  0.0505  0.5167  0.5217
 2159ntf    on517260   2.430   1.432   6.076 -0.5027 -0.2510  0.5421
 2159ntf    on517261   2.286   1.033   5.888  0.0169  0.3052 -0.0602
 2159ntf    on517262   2.437   1.112   6.062 -0.0804 -0.1590  0.0230
 2159ntf    fn417263   2.632   1.149   5.856 -0.1991  0.2237  0.2681
 2159ntf    fn417264   2.523   0.964   5.808  0.3866 -0.3209 -0.5488
 2159ntf    fn417265   2.500   1.136   5.691 -0.7841 -1.1686 -0.1344
 2160ntf    cn117266   3.967   6.579   1.406  0.3313  0.5541 -0.1273
 2160ntf    sn217267   4.073   6.726   1.421  0.1439  0.6819 -0.0530
 2160ntf    nn317268   3.982   6.831   1.348  0.2239  0.7948  0.0098
 2160ntf    sn217269   4.013   6.904   1.213 -0.1052  0.0126 -0.4927
 2160ntf    cn117270   3.847   6.944   1.150 -0.3851 -0.4075 -0.0273
 2160ntf    fn417271   3.893   6.581   1.296  0.1753  0.1209 -0.0326
 2160ntf    fn417272   4.035   6.465   1.406 -0.3273  0.1579  0.7108
 2160ntf    fn417273   3.890   6.557   1.511 -0.0682 -0.2654 -0.5842
 2160ntf    on517274   4.078   6.753   1.563 -0.0896  0.0213  0.0856
 2160ntf    on517275   4.191   6.682   1.351 -0.0493 -0.0500  0.0748
 2160ntf    on517276   4.067   6.820   1.109 -0.4886 -0.1365 -0.5760
 2160ntf    on517277   4.076   7.031   1.238 -0.1936 -0.1451  0.5543
 2160ntf    fn417278   3.791   6.837   1.096  0.1138 -0.4557 -0.4549
 2160ntf    fn417279   3.771   7.004   1.241  0.0035  0.4768 -0.2688
 2160ntf    fn417280   3.860   7.034   1.054  0.9037 -0.1115  0.3994
   6.91068   6.91068   6.91068
