Converted from moscito
 1944
    1SOL     ow    1   1.155   1.684   6.297  0.8294  0.4367  0.2110
    1SOL     hw    2   1.159   1.731   6.381  1.3595  0.8344 -0.0306
    1SOL     hw    3   1.131   1.751   6.233 -0.5420 -0.0664  0.1842
    1SOL     vw    4   1.153   1.699   6.300  0.7184  0.4228  0.1760
    2SOL     ow    5   0.605   1.543   6.275  0.4615 -0.1584  0.2589
    2SOL     hw    6   0.531   1.544   6.335 -1.4003  1.6894 -1.8843
    2SOL     hw    7   0.606   1.454   6.240  2.0355 -1.5189  3.3320
    2SOL     vw    8   0.596   1.531   6.278  0.4236 -0.0941  0.3817
    3SOL     ow    9   0.710   2.349   5.137  0.0466 -0.5696  0.2984
    3SOL     hw   10   0.689   2.441   5.155 -1.9256 -1.2541  1.8846
    3SOL     hw   11   0.750   2.350   5.050  2.6469  2.0635  1.3479
    3SOL     vw   12   0.712   2.361   5.128  0.1295 -0.3126  0.6464
    4SOL     ow   13   1.883   2.172   4.786 -0.0038  0.2714 -0.3709
    4SOL     hw   14   1.857   2.262   4.807 -0.5602  0.0707 -0.1774
    4SOL     hw   15   1.801   2.129   4.761  0.2162 -0.2565 -0.1947
    4SOL     vw   16   1.869   2.178   4.786 -0.0482  0.1754 -0.3219
    5SOL     ow   17   0.651   0.848   3.761 -0.1917  0.1911  0.5749
    5SOL     hw   18   0.679   0.789   3.691  0.3796  2.0367 -0.8503
    5SOL     hw   19   0.731   0.894   3.787 -0.5244  0.0041  2.0157
    5SOL     vw   20   0.665   0.847   3.755 -0.1602  0.4099  0.5770
    6SOL     ow   21   1.281   1.649   5.092 -0.2602 -0.2159 -0.3972
    6SOL     hw   22   1.345   1.678   5.027  0.1642 -0.3424 -0.0476
    6SOL     hw   23   1.242   1.570   5.054  1.6750 -1.6916  0.4569
    6SOL     vw   24   1.285   1.642   5.079  0.0511 -0.4273 -0.2379
    7SOL     ow   25   1.895   2.269   6.407  0.4328 -0.1456  0.3695
    7SOL     hw   26   1.985   2.290   6.380  0.5474 -2.3081 -1.2145
    7SOL     hw   27   1.850   2.353   6.408  2.5274  1.0409  1.5293
    7SOL     vw   28   1.901   2.282   6.404  0.7243 -0.2744  0.3138
    8SOL     ow   29   1.224   1.916   2.884 -0.8886 -0.3108  0.2667
    8SOL     hw   30   1.240   1.833   2.930 -0.2626 -0.4015 -0.1084
    8SOL     hw   31   1.133   1.909   2.854 -0.6299 -1.1584 -0.3588
    8SOL     vw   32   1.214   1.904   2.886 -0.7719 -0.4346  0.1346
    9SOL     ow   33   1.094   0.117   0.168  0.0936 -0.0998  0.2047
    9SOL     hw   34   1.138   0.143   0.249  1.7620 -2.2826  0.0973
    9SOL     hw   35   1.015   0.171   0.165  0.2629  0.4496  2.9821
    9SOL     vw   36   1.090   0.128   0.178  0.3361 -0.3153  0.5569
   10SOL     ow   37   0.756   2.254   6.145 -0.6744  0.1916  0.5714
   10SOL     hw   38   0.822   2.318   6.171  0.9502 -0.5253 -1.5227
   10SOL     hw   39   0.791   2.214   6.066 -2.7562 -1.6109  0.4667
   10SOL     vw   40   0.769   2.257   6.138 -0.7347 -0.1409  0.2813
   11SOL     ow   41   2.135   1.635   5.223  0.1220 -0.4669  0.1704
   11SOL     hw   42   2.178   1.561   5.181 -0.7756 -1.2805  0.6308
   11SOL     hw   43   2.204   1.700   5.234  0.8726 -1.1360 -0.4794
   11SOL     vw   44   2.150   1.634   5.219  0.1026 -0.6625  0.1457
   12SOL     ow   45   1.243   1.154   4.141 -0.1070 -0.1922 -0.1569
   12SOL     hw   46   1.330   1.114   4.140 -0.0443 -0.0509 -0.5455
   12SOL     hw   47   1.217   1.153   4.233  1.0128  1.3090  0.2133
   12SOL     vw   48   1.251   1.148   4.153  0.0491  0.0245 -0.1595
   13SOL     ow   49   2.150   0.479   3.879  0.0364 -0.2735 -0.0619
   13SOL     hw   50   2.180   0.390   3.862 -0.6553 -0.3738 -0.8006
   13SOL     hw   51   2.173   0.495   3.971  0.5705 -1.0426 -0.0522
   13SOL     vw   52   2.157   0.470   3.889  0.0156 -0.3882 -0.1580
   14SOL     ow   53   1.556   0.439   5.043 -0.5381 -0.0234  0.2329
   14SOL     hw   54   1.623   0.373   5.025 -0.2170  0.2911  0.2644
   14SOL     hw   55   1.568   0.461   5.135 -0.2945  0.4620  0.0903
   14SOL     vw   56   1.567   0.433   5.052 -0.4636  0.0821  0.2179
   15SOL     ow   57   2.184   2.051   4.801  0.1590  0.5325  0.3746
   15SOL     hw   58   2.186   1.955   4.800  2.6480  0.5109 -1.3404
   15SOL     hw   59   2.264   2.076   4.847 -1.5843  1.9009  2.9238
   15SOL     vw   60   2.195   2.041   4.807  0.2575  0.7104  0.4847
   16SOL     ow   61   2.226   1.078   2.164 -0.5290 -0.1294 -0.1697
   16SOL     hw   62   2.138   1.065   2.200 -0.2697 -2.2772 -0.1859
   16SOL     hw   63   2.216   1.062   2.070 -0.1316 -0.2469 -0.1932
   16SOL     vw   64   2.213   1.075   2.156 -0.4424 -0.4283 -0.1749
   17SOL     ow   65   0.160   1.207   0.505 -0.2489 -0.7324  0.3737
   17SOL     hw   66   0.236   1.151   0.489  0.2577  0.7079 -3.3151
   17SOL     hw   67   0.196   1.287   0.544 -0.3086 -1.0821  1.1709
   17SOL     vw   68   0.175   1.210   0.508 -0.1899 -0.5885 -0.0078
   18SOL     ow   69   0.310   1.782   2.141 -0.3902  0.6881  0.0141
   18SOL     hw   70   0.228   1.755   2.099  0.5415 -1.9449 -0.2734
   18SOL     hw   71   0.309   1.740   2.227  0.4649  1.0200  0.2043
   18SOL     vw   72   0.299   1.773   2.147 -0.1544  0.3846  0.0013
   19SOL     ow   73   0.402   2.037   2.384 -0.4269  0.5152  0.4279
   19SOL     hw   74   0.325   2.049   2.439 -0.9324 -1.5934  0.2731
   19SOL     hw   75   0.473   2.078   2.433 -1.4712  1.7342  0.9833
   19SOL     vw   76   0.401   2.044   2.398 -0.6314  0.3978  0.4808
   20SOL     ow   77   1.521   0.301   1.179  0.0887 -0.0989 -0.2507
   20SOL     hw   78   1.430   0.275   1.194  0.3403  0.0232  1.9372
   20SOL     hw   79   1.549   0.336   1.264  2.2088 -0.2454 -0.8462
   20SOL     vw   80   1.513   0.302   1.192  0.4016 -0.1021 -0.0407
   21SOL     ow   81   1.316   2.197   2.853  0.2606 -0.3195  0.0272
   21SOL     hw   82   1.273   2.199   2.939  0.4888  0.4093  0.1351
   21SOL     hw   83   1.269   2.263   2.802  1.0957  0.3225  0.0753
   21SOL     vw   84   1.304   2.206   2.858  0.4008 -0.1386  0.0478
   22SOL     ow   85   2.080   1.576   3.894  0.0824 -0.4858  0.5034
   22SOL     hw   86   2.051   1.503   3.949  0.1586 -1.6118 -0.9057
   22SOL     hw   87   2.171   1.555   3.871 -0.3918 -0.7966 -1.2231
   22SOL     vw   88   2.088   1.564   3.898  0.0298 -0.6753  0.0898
   23SOL     ow   89   1.467   0.983   4.489 -0.0006 -0.2906  0.5835
   23SOL     hw   90   1.389   1.030   4.517 -1.0380 -0.5773 -1.5883
   23SOL     hw   91   1.440   0.891   4.486  0.7231 -0.5166  0.7169
   23SOL     vw   92   1.453   0.977   4.492 -0.0420 -0.3583  0.3142
   24SOL     ow   93   0.117   0.363   5.772  0.4834 -0.1366 -0.8361
   24SOL     hw   94   0.086   0.281   5.809 -2.6327  0.0834 -2.5931
   24SOL     hw   95   0.136   0.418   5.848 -1.8331 -0.9953  0.4681
   24SOL     vw   96   0.115   0.360   5.787 -0.2333 -0.2209 -0.8960
   25SOL     ow   97   1.246   2.322   5.614 -0.3403 -0.1854  0.1605
   25SOL     hw   98   1.209   2.237   5.637  1.4544 -0.9825  0.2857
   25SOL     hw   99   1.186   2.386   5.651 -1.5836 -1.4022  0.3044
   25SOL     vw  100   1.234   2.319   5.622 -0.2676 -0.4510  0.1960
   26SOL     ow  101   2.345   1.502   3.833  0.1116 -0.2439 -0.1253
   26SOL     hw  102   2.380   1.448   3.905  0.8065  1.0538  0.5368
   26SOL     hw  103   2.422   1.532   3.785 -0.2829 -0.0518 -0.6568
   26SOL     vw  104   2.360   1.498   3.836  0.1512 -0.0473 -0.1081
   27SOL     ow  105   1.512   1.760   5.626 -0.3507  0.4966 -0.5726
   27SOL     hw  106   1.546   1.671   5.624 -0.1288  0.5992 -1.7326
   27SOL     hw  107   1.451   1.760   5.700 -0.8633 -0.7987 -0.9666
   27SOL     vw  108   1.508   1.748   5.636 -0.3890  0.3393 -0.7777
   28SOL     ow  109   1.160   0.558   3.245  0.0234 -0.1679 -0.0867
   28SOL     hw  110   1.090   0.613   3.280  1.2163  1.2347  0.1853
   28SOL     hw  111   1.125   0.522   3.164 -0.4971  1.7360 -0.7542
   28SOL     vw  112   1.146   0.560   3.239  0.1121  0.2683 -0.1389
   29SOL     ow  113   0.186   0.433   6.019 -0.5727  0.4399  0.4276
   29SOL     hw  114   0.119   0.372   6.050 -0.8622  1.5125  2.0147
   29SOL     hw  115   0.168   0.514   6.066 -0.4993  1.9354 -1.9898
   29SOL     vw  116   0.175   0.435   6.030 -0.6012  0.7787  0.3183
   30SOL     ow  117   2.152   0.687   5.189  0.1053  0.1396  0.3252
   30SOL     hw  118   2.067   0.721   5.217  0.1651  0.2029  0.4329
   30SOL     hw  119   2.203   0.766   5.169  1.2219  0.3345  3.3399
   30SOL     vw  120   2.147   0.702   5.190  0.2605  0.1737  0.7370
   31SOL     ow  121   1.400   1.046   6.173  0.3361  0.1919  0.1445
   31SOL     hw  122   1.317   1.052   6.126 -0.0873 -0.8143  0.7409
   31SOL     hw  123   1.439   0.963   6.143  2.0144  1.4934 -1.5163
   31SOL     vw  124   1.394   1.036   6.163  0.5017  0.2308  0.0041
   32SOL     ow  125   0.772   0.774   1.388 -0.6562 -0.8331  0.0703
   32SOL     hw  126   0.729   0.767   1.473 -0.0269 -1.8405  0.3242
   32SOL     hw  127   0.759   0.865   1.362 -1.0555 -0.5715  1.1370
   32SOL     vw  128   0.765   0.785   1.396 -0.6259 -0.9315  0.2445
   33SOL     ow  129   1.175   1.129   3.817  0.2350 -0.0796  0.5730
   33SOL     hw  130   1.221   1.143   3.734  2.0394 -0.3717  1.4613
   33SOL     hw  131   1.171   1.033   3.826  1.6301 -0.0731  1.5985
   33SOL     vw  132   1.181   1.118   3.807  0.6572 -0.1172  0.8254
   34SOL     ow  133   1.800   1.423   3.189 -0.4072  0.2401  0.5013
   34SOL     hw  134   1.789   1.450   3.098 -0.2130  0.9452  0.6818
   34SOL     hw  135   1.712   1.407   3.220 -0.3690 -2.4306 -0.5139
   34SOL     vw  136   1.787   1.425   3.181 -0.3765 -0.0193  0.3911
   35SOL     ow  137   2.292   1.200   3.717 -0.9668 -0.0299 -0.1320
   35SOL     hw  138   2.310   1.291   3.694 -2.1836  0.7513  1.7814
   35SOL     hw  139   2.293   1.198   3.813 -0.8036 -2.0821 -0.1268
   35SOL     vw  140   2.294   1.212   3.726 -1.1058 -0.1976  0.1211
   36SOL     ow  141   2.007   0.414   2.842  0.0849  0.0496 -0.5027
   36SOL     hw  142   1.934   0.468   2.810 -0.7545 -0.4800  0.4552
   36SOL     hw  143   1.967   0.330   2.864  0.2755  0.7103  3.0311
   36SOL     vw  144   1.992   0.410   2.841 -0.0007  0.0669  0.0899
   37SOL     ow  145   0.458   0.594   0.631 -0.1516 -0.0757  0.7590
   37SOL     hw  146   0.404   0.530   0.678 -0.2157  0.1892  1.0469
   37SOL     hw  147   0.542   0.551   0.618 -1.1978 -1.5496 -2.0140
   37SOL     vw  148   0.462   0.580   0.635 -0.2981 -0.2353  0.4312
   38SOL     ow  149   1.908   1.996   6.537  0.0535 -0.2051  0.1047
   38SOL     hw  150   1.845   1.995   6.608 -0.0063  0.6108  0.0760
   38SOL     hw  151   1.956   1.914   6.546  2.0140  1.0873  2.8636
   38SOL     vw  152   1.906   1.985   6.547  0.3042  0.0731  0.4649
   39SOL     ow  153   0.280   2.061   6.380 -0.0390  0.4231  0.3525
   39SOL     hw  154   0.323   2.026   6.458 -1.9589  1.8058  2.1641
   39SOL     hw  155   0.189   2.031   6.388 -1.0832  3.3303  0.5417
   39SOL     vw  156   0.273   2.052   6.392 -0.4301  0.9891  0.6166
   40SOL     ow  157   2.341   1.287   2.412 -0.8403 -0.6016  0.0556
   40SOL     hw  158   2.399   1.360   2.431 -1.4490 -0.2488  0.6080
   40SOL     hw  159   2.275   1.290   2.481 -1.0819 -1.4521 -0.1273
   40SOL     vw  160   2.340   1.297   2.423 -0.9525 -0.6673  0.1044
   41SOL     ow  161   1.529   2.035   2.735 -0.1410  0.0653 -1.1097
   41SOL     hw  162   1.588   1.963   2.712  1.4072  0.4275  1.3733
   41SOL     hw  163   1.561   2.110   2.685  0.2974 -0.1989 -1.2276
   41SOL     vw  164   1.541   2.035   2.725  0.1212  0.0782 -0.7975
   42SOL     ow  165   0.763   1.465   0.527 -0.2009 -0.5490  0.3960
   42SOL     hw  166   0.743   1.546   0.480  2.6420  0.1033  0.0973
   42SOL     hw  167   0.747   1.396   0.463 -0.9206 -0.0848  0.0592
   42SOL     vw  168   0.759   1.467   0.513  0.0792 -0.4017  0.3121
   43SOL     ow  169   1.742   1.554   0.833 -0.6939 -0.5793  0.3439
   43SOL     hw  170   1.697   1.493   0.891 -0.7869 -0.1987  0.6754
   43SOL     hw  171   1.828   1.515   0.819  0.4796  0.7091  3.1133
   43SOL     vw  172   1.748   1.541   0.839 -0.5513 -0.3591  0.7530
   44SOL     ow  173   1.401   1.067   1.380 -0.0181 -0.2553  0.4143
   44SOL     hw  174   1.406   1.124   1.304  0.1764 -0.0137  0.6081
   44SOL     hw  175   1.311   1.076   1.411  0.4096  1.1346  1.3554
   44SOL     vw  176   1.390   1.076   1.374  0.0640 -0.0401  0.5641
   45SOL     ow  177   0.453   2.208   5.290 -0.0660  0.6926  0.3761
   45SOL     hw  178   0.394   2.218   5.216  1.6130 -1.4437 -1.3954
   45SOL     hw  179   0.401   2.162   5.356 -1.5285  2.4544  0.5185
   45SOL     vw  180   0.438   2.203   5.289 -0.0374  0.6433  0.1612
   46SOL     ow  181   0.558   0.776   3.449  0.7400 -0.0138  0.3246
   46SOL     hw  182   0.550   0.685   3.420 -1.4078 -0.2060  1.3621
   46SOL     hw  183   0.641   0.805   3.411 -0.3721 -1.1564 -3.4345
   46SOL     vw  184   0.568   0.768   3.440  0.3099 -0.1899 -0.0346
   47SOL     ow  185   1.034   1.640   1.989  0.5725 -0.2010  0.3629
   47SOL     hw  186   0.979   1.615   2.063 -0.1335  0.4864  0.0870
   47SOL     hw  187   1.097   1.568   1.980  0.0861 -0.7234  1.0523
   47SOL     vw  188   1.035   1.627   1.998  0.4152 -0.1793  0.4175
   48SOL     ow  189   2.250   0.469   5.691 -0.0340 -0.4727  0.0622
   48SOL     hw  190   2.280   0.542   5.637  0.7997 -0.0280  1.0779
   48SOL     hw  191   2.330   0.434   5.730 -0.5074 -1.4553  0.1677
   48SOL     vw  192   2.264   0.474   5.689  0.0135 -0.5437  0.2100
   49SOL     ow  193   1.726   0.316   1.008 -0.4623  0.8297  0.2671
   49SOL     hw  194   1.728   0.225   0.979 -0.5468  0.3715  1.6140
   49SOL     hw  195   1.687   0.312   1.096 -0.3586  2.1510  0.3955
   49SOL     vw  196   1.721   0.303   1.016 -0.4598  0.9436  0.4618
   50SOL     ow  197   0.302   0.551   1.452  0.1665  0.5643  0.2126
   50SOL     hw  198   0.378   0.609   1.455  0.6782  0.3502 -3.4289
   50SOL     hw  199   0.256   0.577   1.372 -2.7601 -0.3665  1.4682
   50SOL     vw  200   0.306   0.562   1.442 -0.1521  0.4133 -0.1022
   51SOL     ow  201   1.650   1.300   1.703 -0.2761  0.7386  0.3335
   51SOL     hw  202   1.590   1.227   1.718 -0.8135  0.8933 -0.9400
   51SOL     hw  203   1.723   1.284   1.763  0.8274 -2.2229 -1.6076
   51SOL     vw  204   1.652   1.288   1.713 -0.2013  0.3682 -0.0906
   52SOL     ow  205   1.901   1.732   0.628  0.2814 -0.2777  0.0619
   52SOL     hw  206   1.950   1.813   0.613 -1.4305  1.3918  2.6916
   52SOL     hw  207   1.949   1.666   0.578  2.7187  2.0135 -0.8906
   52SOL     vw  208   1.914   1.734   0.619  0.3771  0.2449  0.2832
   53SOL     ow  209   0.610   0.991   4.910 -0.5319 -0.3180  0.0630
   53SOL     hw  210   0.611   1.010   5.004 -3.2711 -2.4469  0.6493
   53SOL     hw  211   0.606   0.895   4.905  0.0026 -0.2871 -2.2729
   53SOL     vw  212   0.610   0.981   4.922 -0.8228 -0.5947 -0.1678
   54SOL     ow  213   1.790   1.817   0.894  0.0447 -0.2204  0.0734
   54SOL     hw  214   1.844   1.890   0.924  1.0181 -1.0593  0.4222
   54SOL     hw  215   1.717   1.815   0.955  0.4877 -0.0962  0.6125
   54SOL     vw  216   1.787   1.827   0.906  0.2316 -0.3147  0.1905
   55SOL     ow  217   0.286   2.141   6.047 -0.7045  0.0452 -0.6636
   55SOL     hw  218   0.202   2.097   6.036 -0.3583  0.0689 -4.4514
   55SOL     hw  219   0.320   2.153   5.958  2.7252  1.2138  0.6176
   55SOL     vw  220   0.280   2.136   6.034 -0.2064  0.2025 -0.9942
   56SOL     ow  221   1.503   0.731   4.949 -0.0567  0.2642  0.1476
   56SOL     hw  222   1.569   0.758   5.013  0.6897  0.7286 -0.8084
   56SOL     hw  223   1.419   0.750   4.993  0.4108  3.0174  0.0363
   56SOL     vw  224   1.500   0.737   4.963  0.1035  0.6887  0.0069
   57SOL     ow  225   2.081   1.839   3.902 -0.1529  0.2701 -0.5420
   57SOL     hw  226   2.147   1.864   3.837 -0.0235  2.0054  0.2077
   57SOL     hw  227   2.063   1.747   3.883 -0.3580  0.7896 -3.2398
   57SOL     vw  228   2.088   1.830   3.891 -0.1630  0.5676 -0.7991
   58SOL     ow  229   1.408   1.499   6.321  0.2388  0.6950  0.1068
   58SOL     hw  230   1.473   1.567   6.307  0.1897  0.6853 -0.1777
   58SOL     hw  231   1.458   1.418   6.323  0.0174  0.3895 -2.7061
   58SOL     vw  232   1.423   1.497   6.319  0.2032  0.6534 -0.3018
   59SOL     ow  233   1.348   2.261   5.328 -0.1407 -0.8413  0.3881
   59SOL     hw  234   1.321   2.279   5.237 -0.5405  2.1415  0.9910
   59SOL     hw  235   1.437   2.226   5.320 -0.2166 -0.7589 -1.1719
   59SOL     vw  236   1.356   2.259   5.315 -0.2035 -0.4368  0.2618
   60SOL     ow  237   1.591   2.115   3.221  0.3739  1.0748 -0.2126
   60SOL     hw  238   1.581   2.167   3.141 -1.2550 -2.2474 -2.3811
   60SOL     hw  239   1.510   2.129   3.269  0.2438  1.0896 -0.4349
   60SOL     vw  240   1.579   2.124   3.216  0.1418  0.6386 -0.5281
   61SOL     ow  241   1.720   0.519   0.718 -0.0851 -0.2104  0.7649
   61SOL     hw  242   1.779   0.575   0.669 -0.3244 -1.4955 -1.0754
   61SOL     hw  243   1.651   0.578   0.749  0.2309  0.6863 -0.1852
   61SOL     vw  244   1.719   0.534   0.716 -0.0750 -0.2616  0.3968
   62SOL     ow  245   0.494   2.239   6.278 -0.4027 -0.2267 -0.4699
   62SOL     hw  246   0.517   2.280   6.361 -2.4223  0.8036 -0.3694
   62SOL     hw  247   0.577   2.234   6.230  0.3946  1.3355  0.6744
   62SOL     vw  248   0.508   2.244   6.283 -0.5639  0.1153 -0.3059
   63SOL     ow  249   2.102   0.524   1.906 -0.2208  0.3706 -0.5392
   63SOL     hw  250   2.101   0.613   1.872  0.4913  0.4062 -0.4734
   63SOL     hw  251   2.072   0.470   1.832 -1.2529  0.7099 -0.3896
   63SOL     vw  252   2.098   0.528   1.891 -0.2630  0.4201 -0.5109
   64SOL     ow  253   0.787   1.625   6.035  0.3959  0.4165 -0.0856
   64SOL     hw  254   0.816   1.700   5.983 -0.8947  2.1826  1.5579
   64SOL     hw  255   0.863   1.567   6.039  1.2941  1.4084 -1.8028
   64SOL     vw  256   0.801   1.628   6.029  0.3442  0.7803 -0.0954
   65SOL     ow  257   0.674   1.621   4.633  0.2629 -0.1977 -0.3225
   65SOL     hw  258   0.616   1.698   4.624  2.6830  1.9000  0.8666
   65SOL     hw  259   0.696   1.618   4.725  1.7012 -1.2187 -0.6720
   65SOL     vw  260   0.669   1.631   4.644  0.7719 -0.0556 -0.2117
   66SOL     ow  261   1.599   0.947   4.766 -0.1919 -0.6419  0.6508
   66SOL     hw  262   1.545   0.876   4.803  0.6998 -0.9452  1.4105
   66SOL     hw  263   1.536   1.013   4.739 -1.0087 -1.4412  0.5473
   66SOL     vw  264   1.584   0.946   4.767 -0.1820 -0.7874  0.7374
   67SOL     ow  265   1.689   1.257   1.407  0.8628  0.2858  0.7337
   67SOL     hw  266   1.660   1.208   1.329  1.8372 -0.2383  0.6830
   67SOL     hw  267   1.764   1.308   1.377 -0.4424  2.2757  0.6592
   67SOL     vw  268   1.695   1.257   1.392  0.8191  0.4792  0.7171
   68SOL     ow  269   0.799   1.130   4.695  0.5712  0.0274 -0.6706
   68SOL     hw  270   0.864   1.172   4.751  1.4529  0.9294 -2.3070
   68SOL     hw  271   0.849   1.095   4.622 -0.5305 -1.2535 -0.8466
   68SOL     vw  272   0.814   1.131   4.693  0.5422 -0.0225 -0.9098
   69SOL     ow  273   1.409   0.722   5.719  0.0194  0.2504  0.2960
   69SOL     hw  274   1.481   0.698   5.660 -0.5271  1.5082 -0.9241
   69SOL     hw  275   1.350   0.646   5.717 -0.0576  0.3308 -0.8903
   69SOL     vw  276   1.411   0.709   5.711 -0.0628  0.4270 -0.0215
   70SOL     ow  277   2.115   1.326   3.181 -0.8587  0.1935  0.3567
   70SOL     hw  278   2.152   1.392   3.123 -0.6942  1.6181  1.9972
   70SOL     hw  279   2.186   1.264   3.195 -0.6658  0.2457 -0.3441
   70SOL     vw  280   2.129   1.326   3.175 -0.8113  0.3883  0.4807
   71SOL     ow  281   0.991   1.494   1.720  0.2410  0.2050 -0.2185
   71SOL     hw  282   1.045   1.414   1.721 -0.7563 -0.5361 -1.7633
   71SOL     hw  283   0.943   1.489   1.638  0.0454  2.3646 -0.2896
   71SOL     vw  284   0.992   1.483   1.709  0.0836  0.3921 -0.4317
   72SOL     ow  285   1.443   1.766   5.359 -0.2428 -0.0034  0.0682
   72SOL     hw  286   1.452   1.768   5.455 -0.2922 -0.1929  0.0772
   72SOL     hw  287   1.449   1.857   5.332 -1.6600  0.2093  0.3837
   72SOL     vw  288   1.445   1.778   5.368 -0.4362 -0.0004  0.1109
   73SOL     ow  289   1.070   1.535   0.705 -0.1254 -0.5239  0.0126
   73SOL     hw  290   1.161   1.538   0.732 -0.1482 -0.2668  0.0689
   73SOL     hw  291   1.060   1.611   0.647 -0.6977  0.3964  1.2724
   73SOL     vw  292   1.081   1.546   0.701 -0.2039 -0.3686  0.1863
   74SOL     ow  293   0.857   1.056   3.033  0.0485 -0.3495 -0.6140
   74SOL     hw  294   0.911   1.013   3.099 -1.1987 -0.4080  0.4045
   74SOL     hw  295   0.852   1.147   3.060  2.4863  0.4932 -2.6438
   74SOL     vw  296   0.863   1.062   3.045  0.2056 -0.2460 -0.7473
   75SOL     ow  297   1.587   2.129   5.356  0.8238  0.0109  0.1737
   75SOL     hw  298   1.658   2.097   5.300  0.4321 -3.5189  1.4629
   75SOL     hw  299   1.632   2.161   5.434  1.1552  1.9628 -0.7413
   75SOL     vw  300   1.603   2.129   5.359  0.8157 -0.1973  0.2229
   76SOL     ow  301   1.246   0.979   5.894 -0.2162 -0.0442 -0.4042
   76SOL     hw  302   1.173   1.030   5.860 -0.1673 -1.0678 -2.1907
   76SOL     hw  303   1.206   0.917   5.954 -0.5639  0.5793  0.0178
   76SOL     vw  304   1.231   0.977   5.897 -0.2556 -0.0970 -0.5841
   77SOL     ow  305   0.803   0.094   1.299 -0.2047 -0.5788  0.7845
   77SOL     hw  306   0.881   0.144   1.325 -0.0149 -1.2428  1.5260
   77SOL     hw  307   0.756   0.079   1.380 -1.4622  0.3524  0.2657
   77SOL     vw  308   0.807   0.099   1.313 -0.3456 -0.5436  0.8138
   78SOL     ow  309   1.412   1.331   1.527  0.3351 -0.4122 -0.1628
   78SOL     hw  310   1.338   1.343   1.467 -1.1328  0.0089  1.6244
   78SOL     hw  311   1.379   1.270   1.594  0.2553  2.3559  2.5932
   78SOL     vw  312   1.398   1.325   1.528  0.1309  0.0086  0.4366
   79SOL     ow  313   0.942   0.159   2.602  0.0493  0.0709 -0.2715
   79SOL     hw  314   1.037   0.149   2.615  0.1109 -1.1890 -1.5204
   79SOL     hw  315   0.906   0.071   2.618 -0.5390 -0.1769 -2.6181
   79SOL     vw  316   0.950   0.146   2.606 -0.0202 -0.1280 -0.7459
   80SOL     ow  317   0.021   0.518   5.028  0.1928 -0.4387  0.2192
   80SOL     hw  318  -0.036   0.536   4.953 -0.6370 -0.9051  0.7337
   80SOL     hw  319   0.096   0.577   5.015 -0.4625  0.2818 -0.3831
   80SOL     vw  320   0.023   0.528   5.016 -0.0032 -0.4052  0.2074
   81SOL     ow  321   1.939   0.537   5.770 -0.2020 -0.1315  0.1993
   81SOL     hw  322   1.879   0.495   5.832  0.5015  0.0093  0.9909
   81SOL     hw  323   1.933   0.631   5.791  0.3503 -0.1263  0.3312
   81SOL     vw  324   1.930   0.544   5.781 -0.0363 -0.1122  0.3211
   82SOL     ow  325   1.704   1.111   4.511 -0.6648  0.1983  0.8740
   82SOL     hw  326   1.617   1.091   4.476 -1.2646  2.7145  0.7364
   82SOL     hw  327   1.696   1.200   4.545  1.9852  0.6717  0.4460
   82SOL     vw  328   1.692   1.120   4.511 -0.3943  0.5927  0.7994
   83SOL     ow  329   1.262   2.239   0.097 -0.2706  0.2945  0.5993
   83SOL     hw  330   1.314   2.303   0.145 -0.9723  1.0005  0.4527
   83SOL     hw  331   1.232   2.177   0.164  0.6845 -0.0862  0.6922
   83SOL     vw  332   1.265   2.240   0.112 -0.2372  0.3374  0.5922
   84SOL     ow  333   0.135   0.179   0.176  0.3159  0.2464  0.0869
   84SOL     hw  334   0.082   0.202   0.100  1.3714 -1.6869 -1.3343
   84SOL     hw  335   0.224   0.206   0.153  1.2642 -3.2353 -0.8926
   84SOL     vw  336   0.140   0.186   0.163  0.5803 -0.4680 -0.2298
   85SOL     ow  337   2.154   0.369   2.174  0.2170  0.3339 -0.0837
   85SOL     hw  338   2.152   0.297   2.112  0.0812  2.4732 -2.7570
   85SOL     hw  339   2.247   0.384   2.191  0.2445 -0.4131  0.4851
   85SOL     vw  340   2.166   0.362   2.168  0.2029  0.5176 -0.3613
   86SOL     ow  341   1.570   1.849   1.026  0.1437 -0.2014  0.9169
   86SOL     hw  342   1.559   1.799   1.107 -0.5291 -0.9380  0.3916
   86SOL     hw  343   1.503   1.813   0.967  2.9528 -2.3744 -1.2660
   86SOL     vw  344   1.559   1.838   1.029  0.4256 -0.5853  0.5596
   87SOL     ow  345   0.727   0.937   2.773  0.0982 -0.2706 -0.1760
   87SOL     hw  346   0.750   0.985   2.693 -1.3619  0.9281  0.0700
   87SOL     hw  347   0.641   0.901   2.754  0.9260 -2.3718 -0.1277
   87SOL     vw  348   0.719   0.939   2.760  0.0148 -0.3896 -0.1371
   88SOL     ow  349   1.181   1.203   2.393  0.1144  0.2276 -0.6041
   88SOL     hw  350   1.206   1.268   2.327  2.5481  1.0267  0.9610
   88SOL     hw  351   1.159   1.255   2.471 -2.3485 -0.7091 -0.5700
   88SOL     vw  352   1.181   1.218   2.395  0.1105  0.2095 -0.3933
   89SOL     ow  353   0.349   0.931   3.520  0.1438 -0.1210  0.2521
   89SOL     hw  354   0.419   0.870   3.495 -0.6868 -1.7897  1.7472
   89SOL     hw  355   0.314   0.963   3.437 -0.3788 -2.9016 -0.7190
   89SOL     vw  356   0.354   0.927   3.506 -0.0347 -0.7081  0.3211
   90SOL     ow  357   1.300   1.686   2.982 -0.2481  0.1795 -0.3929
   90SOL     hw  358   1.371   1.631   2.949 -0.1531  0.6948 -1.0670
   90SOL     hw  359   1.256   1.632   3.048 -0.2151 -0.7391 -1.1065
   90SOL     vw  360   1.304   1.672   2.987 -0.2312  0.1264 -0.5761
   91SOL     ow  361   2.190   1.049   6.415  0.4843 -0.0249  0.4452
   91SOL     hw  362   2.264   1.002   6.376  0.8432  0.4179  0.5822
   91SOL     hw  363   2.123   0.982   6.427  1.6002 -0.8984  2.2647
   91SOL     vw  364   2.191   1.034   6.412  0.6789 -0.0817  0.7033
   92SOL     ow  365   0.236   1.247   0.196  0.1711 -0.3170 -0.0898
   92SOL     hw  366   0.315   1.198   0.174  0.4247 -0.4537  1.0906
   92SOL     hw  367   0.264   1.339   0.195 -0.3638 -0.0964 -2.5607
   92SOL     vw  368   0.250   1.253   0.193  0.1340 -0.3060 -0.2601
   93SOL     ow  369   0.712   1.708   4.347 -0.5193 -0.8749  0.3618
   93SOL     hw  370   0.781   1.730   4.285  0.2511  1.2057  1.8405
   93SOL     hw  371   0.662   1.639   4.303  2.2102 -2.2058 -0.9524
   93SOL     vw  372   0.715   1.702   4.333 -0.0575 -0.7760  0.3834
   94SOL     ow  373   1.257   2.071   2.608  0.1824 -1.0463 -0.0775
   94SOL     hw  374   1.162   2.066   2.602  0.1876 -1.3441  0.0222
   94SOL     hw  375   1.288   2.067   2.517  0.0830 -0.4764 -0.1357
   94SOL     vw  376   1.249   2.070   2.595  0.1700 -1.0103 -0.0720
   95SOL     ow  377   0.374   1.225   3.677 -0.7025  0.0988  0.0951
   95SOL     hw  378   0.418   1.295   3.725  0.6639 -0.2956 -0.4980
   95SOL     hw  379   0.302   1.268   3.632 -0.4740  0.9407  0.5057
   95SOL     vw  380   0.371   1.240   3.677 -0.4921  0.1579  0.0709
   96SOL     ow  381   1.344   0.823   1.201 -0.1058  0.6985  0.6376
   96SOL     hw  382   1.330   0.892   1.136  0.7725  0.1030 -0.2144
   96SOL     hw  383   1.267   0.767   1.193 -0.2531  0.9176  0.4900
   96SOL     vw  384   1.332   0.825   1.192 -0.0094  0.6489  0.5057
   97SOL     ow  385   0.265   0.334   1.705  0.9034 -0.0893  0.3563
   97SOL     hw  386   0.294   0.248   1.735  2.8114  0.5004  0.2909
   97SOL     hw  387   0.287   0.393   1.776 -1.5440  0.2200  0.9433
   97SOL     vw  388   0.271   0.330   1.718  0.8323  0.0293  0.4251
   98SOL     ow  389   1.085   2.313   4.199 -0.5513  0.3075 -0.0461
   98SOL     hw  390   1.063   2.224   4.170  0.3338 -0.0115  0.2269
   98SOL     hw  391   1.028   2.329   4.274 -0.5627 -0.1106  0.0341
   98SOL     vw  392   1.074   2.303   4.205 -0.4361  0.2102  0.0005
   99SOL     ow  393   1.295   2.317   3.975  1.1622 -0.3652 -0.6893
   99SOL     hw  394   1.258   2.230   3.966  1.0955 -0.2034 -2.2981
   99SOL     hw  395   1.281   2.359   3.889  1.1752  1.2273  0.0412
   99SOL     vw  396   1.289   2.311   3.962  1.1551 -0.1336 -0.8050
  100SOL     ow  397   2.035   0.151   2.642  0.1990 -0.6595  0.5780
  100SOL     hw  398   2.016   0.231   2.593  0.0795 -0.5369  0.8206
  100SOL     hw  399   1.972   0.152   2.714 -0.4621 -1.4825  0.0160
  100SOL     vw  400   2.024   0.162   2.645  0.0961 -0.7519  0.5360
  101SOL     ow  401   1.403   0.483   3.085  1.0281 -0.0575 -0.2686
  101SOL     hw  402   1.413   0.389   3.102  0.0944 -0.1539 -0.1920
  101SOL     hw  403   1.455   0.498   3.006  0.3037 -0.8701 -0.9259
  101SOL     vw  404   1.411   0.472   3.077  0.8094 -0.1774 -0.3453
  102SOL     ow  405   0.430   0.982   3.828 -0.0302  0.1007 -0.0724
  102SOL     hw  406   0.491   0.916   3.793 -0.0088 -0.6031  1.2326
  102SOL     hw  407   0.483   1.033   3.890 -0.8004 -0.7080  1.2979
  102SOL     vw  408   0.445   0.980   3.831 -0.1290 -0.0988  0.2805
  103SOL     ow  409   0.154   1.022   3.741  0.0534  0.2624 -0.0208
  103SOL     hw  410   0.090   1.077   3.697  1.5032  3.2120  1.2533
  103SOL     hw  411   0.144   1.042   3.834  1.5709 -0.5971  0.3750
  103SOL     vw  412   0.144   1.032   3.747  0.4449  0.5382  0.1994
  104SOL     ow  413   1.468   1.246   2.436 -0.0854  0.0953 -0.1681
  104SOL     hw  414   1.498   1.298   2.362 -0.1067 -0.2028 -0.3875
  104SOL     hw  415   1.524   1.272   2.509  1.4558 -1.2373 -0.8252
  104SOL     vw  416   1.479   1.256   2.436  0.1152 -0.1198 -0.2838
  105SOL     ow  417   0.469   0.485   6.165  0.1234  0.1556 -0.3602
  105SOL     hw  418   0.542   0.540   6.137  0.1350 -0.5468 -1.7935
  105SOL     hw  419   0.438   0.526   6.246 -0.3396  2.7040 -1.7257
  105SOL     vw  420   0.474   0.498   6.172  0.0639  0.3992 -0.7296
  106SOL     ow  421   1.765   1.973   3.430 -0.6760 -0.2690 -0.2345
  106SOL     hw  422   1.691   1.980   3.490 -0.0514 -1.9499  0.7866
  106SOL     hw  423   1.837   2.017   3.476 -0.5358 -0.3872 -0.3415
  106SOL     vw  424   1.765   1.980   3.444 -0.5751 -0.5064 -0.1140
  107SOL     ow  425   2.130   0.011   4.775  0.3515 -0.3795 -0.9417
  107SOL     hw  426   2.203   0.041   4.721 -0.0889  1.2032 -0.7372
  107SOL     hw  427   2.168  -0.002   4.862  0.4368  0.2752 -0.8763
  107SOL     vw  428   2.144   0.014   4.779  0.3046 -0.0842 -0.9062
  108SOL     ow  429   2.227   1.412   1.346  0.5138 -0.1717  0.5535
  108SOL     hw  430   2.196   1.342   1.290  0.3764 -0.2546  0.7346
  108SOL     hw  431   2.232   1.374   1.433 -1.3091  0.5274  1.0119
  108SOL     vw  432   2.224   1.398   1.350  0.2551 -0.0905  0.6379
  109poe    c31  433   2.239   0.738   2.131  0.2854  0.4310  0.8476
  109poe     o2  434   2.117   0.672   2.155  0.4728 -0.2502 -0.0121
  109poe    c23  435   2.008   0.760   2.165  0.4261 -0.3976  0.8681
  109poe    c23  436   1.886   0.670   2.189 -0.0615 -0.0339 -0.1580
  109poe     o2  437   1.885   0.565   2.094 -0.6042 -0.2001  0.0278
  109poe    c23  438   1.782   0.472   2.116 -0.2302 -0.5211  0.4409
  109poe    c23  439   1.794   0.366   2.005  0.3988 -0.0934  0.0976
  109poe     o2  440   1.923   0.310   1.996  0.5751  0.3133  0.0943
  109poe    c23  441   1.929   0.172   1.967 -0.3960  0.3220 -0.1802
  109poe    c23  442   2.069   0.151   1.905 -0.1893  0.2678  0.2995
  109poe     o2  443   2.170   0.161   2.002  0.1739 -0.2328 -0.0217
  109poe    c31  444   2.306   0.131   1.979  0.1964  0.0517 -0.2671
  110poe    c31  445   2.211   0.720   2.935  0.0658 -0.4255  0.2596
  110poe     o2  446   2.237   0.586   2.971 -0.1733 -0.5535 -0.0451
  110poe    c23  447   2.356   0.588   3.046  0.0370  0.5081 -0.3823
  110poe    c23  448   2.399   0.441   3.028  0.2490  0.4573  0.4758
  110poe     o2  449   2.281   0.371   3.059 -0.0926  0.6382 -0.3869
  110poe    c23  450   2.302   0.232   3.060  0.1928  0.6828  0.3592
  110poe    c23  451   2.175   0.168   3.118  0.1106  0.2606 -0.2745
  110poe     o2  452   2.069   0.204   3.032  0.0970 -0.3404 -0.5133
  110poe    c23  453   1.939   0.163   3.069  0.1594 -0.3076 -0.2569
  110poe    c23  454   1.825   0.184   2.968 -0.0060  0.0443  0.0029
  110poe     o2  455   1.851   0.140   2.837 -0.0356 -0.1676  0.0682
  110poe    c31  456   1.729   0.096   2.781  0.1641 -0.3704 -0.2071
  111poe    c31  457   0.772   0.850   1.751 -0.2115 -0.2553 -0.5599
  111poe     o2  458   0.791   0.732   1.676 -0.3469 -0.2562 -0.5940
  111poe    c23  459   0.727   0.621   1.734 -0.2426 -0.2123 -0.3943
  111poe    c23  460   0.733   0.501   1.637 -0.5858 -0.5081 -0.0552
  111poe     o2  461   0.700   0.525   1.502  0.5134  0.3692 -0.1881
  111poe    c23  462   0.708   0.404   1.430 -0.0770 -0.1561  0.6092
  111poe    c23  463   0.606   0.420   1.316  0.3030  0.3352  0.3317
  111poe     o2  464   0.611   0.543   1.249 -0.5209  0.3962  0.3613
  111poe    c23  465   0.545   0.527   1.125  0.2985 -0.2166 -0.0078
  111poe    c23  466   0.540   0.664   1.056 -0.0978 -0.6507 -0.8499
  111poe     o2  467   0.655   0.737   1.094 -0.6802 -0.3357  0.3610
  111poe    c31  468   0.660   0.853   1.013 -0.1360  0.0505  0.9441
  112poe    c31  469   2.212   0.122   3.909 -0.5011  0.0407 -0.0495
  112poe     o2  470   2.237   0.237   3.832 -0.1305 -0.0932 -0.1331
  112poe    c23  471   2.364   0.229   3.771 -0.1205  0.1537 -0.1461
  112poe    c23  472   2.375   0.304   3.637  0.3408 -0.0384 -0.2179
  112poe     o2  473   2.339   0.440   3.654 -0.5029 -0.2663 -0.1400
  112poe    c23  474   2.365   0.521   3.541 -0.5716  0.3132  0.2574
  112poe    c23  475   2.367   0.670   3.578 -0.0233  0.5013 -0.5264
  112poe     o2  476   2.255   0.686   3.661  0.5558 -0.0697  0.3740
  112poe    c23  477   2.256   0.815   3.720 -0.4884  0.2339 -0.2567
  112poe    c23  478   2.155   0.832   3.835  0.2761 -0.1991  0.4820
  112poe     o2  479   2.040   0.767   3.788  0.1344  0.2461  0.2132
  112poe    c31  480   1.936   0.781   3.882  0.4522  0.4014  0.5446
  113poe    c31  481   2.072   1.807   2.324  0.4361 -0.3108  0.4753
  113poe     o2  482   2.106   1.724   2.216  0.6231 -0.3629  0.5730
  113poe    c23  483   2.152   1.601   2.268 -0.0922 -0.7919  0.2083
  113poe    c23  484   2.193   1.505   2.154 -0.8827 -0.4586 -0.3590
  113poe     o2  485   2.108   1.536   2.045 -0.2187  0.4962 -0.6165
  113poe    c23  486   1.992   1.457   2.045  0.2566 -0.2103 -0.1757
  113poe    c23  487   1.915   1.529   1.933 -0.0717  0.1094  0.2551
  113poe     o2  488   1.890   1.657   1.987 -0.0621  0.1701  0.1162
  113poe    c23  489   1.834   1.740   1.888  0.0307 -0.0953 -0.1624
  113poe    c23  490   1.822   1.877   1.959  0.4210  0.1777 -0.6134
  113poe     o2  491   1.952   1.894   2.010  0.6747  0.1323 -1.2281
  113poe    c31  492   1.954   2.027   2.057 -0.2482 -0.1224 -0.4069
  114poe    c31  493   1.152   1.371   1.322 -0.1034  0.2487  0.3866
  114poe     o2  494   1.186   1.269   1.414  0.2995  0.9763  1.0477
  114poe    c23  495   1.074   1.223   1.486 -0.1466  0.3054 -0.0591
  114poe    c23  496   1.039   1.084   1.429  0.4457  0.2967 -0.4107
  114poe     o2  497   1.130   0.990   1.482 -0.1681  0.1731  0.4398
  114poe    c23  498   1.081   0.858   1.474  0.1633  0.0808 -0.1102
  114poe    c23  499   1.175   0.758   1.545 -0.1745 -0.2993 -0.1965
  114poe     o2  500   1.302   0.758   1.485 -0.1276  0.4022 -0.1114
  114poe    c23  501   1.393   0.698   1.575  0.5056  0.9231 -0.3904
  114poe    c23  502   1.526   0.681   1.500  0.4781  0.1259 -0.2668
  114poe     o2  503   1.548   0.783   1.407 -0.0393  0.5448  0.0647
  114poe    c31  504   1.686   0.799   1.383  0.0921  0.0890  0.5094
  115poe    c31  505   1.577   0.689   0.979 -0.0991 -0.4338  0.8015
  115poe     o2  506   1.705   0.630   0.966 -0.0708 -0.3166  0.5376
  115poe    c23  507   1.809   0.693   1.036 -0.1144  0.7536 -0.3482
  115poe    c23  508   1.932   0.603   1.058 -0.3630  0.3622 -0.5527
  115poe     o2  509   1.960   0.527   0.942  0.3291  0.0197 -0.1635
  115poe    c23  510   2.072   0.444   0.965 -0.0711 -0.4825 -0.0328
  115poe    c23  511   2.062   0.356   0.839  0.1269 -0.3448 -0.1445
  115poe     o2  512   1.925   0.327   0.829  0.0759 -0.1998  0.1128
  115poe    c23  513   1.900   0.247   0.715 -0.7272  0.2529 -0.0397
  115poe    c23  514   1.758   0.186   0.717 -0.4569 -0.3823 -0.0546
  115poe     o2  515   1.740   0.110   0.835  0.3363 -0.2239  0.1785
  115poe    c31  516   1.775  -0.026   0.819 -0.5811 -0.4100 -0.3740
  116poe    c31  517   2.167   1.413   2.679  0.4153 -0.0379 -0.6693
  116poe     o2  518   2.141   1.338   2.562 -0.2814 -0.5773 -0.1757
  116poe    c23  519   2.058   1.229   2.597 -0.1115 -0.6339  0.0572
  116poe    c23  520   2.040   1.144   2.470  0.1665 -0.1734 -0.2958
  116poe     o2  521   2.154   1.078   2.420  0.1807 -0.2299 -0.1897
  116poe    c23  522   2.159   0.946   2.470  0.5729 -0.2353 -0.2377
  116poe    c23  523   2.302   0.894   2.491  0.5617  0.0115  0.4660
  116poe     o2  524   2.375   0.944   2.381 -0.0657  0.4453  0.2440
  116poe    c23  525   2.514   0.927   2.395 -0.1944 -0.6663  0.2500
  116poe    c23  526   2.573   0.987   2.266 -0.1350  0.1676  0.6619
  116poe     o2  527   2.525   1.119   2.255 -0.2758  0.0409 -0.2955
  116poe    c31  528   2.585   1.177   2.141 -0.8104  1.0991 -0.0532
  117poe    c31  529   0.779   0.148   3.516  0.1474 -0.0204  0.6054
  117poe     o2  530   0.819   0.112   3.647  0.0925  0.0258  0.6348
  117poe    c23  531   0.920   0.014   3.648 -0.4805 -0.5771  0.4827
  117poe    c23  532   0.975  -0.012   3.790  0.3386 -0.3490  0.2147
  117poe     o2  533   1.072   0.083   3.826  0.2375 -0.1630 -0.0016
  117poe    c23  534   1.019   0.191   3.899  0.7995  0.0213  0.1404
  117poe    c23  535   1.119   0.295   3.955  1.1270  0.1219 -0.6267
  117poe     o2  536   1.181   0.230   4.064 -0.8292  0.0135  0.4733
  117poe    c23  537   1.272   0.311   4.135 -0.0064 -0.3658 -0.1258
  117poe    c23  538   1.339   0.248   4.258 -0.2331 -0.4649 -0.0528
  117poe     o2  539   1.359   0.114   4.217  0.4028 -0.2989 -0.2936
  117poe    c31  540   1.446   0.050   4.308  0.2991 -0.2601 -0.1657
  118poe    c31  541   1.468   0.516   3.472 -0.0257  0.1933  0.0036
  118poe     o2  542   1.409   0.606   3.382 -0.4244 -0.1043 -0.0395
  118poe    c23  543   1.473   0.732   3.378 -0.4708 -0.0949 -0.7559
  118poe    c23  544   1.405   0.847   3.302  0.0808  0.8825  0.1901
  118poe     o2  545   1.374   0.785   3.179  0.3879  0.2251  0.4400
  118poe    c23  546   1.316   0.867   3.080  0.3616 -0.5499 -0.1930
  118poe    c23  547   1.321   0.803   2.940  0.3974  0.0304 -0.4603
  118poe     o2  548   1.213   0.713   2.934  0.0812  0.4322 -0.8579
  118poe    c23  549   1.246   0.609   2.844 -0.3039  0.5040 -1.0832
  118poe    c23  550   1.128   0.510   2.839 -0.1132  0.2258 -0.2523
  118poe     o2  551   1.085   0.458   2.963 -0.0557  0.2299 -0.2305
  118poe    c31  552   0.985   0.364   2.930  0.6116 -0.6809  0.3141
  119poe    c31  553   1.708   0.554   4.685  0.3764 -0.5918  0.8432
  119poe     o2  554   1.591   0.523   4.757 -0.4287  0.2742 -0.0533
  119poe    c23  555   1.547   0.399   4.710 -0.0764  0.2722 -0.3847
  119poe    c23  556   1.393   0.403   4.718 -0.0801  0.2379 -0.4392
  119poe     o2  557   1.367   0.448   4.849 -0.5048  0.3702 -0.5669
  119poe    c23  558   1.228   0.452   4.874 -0.3980  0.0153  0.1128
  119poe    c23  559   1.215   0.507   5.017  0.3425  0.0493  0.1725
  119poe     o2  560   1.253   0.643   5.021  0.4286  0.0148  0.5133
  119poe    c23  561   1.157   0.717   5.094 -0.1403  0.1543 -0.3674
  119poe    c23  562   1.182   0.866   5.065 -0.3396  0.2571 -0.0056
  119poe     o2  563   1.316   0.895   5.098 -0.3727  0.5141 -0.0957
  119poe    c31  564   1.361   1.028   5.103 -0.1497  0.4224  0.3838
  120poe    c31  565   1.591   2.109   5.726 -0.6414 -0.3137 -0.2200
  120poe     o2  566   1.596   2.221   5.640  0.0942  0.3540  0.6709
  120poe    c23  567   1.573   2.337   5.716  0.1577  0.7230  0.1345
  120poe    c23  568   1.578   2.473   5.645  0.0782  0.6307 -0.0492
  120poe     o2  569   1.486   2.478   5.538 -0.6857  0.2448  0.5807
  120poe    c23  570   1.467   2.612   5.499 -0.2085  0.2713  0.4281
  120poe    c23  571   1.360   2.613   5.388  0.0753  0.1541  0.1532
  120poe     o2  572   1.251   2.527   5.413  0.3272 -0.1946  0.0578
  120poe    c23  573   1.145   2.536   5.321  0.1512 -0.1527  0.2639
  120poe    c23  574   1.161   2.504   5.171  0.3905  0.0346  0.2484
  120poe     o2  575   1.153   2.364   5.157  0.6755  0.1420 -1.1800
  120poe    c31  576   1.060   2.317   5.062 -0.4797  0.5280 -0.2746
  121poe    c31  577   1.717   0.798   4.398 -1.4177  0.5885  0.2405
  121poe     o2  578   1.789   0.852   4.506 -0.4692 -0.7070  0.2697
  121poe    c23  579   1.922   0.805   4.516 -0.1247  0.0879 -0.4102
  121poe    c23  580   2.001   0.894   4.613 -0.6252  0.1545 -0.0591
  121poe     o2  581   1.896   0.947   4.691 -0.3793 -0.1644  0.4965
  121poe    c23  582   1.956   1.042   4.776 -0.2449  0.1916  0.0092
  121poe    c23  583   1.864   1.118   4.874 -0.8753 -0.7325  0.1443
  121poe     o2  584   1.783   1.203   4.796 -0.1201 -0.1522 -0.0220
  121poe    c23  585   1.679   1.249   4.879 -0.4205 -1.0584  0.1201
  121poe    c23  586   1.559   1.300   4.797  0.0240  0.1167  0.1825
  121poe     o2  587   1.491   1.191   4.740 -0.3525  0.1248  0.6130
  121poe    c31  588   1.363   1.239   4.708 -0.3600 -0.4226 -0.2045
  122poe    c31  589   1.308   1.920   6.557 -0.2360 -0.6122  0.2759
  122poe     o2  590   1.293   1.784   6.521 -0.2054 -0.5011 -0.1631
  122poe    c23  591   1.223   1.724   6.627 -0.2818 -0.6082 -0.2749
  122poe    c23  592   1.219   1.570   6.641 -0.1965 -0.5524  0.4107
  122poe     o2  593   1.140   1.519   6.537  0.2540  0.0853 -0.2599
  122poe    c23  594   1.123   1.379   6.531  0.0237  0.1115 -0.2514
  122poe    c23  595   1.043   1.330   6.409  0.1107 -0.3112 -0.1410
  122poe     o2  596   1.122   1.352   6.294  0.5113  0.4920  0.2816
  122poe    c23  597   1.069   1.280   6.185  0.4478  0.0260  0.6206
  122poe    c23  598   1.174   1.313   6.077 -0.1032  0.0711  0.0975
  122poe     o2  599   1.222   1.443   6.102 -0.3158  0.0985  0.3727
  122poe    c31  600   1.313   1.483   6.002 -0.3636  0.1788  0.3611
  123poe    c31  601   0.815   1.773   6.374  0.0890  0.0609  0.0658
  123poe     o2  602   0.753   1.808   6.253  0.3021  0.3783  0.0472
  123poe    c23  603   0.667   1.919   6.271 -0.4655 -0.3868  1.1923
  123poe    c23  604   0.556   1.928   6.166  0.6255 -0.6662 -0.0114
  123poe     o2  605   0.524   1.799   6.121 -0.8216 -0.2352 -0.2876
  123poe    c23  606   0.409   1.805   6.040 -0.4199  0.1436 -0.8325
  123poe    c23  607   0.413   1.673   5.960 -0.0677 -0.0010 -0.5790
  123poe     o2  608   0.405   1.566   6.051 -0.2370  0.2542 -0.2905
  123poe    c23  609   0.420   1.442   5.986 -0.1756 -0.1194  0.4268
  123poe    c23  610   0.417   1.318   6.078 -0.0546 -0.1820  0.3488
  123poe     o2  611   0.528   1.310   6.164 -0.0037 -0.2212  0.2785
  123poe    c31  612   0.503   1.199   6.246 -0.6411  0.0556  0.4601
  124poe    c31  613   1.869   1.112   3.162  0.6222 -0.3047  0.0199
  124poe     o2  614   1.915   1.185   3.273  0.1395 -0.6409  0.4439
  124poe    c23  615   1.872   1.136   3.398 -0.2996 -0.2748  0.4385
  124poe    c23  616   1.938   1.222   3.507 -0.3141 -0.0716  0.2876
  124poe     o2  617   1.941   1.357   3.464  0.5860 -0.2717 -0.2833
  124poe    c23  618   2.021   1.440   3.545  0.3639 -0.0718 -0.2687
  124poe    c23  619   2.019   1.582   3.486 -0.1052 -0.1282 -0.3891
  124poe     o2  620   2.062   1.566   3.352 -0.4268 -0.6514 -0.4323
  124poe    c23  621   2.188   1.615   3.313 -0.5206 -0.6103 -0.6804
  124poe    c23  622   2.195   1.672   3.170 -0.1866 -0.2952 -0.5399
  124poe     o2  623   2.180   1.577   3.066 -0.8587 -0.2524 -0.4851
  124poe    c31  624   2.258   1.621   2.957 -0.1833  0.2072  0.1737
  125poe    c31  625   0.853   1.376   4.319  0.8072 -0.7380 -0.1796
  125poe     o2  626   0.896   1.461   4.423  0.0951  0.2708 -0.7012
  125poe    c23  627   1.031   1.496   4.441  0.0814  0.2129 -0.4879
  125poe    c23  628   1.042   1.584   4.568  0.0986 -0.6705  0.1312
  125poe     o2  629   0.972   1.704   4.542 -0.0194 -0.6589  0.4999
  125poe    c23  630   0.998   1.806   4.635 -0.3142 -0.2008  0.0810
  125poe    c23  631   0.901   1.920   4.600  0.0864  0.2267  0.3449
  125poe     o2  632   0.771   1.865   4.601  0.0869  0.2199 -0.0116
  125poe    c23  633   0.676   1.962   4.563  0.1584  0.0965 -0.5194
  125poe    c23  634   0.536   1.940   4.625  0.5098  0.1246  0.2998
  125poe     o2  635   0.499   1.805   4.608  0.1778  0.2550 -0.0396
  125poe    c31  636   0.373   1.780   4.665 -0.1717  0.8644 -0.5406
  126poe    c31  637   1.688   2.198   3.662  0.0898  0.4556 -0.4213
  126poe     o2  638   1.621   2.090   3.603 -0.2310  0.3570  0.1170
  126poe    c23  639   1.480   2.104   3.604 -0.2344  0.4290 -0.6906
  126poe    c23  640   1.427   1.970   3.549 -0.4832  0.1894  0.1191
  126poe     o2  641   1.479   1.948   3.419 -0.5601  0.2667  0.0751
  126poe    c23  642   1.479   1.811   3.387 -0.7443  0.3731 -0.3847
  126poe    c23  643   1.489   1.791   3.235  0.0064  0.1374 -0.3062
  126poe     o2  644   1.623   1.816   3.200  0.0743 -0.0727 -0.2024
  126poe    c23  645   1.634   1.807   3.059 -0.0822  0.2038 -0.2345
  126poe    c23  646   1.781   1.831   3.019  0.0521  0.0065  0.1301
  126poe     o2  647   1.830   1.948   3.080  0.0698  0.2522 -0.3534
  126poe    c31  648   1.971   1.942   3.088  0.1069  0.4699 -0.8256
  127poe    c31  649   1.146   0.653   5.951  0.1527 -0.7121  0.3218
  127poe     o2  650   1.202   0.766   6.013  0.1299 -0.5276  0.0089
  127poe    c23  651   1.278   0.721   6.123 -0.0008 -0.3709  0.1626
  127poe    c23  652   1.428   0.703   6.094 -0.1524 -0.3315 -0.6615
  127poe     o2  653   1.475   0.834   6.071 -0.1221 -0.1438  0.4150
  127poe    c23  654   1.595   0.833   5.996 -0.3137 -0.6863  0.1111
  127poe    c23  655   1.643   0.948   5.905 -0.4800 -0.4739  0.2887
  127poe     o2  656   1.556   0.960   5.794 -0.0744 -0.2599 -0.0065
  127poe    c23  657   1.571   1.082   5.726  0.3066 -0.0678  0.4174
  127poe    c23  658   1.494   1.074   5.592  0.4835  0.0888  0.3049
  127poe     o2  659   1.378   1.000   5.620  0.5387 -0.1389 -0.0673
  127poe    c31  660   1.285   0.987   5.514 -0.1686  0.2292  0.4926
  128poe    c31  661   0.515   0.177   6.258 -0.4322  0.1093 -0.0063
  128poe     o2  662   0.442   0.198   6.140  0.2159  0.6899 -0.3087
  128poe    c23  663   0.502   0.119   6.040 -0.2093  0.0652 -0.0734
  128poe    c23  664   0.453   0.168   5.903  0.1443  0.1383 -0.1763
  128poe     o2  665   0.460   0.308   5.897 -0.2039  0.1649  0.0120
  128poe    c23  666   0.460   0.357   5.764  0.5762 -0.1345 -0.1014
  128poe    c23  667   0.494   0.506   5.779  0.1950 -0.1191  0.6577
  128poe     o2  668   0.408   0.567   5.873 -0.0089  0.2449  0.2422
  128poe    c23  669   0.427   0.705   5.895 -0.1205  0.2138  0.5432
  128poe    c23  670   0.563   0.752   5.951  0.2696  0.0093 -0.2209
  128poe     o2  671   0.597   0.696   6.076 -0.0877  0.1430 -0.0617
  128poe    c31  672   0.710   0.765   6.124  0.0695 -0.1286 -0.0405
  129poe    c31  673   0.782   0.586   0.683 -0.6025  0.8260  0.2655
  129poe     o2  674   0.693   0.517   0.598  0.4135  0.4590 -0.5200
  129poe    c23  675   0.721   0.540   0.462  0.2751 -0.0872 -0.6417
  129poe    c23  676   0.623   0.474   0.363 -0.2787 -0.1919 -0.0289
  129poe     o2  677   0.502   0.542   0.340  0.1094  0.4988 -0.0448
  129poe    c23  678   0.433   0.484   0.232  0.1668 -0.0690  0.2208
  129poe    c23  679   0.290   0.540   0.230  0.0958 -0.2560 -0.1765
  129poe     o2  680   0.261   0.560   0.367 -0.3513 -0.6135 -0.2167
  129poe    c23  681   0.129   0.607   0.384  0.0479  0.4753 -0.0402
  129poe    c23  682   0.117   0.668   0.525 -0.0268 -0.2501  0.2691
  129poe     o2  683   0.229   0.752   0.541 -0.1174 -0.0800  0.0025
  129poe    c31  684   0.193   0.826   0.655 -0.1973  0.1356 -0.1609
  130poe    c31  685   1.570   1.407   5.240 -0.5617 -0.7474  0.5215
  130poe     o2  686   1.457   1.473   5.292 -0.5277  0.1656 -0.5395
  130poe    c23  687   1.420   1.395   5.403  0.3935  0.9501  0.3401
  130poe    c23  688   1.275   1.432   5.440  0.0178  0.5172 -0.6491
  130poe     o2  689   1.246   1.570   5.447  0.1466  0.5090  0.2207
  130poe    c23  690   1.108   1.584   5.471  0.0363  0.1562 -0.1984
  130poe    c23  691   1.070   1.731   5.450 -0.6362 -0.0721 -0.6172
  130poe     o2  692   1.133   1.785   5.336 -0.1168  0.4482 -0.0969
  130poe    c23  693   1.115   1.924   5.327 -0.6504  0.3820 -0.1129
  130poe    c23  694   1.186   1.979   5.201  0.2965  0.1150  0.2929
  130poe     o2  695   1.321   1.940   5.195  0.2164 -0.1776  0.3844
  130poe    c31  696   1.385   2.024   5.102 -0.3222 -0.0322  0.1428
  131poe    c31  697   0.195   2.320   3.132  0.3124 -0.0054  0.5581
  131poe     o2  698   0.259   2.205   3.080  0.0290  0.2620 -0.4045
  131poe    c23  699   0.193   2.081   3.098  0.2809  0.2387  0.4058
  131poe    c23  700   0.205   2.005   3.231 -0.5771 -0.8908 -0.1509
  131poe     o2  701   0.323   1.928   3.237  0.0254  0.0884  0.7565
  131poe    c23  702   0.307   1.813   3.317 -0.0283 -0.2576  0.2542
  131poe    c23  703   0.433   1.810   3.406  0.0820 -0.0804  0.1054
  131poe     o2  704   0.544   1.846   3.327 -0.0216 -0.4679 -0.2267
  131poe    c23  705   0.660   1.822   3.404  0.1149  0.7212 -0.0338
  131poe    c23  706   0.781   1.908   3.364  0.0740  0.6389 -0.3332
  131poe     o2  707   0.848   1.844   3.257  0.1028  0.0198  0.0512
  131poe    c31  708   0.986   1.874   3.254  0.0261  0.3511 -0.2424
  132poe    c31  709   0.962   1.175   0.627 -0.2521  0.2598 -0.4518
  132poe     o2  710   0.915   1.291   0.693  0.0380 -0.0635  0.3421
  132poe    c23  711   0.892   1.266   0.829 -0.1071  0.1949  0.3664
  132poe    c23  712   0.778   1.355   0.884 -0.3000 -0.1200  0.4806
  132poe     o2  713   0.812   1.486   0.844 -0.4395 -0.0178  0.7014
  132poe    c23  714   0.725   1.588   0.890 -0.8132  0.0077 -0.0555
  132poe    c23  715   0.785   1.721   0.842  0.5791 -0.6780 -0.2777
  132poe     o2  716   0.816   1.694   0.707  0.0399  0.1930 -0.5861
  132poe    c23  717   0.886   1.800   0.648  0.2671  0.3290 -0.0814
  132poe    c23  718   0.913   1.757   0.502 -0.2806 -0.0657 -0.0690
  132poe     o2  719   1.017   1.663   0.512 -0.6221 -0.4166  0.2397
  132poe    c31  720   1.032   1.579   0.399 -0.3412 -1.1651  0.8269
  133poe    c31  721   0.095   0.701   5.640 -0.4203 -0.7579  0.2984
  133poe     o2  722   0.028   0.616   5.549 -0.1777 -0.6153 -0.0178
  133poe    c23  723   0.107   0.570   5.442 -0.1218  0.0093 -0.2485
  133poe    c23  724   0.056   0.432   5.396 -0.1157  0.1876 -0.7999
  133poe     o2  725  -0.062   0.449   5.321 -0.1667  0.0341 -0.7552
  133poe    c23  726  -0.120   0.322   5.304 -0.2315 -0.0567  0.0991
  133poe    c23  727  -0.261   0.334   5.244 -0.3847  0.2218  0.5074
  133poe     o2  728  -0.250   0.407   5.124  0.2161 -0.0815  0.3728
  133poe    c23  729  -0.279   0.333   5.008  0.3219  0.8153 -0.2379
  133poe    c23  730  -0.295   0.432   4.890 -0.0970  0.0907 -0.8001
  133poe     o2  731  -0.181   0.515   4.883  0.2000 -0.2089  0.2607
  133poe    c31  732  -0.150   0.538   4.748 -0.2888 -0.2254  0.1422
  134poe    c31  733   2.103   2.200   4.456 -0.0547  0.2056  0.3104
  134poe     o2  734   2.052   2.117   4.558  0.4050  0.0082  0.3821
  134poe    c23  735   2.001   1.998   4.501 -0.1180  0.2721  0.2926
  134poe    c23  736   1.957   1.902   4.613 -0.5964 -0.3831 -0.4521
  134poe     o2  737   2.076   1.838   4.654 -0.2760  0.2138 -0.4393
  134poe    c23  738   2.053   1.742   4.754  0.4984  0.0669 -0.4029
  134poe    c23  739   2.173   1.693   4.838  0.5609  0.0757 -0.4870
  134poe     o2  740   2.241   1.794   4.910  0.1065  0.4613 -0.5958
  134poe    c23  741   2.364   1.776   4.976 -0.0741 -0.4473 -0.4909
  134poe    c23  742   2.370   1.901   5.067 -0.4877 -0.3327 -0.6150
  134poe     o2  743   2.287   1.866   5.175 -0.3588 -0.4893 -0.5657
  134poe    c31  744   2.259   1.977   5.257  0.3212 -0.6874 -0.0581
  135poe    c31  745   1.916   1.515   0.411  0.7242 -0.0610 -0.3767
  135poe     o2  746   2.008   1.548   0.512 -0.2613  0.5472  0.3361
  135poe    c23  747   2.049   1.431   0.580 -0.6864  0.6061  0.7006
  135poe    c23  748   2.109   1.478   0.714  0.8178 -0.1429  0.3183
  135poe     o2  749   2.026   1.499   0.827  0.6896  0.3337  0.1394
  135poe    c23  750   2.076   1.550   0.948  0.2237  0.5195  0.2545
  135poe    c23  751   2.201   1.482   1.007  0.1988 -0.0403 -0.3321
  135poe     o2  752   2.277   1.562   1.095 -0.4596  0.1336  0.0789
  135poe    c23  753   2.359   1.660   1.035  0.3395 -0.4716  0.1655
  135poe    c23  754   2.389   1.761   1.147  0.5620  0.3333 -0.6061
  135poe     o2  755   2.399   1.684   1.265  0.6522  0.6920 -0.3761
  135poe    c31  756   2.447   1.761   1.372  1.0299 -0.2287  0.1301
  136poe    c31  757   2.147   1.786   0.018  0.6525  0.6079  0.1858
  136poe     o2  758   2.037   1.828   0.095  0.4558  0.7830 -0.1866
  136poe    c23  759   2.060   1.841   0.233 -0.0904  0.0561 -0.0204
  136poe    c23  760   1.926   1.877   0.301  0.0294  0.0062  0.2425
  136poe     o2  761   1.886   1.997   0.240  0.7594  0.3255  0.3874
  136poe    c23  762   1.750   2.024   0.266  0.4609 -0.3445 -0.4465
  136poe    c23  763   1.687   2.135   0.179 -0.3871 -0.4790 -0.0125
  136poe     o2  764   1.650   2.090   0.051 -0.1796 -0.1728 -0.1822
  136poe    c23  765   1.592   2.200  -0.015 -0.0553  0.1613  0.2647
  136poe    c23  766   1.553   2.166  -0.160 -0.0454  0.0359  0.2917
  136poe     o2  767   1.672   2.144  -0.233 -0.1770 -0.0412  0.0986
  136poe    c31  768   1.648   2.181  -0.367 -0.2653  0.5480  0.2720
  137poe    c31  769   2.028   0.754   6.436  0.1019 -0.2934  0.1807
  137poe     o2  770   1.974   0.883   6.416  0.8447 -0.0803 -0.4903
  137poe    c23  771   1.885   0.883   6.307  0.3895  0.1503 -0.1213
  137poe    c23  772   1.823   1.021   6.277 -0.0005  0.0268  0.1144
  137poe     o2  773   1.923   1.099   6.215  0.0877  0.0153  0.2403
  137poe    c23  774   1.868   1.227   6.195  0.1229  0.0467  0.3461
  137poe    c23  775   1.965   1.331   6.137  0.0720 -0.0273  0.1251
  137poe     o2  776   2.085   1.307   6.207  0.0790 -0.4920 -0.0460
  137poe    c23  777   2.167   1.422   6.200  0.4463 -0.7896 -0.8312
  137poe    c23  778   2.310   1.386   6.242  0.4197 -0.0674 -0.0907
  137poe     o2  779   2.302   1.320   6.367 -0.5890 -0.3951 -0.3199
  137poe    c31  780   2.410   1.330   6.456 -0.5155 -0.6620 -0.3801
  138poe    c31  781   1.989   1.182   1.195  0.2568  0.4463  0.6222
  138poe     o2  782   2.120   1.233   1.181  0.0492  0.6132 -0.8914
  138poe    c23  783   2.191   1.146   1.096  0.2750 -0.0335 -0.0580
  138poe    c23  784   2.337   1.126   1.142  0.0942 -0.2476  0.4354
  138poe     o2  785   2.391   1.256   1.138 -0.0698 -0.1722  0.6374
  138poe    c23  786   2.529   1.244   1.165  0.1149 -0.3406 -0.3111
  138poe    c23  787   2.585   1.382   1.203 -1.0205  0.4299 -1.3988
  138poe     o2  788   2.513   1.453   1.302 -0.6657 -0.8575 -0.1976
  138poe    c23  789   2.572   1.428   1.428 -0.1340 -0.2378 -0.3213
  138poe    c23  790   2.511   1.326   1.525  0.2232  0.0482  0.2075
  138poe     o2  791   2.391   1.357   1.590  0.0624 -0.5627  0.2132
  138poe    c31  792   2.378   1.280   1.708 -0.8699  0.2867  0.6870
  139poe    c31  793   0.457   0.691   2.767 -0.7193  0.1447 -0.0563
  139poe     o2  794   0.469   0.832   2.773 -0.5823  0.1463 -0.3516
  139poe    c23  795   0.343   0.895   2.765 -0.7840 -0.1713  0.2418
  139poe    c23  796   0.350   1.048   2.749  0.6357 -0.2775 -0.3013
  139poe     o2  797   0.421   1.113   2.852 -0.2124 -0.2100  0.2484
  139poe    c23  798   0.370   1.120   2.984 -0.0859 -0.1168  0.2925
  139poe    c23  799   0.478   1.112   3.093 -0.2491  0.4553  0.4950
  139poe     o2  800   0.575   1.010   3.096 -0.6567  0.0476 -0.2677
  139poe    c23  801   0.519   0.887   3.137 -0.1879 -0.0778  0.0006
  139poe    c23  802   0.604   0.759   3.120 -0.4246 -0.2066 -0.2217
  139poe     o2  803   0.676   0.785   3.002 -0.2055 -0.1234 -0.0699
  139poe    c31  804   0.769   0.687   2.962  0.6687  0.5159  0.3658
  140poe    c31  805   1.991   2.134   2.583 -0.1909  0.7259  0.3066
  140poe     o2  806   2.044   2.240   2.659  0.1002  0.5174  0.3993
  140poe    c23  807   2.040   2.223   2.799 -0.0739 -0.3742  0.2941
  140poe    c23  808   2.184   2.211   2.854 -0.1929 -0.1043  0.6736
  140poe     o2  809   2.248   2.335   2.836  0.1378 -0.3712 -0.0642
  140poe    c23  810   2.384   2.306   2.815 -0.1324 -1.0043 -1.0080
  140poe    c23  811   2.436   2.396   2.701 -0.1876 -0.3143 -0.5004
  140poe     o2  812   2.337   2.358   2.607 -0.0428 -0.4036 -0.6179
  140poe    c23  813   2.371   2.411   2.481  0.1694  0.3711 -0.2388
  140poe    c23  814   2.267   2.360   2.379 -0.5028  0.9097  0.1625
  140poe     o2  815   2.134   2.369   2.424 -0.4728  0.3323  0.3739
  140poe    c31  816   2.055   2.366   2.307 -0.6078  0.2620  0.4658
  141poe    c31  817   0.595   0.981   2.235  0.6237 -1.2879  0.1871
  141poe     o2  818   0.628   1.053   2.352 -0.1413  0.6488 -0.7419
  141poe    c23  819   0.765   1.029   2.380 -0.5034 -0.4321  0.1529
  141poe    c23  820   0.820   1.140   2.470  0.0367 -0.7077  0.1653
  141poe     o2  821   0.768   1.138   2.601  0.8729  0.1019  0.5222
  141poe    c23  822   0.683   1.238   2.652 -0.0992 -0.4575  0.0325
  141poe    c23  823   0.745   1.365   2.715 -0.3876  0.0039 -0.6058
  141poe     o2  824   0.807   1.357   2.841 -0.6523 -0.0823 -0.4799
  141poe    c23  825   0.829   1.487   2.891  0.3236 -0.2606 -0.4216
  141poe    c23  826   0.913   1.502   3.019  0.4496 -0.7897 -0.4393
  141poe     o2  827   0.866   1.442   3.138  0.1310 -0.0018 -0.1610
  141poe    c31  828   0.922   1.513   3.246  0.2429 -0.3486  0.0091
  142poe    c31  829   0.540   0.271   5.068  0.2274  0.2913 -0.3430
  142poe     o2  830   0.631   0.234   5.170  0.3882 -0.0740 -0.6169
  142poe    c23  831   0.581   0.232   5.302  0.8716 -0.0813 -0.4328
  142poe    c23  832   0.657   0.176   5.423 -0.5955  0.3201  0.7028
  142poe     o2  833   0.655   0.035   5.418  0.3579  0.3085  0.3037
  142poe    c23  834   0.722  -0.014   5.531  0.5116  0.5131  0.3007
  142poe    c23  835   0.729  -0.167   5.539  0.0041  0.4834  0.2294
  142poe     o2  836   0.742  -0.219   5.409 -0.4587 -0.2049  0.4534
  142poe    c23  837   0.682  -0.345   5.390 -1.0756  0.2071 -0.4339
  142poe    c23  838   0.717  -0.395   5.249  0.2218  0.4474 -0.2045
  142poe     o2  839   0.674  -0.300   5.155  0.4997  0.4232 -0.3587
  142poe    c31  840   0.739  -0.328   5.033 -0.0813 -0.1691 -0.5386
  143poe    c31  841   0.286   0.688   3.946 -0.2035  0.0577 -0.2012
  143poe     o2  842   0.274   0.549   3.968  0.1469 -0.0188 -0.4886
  143poe    c23  843   0.207   0.519   4.089  0.9443 -0.2838 -0.1074
  143poe    c23  844   0.180   0.368   4.081  0.2036 -0.1458 -0.2876
  143poe     o2  845   0.303   0.298   4.089  0.4008  0.2671  0.4133
  143poe    c23  846   0.285   0.164   4.125  0.0763  0.1736 -0.0779
  143poe    c23  847   0.389   0.128   4.233  0.4402 -0.7020 -0.7107
  143poe     o2  848   0.510   0.184   4.187  0.2616 -0.1334 -0.4998
  143poe    c23  849   0.621   0.126   4.253 -0.0294 -0.0423  0.0711
  143poe    c23  850   0.749   0.177   4.185  0.0071  0.2129  0.3290
  143poe     o2  851   0.777   0.315   4.199  0.6365  0.1484 -0.2734
  143poe    c31  852   0.874   0.356   4.293 -0.1159  0.1016  0.5277
  144poe    c31  853   0.540   2.239   3.965 -0.3209  0.2614 -0.2021
  144poe     o2  854   0.570   2.377   3.966 -0.1621  0.2259  0.3805
  144poe    c23  855   0.517   2.432   3.847 -0.1845  0.0717  0.3188
  144poe    c23  856   0.571   2.572   3.810 -0.0638 -0.1159 -0.2306
  144poe     o2  857   0.545   2.670   3.908 -0.7557  0.0809 -0.6087
  144poe    c23  858   0.585   2.797   3.862  0.3945 -0.1108 -0.1625
  144poe    c23  859   0.627   2.886   3.980 -0.7540  0.3753 -0.1102
  144poe     o2  860   0.540   2.873   4.090 -0.4428 -0.0094  0.0898
  144poe    c23  861   0.592   2.943   4.201 -0.3703 -0.3185  0.2536
  144poe    c23  862   0.495   2.918   4.318  0.1407 -0.7056  0.5999
  144poe     o2  863   0.463   2.780   4.316 -0.5235 -0.5524 -0.4744
  144poe    c31  864   0.405   2.750   4.441 -0.6455  0.5751 -0.2539
  145poe    c31  865   1.414   0.919   2.272  0.5211  0.4205  0.1191
  145poe     o2  866   1.336   0.958   2.383  0.1054  0.0492 -0.0381
  145poe    c23  867   1.328   0.860   2.484 -0.9278  0.1982  0.0342
  145poe    c23  868   1.217   0.890   2.586 -0.4710 -0.3258  0.6944
  145poe     o2  869   1.225   1.023   2.632  0.5296 -0.1614  0.0757
  145poe    c23  870   1.105   1.062   2.694  0.3155  0.4085 -0.6827
  145poe    c23  871   1.103   1.205   2.750  0.6914  0.0515  0.2669
  145poe     o2  872   1.159   1.294   2.657 -0.4258  0.5183  0.0220
  145poe    c23  873   1.144   1.431   2.687  0.1817  0.4585  0.6196
  145poe    c23  874   1.238   1.535   2.621 -0.0452  0.2145 -0.1018
  145poe     o2  875   1.192   1.667   2.604  0.1346  0.2711 -0.1434
  145poe    c31  876   1.293   1.739   2.536  0.0883  0.2891 -0.1929
  146poe    c31  877   1.496   0.964   4.048 -0.2933 -0.3687 -0.4343
  146poe     o2  878   1.475   1.102   4.072  0.2943 -0.2177 -0.7561
  146poe    c23  879   1.548   1.181   3.982  0.1813  0.3500 -0.3573
  146poe    c23  880   1.505   1.328   3.992  0.2983  0.3734 -0.1996
  146poe     o2  881   1.370   1.347   3.956  0.0638  0.2843  0.6256
  146poe    c23  882   1.319   1.473   3.993  0.7526  0.7935 -0.1366
  146poe    c23  883   1.194   1.501   3.907  0.8818 -0.2359 -0.6761
  146poe     o2  884   1.101   1.397   3.926  0.1700  0.3741 -0.7758
  146poe    c23  885   0.972   1.431   3.880  0.0519  0.4590 -0.3884
  146poe    c23  886   0.904   1.294   3.860  0.3903  0.2824 -0.3347
  146poe     o2  887   0.883   1.217   3.976  0.6480  0.3111 -0.2678
  146poe    c31  888   0.797   1.108   3.953  0.1126  0.7347 -0.2913
  147poe    c31  889   1.268   0.163   2.747 -0.5153  0.0200  0.5885
  147poe     o2  890   1.203   0.124   2.629  0.1142 -0.1687  0.2970
  147poe    c23  891   1.255   0.206   2.527 -0.4686  0.0463  0.1687
  147poe    c23  892   1.240   0.145   2.386  0.4535  0.0860  0.0504
  147poe     o2  893   1.103   0.154   2.353  0.3487 -0.3211  0.3686
  147poe    c23  894   1.064   0.110   2.225  0.0969  0.8859  0.0256
  147poe    c23  895   0.919   0.145   2.187  0.0607  0.1944 -0.4888
  147poe     o2  896   0.836   0.119   2.298  0.4167 -0.0498 -0.2776
  147poe    c23  897   0.703   0.151   2.263  0.3542 -0.6249 -0.5814
  147poe    c23  898   0.629   0.173   2.396  0.5138  0.2099 -0.6216
  147poe     o2  899   0.708   0.261   2.474 -0.0641  0.2956 -0.1260
  147poe    c31  900   0.630   0.288   2.588 -0.2623 -0.1754 -0.1446
  148poe    c31  901   0.812   1.477   2.214  0.4379  0.3061  1.2134
  148poe     o2  902   0.855   1.601   2.162 -0.5769  0.3354  0.3919
  148poe    c23  903   0.893   1.689   2.266  0.6797 -0.4207  0.5901
  148poe    c23  904   0.852   1.832   2.229 -0.5789 -0.9793 -0.2453
  148poe     o2  905   0.716   1.863   2.211 -0.3010  0.1596 -0.4852
  148poe    c23  906   0.709   1.979   2.131 -0.5119  0.1636 -0.4615
  148poe    c23  907   0.589   1.999   2.036 -0.5281  0.4878 -0.3737
  148poe     o2  908   0.470   2.048   2.093 -0.1597  0.3164  0.5600
  148poe    c23  909   0.368   2.087   2.005 -0.2709 -0.3765  0.3792
  148poe    c23  910   0.249   2.147   2.083 -0.7425 -0.6083 -0.1478
  148poe     o2  911   0.219   2.054   2.184  0.1316 -0.1073  0.5865
  148poe    c31  912   0.083   2.082   2.208 -0.0929 -0.3508 -0.3738
  149poe    c31  913   0.555   0.690   5.137 -0.2458 -0.5298 -0.5176
  149poe     o2  914   0.620   0.701   5.012  0.0366  0.1156 -0.3176
  149poe    c23  915   0.554   0.642   4.902  0.1047 -0.5036 -0.0317
  149poe    c23  916   0.641   0.650   4.774 -0.1657  0.2974 -0.1712
  149poe     o2  917   0.637   0.786   4.739  0.2784  0.3547 -0.0019
  149poe    c23  918   0.669   0.800   4.602  0.3909  0.2596  0.0147
  149poe    c23  919   0.553   0.875   4.534 -0.3262  0.0668  1.0016
  149poe     o2  920   0.570   1.012   4.566 -0.2266  0.1422  0.6322
  149poe    c23  921   0.457   1.088   4.530  0.0676  0.2935  0.0249
  149poe    c23  922   0.489   1.231   4.574  0.0270  0.1202  0.6279
  149poe     o2  923   0.521   1.220   4.711 -0.6440 -0.3826  0.7439
  149poe    c31  924   0.519   1.348   4.770  0.0440  0.1192 -0.2869
  150poe    c31  925   1.186   1.859   1.766 -0.0597  0.5022 -0.1385
  150poe     o2  926   1.055   1.810   1.748  0.2014  0.1223 -1.0842
  150poe    c23  927   0.963   1.915   1.762  0.0106 -0.1605 -0.0530
  150poe    c23  928   0.828   1.861   1.712  0.0178  0.0388 -0.2951
  150poe     o2  929   0.812   1.727   1.755 -0.0242  0.1460  0.0281
  150poe    c23  930   0.680   1.687   1.729 -0.0147  0.2971 -0.2633
  150poe    c23  931   0.644   1.538   1.744  0.1371  0.2799 -0.0679
  150poe     o2  932   0.643   1.497   1.879 -0.2108  0.1416 -0.1110
  150poe    c23  933   0.613   1.360   1.892  0.0907  0.1063  0.2193
  150poe    c23  934   0.473   1.307   1.857 -0.0865  0.2008  0.7790
  150poe     o2  935   0.372   1.356   1.943 -0.7646  0.5528 -0.1899
  150poe    c31  936   0.329   1.488   1.922  0.4175  1.0519  0.3705
  151poe    c31  937   1.810   1.689   5.290  0.5215 -0.1126  0.1032
  151poe     o2  938   1.916   1.701   5.383  0.1473  0.1992  0.4959
  151poe    c23  939   1.918   1.830   5.439  0.0259  0.4465 -0.0554
  151poe    c23  940   2.011   1.820   5.562  0.0026  0.1574 -0.0607
  151poe     o2  941   2.124   1.753   5.510  0.1294  0.3822 -0.0738
  151poe    c23  942   2.203   1.710   5.619  0.0665  0.8331  0.1561
  151poe    c23  943   2.308   1.630   5.539 -0.1743  0.7678 -0.0976
  151poe     o2  944   2.246   1.529   5.464  0.3573  0.5293 -0.2214
  151poe    c23  945   2.335   1.434   5.409  0.0851  0.2208 -0.1335
  151poe    c23  946   2.277   1.336   5.305 -0.1397  0.0763  0.1249
  151poe     o2  947   2.247   1.390   5.178 -0.7357  0.0846  0.2703
  151poe    c31  948   2.209   1.272   5.111  0.4960 -0.4813  0.5545
  152poe    c31  949   2.056   0.157   5.636  0.0229 -0.3975  0.6930
  152poe     o2  950   2.065   0.228   5.758 -0.3546 -0.0782  0.5378
  152poe    c23  951   2.113   0.144   5.861  0.2440 -0.4543 -0.0398
  152poe    c23  952   2.086   0.225   5.989  0.2574 -0.4453 -0.0428
  152poe     o2  953   2.117   0.361   5.968  0.0528 -0.3069  0.5415
  152poe    c23  954   2.099   0.418   6.096  0.0900 -0.2552  0.5234
  152poe    c23  955   2.133   0.568   6.104  0.2755 -0.2578 -0.1281
  152poe     o2  956   2.065   0.622   5.994  0.0187 -0.2728  0.0213
  152poe    c23  957   2.048   0.760   6.020  0.3582 -0.3479  0.6400
  152poe    c23  958   2.041   0.836   5.887 -0.8789  0.0601  0.9210
  152poe     o2  959   1.932   0.803   5.804 -0.4480 -0.3287  0.4987
  152poe    c31  960   1.963   0.843   5.672 -0.6548 -0.1951  0.4907
  153poe    c31  961   1.986   2.181   4.070  0.0329 -0.1920 -0.2045
  153poe     o2  962   2.075   2.072   4.065 -0.4816 -0.6089 -0.3621
  153poe    c23  963   2.198   2.131   4.101 -0.8888  0.0572 -0.0427
  153poe    c23  964   2.293   2.011   4.116 -0.4783  0.2974 -0.6443
  153poe     o2  965   2.213   1.911   4.175 -0.1953  0.3544 -0.1601
  153poe    c23  966   2.278   1.786   4.177  0.1109  0.5154  0.1210
  153poe    c23  967   2.170   1.704   4.251 -0.0603  0.9757  0.3816
  153poe     o2  968   2.061   1.728   4.165  0.0236 -0.2638 -0.0883
  153poe    c23  969   1.937   1.698   4.225  0.1784  0.1879  0.4673
  153poe    c23  970   1.827   1.756   4.135  0.3441 -0.1002  0.0764
  153poe     o2  971   1.868   1.877   4.077  0.2074 -0.4357 -0.7358
  153poe    c31  972   1.771   1.929   3.989 -0.2431 -0.0709 -0.0285
  154poe    c31  973   1.344   2.326   1.415 -0.6158 -0.5433  1.2764
  154poe     o2  974   1.461   2.302   1.489  0.4096  0.0538 -0.1119
  154poe    c23  975   1.425   2.256   1.617 -0.1924  0.5934 -0.0830
  154poe    c23  976   1.550   2.240   1.706 -0.4248  0.0427  0.1488
  154poe     o2  977   1.653   2.191   1.624 -0.1527  0.9361 -0.0540
  154poe    c23  978   1.785   2.202   1.674 -0.0160 -0.2712 -0.1075
  154poe    c23  979   1.863   2.172   1.545  0.7756 -0.3108  0.3731
  154poe     o2  980   1.830   2.251   1.433  0.0989 -0.4529  0.4636
  154poe    c23  981   1.887   2.207   1.311 -0.4196 -0.5169  0.2396
  154poe    c23  982   1.798   2.275   1.206  0.5080  0.5546  0.1235
  154poe     o2  983   1.671   2.257   1.266  0.5709 -0.3876 -0.0254
  154poe    c31  984   1.580   2.278   1.160  0.3007  0.2509  0.3316
  155poe    c31  985   0.226   0.226   1.374  0.1963  0.3086  0.0044
  155poe     o2  986   0.134   0.301   1.450  0.4076  0.5472  0.0217
  155poe    c23  987   0.027   0.345   1.370  0.3740  0.4648  0.0224
  155poe    c23  988  -0.048   0.453   1.450 -0.3350 -0.4753  0.6482
  155poe     o2  989   0.041   0.541   1.514 -0.3716  0.1841 -0.2014
  155poe    c23  990  -0.031   0.628   1.598 -0.3410  0.2211 -0.2129
  155poe    c23  991   0.069   0.703   1.688  0.1012 -0.4362 -0.1514
  155poe     o2  992   0.156   0.621   1.763 -0.0543 -0.2971  0.1832
  155poe    c23  993   0.255   0.693   1.834 -0.0800  0.0524 -0.1305
  155poe    c23  994   0.357   0.608   1.912  0.2738  0.3443 -0.2713
  155poe     o2  995   0.408   0.494   1.846 -0.3539 -0.2173  0.1902
  155poe    c31  996   0.493   0.429   1.938 -0.1785 -0.5324 -0.1919
  156poe    c31  997   0.451   1.701   2.996 -0.6982 -0.6197  0.0023
  156poe     o2  998   0.520   1.803   3.065 -0.2186 -0.2503 -1.0059
  156poe    c23  999   0.563   1.881   2.956  0.1420  0.3088 -0.4708
  156poe    c23 1000   0.648   1.994   3.017  0.5530 -0.2182 -0.0526
  156poe     o2 1001   0.575   2.064   3.115 -0.0658 -0.5887 -0.2405
  156poe    c23 1002   0.636   2.190   3.137 -0.7006 -0.2936 -0.1496
  156poe    c23 1003   0.570   2.271   3.250 -0.4153  0.1937 -0.3335
  156poe     o2 1004   0.515   2.183   3.344  0.9824 -0.2789  0.0672
  156poe    c23 1005   0.507   2.255   3.465 -0.1720 -0.2190 -0.0273
  156poe    c23 1006   0.498   2.151   3.578 -0.0644 -0.3421 -0.1302
  156poe     o2 1007   0.612   2.073   3.602  0.1675 -0.0438 -0.2570
  156poe    c31 1008   0.570   1.996   3.712  0.1814 -0.0127 -0.2298
  157poe    c31 1009   1.583   1.364   0.351  0.8560  0.1833  1.0399
  157poe     o2 1010   1.521   1.247   0.401  0.0242  0.2681  0.2430
  157poe    c23 1011   1.389   1.265   0.446 -0.0259 -0.0398  0.2191
  157poe    c23 1012   1.306   1.135   0.451 -0.1626  0.0435  0.1213
  157poe     o2 1013   1.293   1.077   0.323  0.0349  0.6253 -0.1681
  157poe    c23 1014   1.163   1.026   0.306  0.1545  0.3816 -0.3632
  157poe    c23 1015   1.172   0.894   0.227 -0.1822 -0.0495  0.3007
  157poe     o2 1016   1.266   0.798   0.269  0.0574 -0.2018 -0.5612
  157poe    c23 1017   1.247   0.680   0.195  0.5398 -0.4629 -0.2706
  157poe    c23 1018   1.346   0.583   0.263  0.0800 -0.6323  0.1586
  157poe     o2 1019   1.472   0.644   0.270 -0.0186 -0.2504 -1.0959
  157poe    c31 1020   1.556   0.541   0.317  0.6603  0.9190  0.3359
  158poe    c31 1021   0.301   0.037   0.452 -0.1798  0.1254  0.1988
  158poe     o2 1022   0.207  -0.025   0.368 -0.0373  0.4293 -0.1863
  158poe    c23 1023   0.257  -0.151   0.329  0.2465  0.4927 -0.0330
  158poe    c23 1024   0.130  -0.226   0.283 -0.0174  0.7127  0.3316
  158poe     o2 1025   0.064  -0.132   0.200 -0.7213  0.2807  0.3944
  158poe    c23 1026  -0.051  -0.206   0.167 -0.3153 -0.3072  0.2719
  158poe    c23 1027  -0.133  -0.097   0.096  0.3407 -0.3837 -0.6264
  158poe     o2 1028  -0.119   0.029   0.158 -0.1327 -0.4325 -0.4151
  158poe    c23 1029  -0.221   0.062   0.250 -0.0065  0.3572 -0.5523
  158poe    c23 1030  -0.162   0.169   0.343 -0.0083 -0.1095 -0.0116
  158poe     o2 1031  -0.044   0.125   0.407 -0.1753 -0.4121  0.0891
  158poe    c31 1032  -0.006   0.227   0.497 -0.1551 -0.1775 -0.1866
  159poe    c31 1033   1.403   0.722   0.604  0.6066 -0.3173 -0.1411
  159poe     o2 1034   1.454   0.809   0.505  0.4476  0.0856  0.1261
  159poe    c23 1035   1.583   0.844   0.550  0.8970 -0.7339 -0.4858
  159poe    c23 1036   1.652   0.925   0.439  0.2044  0.0329 -0.3625
  159poe     o2 1037   1.603   0.890   0.312  0.0528 -0.3942 -0.1888
  159poe    c23 1038   1.670   0.963   0.211  0.7913 -0.4357  0.2715
  159poe    c23 1039   1.632   0.929   0.066  0.0581 -0.0248  0.3625
  159poe     o2 1040   1.493   0.936   0.045  0.1259  0.0752 -0.0662
  159poe    c23 1041   1.467   0.959  -0.092 -0.2403  0.4225  0.0604
  159poe    c23 1042   1.314   0.964  -0.114 -0.2699  0.5107  0.2838
  159poe     o2 1043   1.235   0.852  -0.084 -0.5735  0.8494  0.7631
  159poe    c31 1044   1.114   0.849  -0.157  0.2308  0.4714 -0.5791
  160poe    c31 1045   1.229   2.071   0.369  0.2896 -0.1520 -0.1013
  160poe     o2 1046   1.137   2.066   0.263 -0.1061  0.1831  0.2260
  160poe    c23 1047   1.011   2.111   0.307 -0.3391 -0.5357  0.3080
  160poe    c23 1048   0.933   2.116   0.175  0.5202  0.4077 -0.1771
  160poe     o2 1049   0.984   2.182   0.061 -0.0176  0.8096 -0.1890
  160poe    c23 1050   0.898   2.164  -0.050 -0.1593  0.8223 -0.0814
  160poe    c23 1051   0.988   2.161  -0.175  0.2702 -0.1006  0.2414
  160poe     o2 1052   1.064   2.278  -0.158 -0.1890  0.1982  0.2530
  160poe    c23 1053   1.150   2.298  -0.269  0.0115 -0.7332  0.2361
  160poe    c23 1054   1.239   2.419  -0.236 -0.3092 -0.3669 -0.2367
  160poe     o2 1055   1.272   2.420  -0.099 -0.7128  0.2270 -0.1392
  160poe    c31 1056   1.373   2.515  -0.076 -0.3627 -0.1923  0.0818
  161poe    c31 1057   0.539   0.120   1.027 -0.1006  0.3799 -0.2376
  161poe     o2 1058   0.603   0.013   1.093  0.0546  0.2655 -0.5707
  161poe    c23 1059   0.512  -0.044   1.184  0.3716 -0.2830 -0.5973
  161poe    c23 1060   0.570  -0.177   1.237  0.0924 -0.2537 -0.2117
  161poe     o2 1061   0.709  -0.156   1.238 -0.0111  0.4474  0.6535
  161poe    c23 1062   0.782  -0.251   1.311 -0.0423  0.0867  0.2213
  161poe    c23 1063   0.905  -0.282   1.224 -0.4141 -0.0822 -0.2466
  161poe     o2 1064   0.944  -0.154   1.181 -0.0823 -0.0852  0.0425
  161poe    c23 1065   1.032  -0.163   1.072 -0.4786  0.0456 -0.2921
  161poe    c23 1066   1.034  -0.016   1.025  0.5538  0.2677  0.4131
  161poe     o2 1067   0.899   0.023   1.020  0.4671 -0.1263 -0.4027
  161poe    c31 1068   0.895   0.152   0.962 -0.1853  0.1068  0.1464
  162poe    c31 1069   0.419   1.374   0.643  0.5961 -0.2354 -0.1596
  162poe     o2 1070   0.297   1.409   0.581  0.8217  0.2635 -0.3270
  162poe    c23 1071   0.322   1.521   0.499  0.4298  0.7877  0.2563
  162poe    c23 1072   0.198   1.576   0.425 -0.2941 -0.3752  0.5689
  162poe     o2 1073   0.145   1.497   0.321  0.1081  0.3774 -0.2265
  162poe    c23 1074   0.017   1.546   0.290 -0.1163 -0.2111 -0.2482
  162poe    c23 1075  -0.064   1.446   0.205  0.5773 -0.8031 -0.2130
  162poe     o2 1076  -0.064   1.322   0.273 -0.2122 -0.4426  0.4515
  162poe    c23 1077  -0.149   1.229   0.212 -0.3628 -0.0553  0.0663
  162poe    c23 1078  -0.138   1.101   0.297  0.0574 -0.4889 -0.6265
  162poe     o2 1079   0.001   1.080   0.297  0.1460  0.0643  0.1454
  162poe    c31 1080   0.038   0.947   0.270  0.7968  0.1505  0.5694
  163lim     li 1081   0.896   0.214   2.436  0.9707  0.0271  1.1137
  164lim     li 1082   1.385   0.902   5.772 -0.4441  0.2763  0.8463
  165lim     li 1083   2.138   1.221   6.351  0.5132 -0.6551  0.5002
  166lim     li 1084   2.168   0.015   2.634  0.8210 -0.0028  0.5985
  167lim     li 1085   0.071   0.039   0.289 -0.5885 -0.0807  1.0426
  168lim     li 1086   2.076   0.509   2.095  1.2968 -0.7226 -0.5470
  169lim     li 1087   2.060   2.165   4.722  0.3758  0.5170 -0.1394
  170lim     li 1088   2.085   0.420   5.807 -0.8435 -1.3005  1.6314
  171lim     li 1089   1.228   0.068   4.121 -0.1379 -1.3478  0.0560
  172lim     li 1090   2.155   0.566   3.716  0.4738  0.0373  1.0460
  173lim     li 1091   0.794   2.320   1.146 -0.6435 -0.3679 -1.5871
  174lim     li 1092   0.407   0.655   0.462 -0.3227  0.6537  1.2285
  175lim     li 1093   2.136   0.434   2.987  0.2103 -1.0176 -1.2561
  176lim     li 1094   0.621   1.063   4.741 -0.5169 -1.1129 -0.1569
  177lim     li 1095   2.054   1.893   4.090  1.2809  0.2609  0.2485
  178lim     li 1096   1.326   2.030   2.776 -0.6015 -1.2646 -0.1223
  179lim     li 1097   1.746   1.715   0.738  0.2466  0.1468 -0.5742
  180lim     li 1098   2.352   1.130   2.306  0.8304 -1.0918  0.7969
  181lim     li 1099   1.442   0.815   0.320  0.5391  0.8834  0.4896
  182lim     li 1100   0.308   2.189   6.233 -0.2010  0.6436 -0.0671
  183lim     li 1101   1.814   0.435   0.896 -1.2476  1.1254  0.7527
  184lim     li 1102   0.647   1.684   6.152  0.8180  0.2836 -0.1932
  185lim     li 1103   1.716   1.969   3.252 -0.1650 -0.5419  0.7477
  186lim     li 1104   0.469   0.347   4.108 -0.0689  0.1543  0.3177
  187lim     li 1105   0.481   1.928   3.181 -1.0525 -0.6465 -0.3328
  188lim     li 1106   0.894   1.463   0.690 -0.0541 -0.2097  0.7974
  189lim     li 1107   0.651   2.241   5.299  0.3242  0.5979  0.7299
  190lim     li 1108   0.748   0.668   1.243  0.3540  0.0113  0.6820
  191lim     li 1109   2.049   1.740   2.057 -0.6122  0.0173  0.2500
  192lim     li 1110   1.342   0.033   5.469 -0.5451  0.9453  0.0461
  193lim     li 1111   0.336   1.047   3.689  0.2140  0.7302  0.3858
  194lim     li 1112   1.635   2.296   1.443  0.5816  0.2722  0.4285
  195lim     li 1113   1.738   0.971   4.633  0.5319 -0.0129 -0.2190
  196lim     li 1114   1.333   1.112   2.440  0.8070 -0.4275  0.3498
  197lim     li 1115   1.204   1.257   3.949 -0.1693  0.6377 -0.3979
  198lim     li 1116   1.286   1.684   5.285  0.3618  0.2782 -1.3441
  199lim     li 1117   0.371   1.951   2.216  0.5154 -0.0919 -1.4945
  200lim     li 1118   2.065   1.612   5.399 -0.3910  0.9374 -0.5131
  201lim     li 1119   0.373   0.362   6.065 -0.0699  0.5559 -1.4322
  202lim     li 1120   0.799   1.685   4.516  0.1092  0.3191  0.6820
  203lim     li 1121   0.191   0.433   1.561 -0.5948  0.3364 -0.7252
  204lim     li 1122   1.327   0.621   3.202  0.2046  0.7722 -0.7673
  205lim     li 1123   0.710   0.957   2.971 -0.4565  0.7189 -0.3605
  206lim     li 1124   1.583   1.380   1.528 -0.4939  0.7495  0.6543
  207lim     li 1125   0.007   1.515   1.252 -0.2918  0.7012 -1.0193
  208lim     li 1126   0.084   1.227   0.330 -1.0137  0.6502 -0.3771
  209lim     li 1127   2.250   0.515   5.162 -0.1002  0.5764 -0.4488
  210lim     li 1128   1.233   1.509   6.276  0.2663  1.2734  0.4124
  211lim     li 1129   1.136   2.345   0.024  0.6561  0.6586  1.1927
  212lim     li 1130   1.833   2.090   6.395  0.5438 -0.9138 -0.0963
  213lim     li 1131   1.500   0.544   4.900 -0.8304 -0.5260  1.0422
  214lim     li 1132   1.965   1.371   3.281  0.3579  0.9616 -0.0629
  215lim     li 1133   1.401   0.869   1.374 -0.6726 -0.7716  0.3501
  216lim     li 1134   0.957   1.644   1.822 -0.4828  0.0633 -0.6345
  217ntf    cn1 1135   0.962   1.942   3.815 -0.0039 -0.1577 -0.1448
  217ntf    sn2 1136   1.125   1.902   3.885 -0.0034  0.0469 -0.0277
  217ntf    nn3 1137   1.085   1.831   4.019  0.2214 -0.3235 -0.1546
  217ntf    sn2 1138   1.044   1.893   4.158 -0.3709 -0.2660 -0.3550
  217ntf    cn1 1139   1.193   1.881   4.261 -0.3255 -0.3092 -0.4255
  217ntf    fn4 1140   0.967   1.976   3.688 -0.4918 -0.2493 -0.1935
  217ntf    fn4 1141   0.874   1.842   3.816  0.0362 -0.1924 -0.1040
  217ntf    fn4 1142   0.914   2.051   3.873  1.0072  0.3199 -0.1908
  217ntf    on5 1143   1.181   1.801   3.799  0.5703  0.1421  0.2346
  217ntf    on5 1144   1.199   2.023   3.909  0.0360  0.0689 -0.2635
  217ntf    on5 1145   0.959   1.806   4.236 -0.5533  0.5325  0.3436
  217ntf    on5 1146   1.014   2.034   4.167  0.0356 -0.2150  0.1787
  217ntf    fn4 1147   1.296   1.954   4.220 -0.2029 -0.3858 -0.2527
  217ntf    fn4 1148   1.170   1.912   4.387  0.0651 -0.1739 -0.3868
  217ntf    fn4 1149   1.224   1.753   4.275  0.0973 -0.1338  0.2639
  218ntf    cn1 1150   1.011   1.022   3.453 -0.1097 -0.3275 -0.1783
  218ntf    sn2 1151   0.946   0.854   3.431  0.1276 -0.3856 -0.4458
  218ntf    nn3 1152   0.913   0.812   3.578  0.4566 -0.1627 -0.3081
  218ntf    sn2 1153   1.006   0.778   3.700  0.4934  0.0814 -0.2679
  218ntf    cn1 1154   1.017   0.596   3.697 -0.1273  0.0265  0.4918
  218ntf    fn4 1155   0.945   1.093   3.543 -0.2591 -0.1260 -0.4430
  218ntf    fn4 1156   1.140   1.027   3.480 -0.2095 -0.3753  0.3173
  218ntf    fn4 1157   1.001   1.093   3.341  0.2199  0.4729  0.2953
  218ntf    on5 1158   0.822   0.867   3.357  0.0163  0.0837 -0.1777
  218ntf    on5 1159   1.048   0.776   3.366  0.0969 -0.7352 -0.0736
  218ntf    on5 1160   0.946   0.798   3.829  0.3563  0.2532 -0.3591
  218ntf    on5 1161   1.146   0.809   3.680  0.7669 -0.7616  0.2912
  218ntf    fn4 1162   1.082   0.541   3.596 -0.1086  0.2619  0.3737
  218ntf    fn4 1163   1.089   0.560   3.802  0.1349 -0.4979  0.1359
  218ntf    fn4 1164   0.898   0.540   3.709  0.1284 -0.5427  0.3864
  219ntf    cn1 1165   0.283   0.875   6.257  0.1989  0.1206  0.6089
  219ntf    sn2 1166   0.130   0.813   6.180  0.2985  0.0859  0.4377
  219ntf    nn3 1167   0.139   0.881   6.039 -0.3618 -0.4224  0.1478
  219ntf    sn2 1168   0.069   1.018   6.007  0.0193 -0.2435  0.0826
  219ntf    cn1 1169   0.059   1.008   5.826  0.2124 -0.3353  0.0765
  219ntf    fn4 1170   0.304   0.807   6.369  0.2330  0.3007  0.7117
  219ntf    fn4 1171   0.392   0.860   6.184 -0.2519 -0.1936 -0.0049
  219ntf    fn4 1172   0.280   1.003   6.289 -0.3110  0.2017  0.2406
  219ntf    on5 1173   0.142   0.669   6.173 -0.0912  0.0569  0.3866
  219ntf    on5 1174   0.030   0.864   6.270 -0.4392  0.0810 -0.3682
  219ntf    on5 1175   0.160   1.130   6.010 -0.0993 -0.1515  0.2305
  219ntf    on5 1176  -0.070   1.036   6.042 -0.0420 -0.2619 -0.1519
  219ntf    fn4 1177  -0.017   0.906   5.789  0.1134 -0.3742  0.3846
  219ntf    fn4 1178   0.006   1.118   5.774 -0.1091 -0.3541  0.3659
  219ntf    fn4 1179   0.180   1.000   5.773  0.2034 -0.1918  0.0333
  220ntf    cn1 1180   1.456   1.774   0.409  0.0415 -0.1444  0.2449
  220ntf    sn2 1181   1.401   1.719   0.574 -0.4043  0.4371  0.2928
  220ntf    nn3 1182   1.304   1.834   0.619 -0.4817  0.5298 -0.1083
  220ntf    sn2 1183   1.278   1.893   0.762 -0.2340  0.3538  0.0102
  220ntf    cn1 1184   1.368   2.051   0.762  0.0941  0.1671  0.1769
  220ntf    fn4 1185   1.554   1.706   0.352  0.0054  0.0911 -0.1011
  220ntf    fn4 1186   1.358   1.768   0.320 -0.2950  0.0905  0.5970
  220ntf    fn4 1187   1.491   1.901   0.416  0.1849 -0.1559 -0.2669
  220ntf    on5 1188   1.345   1.592   0.537 -0.1230  0.3701  0.0885
  220ntf    on5 1189   1.523   1.712   0.651 -0.0399 -0.4367 -0.3476
  220ntf    on5 1190   1.324   1.810   0.870 -0.0417  0.0672 -0.2884
  220ntf    on5 1191   1.142   1.940   0.765 -0.4494 -0.2684  0.1621
  220ntf    fn4 1192   1.498   2.029   0.753  0.1381  0.5182 -0.0647
  220ntf    fn4 1193   1.355   2.124   0.653  0.2522 -0.2334 -0.1126
  220ntf    fn4 1194   1.350   2.119   0.874  0.1869  0.2864  0.1192
  221ntf    cn1 1195   1.905   1.746   1.313  0.1471 -0.1640 -0.1234
  221ntf    sn2 1196   1.845   1.739   1.484  0.0102 -0.2566 -0.1751
  221ntf    nn3 1197   1.696   1.786   1.469  0.0553 -0.0540  0.0076
  221ntf    sn2 1198   1.567   1.706   1.429  0.1685 -0.2125 -0.0424
  221ntf    cn1 1199   1.449   1.813   1.517  0.2682 -0.1560  0.0235
  221ntf    fn4 1200   1.917   1.870   1.267  0.3027 -0.2746 -0.3867
  221ntf    fn4 1201   2.023   1.687   1.307  0.0553 -0.3226 -0.3748
  221ntf    fn4 1202   1.820   1.682   1.234 -0.1866  0.2967 -0.1423
  221ntf    on5 1203   1.858   1.602   1.526  0.0483 -0.3522 -0.5003
  221ntf    on5 1204   1.928   1.834   1.554 -0.1276  0.2117 -0.6457
  221ntf    on5 1205   1.558   1.576   1.489  0.3860 -0.1686  0.0851
  221ntf    on5 1206   1.547   1.715   1.287 -0.0662 -0.1598 -0.0067
  221ntf    fn4 1207   1.485   1.840   1.641  0.2620 -0.0870  0.0104
  221ntf    fn4 1208   1.442   1.933   1.461 -0.3165 -0.3571 -0.3493
  221ntf    fn4 1209   1.325   1.765   1.517  0.2973 -0.2373  0.4318
  222ntf    cn1 1210   1.095   0.048   3.274  0.0942  0.0628 -0.1828
  222ntf    sn2 1211   1.215  -0.081   3.228  0.1495  0.0520 -0.0095
  222ntf    nn3 1212   1.354  -0.018   3.267  0.3318  0.0232 -0.6097
  222ntf    sn2 1213   1.440   0.088   3.189  0.5515  0.3697  0.1020
  222ntf    cn1 1214   1.547   0.119   3.333  0.1222  0.2358  0.4548
  222ntf    fn4 1215   0.970   0.009   3.262 -0.0912  0.3300  0.8208
  222ntf    fn4 1216   1.117   0.094   3.396  0.0905  0.0009 -0.1585
  222ntf    fn4 1217   1.100   0.160   3.205  0.4855  0.0681 -0.1484
  222ntf    on5 1218   1.175  -0.187   3.317  0.1745 -0.4286 -0.5631
  222ntf    on5 1219   1.191  -0.113   3.090 -0.5897  0.2126  0.0789
  222ntf    on5 1220   1.382   0.218   3.165 -0.0821 -0.0111 -0.4630
  222ntf    on5 1221   1.525   0.028   3.090 -0.5300 -0.5992 -0.2692
  222ntf    fn4 1222   1.611   0.010   3.370 -0.5596 -0.4661 -0.3865
  222ntf    fn4 1223   1.640   0.212   3.317 -0.2072  0.4103 -0.5246
  222ntf    fn4 1224   1.482   0.154   3.442 -0.3810  0.3474  0.1231
  223ntf    cn1 1225   1.963   1.220   5.644  0.3120  0.2123  0.4146
  223ntf    sn2 1226   1.865   1.357   5.577 -0.0608 -0.2723 -0.0338
  223ntf    nn3 1227   1.834   1.425   5.715 -0.0498 -0.7408  0.2007
  223ntf    sn2 1228   1.697   1.445   5.787 -0.1003  0.0692 -0.1079
  223ntf    cn1 1229   1.740   1.598   5.875  0.0527 -0.1527  0.2059
  223ntf    fn4 1230   1.904   1.166   5.750 -0.0091 -0.0600  0.1015
  223ntf    fn4 1231   1.988   1.123   5.558 -0.7401 -0.1262  0.4801
  223ntf    fn4 1232   2.080   1.268   5.683  0.6160  0.3307 -0.6305
  223ntf    on5 1233   1.951   1.436   5.493 -0.1475 -0.3078 -0.1566
  223ntf    on5 1234   1.771   1.271   5.509 -0.3604  0.0642 -0.0521
  223ntf    on5 1235   1.670   1.344   5.887  0.6558  0.3484  0.3876
  223ntf    on5 1236   1.587   1.476   5.699 -0.2832 -0.4268 -0.0550
  223ntf    fn4 1237   1.773   1.687   5.784  0.3243 -0.4232  0.0392
  223ntf    fn4 1238   1.637   1.648   5.942 -0.1411 -0.1067 -0.1248
  223ntf    fn4 1239   1.844   1.582   5.955  0.3867 -0.0259 -0.2030
  224ntf    cn1 1240   0.807   1.023   5.711 -0.5013  0.0806 -0.2998
  224ntf    sn2 1241   0.848   1.124   5.857  0.1623 -0.1104 -0.3483
  224ntf    nn3 1242   0.801   1.263   5.802 -0.0303  0.2431  0.6862
  224ntf    sn2 1243   0.888   1.378   5.740 -0.0964  0.0167  0.1738
  224ntf    cn1 1244   0.754   1.479   5.670 -0.1973 -0.2076  0.0397
  224ntf    fn4 1245   0.677   1.028   5.691 -0.5377 -0.0707 -0.1087
  224ntf    fn4 1246   0.873   1.058   5.602  0.4210 -0.3525  0.1105
  224ntf    fn4 1247   0.839   0.896   5.728  0.3073  0.2951 -0.1576
  224ntf    on5 1248   0.771   1.059   5.960 -0.0715  0.1516 -0.3544
  224ntf    on5 1249   0.991   1.112   5.863  0.1434 -0.3475 -0.3591
  224ntf    on5 1250   0.956   1.342   5.618  0.1445 -0.4873  0.4542
  224ntf    on5 1251   0.947   1.471   5.832 -0.0577  0.0041  0.1624
  224ntf    fn4 1252   0.634   1.464   5.723 -0.0928 -0.0550  0.3252
  224ntf    fn4 1253   0.776   1.610   5.674  0.1643 -0.2634 -0.0743
  224ntf    fn4 1254   0.743   1.446   5.543 -0.2395 -0.0945  0.0135
  225ntf    cn1 1255   0.721   1.515   0.077  0.5419  0.1174  0.1035
  225ntf    sn2 1256   0.717   1.672   0.168 -0.1570  0.1209  0.0689
  225ntf    nn3 1257   0.608   1.734   0.074 -0.2131 -0.3309 -0.1674
  225ntf    sn2 1258   0.490   1.832   0.110  0.1628  0.0222  0.1070
  225ntf    cn1 1259   0.366   1.701   0.127 -0.3003  0.3894 -0.3879
  225ntf    fn4 1260   0.769   1.414   0.148  0.6448 -0.0452 -0.1952
  225ntf    fn4 1261   0.606   1.469   0.032  0.7268 -0.5136  0.2590
  225ntf    fn4 1262   0.800   1.540  -0.026  0.1397  0.2854 -0.1635
  225ntf    on5 1263   0.661   1.626   0.293 -0.1227 -0.1255 -0.0077
  225ntf    on5 1264   0.851   1.725   0.158 -0.2337  0.1822 -0.7046
  225ntf    on5 1265   0.439   1.918   0.006  0.1679 -0.1623 -0.0493
  225ntf    on5 1266   0.509   1.896   0.238  0.0347  0.2664  0.0050
  225ntf    fn4 1267   0.330   1.642   0.015  0.1424 -0.0571 -0.2978
  225ntf    fn4 1268   0.408   1.605   0.208 -0.2476  0.1805 -0.6623
  225ntf    fn4 1269   0.256   1.751   0.182 -0.2623 -0.2892  0.3303
  226ntf    cn1 1270   1.934   2.236   5.313 -0.2663  0.5716 -0.1997
  226ntf    sn2 1271   1.904   2.256   5.135  0.2034  0.0765 -0.3389
  226ntf    nn3 1272   1.833   2.396   5.121  0.2550  0.1140 -0.2214
  226ntf    sn2 1273   1.733   2.451   5.014 -0.1291  0.0552  0.1016
  226ntf    cn1 1274   1.568   2.404   5.073 -0.0584  0.1961  0.4113
  226ntf    fn4 1275   1.990   2.342   5.368 -0.2342  0.1326  0.6307
  226ntf    fn4 1276   1.827   2.218   5.390  0.1856  0.4030  0.3952
  226ntf    fn4 1277   2.007   2.127   5.332  0.0044  0.7290 -0.3339
  226ntf    on5 1278   2.040   2.257   5.088  0.4596 -0.2164  0.3895
  226ntf    on5 1279   1.826   2.136   5.114  0.2033 -0.0698  0.4598
  226ntf    on5 1280   1.749   2.391   4.883  0.2668 -0.1192  0.2278
  226ntf    on5 1281   1.728   2.595   5.016  0.6529  0.1010 -0.4892
  226ntf    fn4 1282   1.474   2.455   4.995  0.0509 -0.6876 -0.3210
  226ntf    fn4 1283   1.549   2.273   5.071 -0.4556  0.2622 -0.2033
  226ntf    fn4 1284   1.542   2.448   5.195 -0.2095 -0.0596  0.4716
  227ntf    cn1 1285   1.626   0.090   2.231  0.7945 -0.1050  0.0699
  227ntf    sn2 1286   1.635  -0.077   2.303  0.0987 -0.2517 -0.1730
  227ntf    nn3 1287   1.546  -0.163   2.207  0.2945 -0.1849 -0.4136
  227ntf    sn2 1288   1.426  -0.257   2.242  0.2336  0.0101 -0.1001
  227ntf    cn1 1289   1.470  -0.387   2.122  0.3339 -0.1550  0.1147
  227ntf    fn4 1290   1.682   0.183   2.306  0.0474  0.4456 -0.0382
  227ntf    fn4 1291   1.674   0.104   2.108  0.3490 -0.2187 -0.1222
  227ntf    fn4 1292   1.498   0.121   2.219  0.7239 -0.3666  0.1406
  227ntf    on5 1293   1.775  -0.109   2.293  0.0720 -0.5396  0.3549
  227ntf    on5 1294   1.588  -0.062   2.439 -0.1474 -0.2600 -0.2566
  227ntf    on5 1295   1.299  -0.201   2.202  0.0919 -0.2475 -0.0117
  227ntf    on5 1296   1.433  -0.310   2.376 -0.0314  0.2622  0.0144
  227ntf    fn4 1297   1.487  -0.346   1.998  0.2241  0.4663  0.2998
  227ntf    fn4 1298   1.583  -0.442   2.161  0.0146 -0.7926  0.1551
  227ntf    fn4 1299   1.382  -0.485   2.112 -0.1423  0.2997 -0.2242
  228ntf    cn1 1300   0.671   1.261   1.468  0.0914 -0.1040 -0.4310
  228ntf    sn2 1301   0.616   1.132   1.352  0.0674 -0.5081  0.0247
  228ntf    nn3 1302   0.482   1.093   1.424  0.1587 -0.1138  0.4111
  228ntf    sn2 1303   0.431   0.952   1.468 -0.2928  0.0160  0.3146
  228ntf    cn1 1304   0.258   0.948   1.413 -0.2315 -0.4867  0.1558
  228ntf    fn4 1305   0.586   1.359   1.493  0.0331 -0.2432 -0.0794
  228ntf    fn4 1306   0.699   1.203   1.583 -0.5428  0.5320  0.0535
  228ntf    fn4 1307   0.782   1.321   1.431  0.5712 -0.4600  0.4106
  228ntf    on5 1308   0.595   1.182   1.218 -0.1433 -0.9882 -0.1245
  228ntf    on5 1309   0.724   1.037   1.365 -0.3757 -1.1328 -0.7865
  228ntf    on5 1310   0.416   0.944   1.612 -0.0840  0.5910  0.3698
  228ntf    on5 1311   0.483   0.834   1.403  0.0331  0.3651 -0.0653
  228ntf    fn4 1312   0.206   0.828   1.434  0.0219 -0.5693  0.3189
  228ntf    fn4 1313   0.189   1.047   1.466 -0.3001 -0.7814  0.6162
  228ntf    fn4 1314   0.244   0.953   1.281 -0.1454 -1.0812  0.1192
  229ntf    cn1 1315   0.933   0.141   1.741 -0.0449 -0.2339  0.2464
  229ntf    sn2 1316   0.850  -0.020   1.733  0.1529 -0.3349  0.2145
  229ntf    nn3 1317   0.703   0.029   1.755 -0.1461 -0.9134 -0.4715
  229ntf    sn2 1318   0.594   0.039   1.641 -0.4505  0.0435 -0.1100
  229ntf    cn1 1319   0.533  -0.132   1.635  0.0179 -0.1114 -0.5341
  229ntf    fn4 1320   0.883   0.225   1.653 -0.1471 -0.5416  0.0111
  229ntf    fn4 1321   0.914   0.195   1.861 -0.0326 -0.2779  0.2682
  229ntf    fn4 1322   1.064   0.141   1.722 -0.0816  0.6276 -0.0547
  229ntf    on5 1323   0.874  -0.070   1.600 -0.4193  0.7456 -0.3076
  229ntf    on5 1324   0.904  -0.088   1.849  0.5856 -0.0751  0.1680
  229ntf    on5 1325   0.636   0.068   1.506  0.5152 -0.3894  0.0854
  229ntf    on5 1326   0.482   0.106   1.702 -0.3546 -0.3030  0.4579
  229ntf    fn4 1327   0.453  -0.160   1.533 -0.2333 -0.6074 -0.2023
  229ntf    fn4 1328   0.634  -0.216   1.616 -0.2032 -0.3075 -0.8547
  229ntf    fn4 1329   0.485  -0.172   1.751  0.3939 -0.2253 -0.4148
  230ntf    cn1 1330   1.322   1.997   6.079 -0.0694 -0.1679 -0.8669
  230ntf    sn2 1331   1.187   1.923   5.983 -0.2934  0.0728 -0.7403
  230ntf    nn3 1332   1.087   2.044   5.983  0.0222  0.3384 -0.0491
  230ntf    sn2 1333   0.993   2.090   5.866 -0.1488  0.2495  0.0528
  230ntf    cn1 1334   0.906   1.932   5.841  0.2476  0.1040 -0.4329
  230ntf    fn4 1335   1.425   1.915   6.090 -0.1261 -0.2250 -0.7630
  230ntf    fn4 1336   1.375   2.105   6.026  0.0284  0.1316 -0.1723
  230ntf    fn4 1337   1.275   2.027   6.199  0.6210  0.0277 -0.6413
  230ntf    on5 1338   1.246   1.876   5.860  0.3881 -0.2004 -0.3116
  230ntf    on5 1339   1.138   1.821   6.073  0.1614  0.4508 -0.0655
  230ntf    on5 1340   1.047   2.120   5.736 -0.2898  0.0889 -0.0446
  230ntf    on5 1341   0.885   2.171   5.916  0.4080  0.9538  0.1285
  230ntf    fn4 1342   0.813   1.938   5.747 -0.0731 -0.0928 -0.1314
  230ntf    fn4 1343   0.978   1.828   5.805  0.2346  0.0484 -0.2998
  230ntf    fn4 1344   0.847   1.894   5.953  0.2443  0.2672 -0.3791
  231ntf    cn1 1345   0.714   0.026   0.239  0.0081 -0.0394  0.0836
  231ntf    sn2 1346   0.597   0.090   0.115  0.0327 -0.0442  0.0578
  231ntf    nn3 1347   0.661   0.229   0.083  0.4521 -0.2137  0.1529
  231ntf    sn2 1348   0.786   0.268  -0.004  0.2977  0.5716  0.2695
  231ntf    cn1 1349   0.725   0.420  -0.082 -0.0273  0.4113  0.2134
  231ntf    fn4 1350   0.690  -0.101   0.266  0.1279  0.0176  0.4673
  231ntf    fn4 1351   0.841   0.035   0.201 -0.0999  0.2416 -0.2129
  231ntf    fn4 1352   0.703   0.089   0.355 -0.0308  0.0239  0.0455
  231ntf    on5 1353   0.601  -0.006   0.008 -0.4791  0.0979 -0.0902
  231ntf    on5 1354   0.476   0.100   0.192  0.1701  0.2778  0.2355
  231ntf    on5 1355   0.829   0.171  -0.102  0.4928  0.6066  0.3196
  231ntf    on5 1356   0.888   0.317   0.086  0.3352  0.5145  0.2584
  231ntf    fn4 1357   0.822   0.506  -0.104 -0.0586  0.2637 -0.5314
  231ntf    fn4 1358   0.662   0.389  -0.195  0.3164 -0.4795  0.2602
  231ntf    fn4 1359   0.642   0.490  -0.006 -0.5993  0.3863 -0.3701
  232ntf    cn1 1360   2.127   0.797   0.700 -0.3203  0.4542  0.3446
  232ntf    sn2 1361   2.010   0.822   0.564  0.0038  0.0951 -0.0047
  232ntf    nn3 1362   2.098   0.772   0.445 -0.0083  0.0220  0.0171
  232ntf    sn2 1363   2.053   0.680   0.326 -0.2246  0.1840 -0.0274
  232ntf    cn1 1364   2.086   0.514   0.394  0.0865  0.1041 -0.3662
  232ntf    fn4 1365   2.151   0.669   0.722 -0.7622  0.3606  0.2704
  232ntf    fn4 1366   2.243   0.861   0.690 -0.3852  0.4787 -0.2676
  232ntf    fn4 1367   2.073   0.842   0.812 -0.0559  0.5318  0.4436
  232ntf    on5 1368   1.895   0.742   0.596  0.1419 -0.1839 -0.2099
  232ntf    on5 1369   1.992   0.965   0.560 -0.2841  0.0515 -0.2718
  232ntf    on5 1370   2.158   0.680   0.226 -0.1390  0.6667  0.0611
  232ntf    on5 1371   1.918   0.695   0.280 -0.3747 -0.3080  0.2417
  232ntf    fn4 1372   2.013   0.474   0.497  0.3656 -0.5360 -0.4135
  232ntf    fn4 1373   2.077   0.420   0.302 -0.3117  0.2319 -0.4631
  232ntf    fn4 1374   2.212   0.496   0.431  0.1083  0.2176 -0.3848
  233ntf    cn1 1375   0.108   2.353   5.485  0.0886  0.1364  0.0514
  233ntf    sn2 1376   0.169   2.358   5.656  0.0562 -0.1019  0.0699
  233ntf    nn3 1377   0.170   2.205   5.691 -0.6593 -0.2977 -0.7378
  233ntf    sn2 1378   0.279   2.099   5.653  0.1430  0.1238  0.3440
  233ntf    cn1 1379   0.161   1.967   5.611 -0.0732  0.3104  0.3626
  233ntf    fn4 1380  -0.023   2.334   5.479  0.1011  0.0731 -0.0171
  233ntf    fn4 1381   0.133   2.466   5.420 -0.9531  0.1408 -0.3570
  233ntf    fn4 1382   0.174   2.261   5.416 -0.0606 -0.1115  0.2389
  233ntf    on5 1383   0.299   2.419   5.644  0.1379 -0.3127 -0.1212
  233ntf    on5 1384   0.061   2.428   5.722 -0.5282 -0.5767 -0.3760
  233ntf    on5 1385   0.352   2.057   5.770  0.2526 -0.3672  0.1051
  233ntf    on5 1386   0.358   2.132   5.536  0.0380 -0.2641  0.1633
  233ntf    fn4 1387   0.095   1.930   5.719  0.0467  0.0722  0.3559
  233ntf    fn4 1388   0.071   2.012   5.525 -0.1525  0.1525  0.3633
  233ntf    fn4 1389   0.219   1.857   5.566 -0.0940  0.3423  0.2573
  234ntf    cn1 1390   1.825   0.878   2.735  0.3698  0.2358 -0.2201
  234ntf    sn2 1391   1.754   0.816   2.579  0.0267 -0.2794  0.1351
  234ntf    nn3 1392   1.649   0.717   2.642 -0.0704 -0.1552  0.1686
  234ntf    sn2 1393   1.659   0.571   2.698  0.0905 -0.1313  0.2040
  234ntf    cn1 1394   1.607   0.482   2.549  0.3639  0.0498 -0.0002
  234ntf    fn4 1395   1.754   0.977   2.787 -0.1378  0.2332 -0.8933
  234ntf    fn4 1396   1.843   0.782   2.824 -0.9592 -0.3187 -0.5100
  234ntf    fn4 1397   1.945   0.929   2.716  0.5111  0.0662  0.2054
  234ntf    on5 1398   1.685   0.928   2.520 -0.2584 -0.4491  0.1477
  234ntf    on5 1399   1.852   0.742   2.503  0.4505  0.1012  0.3043
  234ntf    on5 1400   1.555   0.558   2.798 -0.2750  0.8201 -0.0367
  234ntf    on5 1401   1.793   0.523   2.720  0.2440  0.0228 -0.3991
  234ntf    fn4 1402   1.616   0.351   2.561  0.1005  0.0982  0.8051
  234ntf    fn4 1403   1.481   0.515   2.526  0.2630 -0.0100  0.4590
  234ntf    fn4 1404   1.682   0.518   2.446  0.0270  0.1289 -0.2181
  235ntf    cn1 1405   1.725   0.947   1.959  0.0574 -0.0981  0.1831
  235ntf    sn2 1406   1.866   1.055   1.923 -0.1823  0.0611 -0.2941
  235ntf    nn3 1407   1.925   0.988   1.794  0.2430  0.4576 -0.3081
  235ntf    sn2 1408   2.074   0.938   1.783  0.0558 -0.2114  0.1789
  235ntf    cn1 1409   2.117   0.988   1.614  0.3916 -0.1460  0.2843
  235ntf    fn4 1410   1.644   0.918   1.858  0.1050 -0.3071  0.2054
  235ntf    fn4 1411   1.750   0.829   2.012 -0.0868 -0.0784  0.2990
  235ntf    fn4 1412   1.648   1.012   2.045  0.2169  0.2699  0.0493
  235ntf    on5 1413   1.807   1.182   1.888  0.0461  0.1714 -0.2867
  235ntf    on5 1414   1.934   1.048   2.050 -0.4744 -0.2462 -0.1526
  235ntf    on5 1415   2.098   0.796   1.782 -0.5145 -0.3101 -0.0188
  235ntf    on5 1416   2.173   1.014   1.854  0.1115  0.0304 -0.1580
  235ntf    fn4 1417   2.071   0.889   1.539  0.0213  0.1303  0.1468
  235ntf    fn4 1418   2.054   1.098   1.577 -0.2994 -0.6316  0.0040
  235ntf    fn4 1419   2.247   1.003   1.593  0.2986  0.2320 -0.0267
  236ntf    cn1 1420   2.198   0.487   2.499  0.0744  0.0104  0.4124
  236ntf    sn2 1421   2.352   0.477   2.595  0.2516  0.1634  0.1491
  236ntf    nn3 1422   2.429   0.386   2.493  0.1067  0.1104  0.0858
  236ntf    sn2 1423   2.475   0.417   2.346  0.2021  0.2395  0.1429
  236ntf    cn1 1424   2.650   0.369   2.360  0.1859  0.2062  0.2328
  236ntf    fn4 1425   2.230   0.528   2.377  0.0332  0.2981  0.4959
  236ntf    fn4 1426   2.140   0.369   2.491 -0.3971  0.2654 -0.0209
  236ntf    fn4 1427   2.109   0.575   2.542  0.0212  0.0802  0.1660
  236ntf    on5 1428   2.395   0.613   2.615 -0.4352  0.5513 -0.9271
  236ntf    on5 1429   2.315   0.403   2.713 -0.1353 -0.3438 -0.2835
  236ntf    on5 1430   2.494   0.557   2.317  0.3875  0.0120 -0.8756
  236ntf    on5 1431   2.418   0.330   2.247 -0.2402  0.3353  0.3126
  236ntf    fn4 1432   2.670   0.247   2.406 -0.0179 -0.1054 -0.4892
  236ntf    fn4 1433   2.702   0.366   2.238 -0.3043 -0.2737  0.0314
  236ntf    fn4 1434   2.722   0.444   2.442  0.3821  0.1758  0.0888
  237ntf    cn1 1435   1.953   1.137   4.164 -0.0805 -0.1274 -0.5134
  237ntf    sn2 1436   2.072   1.270   4.127 -0.0727  0.0293  0.0550
  237ntf    nn3 1437   2.193   1.174   4.099 -0.1669 -0.0733 -0.0002
  237ntf    sn2 1438   2.345   1.203   4.075 -0.2052  0.1963  0.0829
  237ntf    cn1 1439   2.414   1.171   4.241  0.3981  0.5618 -0.0949
  237ntf    fn4 1440   1.997   1.055   4.258 -0.7794  0.0658 -0.0042
  237ntf    fn4 1441   1.831   1.172   4.203  0.1377 -0.0999  0.1491
  237ntf    fn4 1442   1.937   1.062   4.056  0.4545 -0.3521 -0.4402
  237ntf    on5 1443   2.016   1.336   4.012  0.0233  0.0544  0.0227
  237ntf    on5 1444   2.079   1.342   4.251 -0.6767  0.1034  0.0471
  237ntf    on5 1445   2.378   1.338   4.037  0.6564 -0.1178 -0.3177
  237ntf    on5 1446   2.402   1.101   3.991 -0.0717  0.6169 -0.3424
  237ntf    fn4 1447   2.406   1.044   4.276  0.2597  0.4764 -0.4276
  237ntf    fn4 1448   2.539   1.213   4.257  0.6388 -0.3356  0.4169
  237ntf    fn4 1449   2.345   1.235   4.334  0.5871  0.6533 -0.0151
  238ntf    cn1 1450   0.203   1.879   0.746 -0.1898  0.2873 -0.1069
  238ntf    sn2 1451   0.039   1.830   0.687 -0.2490  0.0550  0.2471
  238ntf    nn3 1452  -0.040   1.926   0.782 -0.5690 -0.6806  0.7369
  238ntf    sn2 1453  -0.166   2.010   0.740  0.0087 -0.2808 -0.2325
  238ntf    cn1 1454  -0.110   2.179   0.702  0.4171 -0.3895 -0.1176
  238ntf    fn4 1455   0.217   2.009   0.766  0.2826  0.1846  0.2621
  238ntf    fn4 1456   0.220   1.827   0.867 -0.4999  0.5983  0.0717
  238ntf    fn4 1457   0.302   1.838   0.668 -0.5182 -0.3090 -0.2129
  238ntf    on5 1458   0.056   1.869   0.549  0.3893 -0.2737  0.2280
  238ntf    on5 1459   0.034   1.687   0.707 -0.2564  0.0343  0.0974
  238ntf    on5 1460  -0.256   2.010   0.853 -0.1449  0.0660 -0.3542
  238ntf    on5 1461  -0.218   1.973   0.611  0.9280 -0.2817 -0.6049
  238ntf    fn4 1462  -0.016   2.211   0.790  0.0368 -0.0103  0.1554
  238ntf    fn4 1463  -0.073   2.202   0.577  0.3797 -0.2492 -0.1031
  238ntf    fn4 1464  -0.204   2.271   0.717  0.8343  0.0353 -0.0827
  239ntf    cn1 1465   0.273   0.949   5.165  0.2744  0.0252 -0.0982
  239ntf    sn2 1466   0.159   0.871   5.047  0.0641  0.2089 -0.0159
  239ntf    nn3 1467   0.154   0.980   4.934 -0.6954  0.1601 -0.0379
  239ntf    sn2 1468   0.111   0.958   4.785 -0.4375 -0.3052 -0.0477
  239ntf    cn1 1469   0.001   1.100   4.755  0.0331  0.2264  0.7033
  239ntf    fn4 1470   0.297   0.870   5.269  0.2067  0.0603 -0.0560
  239ntf    fn4 1471   0.392   0.973   5.111  0.1676  0.0114 -0.3400
  239ntf    fn4 1472   0.221   1.058   5.217  0.1247  0.0890 -0.3800
  239ntf    on5 1473   0.222   0.745   5.014  0.2372  0.1123  0.6642
  239ntf    on5 1474   0.036   0.874   5.123 -0.0769 -0.2680 -0.2227
  239ntf    on5 1475   0.010   0.857   4.767 -0.4287 -0.2838 -0.2256
  239ntf    on5 1476   0.222   0.970   4.693  0.5045  0.8320  1.1975
  239ntf    fn4 1477   0.066   1.215   4.758  0.0342  0.2543 -0.0292
  239ntf    fn4 1478  -0.055   1.095   4.635  0.5817  0.1166  0.4498
  239ntf    fn4 1479  -0.090   1.111   4.850 -0.5057 -0.1326  0.2366
  240ntf    cn1 1480   1.582   0.273   1.676  0.2505  0.2271  0.0038
  240ntf    sn2 1481   1.663   0.277   1.513 -0.0045 -0.3624 -0.1438
  240ntf    nn3 1482   1.808   0.314   1.562  0.1345 -0.2413 -0.6387
  240ntf    sn2 1483   1.874   0.455   1.577 -0.1371 -0.1961  0.2112
  240ntf    cn1 1484   1.923   0.488   1.405 -0.3278 -0.3854  0.1214
  240ntf    fn4 1485   1.561   0.397   1.716  0.1466  0.0966  0.3589
  240ntf    fn4 1486   1.463   0.215   1.675  0.4803 -0.2686  0.6807
  240ntf    fn4 1487   1.657   0.216   1.769 -0.0319 -0.1979 -0.0249
  240ntf    on5 1488   1.657   0.137   1.480  0.5548 -0.3382 -0.3600
  240ntf    on5 1489   1.583   0.375   1.444 -0.4049 -0.1398  0.6238
  240ntf    on5 1490   2.005   0.457   1.637  0.0863  0.7552 -0.2913
  240ntf    on5 1491   1.787   0.568   1.599  0.3993  0.3027 -0.1758
  240ntf    fn4 1492   1.947   0.617   1.391  0.2989 -0.5073  0.0688
  240ntf    fn4 1493   2.032   0.424   1.366 -0.1059 -0.0057  0.1130
  240ntf    fn4 1494   1.822   0.458   1.324 -0.1953 -0.3878 -0.0442
  241ntf    cn1 1495   1.716   1.092   0.944  0.2426 -0.3549  0.1428
  241ntf    sn2 1496   1.604   1.210   1.026  0.2766 -0.0524 -0.2447
  241ntf    nn3 1497   1.483   1.189   0.928  0.0603 -0.0457  0.0206
  241ntf    sn2 1498   1.340   1.129   0.951  0.1357 -0.2602 -0.0609
  241ntf    cn1 1499   1.260   1.291   0.975 -0.1420 -0.4676  0.4263
  241ntf    fn4 1500   1.840   1.110   0.986  0.2425  0.4814 -0.1925
  241ntf    fn4 1501   1.682   0.968   0.975  0.3313 -0.1885  0.9148
  241ntf    fn4 1502   1.712   1.106   0.812 -0.3681 -0.4391  0.1478
  241ntf    on5 1503   1.578   1.170   1.162  0.0234  0.3179 -0.1827
  241ntf    on5 1504   1.672   1.337   1.010 -0.3754  0.2715 -0.4883
  241ntf    on5 1505   1.316   1.060   1.075 -0.5753  0.2228  0.0783
  241ntf    on5 1506   1.279   1.070   0.834 -0.3927 -0.2502  0.2065
  241ntf    fn4 1507   1.134   1.283   1.014 -0.1738 -0.4766  0.3231
  241ntf    fn4 1508   1.337   1.359   1.059  0.1506 -0.6437  0.3006
  241ntf    fn4 1509   1.263   1.358   0.861 -0.1496 -0.8509  0.1995
  242ntf    cn1 1510   1.724   0.411   5.971 -0.3575 -0.2785 -0.2073
  242ntf    sn2 1511   1.659   0.306   6.104 -0.2711  0.0417  0.0875
  242ntf    nn3 1512   1.752   0.357   6.220 -0.3464 -0.2477  0.2773
  242ntf    sn2 1513   1.791   0.279   6.351  0.1166 -0.0965  0.2341
  242ntf    cn1 1514   1.794   0.421   6.464  0.3801 -0.1618  0.3070
  242ntf    fn4 1515   1.839   0.373   5.917  0.1341  0.6625  0.1554
  242ntf    fn4 1516   1.642   0.426   5.867 -0.0808 -0.1692 -0.4103
  242ntf    fn4 1517   1.755   0.530   6.020 -0.1537 -0.2793 -0.3315
  242ntf    on5 1518   1.523   0.354   6.119 -0.2151  0.1785  0.1644
  242ntf    on5 1519   1.683   0.173   6.055 -0.1411  0.1564 -0.1627
  242ntf    on5 1520   1.928   0.237   6.357  0.3066  0.5614  0.5453
  242ntf    on5 1521   1.695   0.189   6.409  0.7915 -0.7078  0.4087
  242ntf    fn4 1522   1.825   0.388   6.588  0.0912 -0.5386  0.2775
  242ntf    fn4 1523   1.890   0.505   6.430 -0.0825  0.1005 -0.3638
  242ntf    fn4 1524   1.681   0.489   6.462  0.3509 -0.2298 -0.5810
  243ntf    cn1 1525   1.891   0.699   3.212  0.0382 -0.4195 -0.1496
  243ntf    sn2 1526   1.897   0.517   3.211  0.4303 -0.4095  0.1846
  243ntf    nn3 1527   1.889   0.492   3.366 -0.5016 -0.0952  0.1938
  243ntf    sn2 1528   1.986   0.410   3.459 -0.3519  0.0662  0.1798
  243ntf    cn1 1529   1.864   0.308   3.546 -0.5547  0.1833  0.0335
  243ntf    fn4 1530   1.920   0.761   3.099 -0.8105  0.6597  0.2014
  243ntf    fn4 1531   1.765   0.727   3.241  0.3305  0.9863 -0.1466
  243ntf    fn4 1532   1.956   0.745   3.318 -0.2715 -0.3628  0.0172
  243ntf    on5 1533   1.784   0.473   3.134  0.3821  0.0324 -0.0007
  243ntf    on5 1534   2.024   0.494   3.147  0.3404  0.1346 -0.1962
  243ntf    on5 1535   2.043   0.496   3.559  0.1839  0.3026 -0.3222
  243ntf    on5 1536   2.066   0.310   3.393 -0.4607  0.3248 -0.3508
  243ntf    fn4 1537   1.830   0.201   3.477 -0.0905 -0.1515  0.3188
  243ntf    fn4 1538   1.909   0.267   3.663 -0.2086  0.1617 -0.1078
  243ntf    fn4 1539   1.756   0.381   3.572 -0.6667  0.0521 -0.0675
  244ntf    cn1 1540   1.783   1.245   0.023 -0.1562 -0.0513 -0.1554
  244ntf    sn2 1541   1.882   1.385  -0.036 -0.0679  0.1289  0.4155
  244ntf    nn3 1542   1.771   1.436  -0.135  0.1259 -0.2900 -0.0192
  244ntf    sn2 1543   1.759   1.583  -0.189 -0.2582 -0.3188 -0.0164
  244ntf    cn1 1544   1.671   1.655  -0.047  0.2430 -0.1920  0.2326
  244ntf    fn4 1545   1.839   1.160   0.109 -0.0694  0.5580  0.3974
  244ntf    fn4 1546   1.671   1.282   0.083  0.5326  0.7620  0.6455
  244ntf    fn4 1547   1.737   1.172  -0.077 -0.2712  0.5716 -0.5623
  244ntf    on5 1548   1.899   1.458   0.088  0.2778  0.2704  0.2861
  244ntf    on5 1549   1.987   1.319  -0.108 -0.7004 -0.1335 -0.2720
  244ntf    on5 1550   1.672   1.589  -0.303  0.1182 -0.1467 -0.2944
  244ntf    on5 1551   1.890   1.643  -0.196 -0.3692 -0.0951 -0.1829
  244ntf    fn4 1552   1.736   1.654   0.068  0.5965  0.0785  0.0373
  244ntf    fn4 1553   1.644   1.783  -0.061  0.2033 -0.2073  0.1717
  244ntf    fn4 1554   1.556   1.595  -0.021  0.2039 -0.1137  0.2398
  245ntf    cn1 1555   0.280   2.087   4.885  0.2623 -0.1008  0.1019
  245ntf    sn2 1556   0.199   2.250   4.888 -0.2311 -0.3423  0.1143
  245ntf    nn3 1557   0.246   2.309   4.750  0.2068  0.3585  0.5574
  245ntf    sn2 1558   0.163   2.380   4.637  0.5155  0.0388  0.1288
  245ntf    cn1 1559   0.122   2.237   4.532 -0.2443  0.3621 -0.0228
  245ntf    fn4 1560   0.412   2.096   4.879  0.2597  0.0765  0.2788
  245ntf    fn4 1561   0.254   2.015   4.993  0.2416  0.5101  0.5078
  245ntf    fn4 1562   0.237   2.012   4.785 -0.0239 -0.1008  0.2215
  245ntf    on5 1563   0.063   2.207   4.909 -0.2731  0.0128  0.5768
  245ntf    on5 1564   0.260   2.317   5.000  0.2959  0.2260 -0.4954
  245ntf    on5 1565   0.240   2.463   4.547  0.0598  0.0754 -0.2302
  245ntf    on5 1566   0.036   2.432   4.681  0.6318  0.1806  0.2957
  245ntf    fn4 1567   0.230   2.160   4.530 -0.3362  0.2015  0.8054
  245ntf    fn4 1568   0.021   2.161   4.569 -0.0201  0.0156 -0.1184
  245ntf    fn4 1569   0.097   2.281   4.409 -0.2883  0.2123 -0.0668
  246ntf    cn1 1570   0.568   0.971   0.610 -0.3697 -0.2808 -0.1787
  246ntf    sn2 1571   0.499   0.978   0.442 -0.4567 -0.0034 -0.1330
  246ntf    nn3 1572   0.625   1.040   0.371 -0.1242  0.2416  0.6661
  246ntf    sn2 1573   0.635   1.160   0.271 -0.1592 -0.2693  0.0459
  246ntf    cn1 1574   0.750   1.093   0.147  0.2550  0.1121  0.2225
  246ntf    fn4 1575   0.477   0.938   0.700  0.3371  0.1691  0.7155
  246ntf    fn4 1576   0.657   0.874   0.624 -0.3590 -0.2128  0.2452
  246ntf    fn4 1577   0.626   1.083   0.650 -0.6257 -0.2350  0.0676
  246ntf    on5 1578   0.491   0.838   0.409 -0.7990  0.0470 -0.2607
  246ntf    on5 1579   0.378   1.055   0.455 -0.3193  0.1606  0.1681
  246ntf    on5 1580   0.706   1.269   0.332 -0.2957 -0.1095 -0.0810
  246ntf    on5 1581   0.510   1.189   0.204  0.0112 -0.3221 -0.2981
  246ntf    fn4 1582   0.695   0.994   0.079 -0.4429  0.5091  0.2090
  246ntf    fn4 1583   0.789   1.188   0.064 -0.2339 -0.1443 -0.3053
  246ntf    fn4 1584   0.860   1.038   0.198  0.0321  0.0987  0.6914
  247ntf    cn1 1585   1.665   1.355   2.730  0.6934 -0.2878 -0.0294
  247ntf    sn2 1586   1.681   1.521   2.803  0.2043 -0.4430  0.4426
  247ntf    nn3 1587   1.780   1.575   2.694  0.0657 -0.0227  0.5239
  247ntf    sn2 1588   1.790   1.712   2.619 -0.0202 -0.2935  0.0150
  247ntf    cn1 1589   1.735   1.676   2.449 -0.2063 -0.2135  0.0578
  247ntf    fn4 1590   1.606   1.272   2.815  0.5231 -0.4935 -0.3441
  247ntf    fn4 1591   1.597   1.356   2.616  0.4318  0.5820  0.1268
  247ntf    fn4 1592   1.782   1.301   2.705  0.6126 -0.3934 -0.1780
  247ntf    on5 1593   1.549   1.578   2.802  0.6753  0.6518 -0.4730
  247ntf    on5 1594   1.749   1.504   2.930 -0.0848  0.0250  0.6600
  247ntf    on5 1595   1.921   1.766   2.593 -0.4288  0.8393  0.2374
  247ntf    on5 1596   1.700   1.813   2.670 -0.1940  0.0363 -0.9246
  247ntf    fn4 1597   1.616   1.618   2.450 -0.0308 -0.5757 -0.0623
  247ntf    fn4 1598   1.722   1.778   2.366 -0.2885 -0.4737 -0.2505
  247ntf    fn4 1599   1.808   1.586   2.384 -0.4929 -0.6002  0.2632
  248ntf    cn1 1600   2.272   0.058   6.280  0.0783 -0.5513 -0.0715
  248ntf    sn2 1601   2.444   0.116   6.264 -0.1716  0.2519  0.1213
  248ntf    nn3 1602   2.453   0.207   6.392 -0.6066 -0.1368  0.4335
  248ntf    sn2 1603   2.524   0.345   6.413  0.0531 -0.3619 -0.2736
  248ntf    cn1 1604   2.391   0.468   6.418  0.3418 -0.0392 -0.4906
  248ntf    fn4 1605   2.252  -0.002   6.396  0.5070  0.0707  0.3263
  248ntf    fn4 1606   2.184   0.155   6.263  0.2606 -0.2583  0.6649
  248ntf    fn4 1607   2.261  -0.030   6.182 -1.0047  0.0078 -0.4718
  248ntf    on5 1608   2.530   0.000   6.272  0.0855  0.4412  0.0888
  248ntf    on5 1609   2.441   0.191   6.141  0.0042  0.3801  0.1949
  248ntf    on5 1610   2.613   0.369   6.302 -0.6575 -0.0894 -0.7915
  248ntf    on5 1611   2.586   0.358   6.543 -0.3568 -0.1006 -0.1033
  248ntf    fn4 1612   2.430   0.592   6.446 -0.3311  0.2490 -0.8007
  248ntf    fn4 1613   2.333   0.469   6.299  0.3522  0.4987 -0.4960
  248ntf    fn4 1614   2.296   0.430   6.502  0.1797 -0.5425 -0.8930
  249ntf    cn1 1615   1.469   1.605   4.407  0.2331 -0.5896 -0.5139
  249ntf    sn2 1616   1.604   1.633   4.525 -0.2345  0.1849 -0.1541
  249ntf    nn3 1617   1.533   1.712   4.640 -0.3795 -0.8368  0.4760
  249ntf    sn2 1618   1.567   1.716   4.793  0.2413 -0.1177  0.3243
  249ntf    cn1 1619   1.583   1.897   4.810 -0.2455 -0.0520  0.1113
  249ntf    fn4 1620   1.485   1.500   4.327 -0.1840 -0.3522 -0.9165
  249ntf    fn4 1621   1.352   1.586   4.466  0.0052  0.0174 -0.7622
  249ntf    fn4 1622   1.440   1.709   4.331  0.5273 -0.2337 -0.1391
  249ntf    on5 1623   1.642   1.497   4.556  0.0875  0.2446 -0.2913
  249ntf    on5 1624   1.701   1.709   4.451  0.6387 -0.4273  0.3392
  249ntf    on5 1625   1.693   1.664   4.840  0.1113  0.1063  0.9413
  249ntf    on5 1626   1.454   1.693   4.880 -0.3015  0.2514 -0.2679
  249ntf    fn4 1627   1.633   1.933   4.927 -0.0465 -0.4949  0.1645
  249ntf    fn4 1628   1.657   1.953   4.716  0.5819 -0.2274  0.6429
  249ntf    fn4 1629   1.462   1.949   4.807  0.1104  0.7632 -0.5856
  250ntf    cn1 1630   1.463   1.498   1.977 -0.0323  0.2220  0.0296
  250ntf    sn2 1631   1.339   1.379   2.036 -0.1256  0.3214  0.0347
  250ntf    nn3 1632   1.380   1.248   1.961 -0.2007  0.4686 -0.2642
  250ntf    sn2 1633   1.314   1.187   1.832 -0.2872  0.1737 -0.0789
  250ntf    cn1 1634   1.251   1.031   1.901  0.0768  0.0547 -0.0126
  250ntf    fn4 1635   1.455   1.607   2.052  0.3207 -0.0346  0.4373
  250ntf    fn4 1636   1.590   1.464   1.991 -0.1545  0.1637  1.1060
  250ntf    fn4 1637   1.439   1.533   1.851 -0.0551 -0.4546 -0.1532
  250ntf    on5 1638   1.367   1.366   2.177 -0.6867  0.9178  0.2090
  250ntf    on5 1639   1.214   1.443   2.004 -0.4817  0.0694  0.8796
  250ntf    on5 1640   1.413   1.145   1.736 -0.0496 -0.5210  0.4548
  250ntf    on5 1641   1.195   1.255   1.787 -0.4434 -0.1638 -0.1825
  250ntf    fn4 1642   1.140   1.042   1.973  0.0254 -0.6978  0.0329
  250ntf    fn4 1643   1.221   0.951   1.800 -0.6311  0.1215  0.1369
  250ntf    fn4 1644   1.344   0.975   1.977  0.0601  0.2816  0.1768
  251ntf    cn1 1645   0.963   1.723   1.259 -0.5644 -0.2203 -0.1749
  251ntf    sn2 1646   0.810   1.645   1.318 -0.4102 -0.1367  0.3414
  251ntf    nn3 1647   0.725   1.769   1.364  0.1993  0.4991 -0.2203
  251ntf    sn2 1648   0.569   1.770   1.346  0.1215  0.0415  0.4132
  251ntf    cn1 1649   0.541   1.798   1.169  0.2172 -0.2477  0.3526
  251ntf    fn4 1650   1.024   1.791   1.354  0.0102 -0.6714 -0.2136
  251ntf    fn4 1651   1.053   1.627   1.242  0.0135  0.4053 -0.7055
  251ntf    fn4 1652   0.968   1.796   1.149  0.4532 -0.0481 -0.0324
  251ntf    on5 1653   0.767   1.572   1.201  0.6054  0.3602 -0.3630
  251ntf    on5 1654   0.858   1.573   1.434  0.2820  0.3814  0.3849
  251ntf    on5 1655   0.517   1.885   1.416  0.6230  0.4530  0.1133
  251ntf    on5 1656   0.508   1.642   1.375 -0.0981  0.1827  0.5807
  251ntf    fn4 1657   0.419   1.839   1.136  0.2554 -0.2376  0.2215
  251ntf    fn4 1658   0.627   1.891   1.129  0.2241 -0.0637  0.7958
  251ntf    fn4 1659   0.569   1.692   1.095  0.1883  0.2238 -0.3398
  252ntf    cn1 1660   0.925   1.207   5.106  0.0330  0.3171  0.0057
  252ntf    sn2 1661   0.975   1.320   4.973  0.4633  0.4010  0.2362
  252ntf    nn3 1662   0.840   1.397   4.955  0.1487 -0.0337  0.7230
  252ntf    sn2 1663   0.797   1.538   5.011  0.1293  0.1129  0.3403
  252ntf    cn1 1664   0.656   1.501   5.119 -0.2619  0.1661 -0.1500
  252ntf    fn4 1665   0.836   1.120   5.062  0.1738 -0.2037  0.7320
  252ntf    fn4 1666   1.018   1.126   5.153  0.4727  0.6940 -0.2084
  252ntf    fn4 1667   0.880   1.281   5.207 -0.5412 -0.6509  0.4715
  252ntf    on5 1668   1.097   1.385   5.014  0.3890  0.2324  0.7300
  252ntf    on5 1669   0.986   1.235   4.856 -0.1439  0.3500  0.2150
  252ntf    on5 1670   0.752   1.622   4.903  0.3674  0.1140  0.2408
  252ntf    on5 1671   0.889   1.599   5.104  0.6000 -0.0446 -0.0177
  252ntf    fn4 1672   0.615   1.592   5.205 -0.0127 -0.6016  0.7993
  252ntf    fn4 1673   0.553   1.463   5.045 -0.0471 -0.0952 -0.3177
  252ntf    fn4 1674   0.674   1.393   5.194  0.1726  0.1603 -0.2600
  253ntf    cn1 1675   1.265   1.254   3.146  0.0594  0.3873 -0.3963
  253ntf    sn2 1676   1.343   1.378   3.254 -0.0108  0.2873 -0.2293
  253ntf    nn3 1677   1.290   1.350   3.399  0.3037  0.3269 -0.1055
  253ntf    sn2 1678   1.378   1.301   3.520 -0.1834 -0.0293  0.1084
  253ntf    cn1 1679   1.447   1.459   3.577  0.0323 -0.1838  0.2728
  253ntf    fn4 1680   1.331   1.140   3.154 -0.0583  0.2894 -0.8091
  253ntf    fn4 1681   1.143   1.226   3.190  0.2745  0.0782  0.0217
  253ntf    fn4 1682   1.262   1.285   3.018  0.4310  0.2898 -0.4290
  253ntf    on5 1683   1.485   1.363   3.232  0.0403  0.2160  0.1453
  253ntf    on5 1684   1.277   1.494   3.201 -0.3464  0.1157 -0.1876
  253ntf    on5 1685   1.487   1.214   3.486  0.1160  0.5057 -0.3198
  253ntf    on5 1686   1.299   1.267   3.636 -0.1135  0.9433  0.4522
  253ntf    fn4 1687   1.528   1.503   3.482 -0.2591 -0.4382 -0.0953
  253ntf    fn4 1688   1.362   1.560   3.583  0.4141  0.1718 -0.1975
  253ntf    fn4 1689   1.512   1.458   3.692  0.5320 -0.6537 -0.0088
  254ntf    cn1 1690   1.145   0.390   1.455 -0.3893  0.1893  0.0716
  254ntf    sn2 1691   1.153   0.344   1.279 -0.2135  0.5666 -0.0200
  254ntf    nn3 1692   1.166   0.485   1.211 -0.2834  0.3652 -0.4546
  254ntf    sn2 1693   1.058   0.583   1.155 -0.4686  0.1684 -0.4448
  254ntf    cn1 1694   1.077   0.529   0.983  0.0292 -0.2232 -0.2674
  254ntf    fn4 1695   1.110   0.284   1.527 -0.0673 -0.2281 -0.3761
  254ntf    fn4 1696   1.259   0.437   1.503 -0.3138 -0.6751  0.7711
  254ntf    fn4 1697   1.058   0.487   1.476 -0.0979  0.4061  0.2711
  254ntf    on5 1698   1.277   0.271   1.277 -0.6908 -0.2509 -0.0839
  254ntf    on5 1699   1.036   0.266   1.248  0.3632 -0.0084 -0.7567
  254ntf    on5 1700   1.110   0.718   1.152  0.1744 -0.0820 -0.6374
  254ntf    on5 1701   0.917   0.569   1.181 -0.5411 -0.0050 -0.9158
  254ntf    fn4 1702   1.201   0.546   0.939 -0.0557  0.8603 -0.1143
  254ntf    fn4 1703   1.043   0.402   0.970 -0.4854 -0.1593  0.4447
  254ntf    fn4 1704   1.003   0.600   0.900  0.7849  0.9118  0.0033
  255ntf    cn1 1705   1.744   0.474   5.426 -0.3392 -0.5707  0.1142
  255ntf    sn2 1706   1.610   0.596   5.415 -0.0306 -0.2521 -0.1010
  255ntf    nn3 1707   1.699   0.724   5.399  0.3608 -0.4959  0.1146
  255ntf    sn2 1708   1.755   0.785   5.265 -0.3266 -0.1052 -0.0012
  255ntf    cn1 1709   1.749   0.960   5.312 -0.4121 -0.1559  0.1771
  255ntf    fn4 1710   1.846   0.512   5.501 -0.1065 -0.2617 -0.3567
  255ntf    fn4 1711   1.714   0.358   5.484 -0.5044 -0.5620  0.0482
  255ntf    fn4 1712   1.794   0.457   5.305 -0.0350  0.1864  0.1342
  255ntf    on5 1713   1.535   0.564   5.296 -0.0497  0.2214 -0.2187
  255ntf    on5 1714   1.544   0.577   5.542 -0.3488  0.4023 -0.1649
  255ntf    on5 1715   1.676   0.784   5.145 -0.1605  0.4765 -0.1159
  255ntf    on5 1716   1.897   0.776   5.242 -0.2978 -0.2879  0.2374
  255ntf    fn4 1717   1.800   1.043   5.222  0.3599  0.0385  0.7790
  255ntf    fn4 1718   1.623   0.999   5.325 -0.3973 -0.0112 -0.1209
  255ntf    fn4 1719   1.808   0.988   5.428 -0.3797 -0.0174  0.1271
  256ntf    cn1 1720   1.882   0.286   4.171  0.3446  0.3294  0.2511
  256ntf    sn2 1721   1.963   0.256   4.331  0.0674 -0.0858  0.3162
  256ntf    nn3 1722   2.106   0.313   4.301  0.0836  0.0222  0.5911
  256ntf    sn2 1723   2.185   0.439   4.353  0.2887  0.2471 -0.2504
  256ntf    cn1 1724   2.286   0.340   4.467 -0.3275 -0.0156  0.0697
  256ntf    fn4 1725   1.753   0.257   4.177  0.3789  0.1756  0.2671
  256ntf    fn4 1726   1.889   0.411   4.129  0.4808  0.3334  0.2851
  256ntf    fn4 1727   1.926   0.207   4.074  0.0606  0.4114  0.0559
  256ntf    on5 1728   1.886   0.334   4.425  0.5439 -0.0917  0.7196
  256ntf    on5 1729   1.959   0.113   4.346  0.3210 -0.0409  0.8573
  256ntf    on5 1730   2.112   0.526   4.441 -0.1858 -0.3836 -0.0053
  256ntf    on5 1731   2.287   0.489   4.264  0.0490  0.5810 -0.3393
  256ntf    fn4 1732   2.335   0.234   4.405 -0.1208  0.1095  0.0205
  256ntf    fn4 1733   2.390   0.410   4.510 -0.4357  0.2039 -0.0235
  256ntf    fn4 1734   2.214   0.298   4.570 -0.4836 -0.3230 -0.1612
  257ntf    cn1 1735   1.110   2.229   4.693  0.2599  0.0220 -0.4041
  257ntf    sn2 1736   1.060   2.383   4.612 -0.7548  0.0488  0.2465
  257ntf    nn3 1737   0.949   2.429   4.714 -0.4371  0.4672  0.4104
  257ntf    sn2 1738   0.804   2.376   4.740 -0.3463 -0.2480 -0.4466
  257ntf    cn1 1739   0.708   2.520   4.683  0.4133  0.5722  0.3184
  257ntf    fn4 1740   1.211   2.242   4.777  0.3514  0.0784 -0.5233
  257ntf    fn4 1741   1.004   2.189   4.763  0.2625  0.3000 -0.2402
  257ntf    fn4 1742   1.129   2.130   4.608 -0.3863 -0.4678  0.0070
  257ntf    on5 1743   1.173   2.470   4.633 -0.1030 -0.8694  0.6205
  257ntf    on5 1744   1.014   2.359   4.478  0.0769 -0.8151  0.1048
  257ntf    on5 1745   0.794   2.369   4.884  0.1886 -0.0234 -0.3956
  257ntf    on5 1746   0.779   2.258   4.662 -0.0369 -0.4914 -0.1789
  257ntf    fn4 1747   0.580   2.496   4.706  0.3767  0.1329 -0.3319
  257ntf    fn4 1748   0.726   2.634   4.748 -0.0110  0.4138  0.7168
  257ntf    fn4 1749   0.719   2.544   4.553 -0.0912 -0.5966  0.0507
  258ntf    cn1 1750   0.397   1.622   2.602 -0.0892 -0.3386 -0.4908
  258ntf    sn2 1751   0.240   1.676   2.528  0.0079  0.1565 -0.3403
  258ntf    nn3 1752   0.180   1.776   2.634  0.0457  0.1589 -0.3212
  258ntf    sn2 1753   0.122   1.921   2.620 -0.8712 -0.1918 -0.1996
  258ntf    cn1 1754  -0.041   1.874   2.555 -0.5704 -0.2122 -0.9522
  258ntf    fn4 1755   0.370   1.541   2.703 -0.1538  0.1780 -0.0870
  258ntf    fn4 1756   0.475   1.555   2.520  0.1967 -0.6405  0.0268
  258ntf    fn4 1757   0.459   1.727   2.652  0.1206 -0.3785 -0.6674
  258ntf    on5 1758   0.274   1.729   2.398  0.5929  0.2087 -0.1691
  258ntf    on5 1759   0.170   1.550   2.534  0.5745 -0.1491 -0.1623
  258ntf    on5 1760   0.179   2.008   2.520  0.3036 -0.6682  0.0420
  258ntf    on5 1761   0.080   1.976   2.747 -0.1217  0.4286 -0.2162
  258ntf    fn4 1762  -0.026   1.778   2.466 -0.1515 -0.6204 -0.4472
  258ntf    fn4 1763  -0.126   1.840   2.651  0.4289  0.0900  0.0594
  258ntf    fn4 1764  -0.092   1.976   2.488 -0.7863  0.3028 -0.0317
  259ntf    cn1 1765   0.646   0.558   2.312  0.4809 -0.0581 -0.4098
  259ntf    sn2 1766   0.792   0.605   2.214  0.3940  0.3519 -0.3431
  259ntf    nn3 1767   0.890   0.652   2.327 -0.2454  0.5434  0.1446
  259ntf    sn2 1768   0.996   0.569   2.408 -0.2725 -0.0450 -0.4098
  259ntf    cn1 1769   1.139   0.598   2.299  0.1991 -0.2181  0.1539
  259ntf    fn4 1770   0.678   0.521   2.435 -0.5234 -0.4414 -0.2531
  259ntf    fn4 1771   0.563   0.659   2.333  0.4481 -0.0739 -0.4643
  259ntf    fn4 1772   0.572   0.469   2.249 -0.2986  0.0066  0.3912
  259ntf    on5 1773   0.823   0.480   2.149 -0.4475 -0.3444  0.5599
  259ntf    on5 1774   0.735   0.713   2.136  0.0756  0.6194  0.2503
  259ntf    on5 1775   0.983   0.426   2.422 -0.3463  0.0114  0.1128
  259ntf    on5 1776   1.025   0.637   2.532 -0.1958 -0.8193  0.0058
  259ntf    fn4 1777   1.256   0.554   2.341  0.3241 -0.2900 -0.2667
  259ntf    fn4 1778   1.111   0.552   2.178  0.0009  0.2988  0.0003
  259ntf    fn4 1779   1.161   0.726   2.274 -0.2313 -0.0581  0.5788
  260ntf    cn1 1780   0.905   0.644   5.635 -0.2837 -0.6174 -0.2130
  260ntf    sn2 1781   1.010   0.501   5.598  0.1325 -0.3960  0.1062
  260ntf    nn3 1782   0.936   0.391   5.682 -0.4236 -0.3931 -0.3750
  260ntf    sn2 1783   1.002   0.256   5.729  0.2008  0.1436  0.3066
  260ntf    cn1 1784   0.970   0.284   5.906 -0.0110  0.0170  0.2880
  260ntf    fn4 1785   0.926   0.667   5.764 -0.4760 -0.3604 -0.2268
  260ntf    fn4 1786   0.938   0.754   5.570  0.0008 -0.6793 -0.1741
  260ntf    fn4 1787   0.776   0.619   5.613 -0.4249  0.0580 -0.1738
  260ntf    on5 1788   0.994   0.484   5.456 -0.0867  0.3373  0.0436
  260ntf    on5 1789   1.141   0.547   5.637  0.1495 -0.4074  0.0634
  260ntf    on5 1790   1.145   0.256   5.721  0.1835  0.1503 -0.0094
  260ntf    on5 1791   0.937   0.129   5.709 -0.3677  0.4438  0.2188
  260ntf    fn4 1792   0.845   0.315   5.938 -0.1270 -0.0702 -0.0801
  260ntf    fn4 1793   1.016   0.182   5.977 -0.1755 -0.4656 -0.2892
  260ntf    fn4 1794   1.035   0.392   5.947  0.2334 -0.1100  0.2301
  261ntf    cn1 1795   2.213   2.257   3.464 -0.0139  0.0610  0.5618
  261ntf    sn2 1796   2.207   2.075   3.453  0.1451  0.0636  0.4337
  261ntf    nn3 1797   2.339   2.047   3.533  0.6112 -0.2098 -0.4174
  261ntf    sn2 1798   2.357   2.026   3.688 -0.0554  0.2816 -0.2706
  261ntf    cn1 1799   2.491   1.904   3.679 -0.2584  0.0490 -0.1549
  261ntf    fn4 1800   2.112   2.315   3.403  0.2574  0.0516  0.0965
  261ntf    fn4 1801   2.207   2.301   3.588 -0.5789  0.2818  0.4566
  261ntf    fn4 1802   2.327   2.300   3.413 -0.5033 -0.0672 -0.6827
  261ntf    on5 1803   2.082   2.034   3.512 -0.1035  0.1126 -0.0534
  261ntf    on5 1804   2.225   2.046   3.312 -0.5994 -0.6612  0.4822
  261ntf    on5 1805   2.256   1.948   3.755  0.6511 -0.1248  0.3317
  261ntf    on5 1806   2.419   2.135   3.759 -0.5374  0.2623  0.1881
  261ntf    fn4 1807   2.592   1.962   3.616 -0.1216 -0.4582 -0.4140
  261ntf    fn4 1808   2.536   1.868   3.798  0.0015  0.3662 -0.1562
  261ntf    fn4 1809   2.463   1.792   3.614  0.5932 -0.3015  0.0712
  262ntf    cn1 1810   2.347   1.647   1.772  0.8038 -0.0846  0.1301
  262ntf    sn2 1811   2.323   1.794   1.877 -0.2479  0.0211 -0.2505
  262ntf    nn3 1812   2.325   1.912   1.774  0.0755  0.0226 -0.2421
  262ntf    sn2 1813   2.335   2.065   1.807 -0.4614  0.0290 -0.1028
  262ntf    cn1 1814   2.247   2.124   1.659  0.0624  0.2609 -0.3253
  262ntf    fn4 1815   2.371   1.536   1.841 -0.3188 -0.0089  0.6721
  262ntf    fn4 1816   2.234   1.609   1.714  0.9200  0.6779 -0.6115
  262ntf    fn4 1817   2.438   1.664   1.678  0.0878  0.6909 -0.4380
  262ntf    on5 1818   2.191   1.779   1.934 -0.3147  0.3031 -0.3304
  262ntf    on5 1819   2.434   1.784   1.968 -0.2015  0.1901 -0.2893
  262ntf    on5 1820   2.466   2.118   1.779 -0.2185 -0.5201 -0.0079
  262ntf    on5 1821   2.266   2.116   1.923 -0.7440  0.4776 -0.4626
  262ntf    fn4 1822   2.261   2.254   1.637  0.1960  0.2927 -0.0568
  262ntf    fn4 1823   2.296   2.063   1.552 -0.4456  0.1974 -0.5264
  262ntf    fn4 1824   2.116   2.103   1.661  0.0210  0.5523  0.0333
  263ntf    cn1 1825   0.181   1.406   3.237 -0.0852 -0.1467  0.1268
  263ntf    sn2 1826   0.088   1.292   3.343 -0.1633 -0.0882  0.1215
  263ntf    nn3 1827   0.024   1.203   3.231  0.5526  0.1775 -0.5054
  263ntf    sn2 1828   0.037   1.049   3.203 -0.0256 -0.0365  0.3742
  263ntf    cn1 1829  -0.096   0.985   3.309 -0.3096  0.0565  0.0737
  263ntf    fn4 1830   0.241   1.340   3.139 -0.2908  0.0806 -0.1529
  263ntf    fn4 1831   0.099   1.489   3.174  0.1519 -0.1767 -0.2240
  263ntf    fn4 1832   0.275   1.479   3.295 -0.5953  0.7552 -0.1665
  263ntf    on5 1833   0.189   1.221   3.418  0.0094  0.5688  0.5122
  263ntf    on5 1834  -0.002   1.375   3.418 -0.4913 -0.0259 -0.3357
  263ntf    on5 1835   0.150   0.980   3.262  0.4737  0.3311 -0.1384
  263ntf    on5 1836  -0.018   1.006   3.077  0.7885 -0.0214  0.0040
  263ntf    fn4 1837  -0.219   0.987   3.260 -0.5529 -0.5578  0.6403
  263ntf    fn4 1838  -0.079   0.855   3.331 -0.0792  0.0560 -0.1099
  263ntf    fn4 1839  -0.106   1.046   3.426  0.0553 -0.2652  0.2740
  264ntf    cn1 1840   0.515   0.440   3.404 -0.2516 -0.0341 -0.0885
  264ntf    sn2 1841   0.384   0.359   3.308 -0.0767 -0.2391 -0.1553
  264ntf    nn3 1842   0.483   0.292   3.205  0.4168  0.3715 -0.0824
  264ntf    sn2 1843   0.482   0.310   3.049 -0.2757  0.2114 -0.1000
  264ntf    cn1 1844   0.641   0.232   3.007 -0.2486  0.1977  0.0262
  264ntf    fn4 1845   0.475   0.511   3.508  0.0512 -0.2065  0.1486
  264ntf    fn4 1846   0.599   0.354   3.461  0.3307  0.1571 -0.6529
  264ntf    fn4 1847   0.589   0.517   3.326 -0.0049 -0.3598 -0.1807
  264ntf    on5 1848   0.319   0.275   3.405  0.4690 -0.0734  0.3632
  264ntf    on5 1849   0.304   0.469   3.260  0.4333  0.4105  0.4548
  264ntf    on5 1850   0.502   0.445   3.002 -0.1687 -0.0247 -0.7397
  264ntf    on5 1851   0.384   0.227   2.986  0.0331 -0.1578 -0.0962
  264ntf    fn4 1852   0.742   0.309   3.042  0.0811 -0.0120 -0.4613
  264ntf    fn4 1853   0.663   0.114   3.064 -0.2426  0.3901  0.4231
  264ntf    fn4 1854   0.660   0.214   2.877  0.0511  0.3848  0.0442
  265ntf    cn1 1855   1.195   0.658   4.191  0.2345  0.0095  0.0877
  265ntf    sn2 1856   1.224   0.677   4.369 -0.1756  0.3608  0.1175
  265ntf    nn3 1857   1.098   0.753   4.424 -0.4934 -0.2705  0.2781
  265ntf    sn2 1858   1.086   0.887   4.506  0.2958  0.2167 -0.3784
  265ntf    cn1 1859   1.097   0.991   4.358 -0.0636  0.2538 -0.3795
  265ntf    fn4 1860   1.073   0.614   4.167  0.3937 -0.0860 -0.5764
  265ntf    fn4 1861   1.200   0.769   4.120 -0.1643 -0.6165 -0.9479
  265ntf    fn4 1862   1.286   0.577   4.139 -0.0866 -0.2352 -0.0959
  265ntf    on5 1863   1.215   0.538   4.408 -0.2121  0.3561  0.0930
  265ntf    on5 1864   1.346   0.753   4.380 -0.2835  0.5889 -0.2424
  265ntf    on5 1865   1.195   0.921   4.594  0.1740 -0.2883 -0.0271
  265ntf    on5 1866   0.950   0.905   4.550  0.5026  0.6095  0.1085
  265ntf    fn4 1867   1.212   0.981   4.294  0.2124  0.0667  0.1414
  265ntf    fn4 1868   1.005   0.958   4.269  0.1356  0.1439 -0.5450
  265ntf    fn4 1869   1.083   1.121   4.380  0.1680  0.3061 -0.5426
  266ntf    cn1 1870   0.293   1.531   4.280 -0.0593  0.1683 -0.4287
  266ntf    sn2 1871   0.417   1.472   4.160  0.2672 -0.2028  0.0858
  266ntf    nn3 1872   0.398   1.578   4.045  0.6479 -0.7215 -0.4625
  266ntf    sn2 1873   0.408   1.563   3.889  0.4350 -0.0914 -0.5411
  266ntf    cn1 1874   0.556   1.660   3.847  0.3198  0.4516  0.2882
  266ntf    fn4 1875   0.325   1.652   4.322 -0.0662  0.0772 -0.1619
  266ntf    fn4 1876   0.169   1.537   4.235 -0.2936 -0.2121  0.1560
  266ntf    fn4 1877   0.296   1.452   4.385  0.3862  0.5819 -0.1260
  266ntf    on5 1878   0.542   1.493   4.228  0.4972 -1.0705 -0.0590
  266ntf    on5 1879   0.382   1.338   4.120 -0.1676  0.1326 -0.6932
  266ntf    on5 1880   0.299   1.625   3.819 -0.1732 -0.2124  0.2844
  266ntf    on5 1881   0.446   1.431   3.844  0.2708 -0.4942  0.4662
  266ntf    fn4 1882   0.665   1.619   3.909  0.4170 -0.2111 -0.3217
  266ntf    fn4 1883   0.579   1.650   3.717  0.8057 -0.6173  0.4469
  266ntf    fn4 1884   0.545   1.790   3.870  0.2883  0.6504 -0.8276
  267ntf    cn1 1885   0.582   2.201   2.711  0.1898  0.3904 -0.2210
  267ntf    sn2 1886   0.717   2.159   2.597  0.4007  0.0469  0.1532
  267ntf    nn3 1887   0.771   2.035   2.677  0.1204  0.2578  0.6691
  267ntf    sn2 1888   0.907   1.958   2.665  0.1083  0.3650 -0.1950
  267ntf    cn1 1889   0.842   1.797   2.610  0.4486  0.1129  0.1330
  267ntf    fn4 1890   0.625   2.273   2.814 -0.4932  0.4079  0.0587
  267ntf    fn4 1891   0.486   2.269   2.650 -0.3703 -0.1982 -0.0064
  267ntf    fn4 1892   0.521   2.092   2.755  0.2122  0.2258 -0.5919
  267ntf    on5 1893   0.651   2.121   2.475  0.5279  0.2950  0.0067
  267ntf    on5 1894   0.801   2.276   2.599  0.4461  0.0120  0.2885
  267ntf    on5 1895   0.960   1.929   2.796 -0.1347  0.5118 -0.0629
  267ntf    on5 1896   1.000   1.999   2.564  0.4607 -0.2005 -0.1059
  267ntf    fn4 1897   0.933   1.706   2.579  0.7108  0.2826  0.4056
  267ntf    fn4 1898   0.761   1.749   2.702  0.3201 -0.5265 -0.3024
  267ntf    fn4 1899   0.762   1.809   2.505  0.2624 -0.4116  0.2122
  268ntf    cn1 1900   1.239   0.124   0.617 -0.1458 -0.1301  0.0864
  268ntf    sn2 1901   1.305   0.236   0.490 -0.0404 -0.0591  0.2033
  268ntf    nn3 1902   1.452   0.181   0.478  0.1762  0.6201 -0.3310
  268ntf    sn2 1903   1.524   0.088   0.375  0.2626  0.1064  0.1870
  268ntf    cn1 1904   1.657   0.190   0.305  0.1795  0.0871 -0.0014
  268ntf    fn4 1905   1.227   0.003   0.565  0.3152  0.2776 -0.9979
  268ntf    fn4 1906   1.314   0.119   0.726 -0.2789  0.2803  0.2006
  268ntf    fn4 1907   1.117   0.159   0.657 -0.1188 -0.3818  0.3984
  268ntf    on5 1908   1.225   0.220   0.372  0.1164  0.1510  0.0676
  268ntf    on5 1909   1.299   0.365   0.554  0.7242  0.3811 -0.5980
  268ntf    on5 1910   1.436   0.058   0.264  0.9078 -0.3975 -0.2000
  268ntf    on5 1911   1.594  -0.023   0.435  0.4255  0.5434  0.8063
  268ntf    fn4 1912   1.760   0.119   0.261  0.2958  0.3501 -0.1542
  268ntf    fn4 1913   1.621   0.265   0.202 -0.1866  0.3365  0.3024
  268ntf    fn4 1914   1.701   0.272   0.399 -0.2154  0.2288  0.0655
  269ntf    cn1 1915   0.023   1.757   6.187  0.1783 -0.2862 -0.1311
  269ntf    sn2 1916  -0.033   1.928   6.210  0.2527 -0.3066  0.2044
  269ntf    nn3 1917  -0.188   1.907   6.211  0.1140  0.6692  1.2889
  269ntf    sn2 1918  -0.304   1.999   6.157  0.0514 -0.1625 -0.0229
  269ntf    cn1 1919  -0.365   1.894   6.021 -0.0782 -0.4272  0.2382
  269ntf    fn4 1920   0.149   1.742   6.224  0.1519 -0.5116 -0.1285
  269ntf    fn4 1921  -0.039   1.674   6.270  0.1705  0.1636  0.3180
  269ntf    fn4 1922   0.002   1.711   6.065 -0.2132  0.6847 -0.4395
  269ntf    on5 1923   0.021   1.957   6.341  0.2286 -0.2709  0.2069
  269ntf    on5 1924   0.029   1.991   6.096 -0.2199 -0.4668 -0.1421
  269ntf    on5 1925  -0.265   2.120   6.090  0.0974 -0.1867 -0.0400
  269ntf    on5 1926  -0.419   2.007   6.244 -0.1729  0.0176 -0.3335
  269ntf    fn4 1927  -0.412   1.775   6.052 -0.2304 -0.4445 -0.0535
  269ntf    fn4 1928  -0.457   1.953   5.946  0.4989  0.3255  0.1084
  269ntf    fn4 1929  -0.267   1.874   5.935 -0.2069  0.3874 -0.1062
  270ntf    cn1 1930   0.160   0.317   0.987 -0.4850  0.1839 -0.2586
  270ntf    sn2 1931   0.170   0.443   0.856 -0.2242  0.5927  0.1539
  270ntf    nn3 1932   0.091   0.560   0.925 -0.5383  0.7116 -0.4066
  270ntf    sn2 1933   0.145   0.665   1.028  0.1710 -0.3431  0.3086
  270ntf    cn1 1934  -0.012   0.754   1.053  0.2943 -0.0145 -0.0887
  270ntf    fn4 1935   0.181   0.197   0.934 -0.6312  0.3626 -0.7256
  270ntf    fn4 1936   0.243   0.328   1.089 -0.6502  0.1540 -0.1210
  270ntf    fn4 1937   0.034   0.317   1.028 -0.2277 -0.4960  0.5657
  270ntf    on5 1938   0.311   0.456   0.831 -0.0530  0.4038  0.9819
  270ntf    on5 1939   0.100   0.388   0.743  0.6518  0.3261 -0.2589
  270ntf    on5 1940   0.243   0.753   0.970  0.3069 -1.0840 -0.6158
  270ntf    on5 1941   0.180   0.609   1.156  0.4931 -0.2216  0.2750
  270ntf    fn4 1942  -0.055   0.813   0.942  0.6379  0.5860  0.0942
  270ntf    fn4 1943  -0.104   0.660   1.065  0.0110  0.2295 -0.3477
  270ntf    fn4 1944  -0.006   0.840   1.153  0.7507 -0.3682  0.1954
   2.35451   2.35451   6.57698
