Converted from moscito
23760
    1SOL     ow    1   0.223   2.613   6.917  0.4485 -0.1977  0.0813
    1SOL     hw    2   0.211   2.696   6.962 -1.5873 -1.2259  1.6297
    1SOL     hw    3   0.206   2.633   6.825  1.1090  1.2741  0.2479
    1SOL     vw    4   0.219   2.626   6.911  0.2671 -0.1391  0.3073
    2SOL     ow    5   3.011   6.321   6.943 -0.0040 -0.2988 -0.1801
    2SOL     hw    6   3.083   6.330   6.881 -0.0434 -0.4591 -0.2508
    2SOL     hw    7   2.946   6.385   6.914 -0.1400 -0.5684 -0.4733
    2SOL     vw    8   3.012   6.331   6.931 -0.0271 -0.3555 -0.2284
    3SOL     ow    9   3.765   2.335   4.739  0.6223 -0.9629  0.7499
    3SOL     hw   10   3.856   2.355   4.715  1.0744 -2.0375  1.4903
    3SOL     hw   11   3.714   2.406   4.701  1.8452  0.0185  0.8995
    3SOL     vw   12   3.770   2.347   4.731  0.8433 -0.9751  0.8674
    4SOL     ow   13   5.167   0.154   5.638  0.1732 -0.7373  0.1058
    4SOL     hw   14   5.075   0.129   5.642 -0.2025  0.7754  1.5176
    4SOL     hw   15   5.168   0.238   5.592  1.2006 -2.0904 -2.5867
    4SOL     vw   16   5.155   0.162   5.632  0.2594 -0.7162 -0.0632
    5SOL     ow   17   6.982   3.602   1.662 -0.3057  0.2786 -0.2163
    5SOL     hw   18   7.040   3.676   1.681 -0.0031  0.3600 -1.3803
    5SOL     hw   19   7.018   3.530   1.714  1.4042  0.1011 -1.5630
    5SOL     vw   20   6.995   3.602   1.672 -0.0398  0.2660 -0.5475
    6SOL     ow   21   3.430   5.224   2.719 -0.1424 -0.3750  0.1986
    6SOL     hw   22   3.514   5.205   2.677  1.2079  0.9518  2.1084
    6SOL     hw   23   3.418   5.152   2.781  0.9622  0.7072  1.7591
    6SOL     vw   24   3.440   5.212   2.722  0.1814 -0.0572  0.6565
    7SOL     ow   25   1.559   2.441   3.207 -0.4269  0.1709  0.5231
    7SOL     hw   26   1.649   2.441   3.241 -0.1492  3.5967  0.1762
    7SOL     hw   27   1.569   2.429   3.113 -0.3739 -0.0494  0.5572
    7SOL     vw   28   1.573   2.440   3.199 -0.3833  0.5940  0.4818
    8SOL     ow   29   6.681   2.695   2.691 -0.3501 -0.7141 -0.4348
    8SOL     hw   30   6.681   2.769   2.630 -1.0265  0.1712  0.5934
    8SOL     hw   31   6.606   2.711   2.748  0.9884 -0.7706  1.4701
    8SOL     vw   32   6.671   2.707   2.691 -0.2627 -0.6047 -0.0477
    9SOL     ow   33   7.265   4.870   3.070 -0.2219 -0.5152  0.2479
    9SOL     hw   34   7.360   4.860   3.066  0.5020  3.7123  1.4966
    9SOL     hw   35   7.234   4.846   2.982  2.3168  0.0116 -0.8721
    9SOL     vw   36   7.273   4.866   3.057  0.2084  0.1123  0.2649
   10SOL     ow   37   3.966   4.656   6.544 -0.3536  0.4003 -0.0902
   10SOL     hw   38   3.920   4.728   6.502 -1.6129 -1.0791 -1.3788
   10SOL     hw   39   3.912   4.633   6.619 -0.4918  0.1574 -0.2625
   10SOL     vw   40   3.953   4.663   6.548 -0.5380  0.1733 -0.2830
   11SOL     ow   41   0.045   6.871   1.080  0.6570  0.0058 -0.1305
   11SOL     hw   42   0.129   6.861   1.035  0.8756 -2.0951  0.6312
   11SOL     hw   43  -0.017   6.889   1.009  1.1047 -2.5540 -1.3208
   11SOL     vw   44   0.048   6.872   1.065  0.7449 -0.6089 -0.1870
   12SOL     ow   45   0.692   4.389   6.917  0.1764  0.4945 -0.2162
   12SOL     hw   46   0.720   4.469   6.962  4.0984 -0.1061 -1.2274
   12SOL     hw   47   0.688   4.413   6.825 -0.2957 -0.0666 -0.3474
   12SOL     vw   48   0.695   4.403   6.911  0.6316  0.3412 -0.3672
   13SOL     ow   49   3.425   2.509   3.622 -0.0736  0.7192  0.5502
   13SOL     hw   50   3.381   2.499   3.538  1.8487 -0.1274 -0.4225
   13SOL     hw   51   3.439   2.604   3.631  1.0755  0.7179 -0.8693
   13SOL     vw   52   3.421   2.521   3.612  0.3316  0.6073  0.2345
   14SOL     ow   53   3.939   1.615   0.585  0.6297 -0.1609 -0.6277
   14SOL     hw   54   3.875   1.629   0.654  0.8905 -1.4623 -0.1099
   14SOL     hw   55   3.930   1.523   0.561 -0.6292  0.5947 -3.5308
   14SOL     vw   56   3.930   1.605   0.591  0.4979 -0.2329 -0.9424
   15SOL     ow   57   2.518   6.059   1.557 -0.0299  0.5502  0.0318
   15SOL     hw   58   2.609   6.087   1.554  0.4698 -0.2298  3.3629
   15SOL     hw   59   2.474   6.128   1.608 -0.7250 -0.2670  0.5676
   15SOL     vw   60   2.524   6.072   1.563 -0.0558  0.3395  0.5421
   16SOL     ow   61   0.423   4.304   3.120 -0.4925  0.3824  0.7516
   16SOL     hw   62   0.438   4.394   3.090 -2.4510  0.1134 -1.2824
   16SOL     hw   63   0.490   4.252   3.076 -0.1217  0.6707  0.9684
   16SOL     vw   64   0.434   4.309   3.110 -0.7019  0.3848  0.5116
   17SOL     ow   65   2.862   7.143   4.838 -0.3054  0.7620 -0.1342
   17SOL     hw   66   2.837   7.230   4.807 -0.5315  0.3059 -1.2702
   17SOL     hw   67   2.791   7.085   4.809 -0.8464  0.4006  1.8120
   17SOL     vw   68   2.849   7.147   4.830 -0.4067  0.6542 -0.0272
   18SOL     ow   69   6.773   2.087   6.029  0.3192  0.0092  0.3571
   18SOL     hw   70   6.861   2.092   5.994  0.3085 -1.2543  0.0852
   18SOL     hw   71   6.772   2.005   6.080 -1.1401 -0.8715 -0.9889
   18SOL     vw   72   6.784   2.077   6.031  0.1252 -0.2737  0.1435
   19SOL     ow   73   2.887   5.121   6.322 -1.0204 -0.1726  0.8840
   19SOL     hw   74   2.937   5.042   6.345 -2.1178 -1.6637 -1.4467
   19SOL     hw   75   2.819   5.126   6.389 -1.6055 -1.8726  0.4584
   19SOL     vw   76   2.885   5.111   6.334 -1.2423 -0.5934  0.5207
   20SOL     ow   77   1.251   1.580   2.135  0.1885  0.1045 -0.0890
   20SOL     hw   78   1.204   1.639   2.076  0.9548 -0.6691 -1.5115
   20SOL     hw   79   1.188   1.561   2.205 -0.5959  1.3644 -0.4189
   20SOL     vw   80   1.236   1.585   2.137  0.1861  0.1687 -0.3202
   21SOL     ow   81   6.045   5.080   3.851  0.0897 -0.0614 -0.0674
   21SOL     hw   82   6.047   5.170   3.817  0.5020  0.0981  0.3688
   21SOL     hw   83   6.107   5.032   3.795  0.5509  0.1347  0.2693
   21SOL     vw   84   6.054   5.086   3.839  0.2048 -0.0145  0.0346
   22SOL     ow   85   2.107   1.561   6.202  0.2106 -0.0409 -0.3772
   22SOL     hw   86   2.191   1.557   6.155 -0.4533 -0.9728 -1.5389
   22SOL     hw   87   2.090   1.470   6.227 -1.3351 -0.1854 -1.8047
   22SOL     vw   88   2.116   1.548   6.199 -0.0809 -0.1829 -0.7186
   23SOL     ow   89   1.696   2.783   0.018  0.5784 -0.0239  0.7695
   23SOL     hw   90   1.719   2.698  -0.020 -0.3572 -1.2299  2.7677
   23SOL     hw   91   1.601   2.780   0.029  0.6056  1.0287  1.4477
   23SOL     vw   92   1.686   2.771   0.014  0.4585 -0.0441  1.1225
   24SOL     ow   93   2.778   5.127   4.900 -0.3731 -0.4113  0.0568
   24SOL     hw   94   2.783   5.221   4.883  1.3114 -0.2875  0.9580
   24SOL     hw   95   2.744   5.090   4.818  0.5398  0.8305 -0.9403
   24SOL     vw   96   2.774   5.135   4.887 -0.0303 -0.2310  0.0439
   25SOL     ow   97   5.255   1.250   7.020  0.5312 -0.3655  0.1046
   25SOL     hw   98   5.286   1.334   7.052  1.1397 -0.6421  0.2530
   25SOL     hw   99   5.302   1.237   6.937 -1.8860  0.8915 -1.5712
   25SOL     vw  100   5.265   1.259   7.013  0.2925 -0.2362 -0.0970
   26SOL     ow  101   2.082   6.953   2.530  0.5725 -1.2651  0.0286
   26SOL     hw  102   2.097   6.908   2.447  0.5209 -2.1479  0.4870
   26SOL     hw  103   1.998   6.919   2.561  0.1756 -0.3027  0.0365
   26SOL     vw  104   2.073   6.943   2.523  0.5133 -1.2548  0.0901
   27SOL     ow  105   6.695   4.164   4.240 -0.0811  0.3746  0.3587
   27SOL     hw  106   6.699   4.257   4.265 -0.4541  1.3509 -2.7355
   27SOL     hw  107   6.783   4.144   4.207 -0.3040 -0.0117 -0.0191
   27SOL     vw  108   6.707   4.174   4.239 -0.1597  0.4525 -0.0994
   28SOL     ow  109   6.634   5.261   5.698 -1.1590  0.2296 -0.0276
   28SOL     hw  110   6.591   5.184   5.661  1.1629 -2.6281  2.6774
   28SOL     hw  111   6.566   5.303   5.752 -1.7237 -1.8293  0.9587
   28SOL     vw  112   6.619   5.256   5.701 -0.9272 -0.4191  0.4592
   29SOL     ow  113   2.551   6.763   4.721 -0.2191  0.1314  0.1010
   29SOL     hw  114   2.595   6.843   4.750  1.3520 -0.6566  0.0125
   29SOL     hw  115   2.496   6.738   4.795 -1.9376  2.0783 -0.4344
   29SOL     vw  116   2.549   6.770   4.735 -0.2385  0.2842  0.0188
   30SOL     ow  117   2.897   2.619   5.367 -0.1934 -0.6372  0.3434
   30SOL     hw  118   2.856   2.681   5.306 -0.5910 -1.9660 -0.7929
   30SOL     hw  119   2.862   2.643   5.453 -0.8153  0.3019 -0.1506
   30SOL     vw  120   2.887   2.631   5.370 -0.3281 -0.6886  0.1283
   31SOL     ow  121   0.457   3.478   6.356  0.1474  0.1002 -0.4117
   31SOL     hw  122   0.529   3.539   6.342  2.2837 -1.6075  2.2860
   31SOL     hw  123   0.490   3.415   6.420 -2.5132 -2.9269 -1.7442
   31SOL     vw  124   0.471   3.478   6.363  0.0782 -0.5245 -0.2315
   32SOL     ow  125   2.384   4.687   1.122  0.2868  0.0118  0.2760
   32SOL     hw  126   2.342   4.758   1.074 -0.0860  1.0929  2.1245
   32SOL     hw  127   2.334   4.680   1.204  2.4585  0.0219  1.6808
   32SOL     vw  128   2.372   4.695   1.127  0.5242  0.1557  0.7052
   33SOL     ow  129   1.809   0.948   5.498  0.0295  0.2224  0.2877
   33SOL     hw  130   1.799   0.867   5.446  1.0115  1.2279 -1.5812
   33SOL     hw  131   1.882   0.930   5.557  0.1050 -0.3202  0.0369
   33SOL     vw  132   1.817   0.935   5.499  0.1690  0.2834  0.0079
   34SOL     ow  133   2.476   5.802   2.853 -0.9542  0.4185 -0.4337
   34SOL     hw  134   2.435   5.860   2.789 -3.2979 -0.3416  0.2590
   34SOL     hw  135   2.474   5.715   2.813  0.9697  0.4835 -0.7693
   34SOL     vw  136   2.470   5.798   2.840 -1.0096  0.3269 -0.3866
   35SOL     ow  137   3.374   1.450   4.223 -0.2344  0.4009 -0.5019
   35SOL     hw  138   3.329   1.366   4.220  0.1513  0.1350  0.6987
   35SOL     hw  139   3.303   1.515   4.225 -0.5521  0.0447 -0.1350
   35SOL     vw  140   3.359   1.448   4.223 -0.2254  0.3189 -0.2954
   36SOL     ow  141   0.825   0.116   1.053 -0.4532 -0.2953  0.1670
   36SOL     hw  142   0.838   0.170   0.975  0.5718 -1.7572 -0.7243
   36SOL     hw  143   0.834   0.177   1.127  4.7310  0.2593 -0.5649
   36SOL     vw  144   0.828   0.131   1.053  0.3660 -0.4150 -0.0471
   37SOL     ow  145   6.353   0.420   3.970 -0.4285  0.2058  0.0752
   37SOL     hw  146   6.339   0.351   4.035  0.4524 -1.3408 -1.2932
   37SOL     hw  147   6.295   0.396   3.897 -0.1042  0.9170 -0.4238
   37SOL     vw  148   6.343   0.407   3.969 -0.2697  0.0956 -0.1711
   38SOL     ow  149   7.178   0.390   3.514  0.6239  0.3496 -0.2800
   38SOL     hw  150   7.192   0.484   3.509 -2.4233  1.0993  1.9964
   38SOL     hw  151   7.259   0.355   3.552  1.0193  2.3784  0.8805
   38SOL     vw  152   7.190   0.398   3.519  0.2742  0.7162  0.1734
   39SOL     ow  153   3.315   3.302   2.985  0.3704 -0.4751  0.3022
   39SOL     hw  154   3.235   3.251   2.975 -0.7325  1.3917 -1.0192
   39SOL     hw  155   3.303   3.350   3.068 -0.9147  1.4061 -0.9002
   39SOL     vw  156   3.303   3.302   2.995  0.0553  0.0196 -0.0309
   40SOL     ow  157   5.632   6.238   3.687 -0.7795  0.5727  1.0871
   40SOL     hw  158   5.660   6.187   3.763 -1.1205  1.5572  1.8926
   40SOL     hw  159   5.673   6.324   3.700  0.6373  0.2449 -0.7693
   40SOL     vw  160   5.641   6.243   3.699 -0.6378  0.6592  0.9483
   41SOL     ow  161   4.144   1.790   0.690 -0.2879  0.1320  0.3157
   41SOL     hw  162   4.122   1.811   0.780 -0.9824 -0.7103  0.3571
   41SOL     hw  163   4.232   1.752   0.694  0.1523  1.1604  0.4831
   41SOL     vw  164   4.153   1.788   0.702 -0.3216  0.1565  0.3433
   42SOL     ow  165   1.596   4.191   2.215  0.1870 -0.8525  0.0480
   42SOL     hw  166   1.523   4.236   2.172  1.1322 -0.3032 -1.0504
   42SOL     hw  167   1.607   4.237   2.298 -1.1161 -1.3655  0.5253
   42SOL     vw  168   1.588   4.203   2.221  0.1397 -0.8478 -0.0341
   43SOL     ow  169   5.257   1.933   6.223 -0.0384 -0.5891 -0.5351
   43SOL     hw  170   5.348   1.921   6.250 -0.6978  0.5704  2.4742
   43SOL     hw  171   5.227   1.845   6.201  1.6570 -1.0342 -1.2489
   43SOL     vw  172   5.265   1.920   6.223  0.0985 -0.4948 -0.2322
   44SOL     ow  173   3.425   2.452   6.134  0.2603 -0.1338 -0.3543
   44SOL     hw  174   3.515   2.433   6.108  0.5428  0.3180  0.2745
   44SOL     hw  175   3.430   2.470   6.228 -0.5730 -0.6440 -0.2055
   44SOL     vw  176   3.438   2.452   6.143  0.1878 -0.1415 -0.2518
   45SOL     ow  177   3.795   0.174   0.968 -0.0865  0.3394 -0.6628
   45SOL     hw  178   3.782   0.097   0.913 -0.7849  0.9107 -1.3263
   45SOL     hw  179   3.858   0.228   0.920  0.1402  0.3464 -0.3644
   45SOL     vw  180   3.802   0.171   0.955 -0.1489  0.4157 -0.7110
   46SOL     ow  181   4.919   1.183   1.979 -0.1609 -0.1065  0.0350
   46SOL     hw  182   4.949   1.240   1.908 -1.4915  0.5977  0.0064
   46SOL     hw  183   4.899   1.100   1.935  0.9218 -0.3218 -0.0723
   46SOL     vw  184   4.920   1.180   1.964 -0.1936 -0.0420  0.0171
   47SOL     ow  185   5.716   3.433   3.548 -0.4826  0.6028  0.8374
   47SOL     hw  186   5.760   3.464   3.469 -1.0149  0.3781  0.4482
   47SOL     hw  187   5.746   3.342   3.558 -3.0231 -0.5542 -1.0731
   47SOL     vw  188   5.726   3.425   3.539 -0.8883  0.4203  0.5339
   48SOL     ow  189   4.384   6.604   3.727  0.2649 -0.1506 -0.4101
   48SOL     hw  190   4.406   6.514   3.751 -2.3987 -0.9682 -0.7858
   48SOL     hw  191   4.459   6.634   3.675  1.9620 -1.5161  1.0993
   48SOL     vw  192   4.397   6.596   3.724  0.1376 -0.4389 -0.2606
   49SOL     ow  193   0.006   3.044   6.768  0.1318  0.6163  0.1951
   49SOL     hw  194  -0.019   2.992   6.844  2.4942 -2.5029 -0.9345
   49SOL     hw  195   0.020   2.980   6.698  3.0917  2.7177 -1.4160
   49SOL     vw  196   0.005   3.029   6.769  0.8337  0.4820 -0.1664
   50SOL     ow  197   2.057   1.550   5.166 -0.0983 -0.6385 -0.2463
   50SOL     hw  198   2.006   1.528   5.244 -0.3344 -1.8315 -0.7193
   50SOL     hw  199   1.992   1.577   5.102  0.0143 -0.5497 -0.3228
   50SOL     vw  200   2.042   1.550   5.168 -0.1144 -0.7842 -0.3188
   51SOL     ow  201   5.947   2.017   0.132  0.2139  0.2092  0.5010
   51SOL     hw  202   6.013   1.952   0.157  0.9537  0.2923 -1.1114
   51SOL     hw  203   5.955   2.023   0.037 -2.2465  0.1163  0.2415
   51SOL     vw  204   5.957   2.009   0.123 -0.0131  0.2080  0.2540
   52SOL     ow  205   4.756   5.188   6.709  0.9706  0.3499 -0.1897
   52SOL     hw  206   4.770   5.262   6.768 -1.1404 -0.0539  0.8919
   52SOL     hw  207   4.662   5.188   6.691  1.2818 -0.6599 -2.0974
   52SOL     vw  208   4.746   5.198   6.714  0.7331  0.1633 -0.2985
   53SOL     ow  209   3.906   4.754   0.399  0.1837 -0.3849  0.0994
   53SOL     hw  210   3.923   4.726   0.489 -0.9785 -4.1214 -0.6556
   53SOL     hw  211   3.991   4.748   0.356  0.5063  0.1663  0.6425
   53SOL     vw  212   3.919   4.749   0.405  0.0728 -0.8054  0.0714
   54SOL     ow  213   5.351   0.024   4.512 -0.1690  0.8418  0.3718
   54SOL     hw  214   5.431   0.012   4.565 -1.2733 -2.2272  1.6100
   54SOL     hw  215   5.351  -0.052   4.453 -1.6642  1.3492 -0.3037
   54SOL     vw  216   5.362   0.012   4.511 -0.5119  0.5038  0.4458
   55SOL     ow  217   7.262   4.487   4.518  0.0546  0.3034  0.1100
   55SOL     hw  218   7.310   4.496   4.436 -0.2731 -1.9217 -0.3953
   55SOL     hw  219   7.328   4.492   4.587  0.7730 -0.8602 -0.4760
   55SOL     vw  220   7.277   4.489   4.517  0.1061 -0.1435 -0.0341
   56SOL     ow  221   3.028   4.923   4.931 -0.2873  0.1813 -0.0141
   56SOL     hw  222   3.079   4.845   4.955 -0.2339  0.4064  0.6234
   56SOL     hw  223   3.086   4.996   4.951  0.2374  0.3708 -1.9628
   56SOL     vw  224   3.043   4.922   4.937 -0.2110  0.2360 -0.1869
   57SOL     ow  225   4.989   1.076   1.169 -0.2240 -0.2388  0.1505
   57SOL     hw  226   4.926   1.126   1.116  0.8188  1.8317  0.7475
   57SOL     hw  227   4.936   1.036   1.237 -1.2338 -0.8242 -0.9344
   57SOL     vw  228   4.973   1.077   1.171 -0.2196 -0.0429  0.0861
   58SOL     ow  229   4.022   2.492   6.665 -0.6270  0.5325  0.2019
   58SOL     hw  230   4.065   2.555   6.607  0.4250  0.7534  1.1810
   58SOL     hw  231   3.993   2.545   6.740 -0.1351 -0.0628  0.8229
   58SOL     vw  232   4.024   2.507   6.667 -0.4234  0.4830  0.4132
   59SOL     ow  233   5.118   3.834   2.578 -0.0339 -0.1407  0.4516
   59SOL     hw  234   5.149   3.837   2.668  1.7736 -1.8114 -0.0318
   59SOL     hw  235   5.190   3.792   2.530 -1.1964  0.1474 -1.6515
   59SOL     vw  236   5.132   3.829   2.583  0.0513 -0.3231  0.1104
   60SOL     ow  237   0.128   1.789   2.883 -0.7192  0.1117  0.3372
   60SOL     hw  238   0.103   1.850   2.814 -0.7165 -2.3821 -2.0125
   60SOL     hw  239   0.122   1.841   2.963 -2.6283  2.6272 -1.2662
   60SOL     vw  240   0.124   1.804   2.885 -0.9708  0.1145 -0.1843
   61SOL     ow  241   3.091   5.054   3.991  0.2868  0.1859  0.4759
   61SOL     hw  242   3.037   5.077   3.916 -0.0555  2.6034  1.3825
   61SOL     hw  243   3.110   4.961   3.979 -0.2277  0.3550 -2.2670
   61SOL     vw  244   3.087   5.045   3.980  0.1737  0.5271  0.2335
   62SOL     ow  245   4.826   5.267   6.436  0.2843  0.1420  0.2369
   62SOL     hw  246   4.736   5.287   6.409  0.4322  1.4097  0.5893
   62SOL     hw  247   4.875   5.346   6.413  1.5555 -0.9532 -0.9951
   62SOL     vw  248   4.820   5.280   6.429  0.4716  0.1650  0.1209
   63SOL     ow  249   6.418   2.722   4.824  0.2571  0.2729  0.1765
   63SOL     hw  250   6.442   2.645   4.773 -0.6004  0.0452  0.0998
   63SOL     hw  251   6.326   2.709   4.845 -0.0673  1.5654 -0.3523
   63SOL     vw  252   6.409   2.711   4.820  0.1011  0.4135  0.0966
   64SOL     ow  253   5.841   4.632   5.546 -0.2259 -0.0865 -0.9042
   64SOL     hw  254   5.919   4.586   5.513  0.5011  1.2887 -1.1698
   64SOL     hw  255   5.875   4.691   5.613 -1.5428 -2.1283  1.7901
   64SOL     vw  256   5.856   4.634   5.550 -0.3035 -0.1743 -0.5836
   65SOL     ow  257   0.223   3.320   4.225 -0.6762  0.1954 -0.1958
   65SOL     hw  258   0.260   3.331   4.138  1.2386 -0.9625  0.4271
   65SOL     hw  259   0.218   3.225   4.238 -0.6762  0.3484  1.0578
   65SOL     vw  260   0.227   3.309   4.215 -0.4236  0.0627  0.0520
   66SOL     ow  261   3.179   6.456   1.324  0.4214  0.0391  0.0101
   66SOL     hw  262   3.258   6.407   1.305  0.7176  1.0259 -1.4834
   66SOL     hw  263   3.140   6.411   1.399  2.3006 -0.5542  0.6843
   66SOL     vw  264   3.184   6.444   1.331  0.7083  0.0908 -0.0980
   67SOL     ow  265   4.320   7.104   2.011 -0.7103  0.0064  1.3000
   67SOL     hw  266   4.246   7.060   1.970  0.4279 -2.2438  1.5572
   67SOL     hw  267   4.320   7.072   2.101  1.4857 -1.3139  0.8830
   67SOL     vw  268   4.310   7.094   2.017 -0.2706 -0.4644  1.2789
   68SOL     ow  269   1.173   6.321   1.894 -0.0615 -0.0747  0.0053
   68SOL     hw  270   1.124   6.348   1.971  1.1328  1.4878  0.2684
   68SOL     hw  271   1.139   6.234   1.873  0.4257 -1.1583  3.0840
   68SOL     vw  272   1.162   6.313   1.901  0.1603 -0.0117  0.4462
   69SOL     ow  273   4.455   1.305   5.312 -0.3873  0.6665 -0.0023
   69SOL     hw  274   4.415   1.232   5.360  1.2315  0.5754  1.2884
   69SOL     hw  275   4.466   1.373   5.378  1.0412  0.8802 -0.4363
   69SOL     vw  276   4.451   1.304   5.327  0.0150  0.6827  0.1106
   70SOL     ow  277   1.787   4.890   5.403  0.1119 -0.7574  0.4523
   70SOL     hw  278   1.822   4.964   5.453 -1.2269  0.1898  0.0647
   70SOL     hw  279   1.847   4.818   5.421  0.8127  0.1089  1.7765
   70SOL     vw  280   1.800   4.891   5.412  0.0277 -0.5183  0.5758
   71SOL     ow  281   1.971   3.470   5.060 -0.2787 -0.0004  0.2761
   71SOL     hw  282   1.925   3.398   5.105 -0.1641 -0.4164 -0.2610
   71SOL     hw  283   1.917   3.488   4.983 -0.0505  0.1649  0.1563
   71SOL     vw  284   1.958   3.463   5.056 -0.2335 -0.0335  0.1895
   72SOL     ow  285   0.376   1.989   3.505 -0.4079 -0.3441  0.1008
   72SOL     hw  286   0.302   1.929   3.502 -0.8072  0.1638 -0.3521
   72SOL     hw  287   0.453   1.932   3.505 -0.7565 -0.8544 -1.1194
   72SOL     vw  288   0.377   1.974   3.505 -0.5066 -0.3444 -0.1198
   73SOL     ow  289   1.068   0.313   2.591  0.2270  0.2066 -0.2666
   73SOL     hw  290   1.091   0.354   2.507  0.3514 -2.0173 -1.3872
   73SOL     hw  291   0.979   0.342   2.609  0.5533  1.5065 -0.6269
   73SOL     vw  292   1.060   0.322   2.582  0.2865  0.0847 -0.4619
   74SOL     ow  293   4.776   6.676   3.984  0.5118 -1.0866 -0.2585
   74SOL     hw  294   4.803   6.594   3.942 -0.6823 -0.3015 -2.7630
   74SOL     hw  295   4.756   6.735   3.911  1.2450  1.4512  1.4512
   74SOL     vw  296   4.777   6.673   3.969  0.4508 -0.6480 -0.3633
   75SOL     ow  297   4.348   6.172   6.680  0.4046 -0.1137 -0.1210
   75SOL     hw  298   4.263   6.173   6.723  0.6961 -2.7252  0.7313
   75SOL     hw  299   4.387   6.089   6.707  2.2861 -0.0379 -2.2976
   75SOL     vw  300   4.342   6.161   6.689  0.6914 -0.4482 -0.2959
   76SOL     ow  301   6.946   2.209   4.597 -0.0519  0.5022  0.4404
   76SOL     hw  302   6.899   2.258   4.665 -1.8970  1.3083 -1.2971
   76SOL     hw  303   6.915   2.119   4.607 -1.0679  0.7955  0.1117
   76SOL     vw  304   6.935   2.203   4.607 -0.4296  0.6472  0.1676
   77SOL     ow  305   5.339   6.340   3.735 -0.3068  0.1950  0.1416
   77SOL     hw  306   5.302   6.275   3.794 -2.0220  3.0303  2.4049
   77SOL     hw  307   5.264   6.386   3.699  0.8264  0.4122 -2.2032
   77SOL     vw  308   5.324   6.337   3.738 -0.3836  0.5977  0.1308
   78SOL     ow  309   6.093   4.818   0.270 -0.0751  0.0490 -0.7041
   78SOL     hw  310   6.044   4.888   0.312 -0.5731 -0.4844 -0.3878
   78SOL     hw  311   6.044   4.799   0.190 -0.3830 -0.4760 -0.3945
   78SOL     vw  312   6.080   4.825   0.265 -0.1810 -0.0906 -0.6215
   79SOL     ow  313   5.231   0.107   5.935 -0.5532  0.6817  0.1917
   79SOL     hw  314   5.309   0.130   5.986 -0.2308  1.9735 -0.8201
   79SOL     hw  315   5.184   0.190   5.925 -0.1963  0.6495 -2.2762
   79SOL     vw  316   5.235   0.121   5.941 -0.4635  0.8479 -0.2677
   80SOL     ow  317   1.721   3.490   4.630  0.1803 -0.0777  0.2673
   80SOL     hw  318   1.754   3.538   4.554 -0.3181 -0.0552  0.0599
   80SOL     hw  319   1.771   3.408   4.629  0.7339  0.2547  0.3767
   80SOL     vw  320   1.732   3.485   4.620  0.1876 -0.0308  0.2542
   81SOL     ow  321   1.530   6.787   6.865  0.2951 -0.4048  0.3582
   81SOL     hw  322   1.502   6.697   6.879 -0.6373 -0.0877  0.6365
   81SOL     hw  323   1.578   6.810   6.945  1.3542 -0.9372 -0.1016
   81SOL     vw  324   1.533   6.778   6.877  0.3118 -0.4332  0.3340
   82SOL     ow  325   7.231   5.300   1.516 -0.6354 -0.0083  0.4811
   82SOL     hw  326   7.288   5.233   1.555  0.7666  1.5209  1.1604
   82SOL     hw  327   7.215   5.269   1.427 -0.7995 -1.7112  1.0643
   82SOL     vw  328   7.236   5.287   1.510 -0.4721 -0.0312  0.6477
   83SOL     ow  329   6.546   0.832   1.931 -0.6200 -0.1394  0.5601
   83SOL     hw  330   6.565   0.921   1.961  2.1365 -0.8696  1.2946
   83SOL     hw  331   6.554   0.837   1.836 -0.1160  0.3363  0.6184
   83SOL     vw  332   6.550   0.845   1.922 -0.1900 -0.1729  0.6647
   84SOL     ow  333   6.316   1.259   6.974  0.4055 -0.2894  1.0643
   84SOL     hw  334   6.283   1.347   6.955 -1.6638 -1.2360 -0.0574
   84SOL     hw  335   6.388   1.247   6.913 -0.6255 -0.0829 -0.2506
   84SOL     vw  336   6.321   1.269   6.963 -0.0036 -0.3870  0.7432
   85SOL     ow  337   6.807   5.100   4.167  0.4806 -0.0312 -0.1678
   85SOL     hw  338   6.884   5.073   4.117 -0.0600 -0.9104 -0.5495
   85SOL     hw  339   6.811   5.196   4.167  1.2580 -0.0524 -0.6686
   85SOL     vw  340   6.818   5.109   4.161  0.5116 -0.1497 -0.2842
   86SOL     ow  341   7.088   4.752   0.738  0.4627 -0.1541 -0.2765
   86SOL     hw  342   7.106   4.672   0.787  0.1914 -0.1760 -0.2113
   86SOL     hw  343   7.147   4.817   0.776  0.2830 -0.1814  0.0539
   86SOL     vw  344   7.098   4.750   0.749  0.4032 -0.1605 -0.2243
   87SOL     ow  345   7.004   4.340   5.156  0.2375 -0.5709  0.5033
   87SOL     hw  346   6.918   4.300   5.142 -0.3030  0.8841 -0.5928
   87SOL     hw  347   7.007   4.412   5.093  3.4361 -2.3116 -1.5618
   87SOL     vw  348   6.993   4.344   5.146  0.5879 -0.6087  0.0861
   88SOL     ow  349   0.142   2.725   2.548  0.0281 -0.0767  0.1392
   88SOL     hw  350   0.209   2.708   2.481  0.3587  1.9485 -0.1305
   88SOL     hw  351   0.146   2.649   2.606 -1.0643 -2.4815 -2.7015
   88SOL     vw  352   0.152   2.713   2.547 -0.0724 -0.1268 -0.2711
   89SOL     ow  353   3.365   3.704   4.288 -0.2658  0.0487  0.7223
   89SOL     hw  354   3.348   3.651   4.366 -1.4889  1.0079  1.1423
   89SOL     hw  355   3.330   3.651   4.216 -0.6731 -0.1177  1.0325
   89SOL     vw  356   3.358   3.690   4.289 -0.4809  0.1532  0.8187
   90SOL     ow  357   2.470   4.168   4.323 -0.0608  0.3162  0.2141
   90SOL     hw  358   2.450   4.077   4.343  0.3956 -0.5287 -2.6294
   90SOL     hw  359   2.563   4.168   4.303 -0.5242  0.7770 -2.3267
   90SOL     vw  360   2.480   4.156   4.323 -0.0615  0.2656 -0.4961
   91SOL     ow  361   7.136   1.454   4.948 -0.1204  0.3648 -0.5593
   91SOL     hw  362   7.204   1.505   4.993 -0.1409 -0.3325  0.2817
   91SOL     hw  363   7.162   1.456   4.856  0.5312  0.8895 -0.3719
   91SOL     vw  364   7.149   1.461   4.942 -0.0372  0.3420 -0.4234
   92SOL     ow  365   3.789   6.888   4.919  0.1124  0.7334  0.3423
   92SOL     hw  366   3.767   6.974   4.953  0.5038  1.4546 -1.1623
   92SOL     hw  367   3.822   6.904   4.831  0.3432 -0.9416  0.0834
   92SOL     vw  368   3.791   6.901   4.912  0.1947  0.6075  0.1097
   93SOL     ow  369   0.285   3.896   4.706 -0.0429 -0.6488  0.0593
   93SOL     hw  370   0.228   3.841   4.760  2.0452 -0.8821  2.1606
   93SOL     hw  371   0.270   3.985   4.738  0.2165 -0.6259  0.1227
   93SOL     vw  372   0.275   3.900   4.717  0.2668 -0.6765  0.3450
   94SOL     ow  373   4.693   0.211   4.045 -0.6685  0.9263 -0.3952
   94SOL     hw  374   4.619   0.253   4.002 -0.9073  0.3965 -0.5145
   94SOL     hw  375   4.668   0.209   4.138  0.1586  2.7125 -0.1048
   94SOL     vw  376   4.680   0.216   4.052 -0.5910  1.0921 -0.3726
   95SOL     ow  377   4.624   3.903   6.443 -1.0129  0.1024 -0.4129
   95SOL     hw  378   4.716   3.876   6.444 -0.0629  2.8373 -2.3451
   95SOL     hw  379   4.583   3.845   6.378 -0.5481 -0.6943 -0.0218
   95SOL     vw  380   4.631   3.891   6.434 -0.8261  0.3581 -0.6163
   96SOL     ow  381   0.003   3.395   4.049 -0.2002  0.9972 -0.1612
   96SOL     hw  382  -0.033   3.352   3.971  0.0466 -0.9337  0.7341
   96SOL     hw  383  -0.002   3.489   4.029 -0.6459  0.5793 -2.2613
   96SOL     vw  384  -0.003   3.402   4.036 -0.2263  0.6874 -0.3204
   97SOL     ow  385   5.831   4.835   6.278 -0.7391  0.4183  0.7576
   97SOL     hw  386   5.739   4.844   6.306 -1.2096 -2.1199  0.2240
   97SOL     hw  387   5.830   4.862   6.186 -0.8273  0.8769  0.8879
   97SOL     vw  388   5.819   4.840   6.270 -0.8130  0.1435  0.7043
   98SOL     ow  389   5.814   4.784   3.844  0.1122  0.8130 -0.2113
   98SOL     hw  390   5.830   4.852   3.909  2.5528  0.4296 -0.3125
   98SOL     hw  391   5.901   4.756   3.817 -0.8205 -1.4702 -1.1165
   98SOL     vw  392   5.828   4.789   3.849  0.3109  0.4613 -0.3440
   99SOL     ow  393   1.296   0.813   2.748 -0.0475 -0.0643  0.2234
   99SOL     hw  394   1.201   0.818   2.755  0.0983  0.8648  2.4280
   99SOL     hw  395   1.312   0.774   2.662 -2.4932 -3.2898  1.0231
   99SOL     vw  396   1.285   0.808   2.738 -0.3510 -0.3673  0.6198
  100SOL     ow  397   4.310   6.426   7.070  0.1069 -0.1013 -0.3170
  100SOL     hw  398   4.330   6.499   7.129 -1.5017 -0.3152  0.5540
  100SOL     hw  399   4.390   6.412   7.021  1.0707  0.9877  0.8774
  100SOL     vw  400   4.323   6.434   7.072  0.0219  0.0141 -0.0443
  101SOL     ow  401   4.573   6.472   6.724 -1.2709  0.3863 -0.2676
  101SOL     hw  402   4.649   6.526   6.701 -2.3770  1.9674 -0.4328
  101SOL     hw  403   4.585   6.453   6.817 -0.9859  1.1895 -0.1254
  101SOL     vw  404   4.585   6.477   6.733 -1.3793  0.7007 -0.2708
  102SOL     ow  405   7.237   4.942   0.853 -0.1051  0.1098 -0.0136
  102SOL     hw  406   7.226   4.978   0.942  1.2993 -1.0061  0.6544
  102SOL     hw  407   7.330   4.954   0.835  0.0546 -1.5961 -0.4597
  102SOL     vw  408   7.248   4.948   0.863  0.1012 -0.2625  0.0157
  103SOL     ow  409   1.000   4.866   5.768  0.0069  0.1514  0.2543
  103SOL     hw  410   0.989   4.892   5.676 -1.0168  0.9449  0.5742
  103SOL     hw  411   1.033   4.776   5.764  0.8071  0.4762 -0.8861
  103SOL     vw  412   1.003   4.857   5.755 -0.0226  0.2992  0.1459
  104SOL     ow  413   1.951   4.744   0.277  0.3485  0.0138  0.5349
  104SOL     hw  414   1.925   4.834   0.300  0.8886 -0.1161  1.7684
  104SOL     hw  415   1.869   4.695   0.277  0.1122  0.4022  0.3786
  104SOL     vw  416   1.937   4.750   0.280  0.3886  0.0479  0.6770
  105SOL     ow  417   2.189   7.229   2.290 -0.3240 -0.1245 -1.2414
  105SOL     hw  418   2.265   7.245   2.234 -0.1764  1.0086 -0.7468
  105SOL     hw  419   2.149   7.149   2.255  1.6705 -1.3466 -0.8649
  105SOL     vw  420   2.194   7.221   2.278 -0.0415 -0.1364 -1.1266
  106SOL     ow  421   1.861   5.109   5.544  0.8844 -0.5884 -0.3499
  106SOL     hw  422   1.927   5.172   5.515 -0.3227  1.0362  0.2594
  106SOL     hw  423   1.899   5.068   5.622  0.3229  2.0396  1.4364
  106SOL     vw  424   1.875   5.112   5.550  0.6511 -0.0274 -0.0339
  107SOL     ow  425   5.651   5.413   1.658  0.1705  0.1822  0.3911
  107SOL     hw  426   5.585   5.446   1.597  1.8680  0.1745 -1.5530
  107SOL     hw  427   5.669   5.324   1.629  1.3588  0.3419  0.5770
  107SOL     vw  428   5.645   5.405   1.646  0.5512  0.2024  0.1591
  108SOL     ow  429   3.687   0.340   4.591  0.1513 -0.0103 -0.3452
  108SOL     hw  430   3.626   0.270   4.617 -0.4243  0.4971 -0.3171
  108SOL     hw  431   3.691   0.398   4.667  0.8801 -0.1788 -0.2490
  108SOL     vw  432   3.679   0.338   4.604  0.1714  0.0344 -0.3288
  109SOL     ow  433   5.245   5.511   2.216 -0.5809  0.1033  0.7203
  109SOL     hw  434   5.230   5.477   2.304 -2.0761  1.7809  1.1697
  109SOL     hw  435   5.184   5.585   2.208  0.4487  0.8050 -1.2533
  109SOL     vw  436   5.235   5.516   2.226 -0.6423  0.4175  0.5193
  110SOL     ow  437   6.195   2.694   3.328  0.1083  0.4678  0.4078
  110SOL     hw  438   6.274   2.741   3.299  0.7391 -0.7859  0.0289
  110SOL     hw  439   6.179   2.630   3.259 -1.3656  0.8144  0.3927
  110SOL     vw  440   6.203   2.692   3.315 -0.0031  0.3481  0.3558
  111SOL     ow  441   0.070   1.673   2.148  0.6941 -0.1245  0.2592
  111SOL     hw  442  -0.002   1.625   2.188 -0.2691 -0.0704 -1.3093
  111SOL     hw  443   0.027   1.743   2.098  1.5261 -1.7828 -3.0708
  111SOL     vw  444   0.054   1.676   2.146  0.6766 -0.3361 -0.3871
  112SOL     ow  445   4.912   6.911   4.115  0.5552 -0.1686  0.3977
  112SOL     hw  446   4.916   6.936   4.023 -1.2594  0.7213  0.5159
  112SOL     hw  447   4.864   6.982   4.158  2.6253  0.1701  2.3365
  112SOL     vw  448   4.906   6.924   4.109  0.5891 -0.0064  0.6692
  113SOL     ow  449   3.007   3.743   4.124  0.9191  0.2510  0.2476
  113SOL     hw  450   3.010   3.830   4.083  1.5382  0.2231  0.2293
  113SOL     hw  451   2.985   3.760   4.215 -1.7049  0.2407 -0.3063
  113SOL     vw  452   3.004   3.757   4.130  0.6547  0.2459  0.1724
  114SOL     ow  453   4.580   1.473   4.774 -0.1256  0.2000  0.2611
  114SOL     hw  454   4.646   1.432   4.718 -0.3870  0.3090 -0.1283
  114SOL     hw  455   4.584   1.566   4.751 -1.2486  0.0476 -0.6435
  114SOL     vw  456   4.590   1.480   4.763 -0.3080  0.1943  0.0904
  115SOL     ow  457   6.935   7.241   2.069  0.8602 -0.6488  0.3508
  115SOL     hw  458   6.902   7.331   2.072  3.8426  0.6379 -1.0319
  115SOL     hw  459   6.880   7.193   2.131 -3.1153  1.2725 -1.3464
  115SOL     vw  460   6.924   7.246   2.078  0.7296 -0.2255 -0.0556
  116SOL     ow  461   5.886   0.989   3.837 -0.4886 -0.3647 -0.7042
  116SOL     hw  462   5.839   0.945   3.908 -1.5777 -0.0606 -1.2028
  116SOL     hw  463   5.978   0.982   3.860 -0.7746 -1.0554  0.2806
  116SOL     vw  464   5.892   0.982   3.849 -0.6700 -0.4157 -0.6402
  117SOL     ow  465   1.036   5.845   0.056 -0.2020 -0.4430 -0.1475
  117SOL     hw  466   1.122   5.837   0.099 -0.5952 -0.6768  0.6199
  117SOL     hw  467   1.048   5.914  -0.009  0.3578  0.0929  0.5005
  117SOL     vw  468   1.049   5.853   0.053 -0.1801 -0.4034  0.0392
  118SOL     ow  469   4.015   4.018   1.130  0.2324 -0.6187  0.3440
  118SOL     hw  470   4.067   4.039   1.051  0.5639 -1.8005  0.2354
  118SOL     hw  471   3.944   3.963   1.098 -0.9405  0.7007  0.5509
  118SOL     vw  472   4.013   4.014   1.115  0.1211 -0.6006  0.3570
  119SOL     ow  473   2.132   6.793   0.204 -0.3270 -0.5914 -0.1743
  119SOL     hw  474   2.211   6.812   0.153 -0.0326 -2.6478 -0.5572
  119SOL     hw  475   2.113   6.875   0.249  0.7214  0.6108 -1.8099
  119SOL     vw  476   2.140   6.806   0.203 -0.1498 -0.7041 -0.4406
  120SOL     ow  477   0.190   0.749   2.914  0.3492  0.1942  0.1981
  120SOL     hw  478   0.268   0.696   2.929  1.0579  1.1619  0.0303
  120SOL     hw  479   0.148   0.709   2.838  1.9640  1.0519 -1.2175
  120SOL     vw  480   0.195   0.737   2.906  0.6557  0.4351 -0.0108
  121SOL     ow  481   6.103   3.415   0.074 -0.0240  1.1921  0.7404
  121SOL     hw  482   6.119   3.356   0.148 -0.5762  1.0078  0.7158
  121SOL     hw  483   6.161   3.489   0.090  0.1639  0.9631  1.1397
  121SOL     vw  484   6.113   3.417   0.086 -0.0718  1.1376  0.7898
  122SOL     ow  485   7.036   0.311   1.686  0.0926  0.0823 -0.2032
  122SOL     hw  486   7.069   0.320   1.597  1.2994 -0.6919  0.1465
  122SOL     hw  487   7.112   0.324   1.742 -0.5439  0.0454  0.7000
  122SOL     vw  488   7.050   0.314   1.682  0.1678 -0.0248 -0.0378
  123SOL     ow  489   3.078   7.253   5.078  0.4720 -0.1911  0.2795
  123SOL     hw  490   3.132   7.223   5.151  3.1240  1.9247 -0.6296
  123SOL     hw  491   3.141   7.293   5.017 -1.7397 -0.9521 -2.7046
  123SOL     vw  492   3.094   7.254   5.080  0.5300 -0.0124 -0.2344
  124SOL     ow  493   2.268   5.901   0.135 -0.2894 -1.0843 -0.9596
  124SOL     hw  494   2.361   5.906   0.157 -0.4491 -1.4914 -0.1787
  124SOL     hw  495   2.262   5.828   0.073  0.2909  0.6169 -3.1779
  124SOL     vw  496   2.280   5.892   0.129 -0.2339 -0.9136 -1.1493
  125SOL     ow  497   5.936   2.106   1.034 -0.2601 -0.6674 -0.0777
  125SOL     hw  498   5.853   2.062   1.023 -0.8302  0.8008 -2.1367
  125SOL     hw  499   5.913   2.194   1.065  0.4828 -0.1362 -0.9864
  125SOL     vw  500   5.922   2.112   1.037 -0.2375 -0.4036 -0.4691
  126SOL     ow  501   1.747   4.528   6.677  0.5892  0.7310  0.1042
  126SOL     hw  502   1.821   4.467   6.678  0.5603  0.6963  0.7909
  126SOL     hw  503   1.729   4.543   6.584  0.9851  0.1660 -0.0679
  126SOL     vw  504   1.755   4.522   6.665  0.6376  0.6518  0.1724
  127SOL     ow  505   4.497   4.038   6.664  0.3846  0.1063  0.4543
  127SOL     hw  506   4.437   4.109   6.641 -0.7164 -1.3636 -1.5643
  127SOL     hw  507   4.566   4.043   6.597 -0.4209 -1.4833 -0.5551
  127SOL     vw  508   4.498   4.048   6.652  0.1330 -0.2971  0.0548
  128SOL     ow  509   3.350   2.361   0.235 -0.4747  0.0146 -0.5953
  128SOL     hw  510   3.363   2.345   0.142  0.2651 -0.6628 -0.3841
  128SOL     hw  511   3.294   2.289   0.264 -0.6082  0.1586 -0.4905
  128SOL     vw  512   3.344   2.349   0.227 -0.3947 -0.0558 -0.5536
  129SOL     ow  513   0.117   1.570   5.048  0.5485  0.1379 -0.2158
  129SOL     hw  514   0.099   1.651   5.095 -1.6137 -0.7126  0.5358
  129SOL     hw  515   0.150   1.598   4.962 -1.4336  1.8566 -0.4898
  129SOL     vw  516   0.119   1.584   5.043  0.0017  0.2524 -0.1526
  130SOL     ow  517   1.915   2.347   3.911 -0.4827 -0.1527 -0.0597
  130SOL     hw  518   1.874   2.282   3.854 -1.3707 -0.3284  0.7425
  130SOL     hw  519   1.860   2.346   3.990  0.5113  0.3260  0.6467
  130SOL     vw  520   1.902   2.338   3.914 -0.4687 -0.1127  0.1394
  131SOL     ow  521   6.410   0.269   6.756  0.0452  0.0743 -0.1541
  131SOL     hw  522   6.432   0.337   6.819 -2.0677  1.8099 -1.1560
  131SOL     hw  523   6.491   0.254   6.707  1.0522  0.4640  1.3290
  131SOL     vw  524   6.423   0.276   6.758 -0.1004  0.3547 -0.0906
  132SOL     ow  525   0.013   0.378   1.868 -0.1358  0.4127  0.7455
  132SOL     hw  526   0.002   0.413   1.957  3.5612  1.5279  0.9229
  132SOL     hw  527   0.041   0.453   1.817  1.2188 -0.9132 -0.5377
  132SOL     vw  528   0.015   0.393   1.873  0.5310  0.3849  0.5996
  133SOL     ow  529   5.437   5.027   0.257 -0.4376  0.4012 -0.0969
  133SOL     hw  530   5.438   4.967   0.182  0.5080  0.1724  0.0844
  133SOL     hw  531   5.498   5.096   0.233  0.5620 -0.1337  0.8090
  133SOL     vw  532   5.445   5.028   0.244 -0.1810  0.3002  0.0465
  134SOL     ow  533   4.743   0.464   5.382  0.6629 -0.0152  0.5002
  134SOL     hw  534   4.652   0.445   5.360  1.0774 -2.1756  0.4487
  134SOL     hw  535   4.794   0.411   5.321  1.9513  0.7371  0.8872
  134SOL     vw  536   4.738   0.455   5.371  0.8874 -0.2010  0.5445
  135SOL     ow  537   3.506   0.146   1.006  0.2641  0.0556  0.1166
  135SOL     hw  538   3.424   0.175   0.967  0.0861  0.6833  0.9347
  135SOL     hw  539   3.489   0.058   1.038  0.7800 -1.0090 -2.3171
  135SOL     vw  540   3.493   0.138   1.005  0.3088 -0.0021 -0.0966
  136SOL     ow  541   4.577   0.079   1.937  0.1198 -0.1843  0.4102
  136SOL     hw  542   4.615   0.046   2.019  2.3741  2.6345  0.6608
  136SOL     hw  543   4.509   0.140   1.965 -2.0399 -2.2844  0.0077
  136SOL     vw  544   4.573   0.083   1.952  0.1321 -0.0895  0.3901
  137SOL     ow  545   4.379   4.394   3.741 -0.2230 -0.2779  0.3669
  137SOL     hw  546   4.464   4.423   3.775 -0.5665  0.5241  0.5472
  137SOL     hw  547   4.401   4.346   3.661  0.4012 -0.0621  0.4034
  137SOL     vw  548   4.393   4.392   3.735 -0.1862 -0.1438  0.3955
  138SOL     ow  549   5.138   3.921   5.166  0.8778  0.4589 -0.2010
  138SOL     hw  550   5.086   3.938   5.245  2.2956  0.8538  0.6869
  138SOL     hw  551   5.201   3.993   5.164  0.8262  0.4962 -1.7580
  138SOL     vw  552   5.139   3.933   5.176  1.0581  0.5161 -0.2892
  139SOL     ow  553   5.910   7.154   0.393 -0.1242  0.3192 -0.0248
  139SOL     hw  554   5.905   7.142   0.488  0.7957 -1.4512 -0.1626
  139SOL     hw  555   5.917   7.249   0.382  1.5158  0.4809  1.8045
  139SOL     vw  556   5.911   7.165   0.404  0.2131  0.1073  0.1984
  140SOL     ow  557   4.898   7.084   1.586 -0.1037  0.2829 -0.1729
  140SOL     hw  558   4.828   7.018   1.591  1.2389 -1.3876 -1.8316
  140SOL     hw  559   4.976   7.038   1.618  0.1865  2.3229  2.3309
  140SOL     vw  560   4.899   7.069   1.591  0.1116  0.3316 -0.0613
  141SOL     ow  561   6.015   4.073   2.472  0.5565  1.1178 -0.0632
  141SOL     hw  562   6.054   4.031   2.549 -2.0913 -0.4170  0.5926
  141SOL     hw  563   6.025   4.166   2.489  1.5063  0.7962  1.3626
  141SOL     vw  564   6.021   4.079   2.485  0.3326  0.8731  0.2114
  142SOL     ow  565   5.262   4.824   0.364  0.1150  0.0029 -0.7385
  142SOL     hw  566   5.182   4.789   0.403 -0.4539  0.4184 -1.5184
  142SOL     hw  567   5.307   4.747   0.328  0.1183 -0.2380 -0.2349
  142SOL     vw  568   5.258   4.809   0.364  0.0405  0.0260 -0.7750
  143SOL     ow  569   3.996   3.462   6.200  0.3969 -0.1899  0.0571
  143SOL     hw  570   4.052   3.502   6.266  0.9814  2.5032 -1.8712
  143SOL     hw  571   4.057   3.434   6.131 -0.3115 -1.3800 -0.1093
  143SOL     vw  572   4.011   3.464   6.199  0.3805  0.0083 -0.2193
  144SOL     ow  573   0.813   4.401   5.470 -0.0337 -0.2553  0.1095
  144SOL     hw  574   0.859   4.485   5.476  0.4734 -0.3688 -1.6764
  144SOL     hw  575   0.879   4.339   5.442 -0.9904 -0.6501 -1.3970
  144SOL     vw  576   0.828   4.404   5.467 -0.0931 -0.3226 -0.3252
  145SOL     ow  577   6.764   6.626   4.928 -0.6692 -0.2147 -0.0072
  145SOL     hw  578   6.759   6.566   5.003 -3.9427 -0.6060 -0.3780
  145SOL     hw  579   6.840   6.595   4.878 -0.6802 -2.3937  1.1805
  145SOL     vw  580   6.773   6.614   4.931 -1.1027 -0.5541  0.1009
  146SOL     ow  581   0.465   7.218   0.473  0.4421 -0.5440  0.0173
  146SOL     hw  582   0.429   7.130   0.461  1.4558 -1.5240  3.1787
  146SOL     hw  583   0.390   7.276   0.466 -0.3273 -1.6689 -1.6690
  146SOL     vw  584   0.451   7.214   0.470  0.4743 -0.8216  0.2120
  147SOL     ow  585   2.725   6.758   0.918 -0.4288  0.4269  1.0083
  147SOL     hw  586   2.656   6.744   0.983 -0.9869  1.1467  0.5821
  147SOL     hw  587   2.732   6.675   0.872  0.7266 -0.4697  2.6610
  147SOL     vw  588   2.717   6.745   0.921 -0.3500  0.4034  1.1702
  148SOL     ow  589   5.710   6.404   5.681 -0.0926  0.2222  0.1774
  148SOL     hw  590   5.626   6.428   5.720  0.0588  0.4422  0.3674
  148SOL     hw  591   5.770   6.395   5.754 -0.3130 -1.5028  0.1904
  148SOL     vw  592   5.707   6.406   5.696 -0.1018  0.0234  0.2043
  149SOL     ow  593   1.042   3.921   6.567 -0.1318  0.5806  0.1623
  149SOL     hw  594   0.953   3.890   6.546 -1.6649  2.9626  2.5269
  149SOL     hw  595   1.049   3.910   6.662  1.6181  1.6412  0.1832
  149SOL     vw  596   1.031   3.915   6.576 -0.1032  1.0349  0.4768
  150SOL     ow  597   6.673   5.043   2.089 -0.6399  0.0499  1.0110
  150SOL     hw  598   6.619   5.116   2.059  0.6019  0.9031  0.7573
  150SOL     hw  599   6.763   5.072   2.074 -0.1083 -1.7642  0.3629
  150SOL     vw  600   6.678   5.056   2.083 -0.4060 -0.0770  0.8920
  151SOL     ow  601   6.957   2.004   1.419  0.5113  0.0705 -0.3071
  151SOL     hw  602   6.929   1.941   1.485  3.5178  0.0837  1.1289
  151SOL     hw  603   6.901   2.081   1.435 -1.2543 -1.1724 -0.2253
  151SOL     vw  604   6.946   2.006   1.430  0.6750 -0.0917 -0.1068
  152SOL     ow  605   1.666   4.827   1.017 -0.2197 -0.0838  0.2055
  152SOL     hw  606   1.598   4.892   1.030  1.3217  1.2576  2.1012
  152SOL     hw  607   1.740   4.876   0.980  1.0114 -0.6643  1.7800
  152SOL     vw  608   1.667   4.842   1.014  0.1460  0.0167  0.6633
  153SOL     ow  609   2.377   6.462   3.513  0.3634  0.4585  0.1415
  153SOL     hw  610   2.437   6.453   3.438 -0.8088 -1.2892 -0.6674
  153SOL     hw  611   2.335   6.547   3.500  0.8187  0.5683 -0.6954
  153SOL     vw  612   2.379   6.472   3.501  0.2688  0.2425 -0.0756
  154SOL     ow  613   4.500   3.346   0.060  0.2034  0.2268  0.0724
  154SOL     hw  614   4.571   3.338   0.124  0.9378 -1.2233 -0.8547
  154SOL     hw  615   4.437   3.405   0.100  1.5980  0.9651  1.2524
  154SOL     vw  616   4.501   3.353   0.074  0.4845  0.1329  0.1058
  155SOL     ow  617   5.848   1.096   2.663  0.1838  0.1756 -0.0666
  155SOL     hw  618   5.873   1.037   2.734  0.3612  0.9114  0.4962
  155SOL     hw  619   5.932   1.128   2.628  0.0946  0.8769  0.3203
  155SOL     vw  620   5.863   1.093   2.668  0.1957  0.3652  0.0588
  156SOL     ow  621   3.194   2.342   0.912  0.3817  0.2685 -0.3670
  156SOL     hw  622   3.282   2.312   0.889  0.6537 -0.7643  1.8060
  156SOL     hw  623   3.200   2.369   1.003 -1.2474  1.5344 -0.5822
  156SOL     vw  624   3.206   2.341   0.921  0.2028  0.2991 -0.1087
  157SOL     ow  625   4.340   2.733   5.537  0.0977 -0.4943  0.3114
  157SOL     hw  626   4.314   2.799   5.472 -2.2596  0.8587  2.4146
  157SOL     hw  627   4.420   2.768   5.576 -0.9194  1.0468  1.1347
  157SOL     vw  628   4.347   2.747   5.534 -0.3476 -0.1123  0.6974
  158SOL     ow  629   4.024   1.912   2.888 -0.0485 -0.5302 -0.5077
  158SOL     hw  630   4.005   1.966   2.965 -0.7463 -0.0656 -0.9867
  158SOL     hw  631   4.070   1.971   2.829 -1.3045 -0.2701 -1.2622
  158SOL     vw  632   4.027   1.927   2.891 -0.3064 -0.4346 -0.6704
  159SOL     ow  633   5.591   4.573   3.764  0.2671  0.6285 -0.1027
  159SOL     hw  634   5.499   4.572   3.740  0.2943  0.0316 -0.2076
  159SOL     hw  635   5.628   4.497   3.719  0.5843  0.2192  0.8133
  159SOL     vw  636   5.584   4.562   3.755  0.3123  0.4961  0.0044
  160SOL     ow  637   3.370   3.885   2.117  0.8473 -0.3136  0.0953
  160SOL     hw  638   3.425   3.961   2.134  3.4503 -2.2360  0.9750
  160SOL     hw  639   3.410   3.843   2.041 -3.0254  1.2360 -3.1290
  160SOL     vw  640   3.383   3.889   2.109  0.6797 -0.3628 -0.2141
  161SOL     ow  641   6.893   2.722   0.573 -0.2527 -0.1164  0.8609
  161SOL     hw  642   6.869   2.639   0.533  0.0351 -0.1343  0.7241
  161SOL     hw  643   6.913   2.700   0.664  0.8387 -0.3808  0.5797
  161SOL     vw  644   6.893   2.708   0.580 -0.0706 -0.1537  0.8058
  162SOL     ow  645   3.021   3.221   6.090 -0.2378 -0.4270 -0.2299
  162SOL     hw  646   2.931   3.195   6.069  0.4578 -1.9400 -1.6080
  162SOL     hw  647   3.052   3.154   6.152  0.6317 -1.3187 -1.5519
  162SOL     vw  648   3.013   3.208   6.095 -0.0314 -0.7443 -0.5863
  163SOL     ow  649   5.184   2.251   6.140 -0.3375  0.8727 -0.3552
  163SOL     hw  650   5.234   2.327   6.112  1.9348 -0.3302  0.2263
  163SOL     hw  651   5.099   2.286   6.167  0.2950  3.0374 -1.0167
  163SOL     vw  652   5.179   2.265   6.140  0.0458  0.9997 -0.3657
  164SOL     ow  653   1.535   4.312   0.599  0.0018 -0.0149 -0.2020
  164SOL     hw  654   1.474   4.356   0.541  1.7369  0.3867 -1.8204
  164SOL     hw  655   1.513   4.219   0.592 -1.6237  0.2735  0.7486
  164SOL     vw  656   1.524   4.306   0.591  0.0163  0.0763 -0.2902
  165SOL     ow  657   2.370   2.786   0.932  0.1136 -0.4114 -0.2182
  165SOL     hw  658   2.311   2.859   0.912  1.4239  0.8331  0.3067
  165SOL     hw  659   2.336   2.749   1.013  0.6572  0.9894  0.6707
  165SOL     vw  660   2.358   2.791   0.940  0.3583 -0.0625 -0.0317
  166SOL     ow  661   1.619   1.164   5.534  0.2618  0.0290  0.3531
  166SOL     hw  662   1.589   1.216   5.608  2.1648 -0.4136  1.4855
  166SOL     hw  663   1.695   1.213   5.500  0.7210 -0.8727  0.0606
  166SOL     vw  664   1.625   1.178   5.539  0.5735 -0.1484  0.4637
  167SOL     ow  665   2.854   3.629   6.222 -0.0950  0.7529 -0.1826
  167SOL     hw  666   2.788   3.596   6.284  0.5718  1.2585  0.8279
  167SOL     hw  667   2.924   3.661   6.278  0.4259  1.4434 -1.2198
  167SOL     vw  668   2.854   3.629   6.238  0.0618  0.9108 -0.1860
  168SOL     ow  669   4.598   3.491   4.389  0.1563  0.7040 -0.4468
  168SOL     hw  670   4.661   3.481   4.460 -1.7074 -0.6736  1.1231
  168SOL     hw  671   4.528   3.544   4.427 -0.1343  1.3487 -1.8231
  168SOL     vw  672   4.597   3.496   4.403 -0.1280  0.6074 -0.4213
  169SOL     ow  673   3.943   2.781   6.871  0.2557 -0.0533  0.1504
  169SOL     hw  674   3.960   2.726   6.947 -1.2457  1.5447  1.7375
  169SOL     hw  675   4.029   2.795   6.832  1.2897  0.2161  2.3826
  169SOL     vw  676   3.956   2.776   6.875  0.1941  0.1931  0.6540
  170SOL     ow  677   5.406   3.488   2.887  0.2192  0.6214 -0.0286
  170SOL     hw  678   5.353   3.563   2.862 -0.6955 -0.2036 -0.6129
  170SOL     hw  679   5.467   3.475   2.814 -0.7001 -0.1737 -0.6785
  170SOL     vw  680   5.407   3.496   2.874 -0.0226  0.4077 -0.1915
  171SOL     ow  681   5.488   2.893   4.433  0.3462 -0.1773 -0.1760
  171SOL     hw  682   5.518   2.847   4.354 -2.1192 -0.4548 -1.0307
  171SOL     hw  683   5.488   2.985   4.409  0.9233 -0.1229  0.0038
  171SOL     vw  684   5.492   2.899   4.419  0.0970 -0.2067 -0.2651
  172SOL     ow  685   5.797   5.839   2.916  0.5771  0.4151  0.8213
  172SOL     hw  686   5.754   5.754   2.911  1.1564 -0.3748  5.4460
  172SOL     hw  687   5.889   5.821   2.895  0.3494  0.4137 -0.2784
  172SOL     vw  688   5.803   5.826   2.912  0.6235  0.3109  1.2864
  173SOL     ow  689   3.144   6.678   4.061  0.1616 -0.0900  0.0245
  173SOL     hw  690   3.077   6.611   4.052 -1.4343  1.2422  1.3239
  173SOL     hw  691   3.112   6.735   4.131  1.6906  1.7245 -0.6595
  173SOL     vw  692   3.131   6.677   4.069  0.1527  0.3252  0.1059
  174SOL     ow  693   6.437   2.892   0.231  0.2120  0.1006  0.6284
  174SOL     hw  694   6.372   2.890   0.161  1.7198 -0.7159 -0.8300
  174SOL     hw  695   6.512   2.938   0.194  0.7538  0.4162  2.0221
  174SOL     vw  696   6.438   2.898   0.217  0.4823  0.0345  0.6199
  175SOL     ow  697   6.652   1.916   3.802  0.2213  0.2737  0.0281
  175SOL     hw  698   6.558   1.898   3.811 -0.1185  1.7197 -0.3307
  175SOL     hw  699   6.658   2.012   3.800  1.4117  0.2435 -2.8505
  175SOL     vw  700   6.640   1.926   3.803  0.3333  0.4605 -0.3990
  176SOL     ow  701   5.529   6.958   2.394 -0.3893  0.3344  0.8705
  176SOL     hw  702   5.619   6.933   2.418 -0.9012 -0.7801  1.7649
  176SOL     hw  703   5.536   6.990   2.304  0.8473 -0.1123  0.7809
  176SOL     vw  704   5.542   6.959   2.385 -0.2937  0.1285  0.9768
  177SOL     ow  705   2.107   7.122   6.714  0.3094  0.3165 -0.3382
  177SOL     hw  706   2.047   7.158   6.647  0.6900  0.0160 -0.8490
  177SOL     hw  707   2.049   7.089   6.782 -0.0581  2.8382  0.6864
  177SOL     vw  708   2.091   7.122   6.714  0.3111  0.6096 -0.2704
  178SOL     ow  709   2.783   0.119   1.368  0.0008 -0.4585  0.4009
  178SOL     hw  710   2.709   0.132   1.309 -0.4082  3.7661  1.5199
  178SOL     hw  711   2.750   0.060   1.436 -1.7885  0.0524  0.0121
  178SOL     vw  712   2.769   0.113   1.369 -0.2892  0.1663  0.4973
  179SOL     ow  713   5.747   6.434   4.419  0.7264  1.0316 -0.7746
  179SOL     hw  714   5.721   6.380   4.494  0.6685  1.8778 -0.1632
  179SOL     hw  715   5.666   6.446   4.369  0.9430 -0.2701 -1.4755
  179SOL     vw  716   5.732   6.429   4.422  0.7472  0.9713 -0.7865
  180SOL     ow  717   6.137   2.579   3.604  0.5100 -0.2969 -0.1607
  180SOL     hw  718   6.069   2.556   3.667 -0.3443  0.6179 -0.7194
  180SOL     hw  719   6.215   2.532   3.635  0.0229 -0.1863  1.3461
  180SOL     vw  720   6.139   2.570   3.617  0.3331 -0.1616 -0.0358
  181SOL     ow  721   6.244   2.241   6.685  0.0622  0.3816  0.6668
  181SOL     hw  722   6.332   2.205   6.699  0.0586  0.3077  0.5059
  181SOL     hw  723   6.252   2.294   6.606 -0.6705 -1.8738 -1.0281
  181SOL     vw  724   6.257   2.243   6.677 -0.0350  0.0741  0.4220
  182SOL     ow  725   6.849   2.196   1.200  0.0978  0.6673  0.0736
  182SOL     hw  726   6.814   2.122   1.152  0.7252  1.1199 -1.1293
  182SOL     hw  727   6.777   2.260   1.203 -0.4451  0.0354  1.1209
  182SOL     vw  728   6.835   2.195   1.194  0.1090  0.6436  0.0531
  183SOL     ow  729   5.027   4.486   4.424  1.1047 -0.2326  0.4341
  183SOL     hw  730   5.062   4.460   4.339  0.7682 -0.6975  0.4326
  183SOL     hw  731   5.080   4.562   4.450 -0.4480  1.5706 -1.3501
  183SOL     vw  732   5.038   4.493   4.416  0.8552 -0.0560  0.1981
  184SOL     ow  733   1.328   6.366   1.635  0.0166 -0.0686 -0.4877
  184SOL     hw  734   1.271   6.406   1.569 -1.0961 -0.7012  0.0561
  184SOL     hw  735   1.325   6.273   1.617 -0.5574 -0.2856  0.6190
  184SOL     vw  736   1.320   6.359   1.624 -0.2059 -0.1807 -0.2699
  185SOL     ow  737   3.587   3.251   6.461  0.0379  0.1947  0.2468
  185SOL     hw  738   3.591   3.293   6.547  0.9222 -1.1588  0.9049
  185SOL     hw  739   3.528   3.176   6.474 -4.4308  2.9367 -1.7613
  185SOL     vw  740   3.580   3.247   6.474 -0.4350  0.3778  0.0687
  186SOL     ow  741   4.380   5.013   5.691 -0.0410  0.2327  0.1784
  186SOL     hw  742   4.343   4.935   5.650  0.7316 -0.2558  0.4131
  186SOL     hw  743   4.409   5.067   5.617 -0.7794  0.4193  0.0074
  186SOL     vw  744   4.379   5.010   5.676 -0.0365  0.1931  0.1869
  187SOL     ow  745   6.441   3.113   0.449  0.3631 -0.0823  0.3276
  187SOL     hw  746   6.441   3.170   0.372 -0.2205 -2.0835 -1.2332
  187SOL     hw  747   6.531   3.114   0.480  0.2338  2.2165  0.8102
  187SOL     vw  748   6.453   3.121   0.443  0.2689 -0.0430  0.1853
  188SOL     ow  749   2.978   3.512   5.944  0.4214  0.0390  0.0649
  188SOL     hw  750   2.953   3.585   6.000  0.2010  0.8929 -1.1262
  188SOL     hw  751   2.929   3.525   5.863  1.2083 -0.8226 -0.5753
  188SOL     vw  752   2.968   3.523   5.941  0.4961  0.0381 -0.1769
  189SOL     ow  753   6.098   5.892   0.338 -1.1691 -0.2185 -0.4030
  189SOL     hw  754   6.087   5.875   0.244  0.8369 -0.5279 -0.6248
  189SOL     hw  755   6.052   5.819   0.380 -2.0799 -0.0871 -1.1346
  189SOL     vw  756   6.091   5.880   0.331 -1.0247 -0.2420 -0.5288
  190SOL     ow  757   4.975   3.785   6.236 -0.1154 -0.7214 -0.1715
  190SOL     hw  758   4.891   3.809   6.197  0.7590  0.7882 -1.1762
  190SOL     hw  759   4.951   3.724   6.306 -2.2362  1.1238  0.8425
  190SOL     vw  760   4.960   3.780   6.240 -0.2799 -0.2787 -0.1702
  191SOL     ow  761   2.696   4.398   6.444 -0.4150 -0.0205  0.2932
  191SOL     hw  762   2.757   4.414   6.372  1.1663  0.0534  1.6016
  191SOL     hw  763   2.627   4.463   6.432  0.6192  0.9986 -0.2842
  191SOL     vw  764   2.695   4.409   6.433 -0.0700  0.1237  0.3898
  192SOL     ow  765   4.828   0.106   1.430  0.3418  0.6849  0.2188
  192SOL     hw  766   4.777   0.178   1.468 -2.1796 -1.1702  0.6228
  192SOL     hw  767   4.795   0.098   1.340  3.7163  2.7219 -1.3780
  192SOL     vw  768   4.817   0.114   1.423  0.4544  0.7088  0.0615
  193SOL     ow  769   2.068   6.817   5.014 -0.3319  0.1137 -0.1275
  193SOL     hw  770   2.105   6.868   4.943 -0.4197  1.3636  0.6999
  193SOL     hw  771   2.082   6.871   5.092 -0.5626 -1.0575  0.7514
  193SOL     vw  772   2.075   6.831   5.015 -0.3738  0.1240  0.0978
  194SOL     ow  773   0.095   2.004   2.720 -0.6743  0.0511  0.4947
  194SOL     hw  774   0.013   2.026   2.677 -0.6928  0.2899  0.6532
  194SOL     hw  775   0.119   2.082   2.768  0.5009  0.5680 -0.8638
  194SOL     vw  776   0.087   2.017   2.721 -0.5217  0.1508  0.3364
  195SOL     ow  777   3.019   4.938   4.624  0.2778 -0.5861  0.0817
  195SOL     hw  778   2.955   4.998   4.663 -0.1785 -2.4271  2.4323
  195SOL     hw  779   3.017   4.861   4.681  2.3707 -1.9763 -1.5687
  195SOL     vw  780   3.011   4.936   4.637  0.4936 -1.0121  0.1740
  196SOL     ow  781   4.812   6.818   5.771 -0.0274  0.6185 -0.2372
  196SOL     hw  782   4.888   6.780   5.727  0.0298  0.8121 -0.3083
  196SOL     hw  783   4.808   6.773   5.855 -0.0258  0.3788 -0.3651
  196SOL     vw  784   4.821   6.807   5.776 -0.0196  0.6125 -0.2635
  197SOL     ow  785   2.121   2.436   3.193 -0.4618 -0.1874  0.8199
  197SOL     hw  786   2.029   2.453   3.212 -0.3927 -0.7424  1.6975
  197SOL     hw  787   2.167   2.512   3.229 -0.8104  2.0894 -2.9689
  197SOL     vw  788   2.115   2.448   3.200 -0.4988  0.0398  0.4358
  198SOL     ow  789   5.968   1.788   4.799 -0.0529  0.1587  0.2391
  198SOL     hw  790   6.013   1.724   4.744 -1.9402 -0.8194 -0.2531
  198SOL     hw  791   6.005   1.775   4.887 -0.7373 -2.0100  0.2632
  198SOL     vw  792   5.979   1.778   4.804 -0.3922 -0.2565  0.1774
  199SOL     ow  793   5.633   5.840   0.140 -0.1710 -0.1565 -0.2892
  199SOL     hw  794   5.576   5.767   0.115 -0.0941 -0.2273 -0.2576
  199SOL     hw  795   5.716   5.799   0.164  0.3103  0.0367 -1.5420
  199SOL     vw  796   5.636   5.825   0.140 -0.0975 -0.1404 -0.4503
  200SOL     ow  797   6.532   3.261   4.294  0.3087 -0.0171 -0.1656
  200SOL     hw  798   6.589   3.338   4.307 -1.0274  1.2658 -1.5395
  200SOL     hw  799   6.568   3.218   4.217  2.0388 -1.7852  1.5163
  200SOL     vw  800   6.545   3.266   4.285  0.3607 -0.0811 -0.1247
  201SOL     ow  801   4.340   3.180   3.958  0.0999  0.5219  0.3510
  201SOL     hw  802   4.398   3.253   3.934  0.4693  0.1579  0.1154
  201SOL     hw  803   4.357   3.114   3.891  1.2195 -0.5527  1.6444
  201SOL     vw  804   4.350   3.181   3.946  0.2964  0.3322  0.4905
  202SOL     ow  805   6.784   6.503   5.164  0.4233 -0.1284  0.0374
  202SOL     hw  806   6.869   6.539   5.188 -0.1370  1.0053  0.4054
  202SOL     hw  807   6.726   6.526   5.237 -0.6058  0.7435 -0.9976
  202SOL     vw  808   6.787   6.511   5.176  0.2134  0.1364 -0.0508
  203SOL     ow  809   3.685   5.249   5.353  0.2532  0.0595  0.0131
  203SOL     hw  810   3.607   5.220   5.401  0.8672  2.2050  2.5925
  203SOL     hw  811   3.750   5.267   5.422  3.1161 -1.6719 -2.0301
  203SOL     vw  812   3.683   5.248   5.369  0.7120  0.1140  0.0839
  204SOL     ow  813   4.772   2.575   4.615  0.1582  0.4227  0.3317
  204SOL     hw  814   4.780   2.651   4.672 -0.2376  0.5667  0.2012
  204SOL     hw  815   4.688   2.587   4.570  0.6499  0.5183 -0.5837
  204SOL     vw  816   4.762   2.586   4.616  0.1709  0.4542  0.1936
  205SOL     ow  817   0.904   4.115   6.785  0.6747  0.6964  0.1539
  205SOL     hw  818   0.890   4.190   6.844 -1.2094  0.9706 -0.5738
  205SOL     hw  819   0.878   4.147   6.699 -0.0280 -0.7537 -0.1981
  205SOL     vw  820   0.899   4.129   6.782  0.3334  0.5412  0.0117
  206SOL     ow  821   2.830   1.240   6.829 -0.6023 -0.2988 -0.9698
  206SOL     hw  822   2.781   1.239   6.747 -1.9761 -2.5036 -0.2279
  206SOL     hw  823   2.768   1.273   6.894 -0.4636 -1.2078 -0.3548
  206SOL     vw  824   2.815   1.244   6.827 -0.7653 -0.7097 -0.7911
  207SOL     ow  825   3.437   6.658   2.400 -0.2854  0.1576 -0.1013
  207SOL     hw  826   3.381   6.715   2.348  1.6860  1.3678 -1.0075
  207SOL     hw  827   3.464   6.589   2.339  0.6710  0.6275 -0.2233
  207SOL     vw  828   3.433   6.657   2.385  0.1009  0.3791 -0.2370
  208SOL     ow  829   7.020   6.958   3.159 -0.2304  0.1898 -0.1263
  208SOL     hw  830   7.009   6.957   3.254 -0.5123 -3.9403 -0.0507
  208SOL     hw  831   7.113   6.976   3.146  0.2445 -1.1957  1.0784
  208SOL     vw  832   7.030   6.961   3.170 -0.2050 -0.5379  0.0427
  209SOL     ow  833   6.294   2.309   6.006  0.3400  0.2586 -0.4362
  209SOL     hw  834   6.247   2.227   6.017 -0.3690  0.5085 -1.4714
  209SOL     hw  835   6.385   2.283   5.989 -0.0623 -0.3699 -1.7583
  209SOL     vw  836   6.300   2.295   6.005  0.1934  0.2087 -0.7474
  210SOL     ow  837   5.552   3.537   3.798  0.0540 -0.0195  0.4896
  210SOL     hw  838   5.576   3.467   3.860 -1.1245 -1.0324 -0.1655
  210SOL     hw  839   5.506   3.601   3.852  1.7401  0.6353  1.2344
  210SOL     vw  840   5.549   3.536   3.814  0.1209 -0.0666  0.5014
  211SOL     ow  841   7.063   6.008   4.659  0.3514 -0.2285  0.1726
  211SOL     hw  842   6.986   6.061   4.679  0.0629 -0.9184  0.9579
  211SOL     hw  843   7.094   5.978   4.745  1.5676  0.1338 -0.1189
  211SOL     vw  844   7.057   6.011   4.673  0.4737 -0.2720  0.2375
  212SOL     ow  845   3.673   0.974   3.176  0.3409  0.0747  0.0350
  212SOL     hw  846   3.764   0.944   3.182  0.7954  1.3903  0.2219
  212SOL     hw  847   3.657   0.981   3.082  0.6439  0.3977  0.0024
  212SOL     vw  848   3.683   0.971   3.164  0.4408  0.2909  0.0556
  213SOL     ow  849   1.906   5.190   1.939 -0.1585 -0.2975 -0.2371
  213SOL     hw  850   1.901   5.281   1.912 -2.4171 -0.0429  0.8324
  213SOL     hw  851   1.820   5.170   1.975  1.3319 -1.8289  2.8862
  213SOL     vw  852   1.894   5.199   1.940 -0.2598 -0.4659  0.3160
  214SOL     ow  853   6.161   0.183   6.890 -0.2847  0.1409 -0.1688
  214SOL     hw  854   6.079   0.227   6.867 -0.8502 -0.2648  1.0071
  214SOL     hw  855   6.189   0.226   6.971 -1.2774 -2.1242  1.4700
  214SOL     vw  856   6.154   0.195   6.897 -0.4902 -0.2114  0.2027
  215SOL     ow  857   0.359   5.922   3.810  0.3792 -0.3510 -0.0559
  215SOL     hw  858   0.423   5.858   3.777 -0.1836 -0.0873 -1.7440
  215SOL     hw  859   0.298   5.934   3.737  0.4705  2.1078  0.2052
  215SOL     vw  860   0.360   5.915   3.796  0.3170  0.0079 -0.2441
  216SOL     ow  861   4.671   1.813   3.649 -0.3532  0.1892  0.7062
  216SOL     hw  862   4.686   1.719   3.654  0.8280  0.2875 -0.4170
  216SOL     hw  863   4.649   1.829   3.557 -1.0682  0.9454  0.9981
  216SOL     vw  864   4.670   1.803   3.637 -0.2916  0.3019  0.5965
  217SOL     ow  865   3.963   3.204   0.599 -0.1316  0.3781  0.2891
  217SOL     hw  866   3.992   3.289   0.634 -1.7201  1.5747 -1.1338
  217SOL     hw  867   4.040   3.169   0.553  0.4193  1.2553  0.5201
  217SOL     vw  868   3.977   3.211   0.598 -0.2685  0.6518  0.1318
  218SOL     ow  869   0.420   3.886   0.434 -0.4316 -0.0298 -0.2262
  218SOL     hw  870   0.420   3.965   0.381  0.2801  0.7029  0.8138
  218SOL     hw  871   0.510   3.854   0.429 -0.3729  0.0119  0.4704
  218SOL     vw  872   0.432   3.892   0.427 -0.3300  0.0724  0.0030
  219SOL     ow  873   1.797   2.403   3.295  0.4558  0.0601  0.0723
  219SOL     hw  874   1.854   2.328   3.309 -0.1723 -0.2121  1.2936
  219SOL     hw  875   1.808   2.458   3.372  0.1654  0.7414 -0.3517
  219SOL     vw  876   1.806   2.401   3.307  0.3347  0.1142  0.1775
  220SOL     ow  877   2.924   0.994   6.886 -0.6800 -0.1099 -0.2014
  220SOL     hw  878   2.885   0.940   6.817  2.1910 -1.6803 -0.7393
  220SOL     hw  879   2.897   0.952   6.967  1.2874 -2.3601 -0.6046
  220SOL     vw  880   2.915   0.982   6.887 -0.0416 -0.6140 -0.3254
  221SOL     ow  881   4.670   1.632   3.934  0.7415 -0.1181  0.1203
  221SOL     hw  882   4.576   1.618   3.922  0.7723  0.2601 -0.6365
  221SOL     hw  883   4.712   1.556   3.894  0.7874  0.1550 -0.3467
  221SOL     vw  884   4.663   1.620   3.927  0.7515 -0.0321 -0.0411
  222SOL     ow  885   3.454   2.821   1.858 -0.1659 -0.2316  0.3231
  222SOL     hw  886   3.377   2.873   1.835 -0.7328 -0.8095  0.8842
  222SOL     hw  887   3.419   2.736   1.885  0.6869 -0.5984  0.3030
  222SOL     vw  888   3.439   2.817   1.859 -0.1281 -0.3563  0.3945
  223SOL     ow  889   6.603   6.315   6.944  0.7473 -0.6288 -0.4372
  223SOL     hw  890   6.571   6.366   7.019  0.7071 -2.2321  0.6974
  223SOL     hw  891   6.686   6.277   6.974  0.5240 -1.6401 -1.0406
  223SOL     vw  892   6.610   6.316   6.958  0.7126 -0.9737 -0.3672
  224SOL     ow  893   4.266   6.795   1.199 -0.0171  0.5519  0.1599
  224SOL     hw  894   4.265   6.830   1.288  0.9877 -0.3762  0.5575
  224SOL     hw  895   4.353   6.816   1.166  0.2268 -0.6351  0.0321
  224SOL     vw  896   4.277   6.803   1.207  0.1476  0.2728  0.1954
  225SOL     ow  897   3.842   3.269   6.325 -0.2399 -0.6861  0.7700
  225SOL     hw  898   3.910   3.323   6.286  1.1788 -2.6724  0.3743
  225SOL     hw  899   3.873   3.251   6.414 -2.7350  2.5502  2.5490
  225SOL     vw  900   3.855   3.273   6.332 -0.3819 -0.5212  0.9522
  226SOL     ow  901   0.501   5.596   2.141  0.2235 -0.7437  0.7231
  226SOL     hw  902   0.451   5.599   2.223  3.0585 -1.5958  2.6243
  226SOL     hw  903   0.559   5.672   2.146 -0.1891 -0.2540 -1.0277
  226SOL     vw  904   0.502   5.607   2.152  0.5431 -0.7913  0.7432
  227SOL     ow  905   5.045   2.293   0.153 -0.8239  0.2542 -0.2312
  227SOL     hw  906   4.977   2.351   0.120 -1.1316  0.2083  0.3118
  227SOL     hw  907   5.069   2.330   0.239 -1.5682 -0.8512  0.4735
  227SOL     vw  908   5.039   2.305   0.160 -0.9627  0.1024 -0.0666
  228SOL     ow  909   0.747   7.212   0.591  0.1631  0.6779  0.4398
  228SOL     hw  910   0.775   7.159   0.665 -0.2534 -1.2038 -0.6794
  228SOL     hw  911   0.825   7.261   0.566  0.4124  1.0436  1.8505
  228SOL     vw  912   0.761   7.211   0.597  0.1410  0.4780  0.4782
  229SOL     ow  913   7.150   3.681   1.399  1.0259 -0.1142 -0.6214
  229SOL     hw  914   7.215   3.631   1.448  3.2163  0.8175 -2.4122
  229SOL     hw  915   7.168   3.772   1.420 -1.3877  0.1409  0.7513
  229SOL     vw  916   7.161   3.686   1.408  0.9964  0.0423 -0.6765
  230SOL     ow  917   1.554   0.279   0.219 -0.2562  0.7131 -0.4252
  230SOL     hw  918   1.621   0.215   0.194 -2.4897 -1.8530 -0.3659
  230SOL     hw  919   1.523   0.249   0.304 -1.6687  1.6062 -0.5957
  230SOL     vw  920   1.558   0.266   0.227 -0.7372  0.4924 -0.4398
  231SOL     ow  921   3.645   5.549   0.836 -1.2727 -0.1988  0.4243
  231SOL     hw  922   3.645   5.468   0.785  2.6927 -0.0524 -0.0973
  231SOL     hw  923   3.622   5.617   0.772 -2.8804 -0.6521  0.4694
  231SOL     vw  924   3.642   5.547   0.821 -0.9617 -0.2391  0.3614
  232SOL     ow  925   2.210   6.600   5.146  0.4150 -0.0220 -0.1870
  232SOL     hw  926   2.232   6.553   5.226  1.1147  1.5536  0.5908
  232SOL     hw  927   2.274   6.670   5.141 -1.4470  1.7730 -0.4636
  232SOL     vw  928   2.221   6.603   5.156  0.2617  0.4227 -0.1206
  233SOL     ow  929   3.769   3.260   6.870  0.4159 -0.7633 -0.3038
  233SOL     hw  930   3.864   3.264   6.861  0.3554 -0.3203 -0.8039
  233SOL     hw  931   3.736   3.265   6.780 -0.1348  1.4947 -0.0486
  233SOL     vw  932   3.777   3.262   6.857  0.3352 -0.4069 -0.3362
  234SOL     ow  933   4.498   3.018   1.828  0.8318  0.1073  0.0190
  234SOL     hw  934   4.467   2.935   1.794  1.9304 -0.1279 -0.4568
  234SOL     hw  935   4.453   3.029   1.912  2.3799 -2.0872  1.2263
  234SOL     vw  936   4.488   3.009   1.835  1.1806 -0.2134  0.1155
  235SOL     ow  937   6.464   3.958   4.223  0.6457 -0.3510 -0.2424
  235SOL     hw  938   6.440   3.947   4.131  0.9932 -0.1104 -0.3637
  235SOL     hw  939   6.406   3.898   4.270 -0.8157  0.8560 -0.4342
  235SOL     vw  940   6.453   3.948   4.217  0.4990 -0.1600 -0.2837
  236SOL     ow  941   2.296   2.980   5.968  0.3394 -0.1411  0.6435
  236SOL     hw  942   2.364   3.013   5.910 -1.8293 -2.1472 -3.4671
  236SOL     hw  943   2.264   3.057   6.014  2.4686  1.5240 -0.5048
  236SOL     vw  944   2.301   2.994   5.967  0.3344 -0.1861 -0.0505
  237SOL     ow  945   1.660   4.618   7.225 -0.0428  0.2318  0.4388
  237SOL     hw  946   1.755   4.615   7.239  0.1084  1.7238 -0.1061
  237SOL     hw  947   1.624   4.561   7.293  1.2931 -1.2034 -0.0019
  237SOL     vw  948   1.668   4.610   7.236  0.1534  0.2391  0.3085
  238SOL     ow  949   2.717   4.851   5.338 -0.5230 -0.3042  0.3487
  238SOL     hw  950   2.753   4.931   5.376 -0.1976 -0.6404  0.7499
  238SOL     hw  951   2.681   4.803   5.412  2.5064 -2.2515  0.7201
  238SOL     vw  952   2.717   4.855   5.352 -0.0806 -0.6056  0.4506
  239SOL     ow  953   2.837   3.341   1.213 -1.1666 -0.2499  0.3148
  239SOL     hw  954   2.929   3.325   1.195 -0.9497 -1.4442  2.2447
  239SOL     hw  955   2.794   3.257   1.197 -1.7441  0.0115  0.4617
  239SOL     vw  956   2.843   3.328   1.208 -1.2141 -0.3730  0.5887
  240SOL     ow  957   3.139   1.323   4.911 -0.6684  0.2888 -0.1616
  240SOL     hw  958   3.075   1.303   4.980  0.2021 -1.2877  0.2383
  240SOL     hw  959   3.100   1.396   4.862 -1.7734  0.7642  1.3630
  240SOL     vw  960   3.125   1.330   4.914 -0.6994  0.1435  0.0923
  241SOL     ow  961   6.152   5.825   5.933  0.3766 -0.1009  0.1020
  241SOL     hw  962   6.151   5.764   6.007 -4.8322  2.4011  2.5907
  241SOL     hw  963   6.189   5.906   5.968 -0.0431  0.4634 -0.7259
  241SOL     vw  964   6.157   5.827   5.947 -0.3660  0.3042  0.3209
  242SOL     ow  965   0.719   4.111   7.011  0.3361 -0.6176 -0.1287
  242SOL     hw  966   0.674   4.037   7.051 -0.9986  0.2009 -0.0293
  242SOL     hw  967   0.809   4.105   7.043 -0.0377 -1.5317  0.8061
  242SOL     vw  968   0.725   4.101   7.020  0.1107 -0.6304  0.0079
  243SOL     ow  969   3.140   1.509   7.216 -0.0766 -1.2433 -0.1035
  243SOL     hw  970   3.209   1.491   7.280 -0.3711 -0.1769  0.5240
  243SOL     hw  971   3.184   1.557   7.146 -0.1694 -0.6290  0.2609
  243SOL     vw  972   3.155   1.513   7.215 -0.1277 -1.0215  0.0274
  244SOL     ow  973   0.686   3.315   5.232  0.6791  0.0007  0.5624
  244SOL     hw  974   0.714   3.227   5.208 -0.2422  0.2125 -1.4432
  244SOL     hw  975   0.706   3.321   5.326 -0.7522 -2.9385  1.1712
  244SOL     vw  976   0.692   3.304   5.242  0.3686 -0.3591  0.3781
  245SOL     ow  977   3.328   1.057   4.993 -0.7099 -0.0274  0.0473
  245SOL     hw  978   3.300   0.966   4.982  1.5552 -0.9160  1.0995
  245SOL     hw  979   3.312   1.076   5.085 -2.3367  1.1244 -0.4254
  245SOL     vw  980   3.322   1.047   5.004 -0.6258  0.0073  0.1235
  246SOL     ow  981   0.186   4.188   3.258  0.4491  0.2066 -0.3633
  246SOL     hw  982   0.107   4.196   3.203 -0.7944  0.5849  1.4091
  246SOL     hw  983   0.194   4.094   3.274 -0.5236  0.2819  0.6491
  246SOL     vw  984   0.176   4.177   3.253  0.1567  0.2666  0.0043
  247SOL     ow  985   0.725   6.114   0.050  0.2344 -0.2452  0.3354
  247SOL     hw  986   0.697   6.158  -0.030 -2.2280  1.1056  1.8116
  247SOL     hw  987   0.794   6.170   0.087 -0.5922  0.6641  0.5382
  247SOL     vw  988   0.730   6.127   0.045 -0.1995  0.0529  0.5570
  248SOL     ow  989   0.611   5.286   4.718 -0.1851 -0.3849  0.1521
  248SOL     hw  990   0.670   5.247   4.783 -1.9189 -0.1155  2.0268
  248SOL     hw  991   0.668   5.333   4.658  1.5127  0.1131  2.0209
  248SOL     vw  992   0.626   5.287   4.719 -0.1898 -0.2837  0.6459
  249SOL     ow  993   0.574   0.445   6.492  0.2324  0.2960  0.2553
  249SOL     hw  994   0.583   0.351   6.508 -1.6803  0.2807  1.6943
  249SOL     hw  995   0.603   0.486   6.574 -1.7658  0.7284  0.8183
  249SOL     vw  996   0.579   0.438   6.505 -0.2836  0.3510  0.5198
  250SOL     ow  997   5.063   5.146   6.598  0.1103  0.2797  0.5277
  250SOL     hw  998   5.107   5.112   6.520  1.0452 -0.0756  1.1798
  250SOL     hw  999   5.132   5.193   6.646 -0.5348  0.8086  0.9564
  250SOL     vw 1000   5.078   5.148   6.594  0.1488  0.3028  0.6702
  251SOL     ow 1001   1.858   3.590   4.844  0.5481 -0.0842 -0.0477
  251SOL     hw 1002   1.815   3.570   4.761 -0.1798  1.0786  0.0276
  251SOL     hw 1003   1.888   3.680   4.835  0.8021 -0.0691  0.8068
  251SOL     vw 1004   1.856   3.599   4.832  0.4855  0.0712  0.0746
  252SOL     ow 1005   4.376   5.978   4.692  0.3061 -0.2029  0.4802
  252SOL     hw 1006   4.408   5.904   4.639  0.1861 -0.1385  0.3168
  252SOL     hw 1007   4.325   5.938   4.762 -0.9022 -0.2176 -0.3818
  252SOL     vw 1008   4.374   5.963   4.694  0.1309 -0.1962  0.3450
  253SOL     ow 1009   4.901   6.154   4.549  0.0298 -0.4585  0.6743
  253SOL     hw 1010   4.936   6.177   4.635  0.6786 -1.2529  0.6399
  253SOL     hw 1011   4.979   6.134   4.497 -0.3867 -0.4318  0.0364
  253SOL     vw 1012   4.916   6.154   4.553  0.0606 -0.5600  0.5858
  254SOL     ow 1013   5.841   0.356   3.467 -0.2082 -0.2927 -0.5102
  254SOL     hw 1014   5.786   0.433   3.453 -0.7205 -0.7206 -0.8981
  254SOL     hw 1015   5.833   0.337   3.561  0.5377  0.5761 -0.2552
  254SOL     vw 1016   5.833   0.364   3.478 -0.1771 -0.2345 -0.5276
  255SOL     ow 1017   4.385   4.281   4.042  0.2350 -0.0567  0.2979
  255SOL     hw 1018   4.316   4.233   3.995 -0.9038  1.5000  0.2880
  255SOL     hw 1019   4.465   4.264   3.991  0.0691 -2.5204  0.7413
  255SOL     vw 1020   4.386   4.273   4.029  0.0627 -0.1764  0.3552
  256SOL     ow 1021   3.534   0.511   4.108  0.1073 -0.1801 -0.5542
  256SOL     hw 1022   3.555   0.458   4.031 -0.2091 -0.2743 -0.5785
  256SOL     hw 1023   3.490   0.450   4.168  3.0854 -0.9309  1.0531
  256SOL     vw 1024   3.531   0.496   4.106  0.4585 -0.2916 -0.3455
  257SOL     ow 1025   3.437   2.660   0.264 -0.3064  0.6323  0.5660
  257SOL     hw 1026   3.479   2.726   0.209  1.2284 -1.5876 -1.1194
  257SOL     hw 1027   3.345   2.687   0.269  0.1752  2.5943 -0.4240
  257SOL     vw 1028   3.430   2.673   0.258 -0.0404  0.5982  0.2130
  258SOL     ow 1029   2.504   4.431   0.947 -0.5537 -0.9935  0.1518
  258SOL     hw 1030   2.551   4.364   0.995  0.6757 -0.0973  0.2436
  258SOL     hw 1031   2.564   4.459   0.878 -0.3121  1.1980  1.1692
  258SOL     vw 1032   2.518   4.426   0.944 -0.3597 -0.5860  0.2981
  259SOL     ow 1033   4.326   4.264   6.636  0.4980  0.2070 -0.2619
  259SOL     hw 1034   4.285   4.253   6.722 -1.9253  3.5748 -0.8097
  259SOL     hw 1035   4.393   4.330   6.649  1.1006 -0.2976 -0.7255
  259SOL     vw 1036   4.329   4.271   6.649  0.2580  0.5848 -0.3955
  260SOL     ow 1037   1.283   1.639   4.810  0.4751  0.0901 -0.2744
  260SOL     hw 1038   1.326   1.725   4.809  1.0900 -0.1373  1.8021
  260SOL     hw 1039   1.295   1.606   4.721  3.6000  0.5635 -0.1527
  260SOL     vw 1040   1.291   1.646   4.798  0.9685  0.1225  0.0157
  261SOL     ow 1041   5.143   5.692   6.692  0.0741  0.7485  0.4093
  261SOL     hw 1042   5.203   5.650   6.630  2.8160  2.7381  1.4978
  261SOL     hw 1043   5.100   5.619   6.737 -0.9705 -0.7497 -2.7132
  261SOL     vw 1044   5.145   5.677   6.690  0.2980  0.8135  0.1409
  262SOL     ow 1045   1.547   5.223   0.835  0.3806 -0.9856  0.1326
  262SOL     hw 1046   1.642   5.234   0.827  0.4261 -0.7143  0.9217
  262SOL     hw 1047   1.535   5.172   0.915 -0.1569 -0.5333  0.3483
  262SOL     vw 1048   1.558   5.218   0.844  0.3157 -0.8900  0.2652
  263SOL     ow 1049   3.390   5.956   7.137  0.2100 -0.4404 -0.8235
  263SOL     hw 1050   3.344   6.006   7.069  1.0971  2.1861  0.3730
  263SOL     hw 1051   3.324   5.941   7.204 -0.0028 -0.6267 -1.0742
  263SOL     vw 1052   3.375   5.961   7.137  0.2990 -0.1185 -0.6986
  264SOL     ow 1053   3.708   5.409   5.114  0.3367  0.3410 -0.2069
  264SOL     hw 1054   3.780   5.467   5.138  0.0108  0.6552  0.0230
  264SOL     hw 1055   3.680   5.369   5.196 -0.3525  0.9215 -0.1510
  264SOL     vw 1056   3.714   5.411   5.128  0.2028  0.4592 -0.1693
  265SOL     ow 1057   5.470   5.383   0.762  0.3176  0.7137 -0.2036
  265SOL     hw 1058   5.537   5.448   0.742  0.3095  1.1688  1.1477
  265SOL     hw 1059   5.516   5.318   0.816  0.0454  0.1983 -0.5820
  265SOL     vw 1060   5.485   5.383   0.767  0.2809  0.7057 -0.0752
  266SOL     ow 1061   1.457   1.659   2.346  0.7373 -0.2040 -0.4540
  266SOL     hw 1062   1.405   1.627   2.420  0.7020  1.0633  0.0981
  266SOL     hw 1063   1.510   1.730   2.382  1.0528  0.1455 -1.5476
  266SOL     vw 1064   1.457   1.664   2.360  0.7743  0.0094 -0.5254
  267SOL     ow 1065   6.817   5.558   3.664  0.5574 -0.3235  0.3340
  267SOL     hw 1066   6.885   5.623   3.650  0.6059 -0.9827 -3.7310
  267SOL     hw 1067   6.835   5.522   3.751  1.5020  3.7887  2.0510
  267SOL     vw 1068   6.828   5.562   3.673  0.6886  0.1318  0.0242
  268SOL     ow 1069   7.110   2.098   2.938 -0.1435  0.5255 -0.0234
  268SOL     hw 1070   7.117   2.180   2.889 -0.9829  1.6986  1.6960
  268SOL     hw 1071   7.074   2.035   2.875  3.4613  0.5126 -2.3029
  268SOL     vw 1072   7.106   2.100   2.923  0.2210  0.6784 -0.0973
  269SOL     ow 1073   6.646   2.936   2.552  0.0063 -0.3181  0.3508
  269SOL     hw 1074   6.624   2.910   2.463  0.3547 -0.1749  0.2181
  269SOL     hw 1075   6.564   2.928   2.601 -0.7528  1.7377 -0.4713
  269SOL     vw 1076   6.633   2.932   2.546 -0.0479 -0.0280  0.2248
  270SOL     ow 1077   2.082   2.535   5.263  0.5570 -0.0257  0.3811
  270SOL     hw 1078   2.054   2.626   5.275  2.2565  0.8802 -1.8523
  270SOL     hw 1079   2.135   2.515   5.341  0.8217  1.1614  0.5150
  270SOL     vw 1080   2.085   2.544   5.275  0.8161  0.2503  0.1040
  271SOL     ow 1081   6.392   4.232   4.131  0.4871 -0.7976 -0.3690
  271SOL     hw 1082   6.361   4.320   4.152  0.6650 -1.0492  1.0190
  271SOL     hw 1083   6.312   4.181   4.117  0.3777 -0.5065 -0.8347
  271SOL     vw 1084   6.378   4.237   4.132  0.4959 -0.7925 -0.2472
  272SOL     ow 1085   4.066   4.525   2.751 -0.4723  0.6434 -0.1217
  272SOL     hw 1086   4.126   4.567   2.812  0.9689 -1.0887 -0.2716
  272SOL     hw 1087   4.091   4.433   2.751 -1.2346  0.3515 -2.3961
  272SOL     vw 1088   4.077   4.519   2.759 -0.3829  0.3765 -0.4416
  273SOL     ow 1089   5.847   2.385   5.629 -0.0965  0.1658 -0.5226
  273SOL     hw 1090   5.818   2.332   5.704 -0.3930 -0.1951 -0.8836
  273SOL     hw 1091   5.906   2.449   5.666  0.5007 -0.6047 -0.1102
  273SOL     vw 1092   5.851   2.386   5.644 -0.0570  0.0166 -0.5159
  274SOL     ow 1093   1.726   4.810   1.453  0.7740 -0.1218 -0.1094
  274SOL     hw 1094   1.706   4.875   1.521  1.1509  0.3674 -0.4580
  274SOL     hw 1095   1.686   4.846   1.374  0.4468 -0.6276 -0.1743
  274SOL     vw 1096   1.718   4.824   1.452  0.7806 -0.1240 -0.1640
  275SOL     ow 1097   5.542   5.424   4.777  0.2673 -0.0633  0.1045
  275SOL     hw 1098   5.588   5.409   4.695  2.0514  2.5169  0.4868
  275SOL     hw 1099   5.604   5.475   4.830 -0.5744 -2.0511  3.2935
  275SOL     vw 1100   5.557   5.429   4.773  0.3917  0.0148  0.5755
  276SOL     ow 1101   2.074   7.232   4.260  0.2903 -0.4471 -0.1097
  276SOL     hw 1102   1.999   7.182   4.227 -1.5754  2.9889 -1.5790
  276SOL     hw 1103   2.048   7.258   4.349  0.3442 -0.4191 -0.1023
  276SOL     vw 1104   2.061   7.229   4.267  0.0513  0.0099 -0.3028
  277SOL     ow 1105   0.870   3.657   2.130 -0.3564 -0.1698 -0.0435
  277SOL     hw 1106   0.919   3.668   2.213  3.9902 -1.1398 -2.1668
  277SOL     hw 1107   0.875   3.564   2.112  0.3857  0.2314 -2.1690
  277SOL     vw 1108   0.877   3.646   2.139  0.3150 -0.2446 -0.6040
  278SOL     ow 1109   2.932   6.589   6.108  0.6321  0.2585 -0.3432
  278SOL     hw 1110   3.013   6.574   6.155  1.1737  4.7454  0.5387
  278SOL     hw 1111   2.876   6.636   6.169 -0.7389  1.5252 -2.4150
  278SOL     vw 1112   2.935   6.593   6.122  0.5227  1.0176 -0.5002
  279SOL     ow 1113   1.702   2.001   5.434  0.5972 -0.7147 -0.6164
  279SOL     hw 1114   1.723   2.083   5.388 -2.5136  1.2160  1.0158
  279SOL     hw 1115   1.636   1.959   5.379 -0.6924 -0.0695  0.3862
  279SOL     vw 1116   1.696   2.006   5.421  0.0166 -0.3750 -0.2687
  280SOL     ow 1117   5.795   5.495   4.901 -0.0375  0.4537 -0.3878
  280SOL     hw 1118   5.773   5.482   4.994  1.2018  1.4987  0.0704
  280SOL     hw 1119   5.811   5.407   4.868 -0.2831  0.0866  0.4364
  280SOL     vw 1120   5.794   5.482   4.909  0.0937  0.5434 -0.2189
  281SOL     ow 1121   6.643   3.446   2.380  0.5911  0.4147 -0.1872
  281SOL     hw 1122   6.651   3.352   2.397  1.5101  0.7547  1.4994
  281SOL     hw 1123   6.684   3.459   2.295  3.0690 -0.3745  0.7887
  281SOL     vw 1124   6.649   3.436   2.371  1.0393  0.3554  0.1640
  282SOL     ow 1125   1.413   5.404   0.545 -0.1498 -0.1496 -0.4218
  282SOL     hw 1126   1.398   5.438   0.456 -1.9354  0.0052 -0.1137
  282SOL     hw 1127   1.405   5.481   0.601 -0.0775 -0.4179 -0.0444
  282SOL     vw 1128   1.410   5.419   0.540 -0.3759 -0.1645 -0.3313
  283SOL     ow 1129   6.428   1.862   5.821 -0.0228 -0.4178 -0.3027
  283SOL     hw 1130   6.356   1.918   5.792  0.8056  0.5871 -0.4632
  283SOL     hw 1131   6.432   1.876   5.915  1.1333  0.9918 -0.5233
  283SOL     vw 1132   6.419   1.871   5.829  0.2389 -0.0992 -0.3529
  284SOL     ow 1133   3.639   2.415   3.799  0.6641  0.1979  0.9214
  284SOL     hw 1134   3.557   2.436   3.754  1.8066  0.4602 -1.1517
  284SOL     hw 1135   3.611   2.390   3.888 -1.4636  2.2802  0.9520
  284SOL     vw 1136   3.624   2.415   3.805  0.5343  0.5072  0.6518
  285SOL     ow 1137   1.041   1.740   4.654 -0.8548  0.1061  0.1793
  285SOL     hw 1138   1.025   1.826   4.693 -1.6571  0.4647 -0.8707
  285SOL     hw 1139   1.114   1.704   4.703  0.2435  1.8656 -0.0883
  285SOL     vw 1140   1.048   1.747   4.665 -0.8157  0.3856  0.0055
  286SOL     ow 1141   4.285   3.127   7.267 -0.3868  0.2562  0.1724
  286SOL     hw 1142   4.213   3.187   7.245 -1.3057 -1.6014 -2.3680
  286SOL     hw 1143   4.283   3.121   7.362 -1.4492  2.7733  0.3844
  286SOL     vw 1144   4.275   3.134   7.277 -0.6483  0.3432 -0.1347
  287SOL     ow 1145   0.073   1.983   5.860 -0.5693  0.2922  0.6368
  287SOL     hw 1146   0.132   1.990   5.785 -1.3076  1.0401  0.1125
  287SOL     hw 1147   0.087   1.894   5.893  1.0090  0.5203  0.6638
  287SOL     vw 1148   0.083   1.972   5.855 -0.4585  0.4210  0.5710
  288SOL     ow 1149   1.153   0.975   4.634 -0.7548 -0.1929  0.2854
  288SOL     hw 1150   1.130   1.058   4.592 -0.3566 -0.5165 -0.5889
  288SOL     hw 1151   1.247   0.981   4.651 -0.6530 -0.5981 -0.1058
  288SOL     vw 1152   1.162   0.987   4.631 -0.6888 -0.2891  0.1183
  289SOL     ow 1153   1.964   5.833   2.612 -0.3041 -0.3720 -1.2404
  289SOL     hw 1154   1.918   5.751   2.629 -0.4207 -0.3546 -1.4699
  289SOL     hw 1155   2.000   5.823   2.524 -0.4486 -0.1169 -1.3297
  289SOL     vw 1156   1.963   5.821   2.603 -0.3386 -0.3359 -1.2823
  290SOL     ow 1157   6.699   7.162   6.713 -0.4073  0.4223  0.1648
  290SOL     hw 1158   6.673   7.237   6.660 -0.4668 -1.4288 -2.6302
  290SOL     hw 1159   6.748   7.106   6.653  0.2307 -1.4670  2.3188
  290SOL     vw 1160   6.702   7.165   6.698 -0.3309 -0.0710  0.0806
  291SOL     ow 1161   2.160   0.364   4.892 -0.2184  0.0236 -0.4695
  291SOL     hw 1162   2.240   0.318   4.867  0.3221  1.4154 -1.4161
  291SOL     hw 1163   2.090   0.300   4.874  0.3352  0.1120 -3.5718
  291SOL     vw 1164   2.161   0.349   4.886 -0.0739  0.2189 -1.0037
  292SOL     ow 1165   6.193   5.312   1.017 -0.4977 -0.0580 -0.0335
  292SOL     hw 1166   6.245   5.392   1.013  0.7522 -0.8538 -0.3109
  292SOL     hw 1167   6.135   5.324   1.092 -0.6381  1.2747 -0.3338
  292SOL     vw 1168   6.192   5.324   1.026 -0.3517  0.0126 -0.1097
  293SOL     ow 1169   6.213   5.072   0.844  0.2689  0.4563 -0.7320
  293SOL     hw 1170   6.237   5.017   0.769  0.0282  1.1470 -1.3224
  293SOL     hw 1171   6.118   5.066   0.850  0.0870  1.9440 -1.7091
  293SOL     vw 1172   6.204   5.064   0.835  0.2131  0.7439 -0.9389
  294SOL     ow 1173   0.036   1.199   5.925 -0.6398 -0.4602 -0.7038
  294SOL     hw 1174  -0.050   1.205   5.968  0.7700 -0.1299  2.3538
  294SOL     hw 1175   0.035   1.114   5.882 -2.6229 -0.2994 -1.0987
  294SOL     vw 1176   0.024   1.188   5.925 -0.7155 -0.3954 -0.3524
  295SOL     ow 1177   4.984   2.396   4.527 -0.1851 -0.6983  0.2635
  295SOL     hw 1178   5.036   2.336   4.474 -0.8350 -0.8187 -0.2544
  295SOL     hw 1179   5.046   2.435   4.588  0.2367 -1.9137  0.6239
  295SOL     vw 1180   4.999   2.393   4.528 -0.2148 -0.8746  0.2425
  296SOL     ow 1181   0.600   5.181   7.190 -0.7154  0.3204 -0.3619
  296SOL     hw 1182   0.677   5.169   7.133 -0.2837  1.0514  0.0557
  296SOL     hw 1183   0.636   5.183   7.279 -1.3034 -0.0409 -0.1103
  296SOL     vw 1184   0.615   5.179   7.194 -0.7360  0.3691 -0.2735
  297SOL     ow 1185   0.897   3.209   1.402  0.2866 -0.1039 -0.3427
  297SOL     hw 1186   0.932   3.182   1.487 -2.6530 -0.3412  0.8940
  297SOL     hw 1187   0.923   3.301   1.394  0.5800 -0.0728  0.8157
  297SOL     vw 1188   0.905   3.218   1.412 -0.0626 -0.1311 -0.0267
  298SOL     ow 1189   0.810   0.753   0.943  0.1223  0.6587 -0.4753
  298SOL     hw 1190   0.773   0.686   1.000  0.8238 -1.3092 -2.2001
  298SOL     hw 1191   0.735   0.789   0.896 -0.0719 -0.3360 -0.9456
  298SOL     vw 1192   0.795   0.749   0.944  0.1892  0.2678 -0.7649
  299SOL     ow 1193   6.204   2.005   5.677  1.1385 -0.0648 -0.0760
  299SOL     hw 1194   6.126   2.039   5.721  0.5019 -0.4016 -0.9358
  299SOL     hw 1195   6.171   1.939   5.616  2.1808 -0.8620  0.1961
  299SOL     vw 1196   6.190   2.001   5.675  1.1923 -0.2145 -0.1535
  300SOL     ow 1197   1.835   5.860   1.397 -0.3349  0.1165 -0.0944
  300SOL     hw 1198   1.839   5.920   1.472  0.5694 -0.5214  0.3889
  300SOL     hw 1199   1.898   5.791   1.419 -3.2089 -2.4886  0.6090
  300SOL     vw 1200   1.844   5.859   1.410 -0.5947 -0.3114  0.0622
  301SOL     ow 1201   5.099   4.902   1.879 -0.2152 -0.3741  0.0836
  301SOL     hw 1202   5.177   4.915   1.933  0.7997 -1.4300 -1.0570
  301SOL     hw 1203   5.074   4.811   1.895 -3.6002  0.8609  3.3644
  301SOL     vw 1204   5.106   4.892   1.889 -0.5276 -0.3502  0.3660
  302SOL     ow 1205   3.124   5.091   7.071  0.3756  0.0738 -0.6463
  302SOL     hw 1206   3.079   5.143   7.005  1.0727  0.3618 -0.9092
  302SOL     hw 1207   3.200   5.145   7.096 -0.9749  0.9572  1.9372
  302SOL     vw 1208   3.128   5.105   7.066  0.2892  0.2286 -0.3400
  303SOL     ow 1209   3.012   5.087   4.236 -0.1269 -0.2388  0.7215
  303SOL     hw 1210   3.003   5.181   4.251 -2.7237  0.0343 -1.5869
  303SOL     hw 1211   3.034   5.079   4.143 -1.4819 -1.8918  0.4777
  303SOL     vw 1212   3.013   5.098   4.225 -0.6483 -0.4206  0.3848
  304SOL     ow 1213   0.900   6.561   4.603  0.1824 -0.1881 -0.1049
  304SOL     hw 1214   0.871   6.650   4.583 -2.2060 -0.6066  1.1735
  304SOL     hw 1215   0.934   6.567   4.693 -0.1584 -0.6122  0.0517
  304SOL     vw 1216   0.901   6.574   4.612 -0.1776 -0.2990  0.0844
  305SOL     ow 1217   4.146   0.937   6.572  0.2014 -0.1220 -0.2684
  305SOL     hw 1218   4.158   0.924   6.478  1.0035  1.7691 -0.4747
  305SOL     hw 1219   4.234   0.942   6.607 -0.0785  0.3915  0.3885
  305SOL     vw 1220   4.159   0.936   6.564  0.2704  0.1953 -0.2091
  306SOL     ow 1221   1.871   1.788   0.550  0.3671  0.4354 -0.5236
  306SOL     hw 1222   1.849   1.858   0.488 -0.0455 -1.2811 -2.4380
  306SOL     hw 1223   1.789   1.740   0.561  1.0315 -0.7576 -0.6319
  306SOL     vw 1224   1.857   1.791   0.543  0.4003  0.0516 -0.7904
  307SOL     ow 1225   3.245   1.088   4.718  0.5647 -0.6320 -0.5177
  307SOL     hw 1226   3.303   1.024   4.678 -0.8385 -2.3093  0.0100
  307SOL     hw 1227   3.186   1.115   4.648 -0.0293 -1.3723 -0.3253
  307SOL     vw 1228   3.245   1.083   4.704  0.3014 -0.9510 -0.4230
  308SOL     ow 1229   6.458   1.568   7.171 -0.5952 -0.0837  0.2135
  308SOL     hw 1230   6.400   1.602   7.239 -1.0599 -1.7260  0.6941
  308SOL     hw 1231   6.401   1.552   7.096  0.0832  2.6683 -0.9938
  308SOL     vw 1232   6.443   1.570   7.170 -0.5672  0.0627  0.1175
  309SOL     ow 1233   1.287   3.796   0.447  0.8668 -0.4309  0.3781
  309SOL     hw 1234   1.310   3.769   0.358  1.6427 -1.8810  0.9761
  309SOL     hw 1235   1.215   3.737   0.472 -0.4693  1.0469  0.1608
  309SOL     vw 1236   1.280   3.785   0.439  0.7929 -0.4272  0.4283
  310SOL     ow 1237   7.036   4.146   5.379 -1.0811  0.3934 -0.2827
  310SOL     hw 1238   6.953   4.149   5.425  0.0035 -0.2512  1.8565
  310SOL     hw 1239   7.036   4.061   5.335 -0.0759 -1.4477  2.9237
  310SOL     vw 1240   7.025   4.135   5.379 -0.8056  0.0658  0.4230
  311SOL     ow 1241   2.444   3.766   0.373  0.2409  0.3537  0.0260
  311SOL     hw 1242   2.459   3.859   0.357  1.8030  0.2047  0.4217
  311SOL     hw 1243   2.494   3.721   0.305  2.2829 -0.1888  1.7484
  311SOL     vw 1244   2.453   3.773   0.362  0.7163  0.2625  0.3055
  312SOL     ow 1245   5.553   4.683   6.799  0.8325 -0.0871 -0.4518
  312SOL     hw 1246   5.618   4.621   6.766  0.3725 -1.2132  0.6798
  312SOL     hw 1247   5.604   4.749   6.846  1.2693  0.0017 -1.0402
  312SOL     vw 1248   5.568   4.683   6.800  0.8297 -0.2239 -0.3803
  313SOL     ow 1249   1.171   3.010   0.129  0.4430  0.1597  0.3504
  313SOL     hw 1250   1.177   3.069   0.054 -1.7766 -2.6660 -2.3627
  313SOL     hw 1251   1.250   2.956   0.124 -0.0542 -0.5107 -0.4759
  313SOL     vw 1252   1.182   3.011   0.119  0.0846 -0.3016 -0.1166
  314SOL     ow 1253   5.647   0.358   3.782 -0.3647  0.4945  0.1102
  314SOL     hw 1254   5.605   0.379   3.865 -0.2528 -0.1343  0.3325
  314SOL     hw 1255   5.662   0.442   3.740 -1.5375  0.7434  0.1763
  314SOL     vw 1256   5.644   0.371   3.788 -0.5050  0.4444  0.1483
  315SOL     ow 1257   1.538   3.547   3.741  0.0086  0.3209 -0.5146
  315SOL     hw 1258   1.506   3.599   3.814 -0.1998  1.3530 -1.3174
  315SOL     hw 1259   1.604   3.602   3.699  2.8080 -1.6666  0.9789
  315SOL     vw 1260   1.542   3.561   3.745  0.3504  0.1947 -0.4233
  316SOL     ow 1261   1.462   3.356   4.729  0.8020  0.3272  0.3177
  316SOL     hw 1262   1.369   3.337   4.743  0.3358  1.4108 -1.0719
  316SOL     hw 1263   1.508   3.293   4.784 -0.7518  1.3944  3.0905
  316SOL     vw 1264   1.455   3.346   4.738  0.5354  0.6111  0.5002
  317SOL     ow 1265   3.786   2.082   6.777 -0.3411  0.0892 -0.3709
  317SOL     hw 1266   3.722   2.015   6.757  0.6143 -0.6452 -1.0705
  317SOL     hw 1267   3.852   2.037   6.831  0.2125  0.5048 -0.6896
  317SOL     vw 1268   3.786   2.067   6.782 -0.1421  0.0471 -0.5054
  318SOL     ow 1269   0.701   1.008   1.815 -0.2097  0.1070 -0.3350
  318SOL     hw 1270   0.659   1.041   1.894 -2.2015 -2.3057 -0.2471
  318SOL     hw 1271   0.702   0.913   1.827 -0.0854 -0.3012 -2.9608
  318SOL     vw 1272   0.696   0.999   1.827 -0.4561 -0.2652 -0.6698
  319SOL     ow 1273   4.780   7.215   2.087 -0.3934 -0.9552  0.0065
  319SOL     hw 1274   4.846   7.195   2.020  1.0509  0.3035  0.9608
  319SOL     hw 1275   4.795   7.150   2.155 -1.1582 -1.5875 -0.4195
  319SOL     vw 1276   4.791   7.204   2.087 -0.3037 -0.8725  0.0762
  320SOL     ow 1277   5.346   1.618   3.083 -0.3351  0.7694 -0.0549
  320SOL     hw 1278   5.283   1.576   3.142 -0.2089 -0.1751 -0.5724
  320SOL     hw 1279   5.385   1.688   3.135 -1.3570  0.9631  0.4747
  320SOL     vw 1280   5.343   1.622   3.098 -0.4535  0.6703 -0.0533
  321SOL     ow 1281   5.713   4.898   5.532 -0.4294 -0.3162  0.0115
  321SOL     hw 1282   5.697   4.989   5.506  0.3149  0.2739  1.4561
  321SOL     hw 1283   5.716   4.901   5.628 -0.8028 -1.9504  0.1079
  321SOL     vw 1284   5.711   4.910   5.541 -0.3808 -0.4539  0.2148
  322SOL     ow 1285   3.287   5.031   2.902  0.1891 -0.5185 -0.1264
  322SOL     hw 1286   3.254   4.943   2.885  2.2297 -1.4681  0.4613
  322SOL     hw 1287   3.208   5.084   2.912 -1.1060 -2.0411 -1.5042
  322SOL     vw 1288   3.272   5.026   2.901  0.2873 -0.8447 -0.2307
  323SOL     ow 1289   3.223   0.480   3.256 -0.5130 -0.1098  0.0139
  323SOL     hw 1290   3.200   0.471   3.163  0.2954 -1.1251 -0.0933
  323SOL     hw 1291   3.299   0.538   3.256  2.2903 -3.4606 -0.4063
  323SOL     vw 1292   3.230   0.487   3.244 -0.0365 -0.6858 -0.0557
  324SOL     ow 1293   4.739   3.247   0.456 -0.1064  0.7254 -1.2882
  324SOL     hw 1294   4.782   3.332   0.456  0.5435  0.4766  1.1523
  324SOL     hw 1295   4.656   3.262   0.502  0.2454 -0.0124 -0.3690
  324SOL     vw 1296   4.734   3.260   0.462  0.0260  0.5952 -0.8449
  325SOL     ow 1297   1.991   6.535   4.896  0.1744 -0.2511  1.4595
  325SOL     hw 1298   1.971   6.442   4.906  1.2298 -0.5635  0.7603
  325SOL     hw 1299   1.907   6.575   4.872  0.0634 -1.3073 -0.0284
  325SOL     vw 1300   1.977   6.528   4.894  0.2990 -0.4318  1.1706
  326SOL     ow 1301   3.408   3.056   1.260 -0.5772  0.2912 -0.1215
  326SOL     hw 1302   3.338   3.045   1.325 -0.4394 -1.0969 -0.1660
  326SOL     hw 1303   3.419   3.150   1.252 -0.7498  0.4988  1.7048
  326SOL     vw 1304   3.400   3.067   1.268 -0.5820  0.1353  0.1136
  327SOL     ow 1305   3.178   5.180   2.607 -0.1069  0.1635  0.6110
  327SOL     hw 1306   3.166   5.086   2.619  0.1286  0.1353  0.6139
  327SOL     hw 1307   3.261   5.200   2.650  0.6126  0.1086 -0.7014
  327SOL     vw 1308   3.187   5.170   2.614  0.0191  0.1526  0.4381
  328SOL     ow 1309   3.518   2.176   4.082 -0.0368 -0.4454  0.5586
  328SOL     hw 1310   3.441   2.148   4.033  1.1514 -1.3074 -0.8774
  328SOL     hw 1311   3.485   2.245   4.140 -2.4649 -2.6215  2.0218
  328SOL     vw 1312   3.503   2.181   4.083 -0.2004 -0.8463  0.5622
  329SOL     ow 1313   5.524   6.933   2.723 -1.1895 -0.1857 -0.0886
  329SOL     hw 1314   5.577   6.857   2.698 -1.8844 -1.7652  2.7253
  329SOL     hw 1315   5.582   6.987   2.776 -0.9688  0.8337 -1.3170
  329SOL     vw 1316   5.538   6.930   2.727 -1.2522 -0.2596  0.1206
  330SOL     ow 1317   6.511   1.213   0.599 -0.8643  0.6242 -0.3622
  330SOL     hw 1318   6.474   1.259   0.523 -0.9459  0.4170 -0.4493
  330SOL     hw 1319   6.592   1.260   0.618 -0.5155  0.2837 -0.9810
  330SOL     vw 1320   6.517   1.225   0.591 -0.8292  0.5520 -0.4553
  331SOL     ow 1321   1.922   3.871   4.868 -0.1169 -0.8012  0.3623
  331SOL     hw 1322   1.955   3.934   4.933 -1.8117 -0.0564  0.5354
  331SOL     hw 1323   1.867   3.923   4.811  2.4009 -1.1179 -2.6282
  331SOL     vw 1324   1.919   3.886   4.869 -0.0083 -0.7448 -0.0093
  332SOL     ow 1325   6.444   5.864   0.027 -0.7482  0.3601  0.2049
  332SOL     hw 1326   6.532   5.860  -0.012 -0.7757  1.5358 -0.0122
  332SOL     hw 1327   6.386   5.839  -0.044 -0.7189  1.4855 -0.2377
  332SOL     vw 1328   6.448   5.860   0.013 -0.7482  0.6635  0.1179
  333SOL     ow 1329   0.886   4.604   4.741  0.1403 -0.5150 -0.2700
  333SOL     hw 1330   0.847   4.681   4.782  0.7926 -0.4428  0.2107
  333SOL     hw 1331   0.817   4.538   4.745  0.0185 -0.3525  0.4736
  333SOL     vw 1332   0.872   4.606   4.747  0.2103 -0.4840 -0.1087
  334SOL     ow 1333   5.884   4.426   1.173 -0.2408  1.1346 -0.3599
  334SOL     hw 1334   5.971   4.401   1.141 -0.0172  0.3660  0.7946
  334SOL     hw 1335   5.858   4.355   1.231 -0.7331  2.3345  0.9572
  334SOL     vw 1336   5.892   4.413   1.176 -0.2763  1.1916 -0.0339
  335SOL     ow 1337   5.637   0.228   3.240  0.0544 -0.0110  0.1157
  335SOL     hw 1338   5.544   0.215   3.259 -1.8043  0.1060 -6.3211
  335SOL     hw 1339   5.674   0.140   3.235 -0.3445 -0.2009  0.4883
  335SOL     vw 1340   5.629   0.215   3.242 -0.2432 -0.0206 -0.6843
  336SOL     ow 1341   3.057   2.902   5.124 -0.1961 -0.1157 -0.8784
  336SOL     hw 1342   2.972   2.857   5.124  0.9011 -2.4838  1.5654
  336SOL     hw 1343   3.072   2.926   5.215  2.5191 -1.4578 -0.8556
  336SOL     vw 1344   3.048   2.899   5.136  0.3067 -0.6052 -0.5531
  337SOL     ow 1345   3.312   4.664   0.384  1.3405  0.3467  0.1879
  337SOL     hw 1346   3.337   4.711   0.464 -1.0507  1.6089  0.2770
  337SOL     hw 1347   3.288   4.576   0.414 -0.7163  1.1698  1.1213
  337SOL     vw 1348   3.312   4.658   0.398  0.7536  0.6220  0.3228
  338SOL     ow 1349   6.962   0.009   4.647  0.2249 -0.0299 -0.1976
  338SOL     hw 1350   7.007  -0.021   4.726  0.4475  0.0615 -0.2871
  338SOL     hw 1351   6.954   0.103   4.657  0.8149  0.0694 -0.5578
  338SOL     vw 1352   6.967   0.017   4.659  0.3321 -0.0047 -0.2573
  339SOL     ow 1353   3.000   1.444   3.211 -0.2389 -0.4656  0.5079
  339SOL     hw 1354   3.054   1.460   3.133  2.7062 -2.8502  1.8538
  339SOL     hw 1355   2.963   1.358   3.197 -1.7059  0.1090  0.7416
  339SOL     vw 1356   3.003   1.435   3.199 -0.0439 -0.7045  0.7162
  340SOL     ow 1357   0.168   1.710   5.973 -0.8213 -0.1373 -0.9271
  340SOL     hw 1358   0.246   1.723   6.027 -0.6919 -2.2740 -0.5349
  340SOL     hw 1359   0.096   1.741   6.029 -0.3568  1.3506 -1.0926
  340SOL     vw 1360   0.169   1.716   5.988 -0.7429 -0.2229 -0.8972
  341SOL     ow 1361   1.588   2.820   2.205 -0.3517  0.3970  0.1296
  341SOL     hw 1362   1.516   2.861   2.157 -1.0732 -0.1492  0.7144
  341SOL     hw 1363   1.560   2.825   2.297 -0.6601 -1.7212  0.2054
  341SOL     vw 1364   1.575   2.826   2.211 -0.4876  0.0454  0.2167
  342SOL     ow 1365   2.799   5.938   5.394  0.0217  0.4800  0.0041
  342SOL     hw 1366   2.735   5.882   5.437 -1.7188  2.1595 -0.2513
  342SOL     hw 1367   2.822   6.003   5.460  0.6405  0.5317 -0.2570
  342SOL     vw 1368   2.794   5.939   5.408 -0.1264  0.7086 -0.0639
  343SOL     ow 1369   6.469   6.638   5.814 -0.6629  0.0776 -0.3443
  343SOL     hw 1370   6.469   6.548   5.782 -1.6017  0.2816 -0.9600
  343SOL     hw 1371   6.561   6.664   5.813 -0.0176 -1.7068  2.3201
  343SOL     vw 1372   6.481   6.630   5.809 -0.7014 -0.1307 -0.0741
  344SOL     ow 1373   2.954   5.637   3.853  0.2740  0.4396 -0.4746
  344SOL     hw 1374   2.992   5.567   3.906  1.6151  2.0646  0.8264
  344SOL     hw 1375   2.931   5.595   3.770  0.2427 -1.6936  0.5583
  344SOL     vw 1376   2.956   5.622   3.849  0.4467  0.3729 -0.1669
  345SOL     ow 1377   5.584   4.695   4.034  0.4012 -0.0024 -0.4919
  345SOL     hw 1378   5.587   4.684   4.129  2.9919  3.0092 -0.0356
  345SOL     hw 1379   5.519   4.765   4.020  1.6425  1.1641 -0.6269
  345SOL     vw 1380   5.576   4.703   4.045  0.9067  0.5488 -0.4492
  346SOL     ow 1381   4.102   0.721   3.800 -1.1923  0.1808 -0.7747
  346SOL     hw 1382   4.066   0.763   3.722 -1.6677  1.4423  0.1031
  346SOL     hw 1383   4.037   0.654   3.822 -2.2361  1.3692 -0.1362
  346SOL     vw 1384   4.089   0.717   3.792 -1.3928  0.5040 -0.5747
  347SOL     ow 1385   1.868   4.645   0.970  0.1133 -0.2611 -0.5448
  347SOL     hw 1386   1.939   4.629   1.032  0.5896 -1.9799 -1.4518
  347SOL     hw 1387   1.912   4.669   0.889 -0.4592  0.8225 -0.5517
  347SOL     vw 1388   1.883   4.646   0.968  0.1006 -0.3450 -0.6654
  348SOL     ow 1389   3.538   5.292   4.842 -0.3473  0.2374 -0.2857
  348SOL     hw 1390   3.497   5.328   4.763  1.4055  0.3341 -1.2010
  348SOL     hw 1391   3.557   5.201   4.820  0.2990  0.3091 -0.0437
  348SOL     vw 1392   3.535   5.285   4.829 -0.0306  0.2596 -0.3746
  349SOL     ow 1393   4.557   2.212   4.801 -0.2510  0.0842  0.5237
  349SOL     hw 1394   4.464   2.227   4.785  0.1632  0.8284 -1.4136
  349SOL     hw 1395   4.562   2.120   4.827 -1.2105 -1.0454 -2.8449
  349SOL     vw 1396   4.546   2.202   4.802 -0.3228  0.0333 -0.1764
  350SOL     ow 1397   1.147   5.783   6.883 -0.4808  0.0769 -0.5326
  350SOL     hw 1398   1.220   5.830   6.923  0.1873  0.8696 -2.5905
  350SOL     hw 1399   1.071   5.811   6.934  0.3368  0.9350  0.2723
  350SOL     vw 1400   1.146   5.793   6.895 -0.2848  0.2947 -0.6983
  351SOL     ow 1401   0.106   3.506   2.595  0.3044 -0.4820  0.4158
  351SOL     hw 1402   0.136   3.567   2.528 -0.6499 -0.5973 -0.1376
  351SOL     hw 1403   0.186   3.468   2.631  1.1429  2.8337  2.4759
  351SOL     vw 1404   0.120   3.509   2.591  0.2891 -0.0598  0.6146
  352SOL     ow 1405   2.640   7.003   4.779  0.6596 -0.3848 -0.0708
  352SOL     hw 1406   2.560   7.029   4.825  1.7411  0.9960  1.1339
  352SOL     hw 1407   2.622   7.023   4.687 -0.1512  0.5230  0.2662
  352SOL     vw 1408   2.627   7.009   4.773  0.6953 -0.0830  0.1328
  353SOL     ow 1409   0.637   4.929   6.829  1.0975 -0.7959  0.0863
  353SOL     hw 1410   0.628   4.949   6.736 -0.4625  0.9345  0.5584
  353SOL     hw 1411   0.708   4.986   6.859  1.3445 -1.0792  0.0487
  353SOL     vw 1412   0.645   4.939   6.821  0.9243 -0.6049  0.1438
  354SOL     ow 1413   1.331   6.482   2.591  0.3331 -0.1246 -0.3774
  354SOL     hw 1414   1.246   6.522   2.570 -0.2864 -1.2021  0.0116
  354SOL     hw 1415   1.395   6.551   2.571 -0.7521  1.5862  1.5787
  354SOL     vw 1416   1.328   6.497   2.585  0.1082 -0.0412 -0.0679
  355SOL     ow 1417   1.191   2.886   0.949  0.2778 -0.5415 -0.7404
  355SOL     hw 1418   1.225   2.961   0.901 -0.7043 -0.0668 -0.7213
  355SOL     hw 1419   1.124   2.848   0.892 -2.4384  1.2726  0.9532
  355SOL     vw 1420   1.186   2.891   0.935 -0.2101 -0.2394 -0.5144
  356SOL     ow 1421   0.973   5.688   6.621 -0.0181 -0.2269 -0.0052
  356SOL     hw 1422   0.881   5.709   6.610  0.0032 -0.6590 -1.0740
  356SOL     hw 1423   0.992   5.623   6.554  1.4195  0.9326 -0.7936
  356SOL     vw 1424   0.964   5.682   6.611  0.1744 -0.1309 -0.2501
  357SOL     ow 1425   0.050   6.326   6.055  0.0456 -0.2393 -0.6279
  357SOL     hw 1426   0.041   6.358   5.966 -0.7407  1.1251 -0.0770
  357SOL     hw 1427  -0.004   6.384   6.108  0.9036 -0.7006  0.8169
  357SOL     vw 1428   0.042   6.338   6.050  0.0551 -0.1202 -0.3643
  358SOL     ow 1429   3.227   2.171   5.196  0.7015  0.0406 -0.2258
  358SOL     hw 1430   3.233   2.086   5.153  0.9191 -0.2336  0.3279
  358SOL     hw 1431   3.317   2.192   5.220  0.4973 -0.1711  0.7661
  358SOL     vw 1432   3.240   2.163   5.193  0.7032 -0.0235 -0.0219
  359SOL     ow 1433   3.201   1.659   6.371  0.0114 -0.0158  1.1307
  359SOL     hw 1434   3.194   1.570   6.336  0.0441  0.3014  0.2919
  359SOL     hw 1435   3.264   1.652   6.442 -0.6398 -0.8266  1.6447
  359SOL     vw 1436   3.208   1.646   6.376 -0.0702 -0.0809  1.0877
  360SOL     ow 1437   2.854   6.930   6.082  0.0030  0.2378  0.2025
  360SOL     hw 1438   2.762   6.956   6.071 -0.1972 -0.6143 -0.2117
  360SOL     hw 1439   2.855   6.880   6.164  0.3325  1.2497  0.8391
  360SOL     vw 1440   2.842   6.927   6.091  0.0200  0.2589  0.2315
  361SOL     ow 1441   0.419   0.115   0.993 -0.6481  0.2326 -0.4951
  361SOL     hw 1442   0.342   0.090   1.043 -0.1646 -1.6392 -0.5777
  361SOL     hw 1443   0.461   0.183   1.044 -1.1068 -0.4011  0.7619
  361SOL     vw 1444   0.414   0.120   1.006 -0.6449 -0.0979 -0.3402
  362SOL     ow 1445   6.204   4.929   3.685 -0.6024  0.0109  0.6090
  362SOL     hw 1446   6.261   4.992   3.642  0.8389 -0.7080  1.3855
  362SOL     hw 1447   6.166   4.878   3.613  0.6679 -0.2560  0.1052
  362SOL     vw 1448   6.206   4.930   3.670 -0.2446 -0.1192  0.6452
  363SOL     ow 1449   3.428   0.340   4.288 -0.4900  0.3526 -0.0355
  363SOL     hw 1450   3.343   0.382   4.300 -0.9908  0.7484 -3.8253
  363SOL     hw 1451   3.408   0.251   4.260  0.4442 -0.1753  0.8894
  363SOL     vw 1452   3.414   0.334   4.286 -0.4327  0.3352 -0.4134
  364SOL     ow 1453   1.183   2.711   6.645 -0.1526 -0.3114  0.2435
  364SOL     hw 1454   1.254   2.646   6.648  1.4447  1.2691 -1.1904
  364SOL     hw 1455   1.105   2.659   6.627  0.9823 -1.9100 -0.3408
  364SOL     vw 1456   1.182   2.695   6.643  0.2078 -0.3138 -0.0229
  365SOL     ow 1457   0.932   6.562   1.996  0.3737  0.1214 -0.3239
  365SOL     hw 1458   0.963   6.481   2.035  1.6367  0.0337 -1.4291
  365SOL     hw 1459   0.994   6.629   2.026  0.1881  0.4058 -0.5593
  365SOL     vw 1460   0.944   6.560   2.005  0.5158  0.1478 -0.5008
  366SOL     ow 1461   6.601   3.326   2.756  0.7852 -0.1843 -0.4416
  366SOL     hw 1462   6.651   3.369   2.825 -0.8223  0.9785  0.0501
  366SOL     hw 1463   6.584   3.238   2.789 -0.0866  0.4050  0.7209
  366SOL     vw 1464   6.605   3.320   2.769  0.4580  0.0468 -0.2233
  367SOL     ow 1465   0.480   2.647   4.730  0.3945  0.3314 -0.1804
  367SOL     hw 1466   0.447   2.724   4.777  1.0149  0.7666 -0.4494
  367SOL     hw 1467   0.575   2.657   4.731  0.6718 -1.7822  2.0695
  367SOL     vw 1468   0.488   2.659   4.736  0.5129  0.1100  0.0811
  368SOL     ow 1469   6.530   3.732   6.856 -0.1458 -0.0091  0.8257
  368SOL     hw 1470   6.553   3.815   6.898 -0.8878  0.3607  0.5143
  368SOL     hw 1471   6.587   3.727   6.779  1.6686 -0.9872  2.1661
  368SOL     vw 1472   6.541   3.742   6.851 -0.0041 -0.0893  0.9615
  369SOL     ow 1473   4.288   4.808   4.427  0.3930  0.2533  0.0494
  369SOL     hw 1474   4.278   4.756   4.347  0.8857  1.3680 -0.7634
  369SOL     hw 1475   4.232   4.765   4.491  0.8411 -1.3145 -0.5729
  369SOL     vw 1476   4.279   4.796   4.425  0.5171  0.1936 -0.1400
  370SOL     ow 1477   3.788   0.674   7.149 -0.8703  0.4228 -0.2484
  370SOL     hw 1478   3.740   0.706   7.225  1.1575  1.9910  0.4651
  370SOL     hw 1479   3.833   0.751   7.115  1.2764 -0.9507 -0.7282
  370SOL     vw 1480   3.788   0.689   7.155 -0.3196  0.4485 -0.2177
  371SOL     ow 1481   4.346   3.945   5.893 -0.4037  0.1902  0.0222
  371SOL     hw 1482   4.436   3.920   5.871 -0.2246  1.0809 -0.3026
  371SOL     hw 1483   4.318   4.001   5.820 -1.2683 -0.1766  0.0577
  371SOL     vw 1484   4.354   3.949   5.880 -0.4940  0.2594 -0.0157
  372SOL     ow 1485   2.394   0.780   6.968  0.4421 -0.4605  0.4985
  372SOL     hw 1486   2.476   0.733   6.951  0.7138  0.6194 -1.3371
  372SOL     hw 1487   2.335   0.749   6.900  0.0708  0.5486  0.3606
  372SOL     vw 1488   2.397   0.769   6.957  0.4290 -0.1849  0.2379
  373SOL     ow 1489   0.323   3.719   0.754 -0.1260 -0.1616  0.9234
  373SOL     hw 1490   0.363   3.635   0.779 -1.5540 -1.1871 -0.0427
  373SOL     hw 1491   0.248   3.728   0.813 -0.1012  0.3287  0.8840
  373SOL     vw 1492   0.318   3.709   0.765 -0.3111 -0.2322  0.7907
  374SOL     ow 1493   4.673   2.864   3.004 -0.6924  0.2509 -0.2571
  374SOL     hw 1494   4.704   2.941   2.955 -0.2208 -0.6232 -1.3665
  374SOL     hw 1495   4.578   2.865   2.993 -0.7584  0.9987  0.2564
  374SOL     vw 1496   4.664   2.875   2.996 -0.6390  0.2341 -0.3357
  375SOL     ow 1497   3.937   4.786   2.770 -0.1375  0.1759 -0.4146
  375SOL     hw 1498   3.942   4.863   2.714 -1.3761 -0.1899 -1.0646
  375SOL     hw 1499   3.996   4.805   2.843  0.3587  1.2903 -1.0873
  375SOL     vw 1500   3.945   4.799   2.772 -0.2354  0.2749 -0.5890
  376SOL     ow 1501   3.559   1.457   6.559  0.1566 -0.2183 -0.4243
  376SOL     hw 1502   3.645   1.495   6.578  0.5430  1.8728 -4.8816
  376SOL     hw 1503   3.497   1.513   6.605  1.0871  1.0676 -0.6733
  376SOL     vw 1504   3.562   1.470   6.568  0.3303  0.2273 -1.0455
  377SOL     ow 1505   4.570   1.496   0.496 -0.3445 -0.7128  0.8004
  377SOL     hw 1506   4.567   1.561   0.426 -1.2455 -1.2734  0.3125
  377SOL     hw 1507   4.649   1.519   0.545  1.1358 -1.1814 -1.2305
  377SOL     vw 1508   4.580   1.508   0.493 -0.2682 -0.8486  0.4681
  378SOL     ow 1509   2.023   0.062   4.509  0.0913  0.3676  0.0368
  378SOL     hw 1510   2.075   0.012   4.571  0.0648  2.1336  1.5564
  378SOL     hw 1511   1.944   0.086   4.557  0.6468  2.8783 -0.1996
  378SOL     vw 1512   2.019   0.058   4.524  0.1612  0.9317  0.2062
  379SOL     ow 1513   2.865   1.595   7.218  0.6855 -0.3810 -0.1598
  379SOL     hw 1514   2.836   1.685   7.236 -0.1513 -1.1830  2.9868
  379SOL     hw 1515   2.793   1.558   7.166 -0.2406  0.0259  0.7810
  379SOL     vw 1516   2.851   1.602   7.213  0.4528 -0.4331  0.3795
  380SOL     ow 1517   5.680   5.682   2.116  0.2029 -0.1825  0.1848
  380SOL     hw 1518   5.711   5.608   2.167 -1.5833 -0.5125  0.8606
  380SOL     hw 1519   5.601   5.711   2.161 -0.3916  0.7025 -1.3536
  380SOL     vw 1520   5.674   5.676   2.129 -0.1113 -0.1094  0.0710
  381SOL     ow 1521   4.072   4.970   4.253 -0.1066  0.6328  0.3355
  381SOL     hw 1522   4.071   4.919   4.172  1.5574  1.7125 -0.4358
  381SOL     hw 1523   3.986   5.012   4.256 -0.0970  0.8064 -1.0515
  381SOL     vw 1524   4.060   4.969   4.243  0.1142  0.7985  0.0505
  382SOL     ow 1525   2.803   5.494   2.146 -0.2344  0.1598  0.2695
  382SOL     hw 1526   2.851   5.446   2.079 -0.9577 -0.8943  0.4923
  382SOL     hw 1527   2.865   5.500   2.219 -0.6931 -2.0478  0.9255
  382SOL     vw 1528   2.818   5.489   2.147 -0.3904 -0.2706  0.3854
  383SOL     ow 1529   1.456   3.433   2.480 -0.2258  0.1895 -0.3416
  383SOL     hw 1530   1.367   3.466   2.496 -0.1065  0.1086  0.5914
  383SOL     hw 1531   1.510   3.477   2.546  0.2716 -0.4051 -0.3428
  383SOL     vw 1532   1.451   3.443   2.491 -0.1445  0.1004 -0.2187
  384SOL     ow 1533   1.509   1.328   2.739 -0.6016 -0.2597  0.3647
  384SOL     hw 1534   1.489   1.361   2.826  0.5537 -1.7030  1.2183
  384SOL     hw 1535   1.455   1.381   2.680 -1.2394  0.8866  1.9218
  384SOL     vw 1536   1.500   1.340   2.742 -0.5333 -0.2990  0.6828
  385SOL     ow 1537   3.133   0.364   4.272 -0.5362  0.5226  0.2028
  385SOL     hw 1538   3.184   0.293   4.232  0.7053  1.9564 -0.8731
  385SOL     hw 1539   3.080   0.321   4.339 -1.9630 -1.8583 -2.2901
  385SOL     vw 1540   3.133   0.349   4.276 -0.5606  0.3976 -0.2680
  386SOL     ow 1541   7.062   0.852   6.755 -0.0512  0.3534  0.3949
  386SOL     hw 1542   7.019   0.937   6.761  1.9536  1.5059 -0.4782
  386SOL     hw 1543   7.115   0.846   6.834  2.3586  1.4890 -1.0231
  386SOL     vw 1544   7.063   0.862   6.766  0.5312  0.6553  0.0927
  387SOL     ow 1545   1.543   5.550   1.183 -0.1811 -0.2209  0.1494
  387SOL     hw 1546   1.471   5.488   1.177  0.5572 -1.0013 -0.7622
  387SOL     hw 1547   1.505   5.626   1.229 -1.2568 -1.0667  0.7030
  387SOL     vw 1548   1.529   5.552   1.189 -0.2256 -0.4356  0.1022
  388SOL     ow 1549   6.979   0.051   1.741 -0.8665 -0.0513 -0.2057
  388SOL     hw 1550   6.899   0.044   1.689  0.0851 -0.0294 -1.7240
  388SOL     hw 1551   7.010   0.141   1.725  0.7661 -0.8138 -1.6685
  388SOL     vw 1552   6.973   0.062   1.732 -0.5260 -0.1490 -0.5990
  389SOL     ow 1553   1.231   4.388   6.510 -0.5312  0.1208 -0.7085
  389SOL     hw 1554   1.218   4.447   6.436 -1.6539  2.0682  0.9284
  389SOL     hw 1555   1.215   4.443   6.587  0.0729 -1.9389  0.9710
  389SOL     vw 1556   1.227   4.403   6.510 -0.5996  0.1061 -0.2711
  390SOL     ow 1557   6.660   1.534   2.303  0.5064  0.0122  0.0412
  390SOL     hw 1558   6.646   1.463   2.240  1.9136 -2.3929  2.2231
  390SOL     hw 1559   6.574   1.550   2.341  0.2915 -1.1299  0.0720
  390SOL     vw 1560   6.647   1.527   2.299  0.6638 -0.4558  0.3331
  391SOL     ow 1561   6.302   3.773   4.361  0.0135 -0.0894 -0.1465
  391SOL     hw 1562   6.297   3.780   4.456  0.4148 -0.0275 -0.1285
  391SOL     hw 1563   6.216   3.802   4.330  1.0476  3.6108 -0.0017
  391SOL     vw 1564   6.290   3.778   4.370  0.2029  0.4071 -0.1249
  392SOL     ow 1565   3.677   6.207   4.837  0.1354  0.6315 -0.3473
  392SOL     hw 1566   3.677   6.165   4.751  2.9107  0.4657 -0.3355
  392SOL     hw 1567   3.679   6.134   4.899  3.1607  0.6489 -0.2997
  392SOL     vw 1568   3.677   6.191   4.834  0.9007  0.6120 -0.3397
  393SOL     ow 1569   2.459   2.439   3.784  0.1549  0.2506  0.6406
  393SOL     hw 1570   2.515   2.369   3.750  0.5348  0.0861  1.5676
  393SOL     hw 1571   2.383   2.393   3.821  0.5328  0.2925  1.4947
  393SOL     vw 1572   2.456   2.423   3.784  0.2549  0.2345  0.8756
  394SOL     ow 1573   6.424   1.798   3.791  0.2592  0.4010 -0.5693
  394SOL     hw 1574   6.378   1.811   3.874  0.3704 -0.1694 -0.4134
  394SOL     hw 1575   6.430   1.703   3.781  3.1910  0.3785  0.4277
  394SOL     vw 1576   6.419   1.787   3.800  0.6607  0.3228 -0.4171
  395SOL     ow 1577   3.282   1.402   2.910 -0.0076 -0.4174  0.3964
  395SOL     hw 1578   3.205   1.456   2.924  0.3388  0.1175  0.2706
  395SOL     hw 1579   3.268   1.360   2.825 -0.8782 -1.5614  1.0751
  395SOL     vw 1580   3.270   1.404   2.901 -0.0767 -0.4978  0.4692
  396SOL     ow 1581   2.729   3.584   3.830 -0.3153 -0.7823 -0.2217
  396SOL     hw 1582   2.772   3.585   3.744 -0.2769  0.4070 -0.2025
  396SOL     hw 1583   2.688   3.498   3.835 -0.9944 -0.5761 -1.7624
  396SOL     vw 1584   2.729   3.573   3.819 -0.3998 -0.5982 -0.4224
  397SOL     ow 1585   2.866   0.582   3.647  0.1304 -0.0969  0.2756
  397SOL     hw 1586   2.930   0.651   3.666  1.0704 -0.8886  0.0984
  397SOL     hw 1587   2.781   0.626   3.648  0.6259  0.8658  1.1179
  397SOL     vw 1588   2.863   0.597   3.650  0.3200 -0.0743  0.3632
  398SOL     ow 1589   5.688   2.122   0.464  0.2449 -0.0154  0.3888
  398SOL     hw 1590   5.592   2.120   0.463  0.2334  0.4405 -0.6303
  398SOL     hw 1591   5.713   2.030   0.475 -0.2879 -0.0310  1.7256
  398SOL     vw 1592   5.679   2.109   0.465  0.1733  0.0429  0.4307
  399SOL     ow 1593   4.204   4.586   3.604 -0.4009  0.2423  0.4708
  399SOL     hw 1594   4.112   4.592   3.578  0.1930  2.9862 -1.5176
  399SOL     hw 1595   4.250   4.567   3.522  0.7026 -4.8328  1.9639
  399SOL     vw 1596   4.198   4.584   3.589 -0.1769 -0.0653  0.4053
  400SOL     ow 1597   3.246   0.053   6.233  0.2157  1.0326 -0.4329
  400SOL     hw 1598   3.275   0.143   6.217 -0.4750  1.8894  2.4564
  400SOL     hw 1599   3.315   0.015   6.287 -0.4152  0.5284  0.0444
  400SOL     vw 1600   3.259   0.060   6.238  0.0414  1.0791  0.0114
  401SOL     ow 1601   5.374   3.107   6.657 -0.3943 -0.6565  0.4924
  401SOL     hw 1602   5.455   3.155   6.676  0.7543 -2.1546 -0.4185
  401SOL     hw 1603   5.324   3.114   6.738  1.4420 -1.2169  1.7496
  401SOL     vw 1604   5.378   3.115   6.670 -0.0005 -0.9280  0.5381
  402SOL     ow 1605   3.960   1.771   5.535 -0.2331  0.2014  0.0070
  402SOL     hw 1606   4.015   1.727   5.470  0.2947 -1.8437  1.7284
  402SOL     hw 1607   3.933   1.701   5.595 -3.7221  1.3258 -0.0148
  402SOL     vw 1608   3.964   1.756   5.534 -0.6238  0.0800  0.2310
  403SOL     ow 1609   1.028   1.423   4.608 -0.3498  0.3690  0.1353
  403SOL     hw 1610   1.008   1.336   4.574 -1.1905  1.5769 -2.8005
  403SOL     hw 1611   1.117   1.442   4.578 -0.1815  0.5558  0.7294
  403SOL     vw 1612   1.037   1.414   4.600 -0.4385  0.5530 -0.1736
  404SOL     ow 1613   4.744   2.490   4.324  1.0173  0.2924 -0.5199
  404SOL     hw 1614   4.820   2.474   4.268  1.3744  1.5967 -0.4394
  404SOL     hw 1615   4.669   2.479   4.266  1.2153 -1.2952 -0.5349
  404SOL     vw 1616   4.744   2.486   4.309  1.0903  0.2551 -0.5112
  405SOL     ow 1617   3.234   4.591   1.217  0.1960  0.1613  0.3616
  405SOL     hw 1618   3.250   4.619   1.127  2.9074 -0.2490  0.6522
  405SOL     hw 1619   3.237   4.496   1.214  1.7476  0.1593  1.0719
  405SOL     vw 1620   3.236   4.582   1.204  0.7584  0.1068  0.4937
  406SOL     ow 1621   4.963   3.755   3.190  0.2965  0.2572 -0.0452
  406SOL     hw 1622   4.973   3.661   3.204  1.3718  0.6552  2.4056
  406SOL     hw 1623   5.048   3.783   3.157  0.9373  0.7090  1.8434
  406SOL     vw 1624   4.976   3.746   3.187  0.5229  0.3693  0.5274
  407SOL     ow 1625   0.287   4.140   2.906  0.7171 -0.1182  0.1244
  407SOL     hw 1626   0.337   4.207   2.953  3.3091 -0.6508 -1.6182
  407SOL     hw 1627   0.294   4.062   2.960 -0.8434  0.5422  1.3317
  407SOL     vw 1628   0.295   4.139   2.919  0.8532 -0.1013  0.0536
  408SOL     ow 1629   1.488   6.834   6.181  0.1989 -0.0165 -0.0928
  408SOL     hw 1630   1.466   6.900   6.116 -0.7141 -0.3027 -0.0774
  408SOL     hw 1631   1.464   6.874   6.265 -1.5144 -0.8110 -0.1688
  408SOL     vw 1632   1.482   6.848   6.184 -0.1476 -0.1590 -0.1009
  409SOL     ow 1633   4.733   6.721   2.380  1.1128 -0.1128 -0.6653
  409SOL     hw 1634   4.747   6.800   2.433  1.0793 -1.5773  1.7003
  409SOL     hw 1635   4.785   6.735   2.302  1.5379  2.0172 -0.0745
  409SOL     vw 1636   4.741   6.733   2.377  1.1644 -0.0253 -0.2751
  410SOL     ow 1637   4.808   2.931   1.805 -0.2319 -0.1141  0.1480
  410SOL     hw 1638   4.745   2.924   1.877  0.8291 -2.3565  0.9594
  410SOL     hw 1639   4.884   2.974   1.843 -0.3525  0.3778 -0.1587
  410SOL     vw 1640   4.810   2.936   1.820 -0.1078 -0.3449  0.2145
  411SOL     ow 1641   0.871   0.893   4.671 -0.3580  0.5690  0.4769
  411SOL     hw 1642   0.802   0.883   4.736 -0.4514 -1.2753  0.1580
  411SOL     hw 1643   0.835   0.856   4.591  0.5276  0.8116 -0.0547
  411SOL     vw 1644   0.857   0.887   4.669 -0.2535  0.3577  0.3645
  412SOL     ow 1645   4.898   7.187   6.681  0.0170 -0.6870  0.0209
  412SOL     hw 1646   4.859   7.226   6.760 -0.0869  0.5653 -0.6180
  412SOL     hw 1647   4.868   7.096   6.682  1.5095 -1.2365  2.3780
  412SOL     vw 1648   4.889   7.180   6.692  0.2000 -0.5944  0.2480
  413SOL     ow 1649   1.602   6.819   0.190 -0.6495 -0.0284  0.4697
  413SOL     hw 1650   1.615   6.848   0.280 -1.6609  2.1404 -0.0386
  413SOL     hw 1651   1.524   6.762   0.194 -1.0538  0.5471  0.8710
  413SOL     vw 1652   1.593   6.815   0.202 -0.8363  0.3338  0.4556
  414SOL     ow 1653   2.070   2.408   4.126  0.6863  0.2545  0.2302
  414SOL     hw 1654   1.978   2.422   4.146  0.7686  0.2273  0.6351
  414SOL     hw 1655   2.108   2.496   4.124  0.4672  0.3350 -0.8676
  414SOL     vw 1656   2.063   2.421   4.129  0.6682  0.2615  0.1390
  415SOL     ow 1657   6.992   2.044   5.877 -0.7649  0.4167  0.1114
  415SOL     hw 1658   6.934   2.068   5.805 -1.8821  1.7070  1.3795
  415SOL     hw 1659   6.965   1.955   5.902 -0.1082 -0.1925 -1.2748
  415SOL     vw 1660   6.981   2.035   5.871 -0.8256  0.5066  0.0956
  416SOL     ow 1661   5.085   0.461   1.687 -0.1770  0.0161 -0.0835
  416SOL     hw 1662   5.015   0.471   1.622  0.0295 -2.3045 -0.7504
  416SOL     hw 1663   5.166   0.465   1.636  0.1028  0.4824  0.3833
  416SOL     vw 1664   5.086   0.463   1.671 -0.1128 -0.2286 -0.1099
  417SOL     ow 1665   1.542   3.298   3.856  0.0094  0.6105  0.4703
  417SOL     hw 1666   1.546   3.382   3.811 -0.8739  0.8731  0.8564
  417SOL     hw 1667   1.555   3.233   3.787 -0.7464  1.0224 -0.0881
  417SOL     vw 1668   1.544   3.300   3.841 -0.2069  0.6995  0.4475
  418SOL     ow 1669   4.389   0.820   3.799 -0.0606 -0.1491  0.2020
  418SOL     hw 1670   4.388   0.911   3.828  0.4175  0.4068 -1.4437
  418SOL     hw 1671   4.482   0.795   3.800 -0.1878 -0.6278  0.6522
  418SOL     vw 1672   4.401   0.829   3.803 -0.0143 -0.1389  0.0441
  419SOL     ow 1673   1.021   3.893   6.881 -0.6540  0.4721  0.0447
  419SOL     hw 1674   0.984   3.978   6.855 -0.6694  0.6643  0.6741
  419SOL     hw 1675   1.101   3.916   6.929 -1.3564  0.2096  1.3956
  419SOL     vw 1676   1.027   3.907   6.884 -0.7488  0.4629  0.3059
  420SOL     ow 1677   6.118   4.524   0.332  0.3784 -0.8097  0.3910
  420SOL     hw 1678   6.165   4.465   0.273 -0.5601 -1.3345  0.1506
  420SOL     hw 1679   6.067   4.466   0.389 -1.1865 -0.2507 -0.3709
  420SOL     vw 1680   6.117   4.509   0.332  0.0482 -0.8051  0.2587
  421SOL     ow 1681   0.800   5.011   1.862  1.0647 -0.0468  0.2131
  421SOL     hw 1682   0.823   5.055   1.780 -1.6237  1.8167  0.3279
  421SOL     hw 1683   0.714   4.973   1.845 -0.0074  1.2435  2.4119
  421SOL     vw 1684   0.791   5.012   1.849  0.5686  0.3693  0.5183
  422SOL     ow 1685   0.408   1.827   1.752  0.3360  1.0176  0.2591
  422SOL     hw 1686   0.333   1.811   1.695  0.0612 -1.1975  1.1252
  422SOL     hw 1687   0.484   1.823   1.693  0.2074 -2.9799  0.0944
  422SOL     vw 1688   0.408   1.824   1.737  0.2828  0.1979  0.3517
  423SOL     ow 1689   2.984   7.166   6.096 -0.1583 -0.0265  0.3478
  423SOL     hw 1690   2.948   7.078   6.104  0.7161 -0.4179  0.1026
  423SOL     hw 1691   2.938   7.205   6.022 -0.1948 -0.4525  0.1466
  423SOL     vw 1692   2.973   7.159   6.087 -0.0477 -0.1345  0.2887
  424SOL     ow 1693   0.076   4.421   3.563  0.1623 -0.0407 -0.5530
  424SOL     hw 1694   0.132   4.449   3.490 -0.4644  1.7195 -0.4178
  424SOL     hw 1695   0.135   4.373   3.621  1.4370  1.2680 -0.6997
  424SOL     vw 1696   0.092   4.418   3.561  0.2478  0.3641 -0.5546
  425SOL     ow 1697   0.817   6.980   3.115  0.1396 -0.4167 -0.7517
  425SOL     hw 1698   0.751   7.018   3.057 -2.6530  0.6618  2.7287
  425SOL     hw 1699   0.829   7.046   3.184  2.6355 -1.9084  0.3805
  425SOL     vw 1700   0.810   6.994   3.117  0.1005 -0.4714 -0.1431
  426SOL     ow 1701   6.380   6.883   0.812 -0.0590 -0.0814 -0.2190
  426SOL     hw 1702   6.310   6.947   0.821 -1.8936 -1.9544 -0.5486
  426SOL     hw 1703   6.336   6.801   0.791  2.2649 -1.2885 -0.7505
  426SOL     vw 1704   6.365   6.881   0.811  0.0057 -0.4880 -0.3327
  427SOL     ow 1705   3.922   1.923   0.522  0.4274  0.0568 -0.2040
  427SOL     hw 1706   3.928   1.932   0.427  1.3213 -1.2060 -0.2908
  427SOL     hw 1707   3.838   1.963   0.545 -0.3436 -0.6473 -1.6756
  427SOL     vw 1708   3.912   1.930   0.513  0.4435 -0.2026 -0.4096
  428SOL     ow 1709   4.443   2.566   0.756 -0.4375 -0.4334 -0.1190
  428SOL     hw 1710   4.475   2.559   0.846 -0.9015 -2.5564 -0.0785
  428SOL     hw 1711   4.518   2.544   0.702 -0.4858 -0.3662 -0.2146
  428SOL     vw 1712   4.457   2.562   0.761 -0.5050 -0.7046 -0.1263
  429SOL     ow 1713   3.442   6.397   2.306  0.5165 -0.4519 -0.1660
  429SOL     hw 1714   3.380   6.414   2.235 -1.5956  0.6474  1.7682
  429SOL     hw 1715   3.405   6.321   2.352 -1.6863  2.3353  3.1517
  429SOL     vw 1716   3.429   6.389   2.303 -0.0529  0.0610  0.5269
  430SOL     ow 1717   5.820   3.135   4.407  0.1981 -0.4643 -0.8380
  430SOL     hw 1718   5.842   3.098   4.322 -1.1803 -0.0547 -1.4037
  430SOL     hw 1719   5.816   3.230   4.393 -0.6370 -0.4332 -0.4823
  430SOL     vw 1720   5.822   3.143   4.394 -0.0939 -0.4061 -0.8657
  431SOL     ow 1721   6.531   1.362   5.079  0.4295 -0.0491 -0.1980
  431SOL     hw 1722   6.509   1.453   5.063  0.8661  0.1447  0.2961
  431SOL     hw 1723   6.449   1.322   5.107  0.6301  0.6527  1.5496
  431SOL     vw 1724   6.517   1.368   5.081  0.5136  0.0690  0.0978
  432SOL     ow 1725   7.005   7.207   2.993  0.1778  0.3224  0.0445
  432SOL     hw 1726   7.089   7.188   2.952 -0.8523 -1.7265 -1.3598
  432SOL     hw 1727   6.984   7.296   2.966  1.0902  0.2212 -1.0867
  432SOL     vw 1728   7.013   7.216   2.984  0.1626  0.0389 -0.2900
  433SOL     ow 1729   2.790   1.350   2.315 -0.4061  0.0293  0.1028
  433SOL     hw 1730   2.828   1.431   2.280 -0.6945  0.3350  0.4839
  433SOL     hw 1731   2.861   1.287   2.311 -0.9071 -0.4894 -2.7618
  433SOL     vw 1732   2.804   1.353   2.310 -0.5105  0.0012 -0.2249
  434SOL     ow 1733   3.830   1.952   6.509 -0.4537 -0.4034 -0.3525
  434SOL     hw 1734   3.897   1.942   6.440 -1.3736  0.5445 -1.4144
  434SOL     hw 1735   3.836   1.870   6.559 -0.5711 -1.6744 -2.3020
  434SOL     vw 1736   3.840   1.940   6.506 -0.5907 -0.4460 -0.7498
  435SOL     ow 1737   3.022   5.749   4.145 -0.2362  0.4166  0.0264
  435SOL     hw 1738   3.094   5.792   4.193 -2.2086  2.8081  1.0576
  435SOL     hw 1739   2.944   5.771   4.195 -1.7980 -1.7490 -1.2950
  435SOL     vw 1740   3.021   5.757   4.158 -0.7024  0.4463 -0.0119
  436SOL     ow 1741   6.595   2.384   5.714  0.4945  0.1944 -0.3107
  436SOL     hw 1742   6.669   2.437   5.742  0.1452  0.4120  0.2173
  436SOL     hw 1743   6.558   2.349   5.795  2.8578 -3.9024 -0.7273
  436SOL     vw 1744   6.600   2.386   5.728  0.7601 -0.3173 -0.2959
  437SOL     ow 1745   3.055   5.276   2.188  0.1327 -0.1826 -0.2163
  437SOL     hw 1746   3.146   5.306   2.187 -0.1734  1.3360  3.1879
  437SOL     hw 1747   3.017   5.312   2.108  2.5256 -1.1267 -1.8921
  437SOL     vw 1748   3.062   5.284   2.177  0.4081 -0.1070  0.0118
  438SOL     ow 1749   4.493   2.451   4.196 -0.2030 -0.1587  0.0622
  438SOL     hw 1750   4.427   2.504   4.241 -0.4352 -0.4846  0.1058
  438SOL     hw 1751   4.461   2.444   4.106  0.2430  0.4624 -0.1562
  438SOL     vw 1752   4.480   2.457   4.190 -0.1750 -0.1197  0.0391
  439SOL     ow 1753   5.702   5.083   0.519 -0.8622 -0.3465  0.0389
  439SOL     hw 1754   5.635   5.151   0.523  1.1190  1.9160 -2.0185
  439SOL     hw 1755   5.752   5.093   0.600 -1.3807 -0.2378  0.3489
  439SOL     vw 1756   5.700   5.093   0.530 -0.6690 -0.0334 -0.1917
  440SOL     ow 1757   5.906   6.869   3.413  0.8351 -0.2242 -0.7106
  440SOL     hw 1758   5.837   6.807   3.389  1.1827 -0.9526  0.1061
  440SOL     hw 1759   5.973   6.815   3.457  0.6983  0.8562  0.9194
  440SOL     vw 1760   5.906   6.854   3.416  0.8628 -0.1779 -0.3878
  441SOL     ow 1761   0.059   3.417   1.368  0.0205 -0.0914 -0.3835
  441SOL     hw 1762   0.140   3.453   1.332  0.2954 -0.8466 -0.5479
  441SOL     hw 1763   0.088   3.344   1.423 -0.6422 -1.6994 -2.0752
  441SOL     vw 1764   0.073   3.412   1.370 -0.0307 -0.4030 -0.6284
  442SOL     ow 1765   4.077   5.469   0.375 -0.3001 -0.2014  0.4704
  442SOL     hw 1766   4.106   5.388   0.416 -2.7770 -1.0485  0.7306
  442SOL     hw 1767   4.010   5.442   0.312 -0.5769  1.5623 -0.0623
  442SOL     vw 1768   4.072   5.455   0.372 -0.6635 -0.0806  0.4344
  443SOL     ow 1769   4.022   4.381   4.066 -0.0190 -0.0069  0.0089
  443SOL     hw 1770   4.059   4.468   4.051 -2.4605  1.4826  1.6825
  443SOL     hw 1771   4.055   4.356   4.152  0.2383 -0.4772 -0.2268
  443SOL     vw 1772   4.031   4.390   4.076 -0.3071  0.1278  0.1988
  444SOL     ow 1773   1.361   6.687   0.259  0.0228  0.3246  0.1665
  444SOL     hw 1774   1.351   6.604   0.213 -0.4990  1.3340 -1.6525
  444SOL     hw 1775   1.276   6.702   0.300 -0.2534  0.4810 -0.4511
  444SOL     vw 1776   1.349   6.678   0.258 -0.0824  0.4783 -0.1550
  445SOL     ow 1777   4.014   1.953   6.318  0.0788  0.2548 -0.0512
  445SOL     hw 1778   4.043   1.869   6.284 -1.8422 -0.5162  0.0505
  445SOL     hw 1779   4.088   2.012   6.306 -0.3753  0.2036 -5.8478
  445SOL     vw 1780   4.027   1.950   6.312 -0.2346  0.1464 -0.8025
  446SOL     ow 1781   3.725   0.915   0.368  0.4755  0.0135 -0.5016
  446SOL     hw 1782   3.657   0.925   0.301  1.1376 -0.5067 -1.2719
  446SOL     hw 1783   3.705   0.983   0.432 -3.2547 -2.6199  1.5066
  446SOL     vw 1784   3.714   0.925   0.367  0.0707 -0.4026 -0.3383
  447SOL     ow 1785   7.129   2.336   4.247 -0.5552  0.3401  0.2771
  447SOL     hw 1786   7.034   2.327   4.257 -0.7302  1.6429 -0.0662
  447SOL     hw 1787   7.165   2.300   4.328 -1.2333 -1.7120 -0.2864
  447SOL     vw 1788   7.121   2.330   4.259 -0.6676  0.2412  0.1576
  448SOL     ow 1789   1.214   3.708   6.467 -0.0147 -0.4032 -0.0847
  448SOL     hw 1790   1.152   3.653   6.419 -1.6444  0.8161  0.5578
  448SOL     hw 1791   1.259   3.648   6.526 -1.1182 -1.1914 -0.0326
  448SOL     vw 1792   1.212   3.693   6.468 -0.3753 -0.3464  0.0069
  449SOL     ow 1793   4.852   1.021   5.396  0.0063 -0.0308 -0.6498
  449SOL     hw 1794   4.932   1.002   5.347  0.0800 -0.3045 -0.4263
  449SOL     hw 1795   4.883   1.040   5.484 -0.2768 -1.5601 -0.1959
  449SOL     vw 1796   4.867   1.021   5.401 -0.0215 -0.2687 -0.5605
  450SOL     ow 1797   5.829   2.824   2.930 -0.6206  0.2775 -0.0978
  450SOL     hw 1798   5.875   2.867   3.002 -0.1256  0.8636 -0.7506
  450SOL     hw 1799   5.894   2.819   2.860 -1.1682 -0.0690 -0.5927
  450SOL     vw 1800   5.844   2.829   2.930 -0.6275  0.3092 -0.2491
  451SOL     ow 1801   6.102   1.027   1.505  0.6316  0.1921  0.4162
  451SOL     hw 1802   6.144   0.978   1.576 -2.5356 -0.9365  1.6797
  451SOL     hw 1803   6.081   0.961   1.439 -0.2894  0.4570  0.4221
  451SOL     vw 1804   6.105   1.012   1.506  0.0920  0.0781  0.5836
  452SOL     ow 1805   4.925   5.889   0.769 -0.2508 -0.0898 -0.0183
  452SOL     hw 1806   4.990   5.903   0.699 -0.0181 -1.3895 -0.0859
  452SOL     hw 1807   4.845   5.865   0.723 -0.1949 -0.5911  0.1358
  452SOL     vw 1808   4.923   5.888   0.754 -0.2127 -0.3276 -0.0069
  453SOL     ow 1809   0.667   3.401   4.475  0.3502 -0.1483 -0.3217
  453SOL     hw 1810   0.696   3.316   4.509  1.0389  0.2859  0.1985
  453SOL     hw 1811   0.588   3.381   4.424 -0.2891 -0.9191  0.9222
  453SOL     vw 1812   0.660   3.387   4.473  0.3567 -0.1926 -0.0894
  454SOL     ow 1813   1.222   1.213   0.065  0.1849 -0.5109  0.1240
  454SOL     hw 1814   1.202   1.127   0.028 -0.2062 -1.0890  1.6207
  454SOL     hw 1815   1.147   1.267   0.040  1.1687 -0.1026 -2.2122
  454SOL     vw 1816   1.210   1.209   0.057  0.2630 -0.5333  0.0134
  455SOL     ow 1817   0.568   4.176   5.544 -0.5272  0.2105  0.5823
  455SOL     hw 1818   0.645   4.120   5.546 -1.5986 -1.3785  0.0168
  455SOL     hw 1819   0.546   4.183   5.451 -0.5184  1.4579  0.6566
  455SOL     vw 1820   0.575   4.169   5.532 -0.6674  0.1655  0.5174
  456SOL     ow 1821   3.634   4.451   5.150  0.0516  0.0459  0.0573
  456SOL     hw 1822   3.661   4.479   5.063  0.8636  2.0421  0.8828
  456SOL     hw 1823   3.564   4.511   5.174 -1.3766 -1.5715  0.1553
  456SOL     vw 1824   3.628   4.462   5.142 -0.0297  0.0958  0.1791
  457SOL     ow 1825   4.375   3.134   2.043 -0.5539 -0.0951 -0.4882
  457SOL     hw 1826   4.431   3.175   2.109  0.5822  0.9406 -2.0103
  457SOL     hw 1827   4.335   3.059   2.087  1.2950 -0.2924  0.9575
  457SOL     vw 1828   4.377   3.129   2.057 -0.1600  0.0155 -0.4983
  458SOL     ow 1829   2.267   2.171   6.818 -0.1803  0.2167  0.0622
  458SOL     hw 1830   2.307   2.172   6.731  1.3329 -0.2869  0.7329
  458SOL     hw 1831   2.239   2.262   6.832 -0.2932  0.3356 -0.8770
  458SOL     vw 1832   2.268   2.183   6.809  0.0044  0.1659  0.0267
  459SOL     ow 1833   0.912   5.746   0.324 -0.1456 -0.1376 -0.0090
  459SOL     hw 1834   0.945   5.657   0.337  1.0979  0.4259  0.8628
  459SOL     hw 1835   0.973   5.802   0.372 -0.9859  1.1844 -0.4205
  459SOL     vw 1836   0.924   5.742   0.332 -0.0924  0.1111  0.0518
  460SOL     ow 1837   7.221   2.174   3.213  0.3214 -0.0545  0.3891
  460SOL     hw 1838   7.277   2.239   3.170  0.9986  0.6089  2.1861
  460SOL     hw 1839   7.251   2.173   3.304  0.4330 -3.0287  0.4066
  460SOL     vw 1840   7.232   2.182   3.219  0.4256 -0.3594  0.6286
  461SOL     ow 1841   1.634   0.926   3.230  0.6815 -0.0849  0.1965
  461SOL     hw 1842   1.641   0.927   3.325 -1.3313 -0.7021  0.3907
  461SOL     hw 1843   1.561   0.985   3.210  0.7709 -0.3207 -0.9309
  461SOL     vw 1844   1.626   0.934   3.240  0.4277 -0.1974  0.0733
  462SOL     ow 1845   4.458   5.838   0.684  0.4781 -0.3507  0.5248
  462SOL     hw 1846   4.442   5.871   0.772 -2.3481 -0.9227  0.3317
  462SOL     hw 1847   4.417   5.751   0.684  0.7994 -0.5333 -1.2113
  462SOL     vw 1848   4.450   5.831   0.695  0.1476 -0.4501  0.2703
  463SOL     ow 1849   2.786   0.870   7.086  0.6764  0.3733 -0.6863
  463SOL     hw 1850   2.843   0.847   7.160 -1.2123 -0.2867  0.6446
  463SOL     hw 1851   2.747   0.786   7.060  0.1662  0.8363 -1.4274
  463SOL     vw 1852   2.788   0.856   7.092  0.3598  0.3473 -0.6082
  464SOL     ow 1853   3.982   6.504   0.568  0.9730 -0.3453  0.4198
  464SOL     hw 1854   3.993   6.424   0.620 -2.0447 -2.1681 -1.4151
  464SOL     hw 1855   4.055   6.503   0.506  0.8075 -1.8888  0.2158
  464SOL     vw 1856   3.993   6.493   0.567  0.5531 -0.7896  0.1508
  465SOL     ow 1857   3.636   0.570   4.429  0.3426 -0.1997  0.0234
  465SOL     hw 1858   3.666   0.611   4.348  0.2357 -0.4682 -0.1540
  465SOL     hw 1859   3.653   0.635   4.496 -1.6807  0.9775 -0.5292
  465SOL     vw 1860   3.642   0.584   4.427  0.0616 -0.0798 -0.0730
  466SOL     ow 1861   4.365   5.108   4.388  0.1528  0.8618 -0.0791
  466SOL     hw 1862   4.340   5.198   4.407 -2.8025  0.5328 -1.7256
  466SOL     hw 1863   4.436   5.115   4.325 -1.5855  2.1626 -2.0127
  466SOL     vw 1864   4.371   5.121   4.382 -0.4666  0.9902 -0.5515
  467SOL     ow 1865   6.645   5.275   6.025  0.2052  0.1201 -0.0369
  467SOL     hw 1866   6.585   5.202   6.035  0.8834 -0.3219  0.9686
  467SOL     hw 1867   6.595   5.341   5.977 -0.0231 -1.4664 -2.1299
  467SOL     vw 1868   6.631   5.274   6.020  0.2644 -0.1473 -0.1802
  468SOL     ow 1869   1.540   1.175   7.266 -0.6185  0.0198  0.1860
  468SOL     hw 1870   1.539   1.116   7.191  0.7477 -0.3864  0.4740
  468SOL     hw 1871   1.619   1.228   7.254  0.2214 -0.7865  1.8897
  468SOL     vw 1872   1.550   1.174   7.254 -0.3274 -0.1402  0.4487
  469SOL     ow 1873   3.499   6.571   6.845  0.4426 -0.3548 -0.5135
  469SOL     hw 1874   3.448   6.499   6.881 -0.1933  0.1424 -0.3949
  469SOL     hw 1875   3.544   6.534   6.770  0.6432 -1.0360 -0.0623
  469SOL     vw 1876   3.498   6.557   6.840  0.3853 -0.3788 -0.4382
  470SOL     ow 1877   6.025   0.466   6.254 -0.0818  0.1450 -0.4216
  470SOL     hw 1878   5.955   0.423   6.302  1.4023  0.2954  2.0448
  470SOL     hw 1879   5.980   0.524   6.192 -2.0780 -2.0651 -1.1628
  470SOL     vw 1880   6.010   0.468   6.252 -0.1493 -0.1268 -0.1941
  471SOL     ow 1881   6.164   2.074   2.211 -0.2724 -0.2794 -0.5948
  471SOL     hw 1882   6.190   2.102   2.123 -0.1497  0.1102 -0.4365
  471SOL     hw 1883   6.247   2.070   2.259 -0.4550  0.5312 -0.2087
  471SOL     vw 1884   6.178   2.077   2.205 -0.2804 -0.1211 -0.5231
  472SOL     ow 1885   3.382   5.528   2.781 -0.9201  0.9092 -0.5121
  472SOL     hw 1886   3.394   5.446   2.735 -0.7214  0.6372  0.0163
  472SOL     hw 1887   3.330   5.582   2.722 -2.5955 -0.2307 -0.1488
  472SOL     vw 1888   3.377   5.525   2.767 -1.1150  0.7231 -0.3945
  473SOL     ow 1889   2.577   0.715   5.770 -0.0811  0.0405  0.3021
  473SOL     hw 1890   2.483   0.700   5.782  0.1443 -2.4993 -0.4674
  473SOL     hw 1891   2.594   0.692   5.679  0.7651  4.1111 -0.7623
  473SOL     vw 1892   2.567   0.710   5.760  0.0603  0.2425  0.0601
  474SOL     ow 1893   0.182   5.312   3.227  0.0220 -0.6542 -0.1831
  474SOL     hw 1894   0.242   5.244   3.196  1.0353 -0.2588  0.8129
  474SOL     hw 1895   0.238   5.390   3.236 -0.0453 -0.8666  3.0389
  474SOL     vw 1896   0.197   5.313   3.224  0.1468 -0.6304  0.3735
  475SOL     ow 1897   3.652   5.397   6.422  1.1274 -0.1442 -0.6923
  475SOL     hw 1898   3.679   5.478   6.465  0.3803 -1.2619  2.1368
  475SOL     hw 1899   3.714   5.331   6.453 -0.7746 -1.4381  0.6135
  475SOL     vw 1900   3.663   5.399   6.432  0.7778 -0.4623 -0.1466
  476SOL     ow 1901   1.659   6.563   2.769  0.2889 -0.3652  0.0468
  476SOL     hw 1902   1.751   6.568   2.795 -0.1168  2.8015  1.3832
  476SOL     hw 1903   1.657   6.598   2.680  0.2358  1.1820  0.6325
  476SOL     vw 1904   1.671   6.568   2.761  0.2284  0.2568  0.3005
  477SOL     ow 1905   0.832   5.587   0.059  0.4074  0.2496 -0.4072
  477SOL     hw 1906   0.799   5.557  -0.026  1.1669  1.9155 -1.3203
  477SOL     hw 1907   0.815   5.513   0.118 -0.9865 -0.5843 -1.7793
  477SOL     vw 1908   0.825   5.573   0.055  0.3237  0.3593 -0.7087
  478SOL     ow 1909   0.164   1.657   6.891  0.1666 -0.4673 -0.0553
  478SOL     hw 1910   0.083   1.626   6.850 -0.5743  2.1737 -0.7961
  478SOL     hw 1911   0.225   1.666   6.819 -0.4259  2.0070 -0.3444
  478SOL     vw 1912   0.161   1.654   6.876 -0.0093  0.2075 -0.1912
  479SOL     ow 1913   6.437   1.180   6.743 -0.2015 -0.7665 -0.5460
  479SOL     hw 1914   6.412   1.199   6.652  0.0027  0.4471 -0.3565
  479SOL     hw 1915   6.532   1.174   6.741 -0.2674 -2.2377 -0.6698
  479SOL     vw 1916   6.446   1.182   6.731 -0.1831 -0.8005 -0.5372
  480SOL     ow 1917   3.718   1.492   1.047  0.3397  0.0428 -0.6424
  480SOL     hw 1918   3.634   1.533   1.069  0.8374  0.6270  0.2441
  480SOL     hw 1919   3.715   1.406   1.088  0.2090  0.1085 -0.5137
  480SOL     vw 1920   3.707   1.486   1.056  0.3881  0.1286 -0.5085
  481SOL     ow 1921   2.428   3.843   3.755  0.2242  0.1179 -0.3775
  481SOL     hw 1922   2.442   3.935   3.732 -1.8652  0.8429  0.9647
  481SOL     hw 1923   2.342   3.822   3.718 -0.5634 -0.4245  1.6160
  481SOL     vw 1924   2.419   3.853   3.747 -0.1553  0.1421  0.0626
  482SOL     ow 1925   4.831   0.163   3.756 -0.2748 -0.9370  0.9237
  482SOL     hw 1926   4.821   0.075   3.720  0.4353 -0.6614  0.0272
  482SOL     hw 1927   4.772   0.218   3.705  0.3198 -0.6453  0.5386
  482SOL     vw 1928   4.822   0.159   3.745 -0.1025 -0.8621  0.7545
  483SOL     ow 1929   5.347   2.611   2.314 -0.1779 -0.0163 -0.4002
  483SOL     hw 1930   5.341   2.525   2.354 -0.0190 -1.2995 -2.9082
  483SOL     hw 1931   5.434   2.643   2.338 -0.7437  0.0723  1.6440
  483SOL     vw 1932   5.358   2.604   2.322 -0.2315 -0.1740 -0.4616
  484SOL     ow 1933   5.790   3.948   2.613  0.1219  0.4547  0.1804
  484SOL     hw 1934   5.831   3.913   2.692  0.9071  0.5812 -0.1618
  484SOL     hw 1935   5.696   3.934   2.627  0.2284  0.6964  1.2307
  484SOL     vw 1936   5.783   3.941   2.625  0.2396  0.5033  0.2737
  485SOL     ow 1937   0.003   0.989   4.165  0.3697  0.6849 -0.2427
  485SOL     hw 1938  -0.015   0.932   4.239  0.8400 -0.0285 -0.6659
  485SOL     hw 1939  -0.026   0.939   4.088  1.0182  0.8956 -0.6390
  485SOL     vw 1940  -0.003   0.975   4.164  0.5174  0.6186 -0.3507
  486SOL     ow 1941   5.370   3.180   2.936 -0.1987 -0.1926 -0.2039
  486SOL     hw 1942   5.431   3.116   2.973 -0.4328  0.0123  0.5590
  486SOL     hw 1943   5.337   3.139   2.855 -0.8176 -1.3111  0.5866
  486SOL     vw 1944   5.374   3.166   2.930 -0.3111 -0.3132  0.0011
  487SOL     ow 1945   0.325   5.675   1.181 -1.1522 -0.4355 -0.3205
  487SOL     hw 1946   0.229   5.677   1.180 -1.2073  0.4137  1.5010
  487SOL     hw 1947   0.351   5.767   1.184 -0.3270 -0.6756  0.2327
  487SOL     vw 1948   0.316   5.688   1.181 -1.0506 -0.3548 -0.0072
  488SOL     ow 1949   6.697   4.776   1.957  0.3334  0.6440  0.5255
  488SOL     hw 1950   6.783   4.781   2.000  0.5503 -2.5513  0.7252
  488SOL     hw 1951   6.713   4.809   1.868  2.1384 -0.9601  0.1827
  488SOL     vw 1952   6.711   4.781   1.951  0.6001  0.0107  0.5066
  489SOL     ow 1953   6.518   5.852   4.510  0.2737  0.1007 -0.0050
  489SOL     hw 1954   6.606   5.870   4.542  1.3252 -2.0708 -1.4331
  489SOL     hw 1955   6.520   5.880   4.418  1.1875 -4.3151 -1.5511
  489SOL     vw 1956   6.530   5.858   4.502  0.5329 -0.7684 -0.3972
  490SOL     ow 1957   0.723   3.274   0.411  0.8145 -0.6644  0.0017
  490SOL     hw 1958   0.701   3.365   0.433  0.1893 -0.8623  0.2027
  490SOL     hw 1959   0.718   3.270   0.315 -1.4812 -1.0590  0.0972
  490SOL     vw 1960   0.720   3.286   0.401  0.4292 -0.7424  0.0408
  491SOL     ow 1961   1.632   6.850   7.136 -0.5837  0.3228 -0.2211
  491SOL     hw 1962   1.589   6.780   7.185  0.7995 -0.9154 -0.6765
  491SOL     hw 1963   1.696   6.886   7.198 -0.5375  0.4275 -0.3294
  491SOL     vw 1964   1.635   6.845   7.151 -0.3951  0.1733 -0.2954
  492SOL     ow 1965   5.166   3.364   3.034 -0.6480  0.1426  0.8112
  492SOL     hw 1966   5.107   3.346   2.961  0.0738  0.4223  0.1436
  492SOL     hw 1967   5.112   3.412   3.097 -1.6539 -1.2993  1.0885
  492SOL     vw 1968   5.151   3.368   3.033 -0.6857 -0.0107  0.7596
  493SOL     ow 1969   1.239   4.894   1.722  0.4033  0.0071  0.1623
  493SOL     hw 1970   1.157   4.844   1.714 -0.6751  1.4911  1.3513
  493SOL     hw 1971   1.262   4.916   1.632 -0.8487  0.0817 -0.1655
  493SOL     vw 1972   1.231   4.890   1.709  0.0958  0.2129  0.2760
  494SOL     ow 1973   5.811   5.811   1.857  0.4076 -0.5163 -0.8228
  494SOL     hw 1974   5.888   5.842   1.810  1.4432  0.2324  1.2442
  494SOL     hw 1975   5.751   5.886   1.855  2.4086  1.5167  3.0689
  494SOL     vw 1976   5.813   5.825   1.851  0.8082 -0.1495 -0.0366
  495SOL     ow 1977   4.234   4.651   6.323 -0.2223 -0.2560 -0.9819
  495SOL     hw 1978   4.225   4.659   6.228  1.0541 -1.1000 -1.1985
  495SOL     hw 1979   4.306   4.711   6.346  0.4843 -1.1542 -0.7824
  495SOL     vw 1980   4.242   4.660   6.313  0.0393 -0.4861 -0.9842
  496SOL     ow 1981   1.310   4.293   3.422  0.0597 -0.4079 -0.5974
  496SOL     hw 1982   1.310   4.372   3.476 -1.3742  0.3734 -1.6791
  496SOL     hw 1983   1.391   4.298   3.372  0.6959 -0.3967  0.4149
  496SOL     vw 1984   1.321   4.304   3.422 -0.0456 -0.3037 -0.6065
  497SOL     ow 1985   0.539   1.526   5.395 -0.4866  0.5290  0.2389
  497SOL     hw 1986   0.532   1.601   5.337  1.3760  1.3702  1.0100
  497SOL     hw 1987   0.562   1.453   5.337 -2.4744  0.4657 -0.5376
  497SOL     vw 1988   0.541   1.526   5.380 -0.5032  0.6316  0.2379
  498SOL     ow 1989   4.124   6.370   1.329 -0.7017 -0.7506  0.7485
  498SOL     hw 1990   4.061   6.301   1.352 -0.0556 -1.7451 -0.3554
  498SOL     hw 1991   4.208   6.337   1.360 -0.3817 -0.4829  0.1742
  498SOL     vw 1992   4.127   6.356   1.336 -0.5744 -0.8466  0.5271
  499SOL     ow 1993   6.077   2.850   2.168 -0.7646 -0.2629 -0.1240
  499SOL     hw 1994   6.169   2.877   2.170  0.5295 -4.0134 -0.9202
  499SOL     hw 1995   6.060   2.815   2.256 -2.3985  2.7040  0.8950
  499SOL     vw 1996   6.087   2.849   2.180 -0.8094 -0.3663 -0.0947
  500SOL     ow 1997   6.989   0.332   5.828  0.3061  0.2450  0.5155
  500SOL     hw 1998   6.975   0.297   5.740  1.8575 -1.0210  0.7159
  500SOL     hw 1999   7.085   0.332   5.838  0.1456  0.1206  2.2858
  500SOL     vw 2000   7.000   0.328   5.817  0.4895  0.0615  0.7753
  501SOL     ow 2001   4.281   3.476   4.100 -0.4544 -0.3513 -0.7858
  501SOL     hw 2002   4.221   3.402   4.106 -0.1142 -0.5432  0.7508
  501SOL     hw 2003   4.224   3.552   4.086 -1.0056 -0.6420 -0.2075
  501SOL     vw 2004   4.265   3.476   4.099 -0.4821 -0.4151 -0.5066
  502SOL     ow 2005   2.122   4.772   2.370  0.2996 -0.5147  0.6488
  502SOL     hw 2006   2.094   4.716   2.442  0.5273 -0.4842  0.7631
  502SOL     hw 2007   2.161   4.712   2.307 -0.0501 -0.5622  0.4726
  502SOL     vw 2008   2.123   4.757   2.371  0.2835 -0.5171  0.6405
  503SOL     ow 2009   0.911   1.935   2.119 -0.3321  0.3413 -0.3872
  503SOL     hw 2010   0.995   1.936   2.073 -1.3775  1.2004 -2.3601
  503SOL     hw 2011   0.855   1.878   2.067 -0.9940 -0.2826  0.9541
  503SOL     vw 2012   0.915   1.928   2.106 -0.5574  0.3724 -0.4705
  504SOL     ow 2013   2.217   2.504   5.000 -0.2764  0.1387  0.3311
  504SOL     hw 2014   2.210   2.599   4.991  0.1980  0.1332 -0.1587
  504SOL     hw 2015   2.275   2.491   5.075  0.5725  0.2571 -0.2876
  504SOL     vw 2016   2.224   2.514   5.009 -0.1017  0.1535  0.1845
  505SOL     ow 2017   5.624   5.683   3.333  0.0631 -0.0670 -0.1548
  505SOL     hw 2018   5.591   5.647   3.415  0.2016 -0.8734 -0.4477
  505SOL     hw 2019   5.661   5.608   3.287 -1.5102  0.0414 -1.7046
  505SOL     vw 2020   5.624   5.669   3.338 -0.1261 -0.1593 -0.3979
  506SOL     ow 2021   6.966   6.961   4.322 -0.7712  0.0210  0.0848
  506SOL     hw 2022   6.986   7.046   4.283  0.4747  0.1391  0.9114
  506SOL     hw 2023   7.040   6.943   4.381 -1.6918 -0.9791  1.0017
  506SOL     vw 2024   6.978   6.969   4.325 -0.7284 -0.0954  0.3147
  507SOL     ow 2025   5.323   0.482   3.563 -0.5756  0.5982  1.1825
  507SOL     hw 2026   5.250   0.496   3.623  0.1801 -2.3228  2.9441
  507SOL     hw 2027   5.329   0.387   3.554  0.9008  0.8579 -1.6493
  507SOL     vw 2028   5.314   0.472   3.569 -0.2813  0.2471  1.0412
  508SOL     ow 2029   2.036   1.010   3.595  0.7431  0.1094  0.1815
  508SOL     hw 2030   2.018   1.008   3.689 -0.9348  1.4656 -0.0491
  508SOL     hw 2031   2.006   0.925   3.563  1.0110 -0.2313  0.8271
  508SOL     vw 2032   2.029   0.998   3.603  0.5572  0.2434  0.2363
  509SOL     ow 2033   2.974   2.788   5.657 -0.3396 -0.1476 -0.2776
  509SOL     hw 2034   2.947   2.880   5.662  1.5791  0.3700  3.0602
  509SOL     hw 2035   3.066   2.792   5.632  1.5902 -0.4631  5.3028
  509SOL     vw 2036   2.983   2.801   5.654  0.1681 -0.1210  0.8988
  510SOL     ow 2037   2.093   5.174   5.162  0.5387 -0.2253  0.1673
  510SOL     hw 2038   2.163   5.239   5.159  0.7792 -0.2204  3.0982
  510SOL     hw 2039   2.138   5.090   5.170  0.1889 -0.6136 -1.4603
  510SOL     vw 2040   2.108   5.172   5.162  0.5243 -0.2759  0.3393
  511SOL     ow 2041   6.158   5.990   2.195 -0.4928  0.4118  0.0821
  511SOL     hw 2042   6.225   6.011   2.261 -0.4131 -1.3772  0.6335
  511SOL     hw 2043   6.193   5.913   2.151 -1.2188  0.7501 -1.1045
  511SOL     vw 2044   6.172   5.983   2.198 -0.5779  0.2205 -0.0017
  512SOL     ow 2045   1.411   2.021   3.267 -0.0502  0.7188  0.4545
  512SOL     hw 2046   1.487   2.044   3.320  2.8197 -0.3299 -2.8102
  512SOL     hw 2047   1.404   2.092   3.203 -1.3546  0.3983  0.2166
  512SOL     vw 2048   1.420   2.033   3.266  0.1563  0.5382 -0.0077
  513SOL     ow 2049   1.713   7.235   6.011 -0.1545 -1.3839 -0.2160
  513SOL     hw 2050   1.651   7.253   5.940  0.6487 -0.6042 -0.7425
  513SOL     hw 2051   1.799   7.254   5.973  0.2842 -0.8140  1.0054
  513SOL     vw 2052   1.716   7.240   5.997  0.0094 -1.2059 -0.1242
  514SOL     ow 2053   4.739   5.950   1.834  0.4297 -0.0021  0.2918
  514SOL     hw 2054   4.754   5.870   1.783  1.4042  0.4252 -0.1281
  514SOL     hw 2055   4.800   5.943   1.908  1.9001  1.1597 -0.7253
  514SOL     vw 2056   4.749   5.939   1.837  0.7522  0.2074  0.1022
  515SOL     ow 2057   1.330   2.121   0.098  0.0827  0.1036 -1.0304
  515SOL     hw 2058   1.322   2.204   0.051 -0.7683  0.9311  0.4750
  515SOL     hw 2059   1.242   2.082   0.093 -0.3800  0.7959  0.8241
  515SOL     vw 2060   1.317   2.127   0.091 -0.0907  0.3041 -0.5871
  516SOL     ow 2061   6.313   2.374   0.780  0.3545 -0.8195 -0.1468
  516SOL     hw 2062   6.350   2.387   0.693 -0.1570 -1.9101 -0.5399
  516SOL     hw 2063   6.335   2.455   0.827  2.2086 -0.9637 -0.6962
  516SOL     vw 2064   6.321   2.387   0.775  0.5317 -0.9825 -0.2711
  517SOL     ow 2065   6.680   0.034   4.767 -0.0295  0.5572  0.0335
  517SOL     hw 2066   6.676   0.015   4.860  0.9469 -1.7560 -0.3375
  517SOL     hw 2067   6.607   0.094   4.752  0.7063  2.2049  2.5018
  517SOL     vw 2068   6.670   0.039   4.777  0.1965  0.4694  0.3099
  518SOL     ow 2069   6.915   5.035   6.941 -0.1166 -0.1831  0.0933
  518SOL     hw 2070   6.828   5.001   6.959  0.1297 -0.1542  1.4124
  518SOL     hw 2071   6.969   5.004   7.014  0.7027  0.8484 -0.0504
  518SOL     vw 2072   6.911   5.026   6.953  0.0243 -0.0432  0.2487
  519SOL     ow 2073   0.559   0.915   6.368  1.0636  0.2365  0.2487
  519SOL     hw 2074   0.571   0.991   6.424 -3.2925  1.4633 -0.1181
  519SOL     hw 2075   0.587   0.944   6.281 -0.2061  1.3942  0.1866
  519SOL     vw 2076   0.564   0.929   6.364  0.3214  0.5511  0.1922
  520SOL     ow 2077   3.394   0.225   3.165  0.1591 -0.3083 -0.4337
  520SOL     hw 2078   3.408   0.311   3.124 -1.5063 -0.2697 -0.9913
  520SOL     hw 2079   3.351   0.173   3.098 -0.1929 -1.1112  0.4005
  520SOL     vw 2080   3.391   0.230   3.151 -0.1069 -0.4092 -0.3973
  521SOL     ow 2081   0.271   1.522   5.537 -0.0321  0.5155 -0.1876
  521SOL     hw 2082   0.276   1.447   5.477  0.2501  1.0630 -0.8734
  521SOL     hw 2083   0.201   1.577   5.500 -1.2819 -0.1147  1.1582
  521SOL     vw 2084   0.262   1.519   5.524 -0.1598  0.5046 -0.1006
  522SOL     ow 2085   0.877   4.236   1.121  0.2963 -0.8366 -0.3141
  522SOL     hw 2086   0.935   4.174   1.166 -0.1084 -0.7050  0.4086
  522SOL     hw 2087   0.906   4.322   1.152  0.4633 -0.6945 -0.8525
  522SOL     vw 2088   0.889   4.239   1.131  0.2650 -0.8004 -0.2897
  523SOL     ow 2089   4.293   2.014   1.964 -0.2032  0.6545  0.1373
  523SOL     hw 2090   4.230   1.952   2.000  0.9919 -0.7376 -0.0591
  523SOL     hw 2091   4.364   1.959   1.930  0.9165  2.1414 -0.0313
  523SOL     vw 2092   4.294   1.998   1.964  0.1020  0.6670  0.0891
  524SOL     ow 2093   3.070   6.110   1.814  0.0426  0.4610 -0.5319
  524SOL     hw 2094   2.974   6.106   1.810 -0.0305  0.1503  0.9204
  524SOL     hw 2095   3.097   6.122   1.724 -1.4176  1.6323 -0.8502
  524SOL     vw 2096   3.061   6.111   1.802 -0.1596  0.5748 -0.3824
  525SOL     ow 2097   3.077   6.295   3.329  0.3003  0.8123 -0.3174
  525SOL     hw 2098   3.040   6.355   3.394  1.4843  0.9171  0.3050
  525SOL     hw 2099   3.041   6.209   3.351  0.8090  0.8190  0.6061
  525SOL     vw 2100   3.067   6.292   3.340  0.5236  0.8268 -0.1135
  526SOL     ow 2101   5.566   2.797   4.185 -0.1955 -0.2462  0.3465
  526SOL     hw 2102   5.569   2.891   4.167 -1.2699 -0.3220 -0.3373
  526SOL     hw 2103   5.643   2.761   4.140  0.1878  0.2965  0.5656
  526SOL     vw 2104   5.576   2.804   4.177 -0.2863 -0.1845  0.2851
  527SOL     ow 2105   3.029   2.145   1.049 -0.6652  0.0362 -0.1391
  527SOL     hw 2106   3.076   2.181   0.974  2.1857 -0.7970  1.1093
  527SOL     hw 2107   3.072   2.185   1.125 -2.0331 -0.7722  1.0957
  527SOL     vw 2108   3.041   2.155   1.049 -0.4697 -0.1805  0.1885
  528SOL     ow 2109   5.935   0.760   3.300  0.7562 -0.5352  0.0486
  528SOL     hw 2110   5.902   0.787   3.214  1.2890 -0.7473 -0.2280
  528SOL     hw 2111   6.024   0.796   3.304  0.2274  0.7448  1.1259
  528SOL     vw 2112   5.942   0.768   3.289  0.7565 -0.3943  0.1544
  529SOL     ow 2113   1.768   5.432   1.572 -0.3522 -0.3782  0.4106
  529SOL     hw 2114   1.838   5.376   1.538 -0.0568  1.3758 -2.1409
  529SOL     hw 2115   1.798   5.457   1.659  0.7827 -1.9608  0.5318
  529SOL     vw 2116   1.781   5.428   1.579 -0.1634 -0.3555  0.0900
  530SOL     ow 2117   4.549   3.023   0.384  0.0229  0.1066  0.1499
  530SOL     hw 2118   4.463   3.066   0.391  0.6515  1.9057 -1.8758
  530SOL     hw 2119   4.532   2.944   0.333 -0.2453  1.4546 -2.0116
  530SOL     vw 2120   4.535   3.018   0.378  0.0708  0.5219 -0.4025
  531SOL     ow 2121   4.080   4.997   7.242 -0.0536  0.0727  0.6114
  531SOL     hw 2122   3.986   4.995   7.261  0.1340  1.7998  2.0913
  531SOL     hw 2123   4.122   4.997   7.329  1.2476  0.5766  0.0162
  531SOL     vw 2124   4.073   4.997   7.256  0.1428  0.3672  0.7281
  532SOL     ow 2125   0.715   6.504   2.837  0.5443 -0.4932 -0.1956
  532SOL     hw 2126   0.653   6.442   2.799 -1.2577  0.8355  0.4406
  532SOL     hw 2127   0.677   6.529   2.921  2.3184 -0.1556  0.5626
  532SOL     vw 2128   0.702   6.499   2.843  0.5406 -0.2732 -0.0117
  533SOL     ow 2129   5.164   4.716   0.799 -0.1791 -0.1718 -0.7368
  533SOL     hw 2130   5.073   4.695   0.779 -0.8241 -0.7076  2.2149
  533SOL     hw 2131   5.200   4.634   0.833  0.5886  0.6805  0.5738
  533SOL     vw 2132   5.156   4.702   0.801 -0.1631 -0.1302 -0.1744
  534SOL     ow 2133   0.284   0.463   2.337 -0.0684  0.1687 -0.1309
  534SOL     hw 2134   0.206   0.431   2.384 -0.7000 -1.2507 -2.0294
  534SOL     hw 2135   0.350   0.395   2.351 -0.0662  0.0357 -0.7579
  534SOL     vw 2136   0.282   0.450   2.345 -0.1514 -0.0361 -0.4641
  535SOL     ow 2137   5.451   3.791   0.086 -0.2137 -0.2313  0.0468
  535SOL     hw 2138   5.381   3.842   0.045 -1.4005  1.1887  3.4131
  535SOL     hw 2139   5.523   3.793   0.023  0.1522  6.3593  0.0059
  535SOL     vw 2140   5.451   3.798   0.072 -0.3219  0.8256  0.4856
  536SOL     ow 2141   5.017   0.203   0.190  0.0782 -0.0938  0.2280
  536SOL     hw 2142   4.987   0.222   0.279  0.9057  1.7987  0.1558
  536SOL     hw 2143   4.956   0.250   0.133 -0.8726 -1.8606 -0.2852
  536SOL     vw 2144   5.005   0.212   0.194  0.0618 -0.0772  0.1507
  537SOL     ow 2145   6.799   0.393   6.482  0.2794  0.3555  0.1466
  537SOL     hw 2146   6.838   0.310   6.455 -0.3909  0.5737 -1.6348
  537SOL     hw 2147   6.754   0.425   6.403 -1.4394  1.2673  1.4305
  537SOL     vw 2148   6.798   0.386   6.468 -0.0358  0.5046  0.0811
  538SOL     ow 2149   4.725   0.871   5.741  0.8076  0.5325  0.4110
  538SOL     hw 2150   4.679   0.810   5.683  1.1909  0.4120  0.2258
  538SOL     hw 2151   4.810   0.884   5.699 -0.3660  3.7797 -1.3791
  538SOL     vw 2152   4.730   0.865   5.728  0.7033  0.9451  0.1502
  539SOL     ow 2153   6.268   6.951   5.079  0.2701  0.2949 -0.3753
  539SOL     hw 2154   6.295   7.022   5.137  0.7360  0.3358 -0.6333
  539SOL     hw 2155   6.215   6.995   5.012 -0.5778  0.1946  0.2091
  539SOL     vw 2156   6.265   6.966   5.078  0.2198  0.2868 -0.3324
  540SOL     ow 2157   0.529   6.284   2.790  0.3727  0.3359 -0.4254
  540SOL     hw 2158   0.469   6.227   2.838  0.6139 -0.4898 -1.0713
  540SOL     hw 2159   0.597   6.226   2.757  0.7939  1.0470 -0.8525
  540SOL     vw 2160   0.530   6.269   2.792  0.4601  0.3207 -0.5670
  541SOL     ow 2161   6.694   3.560   2.613 -0.2867  0.4176  0.8451
  541SOL     hw 2162   6.671   3.542   2.522  1.1331 -0.4342  0.6255
  541SOL     hw 2163   6.691   3.474   2.656  0.7160  0.5440  1.1949
  541SOL     vw 2164   6.691   3.546   2.607  0.0329  0.3217  0.8624
  542SOL     ow 2165   5.763   0.541   3.257 -0.3341  0.7891 -0.0740
  542SOL     hw 2166   5.831   0.607   3.248  1.6701 -0.5037  3.5881
  542SOL     hw 2167   5.697   0.581   3.314  0.0574  0.2590  0.7732
  542SOL     vw 2168   5.763   0.555   3.264 -0.0181  0.5486  0.5208
  543SOL     ow 2169   4.596   6.416   6.995 -0.0074 -0.2437  0.2081
  543SOL     hw 2170   4.666   6.479   7.014  1.1929 -1.0820 -1.2386
  543SOL     hw 2171   4.628   6.334   7.031  0.0272 -0.7509 -0.9462
  543SOL     vw 2172   4.610   6.414   7.002  0.1557 -0.4213 -0.1349
  544SOL     ow 2173   6.365   6.892   5.921  0.2463  0.9942 -0.6322
  544SOL     hw 2174   6.357   6.926   6.010  0.2902  0.5549 -0.4602
  544SOL     hw 2175   6.382   6.970   5.868  0.3340  1.2460 -0.2448
  544SOL     vw 2176   6.366   6.907   5.926  0.2639  0.9696 -0.5586
  545SOL     ow 2177   2.472   0.910   3.597 -0.9291  0.7758  0.6443
  545SOL     hw 2178   2.467   1.001   3.624 -2.1941  1.1452 -0.7175
  545SOL     hw 2179   2.400   0.867   3.643 -0.2895  0.4229  1.3449
  545SOL     vw 2180   2.462   0.916   3.607 -1.0117  0.7780  0.5571
  546SOL     ow 2181   5.177   5.233   3.715  0.9750  0.2967  0.3913
  546SOL     hw 2182   5.136   5.284   3.785  0.6062  0.8592 -0.2216
  546SOL     hw 2183   5.270   5.255   3.721  1.4924 -2.0509  2.6790
  546SOL     vw 2184   5.184   5.243   3.725  0.9947  0.0613  0.6124
  547SOL     ow 2185   3.916   2.758   6.422  0.1063 -0.9115  0.3169
  547SOL     hw 2186   3.864   2.703   6.364  1.1875 -1.7643  0.1347
  547SOL     hw 2187   3.984   2.700   6.457 -0.5798 -0.4808  2.5798
  547SOL     vw 2188   3.918   2.743   6.419  0.1585 -0.9673  0.5915
  548SOL     ow 2189   5.440   0.318   4.484  0.4091  0.1671  0.0143
  548SOL     hw 2190   5.448   0.384   4.416 -1.0480 -0.8366 -1.1750
  548SOL     hw 2191   5.526   0.274   4.485  0.9911  1.2783  0.0049
  548SOL     vw 2192   5.452   0.321   4.475  0.2937  0.1813 -0.1440
  549SOL     ow 2193   0.404   0.743   6.570 -0.4662  0.0032  0.0589
  549SOL     hw 2194   0.464   0.689   6.519  0.1927  0.8914 -0.1254
  549SOL     hw 2195   0.347   0.784   6.505  0.7925  1.6449 -0.0554
  549SOL     vw 2196   0.405   0.741   6.555 -0.2132  0.3370  0.0193
  550SOL     ow 2197   6.376   2.826   0.533 -0.4224  0.1277  0.1009
  550SOL     hw 2198   6.462   2.860   0.557  0.4411 -1.2905 -0.8082
  550SOL     hw 2199   6.395   2.740   0.494 -2.3335 -0.6910  0.8533
  550SOL     vw 2200   6.390   2.819   0.531 -0.5608 -0.1674  0.0803
  551SOL     ow 2201   6.661   7.020   0.925 -0.3209 -0.6225 -0.0304
  551SOL     hw 2202   6.640   7.112   0.912 -2.8634 -1.1214 -0.1155
  551SOL     hw 2203   6.653   7.007   1.020 -0.7099 -0.8794 -0.0939
  551SOL     vw 2204   6.657   7.030   0.936 -0.7076 -0.7224 -0.0500
  552SOL     ow 2205   4.013   6.031   4.483 -0.1058  0.2857  0.3111
  552SOL     hw 2206   3.948   5.973   4.522 -0.3770  1.9184  2.4714
  552SOL     hw 2207   4.000   6.022   4.388  0.3424 -3.6122  0.4583
  552SOL     vw 2208   4.003   6.023   4.475 -0.0825 -0.0131  0.6151
  553SOL     ow 2209   7.246   5.139   3.060 -0.7549 -0.2549 -0.1643
  553SOL     hw 2210   7.207   5.160   2.975  1.8969  1.4536 -1.0634
  553SOL     hw 2211   7.239   5.043   3.066 -1.8944 -0.3135 -1.8210
  553SOL     vw 2212   7.240   5.129   3.050 -0.5558 -0.0370 -0.5015
  554SOL     ow 2213   3.773   2.926   2.033 -0.4779 -0.1843 -0.3014
  554SOL     hw 2214   3.806   2.927   2.123 -1.8126 -0.2820  0.2219
  554SOL     hw 2215   3.825   2.859   1.989 -0.3568 -0.7308  0.6363
  554SOL     vw 2216   3.784   2.917   2.039 -0.6380 -0.2692 -0.1087
  555SOL     ow 2217   2.698   2.062   0.996 -0.0378  0.0239 -0.5895
  555SOL     hw 2218   2.656   1.984   0.960 -2.0186  0.3362  0.8592
  555SOL     hw 2219   2.721   2.114   0.920  1.1714 -1.8508 -1.5907
  555SOL     vw 2220   2.695   2.058   0.981 -0.1395 -0.1823 -0.5305
  556SOL     ow 2221   3.721   4.269   1.335 -0.0206  0.0791  1.0244
  556SOL     hw 2222   3.626   4.263   1.348  0.0611  0.3024  1.8008
  556SOL     hw 2223   3.731   4.315   1.252 -0.5936 -0.3708  0.7022
  556SOL     vw 2224   3.710   4.275   1.326 -0.0854  0.0494  1.0844
  557SOL     ow 2225   1.988   1.245   2.778 -0.7174 -0.4695  0.1670
  557SOL     hw 2226   2.038   1.172   2.815 -1.2266 -0.1005  1.6936
  557SOL     hw 2227   2.052   1.316   2.772 -1.0697  0.1831  2.6764
  557SOL     vw 2228   2.003   1.245   2.782 -0.8310 -0.3347  0.6995
  558SOL     ow 2229   5.621   5.892   7.138 -0.9761 -0.6205 -0.0933
  558SOL     hw 2230   5.624   5.889   7.233 -1.1664  0.1756 -0.0511
  558SOL     hw 2231   5.615   5.986   7.117  0.0326 -0.7177 -0.9141
  558SOL     vw 2232   5.620   5.904   7.148 -0.8681 -0.5281 -0.1960
  559SOL     ow 2233   3.852   5.465   1.060  0.1660  0.6624  0.4048
  559SOL     hw 2234   3.782   5.410   1.096  0.8448 -1.6410 -1.5479
  559SOL     hw 2235   3.931   5.412   1.066  0.7132  1.0063 -2.3341
  559SOL     vw 2236   3.853   5.451   1.066  0.3277  0.4039 -0.2142
  560SOL     ow 2237   6.260   0.709   6.244  0.0088  0.7325 -0.5835
  560SOL     hw 2238   6.232   0.798   6.263  1.3889  1.2918 -1.0730
  560SOL     hw 2239   6.334   0.719   6.185  1.5141 -0.6406  0.9449
  560SOL     vw 2240   6.266   0.722   6.239  0.3896  0.6252 -0.4461
  561SOL     ow 2241   5.440   3.819   0.385  0.5066  0.1952 -0.0213
  561SOL     hw 2242   5.380   3.859   0.447  0.5186  1.9964 -1.0968
  561SOL     hw 2243   5.502   3.889   0.363  1.5948 -0.9308 -0.6814
  561SOL     vw 2244   5.440   3.833   0.390  0.6516  0.2842 -0.2503
  562SOL     ow 2245   3.024   0.565   4.096 -0.0311 -0.0608  0.8946
  562SOL     hw 2246   3.070   0.501   4.150 -0.4916  1.3549  3.0638
  562SOL     hw 2247   3.083   0.641   4.094 -0.8858  0.6136  1.0411
  562SOL     vw 2248   3.038   0.567   4.103 -0.2047  0.2149  1.2000
  563SOL     ow 2249   4.073   6.626   1.307 -0.4832  0.0520 -0.0907
  563SOL     hw 2250   4.086   6.534   1.283 -0.7662 -0.0050 -0.0206
  563SOL     hw 2251   4.095   6.629   1.401 -1.0091 -0.0512  0.0363
  563SOL     vw 2252   4.078   6.614   1.317 -0.5898  0.0310 -0.0647
  564SOL     ow 2253   7.080   2.658   5.704  0.1731 -0.1760 -0.2931
  564SOL     hw 2254   7.128   2.584   5.667 -1.2061 -0.2958 -1.9556
  564SOL     hw 2255   7.008   2.619   5.753  1.7999 -0.0086  2.4733
  564SOL     vw 2256   7.077   2.643   5.706  0.2060 -0.1698 -0.1473
  565SOL     ow 2257   2.699   3.947   1.908  0.5703 -0.1930  0.3620
  565SOL     hw 2258   2.620   3.964   1.959  0.5545 -0.4252  0.4163
  565SOL     hw 2259   2.729   3.861   1.937  0.5582 -0.3314 -0.0224
  565SOL     vw 2260   2.693   3.938   1.918  0.5667 -0.2420  0.3184
  566SOL     ow 2261   6.632   0.433   3.972 -0.6711 -0.6344 -0.1685
  566SOL     hw 2262   6.632   0.337   3.979 -0.7901 -0.6257 -0.0449
  566SOL     hw 2263   6.723   0.458   3.987 -0.9062 -0.6195  1.3453
  566SOL     vw 2264   6.644   0.423   3.975 -0.7179 -0.6313  0.0476
  567SOL     ow 2265   0.331   1.394   2.875  0.6210  0.0251 -0.3408
  567SOL     hw 2266   0.332   1.430   2.964  0.3560 -0.7261 -0.0230
  567SOL     hw 2267   0.240   1.367   2.861  0.2824  1.6416 -1.4749
  567SOL     vw 2268   0.319   1.395   2.885  0.5413  0.1393 -0.4485
  568SOL     ow 2269   2.860   4.858   4.426  0.1464 -0.5815 -0.5236
  568SOL     hw 2270   2.932   4.883   4.484 -2.6408  1.0770  2.5857
  568SOL     hw 2271   2.851   4.763   4.438  0.9359 -0.5812  0.1448
  568SOL     vw 2272   2.868   4.848   4.436 -0.1172 -0.3629 -0.0253
  569SOL     ow 2273   0.317   1.297   5.372  0.0462 -0.5747  0.9368
  569SOL     hw 2274   0.391   1.257   5.328 -0.2091 -0.0318 -0.0225
  569SOL     hw 2275   0.254   1.226   5.383 -0.5744 -0.4104 -1.1265
  569SOL     vw 2276   0.318   1.282   5.368 -0.0693 -0.4814  0.5381
  570SOL     ow 2277   3.058   3.569   3.868 -0.5281  0.6283 -0.0867
  570SOL     hw 2278   3.118   3.629   3.824  1.1843 -2.4839 -2.4703
  570SOL     hw 2279   3.006   3.532   3.797  0.3799 -2.5777  0.7590
  570SOL     vw 2280   3.059   3.572   3.852 -0.1824 -0.2052 -0.2896
  571SOL     ow 2281   1.924   2.181   4.634  0.1809 -0.1618  0.6433
  571SOL     hw 2282   1.994   2.116   4.623 -0.7178 -1.1309  0.5872
  571SOL     hw 2283   1.868   2.145   4.702 -3.5460 -2.3611 -3.1658
  571SOL     vw 2284   1.926   2.168   4.642 -0.4295 -0.5798  0.1335
  572SOL     ow 2285   0.596   2.742   3.392 -0.8404 -0.4825 -0.3059
  572SOL     hw 2286   0.623   2.694   3.470 -0.5115  0.3885  0.1343
  572SOL     hw 2287   0.616   2.683   3.319  2.4263  0.1219 -0.0360
  572SOL     vw 2288   0.602   2.728   3.393 -0.3660 -0.2879 -0.2123
  573SOL     ow 2289   3.296   6.458   3.147  0.1483  0.8718 -0.0570
  573SOL     hw 2290   3.389   6.469   3.165  0.1865  1.2794 -0.4980
  573SOL     hw 2291   3.257   6.543   3.165 -0.2017  0.6057  0.4811
  573SOL     vw 2292   3.303   6.470   3.152  0.1073  0.8903 -0.0442
  574SOL     ow 2293   5.904   5.818   5.756 -0.5748 -0.8667 -0.0573
  574SOL     hw 2294   5.825   5.867   5.779 -0.4905 -0.2868 -0.9540
  574SOL     hw 2295   5.878   5.726   5.760 -1.4008 -0.6713 -0.6563
  574SOL     vw 2296   5.890   5.812   5.759 -0.6728 -0.7646 -0.2546
  575SOL     ow 2297   6.003   3.510   2.351  0.0498 -0.2943 -0.4617
  575SOL     hw 2298   5.907   3.511   2.354  0.0594 -1.1064  1.4758
  575SOL     hw 2299   6.027   3.600   2.330 -1.1218  0.0253 -0.5161
  575SOL     vw 2300   5.993   3.522   2.349 -0.1037 -0.3592 -0.2134
  576SOL     ow 2301   1.396   3.626   3.993  0.7564 -0.8182  0.0834
  576SOL     hw 2302   1.317   3.622   4.048 -1.0195 -1.2848 -2.3353
  576SOL     hw 2303   1.440   3.707   4.020  0.3240 -1.3366  2.5644
  576SOL     vw 2304   1.391   3.636   4.004  0.4651 -0.9481  0.0916
  577SOL     ow 2305   6.970   5.598   6.284 -0.0932 -0.2854 -0.4331
  577SOL     hw 2306   7.049   5.599   6.338 -1.0835 -2.2164  1.1899
  577SOL     hw 2307   6.914   5.665   6.322  0.3166  0.3407 -0.9107
  577SOL     vw 2308   6.973   5.607   6.296 -0.1698 -0.4575 -0.2820
  578SOL     ow 2309   3.054   0.407   3.455  0.2327  0.5940  0.5407
  578SOL     hw 2310   3.045   0.312   3.453 -2.0545  0.7198  1.3508
  578SOL     hw 2311   3.116   0.427   3.386 -0.1223 -1.4096 -0.4413
  578SOL     vw 2312   3.061   0.397   3.446 -0.1159  0.3462  0.5180
  579SOL     ow 2313   5.219   3.945   0.475 -0.0288  0.2430 -0.0158
  579SOL     hw 2314   5.192   4.034   0.500 -0.4714 -0.4264  2.1106
  579SOL     hw 2315   5.138   3.894   0.478  0.5569 -0.6552  0.9042
  579SOL     vw 2316   5.205   3.950   0.479 -0.0100  0.0362  0.3861
  580SOL     ow 2317   4.015   5.712   0.174 -0.2378  0.3262 -0.4602
  580SOL     hw 2318   4.018   5.639   0.112 -0.6501 -1.0459  1.0861
  580SOL     hw 2319   4.026   5.790   0.119  1.3009 -0.9273 -2.0417
  580SOL     vw 2320   4.017   5.713   0.158 -0.0892 -0.0203 -0.4649
  581SOL     ow 2321   6.916   4.939   0.509  0.3218  0.5779 -0.2580
  581SOL     hw 2322   6.898   5.029   0.533 -2.0943  0.7445 -2.2714
  581SOL     hw 2323   6.878   4.929   0.422  2.5375 -1.7769 -1.0831
  581SOL     vw 2324   6.909   4.949   0.501  0.2954  0.2894 -0.6325
  582SOL     ow 2325   3.844   0.391   4.912 -0.3067  0.0094 -0.4598
  582SOL     hw 2326   3.799   0.463   4.957 -1.7254 -0.9638 -0.2628
  582SOL     hw 2327   3.839   0.318   4.974 -2.4809 -1.4305 -2.1998
  582SOL     vw 2328   3.838   0.391   4.926 -0.7808 -0.3090 -0.6633
  583SOL     ow 2329   2.396   1.086   6.912 -0.2556 -0.1151 -0.0803
  583SOL     hw 2330   2.377   1.172   6.949 -0.7920 -0.4491  0.4424
  583SOL     hw 2331   2.424   1.104   6.822  0.0915  0.6341  0.1708
  583SOL     vw 2332   2.397   1.100   6.905 -0.2806 -0.0604  0.0217
  584SOL     ow 2333   3.929   4.732   6.043 -0.2361  0.5869 -0.7763
  584SOL     hw 2334   3.916   4.643   6.010 -0.4599  0.9523 -1.6994
  584SOL     hw 2335   3.842   4.758   6.076  0.5558 -0.8474  2.9649
  584SOL     vw 2336   3.915   4.724   6.043 -0.1612  0.4458 -0.4046
  585SOL     ow 2337   0.366   5.851   0.096  0.5553 -0.5546  0.2762
  585SOL     hw 2338   0.391   5.894   0.178 -0.6506  1.4612 -0.3408
  585SOL     hw 2339   0.412   5.901   0.028  0.3485 -1.2500 -0.3823
  585SOL     vw 2340   0.375   5.863   0.098  0.3689 -0.3803  0.1079
  586SOL     ow 2341   2.230   2.389   3.882  0.0937 -0.7389 -0.1045
  586SOL     hw 2342   2.272   2.456   3.936  0.2182 -1.0272  0.1561
  586SOL     hw 2343   2.194   2.438   3.808 -3.6711  0.3646  2.1546
  586SOL     vw 2344   2.231   2.404   3.879 -0.3866 -0.6313  0.2280
  587SOL     ow 2345   3.358   5.232   6.432 -0.1214 -0.4748 -0.0866
  587SOL     hw 2346   3.371   5.180   6.353  1.9066  1.2572 -1.0093
  587SOL     hw 2347   3.349   5.167   6.502 -0.1061 -2.0473 -1.4772
  587SOL     vw 2348   3.359   5.217   6.431  0.1481 -0.4539 -0.3920
  588SOL     ow 2349   3.547   3.826   4.499 -0.6705 -0.8848 -0.0457
  588SOL     hw 2350   3.467   3.835   4.550 -1.6632  0.2851 -1.6977
  588SOL     hw 2351   3.573   3.734   4.509 -0.5994 -0.6607  2.7514
  588SOL     vw 2352   3.540   3.815   4.507 -0.7921 -0.7010  0.1051
  589SOL     ow 2353   0.794   3.306   6.123 -0.2622 -0.1479  0.2672
  589SOL     hw 2354   0.791   3.301   6.218  1.0142 -1.7464  0.2722
  589SOL     hw 2355   0.836   3.390   6.104  0.3545 -0.2515  1.1425
  589SOL     vw 2356   0.799   3.317   6.133 -0.0124 -0.3723  0.3831
  590SOL     ow 2357   0.539   6.071   4.064  0.7145 -0.4725 -0.0363
  590SOL     hw 2358   0.501   5.995   4.107 -0.1040  0.7872  1.5478
  590SOL     hw 2359   0.616   6.036   4.019  0.0190 -2.3340  0.1218
  590SOL     vw 2360   0.544   6.056   4.064  0.5147 -0.5519  0.1938
  591SOL     ow 2361   0.651   2.370   4.725  0.2464 -1.0607 -0.1232
  591SOL     hw 2362   0.728   2.424   4.739  0.4867 -0.6769 -2.4996
  591SOL     hw 2363   0.686   2.281   4.718  0.4398 -0.9449 -0.7186
  591SOL     vw 2364   0.666   2.365   4.726  0.3036 -0.9949 -0.5150
  592SOL     ow 2365   2.825   4.988   7.190  0.3591  0.0001 -0.4554
  592SOL     hw 2366   2.774   4.917   7.229 -0.6599  0.8463 -0.2243
  592SOL     hw 2367   2.768   5.064   7.193  2.0066  1.2613  0.8072
  592SOL     vw 2368   2.811   4.989   7.196  0.4420  0.2782 -0.2584
  593SOL     ow 2369   2.351   4.005   2.906 -1.0823  0.0661 -0.2518
  593SOL     hw 2370   2.421   4.054   2.862 -0.6561  0.1281  0.4760
  593SOL     hw 2371   2.397   3.937   2.955 -1.5299  0.0770  0.1892
  593SOL     vw 2372   2.366   4.003   2.907 -1.0849  0.0756 -0.0976
  594SOL     ow 2373   4.852   5.837   0.352  0.4055  0.0537 -0.4092
  594SOL     hw 2374   4.858   5.742   0.357  0.4241  0.0189 -0.9922
  594SOL     hw 2375   4.848   5.856   0.258  0.0249  0.6040 -0.2865
  594SOL     vw 2376   4.852   5.827   0.340  0.3576  0.1218 -0.4699
  595SOL     ow 2377   1.101   6.036   7.156 -0.9138  0.4882  0.2728
  595SOL     hw 2378   1.108   6.065   7.247 -2.9398  1.7760  0.0722
  595SOL     hw 2379   1.065   6.112   7.109  1.1895  0.2939 -1.8803
  595SOL     vw 2380   1.097   6.050   7.162 -0.9035  0.6320 -0.0379
  596SOL     ow 2381   2.074   0.286   4.178 -0.5146  0.1306 -0.6068
  596SOL     hw 2382   2.003   0.271   4.116 -2.1347 -2.3019  1.6647
  596SOL     hw 2383   2.128   0.353   4.136 -2.7666  0.3046 -3.5344
  596SOL     vw 2384   2.072   0.293   4.164 -1.0254 -0.1673 -0.6933
  597SOL     ow 2385   0.959   2.751   5.222 -0.2348 -0.3370  1.0381
  597SOL     hw 2386   0.954   2.828   5.165 -1.1748 -0.7092  0.5908
  597SOL     hw 2387   0.906   2.774   5.298 -1.1172 -0.7818  0.5819
  597SOL     vw 2388   0.951   2.764   5.224 -0.4753 -0.4448  0.9189
  598SOL     ow 2389   3.536   2.943   6.488  1.3288  0.0608  0.3262
  598SOL     hw 2390   3.480   2.908   6.557  1.1005  0.8682  0.5596
  598SOL     hw 2391   3.493   2.916   6.407  0.4880  0.8453  0.5025
  598SOL     vw 2392   3.523   2.935   6.487  1.1877  0.2708  0.3803
  599SOL     ow 2393   2.940   6.727   4.554 -0.3900 -0.4417 -0.6085
  599SOL     hw 2394   3.029   6.735   4.520 -0.2973  0.6646 -0.1592
  599SOL     hw 2395   2.884   6.725   4.476 -0.0565  0.2006 -0.8700
  599SOL     vw 2396   2.944   6.728   4.539 -0.3338 -0.2112 -0.5839
  600SOL     ow 2397   2.383   3.737   2.750 -0.3735  0.0640  0.0098
  600SOL     hw 2398   2.478   3.728   2.744 -0.1700 -4.7721  3.8215
  600SOL     hw 2399   2.350   3.688   2.675 -0.0150  2.2220 -1.6403
  600SOL     vw 2400   2.391   3.729   2.739 -0.2993 -0.2892  0.2952
  601SOL     ow 2401   4.967   5.896   5.350 -0.4768  0.0954 -0.5880
  601SOL     hw 2402   5.015   5.813   5.341 -2.0470 -1.0317  0.8811
  601SOL     hw 2403   4.969   5.934   5.262  2.4201 -0.2210 -0.7652
  601SOL     vw 2404   4.973   5.890   5.337 -0.3018 -0.0951 -0.4175
  602SOL     ow 2405   2.294   0.019   6.554  0.1621  0.7913 -0.1272
  602SOL     hw 2406   2.291  -0.048   6.485  1.4555 -1.7987  2.1318
  602SOL     hw 2407   2.209   0.061   6.550 -0.1357  0.1289 -2.6984
  602SOL     vw 2408   2.282   0.015   6.544  0.2934  0.3622 -0.1683
  603SOL     ow 2409   2.604   6.406   1.033  0.8951  0.1744 -0.0335
  603SOL     hw 2410   2.661   6.443   0.965  0.7481  0.8004  0.1763
  603SOL     hw 2411   2.627   6.453   1.113  3.1043 -2.5111  1.0763
  603SOL     vw 2412   2.614   6.417   1.034  1.1671 -0.0975  0.1406
  604SOL     ow 2413   1.079   6.031   2.594 -0.0090  0.0186 -0.1360
  604SOL     hw 2414   1.035   6.072   2.520  1.1238 -0.5693 -1.1730
  604SOL     hw 2415   1.008   6.007   2.654 -0.8808  1.2253 -0.6302
  604SOL     vw 2416   1.064   6.033   2.592  0.0254  0.1004 -0.3380
  605SOL     ow 2417   5.278   2.785   0.591 -0.4331  0.1882 -0.4252
  605SOL     hw 2418   5.213   2.851   0.617  0.3433  0.6229  0.4578
  605SOL     hw 2419   5.247   2.753   0.506 -1.6450  0.5913 -0.1533
  605SOL     vw 2420   5.265   2.789   0.583 -0.4907  0.2987 -0.2728
  606SOL     ow 2421   0.335   4.426   3.396  0.0020 -0.0493  0.8950
  606SOL     hw 2422   0.337   4.502   3.338  1.1175 -0.5873  0.1930
  606SOL     hw 2423   0.368   4.459   3.480 -0.8780  0.5504  1.0246
  606SOL     vw 2424   0.339   4.440   3.399  0.0331 -0.0412  0.8194
  607SOL     ow 2425   2.252   6.155   6.471  0.5063 -0.5319 -0.4888
  607SOL     hw 2426   2.220   6.085   6.528 -2.4990  1.5208  0.5893
  607SOL     hw 2427   2.316   6.202   6.523 -1.4899  0.7251  0.9477
  607SOL     vw 2428   2.256   6.152   6.485 -0.1535 -0.0954 -0.1574
  608SOL     ow 2429   4.767   2.752   4.129 -0.3148  0.2742 -0.3467
  608SOL     hw 2430   4.824   2.675   4.126  2.0760  1.8980 -0.2768
  608SOL     hw 2431   4.718   2.749   4.047  0.1682 -1.0312 -0.6094
  608SOL     vw 2432   4.768   2.742   4.118  0.0644  0.3163 -0.3722
  609SOL     ow 2433   1.101   2.514   6.027  0.4108  0.1296 -0.3381
  609SOL     hw 2434   1.193   2.531   6.007  0.4017 -0.4797 -0.9417
  609SOL     hw 2435   1.104   2.446   6.094  0.4056 -0.0640 -0.5308
  609SOL     vw 2436   1.114   2.507   6.033  0.4090  0.0237 -0.4432
  610SOL     ow 2437   3.260   0.280   1.476  0.5621  0.5317  0.4860
  610SOL     hw 2438   3.320   0.333   1.527 -1.0792  0.4265  2.6490
  610SOL     hw 2439   3.278   0.190   1.503 -1.3429  0.5871  2.1507
  610SOL     vw 2440   3.270   0.275   1.486  0.0942  0.5251  0.9910
  611SOL     ow 2441   2.112   5.232   5.452  0.0334 -0.4886 -0.1431
  611SOL     hw 2442   2.168   5.154   5.444  0.4596 -0.0025 -2.4872
  611SOL     hw 2443   2.080   5.247   5.364 -1.6227  0.8831  0.6514
  611SOL     vw 2444   2.115   5.223   5.440 -0.1289 -0.2434 -0.3474
  612SOL     ow 2445   5.273   3.837   6.111  0.4134  0.3654  0.1297
  612SOL     hw 2446   5.349   3.828   6.052  1.8560 -0.3418  2.0011
  612SOL     hw 2447   5.265   3.932   6.124  1.2502  0.4315  0.2262
  612SOL     vw 2448   5.282   3.849   6.105  0.7143  0.2810  0.3891
  613SOL     ow 2449   3.575   1.196   6.518  0.1882 -0.0120 -0.5283
  613SOL     hw 2450   3.484   1.170   6.500  0.2523 -1.3327  0.8912
  613SOL     hw 2451   3.570   1.291   6.531 -1.5790 -0.3899  2.5320
  613SOL     vw 2452   3.562   1.205   6.517 -0.0365 -0.2362  0.0627
  614SOL     ow 2453   3.398   3.134   5.002  0.4556 -0.6794 -0.4933
  614SOL     hw 2454   3.358   3.185   5.073 -0.6098 -1.5366 -0.4619
  614SOL     hw 2455   3.483   3.106   5.037  0.4794 -0.0441 -0.0307
  614SOL     vw 2456   3.404   3.137   5.016  0.3181 -0.7087 -0.4280
  615SOL     ow 2457   2.143   0.545   0.581 -0.0209  0.1849 -0.6969
  615SOL     hw 2458   2.064   0.595   0.602 -1.1240 -1.2173 -1.2959
  615SOL     hw 2459   2.197   0.552   0.659 -2.0892 -1.2955  1.0061
  615SOL     vw 2460   2.139   0.552   0.594 -0.4393 -0.1954 -0.5513
  616SOL     ow 2461   0.903   6.831   1.889  1.1413 -0.4539  0.0081
  616SOL     hw 2462   0.837   6.886   1.932 -0.5715  0.1517 -3.0791
  616SOL     hw 2463   0.983   6.882   1.892  0.4871  0.5833  0.4198
  616SOL     vw 2464   0.905   6.845   1.895  0.8290 -0.2370 -0.3450
  617SOL     ow 2465   4.530   7.004   6.002  0.4553  0.0336  0.1034
  617SOL     hw 2466   4.448   6.961   6.025  1.2281 -1.9892 -0.6567
  617SOL     hw 2467   4.578   7.009   6.084  0.2359 -0.3302  0.2591
  617SOL     vw 2468   4.525   6.999   6.016  0.5283 -0.2811  0.0236
  618SOL     ow 2469   2.668   1.119   7.204 -0.1318  0.6657 -0.1499
  618SOL     hw 2470   2.708   1.037   7.175 -1.2187  0.3465 -0.8185
  618SOL     hw 2471   2.688   1.124   7.297 -0.3211 -0.5396 -0.0249
  618SOL     vw 2472   2.676   1.108   7.212 -0.3002  0.4646 -0.2215
  619SOL     ow 2473   1.149   4.483   3.326  0.4430  0.3650 -0.4706
  619SOL     hw 2474   1.179   4.397   3.355 -1.3812 -0.5952 -1.2758
  619SOL     hw 2475   1.139   4.474   3.231  1.5997  1.9291 -0.7772
  619SOL     vw 2476   1.152   4.470   3.317  0.3549  0.4449 -0.6174
  620SOL     ow 2477   2.807   4.610   4.488 -0.1792  0.1904  0.4661
  620SOL     hw 2478   2.870   4.622   4.558 -0.7210  1.0079  0.8309
  620SOL     hw 2479   2.848   4.547   4.428  1.6250  1.8320 -0.0972
  620SOL     vw 2480   2.820   4.603   4.489 -0.0126  0.5150  0.4399
  621SOL     ow 2481   3.562   1.416   1.904  0.7188 -0.2485 -0.2814
  621SOL     hw 2482   3.630   1.479   1.880  0.8126 -0.1093  0.3316
  621SOL     hw 2483   3.607   1.331   1.906  1.1579 -0.0082  1.2449
  621SOL     vw 2484   3.577   1.413   1.901  0.7892 -0.1984  0.0009
  622SOL     ow 2485   1.282   6.616   1.000 -0.0838  0.2076 -0.2769
  622SOL     hw 2486   1.330   6.617   1.082 -0.3595 -1.7023 -0.0363
  622SOL     hw 2487   1.276   6.523   0.977 -1.5442  0.5707 -1.5402
  622SOL     vw 2488   1.287   6.603   1.008 -0.3129  0.0033 -0.4118
  623SOL     ow 2489   2.952   0.612   6.057  0.8053  0.1913  0.9295
  623SOL     hw 2490   2.980   0.546   5.993  1.0236  1.1599  0.0112
  623SOL     hw 2491   3.026   0.673   6.062 -0.0729  1.3039  0.4897
  623SOL     vw 2492   2.966   0.611   6.049  0.7182  0.4659  0.7505
  624SOL     ow 2493   4.442   0.384   6.628 -0.4749 -0.4825 -0.5134
  624SOL     hw 2494   4.428   0.291   6.640  0.7418 -0.7075 -0.6848
  624SOL     hw 2495   4.515   0.389   6.565 -1.7880  0.5901 -2.0302
  624SOL     vw 2496   4.450   0.373   6.621 -0.4878 -0.3707 -0.7362
  625SOL     ow 2497   2.724   6.541   4.713  0.3392  0.6552 -0.5959
  625SOL     hw 2498   2.650   6.597   4.735  0.1922  0.7388 -1.2617
  625SOL     hw 2499   2.688   6.452   4.714  0.1459  0.7192 -1.2092
  625SOL     vw 2500   2.709   6.537   4.716  0.2943  0.6745 -0.7646
  626SOL     ow 2501   3.555   6.879   5.826 -0.4709 -0.2835  0.3587
  626SOL     hw 2502   3.648   6.895   5.812 -0.4108 -0.7245  0.2430
  626SOL     hw 2503   3.539   6.793   5.786 -0.1269 -1.9798  3.4876
  626SOL     vw 2504   3.565   6.870   5.819 -0.4177 -0.5653  0.7560
  627SOL     ow 2505   0.646   2.798   3.004  0.4404 -0.5542  0.3545
  627SOL     hw 2506   0.580   2.826   2.941 -0.1439  0.2176  1.2848
  627SOL     hw 2507   0.632   2.853   3.080 -1.3808 -3.9175  2.6999
  627SOL     vw 2508   0.636   2.809   3.006  0.1231 -0.8960  0.7867
  628SOL     ow 2509   3.989   6.925   4.087  0.3210 -0.5232 -0.1810
  628SOL     hw 2510   3.939   7.007   4.085  0.6273 -0.3055  0.6848
  628SOL     hw 2511   3.979   6.894   4.178  0.6244 -1.1861 -0.3715
  628SOL     vw 2512   3.981   6.932   4.099  0.4014 -0.5817 -0.0920
  629SOL     ow 2513   5.896   6.042   2.657 -0.0782  0.6250 -0.8730
  629SOL     hw 2514   5.830   6.010   2.719 -0.9011  3.4726 -0.1449
  629SOL     hw 2515   5.967   5.978   2.663 -2.2684 -2.0257 -0.9505
  629SOL     vw 2516   5.896   6.029   2.666 -0.4756  0.6509 -0.7871
  630SOL     ow 2517   0.477   3.249   6.487 -0.0930  0.3695 -0.8893
  630SOL     hw 2518   0.437   3.276   6.570  1.5770  2.0770 -0.5840
  630SOL     hw 2519   0.414   3.186   6.450  0.5011 -3.0340  3.1024
  630SOL     vw 2520   0.463   3.244   6.493  0.2058  0.1458 -0.3221
  631SOL     ow 2521   5.065   0.074   1.590  0.1090  0.2994  0.2701
  631SOL     hw 2522   5.124   0.100   1.660 -0.8245  2.2858  0.3724
  631SOL     hw 2523   5.090   0.129   1.515  0.4798 -1.1298 -0.7078
  631SOL     vw 2524   5.076   0.084   1.589  0.0346  0.3729  0.1545
  632SOL     ow 2525   6.603   6.161   1.350  0.1008 -0.9379  0.3228
  632SOL     hw 2526   6.631   6.088   1.295 -2.1200 -0.8662 -1.0116
  632SOL     hw 2527   6.527   6.127   1.397  0.6836 -0.3068  1.7673
  632SOL     vw 2528   6.597   6.147   1.349 -0.1156 -0.8454  0.3372
  633SOL     ow 2529   2.287   0.813   1.206 -0.0375  0.9288 -0.4563
  633SOL     hw 2530   2.293   0.893   1.154  0.8404  2.4675  1.8203
  633SOL     hw 2531   2.373   0.806   1.248 -0.8078 -0.0050  1.0314
  633SOL     vw 2532   2.299   0.823   1.205 -0.0234  1.0086  0.0404
  634SOL     ow 2533   1.962   0.055   7.146  0.0835 -0.3243  0.1512
  634SOL     hw 2534   1.915   0.103   7.078 -1.2951 -1.7683  0.0376
  634SOL     hw 2535   2.051   0.045   7.111 -0.7000 -1.3869 -1.6428
  634SOL     vw 2536   1.968   0.060   7.132 -0.2017 -0.6549 -0.1004
  635SOL     ow 2537   6.581   1.554   5.848  0.2800 -0.4123  0.2481
  635SOL     hw 2538   6.549   1.464   5.857  0.5372 -0.4726  0.5975
  635SOL     hw 2539   6.614   1.576   5.936  1.9192 -0.6319 -0.2781
  635SOL     vw 2540   6.581   1.545   5.861  0.5305 -0.4493  0.2248
  636SOL     ow 2541   2.624   0.746   3.410  0.4349 -0.0536  0.3698
  636SOL     hw 2542   2.587   0.826   3.449 -1.6963  0.2689 -2.0307
  636SOL     hw 2543   2.671   0.777   3.333 -0.0549 -1.0451 -0.3528
  636SOL     vw 2544   2.625   0.761   3.405  0.0890 -0.1419 -0.0422
  637SOL     ow 2545   4.554   6.339   3.370 -0.1468  0.4418 -0.3003
  637SOL     hw 2546   4.607   6.418   3.366 -0.9627  0.9369 -2.6793
  637SOL     hw 2547   4.613   6.269   3.342 -0.2516  0.7109 -1.2129
  637SOL     vw 2548   4.569   6.340   3.366 -0.2685  0.5426 -0.7346
  638SOL     ow 2549   5.432   7.235   5.722  0.7433 -0.0192 -0.8108
  638SOL     hw 2550   5.524   7.259   5.706  0.8072  0.0477 -0.3508
  638SOL     hw 2551   5.405   7.190   5.642  1.8978 -2.2027 -0.0440
  638SOL     vw 2552   5.441   7.232   5.709  0.9038 -0.2985 -0.6487
  639SOL     ow 2553   1.979   1.600   4.904 -0.0995 -0.0632 -0.3106
  639SOL     hw 2554   1.894   1.616   4.864  1.0441  2.7113 -1.8647
  639SOL     hw 2555   2.024   1.542   4.842 -0.6938 -1.3262  0.3913
  639SOL     vw 2556   1.974   1.594   4.891 -0.0271  0.1362 -0.4230
  640SOL     ow 2557   5.616   6.932   6.445 -0.0126 -0.6113 -0.1096
  640SOL     hw 2558   5.544   6.876   6.473 -0.1692 -0.3249  0.0670
  640SOL     hw 2559   5.624   6.916   6.351  0.6374 -1.7166  0.1159
  640SOL     vw 2560   5.608   6.923   6.436  0.0525 -0.7191 -0.0567
  641SOL     ow 2561   0.736   2.529   2.085 -0.0693  0.2112 -0.6786
  641SOL     hw 2562   0.658   2.489   2.124  1.2025 -0.9480  0.7600
  641SOL     hw 2563   0.761   2.469   2.015 -1.0897  1.1749 -1.9139
  641SOL     vw 2564   0.729   2.516   2.081 -0.0362  0.1853 -0.6520
  642SOL     ow 2565   2.797   2.767   5.174  0.5577  0.0140  0.6839
  642SOL     hw 2566   2.738   2.837   5.204  0.1825 -1.1543  2.8812
  642SOL     hw 2567   2.748   2.723   5.105 -0.2907  0.3402  1.0621
  642SOL     vw 2568   2.782   2.771   5.169  0.3963 -0.0972  1.0240
  643SOL     ow 2569   4.426   1.427   5.074 -0.6750  0.2583 -0.3270
  643SOL     hw 2570   4.431   1.366   5.148 -1.2758 -0.7523 -1.0970
  643SOL     hw 2571   4.410   1.512   5.114 -1.3904 -0.3377  0.6874
  643SOL     vw 2572   4.425   1.430   5.089 -0.8488  0.0464 -0.2947
  644SOL     ow 2573   3.287   0.123   4.210 -0.0613 -0.5407 -0.1887
  644SOL     hw 2574   3.254   0.056   4.270 -2.7006  1.8557  1.3161
  644SOL     hw 2575   3.260   0.094   4.123  0.6659 -2.3700  0.1613
  644SOL     vw 2576   3.279   0.110   4.207 -0.3135 -0.4659  0.0563
  645SOL     ow 2577   5.222   0.067   6.309  0.2729 -0.4097 -0.8484
  645SOL     hw 2578   5.161   0.112   6.251  0.2888  1.0931  0.2183
  645SOL     hw 2579   5.180   0.070   6.395  1.5581  0.1577 -0.2005
  645SOL     vw 2580   5.208   0.073   6.313  0.4447 -0.1365 -0.6225
  646SOL     ow 2581   2.677   4.633   2.278 -0.6833 -0.5489  0.4573
  646SOL     hw 2582   2.738   4.583   2.332 -1.8976 -1.5731  0.9377
  646SOL     hw 2583   2.610   4.570   2.253 -0.8153  0.1983 -1.2563
  646SOL     vw 2584   2.676   4.618   2.282 -0.8609 -0.5856  0.2946
  647SOL     ow 2585   3.453   4.501   3.528  0.3902  0.6500 -0.1614
  647SOL     hw 2586   3.470   4.584   3.572 -0.4918  1.5476 -1.4354
  647SOL     hw 2587   3.361   4.505   3.502  0.7680  0.0297 -1.7445
  647SOL     vw 2588   3.443   4.512   3.530  0.3237  0.6866 -0.5382
  648SOL     ow 2589   5.355   2.086   5.950 -0.0304  0.4424 -0.6936
  648SOL     hw 2590   5.358   2.156   5.885 -0.1531  0.3438 -0.8073
  648SOL     hw 2591   5.446   2.068   5.971  0.1286 -0.8210 -2.2421
  648SOL     vw 2592   5.367   2.093   5.944 -0.0255  0.2627 -0.9131
  649SOL     ow 2593   5.529   5.555   3.559 -0.3838  0.3357 -0.2207
  649SOL     hw 2594   5.599   5.491   3.574 -0.8859 -0.0217  0.7099
  649SOL     hw 2595   5.468   5.541   3.632 -2.6480 -0.9513 -2.2269
  649SOL     vw 2596   5.530   5.545   3.571 -0.7489  0.1187 -0.3625
  650SOL     ow 2597   6.889   2.097   5.464 -0.3415 -0.0180 -0.0860
  650SOL     hw 2598   6.881   2.004   5.487  0.1042 -0.2873 -0.9630
  650SOL     hw 2599   6.983   2.110   5.450 -0.5275  0.2319 -1.2485
  650SOL     vw 2600   6.900   2.086   5.465 -0.3073 -0.0205 -0.3552
  651SOL     ow 2601   4.536   3.939   4.236  0.0327  0.3002 -0.0778
  651SOL     hw 2602   4.485   3.910   4.312 -0.7485  0.1960 -0.6267
  651SOL     hw 2603   4.473   3.940   4.164  0.7204  0.5753 -0.6885
  651SOL     vw 2604   4.521   3.935   4.237  0.0207  0.3229 -0.2308
  652SOL     ow 2605   2.969   1.235   0.359 -0.7361 -0.5180  0.3392
  652SOL     hw 2606   2.973   1.177   0.283 -1.4657  0.2217 -0.2736
  652SOL     hw 2607   3.061   1.250   0.382 -0.4296  0.6383 -1.4711
  652SOL     vw 2608   2.982   1.229   0.352 -0.7919 -0.2677  0.0195
  653SOL     ow 2609   3.696   3.536   5.091  0.3274  0.7536  0.1226
  653SOL     hw 2610   3.710   3.461   5.033 -0.2077 -1.0327  2.1594
  653SOL     hw 2611   3.611   3.571   5.064  0.2675  0.2028 -0.4411
  653SOL     vw 2612   3.686   3.530   5.079  0.2489  0.4454  0.3169
  654SOL     ow 2613   2.525   1.589   1.080  0.0968  0.3600  1.1722
  654SOL     hw 2614   2.492   1.671   1.117  0.6844  0.5068  1.3783
  654SOL     hw 2615   2.486   1.586   0.992 -0.3290  0.6105  1.3487
  654SOL     vw 2616   2.515   1.600   1.073  0.1181  0.4124  1.2227
  655SOL     ow 2617   4.627   1.124   5.204 -0.1355 -0.2856 -0.8981
  655SOL     hw 2618   4.561   1.071   5.159  0.0292  1.7526 -3.8100
  655SOL     hw 2619   4.585   1.209   5.218  1.3378  0.5651 -1.4129
  655SOL     vw 2620   4.613   1.128   5.200  0.0803  0.0956 -1.3499
  656SOL     ow 2621   3.335   1.643   1.978  0.0763 -0.4702 -0.0428
  656SOL     hw 2622   3.255   1.686   2.009 -1.5367 -2.8256 -0.6638
  656SOL     hw 2623   3.335   1.657   1.883  2.1507  2.1451  0.2214
  656SOL     vw 2624   3.325   1.650   1.970  0.1372 -0.4359 -0.0899
  657SOL     ow 2625   1.527   6.168   5.753 -0.3425 -0.4334  0.1582
  657SOL     hw 2626   1.457   6.202   5.808 -1.5953 -1.5592 -0.6749
  657SOL     hw 2627   1.608   6.198   5.796 -1.2705 -0.5836  2.1438
  657SOL     vw 2628   1.529   6.176   5.766 -0.6302 -0.6020  0.3102
  658SOL     ow 2629   1.444   4.320   6.833 -0.4738 -0.0734 -0.0760
  658SOL     hw 2630   1.480   4.310   6.744 -0.9652  1.9108 -0.5458
  658SOL     hw 2631   1.363   4.269   6.831  0.2057 -1.1966 -0.2979
  658SOL     vw 2632   1.438   4.312   6.821 -0.4489  0.0401 -0.1671
  659SOL     ow 2633   3.630   5.552   7.077  0.6328 -0.2258  0.1709
  659SOL     hw 2634   3.725   5.541   7.085  0.8289  1.8436  1.6476
  659SOL     hw 2635   3.593   5.493   7.143  0.5175 -3.8612 -2.7957
  659SOL     vw 2636   3.638   5.543   7.087  0.6434 -0.4325 -0.0255
  660SOL     ow 2637   5.994   1.830   1.554 -0.1114  0.2536 -0.4946
  660SOL     hw 2638   6.054   1.837   1.480  0.3574 -0.6864 -0.2275
  660SOL     hw 2639   6.052   1.828   1.631 -0.6243  2.1096 -0.0116
  660SOL     vw 2640   6.010   1.830   1.554 -0.1173  0.3744 -0.3955
  661SOL     ow 2641   5.234   3.986   4.330 -0.4191 -0.7399  0.2531
  661SOL     hw 2642   5.195   3.953   4.249  0.5128  0.5130 -0.7311
  661SOL     hw 2643   5.199   3.927   4.398 -0.0053 -2.7949 -1.1997
  661SOL     vw 2644   5.224   3.974   4.329 -0.2418 -0.8457 -0.0682
  662SOL     ow 2645   0.937   6.052   5.352 -0.6229  0.1011  0.1537
  662SOL     hw 2646   1.012   6.021   5.300 -0.9102  0.1799 -0.3132
  662SOL     hw 2647   0.890   5.972   5.375 -0.4675  0.0615  0.3347
  662SOL     vw 2648   0.941   6.037   5.348 -0.6403  0.1061  0.1159
  663SOL     ow 2649   2.382   5.096   4.112  0.1475  0.7248 -0.3402
  663SOL     hw 2650   2.422   5.159   4.052 -0.6771  1.9237  0.3299
  663SOL     hw 2651   2.417   5.120   4.198 -0.8489  0.8378  0.0471
  663SOL     vw 2652   2.392   5.108   4.116 -0.0927  0.8976 -0.2007
  664SOL     ow 2653   3.992   4.421   1.437  0.1055 -0.0246 -0.6291
  664SOL     hw 2654   4.014   4.482   1.366  0.3609  1.1554  0.4146
  664SOL     hw 2655   3.993   4.476   1.516 -4.1130 -0.3663 -0.1380
  664SOL     vw 2656   3.995   4.436   1.438 -0.4174  0.0861 -0.4266
  665SOL     ow 2657   2.980   1.299   5.823 -0.1444 -0.7195  0.6375
  665SOL     hw 2658   3.072   1.276   5.834  1.0085  2.5198 -1.0689
  665SOL     hw 2659   2.948   1.240   5.754  1.0174 -1.0291  0.3477
  665SOL     vw 2660   2.988   1.288   5.815  0.1611 -0.3329  0.3741
  666SOL     ow 2661   5.999   6.048   0.968  0.7256  0.0217  0.8129
  666SOL     hw 2662   5.909   6.044   1.003  0.4710  0.8574  0.2725
  666SOL     hw 2663   5.995   5.997   0.887  0.2643  1.5532 -0.1716
  666SOL     vw 2664   5.986   6.041   0.962  0.6311  0.3338  0.6117
  667SOL     ow 2665   4.857   0.075   1.142 -1.0356 -0.0348  0.0451
  667SOL     hw 2666   4.794   0.141   1.116 -0.0668  0.7601 -0.3433
  667SOL     hw 2667   4.942   0.112   1.118 -0.4086 -1.0132  0.6874
  667SOL     vw 2668   4.860   0.088   1.135 -0.8249 -0.0590  0.0786
  668SOL     ow 2669   0.375   5.453   1.570  0.3917  0.2283  1.2017
  668SOL     hw 2670   0.295   5.496   1.541  0.4980  0.9370  1.9190
  668SOL     hw 2671   0.350   5.362   1.583  0.0097  0.1887  0.2612
  668SOL     vw 2672   0.361   5.447   1.568  0.3553  0.3164  1.1722
  669SOL     ow 2673   3.130   0.481   5.908 -0.0077  0.5929 -0.0365
  669SOL     hw 2674   3.193   0.522   5.967 -1.5768  2.1345  0.6740
  669SOL     hw 2675   3.166   0.495   5.820  0.0988  2.4910  0.2679
  669SOL     vw 2676   3.143   0.489   5.904 -0.2007  1.0467  0.0978
  670SOL     ow 2677   4.171   2.697   5.803 -0.6169 -0.4392  0.1598
  670SOL     hw 2678   4.125   2.780   5.818 -0.4595 -0.5195  1.1636
  670SOL     hw 2679   4.209   2.675   5.888  2.9260  0.5956 -0.9694
  670SOL     vw 2680   4.170   2.705   5.817 -0.1287 -0.3134  0.1431
  671SOL     ow 2681   2.417   5.806   1.459  0.0585 -0.9884  0.9327
  671SOL     hw 2682   2.415   5.711   1.444 -2.0856 -0.8503  0.0719
  671SOL     hw 2683   2.337   5.825   1.507 -1.5346  0.8248 -2.1512
  671SOL     vw 2684   2.406   5.796   1.463 -0.4346 -0.7305  0.4123
  672SOL     ow 2685   6.387   0.624   2.023  0.3165  0.2760  0.4721
  672SOL     hw 2686   6.408   0.551   1.964 -2.2557 -0.6136  0.5378
  672SOL     hw 2687   6.454   0.690   2.004  1.2159 -1.0853 -1.4206
  672SOL     vw 2688   6.399   0.623   2.013  0.0956 -0.0210  0.2309
  673SOL     ow 2689   6.532   5.470   5.879 -0.0158  0.0540  0.8493
  673SOL     hw 2690   6.478   5.523   5.937  0.4302  0.8779  0.5294
  673SOL     hw 2691   6.567   5.533   5.815  0.0912 -0.7103  0.1366
  673SOL     vw 2692   6.529   5.486   5.878  0.0575  0.0620  0.7131
  674SOL     ow 2693   4.423   0.892   0.719 -0.4171 -0.2513  0.1284
  674SOL     hw 2694   4.409   0.880   0.813 -0.1349 -0.9989  0.0761
  674SOL     hw 2695   4.351   0.844   0.678 -2.0574  2.1215 -0.0339
  674SOL     vw 2696   4.411   0.884   0.726 -0.5965 -0.0369  0.1001
  675SOL     ow 2697   0.909   6.456   4.352 -0.4945  0.5441 -0.1413
  675SOL     hw 2698   0.882   6.539   4.313  1.2239  1.3225  0.2362
  675SOL     hw 2699   0.891   6.390   4.285  1.6270  1.7362 -1.9943
  675SOL     vw 2700   0.903   6.458   4.338  0.0121  0.8039 -0.3357
  676SOL     ow 2701   0.734   5.437   7.120  0.1899 -0.3682  0.8446
  676SOL     hw 2702   0.657   5.380   7.123 -0.5740  0.6639  1.3957
  676SOL     hw 2703   0.787   5.401   7.048 -0.0055 -2.0670  1.4929
  676SOL     vw 2704   0.731   5.425   7.111  0.0633 -0.4561  1.0028
  677SOL     ow 2705   6.834   1.418   2.552 -0.1785  0.1481 -0.1798
  677SOL     hw 2706   6.871   1.412   2.640  0.1558 -1.0145 -0.3852
  677SOL     hw 2707   6.876   1.347   2.503 -0.5670  0.6026 -1.2033
  677SOL     vw 2708   6.844   1.408   2.557 -0.1857  0.0547 -0.3420
  678SOL     ow 2709   1.254   2.112   5.372 -0.1562  0.1951 -0.1204
  678SOL     hw 2710   1.279   2.203   5.356 -0.3177  0.5131  1.3516
  678SOL     hw 2711   1.336   2.069   5.398  0.6392 -0.9018 -3.8143
  678SOL     vw 2712   1.268   2.119   5.373 -0.0725  0.0925 -0.4134
  679SOL     ow 2713   5.208   5.121   3.455 -0.0068  0.3396  0.4085
  679SOL     hw 2714   5.181   5.158   3.540 -0.2212 -0.2013  0.5773
  679SOL     hw 2715   5.162   5.038   3.449  1.3007 -0.4199  0.5199
  679SOL     vw 2716   5.198   5.115   3.466  0.1376  0.1681  0.4455
  680SOL     ow 2717   1.583   1.754   5.349  0.0388  0.4303  0.4708
  680SOL     hw 2718   1.563   1.772   5.441  0.5420 -3.0244  1.3710
  680SOL     hw 2719   1.642   1.679   5.351 -0.2514 -0.0400 -2.7212
  680SOL     vw 2720   1.589   1.747   5.361  0.0669 -0.0875  0.1686
  681SOL     ow 2721   2.148   2.212   4.975 -0.6412  0.2640 -0.1423
  681SOL     hw 2722   2.170   2.200   5.067  1.2384 -1.9097 -0.7739
  681SOL     hw 2723   2.068   2.162   4.962 -0.6441  0.1802  0.2061
  681SOL     vw 2724   2.141   2.204   4.985 -0.3936 -0.0339 -0.1798
  682SOL     ow 2725   0.260   2.259   3.363  0.3216 -0.0786 -0.4589
  682SOL     hw 2726   0.260   2.234   3.270  0.8991 -1.0398 -0.2169
  682SOL     hw 2727   0.239   2.352   3.363 -0.0984 -0.1623 -1.5323
  682SOL     vw 2728   0.257   2.268   3.350  0.3424 -0.2166 -0.5686
  683SOL     ow 2729   0.188   0.924   2.414 -0.0786 -0.3452  0.2867
  683SOL     hw 2730   0.245   0.963   2.347  3.3015 -0.1145  2.9965
  683SOL     hw 2731   0.135   0.997   2.446 -1.0124 -0.2577 -1.3520
  683SOL     vw 2732   0.189   0.939   2.410  0.2442 -0.3032  0.4280
  684SOL     ow 2733   2.882   4.751   5.732  0.2064  0.0621  0.3728
  684SOL     hw 2734   2.798   4.783   5.699  0.1298 -1.2030 -0.7508
  684SOL     hw 2735   2.862   4.717   5.820 -0.7284 -1.2087 -0.2893
  684SOL     vw 2736   2.869   4.751   5.740  0.0730 -0.2725  0.1371
  685SOL     ow 2737   0.702   0.613   6.217  0.5380  0.9143 -0.4883
  685SOL     hw 2738   0.642   0.542   6.240 -1.1070  1.5819 -2.3638
  685SOL     hw 2739   0.648   0.674   6.167  2.0264  3.2425  0.5787
  685SOL     vw 2740   0.687   0.612   6.213  0.5174  1.3095 -0.5951
  686SOL     ow 2741   3.928   2.005   4.796 -0.3043 -0.7768  0.1051
  686SOL     hw 2742   4.022   1.987   4.793 -0.0407  0.5774 -0.3964
  686SOL     hw 2743   3.890   1.928   4.838  1.0782 -1.1459  0.7210
  686SOL     vw 2744   3.935   1.992   4.801 -0.0871 -0.6469  0.1204
  687SOL     ow 2745   3.749   3.827   5.110 -0.3931  0.3417  0.1569
  687SOL     hw 2746   3.755   3.918   5.138 -0.4578  0.7609 -1.0925
  687SOL     hw 2747   3.668   3.823   5.060 -0.5235 -0.4686  0.4355
  687SOL     vw 2748   3.739   3.839   5.107 -0.4189  0.2900  0.0288
  688SOL     ow 2749   3.074   6.027   0.162  0.4715  0.0368 -0.3110
  688SOL     hw 2750   3.018   6.020   0.239  0.4947 -1.3831 -0.3990
  688SOL     hw 2751   3.134   5.952   0.170  1.4396  0.7235 -0.9450
  688SOL     vw 2752   3.075   6.016   0.174  0.6022 -0.0601 -0.4062
  689SOL     ow 2753   5.134   2.947   6.575  0.2503  1.2956 -0.4409
  689SOL     hw 2754   5.060   2.941   6.515 -0.3492  5.2182 -0.3662
  689SOL     hw 2755   5.097   2.988   6.654  1.7052 -0.6706  1.3774
  689SOL     vw 2756   5.119   2.952   6.578  0.3629  1.5537 -0.1912
  690SOL     ow 2757   2.092   6.061   2.713  0.0475 -0.4031  0.3598
  690SOL     hw 2758   2.031   6.132   2.733  0.5014 -0.1956  1.0534
  690SOL     hw 2759   2.110   6.070   2.620  2.2079  2.1113  0.9126
  690SOL     vw 2760   2.086   6.071   2.703  0.3924 -0.0439  0.5242
  691SOL     ow 2761   5.698   6.015   2.454 -0.0785  0.5665  0.2497
  691SOL     hw 2762   5.606   6.006   2.480  0.3307 -1.4921  1.2302
  691SOL     hw 2763   5.713   5.940   2.396  0.6118  1.7562 -1.1806
  691SOL     vw 2764   5.688   6.004   2.450  0.0668  0.4518  0.1904
  692SOL     ow 2765   0.484   1.133   0.432  0.3720  0.3058  0.0877
  692SOL     hw 2766   0.449   1.064   0.376  1.2760  0.8467 -1.1987
  692SOL     hw 2767   0.560   1.166   0.384  1.2730  0.7144  1.6988
  692SOL     vw 2768   0.490   1.128   0.419  0.6101  0.4311  0.1306
  693SOL     ow 2769   5.708   2.130   3.808 -0.0300  0.4803  0.3563
  693SOL     hw 2770   5.784   2.071   3.809 -1.2630 -1.2240 -0.4862
  693SOL     hw 2771   5.701   2.158   3.717  1.1026  2.8166  0.9064
  693SOL     vw 2772   5.717   2.126   3.796 -0.0436  0.5637  0.3177
  694SOL     ow 2773   6.877   6.712   4.238  0.2157 -0.2787  0.7887
  694SOL     hw 2774   6.928   6.791   4.256  1.6905 -1.1948  0.8474
  694SOL     hw 2775   6.904   6.651   4.307 -0.7209 -0.9122  0.6099
  694SOL     vw 2776   6.888   6.714   4.250  0.2863 -0.4833  0.7727
  695SOL     ow 2777   4.795   6.836   3.460 -0.5436 -0.6843 -0.3774
  695SOL     hw 2778   4.866   6.774   3.443  0.3607 -0.3240  1.6753
  695SOL     hw 2779   4.759   6.856   3.374  3.9683  1.6267 -2.0695
  695SOL     vw 2780   4.800   6.830   3.447  0.1707 -0.3319 -0.3297
  696SOL     ow 2781   0.602   3.710   2.319  0.7860  0.4591  0.4317
  696SOL     hw 2782   0.601   3.621   2.353  2.1693 -0.2914 -1.3340
  696SOL     hw 2783   0.512   3.728   2.294  0.9715 -1.7995 -2.3214
  696SOL     vw 2784   0.590   3.701   2.320  0.9930  0.0621 -0.1645
  697SOL     ow 2785   4.523   4.097   1.392  0.3301  0.1139  0.6338
  697SOL     hw 2786   4.492   4.068   1.478 -1.7216  0.4128  0.0474
  697SOL     hw 2787   4.512   4.192   1.393 -2.2028 -0.0908 -0.8020
  697SOL     vw 2788   4.517   4.105   1.404 -0.2749  0.1266  0.3669
  698SOL     ow 2789   5.030   0.163   3.987  0.6056  0.3304 -0.8175
  698SOL     hw 2790   5.094   0.128   3.925 -0.1539 -1.2639 -0.7611
  698SOL     hw 2791   5.051   0.120   4.070 -0.5811 -0.3045 -0.8286
  698SOL     vw 2792   5.041   0.153   3.990  0.3488  0.0363 -0.8115
  699SOL     ow 2793   5.719   2.281   5.430 -0.0888  0.0414 -0.1020
  699SOL     hw 2794   5.640   2.230   5.450  1.2274 -2.0418 -0.0117
  699SOL     hw 2795   5.776   2.269   5.505  0.9138  0.3170 -0.8010
  699SOL     vw 2796   5.716   2.273   5.442  0.2174 -0.1972 -0.1824
  700SOL     ow 2797   4.585   7.069   1.847  0.6779 -0.4334 -0.0782
  700SOL     hw 2798   4.531   6.991   1.859  2.9546 -1.9345  1.0984
  700SOL     hw 2799   4.674   7.040   1.866  1.8734  2.0515 -1.3726
  700SOL     vw 2800   4.590   7.055   1.851  1.1361 -0.3037 -0.0937
  701SOL     ow 2801   2.413   6.145   5.272  0.2341 -0.3952  0.2328
  701SOL     hw 2802   2.429   6.239   5.271  0.4215 -0.3921 -1.6394
  701SOL     hw 2803   2.328   6.134   5.315 -1.1720  0.9420 -2.0014
  701SOL     vw 2804   2.404   6.156   5.277  0.0732 -0.2186 -0.3092
  702SOL     ow 2805   3.435   3.819   7.165  0.2197  0.2065 -1.1313
  702SOL     hw 2806   3.457   3.905   7.129 -0.0945  0.2138 -1.3043
  702SOL     hw 2807   3.495   3.808   7.240 -2.0701  2.1110  1.1665
  702SOL     vw 2808   3.446   3.829   7.170 -0.1239  0.4588 -0.8512
  703SOL     ow 2809   0.300   0.409   2.691  0.2874  0.1934  0.3734
  703SOL     hw 2810   0.381   0.369   2.661  0.1516 -1.7268  2.3233
  703SOL     hw 2811   0.327   0.475   2.755  0.3710  1.3506 -0.8046
  703SOL     vw 2812   0.314   0.413   2.695  0.2805  0.0927  0.4754
  704SOL     ow 2813   0.078   4.093   2.719  0.7421  0.4821 -0.7149
  704SOL     hw 2814   0.017   4.079   2.792  0.0205  0.8317 -1.2422
  704SOL     hw 2815   0.136   4.017   2.722  1.0181  0.7113  0.5006
  704SOL     vw 2816   0.078   4.081   2.729  0.6833  0.5589 -0.6241
  705SOL     ow 2817   3.343   4.472   5.901  0.7468 -0.3172  0.6435
  705SOL     hw 2818   3.331   4.448   5.993 -2.1496 -1.4425  0.0755
  705SOL     hw 2819   3.410   4.411   5.869  0.2163 -1.4013  1.5117
  705SOL     vw 2820   3.350   4.461   5.909  0.2946 -0.6089  0.6831
  706SOL     ow 2821   3.925   5.255   1.726  0.3072  0.5442 -0.0398
  706SOL     hw 2822   3.830   5.240   1.729  0.2612  0.9333  0.8352
  706SOL     hw 2823   3.950   5.265   1.818  1.1240  0.9103 -0.2946
  706SOL     vw 2824   3.916   5.254   1.738  0.4088  0.6440  0.0421
  707SOL     ow 2825   4.552   3.463   4.109  0.2954 -0.5931  0.2414
  707SOL     hw 2826   4.560   3.423   4.023 -0.4706  3.3343 -1.9208
  707SOL     hw 2827   4.458   3.458   4.128  0.2554 -0.2468  0.1461
  707SOL     vw 2828   4.540   3.457   4.100  0.1891 -0.0292 -0.0563
  708SOL     ow 2829   6.302   1.197   5.109 -1.1973  0.1432 -0.1440
  708SOL     hw 2830   6.342   1.118   5.146  2.7647  1.9305 -0.1057
  708SOL     hw 2831   6.234   1.221   5.172  0.3983 -0.9397  2.1549
  708SOL     vw 2832   6.299   1.190   5.123 -0.4640  0.2362  0.1643
  709SOL     ow 2833   3.779   2.896   6.606  0.1553  0.0872 -0.0987
  709SOL     hw 2834   3.707   2.928   6.552 -0.0102 -1.9750 -1.1921
  709SOL     hw 2835   3.823   2.831   6.551  1.4937 -0.3224  1.3777
  709SOL     vw 2836   3.776   2.892   6.592  0.3101 -0.2391 -0.0482
  710SOL     ow 2837   0.538   1.000   3.700  0.7932 -1.2125 -0.2856
  710SOL     hw 2838   0.503   0.911   3.702  1.6139 -1.5445  1.6590
  710SOL     hw 2839   0.511   1.039   3.783  0.7013  0.2713 -0.9756
  710SOL     vw 2840   0.530   0.993   3.711  0.8894 -1.0605 -0.1200
  711SOL     ow 2841   2.175   3.292   5.106  0.0692  0.6311  0.3076
  711SOL     hw 2842   2.220   3.224   5.157  0.6953  1.5945  1.0914
  711SOL     hw 2843   2.088   3.297   5.145 -1.1419 -1.8937 -1.8194
  711SOL     vw 2844   2.170   3.283   5.118 -0.0080  0.4251  0.1304
  712SOL     ow 2845   6.949   0.159   0.378  0.4474  0.3758 -0.0842
  712SOL     hw 2846   7.034   0.165   0.421 -0.6574  1.9613  2.0545
  712SOL     hw 2847   6.927   0.249   0.356 -0.3023 -0.1111 -1.4288
  712SOL     vw 2848   6.957   0.172   0.381  0.2024  0.5207  0.0206
  713SOL     ow 2849   2.767   5.075   4.571  0.5009  0.2441 -0.5111
  713SOL     hw 2850   2.763   5.005   4.506 -0.4661 -0.4267  0.2306
  713SOL     hw 2851   2.737   5.153   4.525 -0.3162 -0.2540 -0.8520
  713SOL     vw 2852   2.763   5.076   4.556  0.2656  0.0899 -0.4580
  714SOL     ow 2853   0.945   6.996   7.190  0.0648  0.4774 -0.1349
  714SOL     hw 2854   0.877   7.021   7.253 -0.8551 -0.7241 -0.6064
  714SOL     hw 2855   1.004   7.072   7.187 -0.3719  0.9151  1.4712
  714SOL     vw 2856   0.944   7.010   7.198 -0.1142  0.3769  0.0148
  715SOL     ow 2857   4.906   3.937   6.460 -0.1068 -0.0014  0.2922
  715SOL     hw 2858   4.977   3.949   6.524  1.1078  2.1300 -1.3060
  715SOL     hw 2859   4.948   3.896   6.385  0.3628  3.8962 -1.8499
  715SOL     vw 2860   4.921   3.933   6.459  0.1156  0.7941 -0.2012
  716SOL     ow 2861   6.635   5.473   3.490  0.5150  0.0581 -0.8442
  716SOL     hw 2862   6.685   5.495   3.569  2.8280  1.6077 -2.6058
  716SOL     hw 2863   6.581   5.551   3.473 -1.6382 -1.0762  0.2648
  716SOL     vw 2864   6.634   5.486   3.498  0.5360  0.1128 -0.9304
  717SOL     ow 2865   3.984   4.704   4.131  0.5138  0.2356  0.3535
  717SOL     hw 2866   3.954   4.640   4.196  2.0902 -0.5336  0.3695
  717SOL     hw 2867   3.911   4.711   4.070 -0.6053  0.2048  1.6345
  717SOL     vw 2868   3.970   4.696   4.131  0.5740  0.1299  0.5245
  718SOL     ow 2869   2.364   1.498   2.055 -0.0014  0.1696 -0.8913
  718SOL     hw 2870   2.458   1.485   2.044  0.5049 -0.2831  2.7733
  718SOL     hw 2871   2.330   1.412   2.079 -1.3313  0.4096 -1.7876
  718SOL     vw 2872   2.372   1.485   2.057 -0.1100  0.1415 -0.5261
  719SOL     ow 2873   0.625   0.358   4.711 -0.4529 -0.2018  0.1199
  719SOL     hw 2874   0.662   0.293   4.651 -0.0732  1.6784 -1.8087
  719SOL     hw 2875   0.676   0.348   4.792 -0.2763 -2.1275 -0.1834
  719SOL     vw 2876   0.637   0.348   4.714 -0.3796 -0.2078 -0.1745
  720SOL     ow 2877   0.410   6.767   6.580  0.1361 -0.0548 -0.1929
  720SOL     hw 2878   0.485   6.787   6.524 -0.9926 -1.2904 -2.2369
  720SOL     hw 2879   0.433   6.685   6.624  1.3277  1.2780  1.8570
  720SOL     vw 2880   0.423   6.759   6.579  0.1444 -0.0422 -0.1917
  721SOL     ow 2881   4.061   1.797   1.242 -0.0969  0.1013 -0.2728
  721SOL     hw 2882   4.148   1.758   1.241 -0.4126 -0.7065 -2.2729
  721SOL     hw 2883   4.037   1.805   1.149 -2.8604 -1.3713  0.1912
  721SOL     vw 2884   4.069   1.793   1.229 -0.5031 -0.1996 -0.4754
  722SOL     ow 2885   5.499   5.256   0.541  0.3076 -0.8898  0.0354
  722SOL     hw 2886   5.561   5.299   0.483 -0.9100 -0.1341 -0.7533
  722SOL     hw 2887   5.492   5.313   0.617 -0.5207 -0.1859 -0.5461
  722SOL     vw 2888   5.506   5.269   0.543  0.0377 -0.6969 -0.1453
  723SOL     ow 2889   0.146   1.831   3.405 -0.2220  0.2926 -0.6017
  723SOL     hw 2890   0.186   1.745   3.391  0.3046  0.7681 -2.2086
  723SOL     hw 2891   0.071   1.813   3.462  0.8321 -0.9699  0.4380
  723SOL     vw 2892   0.141   1.817   3.410 -0.0134  0.1887 -0.6765
  724SOL     ow 2893   6.467   7.098   2.958 -0.1266  0.4663 -0.1149
  724SOL     hw 2894   6.452   7.079   3.051  0.6335 -0.3290 -0.1522
  724SOL     hw 2895   6.416   7.178   2.942 -0.9071  0.1634  0.7862
  724SOL     vw 2896   6.458   7.106   2.968 -0.1292  0.3214 -0.0010
  725SOL     ow 2897   2.690   1.020   0.913 -0.1181 -0.0398  0.0274
  725SOL     hw 2898   2.656   1.035   1.001  0.2094  0.7516  0.0260
  725SOL     hw 2899   2.612   1.010   0.858 -0.3230 -0.4649  0.3881
  725SOL     vw 2900   2.675   1.021   0.917 -0.1019  0.0085  0.0748
  726SOL     ow 2901   4.216   2.864   6.147 -0.3242  0.4506 -0.6145
  726SOL     hw 2902   4.215   2.778   6.105 -2.8980  0.2775 -0.3623
  726SOL     hw 2903   4.288   2.911   6.104  0.6180 -1.5293 -1.3105
  726SOL     vw 2904   4.225   2.859   6.135 -0.5395  0.1667 -0.6731
  727SOL     ow 2905   0.491   5.871   0.334  0.0329  0.0474  0.7062
  727SOL     hw 2906   0.446   5.800   0.380 -1.6457  0.8214  0.3241
  727SOL     hw 2907   0.569   5.830   0.298 -1.1662 -1.7588  0.0133
  727SOL     vw 2908   0.495   5.856   0.336 -0.3468 -0.0889  0.5644
  728SOL     ow 2909   1.815   0.072   0.133 -0.2713  0.0079  1.2194
  728SOL     hw 2910   1.861   0.097   0.052  0.7175 -2.3422  0.9657
  728SOL     hw 2911   1.785  -0.017   0.116  0.0147 -0.5654  3.4622
  728SOL     vw 2912   1.817   0.064   0.120 -0.1031 -0.3779  1.4818
  729SOL     ow 2913   6.193   3.264   0.266 -0.0013 -0.1177  0.4448
  729SOL     hw 2914   6.195   3.269   0.361  1.3179  0.9068  0.3913
  729SOL     hw 2915   6.285   3.253   0.240 -0.2662  0.2090 -0.7269
  729SOL     vw 2916   6.205   3.263   0.275  0.1378  0.0604  0.2831
  730SOL     ow 2917   2.539   3.705   1.015  0.4477 -0.1086  0.7182
  730SOL     hw 2918   2.513   3.790   1.051 -3.3361 -0.9923  0.5495
  730SOL     hw 2919   2.459   3.653   1.018  1.8197 -2.6750 -2.0805
  730SOL     vw 2920   2.525   3.710   1.020  0.1296 -0.5639  0.3266
  731SOL     ow 2921   4.711   5.818   0.580 -0.2135  0.2735 -0.4597
  731SOL     hw 2922   4.730   5.726   0.560 -0.1199 -0.1912  1.5270
  731SOL     hw 2923   4.624   5.815   0.621 -0.4629  1.1611 -0.9055
  731SOL     vw 2924   4.702   5.805   0.583 -0.2341  0.3293 -0.2564
  732SOL     ow 2925   0.514   5.921   7.152  0.6600 -0.4250 -0.5030
  732SOL     hw 2926   0.483   6.006   7.120  2.5917  0.3955 -0.3423
  732SOL     hw 2927   0.482   5.858   7.087  1.2685  0.7377 -2.0026
  732SOL     vw 2928   0.506   5.924   7.139  0.9952 -0.1633 -0.6797
  733SOL     ow 2929   5.313   2.539   1.938 -0.4500 -0.2302 -0.4506
  733SOL     hw 2930   5.391   2.531   1.883  0.4798  0.0404  0.7937
  733SOL     hw 2931   5.338   2.600   2.007 -0.9591 -1.9246  1.3304
  733SOL     vw 2932   5.326   2.546   1.939 -0.3943 -0.4181 -0.0514
  734SOL     ow 2933   1.696   6.724   5.977 -0.1426 -0.0513  0.3654
  734SOL     hw 2934   1.667   6.646   5.930  1.2227  0.0221 -0.6286
  734SOL     hw 2935   1.791   6.724   5.969 -0.0372  1.1445  1.2761
  734SOL     vw 2936   1.705   6.714   5.970  0.0514  0.1159  0.3545
  735SOL     ow 2937   2.025   2.739   6.919  0.1151 -0.1941 -0.4730
  735SOL     hw 2938   2.093   2.694   6.970 -1.3795 -0.6904  1.1888
  735SOL     hw 2939   2.045   2.717   6.828  0.9932 -2.0090  0.1037
  735SOL     vw 2940   2.037   2.730   6.914  0.0339 -0.4990 -0.1776
  736SOL     ow 2941   2.690   0.218   6.309  0.4586 -0.7426  0.4104
  736SOL     hw 2942   2.662   0.163   6.382 -0.5824 -2.3740 -1.1176
  736SOL     hw 2943   2.629   0.195   6.238  1.2218  1.0099 -0.8672
  736SOL     vw 2944   2.678   0.207   6.309  0.4219 -0.7266  0.0405
  737SOL     ow 2945   3.342   2.802   1.377 -0.1938 -0.1246 -1.0574
  737SOL     hw 2946   3.379   2.715   1.394 -3.3279 -1.4322 -0.1463
  737SOL     hw 2947   3.361   2.851   1.456 -1.2117 -1.1322 -0.1353
  737SOL     vw 2948   3.349   2.797   1.390 -0.7416 -0.4300 -0.8156
  738SOL     ow 2949   1.395   1.119   1.730 -0.2568  0.0101  0.0154
  738SOL     hw 2950   1.481   1.085   1.752 -0.5531 -0.0993  1.0319
  738SOL     hw 2951   1.333   1.056   1.767 -0.8009  1.3040  1.4298
  738SOL     vw 2952   1.398   1.106   1.737 -0.3677  0.1664  0.3361
  739SOL     ow 2953   1.587   5.591   6.259 -0.5713  0.4740  0.5878
  739SOL     hw 2954   1.610   5.628   6.344 -0.0705  0.1770  0.5847
  739SOL     hw 2955   1.499   5.624   6.242 -0.3294  1.2657  0.8142
  739SOL     vw 2956   1.579   5.601   6.268 -0.4734  0.5391  0.6175
  740SOL     ow 2957   3.935   5.846   5.651  0.3157 -0.2112 -0.0783
  740SOL     hw 2958   3.889   5.828   5.733  0.7016 -1.1380 -0.0546
  740SOL     hw 2959   3.865   5.863   5.588  0.0298  0.9962  0.5414
  740SOL     vw 2960   3.919   5.846   5.653  0.3289 -0.1740  0.0064
  741SOL     ow 2961   1.396   4.157   1.920  0.6946  0.4396 -0.2610
  741SOL     hw 2962   1.314   4.126   1.882 -0.5101  3.0739 -0.0977
  741SOL     hw 2963   1.368   4.215   1.991  2.6588  1.8259 -0.5469
  741SOL     vw 2964   1.381   4.161   1.924  0.7949  0.9701 -0.2772
  742SOL     ow 2965   3.849   4.172   1.582  0.3645 -0.0010  0.5492
  742SOL     hw 2966   3.886   4.187   1.669 -0.1172  1.3787  0.5488
  742SOL     hw 2967   3.754   4.171   1.596  0.2925  0.0311  0.0803
  742SOL     vw 2968   3.841   4.174   1.596  0.2916  0.1853  0.4873
  743SOL     ow 2969   1.639   5.611   0.722 -0.5768 -0.0704  0.4089
  743SOL     hw 2970   1.714   5.584   0.670 -2.2842 -0.9610 -1.7549
  743SOL     hw 2971   1.590   5.671   0.665 -0.0757  2.9015  2.8516
  743SOL     vw 2972   1.642   5.616   0.708 -0.7360  0.2043  0.4457
  744SOL     ow 2973   1.566   4.662   2.273  0.1162 -0.7484  0.1585
  744SOL     hw 2974   1.506   4.588   2.281  0.6241 -1.1846 -0.0204
  744SOL     hw 2975   1.612   4.665   2.356 -2.3575  1.5828  1.6324
  744SOL     vw 2976   1.564   4.653   2.285 -0.1432 -0.4985  0.3294
  745SOL     ow 2977   3.014   6.494   4.741  0.4785 -0.1888 -0.4756
  745SOL     hw 2978   3.103   6.506   4.774  0.0473 -2.5063  1.7427
  745SOL     hw 2979   3.022   6.426   4.674  0.5304  0.5951 -1.2914
  745SOL     vw 2980   3.026   6.487   4.736  0.4286 -0.3912 -0.2904
  746SOL     ow 2981   0.433   1.072   3.482 -0.1942  0.6178  0.0293
  746SOL     hw 2982   0.392   1.155   3.508  0.6649  0.7187  1.1370
  746SOL     hw 2983   0.459   1.031   3.565 -2.4941 -1.7951 -0.2945
  746SOL     vw 2984   0.431   1.078   3.497 -0.3843  0.3128  0.1326
  747SOL     ow 2985   2.722   1.203   6.594 -0.6597 -0.4917 -0.0719
  747SOL     hw 2986   2.795   1.160   6.550 -1.1632 -1.2499 -0.1726
  747SOL     hw 2987   2.658   1.220   6.525 -0.4481  0.4883 -0.0474
  747SOL     vw 2988   2.723   1.199   6.579 -0.6983 -0.4624 -0.0818
  748SOL     ow 2989   6.245   1.559   6.985 -0.1851 -0.2971  0.0099
  748SOL     hw 2990   6.179   1.550   7.054 -0.3344  2.2298  0.3045
  748SOL     hw 2991   6.194   1.559   6.904 -0.9542  3.4445  0.3050
  748SOL     vw 2992   6.229   1.558   6.983 -0.3066  0.5299  0.0877
  749SOL     ow 2993   4.338   0.017   1.790  0.5782  0.3095  0.2369
  749SOL     hw 2994   4.351   0.106   1.757  0.8836  0.7487  1.4870
  749SOL     hw 2995   4.277  -0.022   1.728  0.7159  1.2675 -0.5363
  749SOL     vw 2996   4.332   0.024   1.777  0.6368  0.4938  0.2999
  750SOL     ow 2997   1.887   2.973   7.091  0.0052 -0.1151  0.1292
  750SOL     hw 2998   1.923   2.908   7.031  0.5035 -1.2061  1.5414
  750SOL     hw 2999   1.954   2.982   7.159  0.0520  2.0818 -0.1411
  750SOL     vw 3000   1.901   2.966   7.092  0.0771  0.0309  0.2797
  751SOL     ow 3001   1.199   4.865   4.463  0.6687  0.2962  0.1913
  751SOL     hw 3002   1.280   4.915   4.472  0.1412  1.1351  0.3609
  751SOL     hw 3003   1.143   4.897   4.533 -0.0663  0.2241 -0.3481
  751SOL     vw 3004   1.202   4.876   4.473  0.5021  0.3972  0.1426
  752SOL     ow 3005   4.844   2.701   1.637  0.3226  0.4613 -0.7860
  752SOL     hw 3006   4.788   2.626   1.616 -1.2074  1.1867  0.4299
  752SOL     hw 3007   4.931   2.663   1.649 -0.6948 -1.4449  1.4172
  752SOL     vw 3008   4.848   2.686   1.636 -0.0131  0.3054 -0.3349
  753SOL     ow 3009   4.904   0.246   2.022 -0.0698  0.3912 -0.6774
  753SOL     hw 3010   4.992   0.278   2.044 -0.8238  0.9755  1.8422
  753SOL     hw 3011   4.884   0.181   2.089 -0.7658 -1.3802 -2.4914
  753SOL     vw 3012   4.913   0.242   2.034 -0.2613  0.2346 -0.5844
  754SOL     ow 3013   0.933   1.903   2.405 -0.9916 -0.6943  0.0438
  754SOL     hw 3014   0.906   1.813   2.423 -1.0974 -1.0499 -1.6430
  754SOL     hw 3015   0.918   1.914   2.311  1.7935  0.1153 -0.4047
  754SOL     vw 3016   0.927   1.893   2.395 -0.6381 -0.6344 -0.2381
  755SOL     ow 3017   0.134   2.535   0.856 -0.7080  0.1094  0.6490
  755SOL     hw 3018   0.184   2.611   0.827  0.7259 -0.6672  0.9499
  755SOL     hw 3019   0.187   2.498   0.927  1.7956 -4.3789 -2.9786
  755SOL     vw 3020   0.148   2.540   0.862 -0.1885 -0.5851  0.2100
  756SOL     ow 3021   5.602   3.577   0.267  0.4870 -0.0876 -0.3731
  756SOL     hw 3022   5.678   3.594   0.322  0.8039 -1.1465 -0.4453
  756SOL     hw 3023   5.635   3.516   0.200  0.1835  1.3648 -1.9074
  756SOL     vw 3024   5.616   3.571   0.266  0.4885 -0.0356 -0.5851
  757SOL     ow 3025   3.094   2.475   6.045  0.6139 -0.9217  0.0088
  757SOL     hw 3026   3.034   2.515   6.107  1.5089  1.5361 -0.5687
  757SOL     hw 3027   3.065   2.384   6.038 -3.4104  0.2177 -0.7141
  757SOL     vw 3028   3.082   2.469   6.052  0.2010 -0.4472 -0.1626
  758SOL     ow 3029   0.278   4.280   2.618 -0.5925 -0.1564  0.0706
  758SOL     hw 3030   0.310   4.215   2.554 -0.7879  2.1285 -2.5125
  758SOL     hw 3031   0.335   4.355   2.606 -1.8998  1.0622  1.2088
  758SOL     vw 3032   0.289   4.281   2.608 -0.7908  0.3059 -0.1199
  759SOL     ow 3033   1.807   4.025   3.825  0.1097  0.3669 -0.6750
  759SOL     hw 3034   1.711   4.016   3.831  0.2823 -0.9575  0.6915
  759SOL     hw 3035   1.831   3.969   3.751 -0.2650  1.5895 -1.7389
  759SOL     vw 3036   1.797   4.016   3.816  0.0831  0.3536 -0.6350
  760SOL     ow 3037   4.836   3.440   4.173 -0.3549 -0.4939 -0.6866
  760SOL     hw 3038   4.922   3.411   4.203  0.1848 -0.4067 -2.0969
  760SOL     hw 3039   4.834   3.419   4.080 -0.6708  2.1926 -1.3825
  760SOL     vw 3040   4.847   3.433   4.165 -0.3257 -0.1279 -0.9646
  761SOL     ow 3041   3.918   0.856   4.157 -0.7006 -0.0329  0.4385
  761SOL     hw 3042   3.963   0.889   4.235 -0.3807 -2.2486  1.2646
  761SOL     hw 3043   3.981   0.870   4.086  0.3129 -0.8449  1.1417
  761SOL     vw 3044   3.932   0.863   4.158 -0.5246 -0.4323  0.6399
  762SOL     ow 3045   1.447   0.504   3.767 -0.2387 -0.0280  0.4598
  762SOL     hw 3046   1.370   0.505   3.824 -0.2741 -1.5052  0.4913
  762SOL     hw 3047   1.418   0.549   3.688 -0.6829  0.6636  1.0011
  762SOL     vw 3048   1.433   0.510   3.764 -0.3019 -0.1316  0.5354
  763SOL     ow 3049   3.877   1.183   1.911  0.1519  0.0514  0.1612
  763SOL     hw 3050   3.835   1.104   1.944  1.0636 -0.2945  0.5102
  763SOL     hw 3051   3.850   1.188   1.819 -1.3071  0.2924  0.5645
  763SOL     vw 3052   3.868   1.173   1.904  0.0796  0.0376  0.2605
  764SOL     ow 3053   3.994   3.624   5.137 -0.0037 -0.1945  0.1184
  764SOL     hw 3054   4.069   3.569   5.160  2.2100  1.8843 -1.6039
  764SOL     hw 3055   3.986   3.614   5.042 -0.3385  1.4245 -0.0459
  764SOL     vw 3056   4.003   3.615   5.127  0.2441  0.2935 -0.1304
  765SOL     ow 3057   3.926   6.295   4.602 -0.0569 -0.1772  0.0584
  765SOL     hw 3058   3.836   6.276   4.575 -0.9185  4.4274 -1.1881
  765SOL     hw 3059   3.918   6.328   4.691  0.2894  0.5506 -0.1682
  765SOL     vw 3060   3.913   6.297   4.610 -0.1249  0.5262 -0.1364
  766SOL     ow 3061   4.896   1.420   2.188  0.4723  0.1782  0.0156
  766SOL     hw 3062   4.883   1.458   2.275  0.3071  0.7072 -0.2422
  766SOL     hw 3063   4.978   1.370   2.197  0.3814  0.1082  0.5128
  766SOL     vw 3064   4.905   1.418   2.201  0.4382  0.2388  0.0472
  767SOL     ow 3065   0.288   4.947   0.861  0.4913 -0.4887  0.4191
  767SOL     hw 3066   0.336   5.028   0.877 -1.3530  0.8544 -0.4135
  767SOL     hw 3067   0.284   4.904   0.947  0.9086  0.6517  1.0305
  767SOL     vw 3068   0.294   4.952   0.875  0.3030 -0.1607  0.3900
  768SOL     ow 3069   4.235   2.609   6.027 -0.3696 -0.2566 -0.0692
  768SOL     hw 3070   4.306   2.566   6.074 -1.1477 -1.8283 -0.2775
  768SOL     hw 3071   4.155   2.574   6.066 -1.0315  0.0817 -1.0748
  768SOL     vw 3072   4.234   2.599   6.039 -0.5598 -0.4193 -0.2294
  769SOL     ow 3073   3.450   4.025   2.338 -0.6281 -0.5922 -0.4365
  769SOL     hw 3074   3.364   4.067   2.332 -0.3272 -0.0989 -1.7877
  769SOL     hw 3075   3.508   4.094   2.371 -0.6006 -0.6692 -0.3253
  769SOL     vw 3076   3.446   4.040   2.341 -0.5847 -0.5369 -0.6001
  770SOL     ow 3077   2.112   5.410   6.768  0.5883 -0.2657  0.2620
  770SOL     hw 3078   2.086   5.388   6.857 -0.6622 -2.9398 -0.6710
  770SOL     hw 3079   2.035   5.452   6.730  1.5411  2.0766  0.7300
  770SOL     vw 3080   2.099   5.413   6.775  0.5490 -0.3095  0.2005
  771SOL     ow 3081   5.866   5.885   3.212  0.5054 -0.0487 -0.4038
  771SOL     hw 3082   5.961   5.890   3.220  0.9742 -2.5603 -2.7535
  771SOL     hw 3083   5.850   5.880   3.117 -1.9399 -0.0427 -0.0748
  771SOL     vw 3084   5.876   5.885   3.200  0.2444 -0.3791 -0.6704
  772SOL     ow 3085   5.794   1.922   1.313  0.4662 -0.6127  0.0219
  772SOL     hw 3086   5.865   1.942   1.252 -0.3604  2.0738 -0.1967
  772SOL     hw 3087   5.715   1.953   1.268 -0.1186  2.0456  2.6064
  772SOL     vw 3088   5.793   1.928   1.299  0.2799  0.0925  0.3340
  773SOL     ow 3089   1.966   5.927   0.139 -0.2000  0.2738  0.3102
  773SOL     hw 3090   1.874   5.944   0.160 -0.2360  0.2332  0.1812
  773SOL     hw 3091   1.964   5.864   0.067 -0.0703 -0.0490  0.5837
  773SOL     vw 3092   1.954   5.921   0.133 -0.1876  0.2260  0.3293
  774SOL     ow 3093   5.162   1.843   2.967  0.7222  0.4560  0.1950
  774SOL     hw 3094   5.175   1.908   3.036  1.5291  2.5953 -1.8409
  774SOL     hw 3095   5.098   1.883   2.908 -1.2447 -2.0320  0.4796
  774SOL     vw 3096   5.155   1.857   2.968  0.5689  0.4100 -0.0360
  775SOL     ow 3097   5.009   7.249   7.088  0.0056 -0.0047 -0.9110
  775SOL     hw 3098   5.006   7.257   7.184  2.8182  0.3064 -0.7485
  775SOL     hw 3099   4.922   7.274   7.059 -1.3555 -1.3488  1.6159
  775SOL     vw 3100   4.997   7.253   7.097  0.1972 -0.1410 -0.5560
  776SOL     ow 3101   2.195   1.728   0.448  0.1409 -0.4949 -0.4955
  776SOL     hw 3102   2.254   1.660   0.481  0.3433 -0.9021 -1.6526
  776SOL     hw 3103   2.249   1.780   0.388 -0.7596 -1.1219 -1.8897
  776SOL     vw 3104   2.210   1.726   0.445  0.0488 -0.6313 -0.8321
  777SOL     ow 3105   4.955   2.408   4.161 -0.0849  0.3380  0.1157
  777SOL     hw 3106   5.009   2.476   4.121 -1.7463  1.7768  0.2273
  777SOL     hw 3107   5.018   2.348   4.201  1.4623  1.1208 -1.0424
  777SOL     vw 3108   4.970   2.409   4.161 -0.1001  0.6312 -0.0224
  778SOL     ow 3109   3.853   6.646   0.340 -1.0658 -0.7143 -0.1179
  778SOL     hw 3110   3.862   6.611   0.251  0.7918 -1.9106  0.4728
  778SOL     hw 3111   3.928   6.705   0.350 -2.0351  0.5091  0.2169
  778SOL     vw 3112   3.864   6.649   0.329 -0.9485 -0.7105  0.0042
  779SOL     ow 3113   6.621   4.119   0.328 -0.7648 -0.3454 -0.0925
  779SOL     hw 3114   6.646   4.091   0.240  1.1044  0.5274  0.1204
  779SOL     hw 3115   6.599   4.211   0.319  5.4782  1.7558  1.1510
  779SOL     vw 3116   6.621   4.127   0.315  0.3054  0.0467  0.0996
  780SOL     ow 3117   6.793   7.038   1.729 -0.2309 -0.0578  0.3066
  780SOL     hw 3118   6.759   7.114   1.682  1.1750  0.4346  0.0446
  780SOL     hw 3119   6.805   6.971   1.662  1.6819  0.6133 -0.0993
  780SOL     vw 3120   6.790   7.039   1.714  0.2072  0.0956  0.2185
  781SOL     ow 3121   4.720   3.884   6.779 -0.7069  0.5118  0.1623
  781SOL     hw 3122   4.770   3.964   6.761 -1.9482  1.4498  0.7305
  781SOL     hw 3123   4.765   3.844   6.853  0.4100  0.2208 -0.6423
  781SOL     vw 3124   4.733   3.889   6.786 -0.7231  0.5971  0.1314
  782SOL     ow 3125   0.735   3.660   4.496  0.0567  0.0821  0.1532
  782SOL     hw 3126   0.690   3.575   4.502  2.1542 -1.0364  1.0480
  782SOL     hw 3127   0.809   3.652   4.557  3.3943  0.5580 -3.4721
  782SOL     vw 3128   0.739   3.648   4.505  0.7738 -0.0026 -0.2069
  783SOL     ow 3129   3.961   2.248   4.911  0.6500  0.2840 -0.0410
  783SOL     hw 3130   4.025   2.279   4.847  0.5552  0.4999 -0.0319
  783SOL     hw 3131   3.947   2.156   4.888  0.7700  0.3054 -0.2034
  783SOL     vw 3132   3.967   2.240   4.899  0.6533  0.3153 -0.0613
  784SOL     ow 3133   4.588   0.716   7.015  0.2145 -0.1330  0.4729
  784SOL     hw 3134   4.671   0.711   7.063  0.5107 -0.3333 -0.0504
  784SOL     hw 3135   4.605   0.780   6.946  1.1681 -2.8498 -1.9783
  784SOL     vw 3136   4.601   0.724   7.012  0.3796 -0.5179  0.0806
  785SOL     ow 3137   3.398   6.670   2.930  0.7829  0.5672 -0.6530
  785SOL     hw 3138   3.311   6.651   2.965  1.5532 -0.2829  0.8936
  785SOL     hw 3139   3.424   6.751   2.973  1.9389 -0.7432  1.2757
  785SOL     vw 3140   3.390   6.678   2.940  1.0372  0.2823 -0.1944
  786SOL     ow 3141   2.588   2.197   3.663  0.2692 -0.0982  0.1196
  786SOL     hw 3142   2.657   2.131   3.656  0.5114  0.1092  0.5138
  786SOL     hw 3143   2.507   2.146   3.663  0.4507 -0.3949  0.3598
  786SOL     vw 3144   2.586   2.181   3.662  0.3252 -0.1099  0.2033
  787SOL     ow 3145   4.214   0.484   6.518  0.2759 -0.2875 -0.1359
  787SOL     hw 3146   4.302   0.446   6.516  0.0051 -0.8996 -0.8294
  787SOL     hw 3147   4.157   0.410   6.542  0.1847  0.5973  2.8173
  787SOL     vw 3148   4.218   0.469   6.521  0.2282 -0.2515  0.1624
  788SOL     ow 3149   2.225   3.181   6.161  0.2463  0.3855 -0.2789
  788SOL     hw 3150   2.317   3.195   6.184  0.2326  0.2151 -0.1197
  788SOL     hw 3151   2.176   3.212   6.237  0.1569  0.7194 -0.4647
  788SOL     vw 3152   2.230   3.187   6.174  0.2327  0.4071 -0.2825
  789SOL     ow 3153   1.516   4.863   2.081  0.3394 -0.0726 -0.8938
  789SOL     hw 3154   1.471   4.927   2.137  1.6089  2.1548 -2.3084
  789SOL     hw 3155   1.540   4.792   2.141 -0.1765  1.2533  0.9601
  789SOL     vw 3156   1.513   4.862   2.097  0.4389  0.3963 -0.8358
  790SOL     ow 3157   4.806   1.753   0.900 -0.5488  0.4424  0.8520
  790SOL     hw 3158   4.723   1.732   0.942  1.0753 -2.0373  3.1556
  790SOL     hw 3159   4.828   1.674   0.850  0.6429  0.8784  0.6534
  790SOL     vw 3160   4.798   1.740   0.899 -0.1774  0.1728  1.1297
  791SOL     ow 3161   6.943   1.414   2.799  0.6632 -0.5048  0.1473
  791SOL     hw 3162   6.880   1.397   2.869 -1.2402 -3.4253 -2.0279
  791SOL     hw 3163   7.009   1.345   2.809  0.6307 -0.6598 -0.6217
  791SOL     vw 3164   6.944   1.402   2.810  0.4075 -0.9105 -0.2413
  792SOL     ow 3165   5.034   4.544   6.973 -0.4767  0.5657 -0.5311
  792SOL     hw 3166   4.954   4.596   6.983 -0.4177  0.8850 -1.6290
  792SOL     hw 3167   5.025   4.500   6.888 -1.0611 -2.1945  0.8361
  792SOL     vw 3168   5.022   4.545   6.963 -0.5462  0.2439 -0.4957
  793SOL     ow 3169   6.964   0.581   6.583  0.2799 -0.0997  0.2713
  793SOL     hw 3170   7.038   0.526   6.609  0.3302 -0.1080  0.1140
  793SOL     hw 3171   6.910   0.524   6.528  1.4927  0.6263 -1.8239
  793SOL     vw 3172   6.967   0.566   6.579  0.4463 -0.0050 -0.0257
  794SOL     ow 3173   4.618   6.986   3.641 -0.3604 -0.5634 -0.2244
  794SOL     hw 3174   4.655   6.928   3.575  0.2024 -0.8619  0.3396
  794SOL     hw 3175   4.526   6.996   3.615  0.1031  0.2468 -1.6756
  794SOL     vw 3176   4.610   6.979   3.629 -0.2251 -0.4957 -0.3414
  795SOL     ow 3177   4.783   7.224   3.960 -0.3580  0.2450 -0.0318
  795SOL     hw 3178   4.691   7.208   3.940 -0.6817 -0.7986  2.0718
  795SOL     hw 3179   4.831   7.176   3.892 -1.3785 -0.9713  0.0699
  795SOL     vw 3180   4.778   7.216   3.948 -0.5355 -0.0534  0.2594
  796SOL     ow 3181   1.504   6.302   5.480  0.5825  0.5557 -0.1329
  796SOL     hw 3182   1.458   6.384   5.498 -2.9095 -0.7447 -2.0760
  796SOL     hw 3183   1.557   6.321   5.402  0.7399  1.2342  0.1325
  796SOL     vw 3184   1.505   6.316   5.472  0.1426  0.4740 -0.3545
  797SOL     ow 3185   6.837   1.470   5.704  0.6572  0.6800  0.4189
  797SOL     hw 3186   6.853   1.420   5.785 -0.9572 -0.2618  0.1989
  797SOL     hw 3187   6.916   1.456   5.652  0.4433 -1.3357  0.5451
  797SOL     vw 3188   6.850   1.462   5.708  0.4158  0.2899  0.4067
  798SOL     ow 3189   4.183   0.692   6.729  0.4463  0.6938  0.5481
  798SOL     hw 3190   4.179   0.621   6.665 -1.7365 -0.2791  1.6559
  798SOL     hw 3191   4.180   0.772   6.675 -0.4334 -0.0905 -0.6381
  798SOL     vw 3192   4.182   0.693   6.713  0.0422  0.4620  0.5376
  799SOL     ow 3193   6.985   0.209   5.583  0.3531 -0.1883  0.1056
  799SOL     hw 3194   7.005   0.218   5.490  1.5183  0.3296  0.3914
  799SOL     hw 3195   7.034   0.132   5.612 -0.5741 -0.7803  0.1522
  799SOL     vw 3196   6.994   0.200   5.575  0.3843 -0.1981  0.1493
  800SOL     ow 3197   3.892   1.562   1.228 -0.1427  0.0285  0.3382
  800SOL     hw 3198   3.821   1.542   1.167  0.8707 -0.8097 -0.6049
  800SOL     hw 3199   3.908   1.479   1.274  0.6443  0.0313  0.0829
  800SOL     vw 3200   3.885   1.548   1.226  0.0948 -0.0818  0.1801
  801SOL     ow 3201   4.189   5.770   1.844 -0.2180  0.3763  0.2633
  801SOL     hw 3202   4.149   5.780   1.930 -1.4328 -3.1078  0.2744
  801SOL     hw 3203   4.115   5.757   1.784  0.6893  0.4239 -0.9176
  801SOL     vw 3204   4.174   5.769   1.847 -0.2589 -0.0772  0.1090
  802SOL     ow 3205   4.419   7.116   0.149  0.1084  0.4594 -0.2157
  802SOL     hw 3206   4.362   7.180   0.107  1.3548  1.3009 -0.6979
  802SOL     hw 3207   4.361   7.064   0.205 -0.9094  2.1536  0.3681
  802SOL     vw 3208   4.404   7.117   0.151  0.1385  0.7939 -0.2023
  803SOL     ow 3209   4.642   6.626   1.331  0.1679  0.1980  0.2038
  803SOL     hw 3210   4.623   6.718   1.313 -4.3925 -0.6448 -0.5087
  803SOL     hw 3211   4.571   6.597   1.388  2.1728 -2.6575  1.5306
  803SOL     vw 3212   4.630   6.634   1.336 -0.1695 -0.2897  0.2848
  804SOL     ow 3213   3.783   5.611   6.514  0.4655 -0.0298 -0.4731
  804SOL     hw 3214   3.844   5.546   6.478 -0.2869  0.2420 -2.3574
  804SOL     hw 3215   3.815   5.694   6.480 -0.3773  0.2186 -0.6768
  804SOL     vw 3216   3.796   5.613   6.505  0.2550  0.0384 -0.7486
  805SOL     ow 3217   5.409   6.493   1.728 -0.3275  0.5155 -0.5446
  805SOL     hw 3218   5.348   6.566   1.726 -0.5981  0.3037 -0.2252
  805SOL     hw 3219   5.354   6.416   1.711 -0.2020  0.2941  0.0202
  805SOL     vw 3220   5.393   6.492   1.725 -0.3469  0.4582 -0.4279
  806SOL     ow 3221   1.144   1.366   1.811 -0.1495 -0.4641 -0.0956
  806SOL     hw 3222   1.225   1.356   1.861 -1.4011  2.3233  2.8624
  806SOL     hw 3223   1.172   1.406   1.729  1.4472  3.3227  2.0103
  806SOL     vw 3224   1.159   1.370   1.807 -0.1040  0.4032  0.5725
  807SOL     ow 3225   6.422   1.068   0.853 -0.1606  0.6095 -0.2928
  807SOL     hw 3226   6.485   1.090   0.922 -1.7525  2.3089  0.7233
  807SOL     hw 3227   6.338   1.060   0.900 -0.9061 -0.4720 -1.7436
  807SOL     vw 3228   6.419   1.070   0.868 -0.4690  0.6911 -0.3501
  808SOL     ow 3229   4.942   0.320   2.314 -0.9628 -0.4238  0.9138
  808SOL     hw 3230   4.966   0.413   2.314 -0.9520 -0.4270  0.5149
  808SOL     hw 3231   5.004   0.280   2.376 -0.4520 -0.2951  0.4957
  808SOL     vw 3232   4.954   0.327   2.322 -0.8941 -0.4072  0.8061
  809SOL     ow 3233   0.927   6.801   1.268  0.1596 -0.1365 -0.7500
  809SOL     hw 3234   0.836   6.819   1.294 -0.7836 -1.5991 -2.7465
  809SOL     hw 3235   0.980   6.848   1.332 -2.0077  1.5189 -0.0447
  809SOL     vw 3236   0.922   6.810   1.280 -0.2508 -0.1109 -0.9204
  810SOL     ow 3237   2.585   4.814   5.687  0.2192  0.1430  0.3394
  810SOL     hw 3238   2.540   4.898   5.693 -0.2433 -0.1055  0.4128
  810SOL     hw 3239   2.525   4.752   5.730 -0.1181 -0.4848 -0.9955
  810SOL     vw 3240   2.571   4.817   5.694  0.1137  0.0274  0.1733
  811SOL     ow 3241   5.156   0.303   6.146  0.0140  0.3722  0.3293
  811SOL     hw 3242   5.213   0.363   6.194 -1.9581  1.4197  1.5261
  811SOL     hw 3243   5.071   0.313   6.189 -1.5901  0.4256 -2.6301
  811SOL     vw 3244   5.152   0.313   6.158 -0.4580  0.5174  0.0968
  812SOL     ow 3245   5.479   7.216   6.382 -0.0338 -0.5378 -0.0758
  812SOL     hw 3246   5.521   7.136   6.413 -1.4377 -1.0368  0.5962
  812SOL     hw 3247   5.545   7.284   6.395  0.6990 -1.3540  0.6106
  812SOL     vw 3248   5.493   7.214   6.388 -0.1221 -0.7112  0.1035
  813SOL     ow 3249   4.501   0.384   6.976 -0.3643 -0.3529  0.4277
  813SOL     hw 3250   4.565   0.354   7.041 -0.9938  1.2547  1.8603
  813SOL     hw 3251   4.507   0.320   6.905  1.1039 -1.5770  1.5926
  813SOL     vw 3252   4.510   0.372   6.975 -0.2539 -0.3023  0.7701
  814SOL     ow 3253   3.188   0.772   4.982  0.3492 -0.1237  0.2572
  814SOL     hw 3254   3.264   0.754   4.927  2.4197  1.9319  2.2012
  814SOL     hw 3255   3.188   0.702   5.047 -2.1972 -2.6501 -2.1731
  814SOL     vw 3256   3.198   0.760   4.984  0.2866 -0.1858  0.1929
  815SOL     ow 3257   1.018   1.628   4.994 -0.3350 -0.2601  0.8448
  815SOL     hw 3258   0.957   1.565   4.955  1.7574 -2.1221  0.4409
  815SOL     hw 3259   0.994   1.629   5.087 -0.6035 -1.4137  0.8039
  815SOL     vw 3260   1.007   1.620   5.001 -0.0944 -0.6580  0.7858
  816SOL     ow 3261   0.254   5.850   6.775 -0.2971 -0.0810  1.1932
  816SOL     hw 3262   0.283   5.793   6.704 -1.3556 -0.3350  0.9410
  816SOL     hw 3263   0.213   5.791   6.838 -3.0073  0.4782  0.1209
  816SOL     vw 3264   0.252   5.835   6.774 -0.7943 -0.0408  1.0185
  817SOL     ow 3265   3.115   6.087   2.597 -0.7764 -0.0366 -0.3004
  817SOL     hw 3266   3.055   6.128   2.659 -2.3390  0.6492 -2.1681
  817SOL     hw 3267   3.092   5.994   2.600 -1.2229  0.0719 -0.2329
  817SOL     vw 3268   3.104   6.080   2.605 -1.0414  0.0682 -0.5380
  818SOL     ow 3269   2.055   2.633   6.651  0.2662 -0.5227 -0.5384
  818SOL     hw 3270   2.059   2.540   6.674 -1.0787 -0.5953 -0.5035
  818SOL     hw 3271   2.013   2.635   6.565 -0.9456  0.1037  0.0453
  818SOL     vw 3272   2.050   2.621   6.643 -0.0713 -0.4497 -0.4566
  819SOL     ow 3273   3.576   1.050   3.452  0.4188 -0.3278 -0.4570
  819SOL     hw 3274   3.607   1.059   3.542  0.2240 -0.1562 -0.4057
  819SOL     hw 3275   3.494   1.000   3.459  1.0682 -1.4691 -0.6639
  819SOL     vw 3276   3.569   1.044   3.465  0.4787 -0.4557 -0.4776
  820SOL     ow 3277   6.080   1.296   1.445 -0.2744  0.6634  0.1106
  820SOL     hw 3278   6.161   1.262   1.410 -1.0996  0.1073 -1.3313
  820SOL     hw 3279   6.106   1.375   1.493  1.3041 -0.4375  1.1684
  820SOL     vw 3280   6.094   1.302   1.447 -0.1750  0.4447  0.0600
  821SOL     ow 3281   7.042   6.827   4.913 -0.0529  0.6461  0.5364
  821SOL     hw 3282   7.098   6.824   4.991  0.5272  3.3634  0.3104
  821SOL     hw 3283   7.098   6.792   4.843 -0.4526 -1.4500  1.1784
  821SOL     vw 3284   7.057   6.822   4.914 -0.0291  0.7281  0.5913
  822SOL     ow 3285   6.046   1.794   2.355  0.0229  0.4052  0.2091
  822SOL     hw 3286   6.098   1.777   2.433 -1.4720 -0.3930  1.0893
  822SOL     hw 3287   6.032   1.708   2.316 -0.1814  0.6655 -0.3090
  822SOL     vw 3288   6.051   1.780   2.360 -0.2015  0.3343  0.2569
  823SOL     ow 3289   6.701   7.120   4.510 -0.1946 -0.3250 -0.7653
  823SOL     hw 3290   6.608   7.138   4.497 -0.6176 -1.8251 -0.1211
  823SOL     hw 3291   6.719   7.044   4.454  0.8760  0.4926 -1.5622
  823SOL     vw 3292   6.691   7.112   4.501 -0.1092 -0.4151 -0.7851
  824SOL     ow 3293   3.165   4.689   5.830  0.0352  0.0698  0.4333
  824SOL     hw 3294   3.228   4.751   5.867  0.1390 -0.4691  1.1914
  824SOL     hw 3295   3.208   4.603   5.841 -0.0585 -0.1345 -0.6822
  824SOL     vw 3296   3.179   4.686   5.836  0.0365 -0.0281  0.3862
  825SOL     ow 3297   5.464   3.395   3.152  0.0428  0.1194  0.5072
  825SOL     hw 3298   5.546   3.364   3.112 -0.7728 -1.1469 -0.2360
  825SOL     hw 3299   5.466   3.490   3.139  0.4741 -0.0954 -1.3321
  825SOL     vw 3300   5.475   3.404   3.145 -0.0081 -0.0759  0.1664
  826SOL     ow 3301   4.573   2.053   5.404 -0.5740 -0.1008 -0.1642
  826SOL     hw 3302   4.603   2.083   5.490 -1.4053  2.8230 -0.7544
  826SOL     hw 3303   4.634   1.985   5.378 -0.7807 -1.6699  3.0503
  826SOL     vw 3304   4.585   2.048   5.412 -0.7110  0.0781  0.1822
  827SOL     ow 3305   3.223   6.157   7.253  0.1308  0.5383  0.5444
  827SOL     hw 3306   3.275   6.231   7.284 -0.9219  1.2471  0.7130
  827SOL     hw 3307   3.252   6.142   7.163  1.1512  0.3956  0.8838
  827SOL     vw 3308   3.233   6.165   7.245  0.1265  0.6130  0.6115
  828SOL     ow 3309   1.458   0.769   1.658 -0.0816  0.9816  0.0772
  828SOL     hw 3310   1.485   0.841   1.715  1.3207 -0.7317  1.6656
  828SOL     hw 3311   1.490   0.794   1.571 -1.9022  3.4417 -0.0153
  828SOL     vw 3312   1.466   0.782   1.654 -0.1369  1.0801  0.2745
  829SOL     ow 3313   4.385   5.956   1.868  0.9117  0.2404 -0.3952
  829SOL     hw 3314   4.333   6.009   1.929 -0.4827 -0.0780 -1.2688
  829SOL     hw 3315   4.337   5.874   1.860  2.0028 -0.3988 -0.5968
  829SOL     vw 3316   4.372   5.952   1.875  0.8717  0.1142 -0.5370
  830SOL     ow 3317   2.712   0.984   5.754  0.1506 -0.4303  0.4216
  830SOL     hw 3318   2.784   0.948   5.703  1.0214 -0.7487  1.8328
  830SOL     hw 3319   2.651   0.911   5.764  2.1984 -1.9472  3.8068
  830SOL     vw 3320   2.713   0.969   5.749  0.5356 -0.6724  1.0545
  831SOL     ow 3321   4.416   5.823   2.903  0.3385  0.7146 -0.1141
  831SOL     hw 3322   4.488   5.880   2.928 -0.5281  1.0376  1.8185
  831SOL     hw 3323   4.340   5.880   2.896 -0.1647  0.0783 -0.0014
  831SOL     vw 3324   4.415   5.838   2.906  0.1581  0.6733  0.1557
  832SOL     ow 3325   1.633   2.036   0.006  1.0026  0.0005 -0.1339
  832SOL     hw 3326   1.680   2.119   0.015  0.5037  0.1806  1.0384
  832SOL     hw 3327   1.650   2.008  -0.084  3.1306  0.1865  0.1567
  832SOL     vw 3328   1.641   2.043  -0.004  1.2175  0.0490  0.0589
  833SOL     ow 3329   3.999   5.779   0.480 -0.6596  0.4615  0.0186
  833SOL     hw 3330   4.051   5.849   0.520  0.2035 -0.7033  0.9710
  833SOL     hw 3331   3.908   5.807   0.494 -0.3360  1.4450  0.2698
  833SOL     vw 3332   3.994   5.792   0.487 -0.5028  0.4375  0.1774
  834SOL     ow 3333   5.588   6.975   1.019 -0.5021 -0.3208  0.7251
  834SOL     hw 3334   5.550   7.053   1.058  0.4077 -0.0877  1.1837
  834SOL     hw 3335   5.680   6.997   1.005  0.0788 -1.6968  2.0191
  834SOL     vw 3336   5.595   6.988   1.022 -0.3057 -0.4716  0.9563
  835SOL     ow 3337   4.087   7.111   4.543 -0.1566 -0.5111  0.5843
  835SOL     hw 3338   4.153   7.085   4.607 -0.6636 -0.5761  1.0951
  835SOL     hw 3339   4.062   7.030   4.499  0.0125 -0.5049  0.4754
  835SOL     vw 3340   4.092   7.097   4.546 -0.2010 -0.5188  0.6371
  836SOL     ow 3341   3.021   4.817   7.151 -0.0679 -0.5470 -0.0856
  836SOL     hw 3342   3.008   4.759   7.226  0.3692 -0.9723 -0.3406
  836SOL     hw 3343   3.075   4.767   7.090 -0.8312 -0.3899 -0.9112
  836SOL     vw 3344   3.027   4.803   7.153 -0.1109 -0.5822 -0.2282
  837SOL     ow 3345   4.702   2.379   2.074 -0.3867  0.2214 -0.2390
  837SOL     hw 3346   4.702   2.475   2.076  3.0417  0.4034 -0.9874
  837SOL     hw 3347   4.674   2.357   1.985  2.6366  0.8944 -1.5054
  837SOL     vw 3348   4.699   2.389   2.063  0.4644  0.3343 -0.5047
  838SOL     ow 3349   2.333   5.180   6.693 -0.0569  0.3220  0.1278
  838SOL     hw 3350   2.286   5.121   6.752 -0.3003 -1.1522 -1.4496
  838SOL     hw 3351   2.425   5.172   6.719  0.1644 -2.1687 -1.1219
  838SOL     vw 3352   2.339   5.171   6.704 -0.0598 -0.2012 -0.2456
  839SOL     ow 3353   0.879   2.745   0.593 -0.2280  0.3674 -0.6345
  839SOL     hw 3354   0.884   2.650   0.583  1.0877  0.0457  2.0994
  839SOL     hw 3355   0.792   2.761   0.630  0.5549 -0.1554  1.5486
  839SOL     vw 3356   0.868   2.735   0.597  0.0489  0.2562  0.0143
  840SOL     ow 3357   1.179   2.614   5.398  0.0866 -0.2101 -0.0902
  840SOL     hw 3358   1.207   2.524   5.378  4.3595  0.8924 -0.2239
  840SOL     hw 3359   1.210   2.629   5.487  1.6459  1.7200 -0.8615
  840SOL     vw 3360   1.187   2.604   5.407  0.8560  0.1900 -0.2098
  841SOL     ow 3361   6.111   4.008   1.208  0.4013 -0.1920 -0.2852
  841SOL     hw 3362   6.153   4.060   1.276 -0.7256  1.1791 -0.5751
  841SOL     hw 3363   6.121   4.061   1.128 -2.0438  0.3554 -0.3057
  841SOL     vw 3364   6.118   4.022   1.206 -0.0701  0.0613 -0.3262
  842SOL     ow 3365   6.229   4.862   1.336 -0.0489  0.2173  0.6519
  842SOL     hw 3366   6.181   4.904   1.407 -0.6154 -0.4271  0.6708
  842SOL     hw 3367   6.268   4.784   1.376 -0.5198 -0.2448  0.2247
  842SOL     vw 3368   6.228   4.857   1.350 -0.1857  0.0715  0.5980
  843SOL     ow 3369   1.518   5.499   1.498 -0.5669 -0.7153  0.5375
  843SOL     hw 3370   1.607   5.467   1.513 -0.0786 -0.6428 -1.8418
  843SOL     hw 3371   1.528   5.593   1.486 -1.3431 -0.3105  2.6064
  843SOL     vw 3372   1.531   5.507   1.499 -0.6049 -0.6526  0.4966
  844SOL     ow 3373   5.025   1.229   7.183 -0.2521  0.9039  0.4675
  844SOL     hw 3374   4.963   1.202   7.115  1.0577 -0.0674 -0.3858
  844SOL     hw 3375   4.985   1.201   7.265 -1.0449  0.4960 -0.0500
  844SOL     vw 3376   5.012   1.222   7.185 -0.1838  0.7219  0.2868
  845SOL     ow 3377   0.499   4.768   0.740  0.0712 -0.2649  0.6684
  845SOL     hw 3378   0.573   4.733   0.690  0.0726  1.7071 -0.8268
  845SOL     hw 3379   0.533   4.777   0.829  1.5810  0.4119  0.0521
  845SOL     vw 3380   0.513   4.764   0.745  0.2706  0.0846  0.3898
  846SOL     ow 3381   6.646   5.236   5.396 -0.2997 -0.4152 -0.2414
  846SOL     hw 3382   6.635   5.264   5.305 -2.3429  0.0731  0.1030
  846SOL     hw 3383   6.689   5.151   5.390  4.1134  1.5771 -1.4231
  846SOL     vw 3384   6.650   5.229   5.383  0.0129 -0.0880 -0.3521
  847SOL     ow 3385   2.915   0.748   5.042 -0.0365 -0.5103  0.3026
  847SOL     hw 3386   2.828   0.787   5.053  0.5290  1.3184 -1.1333
  847SOL     hw 3387   2.970   0.794   5.104 -0.1092 -1.9376  1.4882
  847SOL     vw 3388   2.911   0.759   5.051  0.0286 -0.4573  0.2694
  848SOL     ow 3389   3.351   6.078   6.562 -0.1320  0.9753 -0.2292
  848SOL     hw 3390   3.302   6.144   6.513 -0.8879  2.2149  2.0571
  848SOL     hw 3391   3.286   6.012   6.584  0.0271  0.8318 -0.1940
  848SOL     vw 3392   3.336   6.078   6.558 -0.2106  1.1199  0.0770
  849SOL     ow 3393   2.705   5.928   1.361  0.3614 -0.5039  0.2814
  849SOL     hw 3394   2.728   5.921   1.269  0.1209 -1.3485  0.2808
  849SOL     hw 3395   2.719   5.840   1.397  1.4253  0.0415  1.2890
  849SOL     vw 3396   2.710   5.916   1.354  0.4700 -0.5434  0.4143
  850SOL     ow 3397   4.045   4.132   1.364  0.2885 -0.2502  0.5871
  850SOL     hw 3398   4.134   4.164   1.378  0.4634 -0.5446  0.1406
  850SOL     hw 3399   4.051   4.075   1.288 -0.5002  0.6404 -0.1612
  850SOL     vw 3400   4.057   4.129   1.356  0.2074 -0.1717  0.4294
  851SOL     ow 3401   1.027   4.740   1.691  0.2098 -0.0878 -0.3101
  851SOL     hw 3402   0.932   4.749   1.677 -0.2496  0.3289  2.4301
  851SOL     hw 3403   1.053   4.669   1.632 -1.2350  1.4610 -3.0301
  851SOL     vw 3404   1.018   4.732   1.681 -0.0415  0.1714 -0.3074
  852SOL     ow 3405   3.060   2.401   5.329 -0.1549  0.9936  0.3402
  852SOL     hw 3406   3.145   2.435   5.358 -0.1760 -0.2037  1.9489
  852SOL     hw 3407   2.999   2.471   5.351  0.3629  1.7489 -0.5628
  852SOL     vw 3408   3.063   2.415   5.336 -0.0893  0.9353  0.4334
  853SOL     ow 3409   2.987   0.187   6.111 -0.6037 -0.1452 -0.3808
  853SOL     hw 3410   2.958   0.194   6.020 -0.2833 -0.6449 -0.5255
  853SOL     hw 3411   2.941   0.258   6.156 -2.6798 -1.3723 -0.4311
  853SOL     vw 3412   2.977   0.197   6.105 -0.8353 -0.3731 -0.4063
  854SOL     ow 3413   5.352   5.327   4.486  0.5931  0.2759 -0.3005
  854SOL     hw 3414   5.257   5.316   4.480  0.6865 -0.9776  0.2114
  854SOL     hw 3415   5.363   5.411   4.531 -0.3774 -0.8991  2.3656
  854SOL     vw 3416   5.341   5.337   4.491  0.4771 -0.0446  0.1185
  855SOL     ow 3417   2.662   1.991   4.714  0.5691  0.0267 -0.2863
  855SOL     hw 3418   2.699   2.006   4.627  1.3111  0.8995  0.1549
  855SOL     hw 3419   2.733   2.015   4.774  0.4572 -1.5984  0.5605
  855SOL     vw 3420   2.676   1.996   4.710  0.6522 -0.0725 -0.1163
  856SOL     ow 3421   1.820   5.871   6.181  1.0302 -0.3899  0.2083
  856SOL     hw 3422   1.814   5.909   6.268 -0.2190 -0.3526  0.1199
  856SOL     hw 3423   1.827   5.776   6.197  2.3290 -0.2837  0.3745
  856SOL     vw 3424   1.820   5.863   6.195  1.0367 -0.3710  0.2186
  857SOL     ow 3425   4.829   6.917   3.821  0.3297 -0.3031  0.5704
  857SOL     hw 3426   4.757   6.941   3.763 -0.0412  2.4355  1.9870
  857SOL     hw 3427   4.908   6.949   3.776  0.2720 -0.0998  0.6127
  857SOL     vw 3428   4.830   6.924   3.807  0.2730  0.0851  0.7629
  858SOL     ow 3429   3.184   2.480   4.937 -0.0108 -0.2646 -0.4005
  858SOL     hw 3430   3.132   2.555   4.969 -0.4247  0.6927 -3.0183
  858SOL     hw 3431   3.136   2.403   4.968  0.3197  0.4694  2.2150
  858SOL     vw 3432   3.171   2.480   4.945 -0.0218 -0.0416 -0.4010
  859SOL     ow 3433   6.746   0.732   2.567  0.5654  0.4010  0.9055
  859SOL     hw 3434   6.794   0.811   2.592  1.5151 -0.1434  0.8974
  859SOL     hw 3435   6.799   0.660   2.603  0.2857 -0.2719  0.0267
  859SOL     vw 3436   6.760   0.733   2.575  0.6535  0.2404  0.7885
  860SOL     ow 3437   5.885   3.879   1.379 -0.4035  1.1357 -0.2678
  860SOL     hw 3438   5.940   3.936   1.434 -1.4404  1.1523  0.7962
  860SOL     hw 3439   5.838   3.825   1.442 -0.0207 -0.3855 -1.2356
  860SOL     vw 3440   5.886   3.879   1.395 -0.4897  0.9371 -0.2552
  861SOL     ow 3441   1.638   6.618   3.067 -0.1224 -0.4530  0.4555
  861SOL     hw 3442   1.729   6.600   3.093  0.0970  1.8860  1.6070
  861SOL     hw 3443   1.594   6.639   3.150 -1.9731 -2.3189  0.0297
  861SOL     vw 3444   1.645   6.619   3.082 -0.3378 -0.3903  0.5512
  862SOL     ow 3445   0.197   6.807   6.384 -0.0811  0.2352 -0.0256
  862SOL     hw 3446   0.235   6.859   6.312 -0.3577 -0.1301 -0.4419
  862SOL     hw 3447   0.104   6.801   6.362 -0.0215 -0.5915 -0.0833
  862SOL     vw 3448   0.190   6.813   6.371 -0.1097  0.0777 -0.0880
  863SOL     ow 3449   4.651   0.735   0.696  0.4018 -0.5657 -0.0288
  863SOL     hw 3450   4.741   0.717   0.670  0.2417 -3.1880  0.8877
  863SOL     hw 3451   4.644   0.699   0.784 -1.1514  1.0084  0.5391
  863SOL     vw 3452   4.662   0.728   0.704  0.1755 -0.7040  0.1671
  864SOL     ow 3453   4.562   2.306   5.303 -0.0061 -0.5999  0.0213
  864SOL     hw 3454   4.565   2.337   5.394  0.0232 -0.0137 -0.1757
  864SOL     hw 3455   4.563   2.210   5.310 -1.4130 -0.5967  0.7061
  864SOL     vw 3456   4.562   2.297   5.316 -0.1881 -0.5221  0.0856
  865SOL     ow 3457   5.597   1.008   6.172 -0.2114 -0.4413 -0.3005
  865SOL     hw 3458   5.654   1.001   6.096 -0.2542  1.3862 -0.5504
  865SOL     hw 3459   5.648   1.059   6.235 -0.7912 -0.5498  0.2634
  865SOL     vw 3460   5.611   1.014   6.170 -0.2935 -0.2145 -0.2592
  866SOL     ow 3461   4.961   6.945   7.032  0.9515 -0.9360 -0.6533
  866SOL     hw 3462   4.923   6.893   6.961  1.1370 -1.5583 -0.3024
  866SOL     hw 3463   4.990   6.881   7.096  4.0280 -0.5933 -1.5695
  866SOL     vw 3464   4.960   6.930   7.031  1.3819 -0.9727 -0.7277
  867SOL     ow 3465   0.788   1.611   4.718 -0.5820  0.3938  0.2320
  867SOL     hw 3466   0.771   1.522   4.747  0.9971 -0.1794 -0.4868
  867SOL     hw 3467   0.739   1.666   4.780  1.1923 -0.8322  2.9340
  867SOL     vw 3468   0.780   1.607   4.730 -0.1396  0.1565  0.4938
  868SOL     ow 3469   1.746   2.018   0.448 -0.6326 -0.1712 -0.1156
  868SOL     hw 3470   1.764   2.082   0.379 -3.1587 -1.0402 -1.6856
  868SOL     hw 3471   1.771   2.063   0.529 -2.5658  2.9493 -1.0965
  868SOL     vw 3472   1.752   2.033   0.450 -1.2209  0.1259 -0.4522
  869SOL     ow 3473   7.256   0.866   6.577  0.3719  0.3404  0.2778
  869SOL     hw 3474   7.175   0.862   6.628  0.6823 -0.3409  0.7310
  869SOL     hw 3475   7.305   0.788   6.604  1.1951  0.7706  0.0419
  869SOL     vw 3476   7.252   0.855   6.588  0.5214  0.3073  0.3068
  870SOL     ow 3477   3.922   6.881   3.817 -0.5634 -0.4076  0.0987
  870SOL     hw 3478   3.851   6.881   3.753 -1.9350  2.4844  1.4200
  870SOL     hw 3479   4.000   6.908   3.767 -0.3056 -3.4201 -1.3265
  870SOL     vw 3480   3.923   6.885   3.802 -0.7104 -0.4239  0.0849
  871SOL     ow 3481   2.004   4.702   0.756 -0.3762  0.2624 -0.0610
  871SOL     hw 3482   1.988   4.659   0.672  1.7896  0.3882 -0.5972
  871SOL     hw 3483   1.981   4.794   0.741 -0.3201  0.2182 -0.4143
  871SOL     vw 3484   1.999   4.709   0.743 -0.0830  0.2730 -0.1783
  872SOL     ow 3485   1.650   0.265   2.048 -0.0599 -0.3534 -0.3365
  872SOL     hw 3486   1.645   0.355   2.017  0.6153  0.9786  2.9411
  872SOL     hw 3487   1.743   0.243   2.043 -0.3159 -1.1745 -1.8014
  872SOL     vw 3488   1.662   0.274   2.043 -0.0045 -0.2860 -0.0974
  873SOL     ow 3489   5.429   2.636   0.807 -0.3657 -0.0036 -0.1530
  873SOL     hw 3490   5.341   2.632   0.845 -0.1256  1.2410  0.6058
  873SOL     hw 3491   5.417   2.680   0.723 -0.3141  1.4701  0.5777
  873SOL     vw 3492   5.416   2.641   0.801 -0.3271  0.3550  0.0435
  874SOL     ow 3493   7.016   3.114   0.549  0.5336  0.2023 -0.2683
  874SOL     hw 3494   7.067   3.195   0.554 -0.3715  0.7178  2.9338
  874SOL     hw 3495   7.030   3.072   0.633 -1.2750 -1.5538 -0.7791
  874SOL     vw 3496   7.024   3.119   0.561  0.1757  0.0386  0.0868
  875SOL     ow 3497   2.446   2.626   2.512  0.7093 -1.0892  0.3096
  875SOL     hw 3498   2.529   2.587   2.484  1.5912 -1.7374  3.4037
  875SOL     hw 3499   2.471   2.703   2.564 -0.7696  0.0790 -0.6026
  875SOL     vw 3500   2.460   2.631   2.515  0.6306 -1.0206  0.5974
  876SOL     ow 3501   6.650   2.213   6.891  0.5543  0.3231 -0.0522
  876SOL     hw 3502   6.616   2.152   6.825 -1.3577 -1.5585  2.4632
  876SOL     hw 3503   6.740   2.185   6.906  0.9477  0.6522 -1.6579
  876SOL     vw 3504   6.658   2.201   6.884  0.3538  0.1184  0.0679
  877SOL     ow 3505   2.078   0.876   0.079 -0.5884 -0.6203 -0.2479
  877SOL     hw 3506   2.112   0.790   0.104 -2.0001 -1.1113  0.0926
  877SOL     hw 3507   2.140   0.938   0.115 -0.6564 -1.4336  1.3394
  877SOL     vw 3508   2.090   0.873   0.087 -0.7837 -0.7924  0.0064
  878SOL     ow 3509   4.793   4.983   6.499 -0.2398  0.4179  0.9831
  878SOL     hw 3510   4.735   4.927   6.551  1.6902 -1.6306  1.0767
  878SOL     hw 3511   4.780   4.954   6.409 -2.7657  3.2271  0.2752
  878SOL     vw 3512   4.783   4.972   6.494 -0.3185  0.5183  0.9022
  879SOL     ow 3513   2.698   4.284   1.093  0.1980  0.2355  0.1441
  879SOL     hw 3514   2.760   4.218   1.061 -0.4535 -1.3279  1.9219
  879SOL     hw 3515   2.732   4.307   1.180  1.1867  3.3580 -0.9385
  879SOL     vw 3516   2.711   4.278   1.100  0.2424  0.4413  0.2359
  880SOL     ow 3517   7.119   1.990   4.725  0.2597  0.2078 -0.4098
  880SOL     hw 3518   7.142   1.916   4.669  2.9991  0.9803 -0.4216
  880SOL     hw 3519   7.196   2.047   4.723  0.3005  0.5927  3.6104
  880SOL     vw 3520   7.132   1.987   4.717  0.6263  0.3605  0.1192
  881SOL     ow 3521   0.780   3.372   6.415 -0.2029  0.1859  0.1901
  881SOL     hw 3522   0.701   3.326   6.442 -0.4277  1.1714  1.3041
  881SOL     hw 3523   0.750   3.461   6.396  0.2975  0.0269 -1.4549
  881SOL     vw 3524   0.765   3.378   6.416 -0.1665  0.2949  0.1199
  882SOL     ow 3525   6.196   0.727   1.828  1.0737 -0.4902 -0.8380
  882SOL     hw 3526   6.192   0.819   1.853  0.7857 -1.2612  2.3943
  882SOL     hw 3527   6.119   0.713   1.774  0.6689  0.9861 -0.6818
  882SOL     vw 3528   6.186   0.737   1.824  0.9825 -0.3972 -0.3909
  883SOL     ow 3529   3.823   4.590   2.547  0.6738 -0.5989  0.5152
  883SOL     hw 3530   3.758   4.659   2.531  3.3670  2.1578  0.3637
  883SOL     hw 3531   3.773   4.517   2.582 -2.4003  1.5315  0.9835
  883SOL     vw 3532   3.808   4.590   2.550  0.6236  0.0460  0.5569
  884SOL     ow 3533   0.924   4.352   3.453 -0.1928 -0.2927  0.6672
  884SOL     hw 3534   0.980   4.419   3.412 -1.2994 -0.2206 -0.7975
  884SOL     hw 3535   0.835   4.382   3.437 -0.7492  0.4714  4.4202
  884SOL     vw 3536   0.920   4.365   3.445 -0.4123 -0.1824  0.9691
  885SOL     ow 3537   1.300   2.638   3.243  0.5082 -0.0087  0.6398
  885SOL     hw 3538   1.249   2.593   3.176  0.2133  1.5090 -0.2087
  885SOL     hw 3539   1.316   2.725   3.206 -0.9513  1.4286  3.1369
  885SOL     vw 3540   1.295   2.644   3.229  0.2767  0.3814  0.8574
  886SOL     ow 3541   0.234   6.120   4.013  0.3819 -0.2654 -0.3563
  886SOL     hw 3542   0.221   6.211   4.039  1.9855  0.0153 -0.3978
  886SOL     hw 3543   0.148   6.090   3.986  0.0256  1.6240 -1.5107
  886SOL     vw 3544   0.221   6.128   4.013  0.5465  0.0207 -0.5140
  887SOL     ow 3545   0.111   0.889   5.749  0.7797  0.2687  0.0413
  887SOL     hw 3546   0.171   0.841   5.806  0.2862 -0.5894 -0.1416
  887SOL     hw 3547   0.078   0.823   5.688  0.9096  1.0688 -0.9213
  887SOL     vw 3548   0.114   0.874   5.749  0.7317  0.2610 -0.1101
  888SOL     ow 3549   6.248   5.032   2.723 -0.0250  0.0922  0.0785
  888SOL     hw 3550   6.339   5.060   2.733 -0.1994  1.1101 -0.9698
  888SOL     hw 3551   6.254   4.940   2.698  0.7329  0.2208 -0.2504
  888SOL     vw 3552   6.261   5.024   2.721  0.0520  0.2434 -0.1032
  889SOL     ow 3553   2.467   6.168   3.582  0.7390  0.4431 -0.3548
  889SOL     hw 3554   2.520   6.201   3.508  2.0809 -0.2837  0.2442
  889SOL     hw 3555   2.490   6.075   3.588 -0.0886  0.2741  0.3821
  889SOL     vw 3556   2.477   6.160   3.573  0.8069  0.3247 -0.1785
  890SOL     ow 3557   3.454   4.673   3.178  0.3786  0.3324  0.0118
  890SOL     hw 3558   3.386   4.667   3.245 -0.2311 -0.8467 -0.6707
  890SOL     hw 3559   3.454   4.765   3.152 -2.5738  0.0027 -1.5456
  890SOL     vw 3560   3.445   4.684   3.183 -0.0914  0.1333 -0.2837
  891SOL     ow 3561   4.252   3.122   0.288 -0.7723 -0.2746  0.3864
  891SOL     hw 3562   4.242   3.177   0.366 -1.3933  0.3412 -0.1064
  891SOL     hw 3563   4.174   3.067   0.287 -2.3931  1.8440 -1.3969
  891SOL     vw 3564   4.240   3.122   0.298 -1.0679  0.0862  0.0861
  892SOL     ow 3565   2.048   4.520   0.090  1.2581 -0.0260 -0.3387
  892SOL     hw 3566   2.017   4.588   0.032  0.8497  1.2236  1.2785
  892SOL     hw 3567   2.037   4.439   0.040 -0.5301  0.8213 -1.4148
  892SOL     vw 3568   2.043   4.518   0.076  0.9682  0.2508 -0.2673
  893SOL     ow 3569   5.653   1.820   1.530 -0.0941  0.5082  0.1581
  893SOL     hw 3570   5.586   1.883   1.559  0.2607  1.0372 -0.1481
  893SOL     hw 3571   5.608   1.765   1.466 -0.3002  0.7052  0.1310
  893SOL     vw 3572   5.638   1.821   1.525 -0.0746  0.6040  0.1141
  894SOL     ow 3573   3.879   0.174   3.034 -0.2324  0.7292  0.2269
  894SOL     hw 3574   3.888   0.209   2.946  0.9621  2.2597  0.9121
  894SOL     hw 3575   3.806   0.112   3.029 -0.6687  1.3606 -1.6406
  894SOL     vw 3576   3.871   0.170   3.022 -0.1324  1.0144  0.0710
  895SOL     ow 3577   6.671   2.811   4.915 -0.4244 -0.4010  0.1166
  895SOL     hw 3578   6.750   2.793   4.966 -0.8325  1.9960  1.7790
  895SOL     hw 3579   6.673   2.748   4.843  3.6968  0.4076 -0.7050
  895SOL     vw 3580   6.682   2.801   4.912  0.0656  0.0219  0.2277
  896SOL     ow 3581   6.949   6.098   2.185  0.8504 -0.8117  0.3900
  896SOL     hw 3582   6.857   6.109   2.208  0.3845 -0.4953 -1.4675
  896SOL     hw 3583   6.983   6.187   2.180  0.7146 -0.8103 -0.8716
  896SOL     vw 3584   6.941   6.111   2.188  0.7713 -0.7701 -0.0216
  897SOL     ow 3585   2.167   0.653   4.965 -0.3149  0.2463  0.1020
  897SOL     hw 3586   2.100   0.717   4.988 -0.2472  1.0798 -1.8037
  897SOL     hw 3587   2.250   0.696   4.988 -0.2431  1.1054 -1.5798
  897SOL     vw 3588   2.169   0.667   4.971 -0.2965  0.4696 -0.3717
  898SOL     ow 3589   5.943   0.632   3.632  0.7136 -0.9781 -0.4646
  898SOL     hw 3590   5.976   0.704   3.579  1.1858 -1.7641 -1.2682
  898SOL     hw 3591   6.021   0.597   3.675  0.3043 -0.1785  1.0075
  898SOL     vw 3592   5.958   0.637   3.631  0.7219 -0.9762 -0.3765
  899SOL     ow 3593   1.639   4.521   6.935  0.0419 -0.5610  0.4491
  899SOL     hw 3594   1.690   4.534   6.855 -0.0834 -1.1836  0.2605
  899SOL     hw 3595   1.583   4.445   6.916 -2.2220  1.1175  0.0323
  899SOL     vw 3596   1.639   4.513   6.922 -0.2733 -0.4215  0.3691
  900SOL     ow 3597   1.910   1.148   1.082  0.1917 -0.4857 -0.0618
  900SOL     hw 3598   1.955   1.063   1.082 -0.5143 -0.8705  0.6057
  900SOL     hw 3599   1.890   1.164   0.990 -1.4748 -2.0413 -0.0132
  900SOL     vw 3600   1.913   1.139   1.070 -0.1212 -0.7417  0.0326
  901SOL     ow 3601   6.782   6.778   4.580 -0.0371  0.4166 -0.6652
  901SOL     hw 3602   6.850   6.714   4.560  1.2930  0.0876  3.7785
  901SOL     hw 3603   6.829   6.862   4.586 -0.7501  0.8563 -1.0227
  901SOL     vw 3604   6.797   6.781   4.578  0.0443  0.4313 -0.1261
  902SOL     ow 3605   3.170   6.661   3.746  0.6944  0.4516 -0.3787
  902SOL     hw 3606   3.078   6.638   3.754  0.8112  0.4442  1.1882
  902SOL     hw 3607   3.190   6.646   3.653 -1.2019  1.7386 -1.0699
  902SOL     vw 3608   3.161   6.656   3.735  0.4597  0.6204 -0.2631
  903SOL     ow 3609   3.019   5.491   0.586 -0.8941  0.0269 -0.0246
  903SOL     hw 3610   3.075   5.511   0.510 -1.1121 -0.5462 -0.3460
  903SOL     hw 3611   3.080   5.462   0.653 -0.3205  3.3937  1.1256
  903SOL     vw 3612   3.035   5.490   0.585 -0.8473  0.3953  0.0848
  904SOL     ow 3613   5.169   1.280   1.071  0.2349 -0.0922  0.0004
  904SOL     hw 3614   5.228   1.352   1.092  0.9572 -0.5795 -0.3193
  904SOL     hw 3615   5.202   1.245   0.988 -0.1142 -0.7722  0.1390
  904SOL     vw 3616   5.181   1.284   1.063  0.2842 -0.2462 -0.0234
  905SOL     ow 3617   5.365   5.392   3.411  0.0134  0.0916 -0.4954
  905SOL     hw 3618   5.311   5.462   3.449 -0.5729  0.6849 -2.2799
  905SOL     hw 3619   5.449   5.398   3.457 -1.8770 -2.1419  3.8260
  905SOL     vw 3620   5.369   5.402   3.422 -0.3135 -0.1249 -0.1607
  906SOL     ow 3621   4.571   6.965   2.179 -0.3093 -0.2039  0.1389
  906SOL     hw 3622   4.511   6.997   2.247 -0.4694 -0.0418 -0.0785
  906SOL     hw 3623   4.625   6.900   2.224 -0.2993  0.0250  0.4677
  906SOL     vw 3624   4.570   6.961   2.194 -0.3293 -0.1523  0.1537
  907SOL     ow 3625   0.492   6.817   4.904  0.3581 -0.0989 -0.2330
  907SOL     hw 3626   0.545   6.786   4.831 -1.1173 -1.7559 -0.6642
  907SOL     hw 3627   0.547   6.802   4.981  1.6674  1.0648 -0.8936
  907SOL     vw 3628   0.506   6.811   4.905  0.3362 -0.1638 -0.3769
  908SOL     ow 3629   3.703   0.602   5.281 -0.0041  0.6255 -0.6958
  908SOL     hw 3630   3.775   0.607   5.218  0.6071  1.7164  0.0680
  908SOL     hw 3631   3.656   0.522   5.257  1.4438 -0.0958 -1.2037
  908SOL     vw 3632   3.706   0.592   5.269  0.2674  0.6743 -0.6621
  909SOL     ow 3633   2.526   5.557   1.465  0.2598 -0.0848 -0.0484
  909SOL     hw 3634   2.604   5.594   1.506 -0.7928  0.0312  1.9250
  909SOL     hw 3635   2.557   5.474   1.427  0.5797 -2.4994  4.7274
  909SOL     vw 3636   2.540   5.551   1.465  0.1632 -0.3879  0.8422
  910SOL     ow 3637   1.048   4.556   5.781 -0.2997 -0.0219  0.2866
  910SOL     hw 3638   1.130   4.512   5.806  0.7384  1.9824  0.5875
  910SOL     hw 3639   1.053   4.564   5.686  0.0386  0.4391  0.3415
  910SOL     vw 3640   1.060   4.551   5.772 -0.1181  0.3037  0.3338
  911SOL     ow 3641   7.239   2.505   6.004  0.6782 -0.6814 -0.6954
  911SOL     hw 3642   7.257   2.442   6.073  1.1178 -1.0244 -1.1119
  911SOL     hw 3643   7.243   2.591   6.047 -2.0228 -0.9668  0.3429
  911SOL     vw 3644   7.242   2.508   6.019  0.3799 -0.7643 -0.6135
  912SOL     ow 3645   1.751   2.337   1.674  0.8968 -0.0193  0.1382
  912SOL     hw 3646   1.711   2.257   1.707  0.4585 -0.0580 -0.4650
  912SOL     hw 3647   1.826   2.352   1.731  1.5249 -1.3661 -0.2807
  912SOL     vw 3648   1.755   2.328   1.686  0.9218 -0.2021  0.0033
  913SOL     ow 3649   5.733   6.867   0.366 -0.2797 -0.6018 -0.2305
  913SOL     hw 3650   5.638   6.876   0.376 -0.3430  0.8094 -1.6992
  913SOL     hw 3651   5.747   6.774   0.350 -1.4509 -0.7846 -0.2993
  913SOL     vw 3652   5.722   6.856   0.365 -0.4427 -0.4399 -0.4334
  914SOL     ow 3653   2.197   0.640   0.196 -0.1234  0.4278 -0.1957
  914SOL     hw 3654   2.282   0.597   0.184 -0.3997  0.0640 -0.9340
  914SOL     hw 3655   2.211   0.702   0.268  1.0599  1.1103 -0.9712
  914SOL     vw 3656   2.210   0.643   0.204 -0.0037  0.4699 -0.3954
  915SOL     ow 3657   1.421   1.834   0.002  0.5520  0.6249 -0.6574
  915SOL     hw 3658   1.428   1.835  -0.094  0.0954  0.2862 -0.6970
  915SOL     hw 3659   1.490   1.775   0.030 -1.3931 -1.9482 -0.9887
  915SOL     vw 3660   1.431   1.827  -0.007  0.2351  0.2407 -0.7064
  916SOL     ow 3661   5.971   6.643   4.313  0.0065  0.1817 -0.1818
  916SOL     hw 3662   6.035   6.671   4.379 -1.3499  0.9465  0.8580
  916SOL     hw 3663   5.981   6.705   4.241 -1.0846  1.7146  0.9398
  916SOL     vw 3664   5.981   6.655   4.312 -0.3166  0.4849  0.1032
  917SOL     ow 3665   2.608   6.983   0.835 -0.0244  0.1111 -0.4358
  917SOL     hw 3666   2.577   6.965   0.746  3.1729  0.5151 -1.7418
  917SOL     hw 3667   2.629   6.897   0.871 -1.9455 -0.1185  0.2732
  917SOL     vw 3668   2.606   6.969   0.828  0.1439  0.1342 -0.5146
  918SOL     ow 3669   4.214   4.646   3.889  0.2241 -0.4042  0.2317
  918SOL     hw 3670   4.254   4.683   3.968  2.3222 -0.2649 -0.8328
  918SOL     hw 3671   4.139   4.703   3.871  1.8337  1.7930  0.1112
  918SOL     vw 3672   4.209   4.658   3.897  0.7133 -0.0958  0.0753
  919SOL     ow 3673   3.409   6.884   6.123  0.1600 -0.3571 -0.5319
  919SOL     hw 3674   3.338   6.821   6.132 -1.4174  1.6225  2.6605
  919SOL     hw 3675   3.443   6.896   6.211 -0.5742  4.1205 -0.6130
  919SOL     vw 3676   3.404   6.877   6.136 -0.1450  0.4952 -0.1216
  920SOL     ow 3677   1.117   6.644   2.987 -0.8366  0.7365 -0.1052
  920SOL     hw 3678   1.064   6.564   2.982 -1.0996  0.9275 -0.4306
  920SOL     hw 3679   1.054   6.715   2.978 -0.4372  0.9561 -1.3551
  920SOL     vw 3680   1.102   6.642   2.985 -0.8186  0.7906 -0.3130
  921SOL     ow 3681   6.692   5.703   5.737  0.3043 -0.4881  0.7430
  921SOL     hw 3682   6.724   5.785   5.699  2.3000 -0.6914  1.8918
  921SOL     hw 3683   6.760   5.639   5.717 -0.6303 -1.5922  0.9767
  921SOL     vw 3684   6.705   5.705   5.729  0.4444 -0.6607  0.9253
  922SOL     ow 3685   4.099   1.615   2.958  0.2317  0.2892 -0.5954
  922SOL     hw 3686   4.026   1.610   3.019  0.0718  1.7230 -0.6442
  922SOL     hw 3687   4.141   1.529   2.964 -0.6868 -0.1129  0.3825
  922SOL     vw 3688   4.095   1.603   2.967  0.0896  0.4253 -0.4729
  923SOL     ow 3689   6.279   4.310   3.409 -0.0503 -0.0180  1.0156
  923SOL     hw 3690   6.345   4.348   3.466 -0.5521  0.2119  1.4513
  923SOL     hw 3691   6.195   4.335   3.449 -0.4316 -2.8525  2.2279
  923SOL     vw 3692   6.276   4.318   3.422 -0.1667 -0.3617  1.2330
  924SOL     ow 3693   0.619   6.278   4.241 -0.3268 -0.0763 -0.5086
  924SOL     hw 3694   0.565   6.212   4.198 -0.4534 -1.0895  1.1176
  924SOL     hw 3695   0.686   6.228   4.287  0.0404  0.9747  0.1348
  924SOL     vw 3696   0.620   6.263   4.241 -0.2950 -0.0713 -0.2093
  925SOL     ow 3697   4.314   3.976   1.279 -0.2834  0.4779 -0.7154
  925SOL     hw 3698   4.299   3.896   1.328  1.6966 -1.0945 -2.4678
  925SOL     hw 3699   4.395   4.013   1.316  0.0644  0.4115 -1.3833
  925SOL     vw 3700   4.323   3.971   1.290  0.0234  0.2615 -1.0347
  926SOL     ow 3701   1.178   6.518   1.476 -0.3652  0.5020 -0.3266
  926SOL     hw 3702   1.141   6.530   1.389 -4.5455  1.1556  1.3189
  926SOL     hw 3703   1.194   6.607   1.508 -1.3602  0.4102  0.4772
  926SOL     vw 3704   1.175   6.532   1.469 -1.0480  0.5760 -0.0035
  927SOL     ow 3705   4.115   1.095   0.204 -0.0697 -0.0295 -0.1534
  927SOL     hw 3706   4.127   1.063   0.293  0.3569 -0.0717 -0.2245
  927SOL     hw 3707   4.128   1.190   0.211 -3.2375  0.4828  0.4170
  927SOL     vw 3708   4.118   1.104   0.217 -0.4313  0.0325 -0.0875
  928SOL     ow 3709   4.929   3.969   2.435 -0.0455 -0.6286 -0.4149
  928SOL     hw 3710   4.992   3.930   2.496  0.4954 -1.6379 -1.5634
  928SOL     hw 3711   4.934   4.063   2.451  1.4060 -0.7372 -0.1320
  928SOL     vw 3712   4.938   3.976   2.445  0.2174 -0.7761 -0.5291
  929SOL     ow 3713   2.298   1.039   0.184 -0.0892 -0.6460  0.2556
  929SOL     hw 3714   2.280   1.038   0.278  0.0264 -0.4555  0.2804
  929SOL     hw 3715   2.295   1.132   0.160 -2.1772 -0.8276 -0.3308
  929SOL     vw 3716   2.295   1.051   0.193 -0.3495 -0.6449  0.1815
  930SOL     ow 3717   6.780   6.927   4.951  0.4879 -0.8500  0.8487
  930SOL     hw 3718   6.794   6.989   5.022  1.2701 -0.7808  0.6327
  930SOL     hw 3719   6.856   6.869   4.953 -0.2081 -1.7998  1.0298
  930SOL     vw 3720   6.792   6.927   4.960  0.4990 -0.9663  0.8442
  931SOL     ow 3721   6.217   2.101   0.896  0.1697  0.1726 -0.5166
  931SOL     hw 3722   6.246   2.191   0.913 -0.9899  0.2273  1.5501
  931SOL     hw 3723   6.153   2.084   0.965 -0.7553 -1.7371 -1.7730
  931SOL     vw 3724   6.212   2.111   0.908 -0.1054 -0.0721 -0.4097
  932SOL     ow 3725   6.944   2.013   3.155 -0.5914  0.2079 -0.7985
  932SOL     hw 3726   6.874   2.007   3.091 -1.8909  0.0229  0.5699
  932SOL     hw 3727   6.912   1.963   3.230  0.5373  1.0075  0.2666
  932SOL     vw 3728   6.930   2.006   3.157 -0.6137  0.2890 -0.4776
  933SOL     ow 3729   5.579   2.772   3.101  0.4989  0.2980  0.4191
  933SOL     hw 3730   5.542   2.705   3.158 -0.1530  0.8757  0.6927
  933SOL     hw 3731   5.529   2.852   3.122  1.7536  1.0502  0.6326
  933SOL     vw 3732   5.567   2.774   3.111  0.5784  0.4735  0.4834
  934SOL     ow 3733   7.004   0.321   6.143 -0.1732  0.3875  0.2755
  934SOL     hw 3734   6.963   0.407   6.138 -2.0160 -0.3666  1.4448
  934SOL     hw 3735   7.000   0.297   6.235 -1.9938 -1.9377 -0.2884
  934SOL     vw 3736   6.998   0.329   6.154 -0.6566 -0.0188  0.3555
  935SOL     ow 3737   0.234   6.127   2.332 -0.2130  0.8195 -0.7527
  935SOL     hw 3738   0.223   6.035   2.312  0.2648  0.4598  0.5399
  935SOL     hw 3739   0.317   6.151   2.289 -0.9380  0.9923 -2.1207
  935SOL     vw 3740   0.244   6.118   2.323 -0.2457  0.7949 -0.7627
  936SOL     ow 3741   0.497   5.820   3.432  0.6388 -0.5259 -0.0702
  936SOL     hw 3742   0.479   5.775   3.349 -1.6137  0.4008 -0.1739
  936SOL     hw 3743   0.417   5.869   3.450  0.9004 -0.9973  2.8787
  936SOL     vw 3744   0.484   5.820   3.423  0.3761 -0.4659  0.3052
  937SOL     ow 3745   1.024   3.623   7.073 -0.2971  0.3184  0.4848
  937SOL     hw 3746   1.030   3.527   7.077  0.7683  0.4296  3.2082
  937SOL     hw 3747   1.092   3.654   7.132 -1.6270  2.7383  0.8729
  937SOL     vw 3748   1.034   3.614   7.081 -0.3320  0.6523  0.8953
  938SOL     ow 3749   0.824   7.049   1.008  0.9637 -0.8990 -0.7938
  938SOL     hw 3750   0.865   6.974   0.966 -0.4482 -0.6632 -2.6846
  938SOL     hw 3751   0.735   7.020   1.028  0.7342 -0.0636 -0.5801
  938SOL     vw 3752   0.818   7.035   1.005  0.7472 -0.7577 -1.0151
  939SOL     ow 3753   5.987   2.684   6.705 -0.2919  0.5123  0.3255
  939SOL     hw 3754   6.057   2.691   6.640  0.5722  0.5172  1.2194
  939SOL     hw 3755   5.974   2.774   6.736 -0.1870  0.4121  0.6690
  939SOL     vw 3756   5.995   2.697   6.701 -0.1638  0.4998  0.4888
  940SOL     ow 3757   0.659   5.629   1.503 -0.1408 -0.6600 -0.3804
  940SOL     hw 3758   0.745   5.646   1.464 -0.1950  0.2459 -0.1085
  940SOL     hw 3759   0.637   5.709   1.551 -2.1026 -0.0390 -2.1676
  940SOL     vw 3760   0.668   5.642   1.504 -0.4067 -0.4585 -0.5803
  941SOL     ow 3761   3.515   2.906   3.926 -0.3107 -0.0633 -0.5742
  941SOL     hw 3762   3.471   2.944   4.001 -1.1387 -1.3625 -0.3621
  941SOL     hw 3763   3.608   2.904   3.951 -0.8302 -3.2302  1.8006
  941SOL     vw 3764   3.521   2.910   3.939 -0.4884 -0.6526 -0.2329
  942SOL     ow 3765   1.556   4.407   1.780  0.1252 -0.9083 -0.2342
  942SOL     hw 3766   1.634   4.380   1.828 -0.3326 -0.9801  0.4931
  942SOL     hw 3767   1.484   4.359   1.823 -0.5464  0.5296  0.2954
  942SOL     vw 3768   1.556   4.397   1.792 -0.0238 -0.7281 -0.0683
  943SOL     ow 3769   0.077   4.505   3.070  0.8293 -0.0626  0.5092
  943SOL     hw 3770   0.002   4.565   3.067 -0.5192 -1.6248  1.4495
  943SOL     hw 3771   0.120   4.525   3.153 -0.4722 -1.3215  1.5277
  943SOL     vw 3772   0.073   4.516   3.080  0.4799 -0.4349  0.7677
  944SOL     ow 3773   4.229   4.669   6.067  0.3529 -0.1440 -0.6641
  944SOL     hw 3774   4.150   4.685   6.015  0.5302 -2.3033 -1.7294
  944SOL     hw 3775   4.298   4.655   6.002  1.0321 -0.9218  0.2004
  944SOL     vw 3776   4.227   4.669   6.051  0.4659 -0.5314 -0.6905
  945SOL     ow 3777   0.169   7.110   3.939  0.3674 -0.1406 -0.6204
  945SOL     hw 3778   0.092   7.055   3.929 -0.4889  0.2758  2.6274
  945SOL     hw 3779   0.144   7.193   3.899 -0.1283 -0.5933 -1.2776
  945SOL     vw 3780   0.156   7.114   3.932  0.1890 -0.1454 -0.2787
  946SOL     ow 3781   4.671   0.291   2.204 -0.8994  0.0283  0.9344
  946SOL     hw 3782   4.764   0.285   2.225 -0.0252 -0.6183 -2.6198
  946SOL     hw 3783   4.628   0.236   2.270  1.5288 -1.9354  0.9851
  946SOL     vw 3784   4.677   0.283   2.216 -0.4637 -0.3161  0.4722
  947SOL     ow 3785   4.769   3.028   5.172 -0.2323 -0.0758  0.3800
  947SOL     hw 3786   4.737   3.073   5.093  0.1901  0.3656  0.4542
  947SOL     hw 3787   4.834   2.966   5.140 -0.0954  0.0700  0.3725
  947SOL     vw 3788   4.774   3.026   5.157 -0.1583  0.0015  0.3886
  948SOL     ow 3789   3.680   4.428   3.152 -0.2738 -0.0155 -0.5603
  948SOL     hw 3790   3.768   4.463   3.157 -0.2049 -0.2935  0.2271
  948SOL     hw 3791   3.679   4.378   3.070  0.0948  0.5137 -0.8945
  948SOL     vw 3792   3.691   4.426   3.142 -0.2160  0.0176 -0.5003
  949SOL     ow 3793   3.965   6.825   1.129  0.4113  0.3790  0.5715
  949SOL     hw 3794   3.876   6.829   1.165 -0.0292  1.1043 -0.5724
  949SOL     hw 3795   4.004   6.909   1.151  0.1666  0.7968 -0.5393
  949SOL     vw 3796   3.958   6.836   1.137  0.3209  0.5298  0.2741
  950SOL     ow 3797   4.265   1.097   6.344 -0.1155  0.5069  0.4055
  950SOL     hw 3798   4.349   1.054   6.330 -0.6617 -0.0679 -1.4715
  950SOL     hw 3799   4.269   1.131   6.433  1.7844 -0.1954  0.6244
  950SOL     vw 3800   4.276   1.096   6.354  0.0629  0.3384  0.1867
  951SOL     ow 3801   0.823   3.029   3.618 -0.3905  0.3112  0.1413
  951SOL     hw 3802   0.900   2.972   3.622 -2.1382 -2.2993 -0.5917
  951SOL     hw 3803   0.794   3.036   3.710  1.0144  1.8656  0.5112
  951SOL     vw 3804   0.829   3.022   3.631 -0.4358  0.1718  0.0933
  952SOL     ow 3805   4.554   4.292   0.335  0.3298  0.8087  0.2663
  952SOL     hw 3806   4.570   4.386   0.337  0.4121  0.7883  0.7166
  952SOL     hw 3807   4.474   4.279   0.386  0.2187  0.6513  0.0574
  952SOL     vw 3808   4.546   4.302   0.342  0.3259  0.7854  0.2982
  953SOL     ow 3809   3.073   2.381   1.793 -0.0625 -0.1135  0.5490
  953SOL     hw 3810   3.067   2.377   1.697 -2.7086 -1.3385  0.6804
  953SOL     hw 3811   3.164   2.405   1.810 -0.0133  2.2539 -2.2938
  953SOL     vw 3812   3.084   2.384   1.782 -0.4051  0.0371  0.1912
  954SOL     ow 3813   6.427   4.143   4.442 -0.0921 -0.7626 -0.6478
  954SOL     hw 3814   6.450   4.150   4.534 -0.8318 -0.3475 -0.4871
  954SOL     hw 3815   6.332   4.156   4.439 -0.1041 -0.9402 -1.4453
  954SOL     vw 3816   6.418   4.146   4.453 -0.1910 -0.7315 -0.7317
  955SOL     ow 3817   5.693   1.258   2.497  0.6893 -0.1134  0.4879
  955SOL     hw 3818   5.744   1.274   2.418  0.3396  0.0221  0.2883
  955SOL     hw 3819   5.690   1.342   2.542 -1.7325  0.6448 -0.9024
  955SOL     vw 3820   5.700   1.271   2.493  0.3238  0.0045  0.2782
  956SOL     ow 3821   2.939   6.770   4.854  0.2212  0.6824  0.1695
  956SOL     hw 3822   2.895   6.799   4.934  3.2224  2.9684  1.1767
  956SOL     hw 3823   3.032   6.789   4.869  1.0493  0.3069 -3.5062
  956SOL     vw 3824   2.946   6.776   4.866  0.7266  0.9344 -0.1826
  957SOL     ow 3825   6.824   0.212   2.048 -0.1315 -0.3589 -0.6824
  957SOL     hw 3826   6.792   0.290   2.094  0.8566 -0.9546  1.1135
  957SOL     hw 3827   6.768   0.205   1.971 -1.6818  0.8627  0.2779
  957SOL     vw 3828   6.813   0.222   2.044 -0.2058 -0.2763 -0.3188
  958SOL     ow 3829   0.683   3.004   3.353  0.4358  0.2990 -0.1286
  958SOL     hw 3830   0.605   3.021   3.300 -1.1266 -1.9105  1.2919
  958SOL     hw 3831   0.668   2.917   3.390  1.6737  1.4489  3.4723
  958SOL     vw 3832   0.671   2.994   3.351  0.3930  0.1591  0.5341
  959SOL     ow 3833   3.190   6.678   4.465 -0.2299  0.3658 -0.4187
  959SOL     hw 3834   3.182   6.603   4.406  0.0444  0.8591 -1.0985
  959SOL     hw 3835   3.283   6.683   4.484 -0.1910  0.7863 -0.7146
  959SOL     vw 3836   3.201   6.669   4.460 -0.1886  0.4861 -0.5474
  960SOL     ow 3837   5.382   2.190   3.899  0.5115  0.2736  0.0069
  960SOL     hw 3838   5.364   2.271   3.852  4.0259  0.9852 -0.4175
  960SOL     hw 3839   5.348   2.206   3.987  0.5984  1.9874 -0.2266
  960SOL     vw 3840   5.375   2.203   3.904  0.9866  0.5937 -0.0799
  961SOL     ow 3841   2.385   6.317   1.194  0.1345  0.0488 -0.7851
  961SOL     hw 3842   2.445   6.314   1.119  0.5601 -0.2626 -0.4388
  961SOL     hw 3843   2.439   6.349   1.266 -0.9372  3.1393 -1.2036
  961SOL     vw 3844   2.400   6.321   1.194  0.0492  0.4156 -0.7946
  962SOL     ow 3845   6.254   4.265   4.967  0.0550 -0.0456  0.4526
  962SOL     hw 3846   6.348   4.260   4.985  0.0204  1.2443  1.0659
  962SOL     hw 3847   6.213   4.268   5.053 -0.6179 -1.1754  0.2023
  962SOL     vw 3848   6.261   4.264   4.981 -0.0384 -0.0243  0.5004
  963SOL     ow 3849   3.728   0.914   6.402  0.2211 -0.0965  0.4017
  963SOL     hw 3850   3.755   0.847   6.465 -1.5595  0.3164  1.6707
  963SOL     hw 3851   3.737   0.872   6.316  0.9914 -1.2781  1.0373
  963SOL     vw 3852   3.733   0.900   6.399  0.0877 -0.1979  0.6530
  964SOL     ow 3853   0.328   0.804   6.945 -0.4043 -0.8721  0.2791
  964SOL     hw 3854   0.273   0.763   6.879  0.0040  1.1308 -1.4203
  964SOL     hw 3855   0.266   0.844   7.007 -0.8641 -0.3538 -0.4978
  964SOL     vw 3856   0.312   0.804   6.944 -0.4111 -0.5394 -0.0479
  965SOL     ow 3857   2.341   2.528   4.061 -0.5169 -0.0394  0.3577
  965SOL     hw 3858   2.365   2.511   4.152  4.7084 -0.2121 -0.7233
  965SOL     hw 3859   2.346   2.623   4.052  2.0402 -0.1589 -0.2393
  965SOL     vw 3860   2.345   2.538   4.072  0.5097 -0.0780  0.1364
  966SOL     ow 3861   2.600   3.745   4.009  0.3143  0.5582 -0.6495
  966SOL     hw 3862   2.645   3.743   4.094 -0.7640  1.8567 -0.0085
  966SOL     hw 3863   2.665   3.712   3.947  2.0023  1.8708  0.3146
  966SOL     vw 3864   2.615   3.740   4.012  0.3947  0.9025 -0.4377
  967SOL     ow 3865   3.045   5.145   2.951  0.5855 -0.5138  0.5274
  967SOL     hw 3866   3.013   5.106   3.032  1.0899 -3.9939 -0.7792
  967SOL     hw 3867   2.982   5.116   2.884  1.2199  0.6716 -0.6370
  967SOL     vw 3868   3.032   5.136   2.953  0.7358 -0.8163  0.2016
  968SOL     ow 3869   2.185   4.450   1.044  0.9296  0.5372 -0.4121
  968SOL     hw 3870   2.107   4.440   1.099  1.4368  1.2606  0.4709
  968SOL     hw 3871   2.187   4.371   0.991 -0.2539  0.3795 -0.2520
  968SOL     vw 3872   2.175   4.438   1.044  0.8403  0.6118 -0.2745
  969SOL     ow 3873   5.965   2.319   6.906 -0.7089 -0.2297 -0.1516
  969SOL     hw 3874   5.964   2.259   6.980  0.5862  1.0902  1.0089
  969SOL     hw 3875   5.923   2.399   6.940  2.9840  1.6806  0.4647
  969SOL     vw 3876   5.959   2.322   6.921 -0.0505  0.1963  0.0830
  970SOL     ow 3877   6.479   5.205   0.912 -0.2050 -0.3355 -0.2342
  970SOL     hw 3878   6.498   5.195   0.819  0.0150  1.5823 -0.4279
  970SOL     hw 3879   6.519   5.288   0.936  1.0821 -1.5209  1.9700
  970SOL     vw 3880   6.487   5.214   0.903 -0.0062 -0.2387  0.0311
  971SOL     ow 3881   6.573   4.520   1.987 -0.4189  0.4244 -0.1448
  971SOL     hw 3882   6.594   4.603   1.944 -0.3832  0.4171 -0.1418
  971SOL     hw 3883   6.491   4.538   2.034 -1.4050 -0.0467 -1.6055
  971SOL     vw 3884   6.565   4.534   1.988 -0.5445  0.3612 -0.3372
  972SOL     ow 3885   4.340   5.666   3.756 -0.7610 -0.0566  0.7173
  972SOL     hw 3886   4.321   5.600   3.690 -2.3029  1.2562 -0.2384
  972SOL     hw 3887   4.309   5.629   3.839 -1.0219 -0.7704  0.2985
  972SOL     vw 3888   4.333   5.653   3.758 -0.9987  0.0226  0.5360
  973SOL     ow 3889   4.111   6.576   1.007 -0.5769 -0.1352  0.1760
  973SOL     hw 3890   4.056   6.539   0.937  2.0160  0.8279 -2.5929
  973SOL     hw 3891   4.176   6.509   1.024 -0.4098  0.1664  0.7348
  973SOL     vw 3892   4.112   6.562   1.000 -0.2127  0.0317 -0.1156
  974SOL     ow 3893   4.358   0.312   2.959 -0.8625  0.2875 -0.5405
  974SOL     hw 3894   4.419   0.238   2.965 -0.4316  0.7452  1.7366
  974SOL     hw 3895   4.412   0.384   2.925 -0.4204  0.3732  0.3110
  974SOL     vw 3896   4.373   0.311   2.955 -0.7472  0.3592 -0.1276
  975SOL     ow 3897   7.076   3.346   3.781  0.4508  0.6385  0.0495
  975SOL     hw 3898   7.055   3.420   3.724  0.6134 -0.4352 -1.4795
  975SOL     hw 3899   6.994   3.327   3.827 -0.4491 -0.0580 -1.7521
  975SOL     vw 3900   7.062   3.353   3.780  0.3533  0.4051 -0.3899
  976SOL     ow 3901   6.889   2.111   0.902  0.8286  0.0903 -0.7964
  976SOL     hw 3902   6.891   2.164   0.822  0.2282 -0.7790 -1.4042
  976SOL     hw 3903   6.818   2.149   0.953 -0.0215 -0.5060 -1.5114
  976SOL     vw 3904   6.880   2.123   0.898  0.6373 -0.1030 -0.9709
  977SOL     ow 3905   3.714   2.348   6.862  0.2219  0.6180  0.1019
  977SOL     hw 3906   3.741   2.256   6.860 -0.0948  0.5258 -1.6666
  977SOL     hw 3907   3.760   2.385   6.938 -1.4745 -1.4962  2.3022
  977SOL     vw 3908   3.724   2.341   6.872 -0.0436  0.3269  0.1590
  978SOL     ow 3909   3.973   6.559   4.962  0.3296  0.1726 -0.0756
  978SOL     hw 3910   4.001   6.470   4.943 -2.5338 -0.0750 -4.6830
  978SOL     hw 3911   3.935   6.554   5.050  2.6009 -2.3552  0.9279
  978SOL     vw 3912   3.972   6.547   4.971  0.2514 -0.1936 -0.5510
  979SOL     ow 3913   1.873   5.034   1.734  0.3715 -0.1642 -0.0062
  979SOL     hw 3914   1.886   5.096   1.806 -3.1572  1.7903 -0.8151
  979SOL     hw 3915   1.962   5.013   1.705  1.8347  2.5516  1.9804
  979SOL     vw 3916   1.887   5.039   1.739  0.0990  0.4520  0.1491
  980SOL     ow 3917   4.882   6.582   1.111 -0.0795 -0.0401  0.0126
  980SOL     hw 3918   4.921   6.543   1.032 -0.7742  2.5866 -1.7371
  980SOL     hw 3919   4.888   6.676   1.098 -1.6217  0.5032  2.4378
  980SOL     vw 3920   4.888   6.589   1.099 -0.3746  0.3779  0.1017
  981SOL     ow 3921   2.905   5.124   5.178 -0.0254  0.6211  0.3114
  981SOL     hw 3922   2.955   5.198   5.143 -0.0898  0.0873 -0.9687
  981SOL     hw 3923   2.833   5.164   5.227  1.6420  1.4136  2.2598
  981SOL     vw 3924   2.902   5.139   5.180  0.1862  0.6549  0.3996
  982SOL     ow 3925   1.043   5.434   4.861 -0.0616  0.1539  0.4198
  982SOL     hw 3926   1.048   5.357   4.804  0.0601  0.4289  0.0539
  982SOL     hw 3927   0.956   5.470   4.845  0.2085  0.6047 -0.0937
  982SOL     vw 3928   1.033   5.429   4.851 -0.0099  0.2499  0.3040
  983SOL     ow 3929   5.881   2.902   1.225  0.0752 -0.1651 -0.7121
  983SOL     hw 3930   5.821   2.976   1.216  0.2111  0.2803  1.4122
  983SOL     hw 3931   5.850   2.837   1.162 -2.8435 -0.0791  0.4765
  983SOL     vw 3932   5.869   2.903   1.215 -0.2921 -0.0950 -0.2750
  984SOL     ow 3933   4.074   1.247   6.302  0.2598  0.2409 -0.1216
  984SOL     hw 3934   4.077   1.312   6.232 -0.1868  0.3139 -0.0803
  984SOL     hw 3935   4.159   1.205   6.300  0.1685  0.0784 -0.8684
  984SOL     vw 3936   4.085   1.250   6.292  0.1888  0.2291 -0.2148
  985SOL     ow 3937   6.703   0.019   0.293  0.4800  0.1387 -0.0135
  985SOL     hw 3938   6.691   0.047   0.203  1.2121 -1.2364 -0.5827
  985SOL     hw 3939   6.664   0.088   0.346 -0.1426  0.8712 -1.3850
  985SOL     vw 3940   6.697   0.032   0.288  0.4942  0.0539 -0.2696
  986SOL     ow 3941   1.237   3.310   4.344  0.2532  0.1956  0.5805
  986SOL     hw 3942   1.241   3.215   4.340 -1.7273  0.0851  0.5264
  986SOL     hw 3943   1.153   3.333   4.304  1.3840  2.0847 -0.8947
  986SOL     vw 3944   1.227   3.301   4.338  0.1410  0.4301  0.3786
  987SOL     ow 3945   3.642   4.933   2.932  0.0424 -0.8952  0.2463
  987SOL     hw 3946   3.711   4.988   2.894  0.0157 -0.5705  0.6678
  987SOL     hw 3947   3.592   4.902   2.856  0.0505 -0.3335  0.0084
  987SOL     vw 3948   3.645   4.936   2.917  0.0399 -0.7780  0.2706
  988SOL     ow 3949   1.454   4.934   6.284  0.1447  0.3480 -0.5508
  988SOL     hw 3950   1.461   4.949   6.190 -2.2390  4.0369 -0.3874
  988SOL     hw 3951   1.384   4.870   6.293 -0.2405  0.6467 -1.3315
  988SOL     vw 3952   1.445   4.928   6.273 -0.2205  0.8738 -0.6320
  989SOL     ow 3953   2.325   6.475   4.044 -0.5747 -0.6366 -0.3635
  989SOL     hw 3954   2.322   6.497   4.137  0.4636  0.6334 -0.5942
  989SOL     hw 3955   2.255   6.526   4.004 -0.9757 -1.1283 -0.2926
  989SOL     vw 3956   2.316   6.484   4.051 -0.4905 -0.5341 -0.3843
  990SOL     ow 3957   6.377   2.443   3.600  0.5301  0.1050 -0.3816
  990SOL     hw 3958   6.388   2.437   3.695  2.0903  0.8540 -0.4776
  990SOL     hw 3959   6.441   2.509   3.573 -0.0505  0.0686 -1.9310
  990SOL     vw 3960   6.387   2.451   3.609  0.6597  0.1990 -0.5988
  991SOL     ow 3961   5.238   2.383   6.752  0.0771  0.1018 -0.1806
  991SOL     hw 3962   5.298   2.405   6.681  1.4940  0.3047  1.0475
  991SOL     hw 3963   5.238   2.460   6.809 -1.1035 -0.0248  0.0252
  991SOL     vw 3964   5.246   2.396   6.750  0.1082  0.1118  0.0083
  992SOL     ow 3965   5.192   5.277   0.807 -0.2715 -0.3833 -0.1127
  992SOL     hw 3966   5.274   5.302   0.764 -0.6180  1.0719  0.0127
  992SOL     hw 3967   5.203   5.305   0.898 -0.7110 -0.6390  0.0233
  992SOL     vw 3968   5.204   5.284   0.814 -0.3750 -0.2253 -0.0782
  993SOL     ow 3969   3.840   5.437   4.826 -0.3200  0.2121  0.2539
  993SOL     hw 3970   3.895   5.482   4.890  0.2836 -2.5825  1.8755
  993SOL     hw 3971   3.882   5.455   4.742  0.7281  1.4117  0.9949
  993SOL     vw 3972   3.853   5.445   4.823 -0.1020  0.0017  0.5658
  994SOL     ow 3973   1.327   0.154   2.581 -0.6007  0.3309  0.0188
  994SOL     hw 3974   1.399   0.218   2.575 -1.2695  1.0216 -1.1069
  994SOL     hw 3975   1.370   0.069   2.573  0.3408  0.5939  1.7851
  994SOL     vw 3976   1.342   0.152   2.579 -0.5647  0.4567  0.1032
  995SOL     ow 3977   1.099   6.243   2.352 -0.0326  0.1977 -0.0058
  995SOL     hw 3978   1.153   6.165   2.365 -0.5578  0.0263  1.3629
  995SOL     hw 3979   1.011   6.209   2.338 -0.3813  0.5287  1.2433
  995SOL     vw 3980   1.094   6.228   2.352 -0.1479  0.2186  0.3395
  996SOL     ow 3981   4.060   4.756   2.521  0.1279  0.5865  0.4001
  996SOL     hw 3982   4.048   4.842   2.481 -0.3078  1.8708  3.0248
  996SOL     hw 3983   4.140   4.722   2.482 -1.7364  0.2913 -3.6771
  996SOL     vw 3984   4.069   4.763   2.511 -0.1755  0.7172  0.2085
  997SOL     ow 3985   6.749   5.651   2.803  0.8056  0.1482  0.1102
  997SOL     hw 3986   6.774   5.559   2.803  3.4590  0.8032  1.1915
  997SOL     hw 3987   6.680   5.657   2.869  0.4441 -1.0672 -0.1268
  997SOL     vw 3988   6.743   5.640   2.812  1.1079  0.0744  0.2215
  998SOL     ow 3989   3.260   2.499   2.569  0.3013  0.1244  0.5681
  998SOL     hw 3990   3.189   2.454   2.523 -0.1931 -2.4241  3.4600
  998SOL     hw 3991   3.337   2.486   2.513 -0.2894 -2.6307  0.2449
  998SOL     vw 3992   3.261   2.491   2.556  0.1581 -0.5753  0.9069
  999SOL     ow 3993   5.976   4.523   1.441  0.6244 -0.2218  0.6616
  999SOL     hw 3994   6.025   4.598   1.474  0.2794  0.7165 -0.8540
  999SOL     hw 3995   6.034   4.448   1.454  0.3274 -0.0614  3.7893
  999SOL     vw 3996   5.990   4.523   1.447  0.5398 -0.0768  0.8743
 1000SOL     ow 3997   0.994   0.446   5.571 -0.2459 -0.2285 -0.3560
 1000SOL     hw 3998   1.027   0.536   5.572  2.4005 -1.1164 -0.6187
 1000SOL     hw 3999   1.020   0.412   5.486  1.5912 -2.1461  0.8818
 1000SOL     vw 4000   1.001   0.454   5.560  0.3457 -0.5986 -0.2275
 1001SOL     ow 4001   6.691   2.763   6.929  0.1044  0.1436  0.1967
 1001SOL     hw 4002   6.610   2.786   6.974  0.4926 -0.3042  1.1607
 1001SOL     hw 4003   6.731   2.847   6.908 -1.7890  0.4629 -2.6103
 1001SOL     vw 4004   6.686   2.777   6.932 -0.0942  0.1266 -0.0465
 1002SOL     ow 4005   3.189   6.658   0.927  0.1115  0.5077  0.4237
 1002SOL     hw 4006   3.157   6.682   0.840 -1.9105 -0.1190  0.9312
 1002SOL     hw 4007   3.153   6.570   0.942  0.0501  0.7770  2.0524
 1002SOL     vw 4008   3.180   6.650   0.918 -0.1634  0.4606  0.7055
 1003SOL     ow 4009   0.467   1.855   0.928  0.4559 -0.7646  0.1308
 1003SOL     hw 4010   0.451   1.858   0.834 -1.1500 -2.4537  0.2789
 1003SOL     hw 4011   0.380   1.857   0.968  0.9070 -2.8924  1.4220
 1003SOL     vw 4012   0.453   1.856   0.921  0.3035 -1.2683  0.3207
 1004SOL     ow 4013   3.676   3.138   0.603 -0.2519  0.1130  0.5529
 1004SOL     hw 4014   3.665   3.169   0.513  1.0571  0.2729  0.4369
 1004SOL     hw 4015   3.769   3.150   0.622 -0.1977 -1.3725  1.3830
 1004SOL     vw 4016   3.686   3.143   0.593 -0.0720 -0.0619  0.6471
 1005SOL     ow 4017   0.972   1.155   4.537 -0.2906 -0.0406 -0.4640
 1005SOL     hw 4018   0.992   1.118   4.451  0.0863  2.2646 -1.4522
 1005SOL     hw 4019   0.905   1.097   4.573 -2.3890  0.2808 -3.4249
 1005SOL     vw 4020   0.966   1.143   4.530 -0.5177  0.3060 -0.9847
 1006SOL     ow 4021   4.364   0.536   3.835  0.0761  0.1488 -0.2530
 1006SOL     hw 4022   4.337   0.444   3.838  2.4925 -0.6326  0.2496
 1006SOL     hw 4023   4.398   0.554   3.923  0.8935  1.0804 -0.7349
 1006SOL     vw 4024   4.365   0.526   3.847  0.5028  0.1686 -0.2502
 1007SOL     ow 4025   3.085   1.218   7.039 -0.3291  0.0009 -0.1359
 1007SOL     hw 4026   3.044   1.236   7.123 -0.1905 -0.1788 -0.0281
 1007SOL     hw 4027   3.163   1.273   7.038 -0.3443  0.0220 -0.1571
 1007SOL     vw 4028   3.090   1.227   7.050 -0.3128 -0.0201 -0.1245
 1008SOL     ow 4029   4.520   0.460   2.780  0.8062 -0.3581  0.6557
 1008SOL     hw 4030   4.520   0.554   2.761  0.6772 -0.4897 -0.0060
 1008SOL     hw 4031   4.461   0.422   2.715 -0.0636 -0.7584  1.6493
 1008SOL     vw 4032   4.512   0.467   2.769  0.6747 -0.4283  0.6994
 1009SOL     ow 4033   2.809   6.256   0.354  0.1805 -0.3714 -0.6904
 1009SOL     hw 4034   2.836   6.164   0.353  0.4814 -0.2769 -1.2694
 1009SOL     hw 4035   2.862   6.296   0.423 -0.2743 -0.7220 -0.1217
 1009SOL     vw 4036   2.819   6.249   0.363  0.1603 -0.4053 -0.6917
 1010SOL     ow 4037   1.650   3.496   5.707  0.3191  0.8290 -0.2477
 1010SOL     hw 4038   1.564   3.471   5.673 -0.4177  1.0034  1.4073
 1010SOL     hw 4039   1.679   3.568   5.651 -0.9343  1.2336 -0.3965
 1010SOL     vw 4040   1.643   3.502   5.695  0.0565  0.9054 -0.0491
 1011SOL     ow 4041   0.828   1.439   4.097 -0.1890  0.3842 -0.2369
 1011SOL     hw 4042   0.913   1.406   4.125  0.4103  2.5218  0.6916
 1011SOL     hw 4043   0.767   1.408   4.163  0.2820  0.7675  0.3892
 1011SOL     vw 4044   0.831   1.431   4.109 -0.0478  0.7168 -0.0317
 1012SOL     ow 4045   2.964   5.070   3.209  0.2626 -0.2403 -0.9297
 1012SOL     hw 4046   2.949   5.021   3.289  1.3640 -2.7697 -2.1452
 1012SOL     hw 4047   2.969   5.162   3.237 -1.6409 -0.7732  1.5057
 1012SOL     vw 4048   2.963   5.076   3.223  0.1566 -0.6442 -0.7688
 1013SOL     ow 4049   6.545   2.251   5.927  0.9927  0.1488 -0.0289
 1013SOL     hw 4050   6.616   2.215   5.979  0.0687 -0.5817  0.7741
 1013SOL     hw 4051   6.539   2.194   5.851  1.2883  0.2315 -0.1125
 1013SOL     vw 4052   6.553   2.239   5.924  0.9096  0.0634  0.0660
 1014SOL     ow 4053   0.717   3.208   5.849 -0.5952 -0.4486  0.1615
 1014SOL     hw 4054   0.646   3.167   5.800 -1.3552  2.6506 -1.6306
 1014SOL     hw 4055   0.786   3.143   5.853 -2.7102 -2.8259  0.0758
 1014SOL     vw 4056   0.717   3.194   5.843 -0.9745 -0.3532 -0.0863
 1015SOL     ow 4057   3.620   0.099   3.376  0.8980 -0.4365  0.2349
 1015SOL     hw 4058   3.635   0.006   3.363  1.1457 -0.6169  1.6786
 1015SOL     hw 4059   3.696   0.129   3.425 -0.6669 -0.1691  2.6341
 1015SOL     vw 4060   3.632   0.091   3.381  0.7242 -0.4250  0.7420
 1016SOL     ow 4061   2.522   0.104   5.304  0.6643  0.8901  0.5390
 1016SOL     hw 4062   2.490   0.075   5.219 -0.1566  0.7927  0.8643
 1016SOL     hw 4063   2.581   0.176   5.285  1.9745 -0.3476 -0.2307
 1016SOL     vw 4064   2.525   0.109   5.290  0.7288  0.7139  0.4804
 1017SOL     ow 4065   3.175   6.925   3.064  0.5838  0.0587  0.1071
 1017SOL     hw 4066   3.191   6.967   3.149 -1.9489 -0.9314  1.1558
 1017SOL     hw 4067   3.213   6.986   3.000 -0.8144  2.7880  1.6871
 1017SOL     vw 4068   3.182   6.939   3.067  0.0652  0.2882  0.4541
 1018SOL     ow 4069   1.197   2.788   6.348  0.4716 -0.3852 -0.1561
 1018SOL     hw 4070   1.125   2.727   6.360  0.1129  0.1870  0.7061
 1018SOL     hw 4071   1.205   2.797   6.253 -3.1420  2.4419 -0.4068
 1018SOL     vw 4072   1.189   2.781   6.337 -0.0525  0.0632 -0.0756
 1019SOL     ow 4073   7.027   4.894   6.653  0.3255 -0.5911  0.3745
 1019SOL     hw 4074   7.018   4.907   6.559  3.1357  0.9385  0.2099
 1019SOL     hw 4075   7.011   4.800   6.666 -0.4793 -0.7520 -1.5349
 1019SOL     vw 4076   7.024   4.883   6.643  0.5903 -0.4103  0.1009
 1020SOL     ow 4077   0.038   1.056   5.204 -0.0927 -0.2477  0.3077
 1020SOL     hw 4078   0.118   1.009   5.227  0.0658  0.7777  1.9684
 1020SOL     hw 4079  -0.031   1.010   5.252 -0.6753 -1.5703 -1.6642
 1020SOL     vw 4080   0.039   1.044   5.213 -0.1487 -0.2869  0.2663
 1021SOL     ow 4081   0.016   6.009   5.330 -0.1577  0.0004  0.2811
 1021SOL     hw 4082   0.071   5.965   5.265  0.8025 -0.2954  1.2687
 1021SOL     hw 4083   0.069   6.011   5.410  0.0981  3.4138  0.2002
 1021SOL     vw 4084   0.031   6.004   5.332  0.0027  0.4117  0.4008
 1022SOL     ow 4085   4.698   2.373   4.983  0.1388  0.0787 -0.1108
 1022SOL     hw 4086   4.651   2.333   4.911  0.2807 -1.6851  0.7159
 1022SOL     hw 4087   4.788   2.384   4.951  0.4346 -1.5722  0.0576
 1022SOL     vw 4088   4.704   2.369   4.969  0.1965 -0.3718  0.0207
 1023SOL     ow 4089   0.976   5.210   2.633 -0.4863 -0.1126 -0.4483
 1023SOL     hw 4090   0.898   5.255   2.599  0.5389  0.6663 -1.8736
 1023SOL     hw 4091   1.044   5.277   2.635  0.8679 -1.3549 -1.8455
 1023SOL     vw 4092   0.974   5.225   2.629 -0.1723 -0.1738 -0.8206
 1024SOL     ow 4093   4.834   1.885   2.320  0.2940  0.1898  0.1626
 1024SOL     hw 4094   4.822   1.887   2.415 -1.6804 -0.3309 -0.0186
 1024SOL     hw 4095   4.830   1.793   2.297 -1.0267  0.3981 -0.5728
 1024SOL     vw 4096   4.832   1.873   2.329 -0.1404  0.1485  0.0416
 1025SOL     ow 4097   3.156   6.672   3.139 -0.4300  0.3862 -0.3787
 1025SOL     hw 4098   3.163   6.753   3.088 -1.4003 -0.8656 -2.5960
 1025SOL     hw 4099   3.064   6.668   3.164 -0.1477  0.5119  0.7586
 1025SOL     vw 4100   3.145   6.682   3.136 -0.5208  0.2372 -0.5211
 1026SOL     ow 4101   2.437   0.982   7.223 -0.2339  0.7989 -0.0677
 1026SOL     hw 4102   2.408   0.982   7.315 -0.8282 -0.9045 -0.2315
 1026SOL     hw 4103   2.509   1.045   7.221  0.0935  0.5235  1.6654
 1026SOL     vw 4104   2.442   0.991   7.235 -0.2692  0.5378  0.1392
 1027SOL     ow 4105   1.499   1.661   1.991  0.0750  0.9389 -0.3097
 1027SOL     hw 4106   1.498   1.597   1.919  0.3785 -0.3528  0.7984
 1027SOL     hw 4107   1.444   1.733   1.960  1.0126  0.8895 -2.2482
 1027SOL     vw 4108   1.492   1.662   1.977  0.2388  0.7620 -0.4193
 1028SOL     ow 4109   2.987   6.489   5.828 -0.0293  0.1381  0.3000
 1028SOL     hw 4110   3.071   6.447   5.842 -0.5514 -0.4475  1.9221
 1028SOL     hw 4111   3.002   6.549   5.754  1.2830 -1.3180 -0.6975
 1028SOL     vw 4112   3.000   6.491   5.820  0.0750 -0.1314  0.3824
 1029SOL     ow 4113   2.055   0.021   2.830 -0.0881 -0.6088  0.3464
 1029SOL     hw 4114   2.002  -0.059   2.828  1.3890 -1.6462  1.1514
 1029SOL     hw 4115   2.045   0.054   2.919 -0.1057 -0.2959  0.2297
 1029SOL     vw 4116   2.047   0.015   2.841  0.1045 -0.7044  0.4373
 1030SOL     ow 4117   2.649   5.713   5.441  0.0751  0.0400  0.1401
 1030SOL     hw 4118   2.684   5.649   5.379  1.4507  1.2315 -0.3940
 1030SOL     hw 4119   2.662   5.673   5.527  0.1932 -0.7084 -0.2153
 1030SOL     vw 4120   2.655   5.699   5.444  0.2723  0.0985  0.0226
 1031SOL     ow 4121   5.884   3.925   1.030  0.5787  0.0944 -0.7675
 1031SOL     hw 4122   5.906   3.955   0.942  1.1822  2.0063 -0.0144
 1031SOL     hw 4123   5.813   3.983   1.058 -0.3903 -1.2146 -0.3716
 1031SOL     vw 4124   5.877   3.937   1.022  0.5305  0.1740 -0.6159
 1032SOL     ow 4125   2.750   1.535   3.762  0.1072  0.4082 -0.4441
 1032SOL     hw 4126   2.685   1.547   3.832  0.1728  0.1418 -0.3366
 1032SOL     hw 4127   2.811   1.607   3.773  0.7828 -0.2838  0.5051
 1032SOL     vw 4128   2.749   1.546   3.773  0.2048  0.2818 -0.3047
 1033SOL     ow 4129   4.667   5.582   2.884  0.3697  0.4890 -0.4229
 1033SOL     hw 4130   4.679   5.488   2.880 -1.0827  0.1450  1.6708
 1033SOL     hw 4131   4.752   5.618   2.857  0.9461 -1.3897 -1.2610
 1033SOL     vw 4132   4.680   5.575   2.880  0.2542  0.1955 -0.2573
 1034SOL     ow 4133   1.691   3.147   4.067 -0.8345  0.1613  0.0830
 1034SOL     hw 4134   1.768   3.202   4.079 -0.2546 -0.2369 -1.6011
 1034SOL     hw 4135   1.683   3.099   4.150 -1.1417  2.4451  1.4480
 1034SOL     vw 4136   1.700   3.148   4.080 -0.7985  0.4100  0.0410
 1035SOL     ow 4137   5.454   2.996   1.719 -1.2079 -0.9667 -0.1707
 1035SOL     hw 4138   5.489   3.007   1.807  0.1105  0.0527 -0.7971
 1035SOL     hw 4139   5.503   3.059   1.665 -1.7952 -1.7562 -1.6820
 1035SOL     vw 4140   5.465   3.006   1.723 -1.1115 -0.9364 -0.4528
 1036SOL     ow 4141   1.320   1.833   1.107  0.3793 -0.1048 -0.4393
 1036SOL     hw 4142   1.363   1.772   1.168  0.2111 -0.2948 -0.5113
 1036SOL     hw 4143   1.243   1.864   1.154  0.7673  0.4853 -0.1846
 1036SOL     vw 4144   1.316   1.829   1.121  0.4083 -0.0520 -0.4153
 1037SOL     ow 4145   6.245   6.059   0.532  0.0321  0.5526  0.4607
 1037SOL     hw 4146   6.263   6.003   0.607 -1.4388  0.6531  0.9180
 1037SOL     hw 4147   6.206   5.999   0.467  1.6117  0.3900 -0.4043
 1037SOL     vw 4148   6.242   6.043   0.533  0.0463  0.5443  0.4069
 1038SOL     ow 4149   6.911   0.612   6.864 -0.0751 -0.4054 -0.4356
 1038SOL     hw 4150   6.883   0.664   6.939  0.5929  1.1544 -1.2087
 1038SOL     hw 4151   6.884   0.523   6.885 -0.9985  0.1881  1.0905
 1038SOL     vw 4152   6.904   0.607   6.877 -0.1087 -0.1213 -0.3364
 1039SOL     ow 4153   5.914   0.720   0.578 -0.5760  0.8605 -0.5144
 1039SOL     hw 4154   5.960   0.784   0.633  2.3090 -3.4811  2.8334
 1039SOL     hw 4155   5.822   0.732   0.599  0.1622  1.4763  3.0896
 1039SOL     vw 4156   5.908   0.730   0.588 -0.0978  0.3689  0.4028
 1040SOL     ow 4157   2.264   4.671   0.860 -0.2463  0.2351  0.6552
 1040SOL     hw 4158   2.170   4.662   0.846 -0.5346  0.6574  2.1282
 1040SOL     hw 4159   2.301   4.684   0.772 -1.4782 -0.5632  0.0005
 1040SOL     vw 4160   2.257   4.672   0.847 -0.4469  0.1853  0.7632
 1041SOL     ow 4161   4.775   0.041   1.740  0.1246 -0.0777 -0.7514
 1041SOL     hw 4162   4.681   0.059   1.743  0.1783  0.4286 -1.8030
 1041SOL     hw 4163   4.812   0.096   1.810 -0.6071 -2.1651  1.4213
 1041SOL     vw 4164   4.768   0.051   1.750  0.0350 -0.2863 -0.6035
 1042SOL     ow 4165   2.919   3.640   1.323  0.1568 -0.5862 -0.1433
 1042SOL     hw 4166   3.000   3.691   1.314 -0.0193  0.3565  2.5390
 1042SOL     hw 4167   2.916   3.617   1.416 -2.3066 -1.2323 -0.3206
 1042SOL     vw 4168   2.929   3.644   1.334 -0.1913 -0.5471  0.1873
 1043SOL     ow 4169   5.552   2.223   5.650 -0.2894 -0.1075  0.3751
 1043SOL     hw 4170   5.505   2.303   5.676  0.1098  0.7939 -1.5114
 1043SOL     hw 4171   5.484   2.167   5.613  0.0212  1.4960 -3.0551
 1043SOL     vw 4172   5.537   2.226   5.648 -0.1957  0.2230 -0.3264
 1044SOL     ow 4173   0.426   2.571   5.989  0.0339  0.8482  0.2679
 1044SOL     hw 4174   0.448   2.497   5.933 -0.6364  0.3798  0.5992
 1044SOL     hw 4175   0.414   2.644   5.929  0.1516  0.5537 -0.1191
 1044SOL     vw 4176   0.427   2.571   5.974 -0.0390  0.7476  0.2606
 1045SOL     ow 4177   0.053   0.472   1.066  0.0666  0.1134  0.1954
 1045SOL     hw 4178  -0.032   0.488   1.107 -0.3425 -1.0784 -0.1654
 1045SOL     hw 4179   0.062   0.377   1.064  1.7342  0.2188  0.8678
 1045SOL     vw 4180   0.043   0.462   1.071  0.2327 -0.0299  0.2365
 1046SOL     ow 4181   3.126   6.972   4.910  0.0211 -0.0179 -0.0235
 1046SOL     hw 4182   3.208   6.970   4.960 -0.2976  1.2643  0.6083
 1046SOL     hw 4183   3.152   6.999   4.822  0.5580 -2.0372 -0.5387
 1046SOL     vw 4184   3.140   6.975   4.905  0.0499 -0.1154 -0.0079
 1047SOL     ow 4185   4.536   1.167   4.908 -0.4481  0.5765 -0.2650
 1047SOL     hw 4186   4.495   1.089   4.944 -0.7667  1.4932  1.4682
 1047SOL     hw 4187   4.624   1.138   4.883 -1.6133 -1.0951 -2.8205
 1047SOL     vw 4188   4.542   1.153   4.910 -0.6437  0.4769 -0.3734
 1048SOL     ow 4189   6.391   4.442   3.164  0.4210  0.2708  0.5602
 1048SOL     hw 4190   6.486   4.435   3.155  0.4995 -0.5151  1.7973
 1048SOL     hw 4191   6.366   4.509   3.101  1.9865  1.6705  1.3555
 1048SOL     vw 4192   6.400   4.450   3.154  0.6378  0.3519  0.8284
 1049SOL     ow 4193   2.146   6.113   5.423  0.3795 -0.0802 -0.6472
 1049SOL     hw 4194   2.148   6.017   5.429  1.5383 -0.1096 -1.3470
 1049SOL     hw 4195   2.163   6.143   5.513  1.1997 -0.5329 -0.6444
 1049SOL     vw 4196   2.148   6.104   5.436  0.6405 -0.1440 -0.7393
 1050SOL     ow 4197   0.664   6.595   4.307  0.0699  0.1975 -0.4238
 1050SOL     hw 4198   0.695   6.682   4.331 -2.1939  0.9470  0.0576
 1050SOL     hw 4199   0.628   6.605   4.218  0.9479 -0.5866 -0.8930
 1050SOL     vw 4200   0.663   6.607   4.298 -0.1129  0.1931 -0.4222
 1051SOL     ow 4201   5.379   2.518   5.349  0.1042 -0.2165 -0.1657
 1051SOL     hw 4202   5.364   2.471   5.267  1.0775 -0.9608  0.0693
 1051SOL     hw 4203   5.311   2.484   5.408  0.2597 -0.6911 -0.2540
 1051SOL     vw 4204   5.368   2.507   5.346  0.2530 -0.3773 -0.1462
 1052SOL     ow 4205   2.771   0.695   3.921 -1.2172  0.3618 -0.1610
 1052SOL     hw 4206   2.787   0.778   3.965 -1.9093  0.1727  0.4779
 1052SOL     hw 4207   2.693   0.711   3.868 -0.9281  0.3213 -0.6044
 1052SOL     vw 4208   2.763   0.708   3.920 -1.2704  0.3315 -0.1352
 1053SOL     ow 4209   1.263   0.381   5.763 -0.0294  0.1165 -0.7428
 1053SOL     hw 4210   1.291   0.465   5.798  0.6595 -0.9667  1.4702
 1053SOL     hw 4211   1.329   0.359   5.697  0.8572  0.4479  0.0206
 1053SOL     vw 4212   1.276   0.389   5.759  0.1785  0.0173 -0.3500
 1054SOL     ow 4213   1.620   2.222   1.464 -0.2986  0.1207 -0.3687
 1054SOL     hw 4214   1.527   2.245   1.465  0.2144  2.7009  2.9486
 1054SOL     hw 4215   1.625   2.139   1.511 -0.7577  1.2273  1.7135
 1054SOL     vw 4216   1.608   2.214   1.470 -0.2915  0.6071  0.3437
 1055SOL     ow 4217   5.362   5.437   1.962 -0.0138 -0.0719  0.5745
 1055SOL     hw 4218   5.392   5.347   1.969  1.9337  0.5286  0.3581
 1055SOL     hw 4219   5.349   5.465   2.052  0.3246 -0.2728  0.6871
 1055SOL     vw 4220   5.364   5.429   1.975  0.2878 -0.0191  0.5608
 1056SOL     ow 4221   6.936   1.622   2.332  0.3303 -0.2542 -0.1735
 1056SOL     hw 4222   7.010   1.566   2.309  2.0969  0.7258  2.5744
 1056SOL     hw 4223   6.936   1.691   2.266 -0.9982 -2.5204 -2.7692
 1056SOL     vw 4224   6.946   1.624   2.321  0.3884 -0.4240 -0.1534
 1057SOL     ow 4225   4.508   0.104   4.667 -0.5742  0.3927 -0.1434
 1057SOL     hw 4226   4.483   0.041   4.599 -0.3728  0.9801 -0.7793
 1057SOL     hw 4227   4.555   0.052   4.732 -1.3428 -0.2954 -0.1222
 1057SOL     vw 4228   4.511   0.089   4.666 -0.6487  0.3794 -0.2244
 1058SOL     ow 4229   4.171   6.356   1.939  0.0880  0.0740 -0.2635
 1058SOL     hw 4230   4.241   6.422   1.931  2.1533 -2.0671 -1.1730
 1058SOL     hw 4231   4.167   6.316   1.852  0.7280 -2.6560  0.8719
 1058SOL     vw 4232   4.180   6.360   1.927  0.4449 -0.5686 -0.2336
 1059SOL     ow 4233   0.080   5.282   5.452 -0.1447  0.0524 -0.5832
 1059SOL     hw 4234   0.176   5.287   5.451 -0.1976  1.4364 -0.0045
 1059SOL     hw 4235   0.062   5.193   5.482  0.9497 -0.5082 -1.5019
 1059SOL     vw 4236   0.090   5.271   5.456 -0.0073  0.1612 -0.6280
 1060SOL     ow 4237   5.273   3.624   0.213 -0.1901  0.1354  0.1917
 1060SOL     hw 4238   5.196   3.654   0.261  0.2965  0.1933  0.9413
 1060SOL     hw 4239   5.238   3.595   0.128 -0.7419  2.4496 -0.4455
 1060SOL     vw 4240   5.258   3.624   0.208 -0.1986  0.4485  0.2066
 1061SOL     ow 4241   1.550   0.477   1.541 -0.4159 -0.0832 -0.9028
 1061SOL     hw 4242   1.608   0.450   1.613  0.3398 -0.0662 -1.4993
 1061SOL     hw 4243   1.580   0.427   1.466 -2.5080 -1.6761 -0.7920
 1061SOL     vw 4244   1.561   0.467   1.541 -0.5922 -0.2911 -0.9669
 1062SOL     ow 4245   2.874   1.373   0.805 -0.0326 -0.2908  0.6250
 1062SOL     hw 4246   2.812   1.430   0.759  1.1602 -0.4471 -1.2936
 1062SOL     hw 4247   2.889   1.300   0.745  1.4943 -0.5907  1.3093
 1062SOL     vw 4248   2.868   1.371   0.791  0.3262 -0.3510  0.4621
 1063SOL     ow 4249   7.009   5.820   2.760  0.2245  0.3278  0.6175
 1063SOL     hw 4250   7.096   5.795   2.731  0.5768  1.5299  0.5664
 1063SOL     hw 4251   7.018   5.833   2.855  0.6776  2.5179  0.3349
 1063SOL     vw 4252   7.022   5.819   2.769  0.3307  0.7753  0.5735
 1064SOL     ow 4253   0.326   1.852   2.573 -0.1738  0.7576  0.0159
 1064SOL     hw 4254   0.266   1.908   2.622 -2.4095 -3.0638  2.1402
 1064SOL     hw 4255   0.277   1.825   2.496  0.0199  0.0981  0.1160
 1064SOL     vw 4256   0.312   1.856   2.570 -0.4432  0.1664  0.3095
 1065SOL     ow 4257   1.631   0.926   6.781 -0.2047  0.1450 -0.1960
 1065SOL     hw 4258   1.595   0.859   6.839  0.6474 -0.5739 -0.4758
 1065SOL     hw 4259   1.560   0.990   6.771 -1.5178 -1.3623 -0.9691
 1065SOL     vw 4260   1.617   0.926   6.787 -0.2656 -0.1487 -0.3350
 1066SOL     ow 4261   7.235   2.261   0.933  0.0889  0.2963  0.4114
 1066SOL     hw 4262   7.222   2.316   1.011  1.9217 -2.3570  2.8087
 1066SOL     hw 4263   7.174   2.188   0.945 -0.1501  0.2264 -1.0885
 1066SOL     vw 4264   7.225   2.258   0.945  0.2992 -0.0631  0.5299
 1067SOL     ow 4265   3.982   1.266   2.848  0.1506  0.6317  0.2271
 1067SOL     hw 4266   3.978   1.198   2.915  2.6923  1.5025  1.3844
 1067SOL     hw 4267   3.896   1.263   2.806 -0.2691 -2.3850  1.0712
 1067SOL     vw 4268   3.970   1.257   2.851  0.4305  0.3486  0.4913
 1068SOL     ow 4269   4.412   6.709   6.675 -0.3164 -0.1281 -0.7954
 1068SOL     hw 4270   4.341   6.768   6.700  0.3094  0.5663 -0.6226
 1068SOL     hw 4271   4.441   6.741   6.590 -0.5489 -0.7380 -1.1126
 1068SOL     vw 4272   4.406   6.721   6.668 -0.2646 -0.1171 -0.8144
 1069SOL     ow 4273   1.242   1.791   1.920  0.4580 -0.2606 -0.0831
 1069SOL     hw 4274   1.260   1.739   1.842 -0.6077 -0.9197  0.0895
 1069SOL     hw 4275   1.210   1.875   1.885 -0.4894 -0.7233 -0.3840
 1069SOL     vw 4276   1.240   1.795   1.905  0.1923 -0.4086 -0.1000
 1070SOL     ow 4277   3.297   2.795   1.080 -0.0566  0.6745 -0.6493
 1070SOL     hw 4278   3.235   2.821   1.012 -0.4466 -0.7963 -0.9018
 1070SOL     hw 4279   3.257   2.718   1.121  1.1468  0.2770 -0.1700
 1070SOL     vw 4280   3.284   2.788   1.076  0.0508  0.4281 -0.6194
 1071SOL     ow 4281   3.179   3.252   4.773 -0.2570  0.1832 -0.1620
 1071SOL     hw 4282   3.108   3.243   4.709 -1.4701  1.0733  0.9841
 1071SOL     hw 4283   3.170   3.342   4.806  2.0498  0.6696 -0.6824
 1071SOL     vw 4284   3.168   3.263   4.769 -0.1127  0.3649 -0.0792
 1072SOL     ow 4285   2.737   3.211   2.182 -0.0582 -0.3300 -0.0489
 1072SOL     hw 4286   2.688   3.247   2.108 -3.7329  0.6949  2.5930
 1072SOL     hw 4287   2.800   3.279   2.204  0.8317 -0.4926 -1.9243
 1072SOL     vw 4288   2.739   3.225   2.175 -0.4257 -0.2162  0.0522
 1073SOL     ow 4289   5.455   0.426   1.784  0.3409  0.4995  0.0239
 1073SOL     hw 4290   5.446   0.454   1.693  2.3735 -1.3994 -0.8627
 1073SOL     hw 4291   5.404   0.346   1.789 -0.4506  1.0424  0.8128
 1073SOL     vw 4292   5.447   0.419   1.773  0.5047  0.3206  0.0110
 1074SOL     ow 4293   5.309   5.510   4.919 -0.0588  0.2046  0.2941
 1074SOL     hw 4294   5.249   5.559   4.863 -0.6504 -1.5379 -0.6697
 1074SOL     hw 4295   5.300   5.550   5.005  0.0806  2.2690 -0.5896
 1074SOL     vw 4296   5.300   5.521   4.923 -0.1183  0.2472  0.0503
 1075SOL     ow 4297   3.220   0.130   3.945 -0.5829  0.2077 -0.0972
 1075SOL     hw 4298   3.144   0.185   3.965 -0.5965 -0.8877  3.7581
 1075SOL     hw 4299   3.264   0.174   3.873 -3.1403  2.5774 -0.3955
 1075SOL     vw 4300   3.216   0.143   3.938 -0.9220  0.3759  0.3722
 1076SOL     ow 4301   6.252   2.176   3.509 -0.3975 -0.0205 -0.4136
 1076SOL     hw 4302   6.300   2.255   3.536  2.0674 -0.5791 -2.7613
 1076SOL     hw 4303   6.204   2.149   3.588  0.2527  2.6651  1.0194
 1076SOL     vw 4304   6.252   2.183   3.523  0.0136  0.2602 -0.5343
 1077SOL     ow 4305   1.456   1.865   4.761  0.2577 -0.2111  1.0284
 1077SOL     hw 4306   1.482   1.956   4.748 -1.2838  0.0227 -1.0165
 1077SOL     hw 4307   1.537   1.814   4.752  0.6190  0.6817 -2.2251
 1077SOL     vw 4308   1.470   1.870   4.758  0.1020 -0.0625  0.3295
 1078SOL     ow 4309   2.436   1.817   4.836  0.2021  0.2911  0.2552
 1078SOL     hw 4310   2.433   1.796   4.743 -0.4108  0.2909  0.2676
 1078SOL     hw 4311   2.512   1.875   4.846 -0.1759  0.9064 -0.3791
 1078SOL     vw 4312   2.446   1.822   4.825  0.0714  0.3722  0.1731
 1079SOL     ow 4313   5.009   3.448   3.224  0.2718 -0.4129 -0.3060
 1079SOL     hw 4314   5.002   3.375   3.285  2.4604 -0.2699  0.2043
 1079SOL     hw 4315   4.933   3.440   3.168 -2.9737  0.4658  3.4962
 1079SOL     vw 4316   4.998   3.438   3.225  0.1323 -0.2780  0.2629
 1080SOL     ow 4317   0.401   2.630   3.593 -0.0929  0.4906  0.2361
 1080SOL     hw 4318   0.348   2.640   3.514  2.2525  1.3480 -1.3502
 1080SOL     hw 4319   0.416   2.719   3.623 -0.3961  0.1989  1.2893
 1080SOL     vw 4320   0.396   2.643   3.586  0.1765  0.5652  0.1659
 1081SOL     ow 4321   4.063   2.107   6.585 -0.0332  0.0811 -0.5411
 1081SOL     hw 4322   4.115   2.171   6.536  0.0551  0.7420  0.3986
 1081SOL     hw 4323   4.128   2.055   6.633 -0.1895  0.3684 -0.0137
 1081SOL     vw 4324   4.079   2.109   6.585 -0.0422  0.2061 -0.3476
 1082SOL     ow 4325   3.812   0.563   5.592  0.0054  0.5229 -0.5447
 1082SOL     hw 4326   3.896   0.520   5.580 -0.3808 -0.1656 -0.8239
 1082SOL     hw 4327   3.761   0.501   5.646 -0.4310  0.7876 -0.6476
 1082SOL     vw 4328   3.816   0.549   5.598 -0.1031  0.4670 -0.5953
 1083SOL     ow 4329   4.293   6.475   6.821  0.2759 -0.6273 -0.2720
 1083SOL     hw 4330   4.228   6.409   6.799  0.8891 -1.6861  0.9885
 1083SOL     hw 4331   4.271   6.501   6.910  1.3011 -0.6695  0.0011
 1083SOL     vw 4332   4.281   6.470   6.830  0.4923 -0.7727 -0.0696
 1084SOL     ow 4333   3.384   2.534   6.393  0.7909 -0.1670  0.0652
 1084SOL     hw 4334   3.356   2.480   6.466  0.1659  0.5011  0.3308
 1084SOL     hw 4335   3.389   2.623   6.428  0.1025  0.2298 -0.7846
 1084SOL     vw 4336   3.381   2.539   6.407  0.6176 -0.0265 -0.0117
 1085SOL     ow 4337   2.662   6.043   2.996  0.1556 -0.4020 -0.0223
 1085SOL     hw 4338   2.717   6.084   2.929  1.3663 -2.3398 -0.2723
 1085SOL     hw 4339   2.703   6.069   3.079 -0.0305  0.1774 -0.1080
 1085SOL     vw 4340   2.675   6.052   2.998  0.2909 -0.5815 -0.0666
 1086SOL     ow 4341   4.764   3.870   6.099  0.1917 -0.0278 -0.4624
 1086SOL     hw 4342   4.814   3.896   6.022 -1.4250  1.6646 -1.0164
 1086SOL     hw 4343   4.753   3.951   6.149 -0.6606 -0.6724  0.4337
 1086SOL     vw 4344   4.769   3.884   6.095 -0.1342  0.1104 -0.4172
 1087SOL     ow 4345   1.950   4.344   6.718 -0.6541 -0.4889  0.6555
 1087SOL     hw 4346   2.010   4.353   6.792 -1.5428 -0.2856  1.3652
 1087SOL     hw 4347   1.990   4.397   6.648  1.1471 -2.1728  0.3475
 1087SOL     vw 4348   1.963   4.352   6.718 -0.5337 -0.6843  0.7088
 1088SOL     ow 4349   1.250   1.581   6.609 -0.0015 -0.1786 -0.5888
 1088SOL     hw 4350   1.179   1.520   6.631  0.2605 -0.2016  0.2266
 1088SOL     hw 4351   1.323   1.555   6.666  0.3309  0.4733 -0.7071
 1088SOL     vw 4352   1.250   1.570   6.619  0.0769 -0.0957 -0.4971
 1089SOL     ow 4353   6.428   4.818   2.033  0.7211 -0.0953  0.1604
 1089SOL     hw 4354   6.366   4.747   2.048  1.0012 -0.1691  1.0190
 1089SOL     hw 4355   6.384   4.875   1.969  0.6751 -1.2419 -0.8649
 1089SOL     vw 4356   6.414   4.816   2.026  0.7522 -0.2563  0.1384
 1090SOL     ow 4357   3.647   0.331   2.227  0.7797  0.2648 -0.4174
 1090SOL     hw 4358   3.615   0.262   2.285  2.6301  0.4162  0.8710
 1090SOL     hw 4359   3.720   0.291   2.180  0.2973  0.6279 -1.4934
 1090SOL     vw 4360   3.652   0.317   2.229  0.9602  0.3327 -0.3892
 1091SOL     ow 4361   1.902   2.808   2.105 -0.4466 -0.1954  0.2238
 1091SOL     hw 4362   1.903   2.903   2.117 -0.3407 -0.1400 -0.2254
 1091SOL     hw 4363   1.980   2.789   2.053 -1.6969 -0.2578 -1.7329
 1091SOL     vw 4364   1.913   2.818   2.100 -0.5976 -0.1963 -0.0937
 1092SOL     ow 4365   0.568   7.133   0.790  0.1222 -0.1056  0.3272
 1092SOL     hw 4366   0.518   7.129   0.871  0.2654 -0.3464  0.4054
 1092SOL     hw 4367   0.607   7.046   0.782  0.2004 -0.0466  0.0597
 1092SOL     vw 4368   0.566   7.121   0.800  0.1514 -0.1295  0.3022
 1093SOL     ow 4369   1.379   4.505   7.052  0.2060  0.3427 -0.1958
 1093SOL     hw 4370   1.316   4.507   7.124  1.3442  0.2163  0.8357
 1093SOL     hw 4371   1.327   4.524   6.974 -1.4191 -1.5507  0.3675
 1093SOL     vw 4372   1.364   4.508   7.052  0.1418  0.0763  0.0148
 1094SOL     ow 4373   2.236   5.990   4.197 -0.3653 -0.1580 -0.5246
 1094SOL     hw 4374   2.298   6.060   4.177 -0.5007 -0.3638 -1.7642
 1094SOL     hw 4375   2.220   5.948   4.113 -2.8339  0.4179 -0.4291
 1094SOL     vw 4376   2.242   5.994   4.183 -0.7089 -0.1092 -0.6757
 1095SOL     ow 4377   3.486   5.731   6.954  0.2717 -0.2612 -0.8589
 1095SOL     hw 4378   3.542   5.663   6.991 -0.7147  0.8062  3.0988
 1095SOL     hw 4379   3.399   5.691   6.951 -0.2263  0.5683  1.0589
 1095SOL     vw 4380   3.482   5.717   6.959  0.0758 -0.0110 -0.0839
 1096SOL     ow 4381   4.430   3.794   6.792  0.3080  0.4813  0.1036
 1096SOL     hw 4382   4.382   3.798   6.709  0.1936 -1.7509  0.0094
 1096SOL     hw 4383   4.368   3.755   6.854  0.3085  2.3387  1.3566
 1096SOL     vw 4384   4.415   3.789   6.789  0.2928  0.4319  0.2565
 1097SOL     ow 4385   1.011   6.303   2.094 -0.3452  0.0164  0.1662
 1097SOL     hw 4386   1.003   6.212   2.064  0.3266 -0.1230  0.4096
 1097SOL     hw 4387   1.065   6.299   2.172  0.1884  0.6888 -0.1514
 1097SOL     vw 4388   1.017   6.291   2.100 -0.1861  0.0868  0.1564
 1098SOL     ow 4389   6.298   7.115   2.695 -0.5191 -0.3161  0.4470
 1098SOL     hw 4390   6.386   7.121   2.655 -0.3352  1.7344  1.0336
 1098SOL     hw 4391   6.249   7.185   2.652 -0.9460  0.5430  2.2721
 1098SOL     vw 4392   6.303   7.125   2.684 -0.5512  0.0677  0.7651
 1099SOL     ow 4393   7.217   6.954   1.384 -0.2998  0.6973 -0.1840
 1099SOL     hw 4394   7.248   6.937   1.473 -2.0647 -0.1349  0.3267
 1099SOL     hw 4395   7.244   7.044   1.366  1.1518  0.4798  0.6974
 1099SOL     vw 4396   7.225   6.964   1.394 -0.3409  0.5589 -0.0004
 1100SOL     ow 4397   0.204   0.608   1.252  0.0110  0.2269  0.0280
 1100SOL     hw 4398   0.156   0.561   1.184 -1.4822  2.3902 -0.5185
 1100SOL     hw 4399   0.294   0.575   1.244 -1.0930 -3.3027  0.4996
 1100SOL     vw 4400   0.209   0.598   1.242 -0.3317  0.0466  0.0181
 1101SOL     ow 4401   5.614   5.203   0.173  0.3417  0.2820 -0.5005
 1101SOL     hw 4402   5.676   5.232   0.240  0.5500  0.9014 -0.9552
 1101SOL     hw 4403   5.669   5.169   0.103  0.2285  1.7606 -1.3421
 1101SOL     vw 4404   5.629   5.202   0.173  0.3548  0.5589 -0.6716
 1102SOL     ow 4405   1.241   2.688   3.775 -0.1079 -0.1257 -0.7243
 1102SOL     hw 4406   1.254   2.776   3.739 -0.3250 -0.3419 -1.3535
 1102SOL     hw 4407   1.147   2.671   3.765 -0.0286 -0.5207 -0.8298
 1102SOL     vw 4408   1.231   2.697   3.769 -0.1262 -0.2064 -0.8212
 1103SOL     ow 4409   2.930   6.177   7.167  0.1537  1.0242 -0.4275
 1103SOL     hw 4410   2.948   6.242   7.099 -1.6535  1.3567 -0.6454
 1103SOL     hw 4411   2.851   6.132   7.137 -0.8090  1.2932  1.5202
 1103SOL     vw 4412   2.922   6.180   7.154 -0.2118  1.1036 -0.1991
 1104SOL     ow 4413   5.959   6.925   0.166 -0.3037  0.3260  0.4447
 1104SOL     hw 4414   5.945   6.885   0.080  0.1372 -0.5172  0.7553
 1104SOL     hw 4415   6.025   6.870   0.208 -0.0197  1.1243  1.0662
 1104SOL     vw 4416   5.966   6.913   0.160 -0.2081  0.3202  0.5677
 1105SOL     ow 4417   2.163   3.525   5.273  0.9083  0.2535 -0.2785
 1105SOL     hw 4418   2.158   3.465   5.348  1.0344  2.3463  1.5319
 1105SOL     hw 4419   2.236   3.584   5.295  0.2811  1.5639 -1.5367
 1105SOL     vw 4420   2.172   3.525   5.286  0.8422  0.7025 -0.2055
 1106SOL     ow 4421   5.672   0.872   3.712 -0.0554  0.3691 -0.0010
 1106SOL     hw 4422   5.705   0.783   3.723  0.0033  0.2549 -1.0757
 1106SOL     hw 4423   5.631   0.872   3.626 -1.0709  1.0714  0.4660
 1106SOL     vw 4424   5.671   0.860   3.702 -0.1814  0.4467 -0.0812
 1107SOL     ow 4425   2.807   5.269   0.609  0.2107 -0.5294 -0.2270
 1107SOL     hw 4426   2.855   5.209   0.666  1.4801  1.7794  1.2800
 1107SOL     hw 4427   2.872   5.335   0.583 -1.0842  0.1545 -1.9110
 1107SOL     vw 4428   2.822   5.270   0.613  0.2074 -0.1345 -0.2504
 1108SOL     ow 4429   6.151   2.809   1.868 -0.5838 -0.4065 -0.4377
 1108SOL     hw 4430   6.186   2.884   1.820  0.1863  0.7833  1.8369
 1108SOL     hw 4431   6.219   2.742   1.861  0.5293  0.5459  0.7684
 1108SOL     vw 4432   6.165   2.810   1.861 -0.3355 -0.1237  0.0215
 1109SOL     ow 4433   2.048   2.570   0.790 -0.1485 -0.2322 -0.6171
 1109SOL     hw 4434   2.006   2.525   0.716  0.5992 -0.7597 -0.7272
 1109SOL     hw 4435   2.008   2.531   0.867 -0.7549  0.1458 -0.7339
 1109SOL     vw 4436   2.037   2.559   0.790 -0.1298 -0.2520 -0.6470
 1110SOL     ow 4437   1.133   1.925   1.305  0.8576  0.3646 -0.3066
 1110SOL     hw 4438   1.174   1.998   1.352  3.0148 -2.2499  2.2624
 1110SOL     hw 4439   1.163   1.847   1.352 -2.7939 -2.1448 -1.7232
 1110SOL     vw 4440   1.142   1.924   1.317  0.6604 -0.3114 -0.1546
 1111SOL     ow 4441   3.302   2.513   5.836  0.2198 -0.8832 -0.1838
 1111SOL     hw 4442   3.376   2.464   5.800  1.7669  1.6712 -0.7038
 1111SOL     hw 4443   3.268   2.562   5.761  0.3945  0.8111  0.8123
 1111SOL     vw 4444   3.307   2.513   5.821  0.4469 -0.3226 -0.1204
 1112SOL     ow 4445   5.106   5.920   1.011  0.8274  0.0307 -0.2606
 1112SOL     hw 4446   5.159   5.910   1.090  0.4249  0.4807  0.0773
 1112SOL     hw 4447   5.168   5.911   0.939  1.2768  0.0655  0.1185
 1112SOL     vw 4448   5.121   5.918   1.012  0.8337  0.0947 -0.1660
 1113SOL     ow 4449   5.643   6.185   0.176 -0.1785 -0.0844  0.4430
 1113SOL     hw 4450   5.559   6.206   0.135 -0.5835 -1.2055  0.6382
 1113SOL     hw 4451   5.666   6.099   0.140  0.5068 -0.1315  0.9685
 1113SOL     vw 4452   5.635   6.176   0.166 -0.1414 -0.2382  0.5381
 1114SOL     ow 4453   2.684   5.367   6.162 -0.2302 -0.2638  0.6008
 1114SOL     hw 4454   2.657   5.393   6.074  1.1198  1.0512  0.5282
 1114SOL     hw 4455   2.621   5.409   6.220 -2.0635 -2.3813  0.2810
 1114SOL     vw 4456   2.672   5.376   6.158 -0.2939 -0.3698  0.5491
 1115SOL     ow 4457   5.160   0.088   2.548  0.2085  0.0659 -0.1277
 1115SOL     hw 4458   5.195   0.056   2.464  2.0867 -2.1252  1.3503
 1115SOL     hw 4459   5.223   0.155   2.575  0.6251 -0.4926  0.3179
 1115SOL     vw 4460   5.173   0.093   2.540  0.5112 -0.2968  0.1260
 1116SOL     ow 4461   3.392   1.945   2.715  0.4548 -0.8996  0.4716
 1116SOL     hw 4462   3.334   1.869   2.708  1.1992 -1.3174 -2.8776
 1116SOL     hw 4463   3.471   1.911   2.758 -0.0658 -1.4539  0.9964
 1116SOL     vw 4464   3.395   1.931   2.720  0.4843 -1.0278  0.0989
 1117SOL     ow 4465   3.287   0.065   3.416  0.0528 -0.1111 -0.1663
 1117SOL     hw 4466   3.277  -0.030   3.411  0.7929 -0.2052 -0.0206
 1117SOL     hw 4467   3.211   0.095   3.465 -1.0988 -0.4300 -1.6644
 1117SOL     vw 4468   3.276   0.057   3.422 -0.0014 -0.1656 -0.3446
 1118SOL     ow 4469   3.344   3.017   4.706  0.0802 -0.1760  0.0212
 1118SOL     hw 4470   3.374   3.074   4.636  0.9676 -0.1328  0.4298
 1118SOL     hw 4471   3.395   2.936   4.695  0.3246 -0.1191  0.6937
 1118SOL     vw 4472   3.354   3.014   4.695  0.2295 -0.1627  0.1638
 1119SOL     ow 4473   2.529   6.776   1.096 -0.5099 -0.4568 -0.4324
 1119SOL     hw 4474   2.487   6.862   1.100 -1.6560 -0.9913  3.4983
 1119SOL     hw 4475   2.597   6.780   1.163  0.4240 -2.1834 -1.2139
 1119SOL     vw 4476   2.533   6.788   1.105 -0.5379 -0.7551 -0.0169
 1120SOL     ow 4477   1.505   1.130   1.462  0.2636  0.2755 -0.4185
 1120SOL     hw 4478   1.448   1.139   1.538  1.9992  0.2903  0.9367
 1120SOL     hw 4479   1.472   1.195   1.399  0.7556  2.6023  1.6051
 1120SOL     vw 4480   1.493   1.140   1.463  0.5575  0.5845  0.0272
 1121SOL     ow 4481   1.694   6.224   3.577 -0.1695 -0.0010 -0.3069
 1121SOL     hw 4482   1.673   6.149   3.521 -0.2154 -1.3777  1.4712
 1121SOL     hw 4483   1.782   6.250   3.548 -0.0598 -0.8729 -0.8171
 1121SOL     vw 4484   1.703   6.218   3.566 -0.1611 -0.2978 -0.1396
 1122SOL     ow 4485   0.956   6.403   2.820  0.1672  0.4267 -0.3301
 1122SOL     hw 4486   0.878   6.460   2.823  0.8566  1.3903 -0.1012
 1122SOL     hw 4487   0.987   6.409   2.730 -1.8124 -2.5298 -1.3732
 1122SOL     vw 4488   0.950   6.412   2.808 -0.0030  0.1636 -0.4375
 1123SOL     ow 4489   5.137   5.071   6.351  0.3616 -0.2533 -0.0697
 1123SOL     hw 4490   5.206   5.102   6.293 -0.2623  0.1319 -0.6169
 1123SOL     hw 4491   5.098   4.997   6.305 -1.7190  1.5051 -1.3186
 1123SOL     vw 4492   5.141   5.065   6.337  0.0050  0.0293 -0.3068
 1124SOL     ow 4493   6.127   5.896   3.193 -0.0032 -0.0960 -0.3461
 1124SOL     hw 4494   6.150   5.810   3.159 -1.2836 -0.1743 -1.0912
 1124SOL     hw 4495   6.192   5.914   3.261  0.9743 -1.1355 -0.9779
 1124SOL     vw 4496   6.139   5.887   3.197 -0.0436 -0.2437 -0.5279
 1125SOL     ow 4497   2.620   5.518   1.879  0.9491  0.2831 -0.1020
 1125SOL     hw 4498   2.696   5.532   1.823  0.7616  0.0672 -0.4163
 1125SOL     hw 4499   2.558   5.471   1.823  1.3542 -1.3260  0.7521
 1125SOL     vw 4500   2.622   5.514   1.864  0.9778  0.0422 -0.0308
 1126SOL     ow 4501   1.028   3.596   6.781  0.4556  0.6889 -0.3112
 1126SOL     hw 4502   1.119   3.577   6.804 -0.7841 -3.3221  2.3216
 1126SOL     hw 4503   1.002   3.524   6.723 -1.1630  1.6001 -0.7832
 1126SOL     vw 4504   1.037   3.584   6.776  0.0785  0.2799 -0.0260
 1127SOL     ow 4505   4.452   0.473   2.099 -0.1360 -0.6544  0.0001
 1127SOL     hw 4506   4.414   0.546   2.148  2.0546  0.0464  0.7722
 1127SOL     hw 4507   4.377   0.429   2.060 -1.5845  1.6355  0.0128
 1127SOL     vw 4508   4.437   0.477   2.100 -0.0381 -0.2598  0.1038
 1128SOL     ow 4509   0.401   7.164   5.410  0.0381  0.1265  0.3145
 1128SOL     hw 4510   0.447   7.193   5.489 -0.8017  1.1601  0.4536
 1128SOL     hw 4511   0.314   7.138   5.441  0.6900 -2.4857  0.1607
 1128SOL     vw 4512   0.395   7.164   5.424  0.0134 -0.0820  0.3128
 1129SOL     ow 4513   0.397   4.237   6.988  0.1079 -0.3808  0.1361
 1129SOL     hw 4514   0.359   4.176   7.052 -1.0414  0.0998 -0.0736
 1129SOL     hw 4515   0.367   4.323   7.016 -0.3961 -0.1618 -1.0383
 1129SOL     vw 4516   0.388   4.240   7.001 -0.1103 -0.2885 -0.0465
 1130SOL     ow 4517   6.269   0.026   6.634  0.4188  0.1161 -0.3598
 1130SOL     hw 4518   6.280   0.035   6.539 -2.5681 -0.6052 -0.8811
 1130SOL     hw 4519   6.206  -0.046   6.645  1.3398 -0.4044  2.2326
 1130SOL     vw 4520   6.262   0.018   6.623  0.1459 -0.0478 -0.0865
 1131SOL     ow 4521   6.387   4.665   5.900  0.7919  0.5349 -0.0613
 1131SOL     hw 4522   6.344   4.733   5.951 -0.0141 -0.9411  1.3352
 1131SOL     hw 4523   6.480   4.687   5.905  0.8063  0.2394  2.4771
 1131SOL     vw 4524   6.394   4.677   5.907  0.6876  0.3014  0.4580
 1132SOL     ow 4525   6.087   5.094   4.183 -0.2508 -0.1090 -0.2745
 1132SOL     hw 4526   6.180   5.116   4.179 -0.8152  2.6201 -0.6051
 1132SOL     hw 4527   6.079   5.038   4.261  1.4323  1.0868  0.8380
 1132SOL     vw 4528   6.098   5.090   4.193 -0.1035  0.4086 -0.1712
 1133SOL     ow 4529   4.202   5.939   0.528  0.1791 -0.6101  0.1004
 1133SOL     hw 4530   4.275   5.962   0.585  0.5530 -1.5950  0.0412
 1133SOL     hw 4531   4.176   6.022   0.488  2.4457 -0.4801 -1.2793
 1133SOL     vw 4532   4.208   5.953   0.530  0.5274 -0.7229 -0.0895
 1134SOL     ow 4533   1.949   6.348   3.518 -0.6665 -0.0253 -0.7878
 1134SOL     hw 4534   1.951   6.435   3.556 -1.2626 -0.4242  0.1918
 1134SOL     hw 4535   1.973   6.361   3.426  0.8184  0.9688 -0.2966
 1134SOL     vw 4536   1.953   6.361   3.511 -0.5492  0.0532 -0.5939
 1135SOL     ow 4537   4.699   1.720   4.633  0.0570 -0.4520  0.1432
 1135SOL     hw 4538   4.664   1.792   4.686 -1.2624 -0.5335 -0.5486
 1135SOL     hw 4539   4.793   1.723   4.646  0.1225  1.8852 -0.4309
 1135SOL     vw 4540   4.707   1.730   4.642 -0.1085 -0.1543 -0.0238
 1136SOL     ow 4541   6.595   6.072   3.465  0.6843  0.4169  0.1493
 1136SOL     hw 4542   6.575   6.153   3.417  0.1506 -1.4245 -2.9882
 1136SOL     hw 4543   6.511   6.026   3.470  1.1452 -0.3430  1.1065
 1136SOL     vw 4544   6.581   6.077   3.459  0.6747  0.0737 -0.1384
 1137SOL     ow 4545   1.360   6.494   2.880 -0.1076  0.3870 -0.5518
 1137SOL     hw 4546   1.339   6.464   2.791 -0.5708 -2.1367  0.3162
 1137SOL     hw 4547   1.278   6.531   2.913 -0.3283  0.0533 -0.7190
 1137SOL     vw 4548   1.347   6.495   2.872 -0.1978  0.0098 -0.4593
 1138SOL     ow 4549   2.219   2.589   2.934  0.2269 -0.5578  0.0522
 1138SOL     hw 4550   2.314   2.589   2.938  0.2627  0.9123 -0.0738
 1138SOL     hw 4551   2.195   2.682   2.930 -1.1168 -0.9111 -1.7294
 1138SOL     vw 4552   2.228   2.602   2.934  0.0542 -0.4104 -0.1996
 1139SOL     ow 4553   2.545   4.982   3.483 -0.4568 -0.2030 -0.2720
 1139SOL     hw 4554   2.554   4.889   3.502 -2.9822 -0.1544  1.6553
 1139SOL     hw 4555   2.601   5.025   3.548  2.3597 -0.2834 -2.4397
 1139SOL     vw 4556   2.554   4.976   3.494 -0.4184 -0.2072 -0.3036
 1140SOL     ow 4557   1.013   6.034   5.644 -0.5075 -0.4483 -0.0327
 1140SOL     hw 4558   1.006   5.946   5.609 -2.2447 -0.1302 -0.5495
 1140SOL     hw 4559   1.007   6.023   5.739 -2.5030 -0.7601 -0.1669
 1140SOL     vw 4560   1.011   6.021   5.652 -1.0000 -0.4475 -0.1185
 1141SOL     ow 4561   3.779   3.630   5.386  0.7860  0.9368  0.7386
 1141SOL     hw 4562   3.751   3.714   5.423 -0.0879  0.0606  2.1616
 1141SOL     hw 4563   3.764   3.566   5.456  1.8462 -0.3534 -0.1512
 1141SOL     vw 4564   3.773   3.632   5.400  0.8105  0.6510  0.8090
 1142SOL     ow 4565   1.942   3.041   0.630 -0.7209 -0.1382  0.0719
 1142SOL     hw 4566   1.903   3.058   0.716 -0.3676  1.1497  0.0058
 1142SOL     hw 4567   1.945   3.127   0.588 -0.7850 -0.7368 -1.1911
 1142SOL     vw 4568   1.937   3.055   0.636 -0.6827 -0.0471 -0.1034
 1143SOL     ow 4569   0.573   1.608   1.077 -0.5674  0.5370 -0.4196
 1143SOL     hw 4570   0.519   1.575   1.148  2.4061  0.2602  1.8896
 1143SOL     hw 4571   0.632   1.536   1.055  2.8114  2.4896  1.3838
 1143SOL     vw 4572   0.574   1.594   1.083  0.2707  0.7581  0.1230
 1144SOL     ow 4573   3.850   2.837   2.316 -0.5122  0.1680 -0.6900
 1144SOL     hw 4574   3.757   2.826   2.335 -0.4916 -0.6911 -1.0431
 1144SOL     hw 4575   3.894   2.783   2.381 -0.3354 -0.6867 -1.5078
 1144SOL     vw 4576   3.843   2.828   2.327 -0.4860 -0.0582 -0.8446
 1145SOL     ow 4577   6.971   2.852   0.363  0.3629  0.0818 -0.2361
 1145SOL     hw 4578   6.938   2.795   0.432 -1.4745  0.0212 -1.1078
 1145SOL     hw 4579   7.003   2.793   0.295 -0.1143  0.1031 -0.4817
 1145SOL     vw 4580   6.971   2.837   0.363  0.0579  0.0765 -0.3835
 1146SOL     ow 4581   6.341   2.856   5.057  0.6418  0.0957 -0.1190
 1146SOL     hw 4582   6.262   2.819   5.099  0.1587  0.4594 -0.6934
 1146SOL     hw 4583   6.371   2.923   5.118  0.2216  0.2875 -0.1158
 1146SOL     vw 4584   6.334   2.860   5.071  0.5224  0.1690 -0.1945
 1147SOL     ow 4585   2.308   3.380   3.023  0.3518  0.4044 -0.2381
 1147SOL     hw 4586   2.373   3.381   2.953  0.5935  2.2589 -0.0312
 1147SOL     hw 4587   2.225   3.398   2.979  0.8315  4.3637  0.1268
 1147SOL     vw 4588   2.305   3.382   3.008  0.4469  1.1714 -0.1627
 1148SOL     ow 4589   5.568   5.984   3.220 -0.0257  0.5834 -0.2701
 1148SOL     hw 4590   5.622   6.063   3.215 -1.6789  1.8689  0.9123
 1148SOL     hw 4591   5.500   5.997   3.155 -1.9374  1.5481  1.7752
 1148SOL     vw 4592   5.567   5.996   3.211 -0.4961  0.8805  0.1557
 1149SOL     ow 4593   1.468   4.793   7.056  0.9773 -0.2488  0.6932
 1149SOL     hw 4594   1.399   4.827   7.112  0.8921 -1.6188  1.4651
 1149SOL     hw 4595   1.525   4.868   7.040 -0.9000  1.0369 -0.3702
 1149SOL     vw 4596   1.467   4.807   7.061  0.7183 -0.2601  0.6547
 1150SOL     ow 4597   2.401   7.141   3.014 -0.5882 -0.6916  0.0011
 1150SOL     hw 4598   2.403   7.063   2.959 -0.9256 -1.2559  0.7701
 1150SOL     hw 4599   2.325   7.129   3.071 -0.1832 -0.1856  0.6713
 1150SOL     vw 4600   2.391   7.129   3.014 -0.5792 -0.6993  0.1909
 1151SOL     ow 4601   0.458   4.954   2.139 -0.1649 -0.2453 -0.6633
 1151SOL     hw 4602   0.420   5.036   2.107 -0.7054 -0.1267  0.2296
 1151SOL     hw 4603   0.520   4.927   2.072 -1.1994  0.0306 -1.7508
 1151SOL     vw 4604   0.461   4.961   2.126 -0.3727 -0.1934 -0.6891
 1152SOL     ow 4605   1.831   2.679   2.349 -0.3706  0.5095 -0.5181
 1152SOL     hw 4606   1.925   2.663   2.355  0.0920  2.3897 -1.7103
 1152SOL     hw 4607   1.799   2.668   2.439  1.5380  2.5849  0.5336
 1152SOL     vw 4608   1.839   2.676   2.362 -0.0578  1.0315 -0.5367
 1153SOL     ow 4609   1.077   1.926   5.183 -0.6611 -0.1716 -0.2091
 1153SOL     hw 4610   1.116   1.903   5.099  0.9736 -2.7597  1.1220
 1153SOL     hw 4611   0.990   1.887   5.182 -0.3201 -0.9295 -0.3898
 1153SOL     vw 4612   1.071   1.918   5.172 -0.4004 -0.6132 -0.0572
 1154SOL     ow 4613   3.723   3.000   6.873  0.0139 -0.0155 -0.3758
 1154SOL     hw 4614   3.629   3.006   6.889 -0.0718 -0.3041 -0.7536
 1154SOL     hw 4615   3.754   3.090   6.875 -0.4963  0.2048 -1.5231
 1154SOL     vw 4616   3.715   3.012   6.875 -0.0647 -0.0246 -0.5770
 1155SOL     ow 4617   4.818   2.789   4.444  0.0435 -0.2357  0.2270
 1155SOL     hw 4618   4.828   2.697   4.471  0.8735 -0.1168  0.3656
 1155SOL     hw 4619   4.907   2.823   4.445 -0.2666  0.5834  0.1905
 1155SOL     vw 4620   4.831   2.781   4.448  0.1121 -0.1119  0.2403
 1156SOL     ow 4621   2.505   6.656   4.445  0.8419 -0.2682 -0.5896
 1156SOL     hw 4622   2.496   6.560   4.446  1.3490 -0.3320  0.8243
 1156SOL     hw 4623   2.544   6.675   4.360  1.2720 -1.3904 -0.6695
 1156SOL     vw 4624   2.509   6.646   4.434  0.9656 -0.4246 -0.4137
 1157SOL     ow 4625   2.750   3.093   4.711 -0.3919  0.3308 -0.0466
 1157SOL     hw 4626   2.836   3.114   4.674 -0.0944 -0.7936 -0.0313
 1157SOL     hw 4627   2.730   3.005   4.678 -1.0479  0.1416  0.8152
 1157SOL     vw 4628   2.759   3.084   4.702 -0.4392  0.1575  0.0691
 1158SOL     ow 4629   3.081   4.761   0.235  0.2281 -0.4295 -0.4337
 1158SOL     hw 4630   3.011   4.716   0.283  0.2660 -0.3483 -0.3051
 1158SOL     hw 4631   3.162   4.722   0.267  0.2487 -0.4444 -0.5024
 1158SOL     vw 4632   3.082   4.750   0.245  0.2358 -0.4208 -0.4258
 1159SOL     ow 4633   5.334   5.854   6.782 -0.0706 -1.1588 -0.1239
 1159SOL     hw 4634   5.282   5.775   6.769  0.7020 -1.6184 -0.4757
 1159SOL     hw 4635   5.392   5.834   6.855 -0.4044 -0.6312  0.2978
 1159SOL     vw 4636   5.334   5.841   6.790 -0.0126 -1.1499 -0.1152
 1160SOL     ow 4637   1.682   3.549   1.474  0.2561  0.2395 -0.0073
 1160SOL     hw 4638   1.747   3.480   1.483  1.0749  1.2311  2.5310
 1160SOL     hw 4639   1.718   3.623   1.524 -3.5938  0.2296  3.3146
 1160SOL     vw 4640   1.695   3.550   1.482 -0.1438  0.3690  0.7658
 1161SOL     ow 4641   5.352   1.126   6.000  0.3688  0.0087 -0.0518
 1161SOL     hw 4642   5.295   1.083   5.937 -0.5179  0.4081  0.4577
 1161SOL     hw 4643   5.318   1.215   6.006 -0.0240 -0.2212  1.5245
 1161SOL     vw 4644   5.340   1.132   5.993  0.1998  0.0311  0.2236
 1162SOL     ow 4645   4.994   3.686   5.064  0.1100 -0.5690  0.0910
 1162SOL     hw 4646   4.970   3.637   4.986 -1.9256 -0.3422  0.5085
 1162SOL     hw 4647   4.951   3.771   5.053 -3.2119 -1.6398  2.8556
 1162SOL     vw 4648   4.985   3.691   5.052 -0.5972 -0.6803  0.5105
 1163SOL     ow 4649   5.597   6.967   4.957  0.3998  0.5052 -0.4539
 1163SOL     hw 4650   5.613   6.993   5.048 -1.2675 -0.6558  0.2235
 1163SOL     hw 4651   5.521   6.909   4.962  0.2217  0.4846 -2.6195
 1163SOL     vw 4652   5.589   6.963   4.970  0.1562  0.3495 -0.6502
 1164SOL     ow 4653   3.140   3.784   1.241  0.9512  0.5640  0.4520
 1164SOL     hw 4654   3.159   3.874   1.269 -0.1070  1.1385 -0.5939
 1164SOL     hw 4655   3.193   3.772   1.163  1.0595  0.2948  0.5686
 1164SOL     vw 4656   3.149   3.795   1.234  0.8259  0.6044  0.3294
 1165SOL     ow 4657   0.096   4.883   6.885 -0.5139  0.3529 -0.2186
 1165SOL     hw 4658   0.087   4.903   6.978  0.4456 -0.8687  0.1644
 1165SOL     hw 4659   0.037   4.810   6.869  1.6875 -1.6606  0.2507
 1165SOL     vw 4660   0.087   4.876   6.895 -0.0968 -0.0739 -0.1061
 1166SOL     ow 4661   2.519   2.773   0.685  0.0371  0.5132 -0.5453
 1166SOL     hw 4662   2.576   2.813   0.619  0.8454  0.5719  0.1730
 1166SOL     hw 4663   2.511   2.682   0.658  1.9636  0.0522  0.3215
 1166SOL     vw 4664   2.525   2.766   0.672  0.3979  0.4601 -0.3362
 1167SOL     ow 4665   2.197   5.337   7.053  0.4045  0.2618  0.4575
 1167SOL     hw 4666   2.248   5.365   7.129  0.0846  0.6621  0.5227
 1167SOL     hw 4667   2.167   5.249   7.075  0.5236  0.2789  0.6875
 1167SOL     vw 4668   2.200   5.329   7.066  0.3780  0.3166  0.4964
 1168SOL     ow 4669   7.011   5.408   6.051 -0.1678  0.0011  0.0823
 1168SOL     hw 4670   7.087   5.372   6.097 -0.8901 -0.0888  1.2188
 1168SOL     hw 4671   7.005   5.355   5.971  1.8353  0.9565 -0.7888
 1168SOL     vw 4672   7.020   5.396   6.046  0.0012  0.1154  0.1173
 1169SOL     ow 4673   0.282   5.571   3.251 -0.0726 -0.2117 -0.4764
 1169SOL     hw 4674   0.339   5.550   3.177 -0.1352  0.7882 -0.8177
 1169SOL     hw 4675   0.244   5.655   3.229  1.5244  1.1784  1.6308
 1169SOL     vw 4676   0.285   5.579   3.238  0.1299  0.1037 -0.2433
 1170SOL     ow 4677   4.843   2.186   2.262  0.3691 -0.0125 -0.0032
 1170SOL     hw 4678   4.809   2.205   2.349 -3.4345 -2.9057 -0.5762
 1170SOL     hw 4679   4.783   2.230   2.202  1.3146 -0.2496 -1.1629
 1170SOL     vw 4680   4.831   2.194   2.266 -0.0081 -0.4255 -0.2317
 1171SOL     ow 4681   6.382   1.917   3.521 -0.1886 -0.0256 -0.2780
 1171SOL     hw 4682   6.384   1.886   3.612  1.7624  0.3235 -0.1657
 1171SOL     hw 4683   6.347   2.006   3.527  0.5923  0.2546  0.2329
 1171SOL     vw 4684   6.378   1.925   3.534  0.1717  0.0575 -0.1957
 1172SOL     ow 4685   3.335   2.575   0.853 -0.0935 -0.3075 -0.2066
 1172SOL     hw 4686   3.424   2.540   0.846 -0.1467 -0.1575 -2.3337
 1172SOL     hw 4687   3.281   2.499   0.874  0.3056 -0.7823 -0.8490
 1172SOL     vw 4688   3.340   2.561   0.855 -0.0478 -0.3504 -0.5720
 1173SOL     ow 4689   7.230   2.140   6.076 -0.2217 -0.7455  0.3638
 1173SOL     hw 4690   7.310   2.149   6.128 -0.4154  1.2979  0.3860
 1173SOL     hw 4691   7.161   2.177   6.131 -0.6011  0.5394 -0.9236
 1173SOL     vw 4692   7.232   2.146   6.090 -0.2973 -0.3065  0.1969
 1174SOL     ow 4693   1.516   6.780   2.876 -0.7953  0.5016  0.5358
 1174SOL     hw 4694   1.574   6.815   2.808  0.0922 -1.6699  0.1188
 1174SOL     hw 4695   1.545   6.822   2.957  0.7493  0.1641  0.1772
 1174SOL     vw 4696   1.527   6.790   2.878 -0.4744  0.1705  0.4334
 1175SOL     ow 4697   2.158   0.944   7.074  0.2056  0.7041  0.3921
 1175SOL     hw 4698   2.106   0.899   7.140 -0.6701 -0.3548 -0.9497
 1175SOL     hw 4699   2.152   1.037   7.097 -0.2559  0.3825  1.6347
 1175SOL     vw 4700   2.151   0.950   7.086  0.0291  0.5219  0.3788
 1176SOL     ow 4701   2.776   6.539   0.771  0.1853  0.7296 -0.4182
 1176SOL     hw 4702   2.867   6.515   0.755 -0.2946 -4.1352  2.2381
 1176SOL     hw 4703   2.725   6.474   0.722 -1.6756  0.5578  1.5856
 1176SOL     vw 4704   2.781   6.527   0.762 -0.1235  0.0651  0.1966
 1177SOL     ow 4705   4.023   6.834   4.863 -0.3552 -0.0500 -0.3545
 1177SOL     hw 4706   3.944   6.843   4.917 -1.3307 -0.1565 -1.7266
 1177SOL     hw 4707   3.996   6.779   4.790  1.0050 -0.0799 -0.8594
 1177SOL     vw 4708   4.009   6.828   4.861 -0.3045 -0.0682 -0.6022
 1178SOL     ow 4709   1.442   2.821   0.079 -0.1794 -0.8041 -0.3776
 1178SOL     hw 4710   1.433   2.801   0.172  0.9306 -0.8958 -0.2821
 1178SOL     hw 4711   1.399   2.748   0.035 -1.7439 -0.1864  0.0594
 1178SOL     vw 4712   1.435   2.809   0.086 -0.2393 -0.7346 -0.3073
 1179SOL     ow 4713   6.522   0.680   3.856 -0.3252  0.4834 -0.9864
 1179SOL     hw 4714   6.463   0.710   3.787  0.2223  0.1915 -1.5916
 1179SOL     hw 4715   6.606   0.721   3.835 -0.1250  0.2952 -0.5594
 1179SOL     vw 4716   6.526   0.689   3.844 -0.2267  0.4200 -1.0098
 1180SOL     ow 4717   2.976   5.869   5.142  0.0451 -0.2451  0.6004
 1180SOL     hw 4718   2.985   5.783   5.100  2.8645 -0.9404  2.3471
 1180SOL     hw 4719   3.016   5.930   5.080  1.9605 -0.9099  1.0984
 1180SOL     vw 4720   2.983   5.866   5.128  0.6696 -0.4244  0.8969
 1181SOL     ow 4721   1.006   6.394   2.574  0.1964 -0.6891 -0.0172
 1181SOL     hw 4722   0.982   6.479   2.536 -3.4367 -2.4817 -2.2733
 1181SOL     hw 4723   1.043   6.344   2.501 -0.1130 -1.8530  0.5930
 1181SOL     vw 4724   1.008   6.399   2.559 -0.3238 -1.0793 -0.2342
 1182SOL     ow 4725   2.296   6.585   1.191 -0.6850 -0.1005 -0.1192
 1182SOL     hw 4726   2.381   6.622   1.214 -1.0475  0.9811 -0.4946
 1182SOL     hw 4727   2.311   6.490   1.192  0.3813  0.0540  0.3460
 1182SOL     vw 4728   2.309   6.577   1.195 -0.5921  0.0625 -0.1074
 1183SOL     ow 4729   2.956   0.673   3.347  0.1176  0.1152  0.5040
 1183SOL     hw 4730   2.938   0.658   3.254 -0.0525 -0.5113  0.6310
 1183SOL     hw 4731   2.919   0.759   3.364  0.2569  0.2879 -0.0387
 1183SOL     vw 4732   2.948   0.682   3.337  0.1136  0.0553  0.4493
 1184SOL     ow 4733   2.196   1.771   5.010 -0.0302 -0.2500 -0.3232
 1184SOL     hw 4734   2.274   1.772   4.953  0.4536 -3.2179  0.1169
 1184SOL     hw 4735   2.124   1.751   4.951 -0.0389 -0.0647 -0.3739
 1184SOL     vw 4736   2.197   1.768   4.994  0.0325 -0.6171 -0.2718
 1185SOL     ow 4737   6.453   3.952   3.924 -0.0813  0.1341 -0.0172
 1185SOL     hw 4738   6.362   3.966   3.898 -0.6770 -0.0192  1.8152
 1185SOL     hw 4739   6.497   4.034   3.903 -0.5752  0.1190 -1.1717
 1185SOL     vw 4740   6.447   3.965   3.918 -0.2251  0.1121  0.0722
 1186SOL     ow 4741   6.843   3.720   1.404  0.1322  1.0917  0.3474
 1186SOL     hw 4742   6.821   3.750   1.316 -0.3940  2.7752  1.0275
 1186SOL     hw 4743   6.766   3.669   1.432  1.2265 -1.5190 -0.9950
 1186SOL     vw 4744   6.830   3.717   1.396  0.2072  0.9693  0.2600
 1187SOL     ow 4745   1.384   4.424   2.955  1.0260 -0.7520  0.2984
 1187SOL     hw 4746   1.412   4.379   2.874 -1.3394  0.2691 -1.1848
 1187SOL     hw 4747   1.336   4.357   3.004 -0.5335 -0.5066 -0.8334
 1187SOL     vw 4748   1.382   4.409   2.950  0.5082 -0.5851 -0.0466
 1188SOL     ow 4749   6.910   0.751   5.338  0.0651  0.0231 -0.3385
 1188SOL     hw 4750   6.886   0.839   5.366 -0.7830 -0.3091 -0.0099
 1188SOL     hw 4751   6.908   0.698   5.417  0.9563 -0.2270 -0.4642
 1188SOL     vw 4752   6.907   0.755   5.352  0.0706 -0.0537 -0.3119
 1189SOL     ow 4753   6.751   0.212   5.965 -0.3736 -0.2178  0.0163
 1189SOL     hw 4754   6.700   0.189   6.042  0.1232  0.1140  0.4478
 1189SOL     hw 4755   6.689   0.255   5.907 -1.2954 -2.4126 -0.7301
 1189SOL     vw 4756   6.736   0.215   5.967 -0.4296 -0.4636 -0.0255
 1190SOL     ow 4757   2.087   5.272   2.128 -0.0868 -0.0892 -0.1033
 1190SOL     hw 4758   1.998   5.240   2.112  0.0519 -0.6652  0.2354
 1190SOL     hw 4759   2.128   5.275   2.042 -0.3583 -0.0536 -0.2324
 1190SOL     vw 4760   2.080   5.268   2.115 -0.1042 -0.1607 -0.0756
 1191SOL     ow 4761   5.847   4.948   4.036 -0.1974  0.6868  0.5005
 1191SOL     hw 4762   5.758   4.975   4.061 -0.2704  0.2777  0.6890
 1191SOL     hw 4763   5.869   4.878   4.097  0.7279  1.5803  1.2317
 1191SOL     vw 4764   5.838   4.942   4.048 -0.0849  0.7505  0.6218
 1192SOL     ow 4765   6.760   3.055   0.397  0.8955  0.1935 -0.0003
 1192SOL     hw 4766   6.745   2.973   0.446 -1.9198  0.7526  0.2303
 1192SOL     hw 4767   6.721   3.039   0.311  1.4318  0.8840 -0.3770
 1192SOL     vw 4768   6.753   3.042   0.392  0.5951  0.3585 -0.0196
 1193SOL     ow 4769   0.612   2.283   6.184 -0.3351  0.1890  0.3833
 1193SOL     hw 4770   0.626   2.234   6.265 -0.0394 -0.1159  0.1459
 1193SOL     hw 4771   0.609   2.217   6.115 -1.6581  0.3405  0.2618
 1193SOL     vw 4772   0.613   2.268   6.186 -0.4706  0.1688  0.3359
 1194SOL     ow 4773   0.449   2.009   1.956 -0.1997 -0.1753 -0.4453
 1194SOL     hw 4774   0.400   1.965   1.888 -2.3183  1.1513  0.1245
 1194SOL     hw 4775   0.470   1.940   2.020 -1.5094 -0.7582 -0.6199
 1194SOL     vw 4776   0.445   1.994   1.956 -0.6521 -0.0772 -0.3931
 1195SOL     ow 4777   3.387   3.501   6.376 -0.7403 -0.1324  0.7665
 1195SOL     hw 4778   3.410   3.420   6.421 -0.7696 -1.2089 -1.0556
 1195SOL     hw 4779   3.471   3.542   6.354 -0.6057 -1.1596 -0.8169
 1195SOL     vw 4780   3.401   3.496   6.379 -0.7265 -0.4100  0.3171
 1196SOL     ow 4781   7.265   1.938   1.406  0.5085  0.3609  0.0206
 1196SOL     hw 4782   7.355   1.966   1.390  0.7569 -0.8214 -0.7885
 1196SOL     hw 4783   7.274   1.861   1.462  0.0531 -0.1757 -0.6327
 1196SOL     vw 4784   7.278   1.932   1.412  0.4811  0.1341 -0.1723
 1197SOL     ow 4785   6.190   3.123   4.959 -0.0578 -0.1280  0.2078
 1197SOL     hw 4786   6.108   3.082   4.986 -1.5552  3.5026  1.7629
 1197SOL     hw 4787   6.164   3.193   4.899  2.2458 -0.5503 -1.4607
 1197SOL     vw 4788   6.176   3.127   4.954  0.0486  0.2953  0.1929
 1198SOL     ow 4789   4.285   3.803   1.021  0.2647  0.6503 -0.1785
 1198SOL     hw 4790   4.208   3.771   1.069  1.1339  0.1496  0.9514
 1198SOL     hw 4791   4.273   3.770   0.932 -0.0413 -0.8225  0.3816
 1198SOL     vw 4792   4.273   3.794   1.016  0.3388  0.3898  0.0445
 1199SOL     ow 4793   6.248   4.101   0.271  0.1528  0.0312 -0.5899
 1199SOL     hw 4794   6.226   4.110   0.363 -0.0961 -1.3913 -0.4862
 1199SOL     hw 4795   6.315   4.167   0.255  2.7910 -1.9131  1.4834
 1199SOL     vw 4796   6.254   4.111   0.281  0.4680 -0.4132 -0.3027
 1200SOL     ow 4797   6.866   7.036   4.722 -0.8605  0.2049  0.2672
 1200SOL     hw 4798   6.958   7.043   4.749 -0.7325  0.2834 -0.1942
 1200SOL     hw 4799   6.824   6.992   4.796  0.2079 -3.0866 -0.8864
 1200SOL     vw 4800   6.873   7.031   4.736 -0.7029 -0.2191  0.0539
 1201SOL     ow 4801   6.283   6.797   2.027  0.3068  0.4148  0.1913
 1201SOL     hw 4802   6.272   6.891   2.037 -0.4330  0.5435 -1.4569
 1201SOL     hw 4803   6.273   6.781   1.933  4.0240 -0.8684 -0.1635
 1201SOL     vw 4804   6.280   6.807   2.016  0.6995  0.2623 -0.0730
 1202SOL     ow 4805   4.266   0.258   4.535  0.2871  0.4468 -0.4399
 1202SOL     hw 4806   4.206   0.203   4.486 -2.3912  1.9474  0.9296
 1202SOL     hw 4807   4.326   0.293   4.469 -2.9019  2.0762 -2.7490
 1202SOL     vw 4808   4.266   0.256   4.520 -0.4871  0.8598 -0.5636
 1203SOL     ow 4809   2.981   0.048   6.396  0.1063 -0.4187 -0.2242
 1203SOL     hw 4810   2.930   0.116   6.441 -0.6779  0.0033 -1.6998
 1203SOL     hw 4811   2.953  -0.034   6.438 -0.5142 -0.0309  0.1461
 1203SOL     vw 4812   2.971   0.046   6.408 -0.0790 -0.3119 -0.3700
 1204SOL     ow 4813   7.080   1.863   1.164  0.2515  0.3388  0.2912
 1204SOL     hw 4814   7.105   1.897   1.078  1.1989 -0.8303  0.0837
 1204SOL     hw 4815   7.056   1.772   1.148 -2.1209  0.7996  0.8574
 1204SOL     vw 4816   7.080   1.855   1.151  0.0634  0.2453  0.3386
 1205SOL     ow 4817   0.060   2.136   4.673 -0.3985 -0.5649 -0.0341
 1205SOL     hw 4818   0.093   2.092   4.594  0.9210  1.0166 -0.4230
 1205SOL     hw 4819   0.030   2.221   4.641  1.6650  0.7624  1.3391
 1205SOL     vw 4820   0.060   2.141   4.658  0.0478 -0.1812  0.0956
 1206SOL     ow 4821   4.304   0.673   7.071  0.1978 -0.0798 -0.1043
 1206SOL     hw 4822   4.302   0.765   7.045  0.7496  0.5642  1.9711
 1206SOL     hw 4823   4.219   0.638   7.044 -0.2577  1.1990 -0.3483
 1206SOL     vw 4824   4.293   0.680   7.064  0.2105  0.1739  0.1376
 1207SOL     ow 4825   4.895   3.749   4.385 -0.1594 -0.7235 -0.2462
 1207SOL     hw 4826   4.974   3.719   4.339  0.3877  0.0585  0.1571
 1207SOL     hw 4827   4.906   3.717   4.475 -0.6171 -1.1585 -0.3408
 1207SOL     vw 4828   4.907   3.741   4.391 -0.1476 -0.6777 -0.2053
 1208SOL     ow 4829   0.431   4.774   2.399 -0.0967 -0.0431 -0.2347
 1208SOL     hw 4830   0.477   4.710   2.345 -1.1136 -0.2140 -0.9309
 1208SOL     hw 4831   0.436   4.738   2.488  1.7138  0.3197 -0.1704
 1208SOL     vw 4832   0.437   4.761   2.404  0.0080 -0.0179 -0.3179
 1209SOL     ow 4833   6.789   2.503   6.924 -0.6796 -0.5304  0.2127
 1209SOL     hw 4834   6.777   2.597   6.913 -3.4908 -0.5789  1.9305
 1209SOL     hw 4835   6.884   2.490   6.918 -0.3323  2.0941 -1.8679
 1209SOL     vw 4836   6.800   2.513   6.921 -1.0047 -0.1905  0.1647
 1210SOL     ow 4837   2.660   3.562   3.409 -0.0795  0.1178  0.4463
 1210SOL     hw 4838   2.647   3.521   3.324  0.2996  1.3602 -0.2300
 1210SOL     hw 4839   2.572   3.578   3.442 -0.2913  1.7935 -0.8032
 1210SOL     vw 4840   2.647   3.559   3.402 -0.0573  0.5029  0.1923
 1211SOL     ow 4841   4.080   7.111   1.108 -0.4927 -0.2463 -0.1861
 1211SOL     hw 4842   4.013   7.135   1.044  0.9124  0.5456 -1.4229
 1211SOL     hw 4843   4.108   7.195   1.145  0.1264 -0.5304 -0.0015
 1211SOL     vw 4844   4.075   7.126   1.104 -0.2255 -0.1791 -0.3250
 1212SOL     ow 4845   2.040   2.343   2.907  0.2843  0.1060  0.3640
 1212SOL     hw 4846   2.013   2.251   2.914 -1.3181  0.6598  3.0530
 1212SOL     hw 4847   1.962   2.389   2.879  0.3820  0.8870  1.3041
 1212SOL     vw 4848   2.026   2.337   2.905  0.0857  0.2820  0.8428
 1213SOL     ow 4849   2.709   3.807   6.085  0.2426  0.0306  0.5311
 1213SOL     hw 4850   2.773   3.781   6.152  0.4343  0.5899  0.5645
 1213SOL     hw 4851   2.720   3.901   6.077 -0.6682  0.1501  0.6267
 1213SOL     vw 4852   2.719   3.816   6.093  0.1477  0.1203  0.5479
 1214SOL     ow 4853   4.117   5.044   0.229  0.1512 -0.0312  0.3882
 1214SOL     hw 4854   4.180   5.115   0.238  2.1252 -1.4920 -0.9683
 1214SOL     hw 4855   4.153   4.974   0.283 -1.5068 -0.2012  1.3332
 1214SOL     vw 4856   4.130   5.044   0.237  0.1929 -0.2463  0.3339
 1215SOL     ow 4857   2.852   2.598   6.142  0.8170  0.0343  0.0553
 1215SOL     hw 4858   2.791   2.532   6.172  0.0440  0.7150  0.0068
 1215SOL     hw 4859   2.879   2.644   6.221  0.8322  0.1077  0.0076
 1215SOL     vw 4860   2.848   2.596   6.156  0.7170  0.1339  0.0424
 1216SOL     ow 4861   0.550   2.272   3.458  0.2656 -0.2691  0.0827
 1216SOL     hw 4862   0.627   2.225   3.427 -1.4727 -1.6948 -2.3937
 1216SOL     hw 4863   0.583   2.329   3.527  3.0200 -2.9914  1.2544
 1216SOL     vw 4864   0.565   2.273   3.463  0.3996 -0.8165 -0.0894
 1217SOL     ow 4865   0.376   0.799   3.735 -0.3919 -0.0800  0.3919
 1217SOL     hw 4866   0.334   0.836   3.812 -0.4538 -0.1401  0.3877
 1217SOL     hw 4867   0.336   0.712   3.725  0.4114 -0.5224  0.9348
 1217SOL     vw 4868   0.365   0.792   3.744 -0.2941 -0.1463  0.4630
 1218SOL     ow 4869   5.590   5.550   1.872  0.3238  0.3289 -0.2267
 1218SOL     hw 4870   5.510   5.520   1.915  0.0593 -0.1274 -1.0132
 1218SOL     hw 4871   5.599   5.493   1.796  1.9308 -0.2565  0.3755
 1218SOL     vw 4872   5.581   5.539   1.868  0.5009  0.1915 -0.2510
 1219SOL     ow 4873   0.419   7.149   4.089 -0.0059 -0.4046  0.0700
 1219SOL     hw 4874   0.463   7.202   4.155  1.4555  0.6945 -1.6645
 1219SOL     hw 4875   0.491   7.112   4.037 -1.0980 -1.2113 -0.9201
 1219SOL     vw 4876   0.435   7.151   4.091  0.0428 -0.3660 -0.2897
 1220SOL     ow 4877   0.339   0.876   2.681  0.4683  0.0674 -0.6574
 1220SOL     hw 4878   0.291   0.873   2.764  0.2246  0.0847 -0.7955
 1220SOL     hw 4879   0.431   0.865   2.705  0.5700  1.6931 -0.2418
 1220SOL     vw 4880   0.345   0.874   2.695  0.4496  0.2842 -0.6208
 1221SOL     ow 4881   4.169   2.672   6.482  0.3383 -0.2331 -0.3593
 1221SOL     hw 4882   4.221   2.592   6.474  0.4137 -0.1541 -0.6727
 1221SOL     hw 4883   4.222   2.729   6.538 -0.1569 -0.7593  0.6953
 1221SOL     vw 4884   4.183   2.669   6.489  0.2830 -0.2922 -0.2613
 1222SOL     ow 4885   2.097   5.758   2.910 -0.1627  0.1317  0.8969
 1222SOL     hw 4886   2.027   5.807   2.954  1.5984  1.5225  2.3313
 1222SOL     hw 4887   2.074   5.666   2.923 -1.1910  0.5394  2.2540
 1222SOL     vw 4888   2.085   5.753   2.917 -0.0660  0.3691  1.2653
 1223SOL     ow 4889   4.480   7.130   0.624 -0.0041 -0.4100  0.0510
 1223SOL     hw 4890   4.529   7.079   0.560  1.8198  1.0892  0.1698
 1223SOL     hw 4891   4.474   7.217   0.585  0.5863  0.3654  1.6168
 1223SOL     vw 4892   4.485   7.135   0.611  0.3145 -0.1099  0.2732
 1224SOL     ow 4893   0.160   1.833   2.361  0.2666  0.7618 -0.0657
 1224SOL     hw 4894   0.138   1.779   2.285 -0.4336  1.3198 -0.2710
 1224SOL     hw 4895   0.110   1.914   2.348  1.9111  1.8150 -0.1987
 1224SOL     vw 4896   0.151   1.837   2.349  0.3912  0.9744 -0.1103
 1225SOL     ow 4897   1.460   2.033   5.542  0.2084  0.4987  0.8054
 1225SOL     hw 4898   1.553   2.031   5.519  0.4698  3.1404  1.2982
 1225SOL     hw 4899   1.454   1.979   5.621  1.3811  0.5475  0.9414
 1225SOL     vw 4900   1.472   2.025   5.550  0.3976  0.8535  0.8883
 1226SOL     ow 4901   6.816   6.954   6.847 -0.7156  0.1164  0.3082
 1226SOL     hw 4902   6.900   6.997   6.864 -2.0820  1.9338  3.6805
 1226SOL     hw 4903   6.762   7.022   6.807 -1.4720  0.0714  1.1973
 1226SOL     vw 4904   6.820   6.969   6.844 -0.9956  0.3502  0.8705
 1227SOL     ow 4905   5.409   0.551   2.098 -0.2207 -0.4398  0.1367
 1227SOL     hw 4906   5.362   0.517   2.174 -0.9523  0.7566  0.2545
 1227SOL     hw 4907   5.467   0.618   2.135 -0.6822  0.2448 -0.3523
 1227SOL     vw 4908   5.410   0.556   2.113 -0.3781 -0.1916  0.0876
 1228SOL     ow 4909   6.997   0.372   3.323  0.4695  0.5572 -0.3462
 1228SOL     hw 4910   7.049   0.383   3.402  0.4659 -2.9383  0.3192
 1228SOL     hw 4911   6.960   0.284   3.331 -0.5544  0.5400 -3.6702
 1228SOL     vw 4912   6.999   0.362   3.334  0.3338  0.0938 -0.6970
 1229SOL     ow 4913   2.185   1.236   3.467 -0.1236 -0.0249  0.5255
 1229SOL     hw 4914   2.242   1.248   3.391 -0.8509 -0.4039 -0.0917
 1229SOL     hw 4915   2.171   1.325   3.501 -1.3720  0.4061 -0.9740
 1229SOL     vw 4916   2.190   1.249   3.461 -0.3843 -0.0181  0.2462
 1230SOL     ow 4917   4.050   5.377   5.786  0.5960 -0.1400  0.6436
 1230SOL     hw 4918   4.017   5.370   5.697  1.2401  0.1814  0.3768
 1230SOL     hw 4919   4.008   5.456   5.821 -1.2661 -1.3692  1.3355
 1230SOL     vw 4920   4.040   5.386   5.779  0.4354 -0.2599  0.6998
 1231SOL     ow 4921   5.863   2.231   0.263  0.1506 -0.0810 -0.3516
 1231SOL     hw 4922   5.881   2.149   0.218  2.1703 -0.3702  0.8445
 1231SOL     hw 4923   5.917   2.296   0.217  0.3515  0.0939  0.1234
 1231SOL     vw 4924   5.873   2.229   0.251  0.4435 -0.0961 -0.1311
 1232SOL     ow 4925   1.489   0.930   5.601  0.8763 -0.3116  0.0548
 1232SOL     hw 4926   1.420   0.951   5.664  0.9966 -1.1507  0.4676
 1232SOL     hw 4927   1.489   0.835   5.596  1.6277 -0.2928 -0.3721
 1232SOL     vw 4928   1.480   0.920   5.609  0.9913 -0.4198  0.0529
 1233SOL     ow 4929   7.007   4.289   4.428 -0.2606  0.2328  0.1172
 1233SOL     hw 4930   7.027   4.198   4.404  0.6598  0.9323 -2.1051
 1233SOL     hw 4931   6.962   4.325   4.351 -2.6543  1.0900  1.8129
 1233SOL     vw 4932   7.004   4.282   4.414 -0.4551  0.4382  0.0477
 1234SOL     ow 4933   2.952   5.374   1.962 -0.5368  0.3344  0.1950
 1234SOL     hw 4934   2.940   5.311   1.891 -1.3724  0.9372 -0.2204
 1234SOL     hw 4935   3.004   5.444   1.923 -0.2059  0.2328  0.4510
 1234SOL     vw 4936   2.957   5.375   1.947 -0.6034  0.4001  0.1739
 1235SOL     ow 4937   2.744   1.575   3.196  0.5928  0.3322 -0.8165
 1235SOL     hw 4938   2.741   1.533   3.111 -3.7448  0.7348 -1.1112
 1235SOL     hw 4939   2.686   1.651   3.187  0.3322  0.6432  2.3468
 1235SOL     vw 4940   2.736   1.580   3.184 -0.0138  0.4263 -0.4380
 1236SOL     ow 4941   0.458   4.141   3.368 -0.4085  0.5641  0.0750
 1236SOL     hw 4942   0.527   4.081   3.339  0.6038  1.9717 -0.5739
 1236SOL     hw 4943   0.434   4.110   3.455  0.3602 -0.5402 -0.0933
 1236SOL     vw 4944   0.464   4.129   3.376 -0.1735  0.6044 -0.0328
 1237SOL     ow 4945   1.509   4.636   3.229  0.4959  0.4275  0.0306
 1237SOL     hw 4946   1.438   4.621   3.292 -1.9763  2.2373 -2.0905
 1237SOL     hw 4947   1.563   4.704   3.271 -0.3831  0.7187  0.7338
 1237SOL     vw 4948   1.507   4.643   3.243  0.0538  0.7045 -0.1566
 1238SOL     ow 4949   5.849   5.761   4.714  0.4522  1.0129  0.3047
 1238SOL     hw 4950   5.884   5.825   4.652 -1.8234  1.3684 -0.7367
 1238SOL     hw 4951   5.758   5.748   4.686  0.8286 -2.7974  0.3991
 1238SOL     vw 4952   5.841   5.768   4.702  0.2015  0.5572  0.1795
 1239SOL     ow 4953   2.123   5.247   6.477 -0.0653  0.4277  0.4611
 1239SOL     hw 4954   2.123   5.152   6.462  3.1183  0.0275  2.1932
 1239SOL     hw 4955   2.108   5.284   6.390 -1.3225 -1.6263 -0.2833
 1239SOL     vw 4956   2.121   5.239   6.463  0.1889  0.1040  0.5915
 1240SOL     ow 4957   1.754   3.618   6.008 -0.5690 -0.0497 -0.7433
 1240SOL     hw 4958   1.779   3.708   5.984 -1.6814 -0.0370 -1.9293
 1240SOL     hw 4959   1.830   3.585   6.056 -0.2814  1.6430  0.0612
 1240SOL     vw 4960   1.768   3.626   6.011 -0.6778  0.1754 -0.7935
 1241SOL     ow 4961   5.795   0.521   0.392  0.6210  0.3632 -0.1955
 1241SOL     hw 4962   5.775   0.465   0.467  0.8931  2.5041  1.5613
 1241SOL     hw 4963   5.739   0.597   0.402  0.2424  0.4800 -2.5408
 1241SOL     vw 4964   5.785   0.523   0.403  0.6073  0.6611 -0.2732
 1242SOL     ow 4965   4.869   1.961   0.719  0.3479  0.0190  0.4077
 1242SOL     hw 4966   4.831   1.882   0.680  0.5189  0.7504 -1.3241
 1242SOL     hw 4967   4.859   2.028   0.651  0.7682  1.3380  1.6071
 1242SOL     vw 4968   4.863   1.959   0.705  0.4258  0.2894  0.3375
 1243SOL     ow 4969   1.045   6.510   1.744  0.2378 -0.2230  0.3969
 1243SOL     hw 4970   1.084   6.448   1.804 -0.4305 -1.8560 -0.7781
 1243SOL     hw 4971   1.082   6.489   1.659 -2.3919 -1.2383 -0.6022
 1243SOL     vw 4972   1.055   6.499   1.741 -0.1974 -0.5722  0.1100
 1244SOL     ow 4973   4.775   4.111   1.495 -0.0807 -0.5966 -0.4987
 1244SOL     hw 4974   4.814   4.029   1.528  1.2240  0.3587  0.4238
 1244SOL     hw 4975   4.688   4.085   1.465  0.0989 -2.2297  0.2522
 1244SOL     vw 4976   4.769   4.096   1.495  0.1152 -0.6862 -0.2779
 1245SOL     ow 4977   0.212   0.227   1.919 -0.3186 -0.1300 -0.4378
 1245SOL     hw 4978   0.121   0.253   1.902 -0.8262 -1.6851 -0.2902
 1245SOL     hw 4979   0.244   0.196   1.834  0.4924  1.4867 -0.7625
 1245SOL     vw 4980   0.204   0.227   1.905 -0.2786 -0.1218 -0.4612
 1246SOL     ow 4981   6.975   5.306   4.379 -0.0655 -0.4035  0.8157
 1246SOL     hw 4982   6.964   5.321   4.285  0.4201 -0.8590  0.6872
 1246SOL     hw 4983   7.069   5.299   4.392 -0.1734 -1.3135  1.1875
 1246SOL     vw 4984   6.986   5.307   4.369 -0.0157 -0.5839  0.8476
 1247SOL     ow 4985   1.722   6.031   3.824 -0.5734  0.0213  0.0496
 1247SOL     hw 4986   1.777   5.965   3.781 -0.0088  0.3424  0.2585
 1247SOL     hw 4987   1.661   5.981   3.877  1.2949 -0.3511  2.0046
 1247SOL     vw 4988   1.721   6.016   3.825 -0.2524  0.0145  0.3351
 1248SOL     ow 4989   5.112   0.923   5.267  0.3877  0.4863  0.3956
 1248SOL     hw 4990   5.070   0.864   5.329  1.0060  0.8191  1.1411
 1248SOL     hw 4991   5.158   0.865   5.206 -1.3587  0.0961 -0.6240
 1248SOL     vw 4992   5.112   0.908   5.267  0.2389  0.4787  0.3595
 1249SOL     ow 4993   2.169   6.162   0.247  0.7821 -0.4263 -0.8644
 1249SOL     hw 4994   2.146   6.200   0.162 -0.7673  3.7965  1.1091
 1249SOL     hw 4995   2.225   6.228   0.288 -0.1332 -1.3273  2.1039
 1249SOL     vw 4996   2.173   6.176   0.241  0.4569  0.0119 -0.2124
 1250SOL     ow 4997   3.439   3.378   6.937  0.2027  0.5323  0.0513
 1250SOL     hw 4998   3.528   3.383   6.972  1.2899 -2.1059 -1.9713
 1250SOL     hw 4999   3.405   3.295   6.970 -1.3110  1.2147  0.2721
 1250SOL     vw 5000   3.446   3.368   6.946  0.1464  0.2743 -0.1862
 1251SOL     ow 5001   0.536   2.545   6.913 -0.1913  0.4924 -0.1169
 1251SOL     hw 5002   0.578   2.563   6.828  1.2728  0.6913  0.6079
 1251SOL     hw 5003   0.609   2.518   6.970 -1.4423 -1.9589  0.4646
 1251SOL     vw 5004   0.551   2.544   6.909 -0.1632  0.1951  0.0553
 1252SOL     ow 5005   3.648   1.658   4.194  0.5066  0.2386  0.1197
 1252SOL     hw 5006   3.740   1.643   4.216  0.2107 -1.4760  0.3373
 1252SOL     hw 5007   3.639   1.753   4.190  2.2250  0.4327  0.3465
 1252SOL     vw 5008   3.659   1.669   4.197  0.6944  0.0380  0.1783
 1253SOL     ow 5009   0.079   2.099   3.795  0.4023 -0.3106 -0.7482
 1253SOL     hw 5010   0.163   2.128   3.829 -0.4071  2.8624 -1.1138
 1253SOL     hw 5011   0.078   2.129   3.704 -1.8614  1.6848 -0.1594
 1253SOL     vw 5012   0.090   2.107   3.788 -0.0033  0.3713 -0.7186
 1254SOL     ow 5013   0.764   2.975   0.500  0.2814 -0.3018  0.7016
 1254SOL     hw 5014   0.682   2.958   0.546 -0.2282  1.0361  0.3469
 1254SOL     hw 5015   0.818   2.897   0.516 -1.1120 -1.2781  0.7854
 1254SOL     vw 5016   0.760   2.963   0.509  0.0303 -0.2540  0.6658
 1255SOL     ow 5017   0.516   0.833   3.271 -0.2054  0.3095  0.1749
 1255SOL     hw 5018   0.563   0.800   3.194 -0.7992  1.4515 -0.7103
 1255SOL     hw 5019   0.555   0.787   3.345  0.3427 -0.8627 -0.8154
 1255SOL     vw 5020   0.528   0.823   3.270 -0.2114  0.3055 -0.0725
 1256SOL     ow 5021   4.722   1.642   6.561 -0.6160  0.1084 -0.2293
 1256SOL     hw 5022   4.764   1.629   6.476 -1.5371  0.6668 -0.7819
 1256SOL     hw 5023   4.795   1.658   6.621 -0.0138  0.9528 -1.1479
 1256SOL     vw 5024   4.737   1.643   6.558 -0.6580  0.2935 -0.4237
 1257SOL     ow 5025   4.108   5.909   5.407  0.2579  0.0609  0.4940
 1257SOL     hw 5026   4.096   5.830   5.354 -0.7888  0.6957 -0.2622
 1257SOL     hw 5027   4.125   5.978   5.343  1.6996  0.3777  1.1796
 1257SOL     vw 5028   4.108   5.908   5.391  0.3102  0.1862  0.4847
 1258SOL     ow 5029   2.093   2.834   0.785  0.4665  0.0445  0.4341
 1258SOL     hw 5030   2.062   2.744   0.783 -2.5847  1.0040 -1.3656
 1258SOL     hw 5031   2.061   2.868   0.869  1.4851 -0.4795  1.0436
 1258SOL     vw 5032   2.085   2.827   0.796  0.1984  0.1020  0.2771
 1259SOL     ow 5033   3.923   6.626   4.008 -0.7523  0.6572 -0.5606
 1259SOL     hw 5034   3.882   6.640   4.093 -1.0592  1.0544 -0.7725
 1259SOL     hw 5035   3.976   6.547   4.020 -1.6389  0.0896 -0.3131
 1259SOL     vw 5036   3.925   6.618   4.021 -0.9099  0.6349 -0.5558
 1260SOL     ow 5037   1.204   0.218   5.509 -0.2015  0.0343  0.6010
 1260SOL     hw 5038   1.275   0.199   5.570 -0.9771 -0.6818  1.2993
 1260SOL     hw 5039   1.141   0.147   5.522  0.7729 -1.7081 -2.9131
 1260SOL     vw 5040   1.205   0.206   5.518 -0.1753 -0.2901  0.2298
 1261SOL     ow 5041   2.206   6.145   6.202  0.2074 -0.4096 -0.0215
 1261SOL     hw 5042   2.225   6.182   6.288 -0.1181  2.6489 -1.1167
 1261SOL     hw 5043   2.291   6.114   6.170  1.0116  1.4246  0.1806
 1261SOL     vw 5044   2.220   6.146   6.209  0.2706  0.2360 -0.1392
 1262SOL     ow 5045   2.738   0.658   6.321  0.4373  0.0183 -0.7605
 1262SOL     hw 5046   2.767   0.623   6.406  0.4503  1.7301 -0.0053
 1262SOL     hw 5047   2.688   0.737   6.344 -0.1388  0.1410 -2.3283
 1262SOL     vw 5048   2.735   0.664   6.336  0.3629  0.2603 -0.8681
 1263SOL     ow 5049   1.401   3.649   4.604  0.0424  0.2582  0.3545
 1263SOL     hw 5050   1.393   3.706   4.680  1.4556  0.4988  0.3496
 1263SOL     hw 5051   1.370   3.702   4.530  1.2311  1.0192  0.3685
 1263SOL     vw 5052   1.396   3.663   4.604  0.3857  0.3905  0.3555
 1264SOL     ow 5053   2.315   2.274   3.049 -0.1723  0.4840  0.4278
 1264SOL     hw 5054   2.352   2.239   3.130  0.9539  2.5258  0.8715
 1264SOL     hw 5055   2.387   2.275   2.987 -1.1125 -1.3971 -0.8000
 1264SOL     vw 5056   2.329   2.270   3.052 -0.1477  0.5053  0.3242
 1265SOL     ow 5057   4.142   0.062   4.389 -0.1923 -0.6464 -0.0267
 1265SOL     hw 5058   4.056   0.056   4.348 -0.3169 -1.2752  0.3104
 1265SOL     hw 5059   4.133   0.014   4.471  0.7333 -1.5128 -0.4126
 1265SOL     vw 5060   4.129   0.055   4.394 -0.0868 -0.8437 -0.0334
 1266SOL     ow 5061   6.861   7.189   3.251 -0.1156 -0.4989  0.0924
 1266SOL     hw 5062   6.785   7.175   3.308 -0.4803 -1.0018 -0.4969
 1266SOL     hw 5063   6.931   7.215   3.310 -1.3299  2.4534  0.4329
 1266SOL     vw 5064   6.860   7.190   3.266 -0.3240 -0.1760  0.0595
 1267SOL     ow 5065   3.213   3.512   4.146  0.0276  0.0852 -0.9604
 1267SOL     hw 5066   3.221   3.455   4.222  0.8222  1.7286  0.2498
 1267SOL     hw 5067   3.255   3.463   4.075 -1.0827 -1.6444 -0.4889
 1267SOL     vw 5068   3.220   3.498   4.146 -0.0142  0.0738 -0.7386
 1268SOL     ow 5069   5.775   1.454   4.766 -0.2506 -0.7884 -0.1443
 1268SOL     hw 5070   5.856   1.502   4.786 -1.3956  1.2695 -0.1121
 1268SOL     hw 5071   5.762   1.467   4.673 -1.1226 -0.0854  0.0570
 1268SOL     vw 5072   5.784   1.462   4.757 -0.5167 -0.4241 -0.1132
 1269SOL     ow 5073   3.590   1.465   2.739 -0.9719 -0.1356 -0.3893
 1269SOL     hw 5074   3.498   1.492   2.740 -1.2128 -0.6120 -2.6909
 1269SOL     hw 5075   3.592   1.385   2.792 -2.4114 -1.4098 -2.0944
 1269SOL     vw 5076   3.578   1.458   2.746 -1.1936 -0.3666 -0.9179
 1270SOL     ow 5077   7.113   4.810   2.880  0.5049  0.0608  0.2198
 1270SOL     hw 5078   7.046   4.873   2.908  0.4608  1.3696 -2.5313
 1270SOL     hw 5079   7.064   4.736   2.844  0.5571 -0.1626  0.6025
 1270SOL     vw 5080   7.098   4.809   2.879  0.5059  0.2036 -0.0925
 1271SOL     ow 5081   3.277   6.723   1.190 -0.0232 -0.2378 -0.2232
 1271SOL     hw 5082   3.255   6.688   1.104  0.5508  0.2939 -0.5951
 1271SOL     hw 5083   3.313   6.810   1.172 -1.1807  0.4524  0.6608
 1271SOL     vw 5084   3.279   6.730   1.176 -0.1001 -0.0765 -0.1556
 1272SOL     ow 5085   1.726   6.210   1.453 -0.5060  0.5500  0.2858
 1272SOL     hw 5086   1.717   6.290   1.505 -1.7992 -0.2667  1.3494
 1272SOL     hw 5087   1.753   6.242   1.366  0.3511  2.0240  1.0512
 1272SOL     vw 5088   1.728   6.225   1.448 -0.5636  0.6368  0.5271
 1273SOL     ow 5089   0.930   0.780   6.279 -0.7702 -0.4275  0.3147
 1273SOL     hw 5090   1.007   0.816   6.324 -1.5119 -0.2139  1.4763
 1273SOL     hw 5091   0.910   0.845   6.212 -1.3155  0.7372  1.5410
 1273SOL     vw 5092   0.938   0.794   6.276 -0.9400 -0.2457  0.6301
 1274SOL     ow 5093   0.594   3.223   3.533 -0.2569  0.3052  0.3791
 1274SOL     hw 5094   0.587   3.224   3.628 -0.2130  0.9862  0.3769
 1274SOL     hw 5095   0.504   3.209   3.503 -0.0376 -1.8214  0.5340
 1274SOL     vw 5096   0.581   3.221   3.541 -0.2221  0.1144  0.3994
 1275SOL     ow 5097   1.649   4.034   1.966 -0.2373 -0.2438  0.1230
 1275SOL     hw 5098   1.700   4.040   1.885  0.0494  0.6541  0.3525
 1275SOL     hw 5099   1.558   4.032   1.936 -0.1048 -1.1730 -0.2618
 1275SOL     vw 5100   1.644   4.035   1.951 -0.1820 -0.2480  0.1025
 1276SOL     ow 5101   0.997   3.575   3.448  0.0873  0.4366  0.4222
 1276SOL     hw 5102   0.988   3.591   3.541 -2.3208 -0.7429  0.4726
 1276SOL     hw 5103   1.088   3.597   3.428  1.0196 -0.4217  3.2756
 1276SOL     vw 5104   1.008   3.580   3.457 -0.1075  0.1678  0.8054
 1277SOL     ow 5105   5.777   3.402   0.129 -0.3634  0.3615  0.0244
 1277SOL     hw 5106   5.804   3.369   0.214  0.4692 -1.3239 -0.8409
 1277SOL     hw 5107   5.703   3.346   0.104  0.6233 -0.4642 -1.1665
 1277SOL     vw 5108   5.771   3.390   0.137 -0.1233  0.0302 -0.2469
 1278SOL     ow 5109   3.431   4.941   3.106  0.1676  0.4258 -0.3602
 1278SOL     hw 5110   3.372   4.980   3.041 -0.7478 -2.5876 -1.5442
 1278SOL     hw 5111   3.517   4.944   3.064 -0.0493  0.3638 -0.8196
 1278SOL     vw 5112   3.434   4.946   3.092  0.0182  0.0200 -0.5771
 1279SOL     ow 5113   0.784   4.119   3.628  1.0701 -0.7120  0.0413
 1279SOL     hw 5114   0.705   4.141   3.677 -2.9518 -0.1261 -5.6700
 1279SOL     hw 5115   0.785   4.023   3.628 -0.5123 -0.7756 -0.7456
 1279SOL     vw 5116   0.773   4.109   3.635  0.3307 -0.6433 -0.8160
 1280SOL     ow 5117   4.519   1.234   0.625 -0.8559  0.1131  0.2769
 1280SOL     hw 5118   4.540   1.296   0.555 -2.0616 -0.3323 -0.5017
 1280SOL     hw 5119   4.426   1.215   0.613 -0.7222 -1.1251  1.0760
 1280SOL     vw 5120   4.510   1.240   0.614 -0.9975 -0.1090  0.2796
 1281SOL     ow 5121   1.385   4.667   4.597 -0.2312  0.2928  0.4059
 1281SOL     hw 5122   1.367   4.628   4.682 -2.4069  1.1947  0.4398
 1281SOL     hw 5123   1.477   4.646   4.579 -0.5649 -2.6369  1.5101
 1281SOL     vw 5124   1.395   4.659   4.606 -0.5623  0.0253  0.5560
 1282SOL     ow 5125   4.309   5.265   5.857  0.0685 -0.2900 -0.4429
 1282SOL     hw 5126   4.225   5.309   5.851  0.0207 -0.5802 -3.2068
 1282SOL     hw 5127   4.357   5.294   5.779  1.9841 -1.2299  0.3095
 1282SOL     vw 5128   4.305   5.274   5.846  0.3152 -0.4523 -0.7081
 1283SOL     ow 5129   2.574   3.547   6.097 -0.4831 -0.6966 -0.2246
 1283SOL     hw 5130   2.560   3.555   6.191  1.2913  3.4295 -0.1473
 1283SOL     hw 5131   2.657   3.501   6.089 -0.5759 -0.9480  0.1983
 1283SOL     vw 5132   2.583   3.542   6.108 -0.2614 -0.1854 -0.1588
 1284SOL     ow 5133   1.591   4.651   2.907 -0.0261 -0.0908 -0.1644
 1284SOL     hw 5134   1.627   4.663   2.819 -0.1336  0.1602 -0.1750
 1284SOL     hw 5135   1.590   4.739   2.944  0.8041 -0.3038  0.3933
 1284SOL     vw 5136   1.596   4.664   2.900  0.0693 -0.0858 -0.0923
 1285SOL     ow 5137   5.876   4.753   6.585 -0.3550 -0.0941  0.1196
 1285SOL     hw 5138   5.844   4.664   6.600  2.0415 -0.6909  2.5357
 1285SOL     hw 5139   5.900   4.785   6.672  0.1321  2.4119 -0.8583
 1285SOL     vw 5140   5.875   4.745   6.598  0.0257  0.1578  0.3092
 1286SOL     ow 5141   3.882   3.151   6.580  0.3244  0.1097  0.6788
 1286SOL     hw 5142   3.814   3.087   6.601  0.1896  0.6109  1.8170
 1286SOL     hw 5143   3.949   3.139   6.647 -0.1862  1.8527  1.5534
 1286SOL     vw 5144   3.882   3.141   6.591  0.2394  0.4058  0.9444
 1287SOL     ow 5145   4.831   2.263   4.735  0.3648  0.9906  0.1855
 1287SOL     hw 5146   4.745   2.243   4.772 -0.6536  0.2174 -2.4093
 1287SOL     hw 5147   4.890   2.200   4.777 -0.9749 -0.7489 -0.4322
 1287SOL     vw 5148   4.827   2.252   4.745  0.0536  0.6590 -0.2384
 1288SOL     ow 5149   6.660   4.309   3.179  0.8471 -0.5314 -0.3730
 1288SOL     hw 5150   6.745   4.280   3.148  1.1494  0.4983 -0.5416
 1288SOL     hw 5151   6.676   4.341   3.267  0.3771 -1.5330  0.0915
 1288SOL     vw 5152   6.673   4.309   3.186  0.8249 -0.5276 -0.3340
 1289SOL     ow 5153   4.866   1.993   2.039 -0.1581 -0.1929 -0.1785
 1289SOL     hw 5154   4.887   1.918   1.983 -1.5381 -1.1292  0.5104
 1289SOL     hw 5155   4.771   1.990   2.049 -0.1978  1.4524  0.1664
 1289SOL     vw 5156   4.856   1.982   2.033 -0.3455 -0.0994 -0.0421
 1290SOL     ow 5157   3.723   4.265   5.382  0.5282  0.1186 -0.2251
 1290SOL     hw 5158   3.741   4.244   5.474  0.2488 -0.4401 -0.2935
 1290SOL     hw 5159   3.776   4.203   5.332  0.4862  0.2549 -0.4394
 1290SOL     vw 5160   3.732   4.254   5.388  0.4859  0.0627 -0.2625
 1291SOL     ow 5161   0.025   7.038   0.800  1.1440  0.3129 -0.3497
 1291SOL     hw 5162   0.013   6.952   0.760  2.3230  0.1054 -0.2770
 1291SOL     hw 5163   0.111   7.067   0.769  1.9732  0.2741  1.7813
 1291SOL     vw 5164   0.034   7.030   0.790  1.4088  0.2806 -0.0589
 1292SOL     ow 5165   5.842   4.525   3.974  0.2361 -0.6720  0.4431
 1292SOL     hw 5166   5.931   4.558   3.989 -0.3528  1.2278  0.0512
 1292SOL     hw 5167   5.851   4.466   3.900  0.9591  0.8182 -0.7303
 1292SOL     vw 5168   5.855   4.522   3.966  0.2537 -0.2251  0.2367
 1293SOL     ow 5169   6.576   6.811   4.751  0.0600  0.1320 -0.3274
 1293SOL     hw 5170   6.494   6.817   4.702  0.0270 -1.3305 -0.4841
 1293SOL     hw 5171   6.639   6.775   4.689  0.0908 -1.4723  0.5805
 1293SOL     vw 5172   6.574   6.807   4.737  0.0596 -0.2728 -0.2284
 1294SOL     ow 5173   0.184   1.910   3.142  0.0005 -0.3142 -0.0143
 1294SOL     hw 5174   0.210   1.910   3.234  0.5996  0.6249 -0.1681
 1294SOL     hw 5175   0.226   1.988   3.105 -1.5494  0.2225 -0.7100
 1294SOL     vw 5176   0.193   1.921   3.149 -0.1250 -0.1195 -0.1264
 1295SOL     ow 5177   4.313   0.312   3.244  0.3382 -0.0435 -0.1764
 1295SOL     hw 5178   4.220   0.322   3.266 -0.0725 -0.3966 -1.5846
 1295SOL     hw 5179   4.314   0.313   3.148  1.6502 -1.3055 -0.1984
 1295SOL     vw 5180   4.301   0.314   3.234  0.4570 -0.2566 -0.3651
 1296SOL     ow 5181   3.468   4.496   2.921 -0.1361  0.4092 -0.1372
 1296SOL     hw 5182   3.515   4.448   2.852 -1.4837  0.7049 -1.2953
 1296SOL     hw 5183   3.384   4.519   2.882 -1.2789 -0.0898  1.8595
 1296SOL     vw 5184   3.463   4.492   2.907 -0.4648  0.3824 -0.0268
 1297SOL     ow 5185   2.256   2.638   5.919 -0.4066 -0.0367 -0.2661
 1297SOL     hw 5186   2.202   2.637   5.840  1.1201  0.0364 -1.3353
 1297SOL     hw 5187   2.308   2.558   5.914  0.7599  0.6935 -0.0973
 1297SOL     vw 5188   2.256   2.627   5.908 -0.0513  0.0693 -0.3848
 1298SOL     ow 5189   2.200   6.276   3.638 -0.2123  0.2240  0.4227
 1298SOL     hw 5190   2.195   6.212   3.567 -0.9471  0.9321 -0.1797
 1298SOL     hw 5191   2.122   6.330   3.628 -0.0951  0.6240  1.5047
 1298SOL     vw 5192   2.189   6.275   3.627 -0.2940  0.3703  0.4860
 1299SOL     ow 5193   3.485   3.786   2.428 -0.1888  0.4943  0.6443
 1299SOL     hw 5194   3.487   3.881   2.439 -0.5117  0.4819  0.8329
 1299SOL     hw 5195   3.486   3.751   2.517 -1.5518  0.3619  0.6384
 1299SOL     vw 5196   3.485   3.794   2.441 -0.4113  0.4750  0.6684
 1300SOL     ow 5197   6.010   6.324   4.404 -0.4303 -0.5754  0.2386
 1300SOL     hw 5198   5.994   6.314   4.498 -2.3491  1.0333  0.1518
 1300SOL     hw 5199   6.067   6.251   4.381  1.2558 -0.2036  2.9094
 1300SOL     vw 5200   6.015   6.313   4.413 -0.4609 -0.3145  0.5796
 1301SOL     ow 5201   2.856   3.560   5.694 -0.3688  0.2905 -0.5068
 1301SOL     hw 5202   2.828   3.482   5.645 -0.5621 -0.5780  0.9140
 1301SOL     hw 5203   2.939   3.585   5.654  0.5487 -1.6675  0.0267
 1301SOL     vw 5204   2.863   3.553   5.682 -0.2733 -0.0825 -0.2489
 1302SOL     ow 5205   2.009   1.082   4.102  0.2434 -0.0512  0.8429
 1302SOL     hw 5206   2.056   1.018   4.049 -0.0191  0.7548 -0.4146
 1302SOL     hw 5207   2.078   1.125   4.154  1.0207  1.2918 -1.1566
 1302SOL     vw 5208   2.025   1.079   4.102  0.3115  0.2323  0.4132
 1303SOL     ow 5209   5.957   5.101   2.838  0.0096  0.5350  0.1442
 1303SOL     hw 5210   5.924   5.013   2.819 -2.6067  1.6234 -0.8709
 1303SOL     hw 5211   5.885   5.143   2.886  0.9942  2.2839  0.1633
 1303SOL     vw 5212   5.943   5.095   2.842 -0.2058  0.9096  0.0128
 1304SOL     ow 5213   2.401   3.634   0.621  0.1198  0.4081 -0.2270
 1304SOL     hw 5214   2.347   3.705   0.655 -2.7217 -2.0884  0.8409
 1304SOL     hw 5215   2.361   3.610   0.538  0.9932 -0.0341 -0.5388
 1304SOL     vw 5216   2.389   3.640   0.615 -0.1400  0.0204 -0.1273
 1305SOL     ow 5217   6.879   5.864   1.989  0.1427 -0.0844 -0.2847
 1305SOL     hw 5218   6.793   5.826   2.010  0.6461 -0.4874  1.1631
 1305SOL     hw 5219   6.892   5.933   2.054  0.6123  0.4700 -0.9500
 1305SOL     vw 5220   6.869   5.868   2.000  0.2711 -0.0644 -0.1813
 1306SOL     ow 5221   5.225   4.684   2.819  0.1457 -0.8095  0.3797
 1306SOL     hw 5222   5.320   4.673   2.827 -0.2252 -4.7138  1.9288
 1306SOL     hw 5223   5.209   4.693   2.725  2.0510  0.3595  0.1364
 1306SOL     vw 5224   5.235   4.684   2.807  0.3481 -1.1704  0.5521
 1307SOL     ow 5225   4.704   2.100   3.744 -0.5031  0.4136 -0.0468
 1307SOL     hw 5226   4.662   2.165   3.688 -0.8413  0.0616 -0.2056
 1307SOL     hw 5227   4.753   2.151   3.808  0.4185  0.8255 -1.0500
 1307SOL     vw 5228   4.705   2.115   3.745 -0.4261  0.4215 -0.2002
 1308SOL     ow 5229   5.835   5.838   2.312 -0.2550  0.3852 -0.1210
 1308SOL     hw 5230   5.813   5.768   2.250  0.3962  0.0817 -0.0138
 1308SOL     hw 5231   5.893   5.797   2.376 -0.9871  0.6749  0.7509
 1308SOL     vw 5232   5.840   5.823   2.312 -0.2658  0.3834  0.0082
 1309SOL     ow 5233   6.742   6.221   1.620 -0.1876  0.0860  0.3417
 1309SOL     hw 5234   6.796   6.268   1.684 -0.0035 -0.2644  0.4440
 1309SOL     hw 5235   6.726   6.136   1.660 -0.8736  0.2108  0.3396
 1309SOL     vw 5236   6.747   6.216   1.634 -0.2537  0.0560  0.3549
 1310SOL     ow 5237   0.163   5.705   0.257 -0.0395 -0.0071  0.2662
 1310SOL     hw 5238   0.174   5.769   0.328  0.9861 -1.4112  1.4121
 1310SOL     hw 5239   0.170   5.620   0.300  3.1111 -0.9613 -1.8248
 1310SOL     vw 5240   0.165   5.702   0.272  0.5115 -0.3183  0.1415
 1311SOL     ow 5241   5.161   1.559   2.847  0.3496 -0.0098 -0.6262
 1311SOL     hw 5242   5.152   1.470   2.882 -1.4475 -0.1163 -1.2598
 1311SOL     hw 5243   5.074   1.580   2.813  0.6576  2.1267 -0.1952
 1311SOL     vw 5244   5.148   1.550   2.847  0.1531  0.2580 -0.6529
 1312SOL     ow 5245   6.868   2.342   4.309 -0.1136  0.6265  0.3863
 1312SOL     hw 5246   6.841   2.291   4.385 -0.6455 -0.1065 -0.2687
 1312SOL     hw 5247   6.848   2.433   4.332 -1.1455  0.3189  0.7658
 1312SOL     vw 5248   6.862   2.347   4.322 -0.3200  0.4894  0.3500
 1313SOL     ow 5249   2.209   2.727   2.290  0.3256 -0.2450  0.8587
 1313SOL     hw 5250   2.195   2.818   2.315  0.1802 -0.3190  1.0451
 1313SOL     hw 5251   2.196   2.725   2.195  0.3938 -0.0601  0.8460
 1313SOL     vw 5252   2.206   2.739   2.281  0.3154 -0.2304  0.8817
 1314SOL     ow 5253   3.456   4.646   5.209  0.3137  0.3044  0.5376
 1314SOL     hw 5254   3.439   4.580   5.276 -0.6561 -0.2099 -0.1994
 1314SOL     hw 5255   3.385   4.636   5.146  0.2157  1.9640  0.3374
 1314SOL     vw 5256   3.445   4.636   5.210  0.1729  0.4551  0.4139
 1315SOL     ow 5257   5.056   6.935   5.869  0.3518 -0.3710 -0.2054
 1315SOL     hw 5258   5.099   6.851   5.885  0.5429 -0.2212  0.0709
 1315SOL     hw 5259   4.962   6.914   5.869  0.4328 -0.9604 -2.3237
 1315SOL     vw 5260   5.049   6.921   5.871  0.3874 -0.4287 -0.4482
 1316SOL     ow 5261   1.129   5.524   5.199 -0.0288  0.2819  0.0701
 1316SOL     hw 5262   1.215   5.507   5.238 -0.7101  1.0431  2.0459
 1316SOL     hw 5263   1.135   5.613   5.164 -0.3803  0.8679  1.4301
 1316SOL     vw 5264   1.141   5.533   5.200 -0.1651  0.4597  0.5102
 1317SOL     ow 5265   4.211   2.367   1.990  0.2149  0.2456 -0.1281
 1317SOL     hw 5266   4.116   2.372   1.979  0.1738  0.2090  0.2178
 1317SOL     hw 5267   4.240   2.458   1.999  0.2177  0.2591 -0.2697
 1317SOL     vw 5268   4.202   2.379   1.990  0.2096  0.2427 -0.1011
 1318SOL     ow 5269   1.563   0.988   7.085 -0.1973  0.5057 -0.5798
 1318SOL     hw 5270   1.511   0.912   7.113 -1.7874  1.7684  0.0335
 1318SOL     hw 5271   1.518   1.020   7.007 -1.9057  3.0663  1.3059
 1318SOL     vw 5272   1.550   0.982   7.078 -0.6325  1.0102 -0.2501
 1319SOL     ow 5273   7.023   5.787   1.775 -0.3156  0.0493 -0.4763
 1319SOL     hw 5274   6.997   5.795   1.867  0.9844 -0.5580 -0.0244
 1319SOL     hw 5275   6.954   5.734   1.735 -0.2100 -0.8362  0.4802
 1319SOL     vw 5276   7.010   5.781   1.782 -0.1304 -0.1478 -0.2905
 1320SOL     ow 5277   5.299   4.258   2.023  0.0078 -0.3545  0.5835
 1320SOL     hw 5278   5.221   4.301   2.059  0.3275 -0.7550  1.8071
 1320SOL     hw 5279   5.338   4.214   2.098  1.7683  0.3650  0.1331
 1320SOL     vw 5280   5.294   4.258   2.038  0.2825 -0.3123  0.6856
 1321SOL     ow 5281   6.393   5.348   3.593  0.0875 -0.4894 -0.4176
 1321SOL     hw 5282   6.412   5.293   3.669  1.8645  0.1189 -0.3721
 1321SOL     hw 5283   6.298   5.360   3.595 -0.1380 -2.1125  0.5455
 1321SOL     vw 5284   6.383   5.342   3.603  0.2923 -0.6235 -0.2844
 1322SOL     ow 5285   6.924   6.861   1.549 -0.0577  0.0795 -0.1474
 1322SOL     hw 5286   7.012   6.872   1.586  0.6618 -0.9720 -1.4573
 1322SOL     hw 5287   6.906   6.767   1.558 -0.0108 -0.1488 -2.0426
 1322SOL     vw 5288   6.933   6.850   1.555  0.0432 -0.0894 -0.5703
 1323SOL     ow 5289   4.752   0.587   2.241 -0.1450 -0.3602  0.2784
 1323SOL     hw 5290   4.704   0.616   2.319  1.0073 -0.4715  1.0597
 1323SOL     hw 5291   4.829   0.645   2.238  0.8853 -1.6745  0.4196
 1323SOL     vw 5292   4.756   0.599   2.251  0.1431 -0.5483  0.4001
 1324SOL     ow 5293   0.165   1.475   5.787 -1.0446  0.5533  0.2574
 1324SOL     hw 5294   0.198   1.479   5.697  1.9955 -0.0102  1.2056
 1324SOL     hw 5295   0.154   1.566   5.813 -0.4595  0.7677 -0.2206
 1324SOL     vw 5296   0.168   1.487   5.779 -0.5663  0.5072  0.3195
 1325SOL     ow 5297   3.025   5.943   3.894 -0.4465  0.3387 -0.5338
 1325SOL     hw 5298   3.115   5.928   3.924 -0.0692 -1.1955 -2.2243
 1325SOL     hw 5299   3.031   5.934   3.799 -2.3224  0.6853 -0.7114
 1325SOL     vw 5300   3.038   5.940   3.885 -0.6441  0.1819 -0.7802
 1326SOL     ow 5301   2.397   6.005   5.003 -0.0172 -0.2116  0.0890
 1326SOL     hw 5302   2.422   6.024   4.912  0.4292 -2.0187 -0.2052
 1326SOL     hw 5303   2.356   5.919   4.998 -1.2050  0.2607  1.4253
 1326SOL     vw 5304   2.395   5.996   4.990 -0.1150 -0.3879  0.2263
 1327SOL     ow 5305   5.225   2.070   6.692  0.1308 -0.3949  0.0211
 1327SOL     hw 5306   5.183   1.986   6.713 -1.0785  0.5309  1.5644
 1327SOL     hw 5307   5.314   2.061   6.724  0.7597 -1.8738 -1.9489
 1327SOL     vw 5308   5.231   2.058   6.699  0.0544 -0.4679 -0.0353
 1328SOL     ow 5309   2.926   2.910   2.111  0.4912  0.0885  0.5804
 1328SOL     hw 5310   2.988   2.939   2.044  0.3018 -0.0309  0.3535
 1328SOL     hw 5311   2.948   2.818   2.125  0.0010 -0.1035  0.0981
 1328SOL     vw 5312   2.937   2.902   2.104  0.4015  0.0474  0.4869
 1329SOL     ow 5313   4.129   4.748   5.197  0.0754  0.4510  0.2604
 1329SOL     hw 5314   4.161   4.697   5.272  1.2488  3.1814  1.7678
 1329SOL     hw 5315   4.035   4.755   5.212 -0.0935 -1.0745  0.0905
 1329SOL     vw 5316   4.121   4.742   5.209  0.2081  0.6099  0.4370
 1330SOL     ow 5317   5.833   2.106   1.581 -0.0085 -0.4566  0.5176
 1330SOL     hw 5318   5.766   2.150   1.633  0.1131 -0.3930  0.6202
 1330SOL     hw 5319   5.889   2.177   1.550 -2.7354  0.2057 -3.7147
 1330SOL     vw 5320   5.831   2.121   1.584 -0.3519 -0.3608 -0.0273
 1331SOL     ow 5321   4.772   2.998   1.476 -0.2882 -0.0274  0.7151
 1331SOL     hw 5322   4.686   3.023   1.510 -0.4384 -1.0169  1.1075
 1331SOL     hw 5323   4.774   3.034   1.387 -0.3235  1.6559  1.3511
 1331SOL     vw 5324   4.761   3.006   1.469 -0.3128  0.0640  0.8507
 1332SOL     ow 5325   1.859   6.634   5.146 -0.4443  0.0869  0.1212
 1332SOL     hw 5326   1.780   6.594   5.109 -0.8852 -1.0547  2.1134
 1332SOL     hw 5327   1.833   6.660   5.234  0.9950  1.1507  0.2667
 1332SOL     vw 5328   1.845   6.632   5.153 -0.3126  0.0765  0.4032
 1333SOL     ow 5329   3.237   6.707   3.480 -0.0420 -0.7463  0.2042
 1333SOL     hw 5330   3.175   6.756   3.424 -1.1440 -2.2700  0.0280
 1333SOL     hw 5331   3.303   6.772   3.505  0.4876  0.0394 -2.8184
 1333SOL     vw 5332   3.237   6.722   3.476 -0.1175 -0.8438 -0.2178
 1334SOL     ow 5333   4.110   6.981   3.646  0.4643  0.3246  0.0964
 1334SOL     hw 5334   4.137   6.947   3.561  1.1487  1.5771 -0.2148
 1334SOL     hw 5335   4.159   7.062   3.656 -0.7320  0.9703  1.0229
 1334SOL     vw 5336   4.120   6.987   3.636  0.3967  0.5753  0.1776
 1335SOL     ow 5337   5.886   0.308   1.476  0.7489  0.0482  0.3607
 1335SOL     hw 5338   5.956   0.250   1.444  1.1406 -0.3704  1.8941
 1335SOL     hw 5339   5.826   0.249   1.523 -0.7566  0.3734 -1.0613
 1335SOL     vw 5340   5.887   0.292   1.478  0.6020  0.0359  0.3754
 1336SOL     ow 5341   4.296   0.733   6.420 -0.1178  0.4250 -0.1628
 1336SOL     hw 5342   4.205   0.754   6.399 -0.6145 -0.0176  1.3693
 1336SOL     hw 5343   4.292   0.643   6.453  1.1535 -0.2370 -1.6942
 1336SOL     vw 5344   4.283   0.724   6.421 -0.0157  0.2793 -0.1626
 1337SOL     ow 5345   5.651   5.055   4.192  0.2242 -0.0251 -0.4593
 1337SOL     hw 5346   5.640   5.150   4.188  2.0415  0.2955  0.6464
 1337SOL     hw 5347   5.563   5.020   4.180 -0.7396  1.8603  0.5904
 1337SOL     vw 5348   5.638   5.063   4.190  0.3371  0.2661 -0.1750
 1338SOL     ow 5349   0.031   5.887   4.530  0.4218 -0.1206 -0.7685
 1338SOL     hw 5350   0.121   5.910   4.507  0.1304  0.0192 -1.8179
 1338SOL     hw 5351   0.040   5.826   4.603  1.3886 -0.5188 -1.1991
 1338SOL     vw 5352   0.044   5.882   4.537  0.5109 -0.1547 -0.9637
 1339SOL     ow 5353   6.279   2.381   5.746 -0.0155 -0.0633  0.0931
 1339SOL     hw 5354   6.258   2.390   5.839 -1.2751  0.0710 -0.1814
 1339SOL     hw 5355   6.217   2.439   5.702  0.8903  0.2418 -0.8082
 1339SOL     vw 5356   6.268   2.390   5.753 -0.0620 -0.0052 -0.0620
 1340SOL     ow 5357   7.067   5.289   5.304  0.3682  0.2009  0.3314
 1340SOL     hw 5358   7.058   5.258   5.394 -0.0455 -0.5127  0.0493
 1340SOL     hw 5359   6.981   5.272   5.264  1.0316 -0.9848 -0.6511
 1340SOL     vw 5360   7.054   5.283   5.310  0.4010 -0.0496  0.1647
 1341SOL     ow 5361   0.648   4.306   1.964  0.4049 -0.2318 -0.1173
 1341SOL     hw 5362   0.659   4.395   1.996 -0.8803  0.1908 -0.7631
 1341SOL     hw 5363   0.654   4.313   1.868  1.6160 -1.0619 -0.1293
 1341SOL     vw 5364   0.650   4.318   1.955  0.3951 -0.2854 -0.2041
 1342SOL     ow 5365   7.207   5.977   0.399 -0.3116  0.0520  1.0514
 1342SOL     hw 5366   7.127   5.932   0.425 -1.2814  1.2567  0.2716
 1342SOL     hw 5367   7.259   5.981   0.480  0.2303 -3.1253  0.9942
 1342SOL     vw 5368   7.203   5.972   0.413 -0.3681 -0.2081  0.9409
 1343SOL     ow 5369   1.132   1.976   3.457 -0.2017 -0.0006 -0.3225
 1343SOL     hw 5370   1.064   1.921   3.495 -0.3215  0.7115  0.5394
 1343SOL     hw 5371   1.180   2.010   3.533  1.5022 -0.9453 -0.9059
 1343SOL     vw 5372   1.130   1.973   3.472  0.0072 -0.0312 -0.2857
 1344SOL     ow 5373   1.328   1.539   2.576 -0.3263 -0.4665 -0.1682
 1344SOL     hw 5374   1.359   1.606   2.637 -1.0968  0.0802 -0.3544
 1344SOL     hw 5375   1.234   1.535   2.591 -1.0743  1.7554 -3.2191
 1344SOL     vw 5376   1.320   1.547   2.586 -0.5267 -0.1013 -0.5955
 1345SOL     ow 5377   1.697   3.236   4.348 -0.0402 -0.0074  0.1510
 1345SOL     hw 5378   1.786   3.268   4.362  1.3940 -2.6002 -2.0662
 1345SOL     hw 5379   1.681   3.177   4.422  0.5670 -0.4006 -0.0219
 1345SOL     vw 5380   1.707   3.232   4.360  0.2291 -0.4015 -0.1643
 1346SOL     ow 5381   4.660   0.976   6.257 -0.1673  0.0701  0.0056
 1346SOL     hw 5382   4.610   0.982   6.338  0.5030 -0.5694  0.4681
 1346SOL     hw 5383   4.693   0.886   6.255  0.0164  0.1475 -0.8631
 1346SOL     vw 5384   4.658   0.965   6.267 -0.0546 -0.0041 -0.0479
 1347SOL     ow 5385   0.307   4.107   0.930 -0.2033 -0.0643  0.3894
 1347SOL     hw 5386   0.270   4.049   0.996 -1.6162  0.7910  0.3977
 1347SOL     hw 5387   0.241   4.175   0.918  0.5565  0.4729 -1.0231
 1347SOL     vw 5388   0.294   4.108   0.937 -0.2895  0.1194  0.2041
 1348SOL     ow 5389   5.150   7.131   5.706  0.1081  0.3919 -0.8021
 1348SOL     hw 5390   5.084   7.153   5.641 -0.5498  0.9052  0.0208
 1348SOL     hw 5391   5.113   7.056   5.753 -0.1360  0.9984 -0.0058
 1348SOL     vw 5392   5.136   7.124   5.704 -0.0110  0.5400 -0.5884
 1349SOL     ow 5393   1.846   5.521   1.241 -0.3329  0.1401 -0.2979
 1349SOL     hw 5394   1.915   5.576   1.277  0.3557 -0.4187 -0.7557
 1349SOL     hw 5395   1.833   5.453   1.306 -0.5396  0.3153 -0.1554
 1349SOL     vw 5396   1.853   5.519   1.254 -0.2693  0.0894 -0.3395
 1350SOL     ow 5397   7.189   1.877   3.177 -0.2349 -0.3089 -0.4091
 1350SOL     hw 5398   7.150   1.791   3.192 -0.3237 -0.7975 -3.0750
 1350SOL     hw 5399   7.283   1.860   3.168 -0.2250 -0.0943 -0.7328
 1350SOL     vw 5400   7.196   1.863   3.178 -0.2453 -0.3451 -0.8034
 1351SOL     ow 5401   0.956   2.801   3.029 -0.2625 -0.6185  0.4299
 1351SOL     hw 5402   1.021   2.869   3.045 -0.4636 -0.2150 -0.4186
 1351SOL     hw 5403   0.948   2.755   3.113  0.6434 -0.2710  0.7182
 1351SOL     vw 5404   0.964   2.804   3.042 -0.1695 -0.5194  0.3560
 1352SOL     ow 5405   6.842   0.293   6.923  0.2225  0.4158 -0.0859
 1352SOL     hw 5406   6.793   0.348   6.983  0.6045 -0.8788  1.4798
 1352SOL     hw 5407   6.916   0.261   6.974 -0.2835 -1.9887 -0.7274
 1352SOL     vw 5408   6.845   0.296   6.938  0.2062 -0.0723  0.0362
 1353SOL     ow 5409   2.620   0.644   7.065  0.1965 -0.3274  0.5813
 1353SOL     hw 5410   2.610   0.659   7.158  1.4588  1.2821  0.4807
 1353SOL     hw 5411   2.695   0.585   7.057 -0.5259 -1.2752  0.6103
 1353SOL     vw 5412   2.628   0.638   7.076  0.2677 -0.2401  0.5720
 1354SOL     ow 5413   0.502   1.913   1.188  0.0208  0.2043 -0.5309
 1354SOL     hw 5414   0.513   2.001   1.223  1.3372 -0.2420  0.2801
 1354SOL     hw 5415   0.433   1.874   1.243  0.7711  0.1266  0.3931
 1354SOL     vw 5416   0.494   1.919   1.200  0.2935  0.1352 -0.3020
 1355SOL     ow 5417   5.878   1.371   5.947 -0.0025 -0.0236  0.0595
 1355SOL     hw 5418   5.784   1.386   5.955 -0.0398  0.2576 -0.8589
 1355SOL     hw 5419   5.904   1.334   6.032 -0.9068  0.0472  0.3697
 1355SOL     vw 5420   5.869   1.368   5.959 -0.1268  0.0229 -0.0207
 1356SOL     ow 5421   3.503   6.758   7.126  0.2248  0.2257  1.0232
 1356SOL     hw 5422   3.542   6.675   7.154  2.1367  0.4675 -0.7008
 1356SOL     hw 5423   3.576   6.820   7.129 -0.7664  1.4341  0.5880
 1356SOL     vw 5424   3.518   6.755   7.130  0.3463  0.4172  0.7384
 1357SOL     ow 5425   4.161   3.344   6.012  0.0562 -0.2895 -0.0185
 1357SOL     hw 5426   4.214   3.287   6.068 -0.2647  0.9136  1.5525
 1357SOL     hw 5427   4.181   3.314   5.923  2.1642 -0.8972  0.6048
 1357SOL     vw 5428   4.171   3.332   6.007  0.2923 -0.2110  0.2711
 1358SOL     ow 5429   5.329   6.771   0.988  0.9693 -0.3642  0.5957
 1358SOL     hw 5430   5.245   6.805   1.020  1.2223  0.3717  0.4791
 1358SOL     hw 5431   5.334   6.683   1.026  1.0613  0.3200  2.2412
 1358SOL     vw 5432   5.318   6.764   0.997  1.0149 -0.1767  0.7975
 1359SOL     ow 5433   4.058   3.168   6.777 -0.3135 -0.3359  0.2639
 1359SOL     hw 5434   4.137   3.197   6.731 -0.5717 -1.3108 -0.8543
 1359SOL     hw 5435   4.080   3.083   6.813 -1.6324 -1.9589 -2.4600
 1359SOL     vw 5436   4.071   3.161   6.775 -0.5217 -0.6787 -0.2432
 1360SOL     ow 5437   2.751   5.504   0.761 -0.2742 -0.1464  0.2013
 1360SOL     hw 5438   2.789   5.585   0.725  2.6447 -1.0245  0.9875
 1360SOL     hw 5439   2.744   5.520   0.855 -0.8332 -0.4084  0.2084
 1360SOL     vw 5440   2.755   5.517   0.768  0.0371 -0.2968  0.3060
 1361SOL     ow 5441   7.256   2.937   5.738 -0.6149  0.3016 -0.2043
 1361SOL     hw 5442   7.339   2.972   5.706 -0.1023 -0.0088  0.7391
 1361SOL     hw 5443   7.230   2.997   5.808  0.1080 -0.9664  1.2034
 1361SOL     vw 5444   7.264   2.949   5.743 -0.4519  0.0936  0.1059
 1362SOL     ow 5445   0.462   0.122   0.723 -0.2276 -0.2195 -0.3411
 1362SOL     hw 5446   0.451   0.148   0.815 -1.1140 -0.2314 -0.4337
 1362SOL     hw 5447   0.469   0.204   0.675  1.4868 -0.2162 -0.1416
 1362SOL     vw 5448   0.461   0.136   0.729 -0.1183 -0.2206 -0.3270
 1363SOL     ow 5449   1.209   0.591   1.502 -0.3050  0.3266 -0.0221
 1363SOL     hw 5450   1.128   0.541   1.507 -0.1390  0.0735  0.1681
 1363SOL     hw 5451   1.203   0.637   1.418  0.0112 -0.8563 -0.7271
 1363SOL     vw 5452   1.198   0.590   1.491 -0.2413  0.1371 -0.0899
 1364SOL     ow 5453   3.866   5.449   7.017 -0.1228  0.0580  0.0198
 1364SOL     hw 5454   3.912   5.499   6.949  2.1418 -1.4317  0.3617
 1364SOL     hw 5455   3.845   5.365   6.974 -1.1293  0.1103  0.3757
 1364SOL     vw 5456   3.869   5.444   7.002  0.0433 -0.1318  0.1121
 1365SOL     ow 5457   1.264   6.607   3.206  0.3698  0.4613  0.8394
 1365SOL     hw 5458   1.208   6.639   3.135 -0.2577 -0.6645  0.8088
 1365SOL     hw 5459   1.338   6.668   3.208 -0.8430  1.9811  0.8761
 1365SOL     vw 5460   1.267   6.620   3.197  0.1270  0.5133  0.8403
 1366SOL     ow 5461   6.054   3.119   5.998  0.4383  0.5053 -0.2439
 1366SOL     hw 5462   6.109   3.102   5.922 -0.5577 -0.0728 -0.8747
 1366SOL     hw 5463   5.970   3.148   5.961 -0.8233 -1.9291  0.4714
 1366SOL     vw 5464   6.050   3.120   5.983  0.1407  0.1078 -0.2325
 1367SOL     ow 5465   0.727   5.856   0.118  0.0162  0.1386  0.0742
 1367SOL     hw 5466   0.727   5.950   0.100 -0.6973  0.2998  0.7981
 1367SOL     hw 5467   0.658   5.821   0.061  0.9121 -0.1037 -0.8760
 1367SOL     vw 5468   0.718   5.864   0.108  0.0403  0.1283  0.0443
 1368SOL     ow 5469   4.300   0.173   2.036  0.2816  0.7526 -1.0448
 1368SOL     hw 5470   4.280   0.138   2.123  1.7957  1.3906 -0.4160
 1368SOL     hw 5471   4.218   0.164   1.988 -1.4566  2.8087  1.2352
 1368SOL     vw 5472   4.286   0.167   2.041  0.2520  1.1081 -0.6611
 1369SOL     ow 5473   0.593   3.857   4.651  0.9075 -0.5669 -0.0775
 1369SOL     hw 5474   0.677   3.900   4.669  0.4688  0.2413  0.0883
 1369SOL     hw 5475   0.532   3.899   4.711 -0.2903  1.1368 -2.3225
 1369SOL     vw 5476   0.596   3.868   4.661  0.6916 -0.2354 -0.3521
 1370SOL     ow 5477   0.550   4.222   1.065 -0.1056  0.2694  0.2242
 1370SOL     hw 5478   0.535   4.156   1.134 -0.3264 -1.0483 -1.0375
 1370SOL     hw 5479   0.471   4.218   1.011  0.0967  1.2291 -0.1546
 1370SOL     vw 5480   0.538   4.213   1.067 -0.1080  0.2222  0.0077
 1371SOL     ow 5481   5.479   2.021   6.727 -0.2315 -0.1692  0.1667
 1371SOL     hw 5482   5.482   2.014   6.631  0.3094 -1.3287  0.2552
 1371SOL     hw 5483   5.489   2.114   6.744 -0.3161  0.0546 -0.9058
 1371SOL     vw 5484   5.481   2.032   6.716 -0.1714 -0.2927  0.0367
 1372SOL     ow 5485   1.703   2.604   2.579 -0.6567 -0.1474  0.1076
 1372SOL     hw 5486   1.686   2.672   2.644  0.6555  0.4290 -0.1252
 1372SOL     hw 5487   1.616   2.578   2.548 -1.1862  1.3020  0.3253
 1372SOL     vw 5488   1.689   2.609   2.584 -0.5534  0.1199  0.1055
 1373SOL     ow 5489   6.987   2.926   5.656  0.5709  0.6728 -0.2882
 1373SOL     hw 5490   6.999   2.990   5.726  1.7340  0.6781 -0.4689
 1373SOL     hw 5491   6.895   2.899   5.663  0.6042  0.8444  1.0855
 1373SOL     vw 5492   6.976   2.931   5.666  0.7288  0.6962 -0.1309
 1374SOL     ow 5493   4.332   6.435   6.524  0.3195  0.3866 -0.3114
 1374SOL     hw 5494   4.346   6.341   6.536  2.5704  0.5715 -1.1261
 1374SOL     hw 5495   4.314   6.445   6.431 -1.0403  0.6893 -0.0428
 1374SOL     vw 5496   4.332   6.424   6.514  0.4370  0.4511 -0.3836
 1375SOL     ow 5497   0.404   6.258   3.826 -0.2157 -0.0814 -0.3152
 1375SOL     hw 5498   0.367   6.347   3.825 -2.3880 -0.9294 -0.2874
 1375SOL     hw 5499   0.413   6.236   3.733  0.0760  0.0455 -0.3205
 1375SOL     vw 5500   0.401   6.267   3.813 -0.4638 -0.1767 -0.3122
 1376SOL     ow 5501   4.791   0.057   6.949 -0.2600 -0.0586  0.2026
 1376SOL     hw 5502   4.762   0.149   6.942 -0.8419  0.1086  3.2361
 1376SOL     hw 5503   4.714   0.006   6.923 -1.0016  0.3631  1.4867
 1376SOL     vw 5504   4.777   0.063   6.945 -0.4344  0.0191  0.7722
 1377SOL     ow 5505   2.842   3.575   3.606 -0.1528 -0.0598 -0.4534
 1377SOL     hw 5506   2.771   3.571   3.542 -0.7914  2.0010  0.0422
 1377SOL     hw 5507   2.915   3.613   3.556  0.0309 -0.4713 -0.4989
 1377SOL     vw 5508   2.843   3.580   3.591 -0.2127  0.1578 -0.3941
 1378SOL     ow 5509   6.693   4.252   1.825  0.0900  0.0505  0.4600
 1378SOL     hw 5510   6.611   4.238   1.777  0.9853  0.8492 -1.4450
 1378SOL     hw 5511   6.674   4.226   1.914 -1.5150 -2.1419 -0.4426
 1378SOL     vw 5512   6.679   4.247   1.830 -0.0038 -0.1333  0.0895
 1379SOL     ow 5513   2.956   1.167   0.647 -0.3924 -0.1613  0.2278
 1379SOL     hw 5514   2.938   1.188   0.555  1.1122 -0.4596 -0.1592
 1379SOL     hw 5515   2.976   1.074   0.647  0.9265  0.0960  0.6241
 1379SOL     vw 5516   2.956   1.158   0.635 -0.0200 -0.1667  0.2291
 1380SOL     ow 5517   0.454   5.732   3.665 -0.3146 -0.1397  0.6512
 1380SOL     hw 5518   0.413   5.649   3.642  0.0828 -0.8274  2.2850
 1380SOL     hw 5519   0.496   5.761   3.584  0.1182 -1.8766  0.2010
 1380SOL     vw 5520   0.454   5.725   3.652 -0.2051 -0.4594  0.8073
 1381SOL     ow 5521   3.431   5.721   3.083  0.9294 -0.0903  0.0649
 1381SOL     hw 5522   3.352   5.689   3.127  1.1500  0.9658  1.2988
 1381SOL     hw 5523   3.416   5.816   3.074  2.1219  0.1454  0.4649
 1381SOL     vw 5524   3.418   5.730   3.087  1.1157  0.0801  0.2806
 1382SOL     ow 5525   3.145   1.502   5.671 -0.2007  0.3936 -0.0263
 1382SOL     hw 5526   3.129   1.414   5.636  3.5893  0.1456 -1.6192
 1382SOL     hw 5527   3.161   1.488   5.764  0.0438 -0.5762 -0.2012
 1382SOL     vw 5528   3.145   1.488   5.678  0.3316  0.2329 -0.2599
 1383SOL     ow 5529   4.159   2.904   6.802 -0.0225  0.0926 -0.4182
 1383SOL     hw 5530   4.187   2.872   6.887 -0.4186 -0.5162 -0.5141
 1383SOL     hw 5531   4.231   2.879   6.743  1.3300  2.4856  0.0902
 1383SOL     vw 5532   4.172   2.896   6.805  0.1037  0.3282 -0.3638
 1384SOL     ow 5533   4.276   5.728   0.382  0.3851 -0.2710 -0.1086
 1384SOL     hw 5534   4.366   5.743   0.355 -0.0437  2.3015 -0.3549
 1384SOL     hw 5535   4.255   5.801   0.440 -1.0272 -1.7513  1.3917
 1384SOL     vw 5536   4.285   5.739   0.386  0.1423 -0.1271  0.0568
 1385SOL     ow 5537   2.680   5.970   5.163 -0.2978  0.1968  0.9526
 1385SOL     hw 5538   2.730   5.967   5.244  0.0209  0.5027  0.7732
 1385SOL     hw 5539   2.716   5.899   5.109  0.4737  0.8829  0.5323
 1385SOL     vw 5540   2.691   5.961   5.166 -0.1540  0.3276  0.8731
 1386SOL     ow 5541   1.318   6.238   2.647  0.0778  0.1635  0.2224
 1386SOL     hw 5542   1.304   6.328   2.618  0.0884  0.0928 -0.0054
 1386SOL     hw 5543   1.381   6.202   2.584 -0.2395 -0.1291  0.0699
 1386SOL     vw 5544   1.324   6.245   2.635  0.0373  0.1154  0.1721
 1387SOL     ow 5545   4.603   0.186   2.891  0.1614 -0.2404 -0.4305
 1387SOL     hw 5546   4.583   0.114   2.831 -0.7371 -2.4579  2.3226
 1387SOL     hw 5547   4.676   0.154   2.944 -0.4442  0.7280  1.0747
 1387SOL     vw 5548   4.610   0.172   2.890 -0.0370 -0.4052  0.1314
 1388SOL     ow 5549   2.116   5.865   0.398  0.1540 -0.5046  1.1081
 1388SOL     hw 5550   2.181   5.850   0.467 -0.6030 -0.0327  1.9426
 1388SOL     hw 5551   2.034   5.880   0.445 -0.0918  1.4085  0.1953
 1388SOL     vw 5552   2.114   5.865   0.413  0.0217 -0.1895  1.0977
 1389SOL     ow 5553   3.514   2.097   4.398 -0.1712  0.7596 -0.1167
 1389SOL     hw 5554   3.560   2.167   4.351 -0.9834  0.2240 -1.7997
 1389SOL     hw 5555   3.529   2.019   4.345 -0.9201  0.0651  0.6625
 1389SOL     vw 5556   3.522   2.096   4.385 -0.3772  0.5974 -0.2358
 1390SOL     ow 5557   2.116   1.814   6.420 -0.3547 -0.1412  0.3442
 1390SOL     hw 5558   2.080   1.752   6.484  0.4641 -1.1024 -0.1058
 1390SOL     hw 5559   2.205   1.783   6.403 -0.5337  0.1077 -1.2368
 1390SOL     vw 5560   2.123   1.802   6.426 -0.2704 -0.2352  0.0763
 1391SOL     ow 5561   3.098   4.978   0.098 -0.0350  0.0812 -0.4718
 1391SOL     hw 5562   3.193   4.990   0.103 -0.0704  0.2748 -0.1900
 1391SOL     hw 5563   3.079   4.907   0.160 -0.0905  0.1471 -0.4124
 1391SOL     vw 5564   3.108   4.970   0.107 -0.0470  0.1152 -0.4268
 1392SOL     ow 5565   6.992   4.129   6.429  0.5925 -0.0935 -0.0214
 1392SOL     hw 5566   7.007   4.059   6.492 -0.3888  0.0088  0.3530
 1392SOL     hw 5567   6.988   4.209   6.483  0.2660  0.0600 -0.2668
 1392SOL     vw 5568   6.994   4.130   6.445  0.4199 -0.0601 -0.0045
 1393SOL     ow 5569   4.839   6.496   5.203  0.2270 -0.4088 -0.1146
 1393SOL     hw 5570   4.745   6.481   5.211  0.1709  0.2254  0.4948
 1393SOL     hw 5571   4.854   6.507   5.109 -0.9567  3.3387 -0.0501
 1393SOL     vw 5572   4.829   6.496   5.192  0.0634  0.1695 -0.0257
 1394SOL     ow 5573   4.460   3.384   3.839 -0.1864  0.3298  0.2170
 1394SOL     hw 5574   4.502   3.407   3.756  0.5953  1.9630  1.0070
 1394SOL     hw 5575   4.438   3.469   3.878  1.5450 -0.2311  2.6960
 1394SOL     vw 5576   4.463   3.398   3.833  0.1452  0.4714  0.6484
 1395SOL     ow 5577   1.586   5.764   1.484  0.1210 -0.3947  0.4409
 1395SOL     hw 5578   1.675   5.777   1.451 -0.8255 -2.0415 -3.3123
 1395SOL     hw 5579   1.530   5.805   1.418 -1.9636 -2.2272  0.9378
 1395SOL     vw 5580   1.590   5.771   1.471 -0.2789 -0.8540  0.0113
 1396SOL     ow 5581   3.247   6.814   5.491  0.0353  0.7639 -0.7046
 1396SOL     hw 5582   3.192   6.748   5.450  0.2286 -0.0091  0.2445
 1396SOL     hw 5583   3.337   6.787   5.469  0.1999 -0.2545  1.0089
 1396SOL     vw 5584   3.252   6.802   5.482  0.0826  0.5279 -0.3531
 1397SOL     ow 5585   0.762   4.748   1.647 -0.5811  0.7321 -0.9851
 1397SOL     hw 5586   0.757   4.763   1.552 -0.2540 -0.7996 -1.2673
 1397SOL     hw 5587   0.722   4.661   1.659  1.0342  0.1023  0.0418
 1397SOL     vw 5588   0.756   4.738   1.636 -0.3248  0.4468 -0.8869
 1398SOL     ow 5589   4.090   3.169   3.684  0.5292  0.9615 -0.9396
 1398SOL     hw 5590   4.050   3.246   3.724  2.0484  0.8523  0.9019
 1398SOL     hw 5591   4.073   3.098   3.746  3.5312  0.9265 -0.0012
 1398SOL     vw 5592   4.082   3.170   3.697  1.1258  0.9425 -0.5728
 1399SOL     ow 5593   6.469   1.606   5.617  0.1295 -0.1591 -0.4512
 1399SOL     hw 5594   6.447   1.686   5.664 -1.4638 -0.2578 -0.9766
 1399SOL     hw 5595   6.405   1.601   5.546 -0.1464 -2.1591 -0.1184
 1399SOL     vw 5596   6.458   1.616   5.614 -0.1173 -0.4360 -0.4768
 1400SOL     ow 5597   0.529   2.602   3.168 -0.0734  0.1493 -0.0646
 1400SOL     hw 5598   0.435   2.595   3.153  0.0472 -2.2882  0.0065
 1400SOL     hw 5599   0.562   2.652   3.093 -1.5333  2.3119  0.6202
 1400SOL     vw 5600   0.521   2.608   3.156 -0.2501  0.1131  0.0352
 1401SOL     ow 5601   4.486   4.783   6.340 -0.1335  0.4207 -0.0758
 1401SOL     hw 5602   4.535   4.711   6.300  0.9776  0.7650  0.6152
 1401SOL     hw 5603   4.552   4.832   6.390 -1.4463 -0.0299  2.2650
 1401SOL     vw 5604   4.502   4.780   6.341 -0.1602  0.4067  0.3245
 1402SOL     ow 5605   2.550   3.327   4.715 -0.2110  0.0699 -0.5156
 1402SOL     hw 5606   2.561   3.390   4.643 -0.4420  0.2187 -0.4221
 1402SOL     hw 5607   2.493   3.259   4.679  1.7510 -1.2082 -1.3227
 1402SOL     vw 5608   2.544   3.327   4.701  0.0174 -0.0789 -0.6096
 1403SOL     ow 5609   0.900   2.901   1.867  0.5647 -0.3831  0.1488
 1403SOL     hw 5610   0.973   2.963   1.875  0.1146  0.2555 -0.5442
 1403SOL     hw 5611   0.933   2.831   1.811  1.0473 -0.7373  0.8584
 1403SOL     vw 5612   0.914   2.900   1.861  0.5690 -0.3456  0.1509
 1404SOL     ow 5613   5.873   5.257   4.042  0.0301 -0.3206  0.1825
 1404SOL     hw 5614   5.912   5.313   4.109  1.3721 -0.3358 -0.5468
 1404SOL     hw 5615   5.814   5.315   3.994 -1.3192 -0.4232  1.6431
 1404SOL     vw 5616   5.871   5.272   4.044  0.0291 -0.3362  0.2789
 1405SOL     ow 5617   4.029   6.350   2.169  0.3186  0.0215  0.1989
 1405SOL     hw 5618   4.076   6.369   2.087  2.0916  0.6836  1.3133
 1405SOL     hw 5619   4.094   6.307   2.224 -1.1751 -1.4535  0.9029
 1405SOL     vw 5620   4.044   6.347   2.165  0.3555 -0.0856  0.4387
 1406SOL     ow 5621   3.707   6.651   2.870 -0.4801  0.2954  0.7780
 1406SOL     hw 5622   3.752   6.688   2.946 -2.5833  2.3189  1.1307
 1406SOL     hw 5623   3.749   6.566   2.857  2.4473  1.4270  1.8942
 1406SOL     vw 5624   3.719   6.645   2.878 -0.3713  0.7114  0.9718
 1407SOL     ow 5625   4.158   0.083   2.890  0.1249 -0.4780 -1.1007
 1407SOL     hw 5626   4.193   0.171   2.904  0.2239 -0.4119 -1.7233
 1407SOL     hw 5627   4.236   0.028   2.884  0.0468 -1.0122  1.6135
 1407SOL     vw 5628   4.173   0.088   2.891  0.1273 -0.5397 -0.8247
 1408SOL     ow 5629   5.236   5.100   0.484  0.1717  0.3319  0.2519
 1408SOL     hw 5630   5.205   5.096   0.575 -2.3022 -1.0907 -0.5378
 1408SOL     hw 5631   5.183   5.169   0.444 -1.6659 -1.6047 -0.9397
 1408SOL     vw 5632   5.225   5.108   0.491 -0.3972 -0.1113 -0.0095
 1409SOL     ow 5633   4.359   0.957   2.058 -0.1840  0.5020  0.7326
 1409SOL     hw 5634   4.420   0.899   2.013  1.2527  0.4048  2.6620
 1409SOL     hw 5635   4.281   0.904   2.072 -0.2611  0.2180 -0.6636
 1409SOL     vw 5636   4.357   0.943   2.054 -0.0045  0.4517  0.8029
 1410SOL     ow 5637   4.829   2.266   3.923 -0.2518 -0.0469  0.0434
 1410SOL     hw 5638   4.854   2.268   4.015 -0.9551 -0.2682  0.2447
 1410SOL     hw 5639   4.838   2.356   3.893 -0.5171  0.1164  0.4617
 1410SOL     vw 5640   4.834   2.278   3.931 -0.3796 -0.0545  0.1251
 1411SOL     ow 5641   1.484   1.385   2.166 -0.8711  0.4555 -0.2770
 1411SOL     hw 5642   1.478   1.316   2.233 -1.5298  1.0316  0.2742
 1411SOL     hw 5643   1.458   1.341   2.085  0.1759 -0.3171 -0.2172
 1411SOL     vw 5644   1.480   1.370   2.164 -0.8199  0.4296 -0.1963
 1412SOL     ow 5645   6.889   6.343   1.364 -0.3931  0.1948 -0.1726
 1412SOL     hw 5646   6.970   6.351   1.415 -1.5417 -1.7822  2.1278
 1412SOL     hw 5647   6.919   6.317   1.277  1.4983  0.9108  0.1992
 1412SOL     vw 5648   6.904   6.341   1.359 -0.2952  0.0284  0.1800
 1413SOL     ow 5649   1.087   6.560   1.213 -0.4445  0.1455  0.8826
 1413SOL     hw 5650   1.144   6.572   1.137  0.3456 -1.5875  1.1544
 1413SOL     hw 5651   1.021   6.629   1.204 -1.1474 -0.7778 -2.0556
 1413SOL     vw 5652   1.086   6.571   1.202 -0.4330 -0.2048  0.5308
 1414SOL     ow 5653   1.201   6.665   3.519  0.1688 -0.0043 -0.0928
 1414SOL     hw 5654   1.213   6.760   3.520  1.2386 -0.1253  1.3442
 1414SOL     hw 5655   1.157   6.645   3.601  1.9520 -0.9540  0.6974
 1414SOL     vw 5656   1.197   6.675   3.530  0.5451 -0.1457  0.2012
 1415SOL     ow 5657   1.558   5.065   5.328  1.0911  0.2176  0.7784
 1415SOL     hw 5658   1.473   5.032   5.355  0.2049  0.5794 -1.4017
 1415SOL     hw 5659   1.576   5.137   5.388 -1.6491  2.2262 -0.6085
 1415SOL     vw 5660   1.549   5.070   5.339  0.6126  0.5305  0.3073
 1416SOL     ow 5661   3.584   0.447   0.905 -0.0701  0.1068 -0.1798
 1416SOL     hw 5662   3.603   0.487   0.820  0.6798 -2.6510 -1.4169
 1416SOL     hw 5663   3.491   0.422   0.899 -0.0802  0.1238 -0.0955
 1416SOL     vw 5664   3.574   0.449   0.893  0.0277 -0.2548 -0.3319
 1417SOL     ow 5665   6.948   2.695   1.629  0.1175  0.0495  0.8469
 1417SOL     hw 5666   6.877   2.722   1.571 -0.3433 -0.0681  1.3549
 1417SOL     hw 5667   6.973   2.608   1.597 -0.2592 -0.0931  0.9351
 1417SOL     vw 5668   6.942   2.687   1.617  0.0072  0.0153  0.9256
 1418SOL     ow 5669   7.217   2.265   5.813 -0.2406  0.0154  0.9495
 1418SOL     hw 5670   7.243   2.291   5.724 -0.1753 -0.5819  0.7939
 1418SOL     hw 5671   7.206   2.348   5.859 -4.0603  0.6204 -0.6480
 1418SOL     vw 5672   7.219   2.280   5.807 -0.7358  0.0166  0.7181
 1419SOL     ow 5673   2.218   0.632   0.933  0.3858  0.3274  0.4400
 1419SOL     hw 5674   2.164   0.704   0.901  0.8228  1.4072  1.9930
 1419SOL     hw 5675   2.302   0.643   0.889  0.7140  1.3005  1.2607
 1419SOL     vw 5676   2.222   0.643   0.923  0.4867  0.5983  0.7532
 1420SOL     ow 5677   5.925   1.581   6.149  0.2597 -0.1790 -0.3471
 1420SOL     hw 5678   5.880   1.544   6.226  2.4049  0.2045  1.1947
 1420SOL     hw 5679   5.890   1.532   6.075 -3.5233  0.8903  0.5103
 1420SOL     vw 5680   5.915   1.569   6.150  0.0436  0.0127 -0.0305
 1421SOL     ow 5681   5.609   0.425   3.038  0.0918  0.5538 -0.3458
 1421SOL     hw 5682   5.592   0.519   3.030 -0.1571  0.4734 -0.7762
 1421SOL     hw 5683   5.524   0.384   3.022  0.0729  0.2771  0.4159
 1421SOL     vw 5684   5.596   0.432   3.035  0.0565  0.5067 -0.3021
 1422SOL     ow 5685   2.942   1.749   6.284 -0.6804  0.4384 -0.2428
 1422SOL     hw 5686   2.869   1.700   6.245  0.3078  1.3193 -3.5356
 1422SOL     hw 5687   2.934   1.837   6.247  1.1352  0.9893  0.5664
 1422SOL     vw 5688   2.931   1.754   6.274 -0.3105  0.6273 -0.5705
 1423SOL     ow 5689   1.149   1.942   3.167 -0.3675 -0.8486  0.2816
 1423SOL     hw 5690   1.055   1.962   3.168 -0.3759 -0.7081 -0.8826
 1423SOL     hw 5691   1.168   1.924   3.074  0.7196 -1.0536  0.5301
 1423SOL     vw 5692   1.139   1.942   3.155 -0.2251 -0.8572  0.1608
 1424SOL     ow 5693   4.118   4.405   6.506 -0.2503 -0.2756 -0.7334
 1424SOL     hw 5694   4.199   4.411   6.558 -0.8871  1.7971  0.1299
 1424SOL     hw 5695   4.062   4.345   6.556  0.0594 -0.2480 -0.3417
 1424SOL     vw 5696   4.121   4.398   6.520 -0.2935  0.0014 -0.5677
 1425SOL     ow 5697   6.778   6.104   4.747 -0.0189 -0.9370  0.5354
 1425SOL     hw 5698   6.700   6.101   4.802 -0.2291 -0.2409  0.2898
 1425SOL     hw 5699   6.800   6.197   4.742  0.7894 -1.1211  0.5440
 1425SOL     vw 5700   6.770   6.116   4.754  0.0601 -0.8698  0.5040
 1426SOL     ow 5701   2.585   1.000   6.032  0.1585  0.3332  0.0603
 1426SOL     hw 5702   2.500   0.997   6.075  0.7668  0.5086  1.3044
 1426SOL     hw 5703   2.615   0.909   6.030 -0.5811  0.0959 -1.4976
 1426SOL     vw 5704   2.578   0.988   6.037  0.1410  0.3251  0.0188
 1427SOL     ow 5705   4.993   5.859   6.571  0.2446 -0.1877 -0.1455
 1427SOL     hw 5706   5.043   5.789   6.614 -0.4400 -0.3997  0.3337
 1427SOL     hw 5707   4.960   5.818   6.490  1.5796  0.2278 -0.9259
 1427SOL     vw 5708   4.995   5.844   6.566  0.3302 -0.1607 -0.1855
 1428SOL     ow 5709   2.768   6.138   3.227 -0.4857 -0.8234 -0.4812
 1428SOL     hw 5710   2.814   6.221   3.215 -1.3146  0.0084  1.6253
 1428SOL     hw 5711   2.822   6.090   3.290 -0.0029 -1.9382 -1.6956
 1428SOL     vw 5712   2.781   6.143   3.234 -0.5312 -0.8607 -0.3635
 1429SOL     ow 5713   1.947   2.441   5.059  0.2981  0.3214 -0.1331
 1429SOL     hw 5714   2.005   2.472   5.129  1.8057 -0.2413 -1.0794
 1429SOL     hw 5715   1.869   2.410   5.105  1.6268 -0.9575  1.4260
 1429SOL     vw 5716   1.945   2.441   5.075  0.6723  0.0784 -0.0522
 1430SOL     ow 5717   5.715   1.215   4.909 -0.3764  0.2179 -0.4504
 1430SOL     hw 5718   5.766   1.284   4.865  0.2278  1.2975  1.7755
 1430SOL     hw 5719   5.762   1.134   4.888  0.5343  0.8361 -0.8953
 1430SOL     vw 5720   5.728   1.214   4.901 -0.1767  0.4418 -0.2155
 1431SOL     ow 5721   5.572   6.257   1.699  0.3280 -0.2283 -0.5509
 1431SOL     hw 5722   5.598   6.184   1.754  1.1113  1.6898  1.8173
 1431SOL     hw 5723   5.479   6.241   1.681  0.7243 -2.2798 -0.9873
 1431SOL     vw 5724   5.563   6.245   1.704  0.4838 -0.2458 -0.2961
 1432SOL     ow 5725   0.274   1.188   5.779 -0.3204  0.1240  0.0045
 1432SOL     hw 5726   0.224   1.140   5.713 -0.5501  0.1048  0.1929
 1432SOL     hw 5727   0.337   1.124   5.813 -1.6409 -0.5093  1.3596
 1432SOL     vw 5728   0.276   1.173   5.775 -0.5249  0.0379  0.2081
 1433SOL     ow 5729   0.578   2.599   6.231 -0.1200 -0.4540 -0.1590
 1433SOL     hw 5730   0.536   2.599   6.317  0.6333 -1.0732  0.2231
 1433SOL     hw 5731   0.505   2.590   6.169 -0.6361 -0.4259  0.4301
 1433SOL     vw 5732   0.563   2.598   6.234 -0.0887 -0.5319 -0.0310
 1434SOL     ow 5733   3.546   0.729   5.537 -0.1262  0.2543 -0.7221
 1434SOL     hw 5734   3.486   0.657   5.556 -1.6941  1.5936 -0.3806
 1434SOL     hw 5735   3.510   0.803   5.585  2.3119  0.9372  0.2212
 1434SOL     vw 5736   3.533   0.729   5.546 -0.0113  0.5211 -0.5524
 1435SOL     ow 5737   3.482   6.534   2.654 -0.2345  0.1414  0.0452
 1435SOL     hw 5738   3.499   6.579   2.572  1.9898 -0.7785 -0.0721
 1435SOL     hw 5739   3.402   6.484   2.639  0.3418 -0.3114 -1.7193
 1435SOL     vw 5740   3.474   6.533   2.641  0.1349 -0.0396 -0.2030
 1436SOL     ow 5741   1.687   1.036   4.216  0.2529  0.3232  0.4419
 1436SOL     hw 5742   1.638   0.959   4.187  0.7741  1.0031 -2.5055
 1436SOL     hw 5743   1.660   1.048   4.307 -1.4183 -2.0915  0.3621
 1436SOL     vw 5744   1.677   1.028   4.225  0.1012  0.0944  0.0427
 1437SOL     ow 5745   4.231   6.842   6.855 -0.0303 -0.3791  0.4094
 1437SOL     hw 5746   4.197   6.932   6.852 -1.3718 -0.8744 -0.1110
 1437SOL     hw 5747   4.163   6.793   6.901 -0.0975 -1.4348 -0.7611
 1437SOL     vw 5748   4.217   6.847   6.861 -0.2162 -0.5836  0.1867
 1438SOL     ow 5749   7.220   4.609   3.789 -0.9079 -0.0751  0.6918
 1438SOL     hw 5750   7.275   4.680   3.823  0.2827 -1.2799  1.3606
 1438SOL     hw 5751   7.131   4.633   3.817 -0.7697  1.8643 -0.3462
 1438SOL     vw 5752   7.215   4.622   3.797 -0.7327  0.0219  0.6431
 1439SOL     ow 5753   3.263   7.066   3.302  0.3747  0.9084  0.6046
 1439SOL     hw 5754   3.326   7.006   3.341 -0.1431  0.0194  0.1119
 1439SOL     hw 5755   3.304   7.092   3.219  0.5493  1.1498  0.7657
 1439SOL     vw 5756   3.277   7.061   3.296  0.3294  0.8225  0.5609
 1440SOL     ow 5757   3.825   2.309   6.599 -0.3643  0.1743 -0.5827
 1440SOL     hw 5758   3.906   2.355   6.621  0.9660 -2.5181  0.6182
 1440SOL     hw 5759   3.763   2.334   6.667  0.4853 -0.1667  0.3294
 1440SOL     vw 5760   3.827   2.318   6.611 -0.0767 -0.2259 -0.3035
 1441SOL     ow 5761   6.879   2.952   6.876 -0.3339 -0.7063  0.1121
 1441SOL     hw 5762   6.893   2.925   6.786  0.1088 -0.1131 -0.0063
 1441SOL     hw 5763   6.941   2.901   6.927  3.7050  2.9083 -0.5561
 1441SOL     vw 5764   6.889   2.942   6.871  0.2575 -0.1512  0.0083
 1442SOL     ow 5765   4.291   1.228   6.588 -0.3397 -0.1323 -0.1835
 1442SOL     hw 5766   4.380   1.211   6.620  0.2080  0.3453 -1.3898
 1442SOL     hw 5767   4.238   1.234   6.667  0.7018 -0.4349  0.5577
 1442SOL     vw 5768   4.296   1.227   6.603 -0.1297 -0.1093 -0.2449
 1443SOL     ow 5769   4.757   0.461   1.978 -0.1035  0.6364  0.0995
 1443SOL     hw 5770   4.802   0.377   1.969  1.9643  1.4543  1.8860
 1443SOL     hw 5771   4.723   0.479   1.890 -0.1281 -1.7566 -0.4697
 1443SOL     vw 5772   4.758   0.452   1.965  0.1657  0.4286  0.2601
 1444SOL     ow 5773   6.659   0.537   6.279  0.1483  0.2257  0.2672
 1444SOL     hw 5774   6.666   0.622   6.321  1.6005 -0.1933  0.9437
 1444SOL     hw 5775   6.568   0.532   6.249 -1.2738  0.2743  4.0059
 1444SOL     vw 5776   6.648   0.547   6.280  0.1521  0.1768  0.8500
 1445SOL     ow 5777   3.819   4.072   5.214  0.1686 -0.4364 -0.0360
 1445SOL     hw 5778   3.844   4.130   5.142  0.3197 -1.1944 -0.6141
 1445SOL     hw 5779   3.902   4.044   5.253  0.0625  1.2564  1.5223
 1445SOL     vw 5780   3.833   4.076   5.209  0.1746 -0.3130  0.0932
 1446SOL     ow 5781   1.895   7.086   0.051  0.6129 -0.5138  0.1586
 1446SOL     hw 5782   1.962   7.120   0.110 -0.2577  2.9046 -0.6306
 1446SOL     hw 5783   1.913   7.128  -0.033 -3.0653  1.5276  0.1808
 1446SOL     vw 5784   1.906   7.096   0.047  0.0128  0.2065  0.0574
 1447SOL     ow 5785   3.855   2.097   5.516 -0.3702  0.4317 -0.6624
 1447SOL     hw 5786   3.848   2.044   5.436  0.0836  0.7292 -0.9010
 1447SOL     hw 5787   3.795   2.171   5.501 -2.0565 -0.6888  0.2305
 1447SOL     vw 5788   3.846   2.100   5.503 -0.5329  0.3232 -0.5760
 1448SOL     ow 5789   3.625   1.932   4.220  0.3097  0.1334 -0.6394
 1448SOL     hw 5790   3.607   1.996   4.151  0.5003  1.5441  0.5710
 1448SOL     hw 5791   3.714   1.953   4.249 -0.4533  0.8510  1.3232
 1448SOL     vw 5792   3.634   1.943   4.215  0.2342  0.4143 -0.2208
 1449SOL     ow 5793   3.440   2.272   0.845 -0.7400 -0.4173  0.3655
 1449SOL     hw 5794   3.460   2.179   0.849 -1.5142 -0.6426 -0.6418
 1449SOL     hw 5795   3.526   2.314   0.838 -0.3279 -0.9692  1.7061
 1449SOL     vw 5796   3.454   2.266   0.845 -0.7879 -0.5199  0.4095
 1450SOL     ow 5797   7.025   4.026   2.593  0.0421 -0.3871 -0.5235
 1450SOL     hw 5798   7.015   4.046   2.686  2.9800  0.0065 -0.1816
 1450SOL     hw 5799   7.047   4.109   2.552  1.0114 -0.9286 -1.1562
 1450SOL     vw 5800   7.027   4.039   2.600  0.5574 -0.4065 -0.5620
 1451SOL     ow 5801   0.887   3.253   3.429 -0.2336  0.1189 -0.0631
 1451SOL     hw 5802   0.934   3.304   3.495  1.8587 -0.7270 -0.8043
 1451SOL     hw 5803   0.955   3.203   3.385 -1.8458 -1.0026 -1.4043
 1451SOL     vw 5804   0.902   3.253   3.432 -0.1703 -0.1407 -0.3381
 1452SOL     ow 5805   1.403   1.345   1.881 -0.3955  0.2717 -0.3809
 1452SOL     hw 5806   1.408   1.269   1.824 -2.8269 -1.2452  1.2056
 1452SOL     hw 5807   1.386   1.419   1.822  1.6313 -0.3954 -1.9150
 1452SOL     vw 5808   1.401   1.345   1.866 -0.4488 -0.0165 -0.3740
 1453SOL     ow 5809   5.166   0.232   4.348  0.4837 -0.5174 -0.2862
 1453SOL     hw 5810   5.140   0.303   4.289  0.1634  0.8957  1.4765
 1453SOL     hw 5811   5.160   0.153   4.294  0.4342  0.7180 -2.1968
 1453SOL     vw 5812   5.162   0.231   4.333  0.4349 -0.1679 -0.3059
 1454SOL     ow 5813   2.711   2.654   5.612  0.7265 -0.1414  0.6666
 1454SOL     hw 5814   2.651   2.586   5.582  0.9081 -0.5856  1.2772
 1454SOL     hw 5815   2.676   2.735   5.577  1.6168 -0.7313 -1.8297
 1454SOL     vw 5816   2.699   2.655   5.603  0.8677 -0.2778  0.4179
 1455SOL     ow 5817   1.988   6.557   1.217  0.3910  0.9363  0.2094
 1455SOL     hw 5818   1.986   6.461   1.208  0.8533  0.9173  0.2646
 1455SOL     hw 5819   1.956   6.573   1.306 -1.8163  0.9770 -0.5436
 1455SOL     vw 5820   1.983   6.546   1.228  0.1608  0.9391  0.1173
 1456SOL     ow 5821   2.394   2.514   2.211  0.8515  0.1280  0.2799
 1456SOL     hw 5822   2.377   2.489   2.120  0.6357  1.4166 -0.0522
 1456SOL     hw 5823   2.471   2.463   2.236  0.4834 -0.7840 -0.3761
 1456SOL     vw 5824   2.402   2.504   2.202  0.7746  0.1777  0.1496
 1457SOL     ow 5825   0.897   1.817   1.305  0.3663  0.2985 -0.7569
 1457SOL     hw 5826   0.877   1.808   1.398 -0.6054 -0.5388 -1.0398
 1457SOL     hw 5827   0.985   1.856   1.304  0.4801  0.1289  0.5042
 1457SOL     vw 5828   0.906   1.821   1.317  0.2531  0.1656 -0.6278
 1458SOL     ow 5829   2.727   1.275   5.988  0.2641 -0.3366 -0.2573
 1458SOL     hw 5830   2.687   1.357   6.015  0.9965 -0.2094  0.4775
 1458SOL     hw 5831   2.818   1.298   5.967  0.5518 -0.9987  0.2272
 1458SOL     vw 5832   2.734   1.288   5.989  0.3986 -0.4072 -0.0963
 1459SOL     ow 5833   2.162   7.224   2.556  1.0173 -0.2492  0.7048
 1459SOL     hw 5834   2.170   7.242   2.462  1.1203  0.5030  0.8544
 1459SOL     hw 5835   2.156   7.128   2.561  2.9398 -0.4520  0.0717
 1459SOL     vw 5836   2.162   7.214   2.544  1.2846 -0.1767  0.6410
 1460SOL     ow 5837   0.117   6.551   3.178 -0.2172 -0.8621  0.3613
 1460SOL     hw 5838   0.090   6.603   3.253  1.4095 -3.7740  3.2610
 1460SOL     hw 5839   0.195   6.595   3.144 -1.1691  0.6771  0.1218
 1460SOL     vw 5840   0.124   6.563   3.183 -0.1282 -1.0431  0.7123
 1461SOL     ow 5841   6.352   5.088   1.176 -0.1012  0.6578  0.3469
 1461SOL     hw 5842   6.435   5.105   1.219  1.1515 -0.3928 -1.5380
 1461SOL     hw 5843   6.305   5.030   1.236  0.3194  1.5520  1.5999
 1461SOL     vw 5844   6.357   5.083   1.190  0.1194  0.6373  0.2635
 1462SOL     ow 5845   2.945   3.659   2.296 -0.2208 -0.0912 -0.7827
 1462SOL     hw 5846   2.904   3.574   2.310 -3.4751  1.3734 -0.4411
 1462SOL     hw 5847   2.933   3.705   2.380  2.4874  0.4216 -0.5638
 1462SOL     vw 5848   2.938   3.654   2.309 -0.2929  0.1698 -0.7088
 1463SOL     ow 5849   1.480   2.310   5.606  0.0591  0.2231  0.0203
 1463SOL     hw 5850   1.568   2.324   5.572 -0.8937  1.8516 -1.9468
 1463SOL     hw 5851   1.457   2.221   5.578 -0.0618  0.9182 -2.2606
 1463SOL     vw 5852   1.488   2.300   5.598 -0.0824  0.5296 -0.5405
 1464SOL     ow 5853   4.265   0.661   3.551 -0.3341  0.2246 -0.0933
 1464SOL     hw 5854   4.307   0.587   3.509  2.9653  1.0458  1.4512
 1464SOL     hw 5855   4.263   0.730   3.484  0.6395  0.0925 -0.2661
 1464SOL     vw 5856   4.270   0.660   3.537  0.2296  0.3155  0.0876
 1465SOL     ow 5857   5.245   2.121   7.252 -0.0547 -1.1633  0.1143
 1465SOL     hw 5858   5.305   2.194   7.268 -0.9972 -0.2752 -0.2897
 1465SOL     hw 5859   5.302   2.049   7.226  0.9241 -0.6784  0.8312
 1465SOL     vw 5860   5.261   2.121   7.251 -0.0498 -0.9822  0.1554
 1466SOL     ow 5861   0.110   4.834   3.870  1.1377 -0.0160  0.1244
 1466SOL     hw 5862   0.202   4.845   3.846  1.8737  1.2383  3.0249
 1466SOL     hw 5863   0.075   4.923   3.871  0.6064 -0.2149  1.4022
 1466SOL     vw 5864   0.117   4.847   3.867  1.1647  0.1235  0.6757
 1467SOL     ow 5865   3.517   6.125   6.313 -0.1635 -0.1714 -0.7599
 1467SOL     hw 5866   3.465   6.086   6.384 -1.0196 -0.8835 -1.7430
 1467SOL     hw 5867   3.529   6.053   6.251  0.7679  0.3806 -1.2336
 1467SOL     vw 5868   3.512   6.110   6.314 -0.1534 -0.1926 -0.9520
 1468SOL     ow 5869   5.552   2.720   5.186  0.1378  0.3856 -0.1186
 1468SOL     hw 5870   5.613   2.708   5.113 -0.9672  1.3187 -1.2330
 1468SOL     hw 5871   5.470   2.747   5.145 -0.7742  0.0849  1.4149
 1468SOL     vw 5872   5.549   2.722   5.171 -0.1283  0.4691 -0.0632
 1469SOL     ow 5873   5.343   7.128   2.595  1.0502 -0.6705  0.1911
 1469SOL     hw 5874   5.374   7.172   2.675  0.8763 -0.0242 -0.0925
 1469SOL     hw 5875   5.255   7.164   2.581  0.5100 -1.8266  0.4869
 1469SOL     vw 5876   5.335   7.138   2.604  0.9561 -0.7379  0.1928
 1470SOL     ow 5877   6.252   3.236   4.251 -0.1857 -0.3620  0.2661
 1470SOL     hw 5878   6.278   3.144   4.252  1.5793  0.0633 -1.0693
 1470SOL     hw 5879   6.228   3.254   4.161 -0.6687  0.4675  0.5458
 1470SOL     vw 5880   6.252   3.226   4.240 -0.0165 -0.1963  0.1268
 1471SOL     ow 5881   4.253   0.026   5.963 -0.1192  0.5836  0.8140
 1471SOL     hw 5882   4.341   0.025   5.999 -0.1246  2.7587  1.0407
 1471SOL     hw 5883   4.237  -0.064   5.935  0.4084 -0.9935  4.9036
 1471SOL     vw 5884   4.262   0.014   5.964 -0.0503  0.6625  1.3838
 1472SOL     ow 5885   0.667   6.430   4.534  0.2449  0.1968  0.2540
 1472SOL     hw 5886   0.637   6.380   4.610 -0.1515 -1.1902 -0.7684
 1472SOL     hw 5887   0.750   6.469   4.562  0.3940 -0.7566  1.2146
 1472SOL     vw 5888   0.674   6.428   4.548  0.2123 -0.1121  0.2458
 1473SOL     ow 5889   1.843   6.826   0.080  0.1287  0.5058 -0.2450
 1473SOL     hw 5890   1.864   6.918   0.068  0.8351  0.5313  0.9998
 1473SOL     hw 5891   1.754   6.825   0.115 -0.2203  0.6558 -1.1123
 1473SOL     vw 5892   1.834   6.838   0.083  0.1759  0.5288 -0.1952
 1474SOL     ow 5893   3.813   2.145   3.697  0.1028 -0.2651  0.1034
 1474SOL     hw 5894   3.810   2.066   3.643  1.7846 -0.0987 -0.2974
 1474SOL     hw 5895   3.876   2.124   3.766  0.3626  0.6228  0.1460
 1474SOL     vw 5896   3.821   2.132   3.699  0.3589 -0.1260  0.0560
 1475SOL     ow 5897   5.457   5.184   3.706 -0.2264 -0.2010 -0.1687
 1475SOL     hw 5898   5.532   5.153   3.655  0.5355 -0.3868  0.9990
 1475SOL     hw 5899   5.424   5.105   3.750  1.0046  0.3685  1.9287
 1475SOL     vw 5900   5.463   5.169   3.705  0.0362 -0.1500  0.2621
 1476SOL     ow 5901   1.010   2.733   0.821 -0.1864  0.1005  0.4570
 1476SOL     hw 5902   0.981   2.648   0.854  0.2350 -0.5702 -0.8214
 1476SOL     hw 5903   0.959   2.746   0.741  0.3443  0.6598  0.1985
 1476SOL     vw 5904   0.999   2.724   0.815 -0.0608  0.0858  0.2542
 1477SOL     ow 5905   6.090   4.360   4.732  0.6253  0.8028 -0.5469
 1477SOL     hw 5906   6.047   4.323   4.654  0.4634 -1.1160  0.4006
 1477SOL     hw 5907   6.053   4.448   4.739 -0.7796  0.3467 -1.5802
 1477SOL     vw 5908   6.079   4.367   4.723  0.4184  0.4897 -0.5584
 1478SOL     ow 5909   0.584   4.188   6.711  0.4101  0.1297  0.2119
 1478SOL     hw 5910   0.523   4.116   6.696 -0.1503 -0.0898  3.0155
 1478SOL     hw 5911   0.620   4.208   6.625  1.3039 -4.1093 -0.6237
 1478SOL     vw 5912   0.581   4.181   6.698  0.4541 -0.4582  0.4716
 1479SOL     ow 5913   2.440   1.886   4.556  0.0123 -0.2666 -0.0599
 1479SOL     hw 5914   2.484   1.856   4.476  0.6291  2.2284 -0.7261
 1479SOL     hw 5915   2.511   1.909   4.615 -0.4374 -2.5002  1.4622
 1479SOL     vw 5916   2.455   1.885   4.553  0.0343 -0.2322  0.0529
 1480SOL     ow 5917   3.304   0.399   2.227 -0.2298 -0.0458 -0.3835
 1480SOL     hw 5918   3.295   0.462   2.299  0.6141 -0.3295 -0.0142
 1480SOL     hw 5919   3.215   0.367   2.212 -0.3608 -0.3216  0.8467
 1480SOL     vw 5920   3.291   0.403   2.235 -0.1358 -0.1196 -0.1724
 1481SOL     ow 5921   4.265   3.419   2.069  0.3714  0.5752  0.5561
 1481SOL     hw 5922   4.222   3.418   2.154  1.7053 -0.0957  1.2563
 1481SOL     hw 5923   4.255   3.509   2.037 -0.0307  0.8591  1.4779
 1481SOL     vw 5924   4.258   3.431   2.076  0.4942  0.5242  0.7702
 1482SOL     ow 5925   6.620   6.786   7.004 -0.6266 -0.1696 -0.0512
 1482SOL     hw 5926   6.610   6.768   7.097 -0.7074  0.9673  0.1739
 1482SOL     hw 5927   6.543   6.839   6.981 -0.1640  0.2985 -0.5593
 1482SOL     vw 5928   6.609   6.791   7.013 -0.5763  0.0422 -0.0887
 1483SOL     ow 5929   1.270   7.237   3.687  0.4537  0.3785 -0.0851
 1483SOL     hw 5930   1.267   7.152   3.732  1.1873  0.4345  0.0891
 1483SOL     hw 5931   1.285   7.214   3.595  1.3553  0.3284  0.0639
 1483SOL     vw 5932   1.272   7.222   3.681  0.6694  0.3796 -0.0424
 1484SOL     ow 5933   4.236   7.006   4.774 -0.0736 -0.5537  0.1108
 1484SOL     hw 5934   4.161   6.962   4.814  0.5357 -1.4252  0.3199
 1484SOL     hw 5935   4.253   7.080   4.832  0.0967 -1.1645  0.8587
 1484SOL     vw 5936   4.228   7.010   4.787  0.0296 -0.7493  0.2370
 1485SOL     ow 5937   0.361   1.210   3.877  0.2848  0.8183  0.0670
 1485SOL     hw 5938   0.277   1.191   3.917 -0.8549  2.5962 -1.3333
 1485SOL     hw 5939   0.402   1.273   3.936  0.9506 -0.4992  1.0609
 1485SOL     vw 5940   0.356   1.216   3.890  0.2223  0.8790  0.0135
 1486SOL     ow 5941   4.474   7.231   6.721 -0.0349 -0.2298  0.1443
 1486SOL     hw 5942   4.392   7.258   6.681  0.6059  0.3812 -0.7836
 1486SOL     hw 5943   4.534   7.219   6.648  0.2477 -2.3490  0.6713
 1486SOL     vw 5944   4.471   7.233   6.706  0.0868 -0.4289  0.0911
 1487SOL     ow 5945   6.893   1.919   4.043  0.1764  0.2314  0.0051
 1487SOL     hw 5946   6.949   1.869   4.103  0.4161 -2.1264 -1.9931
 1487SOL     hw 5947   6.947   1.992   4.013  1.3827 -0.6884 -0.1128
 1487SOL     vw 5948   6.907   1.922   4.047  0.3674 -0.2011 -0.2742
 1488SOL     ow 5949   3.289   6.475   3.919 -0.4725  0.4542 -0.4928
 1488SOL     hw 5950   3.201   6.437   3.916 -0.4666  0.3668  0.2369
 1488SOL     hw 5951   3.330   6.446   3.838 -1.2311  0.7711 -0.9973
 1488SOL     vw 5952   3.283   6.466   3.908 -0.5718  0.4845 -0.4632
 1489SOL     ow 5953   1.724   4.059   5.276 -0.4443 -0.0717 -0.1889
 1489SOL     hw 5954   1.764   3.972   5.270 -0.5236 -0.1936  0.8684
 1489SOL     hw 5955   1.791   4.114   5.316 -1.1757 -0.1994  1.2810
 1489SOL     vw 5956   1.738   4.055   5.280 -0.5513 -0.1044  0.1447
 1490SOL     ow 5957   6.542   6.660   2.205  0.1321 -0.4559 -0.4588
 1490SOL     hw 5958   6.637   6.661   2.218 -0.0139 -3.3392  1.9198
 1490SOL     hw 5959   6.507   6.623   2.286 -3.0282  0.0260 -1.4593
 1490SOL     vw 5960   6.550   6.655   2.218 -0.3040 -0.7730 -0.2770
 1491SOL     ow 5961   3.767   1.850   1.229 -0.2086 -0.5100 -0.4313
 1491SOL     hw 5962   3.784   1.934   1.187 -1.0880 -0.1810 -0.1411
 1491SOL     hw 5963   3.692   1.814   1.183 -1.1582 -0.1669  0.8064
 1491SOL     vw 5964   3.760   1.856   1.217 -0.4499 -0.4213 -0.2297
 1492SOL     ow 5965   6.430   7.265   6.888  0.6117  0.0251 -0.6305
 1492SOL     hw 5966   6.511   7.299   6.927  1.3755 -0.7351 -1.5230
 1492SOL     hw 5967   6.419   7.179   6.927 -0.4316  0.5847  0.3755
 1492SOL     vw 5968   6.439   7.258   6.899  0.5746 -0.0010 -0.6154
 1493SOL     ow 5969   0.209   0.622   6.707  0.2208  0.7294 -0.1550
 1493SOL     hw 5970   0.268   0.611   6.632 -1.9806  2.9670 -2.4021
 1493SOL     hw 5971   0.157   0.541   6.710  0.8322  0.3192 -0.5364
 1493SOL     vw 5972   0.210   0.610   6.698  0.0110  0.9705 -0.5016
 1494SOL     ow 5973   3.127   3.001   4.886 -0.1091 -0.0146  0.3907
 1494SOL     hw 5974   3.112   2.960   4.972 -0.1258 -1.6840 -0.3735
 1494SOL     hw 5975   3.061   2.962   4.829  1.0978 -0.3537 -0.8256
 1494SOL     vw 5976   3.116   2.991   4.890  0.0479 -0.2795  0.1295
 1495SOL     ow 5977   7.235   6.891   3.845  0.4027 -0.1578 -0.2778
 1495SOL     hw 5978   7.224   6.916   3.753  0.6294  1.4644  0.1074
 1495SOL     hw 5979   7.305   6.825   3.843  0.9140  0.3793 -1.1971
 1495SOL     vw 5980   7.243   6.886   3.832  0.5000  0.1268 -0.3481
 1496SOL     ow 5981   5.957   4.506   7.256  0.3409 -0.9858  0.3558
 1496SOL     hw 5982   5.970   4.501   7.351  1.3685 -0.2417  0.2637
 1496SOL     hw 5983   5.981   4.596   7.233  1.5567 -1.5746 -0.8104
 1496SOL     vw 5984   5.962   4.517   7.266  0.6366 -0.9651  0.1900
 1497SOL     ow 5985   7.073   5.547   7.125 -0.5933 -0.4351  0.1054
 1497SOL     hw 5986   7.047   5.471   7.177 -1.0731 -0.0768  0.3908
 1497SOL     hw 5987   6.997   5.606   7.127 -0.1701  0.1263  0.0236
 1497SOL     vw 5988   7.060   5.545   7.132 -0.6006 -0.3138  0.1321
 1498SOL     ow 5989   5.055   2.122   4.824  0.8632 -0.4091 -0.4218
 1498SOL     hw 5990   5.135   2.091   4.868  0.8345 -1.0180 -0.7834
 1498SOL     hw 5991   5.082   2.136   4.733  1.2029  1.9184 -0.0163
 1498SOL     vw 5992   5.069   2.120   4.818  0.9043 -0.1824 -0.4158
 1499SOL     ow 5993   2.330   0.042   6.816 -0.2406 -0.2778  0.1920
 1499SOL     hw 5994   2.256   0.102   6.804  0.2457  0.1070 -1.1172
 1499SOL     hw 5995   2.405   0.099   6.831 -0.0292 -0.6280  0.4794
 1499SOL     vw 5996   2.330   0.058   6.816 -0.1485 -0.2730  0.0570
 1500SOL     ow 5997   2.174   3.830   7.101 -0.3967  0.6129  0.1419
 1500SOL     hw 5998   2.167   3.893   7.172 -1.9358  0.4688  0.1565
 1500SOL     hw 5999   2.209   3.880   7.027  1.3439  0.7327  1.0002
 1500SOL     vw 6000   2.177   3.845   7.101 -0.3700  0.6095  0.2573
 1501SOL     ow 6001   1.232   1.889   6.497 -0.2792 -0.3775  0.3358
 1501SOL     hw 6002   1.230   1.923   6.587  1.6346  0.1004  0.2428
 1501SOL     hw 6003   1.205   1.963   6.443 -2.0563 -0.8492  0.5259
 1501SOL     vw 6004   1.228   1.903   6.502 -0.2612 -0.3767  0.3486
 1502SOL     ow 6005   4.490   0.945   6.468 -0.2283 -0.1163 -0.4742
 1502SOL     hw 6006   4.425   0.878   6.448 -1.9705  1.8297 -1.8228
 1502SOL     hw 6007   4.517   0.927   6.557 -0.0964 -2.9804 -1.0106
 1502SOL     vw 6008   4.485   0.934   6.477 -0.4408 -0.2374 -0.7231
 1503SOL     ow 6009   4.043   2.701   5.106  0.2594  0.5442 -0.3667
 1503SOL     hw 6010   4.015   2.768   5.044  1.8963 -0.1876 -1.9730
 1503SOL     hw 6011   4.125   2.734   5.142 -0.8000  1.0857  1.6853
 1503SOL     vw 6012   4.050   2.714   5.103  0.3357  0.5190 -0.3078
 1504SOL     ow 6013   3.663   6.416   2.138 -0.3986 -0.0135  0.4280
 1504SOL     hw 6014   3.663   6.507   2.109 -3.7386 -1.3273 -5.2914
 1504SOL     hw 6015   3.582   6.407   2.188 -1.0860 -0.1466 -0.6804
 1504SOL     vw 6016   3.652   6.427   2.141 -0.9300 -0.2046 -0.4728
 1505SOL     ow 6017   1.998   5.536   3.031  0.7927 -0.0403 -0.1557
 1505SOL     hw 6018   2.065   5.545   3.099 -1.4940  0.6166  2.2119
 1505SOL     hw 6019   1.921   5.503   3.078 -0.8134  0.0311 -2.5444
 1505SOL     vw 6020   1.996   5.533   3.046  0.2791  0.0558 -0.1587
 1506SOL     ow 6021   2.704   1.386   1.086 -0.7223 -0.0285  0.4409
 1506SOL     hw 6022   2.647   1.313   1.110 -1.2285 -0.9227 -3.0586
 1506SOL     hw 6023   2.645   1.462   1.084 -0.4874  0.2934  2.5808
 1506SOL     vw 6024   2.689   1.387   1.089 -0.7582 -0.1040  0.2615
 1507SOL     ow 6025   0.395   2.916   2.930 -0.9281  0.3530  0.1946
 1507SOL     hw 6026   0.355   2.944   3.012 -1.8136  2.6550 -0.9564
 1507SOL     hw 6027   0.423   2.996   2.887  2.3920 -0.9536 -0.4297
 1507SOL     vw 6028   0.394   2.930   2.935 -0.6069  0.4843 -0.0396
 1508SOL     ow 6029   0.654   7.187   5.202  0.3745  0.3251  1.0667
 1508SOL     hw 6030   0.699   7.107   5.229 -1.4478 -1.1897 -0.0729
 1508SOL     hw 6031   0.718   7.234   5.148  2.2980  0.9206  3.6530
 1508SOL     vw 6032   0.668   7.183   5.199  0.3879  0.2038  1.2574
 1509SOL     ow 6033   4.129   1.167   2.081  0.1018 -0.5622 -0.4893
 1509SOL     hw 6034   4.214   1.123   2.072  1.2907  1.6534 -0.9744
 1509SOL     hw 6035   4.121   1.186   2.174  1.7582  2.0286 -0.7809
 1509SOL     vw 6036   4.139   1.164   2.092  0.4771  0.0720 -0.5919
 1510SOL     ow 6037   3.901   3.492   2.703 -0.4179  0.6539 -0.0951
 1510SOL     hw 6038   3.817   3.447   2.701  0.8600 -1.9182 -0.1786
 1510SOL     hw 6039   3.931   3.481   2.793 -0.4502  2.2128  0.1360
 1510SOL     vw 6040   3.894   3.485   2.715 -0.2537  0.5202 -0.0757
 1511SOL     ow 6041   3.840   1.665   3.100  0.2385  0.4016  0.8677
 1511SOL     hw 6042   3.756   1.704   3.076 -0.3807 -0.6533  1.2592
 1511SOL     hw 6043   3.840   1.666   3.196  0.4916  0.0250  0.8726
 1511SOL     vw 6044   3.829   1.670   3.109  0.1903  0.2128  0.9201
 1512SOL     ow 6045   6.330   1.855   0.829  0.3215 -0.4706  0.4986
 1512SOL     hw 6046   6.242   1.816   0.832  0.5672 -1.0494  0.3208
 1512SOL     hw 6047   6.386   1.784   0.799  0.2282  0.9943 -3.9015
 1512SOL     vw 6048   6.326   1.840   0.825  0.3417 -0.3536 -0.1054
 1513SOL     ow 6049   6.029   4.678   0.533 -0.1311  0.1085 -0.1028
 1513SOL     hw 6050   6.004   4.743   0.599  1.0888 -0.3328  0.8289
 1513SOL     hw 6051   5.961   4.611   0.539  0.4550 -0.3888  1.4078
 1513SOL     vw 6052   6.017   4.678   0.543  0.1070 -0.0155  0.2194
 1514SOL     ow 6053   5.360   4.645   6.994  0.4444 -0.1988  0.1787
 1514SOL     hw 6054   5.432   4.637   6.931 -0.8685  0.0531 -1.4105
 1514SOL     hw 6055   5.386   4.588   7.067  2.4383  0.2213 -0.1368
 1514SOL     vw 6056   5.373   4.636   6.995  0.5341 -0.1101 -0.0727
 1515SOL     ow 6057   1.203   4.198   6.740  0.0392 -0.2187  0.2026
 1515SOL     hw 6058   1.108   4.208   6.752 -0.2753 -0.3796 -1.7685
 1515SOL     hw 6059   1.218   4.228   6.650  1.7472 -0.9206  0.2318
 1515SOL     vw 6060   1.192   4.204   6.730  0.2230 -0.3326 -0.0539
 1516SOL     ow 6061   5.077   1.375   1.327 -0.3380  0.3780  0.5233
 1516SOL     hw 6062   5.124   1.429   1.391  1.5681  0.0206 -0.4813
 1516SOL     hw 6063   5.019   1.436   1.282 -1.0638  0.7963  1.9725
 1516SOL     vw 6064   5.076   1.390   1.329 -0.1826  0.3860  0.5820
 1517SOL     ow 6065   0.089   3.329   6.361  0.6284 -0.2109  0.0120
 1517SOL     hw 6066   0.141   3.254   6.389  0.4367 -0.8399 -1.2148
 1517SOL     hw 6067   0.039   3.296   6.286  0.2859  1.0524 -0.3378
 1517SOL     vw 6068   0.089   3.315   6.355  0.5579 -0.1273 -0.1957
 1518SOL     ow 6069   0.044   1.269   4.021 -0.1598 -0.0531  0.0042
 1518SOL     hw 6070   0.023   1.321   3.943  0.8890 -0.2513 -0.4257
 1518SOL     hw 6071   0.122   1.312   4.058  1.1475 -1.6593 -0.7409
 1518SOL     vw 6072   0.052   1.281   4.016  0.1510 -0.2912 -0.1507
 1519SOL     ow 6073   5.544   0.615   3.449  0.2356  0.7036 -0.7400
 1519SOL     hw 6074   5.464   0.573   3.480  0.4123  1.6956  1.1536
 1519SOL     hw 6075   5.515   0.700   3.415  0.3321  0.5232 -1.2853
 1519SOL     vw 6076   5.530   0.621   3.448  0.2718  0.8107 -0.5621
 1520SOL     ow 6077   3.351   6.229   2.490 -0.6290 -0.1161 -0.0324
 1520SOL     hw 6078   3.294   6.152   2.485 -0.2297 -0.3606 -2.3598
 1520SOL     hw 6079   3.401   6.216   2.570  0.3419 -3.0344 -0.9484
 1520SOL     vw 6080   3.350   6.217   2.500 -0.4482 -0.5336 -0.4604
 1521SOL     ow 6081   1.944   0.208   4.864  0.6180  0.9126 -0.2130
 1521SOL     hw 6082   1.935   0.136   4.802  1.9749  0.4866  0.0370
 1521SOL     hw 6083   1.855   0.239   4.879  0.0949 -0.1622 -0.9765
 1521SOL     vw 6084   1.931   0.203   4.858  0.7280  0.7146 -0.2809
 1522SOL     ow 6085   2.686   4.763   0.024  0.1200  0.7330 -0.4191
 1522SOL     hw 6086   2.657   4.687   0.074 -1.2777  1.0686 -0.6688
 1522SOL     hw 6087   2.667   4.740  -0.068  0.8585  0.8896 -0.6167
 1522SOL     vw 6088   2.680   4.750   0.018  0.0330  0.7977 -0.4782
 1523SOL     ow 6089   5.471   0.222   3.568  0.0875  0.7289 -0.8214
 1523SOL     hw 6090   5.556   0.237   3.609 -0.6636  2.0550  0.3672
 1523SOL     hw 6091   5.491   0.194   3.479  1.7661  1.7440 -0.8080
 1523SOL     vw 6092   5.485   0.221   3.562  0.2098  1.0378 -0.6629
 1524SOL     ow 6093   1.363   2.366   5.374  0.2650 -0.7389 -0.2628
 1524SOL     hw 6094   1.407   2.404   5.298  0.8242 -0.0906  0.3812
 1524SOL     hw 6095   1.430   2.363   5.442  0.1398 -2.5488 -0.1783
 1524SOL     vw 6096   1.377   2.371   5.373  0.3223 -0.8920 -0.1669
 1525SOL     ow 6097   4.128   1.738   0.373 -0.5894 -0.1933 -0.5996
 1525SOL     hw 6098   4.214   1.778   0.381 -1.1797  1.0730 -0.3018
 1525SOL     hw 6099   4.106   1.748   0.280  0.5118 -2.5876 -1.1903
 1525SOL     vw 6100   4.136   1.745   0.362 -0.5221 -0.3422 -0.6382
 1526SOL     ow 6101   2.754   0.476   3.376 -0.1992 -0.3031  0.2291
 1526SOL     hw 6102   2.668   0.518   3.377 -0.4655 -0.8534  0.6466
 1526SOL     hw 6103   2.736   0.383   3.360  0.3479 -0.3569 -0.1095
 1526SOL     vw 6104   2.741   0.469   3.374 -0.1622 -0.3828  0.2395
 1527SOL     ow 6105   6.344   6.096   2.382 -0.3427  1.0189  0.0497
 1527SOL     hw 6106   6.352   6.189   2.360 -0.2965  1.5066  1.9589
 1527SOL     hw 6107   6.353   6.093   2.477  1.0934 -1.1074 -0.0844
 1527SOL     vw 6108   6.346   6.108   2.392 -0.1473  0.8025  0.2840
 1528SOL     ow 6109   1.580   0.946   2.930  0.4824 -0.1099  0.6511
 1528SOL     hw 6110   1.638   0.917   3.000 -0.3317  0.4327  1.5767
 1528SOL     hw 6111   1.547   1.031   2.959 -2.5882 -1.3894  1.3187
 1528SOL     vw 6112   1.583   0.954   2.943 -0.0302 -0.2072  0.8614
 1529SOL     ow 6113   4.708   3.731   4.206 -0.3111 -0.3448 -0.6635
 1529SOL     hw 6114   4.779   3.761   4.263  0.8524  1.7015 -2.9699
 1529SOL     hw 6115   4.639   3.796   4.217 -1.7365 -2.0533  1.1862
 1529SOL     vw 6116   4.708   3.744   4.215 -0.3457 -0.3002 -0.7241
 1530SOL     ow 6117   2.157   4.959   3.959  0.0534  0.0943 -0.8770
 1530SOL     hw 6118   2.074   4.990   3.922 -1.1672 -1.5113  0.3646
 1530SOL     hw 6119   2.222   4.979   3.892 -1.2214  1.9101 -1.6605
 1530SOL     vw 6120   2.155   4.966   3.945 -0.2757  0.1221 -0.8166
 1531SOL     ow 6121   1.735   4.349   3.730  0.1141  0.1473 -0.0257
 1531SOL     hw 6122   1.782   4.401   3.665 -1.3626 -0.1414 -1.3760
 1531SOL     hw 6123   1.643   4.373   3.719 -0.4580 -1.7267  0.2538
 1531SOL     vw 6124   1.729   4.359   3.720 -0.1562 -0.1380 -0.1671
 1532SOL     ow 6125   4.101   1.468   2.632 -0.2703 -0.0078 -0.2275
 1532SOL     hw 6126   4.127   1.559   2.647 -0.8043  0.1115 -0.0014
 1532SOL     hw 6127   4.006   1.471   2.623 -0.2175 -0.4340 -1.0580
 1532SOL     vw 6128   4.092   1.480   2.632 -0.3338 -0.0482 -0.3073
 1533SOL     ow 6129   7.110   3.232   6.813 -0.0228  0.1120  0.4111
 1533SOL     hw 6130   7.044   3.228   6.744 -0.4543 -0.7221  0.8692
 1533SOL     hw 6131   7.165   3.155   6.799 -0.0853 -0.0366  0.9741
 1533SOL     vw 6132   7.109   3.222   6.802 -0.0885 -0.0176  0.5457
 1534SOL     ow 6133   1.082   5.153   1.910 -0.6254 -0.0984  0.6856
 1534SOL     hw 6134   1.170   5.116   1.914 -0.8836 -0.6958  0.9335
 1534SOL     hw 6135   1.093   5.245   1.935 -0.2152 -0.4123  1.7178
 1534SOL     vw 6136   1.095   5.161   1.914 -0.6054 -0.2186  0.8546
 1535SOL     ow 6137   6.616   0.212   6.611 -0.5739 -0.9253 -0.1438
 1535SOL     hw 6138   6.662   0.286   6.570 -3.5336  2.2347  1.7832
 1535SOL     hw 6139   6.613   0.145   6.542 -0.6424  2.0023 -3.2416
 1535SOL     vw 6140   6.622   0.213   6.597 -0.9735 -0.1221 -0.2985
 1536SOL     ow 6141   7.034   0.068   5.975 -0.7999 -0.6407 -0.7358
 1536SOL     hw 6142   7.094   0.052   6.048 -1.1753 -0.0070 -0.2796
 1536SOL     hw 6143   7.062   0.006   5.908 -0.9413 -1.7814  0.2234
 1536SOL     vw 6144   7.046   0.058   5.976 -0.8683 -0.7076 -0.5488
 1537SOL     ow 6145   0.647   2.566   3.596  0.1647  0.1791 -0.1098
 1537SOL     hw 6146   0.672   2.584   3.686  0.5113 -1.5756  0.1749
 1537SOL     hw 6147   0.551   2.572   3.596  0.2418  2.6594 -0.2454
 1537SOL     vw 6148   0.638   2.569   3.608  0.2205  0.2748 -0.0901
 1538SOL     ow 6149   7.222   6.304   5.350 -0.3093  0.0060 -0.3890
 1538SOL     hw 6150   7.249   6.308   5.441 -0.8541  0.3657 -0.2375
 1538SOL     hw 6151   7.299   6.332   5.300  0.0609 -0.4138 -0.0561
 1538SOL     vw 6152   7.236   6.308   5.355 -0.3326 -0.0017 -0.3250
 1539SOL     ow 6153   6.063   5.251   2.566  0.0913  0.3128  0.9103
 1539SOL     hw 6154   6.055   5.343   2.539  1.5738  0.4469  0.8583
 1539SOL     hw 6155   6.037   5.201   2.488 -1.8172  0.6402  1.2752
 1539SOL     vw 6156   6.058   5.257   2.552  0.0353  0.3736  0.9516
 1540SOL     ow 6157   6.091   1.890   6.102 -0.0688 -0.0891  0.0626
 1540SOL     hw 6158   6.031   1.964   6.108  1.2840  0.9388  3.3224
 1540SOL     hw 6159   6.175   1.929   6.078 -0.3970 -1.4358 -3.8964
 1540SOL     vw 6160   6.094   1.905   6.100  0.0665 -0.1311 -0.0298
 1541SOL     ow 6161   1.960   6.107   6.084 -0.0519 -0.1190  0.3014
 1541SOL     hw 6162   1.943   6.014   6.103 -0.0001 -0.4543 -1.1473
 1541SOL     hw 6163   2.033   6.130   6.141 -2.4062  0.1469  3.4672
 1541SOL     vw 6164   1.968   6.097   6.094 -0.3556 -0.1283  0.5281
 1542SOL     ow 6165   4.409   7.230   2.871 -0.1505 -0.0093  0.6169
 1542SOL     hw 6166   4.446   7.164   2.931 -0.3305 -0.8139 -0.1322
 1542SOL     hw 6167   4.460   7.220   2.790  0.0560  1.0283  0.6050
 1542SOL     vw 6168   4.421   7.220   2.868 -0.1471  0.0212  0.5165
 1543SOL     ow 6169   2.934   2.496   5.807  0.0743 -0.3632  0.6832
 1543SOL     hw 6170   2.918   2.405   5.782 -0.4155  0.2217 -1.2713
 1543SOL     hw 6171   2.950   2.492   5.901 -1.6517 -2.2546  0.9631
 1543SOL     vw 6172   2.934   2.483   5.816 -0.2180 -0.5355  0.4623
 1544SOL     ow 6173   5.270   6.835   2.568 -0.6822 -0.4526 -0.5229
 1544SOL     hw 6174   5.208   6.790   2.510 -0.0200 -1.3469 -0.5586
 1544SOL     hw 6175   5.293   6.770   2.634  0.9919 -0.4865 -1.0967
 1544SOL     vw 6176   5.265   6.821   2.569 -0.3738 -0.5751 -0.6033
 1545SOL     ow 6177   3.811   1.195   6.315  0.2078 -0.2175 -0.4358
 1545SOL     hw 6178   3.804   1.165   6.224  3.0618 -2.1212 -0.1487
 1545SOL     hw 6179   3.903   1.221   6.325 -0.7342  3.2617  1.0646
 1545SOL     vw 6180   3.822   1.195   6.304  0.4600 -0.0097 -0.1998
 1546SOL     ow 6181   3.646   0.381   1.166 -0.0456 -0.0652  0.7389
 1546SOL     hw 6182   3.627   0.420   1.081  1.2153  0.6977  0.7813
 1546SOL     hw 6183   3.723   0.429   1.199 -0.3261 -0.5317  2.1799
 1546SOL     vw 6184   3.654   0.392   1.159  0.0838 -0.0261  0.9346
 1547SOL     ow 6185   2.991   6.323   0.165  0.3123  0.6178  0.0972
 1547SOL     hw 6186   2.965   6.402   0.118  1.3883  0.6848 -0.4112
 1547SOL     hw 6187   2.941   6.326   0.247 -0.8313  1.0089 -0.5990
 1547SOL     vw 6188   2.981   6.333   0.170  0.3033  0.6781 -0.0617
 1548SOL     ow 6189   6.484   1.199   4.848 -0.1724  0.4229 -0.6605
 1548SOL     hw 6190   6.417   1.156   4.902 -0.5753  1.1126 -0.6039
 1548SOL     hw 6191   6.452   1.192   4.759 -0.2397  0.6092 -0.6510
 1548SOL     vw 6192   6.471   1.192   4.844 -0.2348  0.5385 -0.6518
 1549SOL     ow 6193   4.163   0.605   0.113 -0.2801 -0.0194  0.6350
 1549SOL     hw 6194   4.243   0.599   0.061 -0.5247 -1.4511  0.3678
 1549SOL     hw 6195   4.107   0.534   0.080 -2.7193  2.4369 -0.9053
 1549SOL     vw 6196   4.166   0.595   0.102 -0.6342  0.1158  0.3963
 1550SOL     ow 6197   5.713   0.256   1.255 -0.5930 -0.2018  0.1749
 1550SOL     hw 6198   5.621   0.246   1.281 -0.1339 -0.4844  1.7871
 1550SOL     hw 6199   5.746   0.166   1.248 -0.5606 -0.1239 -0.9846
 1550SOL     vw 6200   5.705   0.243   1.257 -0.5283 -0.2288  0.2347
 1551SOL     ow 6201   2.592   6.284   3.374  0.2487  0.1618 -0.1608
 1551SOL     hw 6202   2.658   6.317   3.434 -1.5058  0.5018  1.7047
 1551SOL     hw 6203   2.642   6.245   3.302  2.4293  0.8944  0.8694
 1551SOL     vw 6204   2.607   6.283   3.372  0.3049  0.3035  0.2213
 1552SOL     ow 6205   6.489   1.625   2.726  0.3590  0.1762  0.4185
 1552SOL     hw 6206   6.428   1.578   2.784 -1.0203 -0.4353 -1.4260
 1552SOL     hw 6207   6.501   1.710   2.769 -1.8581  0.3408  0.8687
 1552SOL     vw 6208   6.482   1.630   2.739 -0.1154  0.1172  0.2347
 1553SOL     ow 6209   3.835   1.691   1.489 -0.2846  0.0550  0.1137
 1553SOL     hw 6210   3.830   1.599   1.513 -0.9799 -0.0645 -0.4549
 1553SOL     hw 6211   3.862   1.736   1.570  0.5333 -0.6922  0.2653
 1553SOL     vw 6212   3.838   1.685   1.503 -0.2683 -0.0594  0.0588
 1554SOL     ow 6213   5.688   1.210   3.664  0.0591 -0.2981  0.1400
 1554SOL     hw 6214   5.723   1.282   3.717  0.0830  0.0058 -0.2787
 1554SOL     hw 6215   5.657   1.253   3.584  1.7748 -0.9475 -0.9393
 1554SOL     vw 6216   5.689   1.225   3.661  0.2887 -0.3438 -0.0577
 1555SOL     ow 6217   1.341   4.588   3.459  0.0666 -0.2853  0.0110
 1555SOL     hw 6218   1.266   4.552   3.412  1.1612 -2.0356 -0.4810
 1555SOL     hw 6219   1.308   4.668   3.500 -1.1700  0.8372 -2.9382
 1555SOL     vw 6220   1.327   4.594   3.458  0.0479 -0.3681 -0.4431
 1556SOL     ow 6221   5.305   4.504   0.918  0.1204  0.0761 -0.3180
 1556SOL     hw 6222   5.369   4.510   0.988 -0.0748  1.0521 -0.2145
 1556SOL     hw 6223   5.254   4.426   0.938  1.4705 -0.8970 -0.5737
 1556SOL     vw 6224   5.306   4.495   0.930  0.2730  0.0765 -0.3381
 1557SOL     ow 6225   3.927   6.294   4.905 -0.2961  0.7522  0.4903
 1557SOL     hw 6226   3.969   6.236   4.969  0.8874  0.0001 -0.9324
 1557SOL     hw 6227   3.838   6.260   4.897 -0.7216  1.3250  2.2704
 1557SOL     vw 6228   3.921   6.282   4.913 -0.1960  0.7286  0.5376
 1558SOL     ow 6229   1.498   1.946   0.303  0.6072 -0.4327 -0.3972
 1558SOL     hw 6230   1.439   1.874   0.326 -1.0326  0.1546 -2.3732
 1558SOL     hw 6231   1.567   1.943   0.368 -1.7863 -0.9552  2.3095
 1558SOL     vw 6232   1.499   1.936   0.314  0.0751 -0.4241 -0.3008
 1559SOL     ow 6233   1.456   4.744   1.688  0.4056  0.0441  0.3019
 1559SOL     hw 6234   1.384   4.794   1.726 -0.8141  1.5762 -3.5335
 1559SOL     hw 6235   1.534   4.796   1.710 -0.0953  0.4009  1.3343
 1559SOL     vw 6236   1.457   4.758   1.696  0.1786  0.2933 -0.0679
 1560SOL     ow 6237   0.841   6.747   3.012 -0.1244  0.4458 -0.1313
 1560SOL     hw 6238   0.783   6.757   2.936  3.1087  1.3794 -2.7349
 1560SOL     hw 6239   0.836   6.832   3.056 -0.4884  0.6187 -0.4887
 1560SOL     vw 6240   0.832   6.760   3.008  0.2542  0.5920 -0.5219
 1561SOL     ow 6241   2.996   1.456   0.215  0.0417  0.9005  0.1856
 1561SOL     hw 6242   3.007   1.520   0.286 -4.4148  0.4936  1.5491
 1561SOL     hw 6243   2.964   1.377   0.259 -0.3516 -0.2632 -2.0365
 1561SOL     vw 6244   2.993   1.454   0.230 -0.5981  0.6933  0.0723
 1562SOL     ow 6245   3.049   5.727   5.413 -0.6599 -0.4215 -0.4723
 1562SOL     hw 6246   3.070   5.634   5.415 -0.9574 -0.4971 -0.7383
 1562SOL     hw 6247   3.066   5.758   5.502 -1.5883 -0.9611 -0.0921
 1562SOL     vw 6248   3.054   5.719   5.425 -0.8216 -0.5026 -0.4573
 1563SOL     ow 6249   1.343   6.053   5.532  0.1096  0.4748  0.5982
 1563SOL     hw 6250   1.324   6.027   5.442 -0.3963  0.6874  0.6384
 1563SOL     hw 6251   1.258   6.051   5.576  0.3906  0.1390  1.1334
 1563SOL     vw 6252   1.329   6.050   5.526  0.0799  0.4582  0.6742
 1564SOL     ow 6253   5.833   4.221   7.146  0.1918  0.1248 -0.5414
 1564SOL     hw 6254   5.777   4.152   7.182  0.1044  0.7116  0.4708
 1564SOL     hw 6255   5.809   4.224   7.053 -2.6555  1.4362  0.1157
 1564SOL     vw 6256   5.822   4.212   7.138 -0.1953  0.3755 -0.3214
 1565SOL     ow 6257   4.357   1.622   0.698 -0.1838 -0.3269  0.0007
 1565SOL     hw 6258   4.315   1.539   0.679 -0.1482 -0.4205  0.3210
 1565SOL     hw 6259   4.443   1.615   0.657  0.3838 -1.0294  1.2387
 1565SOL     vw 6260   4.363   1.610   0.690 -0.1042 -0.4320  0.2063
 1566SOL     ow 6261   1.413   1.445   0.127 -0.3970 -0.3787  0.0057
 1566SOL     hw 6262   1.473   1.485   0.190 -0.1679 -0.1326 -0.3703
 1566SOL     hw 6263   1.379   1.519   0.076 -0.6766 -0.5642 -0.0806
 1566SOL     vw 6264   1.416   1.460   0.129 -0.4037 -0.3707 -0.0553
 1567SOL     ow 6265   1.815   3.314   1.484  0.0281 -0.5540 -0.2264
 1567SOL     hw 6266   1.776   3.239   1.439 -0.1752 -0.1527 -0.7256
 1567SOL     hw 6267   1.904   3.286   1.504  0.3263 -0.4996 -1.4551
 1567SOL     vw 6268   1.822   3.300   1.481  0.0407 -0.4939 -0.4544
 1568SOL     ow 6269   6.759   5.898   4.604  1.1412  0.2620  1.0412
 1568SOL     hw 6270   6.815   5.838   4.653 -1.0140 -0.4348  2.8376
 1568SOL     hw 6271   6.758   5.978   4.657  2.4005  1.2180 -0.3078
 1568SOL     vw 6272   6.766   5.901   4.618  1.0231  0.2964  1.1001
 1569SOL     ow 6273   5.740   4.687   1.277 -0.4044 -0.1982 -0.0868
 1569SOL     hw 6274   5.660   4.635   1.271 -0.6059  0.1015  0.0016
 1569SOL     hw 6275   5.710   4.777   1.288 -0.0784 -0.2971  2.1031
 1569SOL     vw 6276   5.726   4.692   1.277 -0.3879 -0.1714  0.2139
 1570SOL     ow 6277   7.022   3.419   1.424  0.4818  0.1786  0.5686
 1570SOL     hw 6278   7.109   3.419   1.384  0.6785  1.1102  0.9654
 1570SOL     hw 6279   7.029   3.357   1.497  0.0262 -1.7827 -0.9738
 1570SOL     vw 6280   7.034   3.411   1.429  0.4478  0.0426  0.4175
 1571SOL     ow 6281   1.428   2.571   4.306  0.0203  0.0366  0.1977
 1571SOL     hw 6282   1.418   2.655   4.350 -0.3359  0.1007  0.0029
 1571SOL     hw 6283   1.504   2.582   4.248 -0.5763  0.5334 -0.5136
 1571SOL     vw 6284   1.436   2.584   4.304 -0.1054  0.1106  0.0784
 1572SOL     ow 6285   3.414   2.618   2.808  0.5702  0.7658  0.1244
 1572SOL     hw 6286   3.445   2.576   2.889 -0.6349 -1.3718 -0.4251
 1572SOL     hw 6287   3.486   2.606   2.746 -0.1349 -1.7164 -0.3549
 1572SOL     vw 6288   3.428   2.611   2.810  0.3181  0.1563 -0.0113
 1573SOL     ow 6289   2.932   2.116   5.329 -0.4504 -0.0598 -0.0485
 1573SOL     hw 6290   2.839   2.141   5.326 -0.8289 -1.3907 -0.5493
 1573SOL     hw 6291   2.942   2.075   5.416 -0.8065 -1.4689 -0.6322
 1573SOL     vw 6292   2.921   2.114   5.340 -0.5473 -0.4213 -0.1915
 1574SOL     ow 6293   3.530   5.553   4.945 -0.4784 -0.7980 -0.0512
 1574SOL     hw 6294   3.442   5.543   4.908 -0.5487  2.1849 -0.9238
 1574SOL     hw 6295   3.515   5.582   5.035 -0.3794 -0.7945 -0.0358
 1574SOL     vw 6296   3.516   5.555   4.952 -0.4747 -0.4041 -0.1640
 1575SOL     ow 6297   4.899   6.465   2.413  0.4545  0.2900  0.2700
 1575SOL     hw 6298   4.987   6.502   2.414 -0.1011  2.1107 -2.7901
 1575SOL     hw 6299   4.911   6.372   2.428  2.9073  0.4901 -0.1189
 1575SOL     vw 6300   4.912   6.458   2.415  0.7052  0.5565 -0.1850
 1576SOL     ow 6301   6.492   0.709   2.740 -0.0010 -0.4035 -0.6925
 1576SOL     hw 6302   6.507   0.730   2.832 -1.1796 -1.4329 -0.2389
 1576SOL     hw 6303   6.420   0.645   2.741 -0.2999 -0.1378 -2.3511
 1576SOL     vw 6304   6.484   0.703   2.752 -0.1962 -0.5042 -0.8515
 1577SOL     ow 6305   6.930   5.297   5.580 -0.4499  0.2118  0.2883
 1577SOL     hw 6306   6.945   5.220   5.636  0.6772 -0.6017 -1.0545
 1577SOL     hw 6307   6.986   5.365   5.617  1.0159 -0.5989 -0.3107
 1577SOL     vw 6308   6.939   5.296   5.592 -0.1075 -0.0026  0.0319
 1578SOL     ow 6309   4.833   1.323   4.687  0.6237  0.5768  0.3505
 1578SOL     hw 6310   4.854   1.239   4.647 -1.2073  0.4285 -0.4256
 1578SOL     hw 6311   4.881   1.323   4.770 -0.2428 -1.7822  0.9425
 1578SOL     vw 6312   4.842   1.312   4.693  0.2680  0.2460  0.3262
 1579SOL     ow 6313   1.819   2.414   4.173  0.4466 -0.2950  0.3658
 1579SOL     hw 6314   1.797   2.382   4.261 -2.1858  1.2359  0.3783
 1579SOL     hw 6315   1.795   2.506   4.175 -0.6042 -0.4394 -2.2588
 1579SOL     vw 6316   1.813   2.422   4.185 -0.0393 -0.1122  0.0212
 1580SOL     ow 6317   6.093   3.430   2.063 -0.2715  0.4570 -0.0914
 1580SOL     hw 6318   6.074   3.487   1.989  0.3668 -0.1635 -0.7529
 1580SOL     hw 6319   6.188   3.422   2.063 -0.3892 -1.3813 -0.6328
 1580SOL     vw 6320   6.103   3.436   2.053 -0.2029  0.1326 -0.2501
 1581SOL     ow 6321   0.137   5.533   1.466  0.2561  0.7235  0.1481
 1581SOL     hw 6322   0.084   5.454   1.468 -0.5236  1.0787 -2.5313
 1581SOL     hw 6323   0.150   5.550   1.373  1.0795  3.3016  0.6694
 1581SOL     vw 6324   0.132   5.525   1.454  0.2619  1.1108 -0.1366
 1582SOL     ow 6325   0.405   1.221   0.719  0.0523  0.3784 -0.7486
 1582SOL     hw 6326   0.488   1.222   0.767  0.3165 -2.2448 -0.9820
 1582SOL     hw 6327   0.341   1.192   0.785 -0.6517  2.0455 -0.6597
 1582SOL     vw 6328   0.407   1.217   0.734 -0.0057  0.2523 -0.7677
 1583SOL     ow 6329   1.600   2.373   2.968  0.2805 -0.2377 -0.1327
 1583SOL     hw 6330   1.660   2.386   2.895  2.7997  2.0545  2.1333
 1583SOL     hw 6331   1.641   2.306   3.021  0.2532  0.5032  0.8459
 1583SOL     vw 6332   1.613   2.366   2.965  0.6093  0.1624  0.2954
 1584SOL     ow 6333   2.731   3.025   1.198  0.8605  0.0067  0.2214
 1584SOL     hw 6334   2.806   3.025   1.258  1.8109 -1.9010 -0.8788
 1584SOL     hw 6335   2.655   3.036   1.255  1.8795  0.6618  1.5122
 1584SOL     vw 6336   2.731   3.026   1.213  1.1203 -0.1587  0.2465
 1585SOL     ow 6337   6.859   0.561   6.092  0.7816 -0.2639 -0.0122
 1585SOL     hw 6338   6.814   0.604   6.019  2.1719 -2.4390 -2.2844
 1585SOL     hw 6339   6.793   0.557   6.161 -0.1528  3.1838 -0.4829
 1585SOL     vw 6340   6.844   0.566   6.092  0.8416 -0.0960 -0.3738
 1586SOL     ow 6341   4.732   1.032   0.654 -0.1266  0.8462  0.9737
 1586SOL     hw 6342   4.818   1.059   0.622 -0.0843 -1.2143 -0.8866
 1586SOL     hw 6343   4.679   1.112   0.652  1.2636  1.7969  0.5029
 1586SOL     vw 6344   4.736   1.046   0.650  0.0625  0.6998  0.6662
 1587SOL     ow 6345   3.457   3.615   2.184  0.6252  0.6117 -0.0055
 1587SOL     hw 6346   3.494   3.560   2.253 -2.8524 -0.5058  1.1843
 1587SOL     hw 6347   3.458   3.559   2.106  1.9924  0.8715 -0.2010
 1587SOL     vw 6348   3.462   3.600   2.182  0.3467  0.4985  0.1256
 1588SOL     ow 6349   5.441   3.470   0.931 -0.3314  0.0609  0.7553
 1588SOL     hw 6350   5.523   3.466   0.882 -0.8097  0.5234 -0.1031
 1588SOL     hw 6351   5.377   3.425   0.876 -0.9443  0.8348  0.8158
 1588SOL     vw 6352   5.443   3.464   0.917 -0.4752  0.2239  0.6500
 1589SOL     ow 6353   5.272   7.068   7.109 -0.0563 -0.2236  0.0317
 1589SOL     hw 6354   5.330   7.142   7.094  0.8992 -1.2063 -1.3165
 1589SOL     hw 6355   5.327   7.005   7.157  0.0716 -1.2193 -1.3859
 1589SOL     vw 6356   5.287   7.069   7.114  0.0865 -0.4847 -0.3331
 1590SOL     ow 6357   0.147   0.865   1.300  0.3231 -0.4971  0.5393
 1590SOL     hw 6358   0.163   0.771   1.289  2.0261 -0.2336  0.3916
 1590SOL     hw 6359   0.128   0.897   1.211 -1.3461 -0.8519  0.7430
 1590SOL     vw 6360   0.147   0.857   1.287  0.3275 -0.5091  0.5467
 1591SOL     ow 6361   1.501   5.261   1.746 -0.1851 -0.4134  0.3417
 1591SOL     hw 6362   1.581   5.295   1.786  0.0539 -1.5857  0.8889
 1591SOL     hw 6363   1.470   5.194   1.807  0.0049 -2.0192 -1.2400
 1591SOL     vw 6364   1.507   5.257   1.760 -0.1286 -0.7796  0.2052
 1592SOL     ow 6365   2.576   4.442   4.721 -0.4314  0.3990 -0.8415
 1592SOL     hw 6366   2.612   4.355   4.702  1.2624  0.0984  2.7671
 1592SOL     hw 6367   2.535   4.432   4.807 -0.6849  3.0171 -0.5813
 1592SOL     vw 6368   2.576   4.429   4.730 -0.2413  0.7050 -0.3309
 1593SOL     ow 6369   0.832   2.492   6.083 -0.4620 -0.0448 -0.8456
 1593SOL     hw 6370   0.837   2.445   6.000  1.2179 -1.2447 -0.1193
 1593SOL     hw 6371   0.909   2.549   6.083 -2.3705  2.7469 -1.6396
 1593SOL     vw 6372   0.843   2.493   6.072 -0.4921  0.1653 -0.8545
 1594SOL     ow 6373   5.110   6.880   1.129 -0.2360 -0.4204 -0.0646
 1594SOL     hw 6374   5.015   6.874   1.120 -0.2153 -0.2216 -0.4367
 1594SOL     hw 6375   5.126   6.972   1.150 -0.1985 -0.6605  0.9738
 1594SOL     vw 6376   5.100   6.891   1.130 -0.2282 -0.4256  0.0234
 1595SOL     ow 6377   2.370   5.035   3.783 -0.0459 -0.6365  0.1790
 1595SOL     hw 6378   2.460   5.055   3.811 -0.5720 -0.3767  1.7657
 1595SOL     hw 6379   2.381   4.982   3.704  1.4892  0.0280 -0.0917
 1595SOL     vw 6380   2.383   5.031   3.776  0.0874 -0.5145  0.3527
 1596SOL     ow 6381   2.585   3.720   5.818  0.5713 -0.0878 -0.3300
 1596SOL     hw 6382   2.668   3.769   5.818  0.6890 -0.1817  1.7538
 1596SOL     hw 6383   2.527   3.770   5.761  1.5159  0.9829 -0.3861
 1596SOL     vw 6384   2.589   3.733   5.811  0.7113  0.0411 -0.0625
 1597SOL     ow 6385   3.316   6.270   6.758  0.0615 -0.1230  1.0658
 1597SOL     hw 6386   3.304   6.199   6.694  0.7436  0.8952 -0.2224
 1597SOL     hw 6387   3.404   6.303   6.741 -0.1232  0.8200  1.8784
 1597SOL     vw 6388   3.326   6.265   6.747  0.1272  0.1361  1.0028
 1598SOL     ow 6389   6.946   5.867   4.426 -0.2132  0.0781 -0.2991
 1598SOL     hw 6390   6.892   5.813   4.367 -0.9222 -3.5241  3.1757
 1598SOL     hw 6391   6.886   5.894   4.496  1.0778  2.0699  0.1182
 1598SOL     vw 6392   6.931   5.863   4.428 -0.1364 -0.1340  0.2143
 1599SOL     ow 6393   3.515   6.292   6.075  0.5251 -0.5718  0.2409
 1599SOL     hw 6394   3.449   6.361   6.082  1.1816  0.1115 -0.1499
 1599SOL     hw 6395   3.541   6.293   5.982  1.4871 -0.4324  0.4953
 1599SOL     vw 6396   3.510   6.301   6.064  0.7387 -0.4630  0.2227
 1600SOL     ow 6397   1.692   1.125   2.681 -0.1065 -0.0014  0.3893
 1600SOL     hw 6398   1.717   1.035   2.660  3.8711  0.7819  0.9753
 1600SOL     hw 6399   1.672   1.165   2.596  1.3884 -0.6068 -0.2644
 1600SOL     vw 6400   1.692   1.118   2.667  0.6156  0.0221  0.3805
 1601SOL     ow 6401   7.198   6.016   2.211 -0.1036  0.2347  0.5474
 1601SOL     hw 6402   7.106   6.040   2.210 -0.0999  0.2429  0.2503
 1601SOL     hw 6403   7.203   5.940   2.270 -0.2026  0.5957  1.0285
 1601SOL     vw 6404   7.187   6.009   2.219 -0.1161  0.2835  0.5717
 1602SOL     ow 6405   5.729   6.463   0.293  0.0671 -0.1236  0.1272
 1602SOL     hw 6406   5.768   6.471   0.206  0.9199 -1.5573  0.3564
 1602SOL     hw 6407   5.799   6.487   0.353 -1.2693  3.6082  0.4459
 1602SOL     vw 6408   5.743   6.467   0.289  0.0033  0.1800  0.1995
 1603SOL     ow 6409   0.205   3.590   6.284 -0.2636 -0.6477  0.3171
 1603SOL     hw 6410   0.284   3.539   6.302 -0.7788 -1.1900  1.1228
 1603SOL     hw 6411   0.236   3.663   6.231  0.9569 -0.2938  1.4543
 1603SOL     vw 6412   0.220   3.593   6.280 -0.1706 -0.6725  0.5734
 1604SOL     ow 6413   6.040   4.217   0.119 -0.4200 -0.6273 -0.2451
 1604SOL     hw 6414   6.051   4.240   0.211 -0.6477  0.4723 -0.4790
 1604SOL     hw 6415   6.089   4.135   0.109 -0.1577 -0.6161  0.7774
 1604SOL     vw 6416   6.048   4.209   0.130 -0.4151 -0.4811 -0.1410
 1605SOL     ow 6417   3.180   5.119   4.998  0.1508 -0.4453 -0.0809
 1605SOL     hw 6418   3.269   5.116   5.032  1.1789  1.8858 -2.2490
 1605SOL     hw 6419   3.155   5.211   5.003 -0.6129 -0.3992 -3.0340
 1605SOL     vw 6420   3.188   5.130   5.003  0.1857 -0.1314 -0.7565
 1606SOL     ow 6421   4.092   3.005   5.798  0.6957  0.2297 -0.8633
 1606SOL     hw 6422   4.034   2.993   5.723 -1.6956  2.2664  0.4692
 1606SOL     hw 6423   4.139   3.086   5.780  2.0302 -0.6021 -1.2388
 1606SOL     vw 6424   4.090   3.014   5.786  0.5562  0.3887 -0.7372
 1607SOL     ow 6425   6.658   3.803   0.449 -0.3652 -0.1505  0.1800
 1607SOL     hw 6426   6.619   3.770   0.368 -3.2532  0.7454  1.0982
 1607SOL     hw 6427   6.723   3.737   0.473 -1.7648 -2.1068 -1.1276
 1607SOL     vw 6428   6.662   3.790   0.441 -0.9310 -0.2906  0.1286
 1608SOL     ow 6429   2.916   1.293   7.240  0.4149 -0.1490  0.1361
 1608SOL     hw 6430   2.910   1.216   7.296  1.9179 -0.5179 -0.1695
 1608SOL     hw 6431   2.843   1.285   7.179  1.5511 -2.3124 -1.0659
 1608SOL     vw 6432   2.906   1.282   7.240  0.7631 -0.4830 -0.0629
 1609SOL     ow 6433   1.109   0.269   3.689  0.1782  0.1880 -0.7072
 1609SOL     hw 6434   1.015   0.278   3.708  0.2940  0.5297 -0.2705
 1609SOL     hw 6435   1.144   0.357   3.698  1.0673 -0.3560  2.1318
 1609SOL     vw 6436   1.101   0.282   3.693  0.3107  0.1613 -0.2751
 1610SOL     ow 6437   4.298   1.328   4.803 -0.2664 -0.0576 -0.6895
 1610SOL     hw 6438   4.282   1.233   4.808 -0.5903 -0.0172 -0.9516
 1610SOL     hw 6439   4.214   1.367   4.827  0.0265  0.1700 -0.0090
 1610SOL     vw 6440   4.285   1.320   4.807 -0.2704 -0.0222 -0.6342
 1611SOL     ow 6441   6.709   0.016   1.621 -0.1938  0.2744  0.0796
 1611SOL     hw 6442   6.663   0.070   1.686 -3.2489 -1.5434 -0.3582
 1611SOL     hw 6443   6.700   0.065   1.539  3.0065  2.2014  0.7060
 1611SOL     vw 6444   6.702   0.029   1.618 -0.1745  0.2887  0.1045
 1612SOL     ow 6445   7.214   2.822   5.457 -0.1694 -0.7451 -0.3424
 1612SOL     hw 6446   7.161   2.807   5.379  1.0897 -2.3046 -0.9436
 1612SOL     hw 6447   7.298   2.854   5.423  0.3566 -1.3509  0.3662
 1612SOL     vw 6448   7.218   2.824   5.442  0.0658 -1.0308 -0.3283
 1613SOL     ow 6449   5.771   6.800   6.743 -0.2987  0.2666 -0.0626
 1613SOL     hw 6450   5.772   6.705   6.754 -1.2615  0.2179 -0.3520
 1613SOL     hw 6451   5.836   6.832   6.806 -0.2882 -0.5522  0.3509
 1613SOL     vw 6452   5.780   6.792   6.753 -0.4246  0.1523 -0.0465
 1614SOL     ow 6453   1.760   5.782   1.143  0.1284  0.1716  0.0274
 1614SOL     hw 6454   1.806   5.821   1.217  1.3851 -0.6395 -0.2971
 1614SOL     hw 6455   1.770   5.846   1.072 -2.9045  1.9816  1.0261
 1614SOL     vw 6456   1.767   5.795   1.144 -0.1059  0.3033  0.1163
 1615SOL     ow 6457   1.934   3.512   6.177 -0.0239 -0.6577  0.1971
 1615SOL     hw 6458   2.018   3.558   6.177 -0.7189  0.7293  2.1519
 1615SOL     hw 6459   1.951   3.432   6.226  0.2660 -0.6041  0.1886
 1615SOL     vw 6460   1.948   3.507   6.183 -0.0773 -0.4677  0.4539
 1616SOL     ow 6461   6.658   0.108   0.029 -0.6804 -0.3168  1.0339
 1616SOL     hw 6462   6.609   0.061  -0.039  0.3919  0.8518 -0.6217
 1616SOL     hw 6463   6.632   0.200   0.018  1.2901  0.2297  0.5616
 1616SOL     vw 6464   6.648   0.114   0.019 -0.2792 -0.0905  0.7532
 1617SOL     ow 6465   5.288   4.710   5.965 -0.0513 -0.9414 -0.0232
 1617SOL     hw 6466   5.220   4.750   6.020  0.0073 -3.6091  2.2701
 1617SOL     hw 6467   5.363   4.768   5.973 -1.1151  0.4815 -0.0803
 1617SOL     vw 6468   5.289   4.723   5.974 -0.1841 -1.1055  0.2718
 1618SOL     ow 6469   0.062   6.340   2.971 -0.3162  0.0978 -0.1684
 1618SOL     hw 6470   0.072   6.303   2.883  1.4553  0.6772 -0.2538
 1618SOL     hw 6471   0.128   6.294   3.023 -0.3959  0.7651  0.5247
 1618SOL     vw 6472   0.072   6.329   2.966 -0.0930  0.2623 -0.0882
 1619SOL     ow 6473   3.124   2.831   0.892 -0.3383 -0.1358  0.0628
 1619SOL     hw 6474   3.163   2.786   0.817 -0.5785  1.0011 -0.7823
 1619SOL     hw 6475   3.097   2.916   0.857 -0.2441  0.5156  1.5015
 1619SOL     vw 6476   3.126   2.836   0.877 -0.3576  0.1003  0.1411
 1620SOL     ow 6477   4.521   6.628   3.504  0.3390  0.0083 -0.0372
 1620SOL     hw 6478   4.616   6.614   3.500  0.2578 -1.2632  1.2275
 1620SOL     hw 6479   4.504   6.703   3.448  2.1742  0.6147  0.1739
 1620SOL     vw 6480   4.531   6.636   3.496  0.5701 -0.0794  0.1575
 1621SOL     ow 6481   4.954   2.109   7.171  0.6053 -0.9302  0.8461
 1621SOL     hw 6482   4.950   2.063   7.088 -0.4909  1.8347 -0.7915
 1621SOL     hw 6483   4.863   2.134   7.190  1.0237 -0.2386  2.0874
 1621SOL     vw 6484   4.941   2.107   7.163  0.5157 -0.4742  0.7939
 1622SOL     ow 6485   6.889   3.213   6.973 -0.0361 -0.2266 -0.2902
 1622SOL     hw 6486   6.865   3.133   6.928  3.3448 -1.4265 -0.2267
 1622SOL     hw 6487   6.873   3.195   7.066  2.0406 -1.4693 -0.1197
 1622SOL     vw 6488   6.884   3.200   6.980  0.6840 -0.5488 -0.2592
 1623SOL     ow 6489   0.800   5.112   6.996 -0.0936  0.2290 -0.0104
 1623SOL     hw 6490   0.788   5.174   6.925  1.7044 -0.1699 -0.7100
 1623SOL     hw 6491   0.873   5.057   6.968  1.5567  0.8519  2.6745
 1623SOL     vw 6492   0.808   5.113   6.983  0.3614  0.2584  0.2518
 1624SOL     ow 6493   6.003   0.166   3.375  0.0084  0.2687  0.2956
 1624SOL     hw 6494   5.948   0.230   3.418  0.5573  1.1239 -0.2368
 1624SOL     hw 6495   6.084   0.165   3.427 -0.2833 -0.5884  0.7628
 1624SOL     vw 6496   6.007   0.174   3.388  0.0424  0.2685  0.2871
 1625SOL     ow 6497   3.663   3.513   6.327 -0.0884  0.7381  0.1127
 1625SOL     hw 6498   3.701   3.570   6.259 -0.1182  1.2508  0.5185
 1625SOL     hw 6499   3.676   3.562   6.408  2.1356 -0.9120  0.8510
 1625SOL     vw 6500   3.670   3.527   6.328  0.2011  0.5881  0.2635
 1626SOL     ow 6501   0.062   3.001   2.566  0.1251 -0.1910 -0.2727
 1626SOL     hw 6502   0.094   2.911   2.557  2.0590  0.5154 -0.9454
 1626SOL     hw 6503   0.064   3.017   2.660 -2.8392 -1.6692  0.1678
 1626SOL     vw 6504   0.067   2.991   2.577 -0.0107 -0.2928 -0.3033
 1627SOL     ow 6505   4.402   0.569   6.813 -0.3728 -0.4423  0.7307
 1627SOL     hw 6506   4.420   0.507   6.742  0.1047  0.7009 -0.1954
 1627SOL     hw 6507   4.318   0.609   6.789 -0.2629 -0.1294  0.8585
 1627SOL     vw 6508   4.393   0.566   6.800 -0.2949 -0.2502  0.6251
 1628SOL     ow 6509   5.053   7.159   1.258 -0.2376 -0.1577  0.5235
 1628SOL     hw 6510   4.969   7.190   1.224 -0.1254 -0.9953 -0.5787
 1628SOL     hw 6511   5.100   7.238   1.283 -1.3331  0.3247  1.1120
 1628SOL     vw 6512   5.048   7.173   1.257 -0.3676 -0.2048  0.4558
 1629SOL     ow 6513   0.309   1.521   3.125 -0.1546  0.0552 -0.4295
 1629SOL     hw 6514   0.217   1.507   3.145 -0.4608  0.6503 -1.3647
 1629SOL     hw 6515   0.329   1.607   3.162  0.2814 -0.4562  0.5668
 1629SOL     vw 6516   0.300   1.530   3.133 -0.1375  0.0662 -0.4215
 1630SOL     ow 6517   5.403   1.785   2.817 -0.1520  0.0429 -0.0846
 1630SOL     hw 6518   5.419   1.863   2.764  0.7013  2.2279  3.0571
 1630SOL     hw 6519   5.483   1.775   2.869 -1.3642 -1.1331  1.6636
 1630SOL     vw 6520   5.415   1.794   2.817 -0.1993  0.1760  0.5605
 1631SOL     ow 6521   6.419   6.461   6.716  0.4337  0.1991  0.2085
 1631SOL     hw 6522   6.441   6.545   6.755  1.5199 -0.2107  0.5193
 1631SOL     hw 6523   6.455   6.465   6.627 -0.0786  0.3016  0.0044
 1631SOL     vw 6524   6.427   6.472   6.709  0.5095  0.1583  0.2227
 1632SOL     ow 6525   2.115   2.109   3.940 -0.6277  0.1917 -0.1237
 1632SOL     hw 6526   2.170   2.094   3.863 -0.7405  0.5037 -0.2659
 1632SOL     hw 6527   2.116   2.025   3.986 -0.0844  0.1717 -0.1589
 1632SOL     vw 6528   2.122   2.096   3.936 -0.5709  0.2302 -0.1471
 1633SOL     ow 6529   0.813   3.588   5.172 -0.5935 -0.0541  0.2118
 1633SOL     hw 6530   0.897   3.562   5.209  0.1781 -2.1794 -2.6870
 1633SOL     hw 6531   0.801   3.679   5.200  0.8144 -0.8334  3.7425
 1633SOL     vw 6532   0.822   3.597   5.180 -0.3060 -0.4374  0.2954
 1634SOL     ow 6533   3.425   2.445   5.023 -0.1818  0.0577  0.4601
 1634SOL     hw 6534   3.394   2.471   5.110 -3.3160  2.9631 -1.3152
 1634SOL     hw 6535   3.348   2.450   4.967  1.6547 -1.9556 -2.5137
 1634SOL     vw 6536   3.411   2.449   5.027 -0.3532  0.1754 -0.1664
 1635SOL     ow 6537   3.903   0.815   5.443 -0.7761  0.6606  0.1032
 1635SOL     hw 6538   3.913   0.879   5.372  1.3850  0.9808  0.6261
 1635SOL     hw 6539   3.882   0.868   5.520  0.0738  0.6821  0.3362
 1635SOL     vw 6540   3.902   0.831   5.444 -0.3787  0.7057  0.2029
 1636SOL     ow 6541   2.007   2.391   4.764  0.2910 -0.1727  0.5306
 1636SOL     hw 6542   1.954   2.467   4.739  0.3899 -0.0205  0.7792
 1636SOL     hw 6543   1.974   2.320   4.709 -0.6992 -0.2717  1.2345
 1636SOL     vw 6544   1.996   2.392   4.753  0.1733 -0.1658  0.6561
 1637SOL     ow 6545   5.982   6.133   2.384 -0.0320  0.5188 -0.0936
 1637SOL     hw 6546   6.033   6.073   2.330 -1.5452 -0.2199 -0.7466
 1637SOL     hw 6547   6.047   6.193   2.421  1.5002 -1.3025  0.3295
 1637SOL     vw 6548   5.998   6.133   2.382 -0.0296  0.1810 -0.1240
 1638SOL     ow 6549   2.681   4.282   6.702  0.1942  0.1629  0.0747
 1638SOL     hw 6550   2.692   4.375   6.720  1.0613  0.2675 -0.9208
 1638SOL     hw 6551   2.603   4.257   6.752  0.0838  1.3629  0.5307
 1638SOL     vw 6552   2.672   4.291   6.711  0.2939  0.3352  0.0036
 1639SOL     ow 6553   1.146   1.390   4.951 -0.3253  0.4720 -0.1414
 1639SOL     hw 6554   1.210   1.341   4.899  0.5273  1.3362  0.0623
 1639SOL     hw 6555   1.062   1.373   4.909 -0.1961 -1.8662  0.4368
 1639SOL     vw 6556   1.144   1.381   4.939 -0.1958  0.2775 -0.0384
 1640SOL     ow 6557   0.308   0.430   2.074  0.0202 -0.5719  0.4225
 1640SOL     hw 6558   0.247   0.466   2.010 -0.8292 -0.8387  1.0731
 1640SOL     hw 6559   0.279   0.464   2.158  0.5974 -0.9254  0.7740
 1640SOL     vw 6560   0.296   0.439   2.077 -0.0157 -0.6537  0.5547
 1641SOL     ow 6561   4.949   7.253   0.080  0.3475  0.7263  0.5167
 1641SOL     hw 6562   4.976   7.326   0.136  2.8033 -1.0194  1.8234
 1641SOL     hw 6563   4.948   7.177   0.139  2.1466 -1.0434 -1.5431
 1641SOL     vw 6564   4.952   7.253   0.095  0.9091  0.2625  0.4173
 1642SOL     ow 6565   4.175   2.402   1.554 -0.7760 -0.4912  0.3835
 1642SOL     hw 6566   4.178   2.494   1.530 -1.9428 -0.6225 -0.3486
 1642SOL     hw 6567   4.259   2.385   1.595 -0.6780  0.9803  0.8454
 1642SOL     vw 6568   4.186   2.412   1.556 -0.9170 -0.3145  0.3479
 1643SOL     ow 6569   3.542   1.933   6.841  0.0999 -0.7264 -0.2464
 1643SOL     hw 6570   3.517   2.009   6.789  2.6900  0.6186  0.3034
 1643SOL     hw 6571   3.476   1.929   6.910  0.3817  1.6553  0.2560
 1643SOL     vw 6572   3.530   1.943   6.843  0.4787 -0.2347 -0.1078
 1644SOL     ow 6573   6.166   6.626   5.844 -0.0093  0.1575 -0.5581
 1644SOL     hw 6574   6.076   6.647   5.869  0.3506  1.2734 -0.1735
 1644SOL     hw 6575   6.175   6.533   5.867 -1.4513 -0.3393 -1.7941
 1644SOL     vw 6576   6.155   6.616   5.850 -0.1521  0.2391 -0.6704
 1645SOL     ow 6577   2.255   5.831   2.614  0.6066  0.0724  0.4772
 1645SOL     hw 6578   2.275   5.739   2.597 -0.1048 -0.0623  0.3556
 1645SOL     hw 6579   2.318   5.879   2.560 -0.3459 -0.3475 -1.0520
 1645SOL     vw 6580   2.266   5.825   2.605  0.3871 -0.0007  0.2594
 1646SOL     ow 6581   3.226   2.009   4.521  0.0585  0.3007 -0.4090
 1646SOL     hw 6582   3.156   1.960   4.563 -0.9574  3.1237  1.4617
 1646SOL     hw 6583   3.181   2.070   4.463  1.2078 -0.0102 -1.6827
 1646SOL     vw 6584   3.211   2.010   4.519  0.0761  0.6320 -0.3302
 1647SOL     ow 6585   0.598   4.836   1.843  0.6620 -0.3561 -0.1150
 1647SOL     hw 6586   0.672   4.803   1.793  1.3859  0.0978  0.6279
 1647SOL     hw 6587   0.545   4.884   1.780  1.0007 -0.6873 -0.6574
 1647SOL     vw 6588   0.601   4.838   1.828  0.8022 -0.3402 -0.0886
 1648SOL     ow 6589   6.006   5.693   4.972  0.1370 -1.1328  0.4175
 1648SOL     hw 6590   5.982   5.748   5.046  1.1257  3.0241 -2.0186
 1648SOL     hw 6591   6.099   5.675   4.984 -0.1504 -2.2982  1.1271
 1648SOL     vw 6592   6.015   5.698   4.983  0.2296 -0.7384  0.1898
 1649SOL     ow 6593   3.195   1.063   1.199  0.0709 -0.1826  0.8510
 1649SOL     hw 6594   3.259   1.100   1.261 -0.7532  1.6340  0.6951
 1649SOL     hw 6595   3.112   1.067   1.246 -0.2909 -0.3610  0.2353
 1649SOL     vw 6596   3.193   1.068   1.214 -0.0855  0.0336  0.7491
 1650SOL     ow 6597   0.322   1.665   2.745 -0.3010 -0.0400 -0.0355
 1650SOL     hw 6598   0.311   1.712   2.662  1.8848  1.8254  0.6329
 1650SOL     hw 6599   0.268   1.714   2.808  2.3876  2.1534  0.7813
 1650SOL     vw 6600   0.313   1.678   2.743  0.3421  0.4954  0.1605
 1651SOL     ow 6601   7.057   0.271   5.264  0.0502  0.0728 -0.2665
 1651SOL     hw 6602   7.016   0.185   5.258 -0.6417  0.3947 -0.2925
 1651SOL     hw 6603   7.151   0.253   5.268 -0.1412 -0.7619  1.2225
 1651SOL     vw 6604   7.064   0.258   5.264 -0.0663  0.0051 -0.0734
 1652SOL     ow 6605   0.893   1.598   4.425  0.0548 -0.2957 -0.4233
 1652SOL     hw 6606   0.959   1.590   4.356  0.9723  0.5466  0.3317
 1652SOL     hw 6607   0.822   1.541   4.396 -0.0873  0.8798 -2.6380
 1652SOL     vw 6608   0.892   1.590   4.412  0.1571 -0.0294 -0.6161
 1653SOL     ow 6609   5.018   0.035   6.482 -0.5385  0.5096 -0.0644
 1653SOL     hw 6610   5.020   0.120   6.525 -1.1103  0.9021 -0.7942
 1653SOL     hw 6611   4.950  -0.014   6.528  0.9500 -0.2097  1.5052
 1653SOL     vw 6612   5.010   0.040   6.494 -0.4172  0.4665  0.0463
 1654SOL     ow 6613   1.449   3.090   2.471 -0.2263 -0.7743 -0.2093
 1654SOL     hw 6614   1.359   3.066   2.492  0.5507 -1.5922  2.4662
 1654SOL     hw 6615   1.496   3.084   2.553  1.9289  1.4956 -1.1302
 1654SOL     vw 6616   1.443   3.086   2.484  0.1606 -0.5828  0.0223
 1655SOL     ow 6617   7.234   3.933   1.466  0.3610 -0.0105  0.8416
 1655SOL     hw 6618   7.265   3.997   1.401  0.2365  0.0956  0.8859
 1655SOL     hw 6619   7.305   3.926   1.529  0.8946 -0.8512  0.1680
 1655SOL     vw 6620   7.247   3.941   1.466  0.4148 -0.1074  0.7585
 1656SOL     ow 6621   4.638   1.098   5.559  0.3887 -0.4951 -0.3678
 1656SOL     hw 6622   4.644   1.065   5.649 -2.3791 -0.1732  0.0108
 1656SOL     hw 6623   4.652   1.192   5.567  1.3024 -0.6157 -0.4608
 1656SOL     vw 6624   4.641   1.106   5.572  0.1440 -0.4686 -0.3300
 1657SOL     ow 6625   6.090   4.353   3.171 -0.4907 -0.3298  0.0794
 1657SOL     hw 6626   6.022   4.383   3.231  0.6949  0.3486  1.1049
 1657SOL     hw 6627   6.054   4.370   3.084 -1.6445 -0.0291  0.5968
 1657SOL     vw 6628   6.076   4.359   3.167 -0.4864 -0.2003  0.2830
 1658SOL     ow 6629   4.728   4.107   6.224 -0.1127 -0.4984  0.1717
 1658SOL     hw 6630   4.732   4.082   6.316 -0.7381 -0.9941  0.0694
 1658SOL     hw 6631   4.749   4.201   6.223  1.0520 -0.7320  0.6850
 1658SOL     vw 6632   4.731   4.116   6.236 -0.0420 -0.5946  0.2258
 1659SOL     ow 6633   0.451   2.307   1.977  1.0395  0.9196  0.4631
 1659SOL     hw 6634   0.372   2.290   1.926  1.3147  0.5097  0.1655
 1659SOL     hw 6635   0.419   2.339   2.062  0.5287  0.0662  0.6080
 1659SOL     vw 6636   0.436   2.309   1.982  1.0084  0.7529  0.4430
 1660SOL     ow 6637   3.057   0.307   1.312  0.3841  0.6318  0.2518
 1660SOL     hw 6638   3.139   0.274   1.350 -0.0768 -0.3197  0.4498
 1660SOL     hw 6639   3.078   0.396   1.282  1.4870  0.3921  0.2844
 1660SOL     vw 6640   3.070   0.315   1.313  0.4689  0.4747  0.2822
 1661SOL     ow 6641   6.065   5.524   4.745 -0.1273  0.3181  0.1359
 1661SOL     hw 6642   6.063   5.429   4.734 -0.3734  0.2244  0.9600
 1661SOL     hw 6643   6.102   5.557   4.663  4.8582 -0.7792  1.6116
 1661SOL     vw 6644   6.070   5.516   4.732  0.4978  0.1612  0.4394
 1662SOL     ow 6645   7.051   6.371   2.127  0.0337  0.3664 -0.2482
 1662SOL     hw 6646   6.978   6.377   2.065  0.7329  0.2590 -1.1083
 1662SOL     hw 6647   7.039   6.445   2.186 -0.2862  0.8730 -0.9328
 1662SOL     vw 6648   7.040   6.382   2.127  0.0837  0.4194 -0.4520
 1663SOL     ow 6649   2.446   5.331   1.802 -0.1697  0.2565  0.2959
 1663SOL     hw 6650   2.511   5.305   1.867 -1.2297  0.8663  1.6496
 1663SOL     hw 6651   2.448   5.261   1.737  0.5846 -0.6251  1.2211
 1663SOL     vw 6652   2.455   5.319   1.802 -0.2102  0.2203  0.5966
 1664SOL     ow 6653   3.577   3.381   6.690  0.0233 -0.3933  0.2355
 1664SOL     hw 6654   3.513   3.385   6.762 -1.1859  1.0614 -0.8369
 1664SOL     hw 6655   3.634   3.456   6.704 -2.5217  2.2662 -2.2223
 1664SOL     vw 6656   3.576   3.391   6.701 -0.4719  0.1495 -0.2303
 1665SOL     ow 6657   2.629   0.333   1.184 -0.1552  0.4231 -0.0463
 1665SOL     hw 6658   2.583   0.252   1.164  1.2473 -1.1751  2.6255
 1665SOL     hw 6659   2.704   0.334   1.126  0.1010 -0.5071  0.2515
 1665SOL     vw 6660   2.633   0.323   1.174  0.0635  0.0895  0.3455
 1666SOL     ow 6661   4.830   4.470   4.633  0.7499 -0.1280  0.0247
 1666SOL     hw 6662   4.897   4.471   4.564  1.1211  0.4144  0.3837
 1666SOL     hw 6663   4.869   4.415   4.702  1.4809  1.3606  0.8517
 1666SOL     vw 6664   4.844   4.463   4.633  0.8955  0.1400  0.1812
 1667SOL     ow 6665   2.756   0.418   1.426 -0.1926 -0.7844 -0.0192
 1667SOL     hw 6666   2.700   0.432   1.503  2.2128 -1.1197  1.9384
 1667SOL     hw 6667   2.695   0.415   1.352 -3.0230 -3.2170  2.1151
 1667SOL     vw 6668   2.740   0.419   1.427 -0.2487 -1.1496  0.5206
 1668SOL     ow 6669   3.542   0.517   7.063 -0.0312  0.6469 -0.3343
 1668SOL     hw 6670   3.504   0.443   7.015 -0.5494  0.5689  0.1781
 1668SOL     hw 6671   3.489   0.523   7.143 -1.6943  3.1711 -1.4861
 1668SOL     vw 6672   3.530   0.508   7.067 -0.3190  0.9697 -0.4184
 1669SOL     ow 6673   5.109   2.982   0.702 -0.1486 -0.6829  0.0125
 1669SOL     hw 6674   5.056   2.979   0.782 -0.2510 -0.0015 -0.0199
 1669SOL     hw 6675   5.179   3.045   0.722  0.1279 -0.9076 -0.2519
 1669SOL     vw 6676   5.111   2.990   0.715 -0.1254 -0.6227 -0.0266
 1670SOL     ow 6677   6.405   6.568   1.458 -0.4250  0.1810  1.0024
 1670SOL     hw 6678   6.365   6.654   1.457  0.9152  0.9296 -2.4804
 1670SOL     hw 6679   6.343   6.512   1.411  0.6067  0.3823 -0.6995
 1670SOL     vw 6680   6.392   6.572   1.452 -0.1121  0.3066  0.3183
 1671SOL     ow 6681   6.103   6.691   3.493  0.0439 -0.0344  0.0017
 1671SOL     hw 6682   6.154   6.632   3.550 -0.2081 -1.3753 -1.1120
 1671SOL     hw 6683   6.165   6.719   3.426  0.0422  0.6379  0.2698
 1671SOL     vw 6684   6.118   6.687   3.492  0.0103 -0.1228 -0.1099
 1672SOL     ow 6685   2.836   0.425   3.869 -1.3362 -0.0561  0.3691
 1672SOL     hw 6686   2.797   0.342   3.841  0.3772 -1.0251  0.6680
 1672SOL     hw 6687   2.843   0.476   3.789 -0.0648 -1.2536 -0.3292
 1672SOL     vw 6688   2.832   0.421   3.855 -0.9423 -0.3420  0.3164
 1673SOL     ow 6689   7.119   2.172   1.227  0.1898 -0.2814  0.1621
 1673SOL     hw 6690   7.028   2.192   1.202 -0.0704  0.5232  1.6455
 1673SOL     hw 6691   7.166   2.254   1.216  0.4855 -0.4043  0.4992
 1673SOL     vw 6692   7.113   2.185   1.222  0.1943 -0.1913  0.4022
 1674SOL     ow 6693   1.088   1.927   5.526  0.1997  0.0959 -0.3046
 1674SOL     hw 6694   1.162   1.867   5.540 -0.8558 -0.9717  1.0726
 1674SOL     hw 6695   1.071   1.963   5.613 -2.3531 -1.5111 -0.0239
 1674SOL     vw 6696   1.096   1.924   5.540 -0.2764 -0.2570 -0.0854
 1675SOL     ow 6697   5.179   4.171   1.718 -0.5889  0.1007  0.0909
 1675SOL     hw 6698   5.173   4.155   1.624 -0.6699  1.2164 -0.1046
 1675SOL     hw 6699   5.092   4.200   1.743 -0.5548 -0.1439  0.5093
 1675SOL     vw 6700   5.167   4.173   1.709 -0.5951  0.2155  0.1203
 1676SOL     ow 6701   2.451   5.399   6.286  0.0343 -0.5528 -0.5069
 1676SOL     hw 6702   2.407   5.354   6.214  0.2486 -0.6082 -0.6040
 1676SOL     hw 6703   2.441   5.492   6.267 -3.6262 -0.3491  1.5494
 1676SOL     vw 6704   2.444   5.406   6.274 -0.4203 -0.5333 -0.2487
 1677SOL     ow 6705   5.138   0.018   4.193 -0.4378 -0.2637 -0.5248
 1677SOL     hw 6706   5.104  -0.067   4.223 -1.3369 -0.5336 -2.1895
 1677SOL     hw 6707   5.231   0.003   4.179  0.3339  0.1773  3.0214
 1677SOL     vw 6708   5.145   0.005   4.195 -0.4547 -0.2410 -0.2766
 1678SOL     ow 6709   4.721   5.856   5.576  0.5181  0.3615  0.3521
 1678SOL     hw 6710   4.704   5.911   5.652 -0.4834 -1.5540  1.5934
 1678SOL     hw 6711   4.777   5.785   5.610  0.9166  0.0187 -0.9451
 1678SOL     vw 6712   4.726   5.854   5.590  0.4385  0.0634  0.3445
 1679SOL     ow 6713   6.278   4.157   3.107  0.3602 -0.1939  0.1697
 1679SOL     hw 6714   6.358   4.130   3.063 -0.7064 -0.4738 -1.7111
 1679SOL     hw 6715   6.257   4.084   3.166  1.1831 -0.3379  0.3031
 1679SOL     vw 6716   6.286   4.144   3.109  0.3278 -0.2496 -0.0609
 1680SOL     ow 6717   1.725   0.947   6.431 -0.1822  0.1130 -0.0613
 1680SOL     hw 6718   1.656   0.945   6.365 -1.0771  1.7105  0.7727
 1680SOL     hw 6719   1.791   1.006   6.395  0.5896 -1.0729 -0.6624
 1680SOL     vw 6720   1.725   0.954   6.417 -0.1985  0.1674 -0.0308
 1681SOL     ow 6721   1.112   6.148   2.876  0.1082  0.0329  0.2465
 1681SOL     hw 6722   1.066   6.228   2.851  0.0536 -0.7166 -2.2561
 1681SOL     hw 6723   1.049   6.100   2.930 -0.8424  0.4883 -0.4376
 1681SOL     vw 6724   1.098   6.152   2.880 -0.0244 -0.0060 -0.1739
 1682SOL     ow 6725   5.902   0.387   5.106 -0.2440  0.2358 -0.2687
 1682SOL     hw 6726   5.811   0.417   5.107 -0.7419 -1.0287 -2.1073
 1682SOL     hw 6727   5.927   0.392   5.014  1.3407 -0.0922  0.1270
 1682SOL     vw 6728   5.893   0.392   5.094 -0.1006  0.0257 -0.4592
 1683SOL     ow 6729   6.075   6.030   1.249 -0.2666 -0.1128  0.1247
 1683SOL     hw 6730   6.118   6.019   1.333 -0.3469 -0.1070  0.1665
 1683SOL     hw 6731   6.008   5.962   1.247 -0.8575  0.4435  0.4424
 1683SOL     vw 6732   6.072   6.020   1.260 -0.3552 -0.0386  0.1721
 1684SOL     ow 6733   3.671   7.031   2.365 -0.5377  0.4139  0.3607
 1684SOL     hw 6734   3.660   6.940   2.336 -1.2125  0.6574 -0.1806
 1684SOL     hw 6735   3.599   7.046   2.426  1.2411 -0.2905  2.7564
 1684SOL     vw 6736   3.660   7.021   2.369 -0.3921  0.3531  0.6055
 1685SOL     ow 6737   2.660   5.027   3.784  0.2320 -0.9451 -0.2049
 1685SOL     hw 6738   2.679   4.939   3.817  1.0775  0.5136  3.7951
 1685SOL     hw 6739   2.743   5.074   3.792 -0.6664  0.7524 -0.3345
 1685SOL     vw 6740   2.673   5.022   3.789  0.2249 -0.5288  0.3057
 1686SOL     ow 6741   4.617   0.855   5.442  0.2924 -0.5638 -0.2273
 1686SOL     hw 6742   4.552   0.811   5.497 -1.8869  0.2863 -1.9758
 1686SOL     hw 6743   4.671   0.784   5.407 -0.7160 -1.4664 -0.0039
 1686SOL     vw 6744   4.615   0.840   5.445 -0.1283 -0.5707 -0.4287
 1687SOL     ow 6745   6.490   2.128   6.704 -0.4190 -0.3081 -0.0460
 1687SOL     hw 6746   6.555   2.145   6.636 -0.2264 -2.0365 -0.3382
 1687SOL     hw 6747   6.452   2.043   6.680  0.5522 -1.6132  2.6419
 1687SOL     vw 6748   6.494   2.119   6.692 -0.2656 -0.7083  0.2701
 1688SOL     ow 6749   4.509   5.868   3.957  0.1798  0.1573  0.3671
 1688SOL     hw 6750   4.502   5.811   4.034 -1.7136  0.6877  0.6342
 1688SOL     hw 6751   4.490   5.956   3.990 -0.2765  0.4467 -0.6141
 1688SOL     vw 6752   4.505   5.872   3.972 -0.1304  0.2656  0.2729
 1689SOL     ow 6753   2.798   3.723   2.052  0.2082 -0.0819 -0.3742
 1689SOL     hw 6754   2.714   3.721   2.096 -0.9515 -2.8532 -2.3951
 1689SOL     hw 6755   2.862   3.696   2.118 -0.8166 -0.1175  0.6126
 1689SOL     vw 6756   2.796   3.719   2.066 -0.0799 -0.4522 -0.5106
 1690SOL     ow 6757   5.509   1.393   4.797 -0.3479 -0.0826  0.4925
 1690SOL     hw 6758   5.464   1.436   4.724  0.5710 -1.5046 -0.9701
 1690SOL     hw 6759   5.602   1.406   4.779 -0.1034 -0.3605  1.4904
 1690SOL     vw 6760   5.515   1.401   4.785 -0.1945 -0.3069  0.4313
 1691SOL     ow 6761   6.505   6.791   5.031 -0.0827 -0.1305  0.1682
 1691SOL     hw 6762   6.432   6.850   5.010  1.4901  1.7043 -0.4743
 1691SOL     hw 6763   6.493   6.769   5.123 -0.2439  1.9631  0.6885
 1691SOL     vw 6764   6.494   6.796   5.040  0.1035  0.3879  0.1521
 1692SOL     ow 6765   6.437   2.529   5.501  0.5556  0.1367  0.1630
 1692SOL     hw 6766   6.381   2.552   5.427 -1.3053 -2.7732  0.4699
 1692SOL     hw 6767   6.524   2.562   5.478 -0.5818  1.9377 -1.8727
 1692SOL     vw 6768   6.441   2.536   5.488  0.1600 -0.0097 -0.0653
 1693SOL     ow 6769   1.799   2.460   2.806 -0.6313 -1.0495  0.0268
 1693SOL     hw 6770   1.772   2.482   2.717 -2.3419 -2.8140  0.0377
 1693SOL     hw 6771   1.809   2.545   2.850 -0.5655 -0.1787 -1.6026
 1693SOL     vw 6772   1.796   2.474   2.800 -0.8483 -1.1674 -0.1868
 1694SOL     ow 6773   6.041   0.636   0.314  0.7865 -0.0650  0.4232
 1694SOL     hw 6774   6.128   0.647   0.276  1.1807 -1.9886  0.6757
 1694SOL     hw 6775   5.990   0.592   0.246  0.1325  0.6191  0.4534
 1694SOL     vw 6776   6.046   0.632   0.300  0.7522 -0.2285  0.4605
 1695SOL     ow 6777   7.131   1.460   2.224  0.3985 -0.1808  0.3928
 1695SOL     hw 6778   7.161   1.434   2.137  2.0299 -0.5940  1.0499
 1695SOL     hw 6779   7.133   1.379   2.275  0.0533  0.1791  0.9837
 1695SOL     vw 6780   7.135   1.446   2.219  0.5682 -0.1878  0.5574
 1696SOL     ow 6781   1.277   2.090   3.667  0.2731 -0.0033 -0.3902
 1696SOL     hw 6782   1.226   2.151   3.720  1.4364  0.5741  0.1103
 1696SOL     hw 6783   1.368   2.119   3.679  0.9353 -2.2333  0.4042
 1696SOL     vw 6784   1.282   2.102   3.676  0.5140 -0.2213 -0.2193
 1697SOL     ow 6785   3.913   1.972   0.265  0.6245 -0.6183  0.4583
 1697SOL     hw 6786   3.872   1.910   0.204  1.4497 -0.9844  0.2672
 1697SOL     hw 6787   3.932   2.049   0.211  0.0644 -0.3875  0.5817
 1697SOL     vw 6788   3.910   1.974   0.249  0.6596 -0.6362  0.4494
 1698SOL     ow 6789   0.805   2.793   2.128  0.3760  0.7681 -0.0408
 1698SOL     hw 6790   0.885   2.795   2.180  0.8379 -1.2594 -0.5904
 1698SOL     hw 6791   0.774   2.702   2.134 -0.8442  1.0574 -1.3637
 1698SOL     vw 6792   0.811   2.781   2.135  0.2760  0.5387 -0.2879
 1699SOL     ow 6793   4.525   1.552   6.812  0.7728 -0.3096  0.1333
 1699SOL     hw 6794   4.589   1.485   6.836  1.3985  0.6246  1.0978
 1699SOL     hw 6795   4.441   1.515   6.841  1.0289 -0.9309  0.1155
 1699SOL     vw 6796   4.522   1.538   6.819  0.8895 -0.2683  0.2584
 1700SOL     ow 6797   1.307   0.219   6.000 -0.6666 -0.0976 -0.2991
 1700SOL     hw 6798   1.316   0.128   5.973  2.8574 -0.3886  1.1857
 1700SOL     hw 6799   1.290   0.267   5.919 -0.0080 -1.8409 -1.5312
 1700SOL     vw 6800   1.306   0.213   5.986 -0.1147 -0.3660 -0.2656
 1701SOL     ow 6801   2.865   0.416   6.239 -0.2787  0.7104 -0.0830
 1701SOL     hw 6802   2.933   0.409   6.305 -0.4741 -2.3033 -0.0589
 1701SOL     hw 6803   2.792   0.364   6.274 -0.3531 -1.0629 -2.6326
 1701SOL     vw 6804   2.864   0.408   6.252 -0.3144  0.0788 -0.4163
 1702SOL     ow 6805   6.040   0.645   5.200  0.0558 -0.2455 -0.9561
 1702SOL     hw 6806   6.042   0.709   5.271 -3.3139 -0.1599 -0.7829
 1702SOL     hw 6807   6.067   0.695   5.123  3.3071 -0.2264  0.0495
 1702SOL     vw 6808   6.044   0.660   5.199  0.0403 -0.2317 -0.8004
 1703SOL     ow 6809   5.168   3.568   6.243 -0.3783  0.0060 -0.2610
 1703SOL     hw 6810   5.142   3.569   6.335  0.5237  1.3817  0.0014
 1703SOL     hw 6811   5.256   3.530   6.244  1.0930  3.1722 -0.0835
 1703SOL     vw 6812   5.176   3.563   6.255 -0.0648  0.6052 -0.2029
 1704SOL     ow 6813   3.212   3.697   2.330 -0.4758 -0.2318 -0.7709
 1704SOL     hw 6814   3.118   3.698   2.315 -0.9060  1.0999  1.6130
 1704SOL     hw 6815   3.224   3.647   2.410  0.9765 -1.1335 -1.4996
 1704SOL     vw 6816   3.201   3.691   2.338 -0.3409 -0.1751 -0.5525
 1705SOL     ow 6817   1.580   6.565   0.942  0.3200 -0.6402 -0.0391
 1705SOL     hw 6818   1.617   6.498   0.884  0.4594 -1.3327  0.8224
 1705SOL     hw 6819   1.598   6.532   1.030 -0.6854 -0.0561  0.3959
 1705SOL     vw 6820   1.587   6.551   0.946  0.2057 -0.6542  0.1319
 1706SOL     ow 6821   7.235   3.667   1.698 -0.2299 -0.8074  0.5540
 1706SOL     hw 6822   7.245   3.725   1.774  0.0283  0.9540 -0.7508
 1706SOL     hw 6823   7.302   3.600   1.710  0.6817  0.1895  1.2399
 1706SOL     vw 6824   7.245   3.666   1.709 -0.0758 -0.4435  0.4722
 1707SOL     ow 6825   1.473   1.204   0.283  0.1532  0.0787  0.2696
 1707SOL     hw 6826   1.495   1.111   0.294 -1.3011 -0.6168 -2.0496
 1707SOL     hw 6827   1.426   1.228   0.363 -1.3867 -1.8330 -0.0013
 1707SOL     vw 6828   1.470   1.195   0.295 -0.2418 -0.2654 -0.0722
 1708SOL     ow 6829   5.908   4.448   0.612 -0.2057  0.9523 -0.6586
 1708SOL     hw 6830   5.982   4.411   0.660  1.0318  2.6815 -1.1580
 1708SOL     hw 6831   5.831   4.426   0.666  1.0824  2.8132  2.1641
 1708SOL     vw 6832   5.908   4.440   0.625  0.1278  1.4262 -0.3521
 1709SOL     ow 6833   3.412   1.678   6.531 -0.2160  0.3501 -0.5369
 1709SOL     hw 6834   3.455   1.756   6.565 -0.7721  0.5307 -0.2204
 1709SOL     hw 6835   3.459   1.656   6.451  0.7738  0.2348  0.0694
 1709SOL     vw 6836   3.424   1.685   6.525 -0.1588  0.3588 -0.4151
 1710SOL     ow 6837   3.058   6.806   4.270 -0.0827  0.2467 -0.1670
 1710SOL     hw 6838   3.102   6.760   4.341  1.3350 -0.6653 -1.5768
 1710SOL     hw 6839   3.021   6.884   4.312  1.3975  0.1702  1.4157
 1710SOL     vw 6840   3.059   6.810   4.285  0.2997  0.1161 -0.1445
 1711SOL     ow 6841   5.751   6.402   5.373 -0.0031  0.1220 -0.2817
 1711SOL     hw 6842   5.756   6.480   5.428 -0.8985 -1.2939  1.9924
 1711SOL     hw 6843   5.838   6.395   5.332  0.7904  1.1636  1.1474
 1711SOL     vw 6844   5.763   6.411   5.375 -0.0167  0.0727  0.2069
 1712SOL     ow 6845   2.428   4.664   2.909 -0.2331 -0.7976 -0.5477
 1712SOL     hw 6846   2.360   4.730   2.893  0.6885  0.5490  0.7203
 1712SOL     hw 6847   2.497   4.685   2.846  1.2650  1.3509  1.6075
 1712SOL     vw 6848   2.428   4.676   2.899  0.0862 -0.3364 -0.0960
 1713SOL     ow 6849   4.538   3.992   0.328  0.7918 -0.6080 -0.1174
 1713SOL     hw 6850   4.583   3.955   0.404  2.1694 -0.2190 -0.7140
 1713SOL     hw 6851   4.509   3.916   0.278  1.2035 -0.8686  0.0348
 1713SOL     vw 6852   4.540   3.977   0.331  1.0276 -0.5910 -0.1760
 1714SOL     ow 6853   7.201   2.334   4.520 -0.4876  0.2427 -0.6733
 1714SOL     hw 6854   7.119   2.295   4.550 -0.9871  1.2745 -0.6775
 1714SOL     hw 6855   7.180   2.426   4.505  0.4132  0.3038 -1.6558
 1714SOL     vw 6856   7.187   2.341   4.522 -0.4344  0.3870 -0.8035
 1715SOL     ow 6857   5.266   2.162   6.979 -0.4577 -0.3379  0.3963
 1715SOL     hw 6858   5.298   2.085   7.027  0.1575  1.0039  2.2599
 1715SOL     hw 6859   5.263   2.232   7.045  0.5437  1.6645 -1.5367
 1715SOL     vw 6860   5.270   2.161   6.994 -0.2444  0.1032  0.3872
 1716SOL     ow 6861   3.102   1.814   5.722  0.1715  0.4389  0.2063
 1716SOL     hw 6862   3.033   1.879   5.733  0.0649  0.3063  0.3363
 1716SOL     hw 6863   3.144   1.808   5.808 -1.1597 -1.1561  0.7879
 1716SOL     vw 6864   3.099   1.821   5.735 -0.0182  0.2110  0.3004
 1717SOL     ow 6865   2.516   6.900   6.945  0.0230 -0.6930  1.1990
 1717SOL     hw 6866   2.600   6.864   6.975 -0.1472 -1.5250  0.7160
 1717SOL     hw 6867   2.466   6.912   7.025 -0.5453 -3.2078  1.3074
 1717SOL     vw 6868   2.521   6.897   6.960 -0.0745 -1.1349  1.1497
 1718SOL     ow 6869   2.391   0.551   1.197  0.1890  0.4222 -0.5071
 1718SOL     hw 6870   2.482   0.537   1.172  0.0292  0.2528 -1.0006
 1718SOL     hw 6871   2.382   0.505   1.280  0.4160 -0.0071 -0.7194
 1718SOL     vw 6872   2.402   0.543   1.205  0.1979  0.3432 -0.6002
 1719SOL     ow 6873   2.779   3.919   0.305  0.6725 -0.2106 -0.0401
 1719SOL     hw 6874   2.831   3.971   0.245  0.6486  1.3855  1.2467
 1719SOL     hw 6875   2.694   3.964   0.309  1.0444  0.4341  2.0171
 1719SOL     vw 6876   2.775   3.931   0.298  0.7185  0.0852  0.4011
 1720SOL     ow 6877   4.765   7.097   4.225 -0.0716 -0.0440  0.5078
 1720SOL     hw 6878   4.800   7.157   4.291  1.2020  0.3801 -0.5158
 1720SOL     hw 6879   4.740   7.154   4.152 -1.2581 -0.5282  0.5128
 1720SOL     vw 6880   4.766   7.113   4.224 -0.0601 -0.0520  0.3731
 1721SOL     ow 6881   6.012   2.134   5.813  0.2859  0.2322  0.0185
 1721SOL     hw 6882   5.928   2.131   5.767 -0.0321  1.1801  0.5096
 1721SOL     hw 6883   6.011   2.218   5.859  1.8444  0.6356 -0.6178
 1721SOL     vw 6884   6.001   2.145   5.813  0.4494  0.4104 -0.0007
 1722SOL     ow 6885   7.212   5.684   1.571 -0.7208 -0.3938  0.1545
 1722SOL     hw 6886   7.183   5.618   1.634  0.5201 -1.4521 -0.3480
 1722SOL     hw 6887   7.280   5.640   1.520  0.6250  1.4816  0.2394
 1722SOL     vw 6888   7.217   5.670   1.573 -0.3793 -0.2859  0.0994
 1723SOL     ow 6889   5.781   6.070   6.470 -0.5958  0.4649  0.0011
 1723SOL     hw 6890   5.870   6.043   6.450 -1.5791 -2.6701 -0.6841
 1723SOL     hw 6891   5.788   6.163   6.488  2.7485  0.3953 -0.3053
 1723SOL     vw 6892   5.793   6.079   6.470 -0.2842  0.0422 -0.1297
 1724SOL     ow 6893   2.337   5.432   6.547  0.0497 -0.2272  0.2891
 1724SOL     hw 6894   2.322   5.527   6.546  1.3922  0.0055  0.4500
 1724SOL     hw 6895   2.360   5.411   6.457  0.3852 -0.2831  0.3863
 1724SOL     vw 6896   2.338   5.442   6.535  0.2711 -0.2041  0.3231
 1725SOL     ow 6897   6.381   3.650   7.111 -0.7457  0.1016  0.0466
 1725SOL     hw 6898   6.387   3.593   7.187 -2.1740  0.7042  0.6451
 1725SOL     hw 6899   6.308   3.709   7.130  0.7706  2.2743 -0.4714
 1725SOL     vw 6900   6.372   3.650   7.123 -0.7341  0.4677  0.0572
 1726SOL     ow 6901   7.262   6.251   2.419  0.7564  0.9593  0.0139
 1726SOL     hw 6902   7.204   6.212   2.484  1.0468 -0.1049 -0.3509
 1726SOL     hw 6903   7.313   6.316   2.468 -0.3175  1.4935  0.4573
 1726SOL     vw 6904   7.261   6.255   2.434  0.6530  0.8895  0.0242
 1727SOL     ow 6905   0.518   1.959   7.199  0.7266 -0.1942  0.2536
 1727SOL     hw 6906   0.573   2.021   7.151  2.8037 -1.7181  0.5015
 1727SOL     hw 6907   0.498   2.004   7.281  0.9610  0.7030 -0.1656
 1727SOL     vw 6908   0.523   1.973   7.203  1.0316 -0.2769  0.2310
 1728SOL     ow 6909   3.093   6.010   5.382 -0.8228 -0.2456 -0.4822
 1728SOL     hw 6910   3.183   5.995   5.354 -0.9329 -0.8980 -0.5045
 1728SOL     hw 6911   3.084   6.105   5.386  0.5865 -0.1327  1.8038
 1728SOL     vw 6912   3.103   6.021   5.379 -0.6512 -0.3166 -0.1836
 1729SOL     ow 6913   4.552   5.708   0.280 -0.3300  0.8885 -0.4336
 1729SOL     hw 6914   4.575   5.707   0.188 -1.8008 -0.1481 -0.8327
 1729SOL     hw 6915   4.552   5.615   0.306 -2.1098  0.9640 -0.0135
 1729SOL     vw 6916   4.555   5.695   0.272 -0.7589  0.7617 -0.4308
 1730SOL     ow 6917   6.220   3.993   3.806  0.2911  0.1884  0.8369
 1730SOL     hw 6918   6.140   4.045   3.813  0.6068  0.7415  0.4938
 1730SOL     hw 6919   6.201   3.929   3.738 -0.2797 -0.4845  1.6224
 1730SOL     vw 6920   6.207   3.992   3.798  0.2575  0.1727  0.8953
 1731SOL     ow 6921   4.712   1.433   4.474  0.3952  0.1730  0.5284
 1731SOL     hw 6922   4.706   1.366   4.405  0.5738  2.5614 -2.0051
 1731SOL     hw 6923   4.776   1.398   4.535  2.5460 -0.8952 -2.0968
 1731SOL     vw 6924   4.719   1.419   4.473  0.7026  0.3471 -0.1523
 1732SOL     ow 6925   3.625   3.125   3.049  0.2267  0.0220 -0.0896
 1732SOL     hw 6926   3.606   3.042   3.093 -1.3017  1.3108  1.8814
 1732SOL     hw 6927   3.712   3.149   3.079  1.0677 -1.2466 -1.3876
 1732SOL     vw 6928   3.634   3.117   3.059  0.1360  0.0247 -0.0007
 1733SOL     ow 6929   2.363   3.619   0.009  0.8023  0.2300 -0.6629
 1733SOL     hw 6930   2.458   3.611   0.019  0.7735 -0.4124 -0.8721
 1733SOL     hw 6931   2.328   3.577   0.088  0.6726 -0.5974 -1.1492
 1733SOL     vw 6932   2.371   3.613   0.021  0.7813  0.0360 -0.7548
 1734SOL     ow 6933   3.935   2.526   4.907 -0.0136 -0.9445 -0.4176
 1734SOL     hw 6934   3.980   2.558   4.985  0.0475 -2.4763  0.2247
 1734SOL     hw 6935   3.959   2.588   4.838  1.1511 -0.3934  0.4475
 1734SOL     vw 6936   3.944   2.538   4.908  0.1481 -1.0738 -0.2186
 1735SOL     ow 6937   0.807   6.408   0.542  0.4879  0.4444 -0.0205
 1735SOL     hw 6938   0.854   6.489   0.561  1.3505 -0.0407  0.0159
 1735SOL     hw 6939   0.816   6.396   0.448  1.9157 -0.4819  0.1844
 1735SOL     vw 6940   0.815   6.417   0.532  0.7901  0.2582  0.0114
 1736SOL     ow 6941   4.054   6.188   3.457 -0.0740  0.1400 -0.1163
 1736SOL     hw 6942   3.960   6.185   3.438  0.4298  0.1297 -3.3261
 1736SOL     hw 6943   4.089   6.112   3.411  1.7789  1.6670 -1.3684
 1736SOL     vw 6944   4.046   6.178   3.448  0.2370  0.3400 -0.7051
 1737SOL     ow 6945   5.343   0.969   4.133 -0.1887 -0.1383 -0.4775
 1737SOL     hw 6946   5.318   0.883   4.167  1.7388 -0.5878 -0.0900
 1737SOL     hw 6947   5.322   1.030   4.204 -1.1810 -0.3186 -0.5983
 1737SOL     vw 6948   5.337   0.966   4.146 -0.0656 -0.2213 -0.4423
 1738SOL     ow 6949   2.054   0.515   1.171 -0.0698  0.4403  0.2646
 1738SOL     hw 6950   2.040   0.527   1.265 -1.0992  3.0886 -0.1578
 1738SOL     hw 6951   1.985   0.454   1.145 -0.1028  0.0894  1.1291
 1738SOL     vw 6952   2.043   0.508   1.180 -0.2100  0.7434  0.3229
 1739SOL     ow 6953   7.256   0.996   1.770  0.5244  0.3809  0.3271
 1739SOL     hw 6954   7.299   1.032   1.847 -1.2678  0.8981  1.1503
 1739SOL     hw 6955   7.163   1.012   1.785 -0.0505 -1.3903 -0.9867
 1739SOL     vw 6956   7.249   1.003   1.782  0.2120  0.2155  0.2624
 1740SOL     ow 6957   1.005   2.998   5.127 -0.0342  0.5046  0.2704
 1740SOL     hw 6958   0.987   3.017   5.035 -2.0342 -0.1255  0.4899
 1740SOL     hw 6959   0.995   3.083   5.171 -0.6945  0.5053  0.1227
 1740SOL     vw 6960   1.001   3.012   5.121 -0.3852  0.4215  0.2799
 1741SOL     ow 6961   4.992   2.200   6.854  0.5474  0.0119  0.0935
 1741SOL     hw 6962   4.953   2.260   6.918  0.9113  1.8026 -1.2734
 1741SOL     hw 6963   4.956   2.228   6.770 -0.0318 -2.3707 -0.5288
 1741SOL     vw 6964   4.982   2.212   6.851  0.5193 -0.0663 -0.1688
 1742SOL     ow 6965   1.668   5.153   2.024 -1.2983  0.7003  0.5797
 1742SOL     hw 6966   1.599   5.098   1.988 -0.5361  0.7198 -1.0190
 1742SOL     hw 6967   1.622   5.222   2.071 -2.3922  0.9363 -0.7677
 1742SOL     vw 6968   1.653   5.155   2.025 -1.3421  0.7341  0.1911
 1743SOL     ow 6969   3.863   5.017   4.603  0.1636  0.8771 -0.4217
 1743SOL     hw 6970   3.847   4.923   4.593 -1.2393  0.8086  1.8234
 1743SOL     hw 6971   3.799   5.059   4.546 -0.6961  0.4641  0.2182
 1743SOL     vw 6972   3.852   5.010   4.595 -0.1349  0.8137 -0.0412
 1744SOL     ow 6973   4.591   6.427   2.287 -0.1848 -0.3970  0.5097
 1744SOL     hw 6974   4.499   6.438   2.310 -0.2673 -0.2192  0.1091
 1744SOL     hw 6975   4.604   6.333   2.285 -1.0004 -0.5268 -1.8304
 1744SOL     vw 6976   4.580   6.416   2.290 -0.3033 -0.3905  0.1481
 1745SOL     ow 6977   1.323   1.765   3.406 -0.2748  0.3342 -0.1990
 1745SOL     hw 6978   1.324   1.723   3.492 -1.2025  0.5587 -0.0729
 1745SOL     hw 6979   1.372   1.706   3.349 -0.8500 -0.5018  0.1664
 1745SOL     vw 6980   1.330   1.752   3.410 -0.4731  0.2536 -0.1341
 1746SOL     ow 6981   4.027   4.510   6.232  0.3528  0.0383  0.3452
 1746SOL     hw 6982   3.960   4.457   6.190  1.6544 -0.2366 -1.5079
 1746SOL     hw 6983   4.025   4.593   6.184  0.7216  0.3585  0.8773
 1746SOL     vw 6984   4.018   4.514   6.220  0.5732  0.0446  0.1709
 1747SOL     ow 6985   3.946   5.402   3.729 -0.7446 -0.0586  0.7921
 1747SOL     hw 6986   3.928   5.382   3.638 -0.5096 -0.5658  0.8519
 1747SOL     hw 6987   4.041   5.399   3.736 -0.6975  1.0538  0.8205
 1747SOL     vw 6988   3.956   5.399   3.718 -0.7074  0.0212  0.8037
 1748SOL     ow 6989   4.404   0.527   3.355  0.5850  0.7246 -0.1295
 1748SOL     hw 6990   4.384   0.597   3.294  1.4868 -0.1418 -1.4581
 1748SOL     hw 6991   4.367   0.448   3.315  1.5331  0.0811  0.2308
 1748SOL     vw 6992   4.396   0.526   3.342  0.8292  0.5253 -0.2571
 1749SOL     ow 6993   1.816   5.113   5.182  0.4222 -0.2690  0.3588
 1749SOL     hw 6994   1.792   5.198   5.219  1.2194  0.6123 -1.0312
 1749SOL     hw 6995   1.907   5.124   5.154  0.7093 -1.7686  0.6211
 1749SOL     vw 6996   1.825   5.126   5.183  0.5653 -0.3505  0.2103
 1750SOL     ow 6997   6.971   5.057   5.728  0.3805 -0.3680 -0.4119
 1750SOL     hw 6998   6.930   5.032   5.811  0.6515  2.7106  0.7749
 1750SOL     hw 6999   7.023   4.980   5.704  0.8864 -1.1708  2.6843
 1750SOL     vw 7000   6.973   5.043   5.736  0.4830 -0.0677  0.1533
 1751SOL     ow 7001   5.299   5.231   4.735 -0.4309 -0.0500  0.4263
 1751SOL     hw 7002   5.324   5.238   4.643 -1.6423  2.0195  0.1763
 1751SOL     hw 7003   5.219   5.178   4.735  0.2980 -1.1812  0.4761
 1751SOL     vw 7004   5.291   5.225   4.723 -0.4945  0.0737  0.3998
 1752SOL     ow 7005   6.039   3.677   1.169  0.3997 -0.3729  0.3398
 1752SOL     hw 7006   5.982   3.608   1.205 -1.0163  0.6235  0.0843
 1752SOL     hw 7007   6.098   3.630   1.110  0.4337 -1.5594  1.2671
 1752SOL     vw 7008   6.039   3.661   1.166  0.2174 -0.3979  0.4284
 1753SOL     ow 7009   4.056   0.594   6.940  0.1874 -0.0361 -0.0864
 1753SOL     hw 7010   3.991   0.659   6.965  0.2556  0.6408 -1.5957
 1753SOL     hw 7011   4.088   0.623   6.854  1.7585 -0.8900  0.1656
 1753SOL     vw 7012   4.052   0.607   6.932  0.4039 -0.0595 -0.2525
 1754SOL     ow 7013   6.443   2.118   0.650 -0.3365  0.0948 -0.2734
 1754SOL     hw 7014   6.446   2.036   0.601  2.6228 -0.5219  0.7809
 1754SOL     hw 7015   6.488   2.181   0.593 -0.3022  0.3325  0.0177
 1754SOL     vw 7016   6.449   2.116   0.636  0.0584  0.0448 -0.0959
 1755SOL     ow 7017   0.355   0.150   2.170  0.1659  0.4564  0.6471
 1755SOL     hw 7018   0.356   0.140   2.265 -0.4961  1.1331  0.7322
 1755SOL     hw 7019   0.312   0.071   2.138  1.0107 -0.1005  0.8535
 1755SOL     vw 7020   0.350   0.138   2.178  0.1900  0.4722  0.6857
 1756SOL     ow 7021   4.001   3.084   6.054  0.9181  0.4709  0.0893
 1756SOL     hw 7022   4.006   3.177   6.033 -1.7420  0.5610 -0.4002
 1756SOL     hw 7023   4.020   3.040   5.972 -0.6312  0.6695 -0.4034
 1756SOL     vw 7024   4.004   3.091   6.040  0.3629  0.5090 -0.0403
 1757SOL     ow 7025   1.106   0.357   7.222  0.2767 -0.5506 -0.8775
 1757SOL     hw 7026   1.026   0.306   7.217 -0.3296  0.1210  0.9687
 1757SOL     hw 7027   1.078   0.448   7.216  0.7574 -0.2666  0.6296
 1757SOL     vw 7028   1.092   0.362   7.221  0.2601 -0.4245 -0.4351
 1758SOL     ow 7029   7.232   5.541   5.275 -0.3271 -0.1146  0.1648
 1758SOL     hw 7030   7.175   5.605   5.233 -1.4009  0.2931  2.1423
 1758SOL     hw 7031   7.321   5.574   5.259 -0.7995  1.0665 -0.1028
 1758SOL     vw 7032   7.236   5.554   5.267 -0.5310  0.0949  0.3903
 1759SOL     ow 7033   3.248   6.102   6.967 -0.0256 -0.5683  0.0936
 1759SOL     hw 7034   3.164   6.077   6.931  0.6523  0.3725 -2.3766
 1759SOL     hw 7035   3.283   6.165   6.904  1.6438  0.6291  2.0803
 1759SOL     vw 7036   3.242   6.107   6.954  0.2840 -0.2861  0.0300
 1760SOL     ow 7037   4.926   2.323   6.608 -0.1078 -0.6479  0.6469
 1760SOL     hw 7038   4.992   2.392   6.593 -0.9155 -0.2691 -1.5231
 1760SOL     hw 7039   4.873   2.323   6.529 -3.2440 -0.4196  2.5690
 1760SOL     vw 7040   4.928   2.332   6.596 -0.6280 -0.5678  0.6142
 1761SOL     ow 7041   4.526   3.067   1.543  0.5489 -0.4736  0.2295
 1761SOL     hw 7042   4.503   3.060   1.635 -0.4991 -0.4799 -0.0207
 1761SOL     hw 7043   4.445   3.095   1.500  0.7419 -1.4922 -0.8379
 1761SOL     vw 7044   4.513   3.070   1.549  0.4361 -0.6088  0.0557
 1762SOL     ow 7045   5.767   5.989   3.476  0.0369  0.2535 -0.9562
 1762SOL     hw 7046   5.850   6.036   3.469  0.0066  0.3219 -0.8616
 1762SOL     hw 7047   5.710   6.049   3.524  0.9576 -1.1812  2.1629
 1762SOL     vw 7048   5.770   6.003   3.481  0.1547  0.0734 -0.5322
 1763SOL     ow 7049   3.643   6.482   0.492 -0.3406 -0.1390  0.0386
 1763SOL     hw 7050   3.585   6.428   0.545 -0.4476 -0.3923 -0.3278
 1763SOL     hw 7051   3.618   6.462   0.402 -0.9108  1.0972 -0.0934
 1763SOL     vw 7052   3.632   6.472   0.487 -0.4300 -0.0093 -0.0272
 1764SOL     ow 7053   0.332   6.049   7.006 -0.4632  0.9971 -0.1831
 1764SOL     hw 7054   0.306   6.010   6.922  1.9911 -0.2777 -0.4646
 1764SOL     hw 7055   0.368   6.134   6.982  0.1278  0.6841 -0.4375
 1764SOL     vw 7056   0.333   6.055   6.991 -0.0614  0.7873 -0.2537
 1765SOL     ow 7057   5.202   0.621   1.893 -0.4006  0.8686  0.0130
 1765SOL     hw 7058   5.135   0.633   1.826  0.5955  3.2323 -0.6600
 1765SOL     hw 7059   5.162   0.657   1.973  0.4210  3.5335 -0.6757
 1765SOL     vw 7060   5.188   0.627   1.895 -0.1607  1.5320 -0.1667
 1766SOL     ow 7061   2.594   2.587   0.934 -0.3716 -0.3778 -1.0260
 1766SOL     hw 7062   2.648   2.554   1.006 -0.4520  0.6101 -0.4954
 1766SOL     hw 7063   2.522   2.524   0.928 -0.5475 -0.2974  0.0049
 1766SOL     vw 7064   2.591   2.574   0.943 -0.4055 -0.2369 -0.8200
 1767SOL     ow 7065   2.806   3.423   2.371 -0.0011  0.4308  0.6856
 1767SOL     hw 7066   2.720   3.443   2.334  0.4435  2.1525  0.4851
 1767SOL     hw 7067   2.791   3.419   2.465 -0.5583 -0.8265  0.5665
 1767SOL     vw 7068   2.793   3.425   2.378 -0.0160  0.4921  0.6435
 1768SOL     ow 7069   1.465   4.147   5.155 -0.1943  0.4180  0.5894
 1768SOL     hw 7070   1.505   4.122   5.072 -1.4526  1.3773 -0.3484
 1768SOL     hw 7071   1.370   4.143   5.138 -0.4906  0.0870  2.1510
 1768SOL     vw 7072   1.457   4.143   5.142 -0.3995  0.5007  0.6716
 1769SOL     ow 7073   6.822   2.155   5.706  0.8953  0.1530 -0.6600
 1769SOL     hw 7074   6.740   2.108   5.723  1.0701  0.5332  1.4973
 1769SOL     hw 7075   6.847   2.128   5.617 -0.6239 -1.3756 -0.6743
 1769SOL     vw 7076   6.815   2.145   5.696  0.7179  0.0015 -0.3772
 1770SOL     ow 7077   6.687   5.958   3.772 -0.1922 -0.6009  0.6955
 1770SOL     hw 7078   6.743   5.960   3.850 -0.7702 -0.9624  1.1307
 1770SOL     hw 7079   6.635   5.879   3.782 -0.3904 -0.5617  0.0165
 1770SOL     vw 7080   6.688   5.948   3.784 -0.2944 -0.6435  0.6632
 1771SOL     ow 7081   7.245   0.005   1.878  0.4315  0.7749  0.5997
 1771SOL     hw 7082   7.284   0.051   1.953 -0.1782 -0.0860  1.4736
 1771SOL     hw 7083   7.287   0.044   1.801  1.3673  1.4072  1.4052
 1771SOL     vw 7084   7.256   0.016   1.878  0.4747  0.7447  0.8214
 1772SOL     ow 7085   2.829   4.251   1.885  0.1095  0.2153  0.5410
 1772SOL     hw 7086   2.781   4.328   1.854 -1.5079 -0.0957  2.1027
 1772SOL     hw 7087   2.919   4.265   1.854 -0.8265  1.0685 -2.0725
 1772SOL     vw 7088   2.835   4.263   1.877 -0.2275  0.2868  0.4023
 1773SOL     ow 7089   5.675   0.593   3.683  0.3641 -0.0414 -0.0179
 1773SOL     hw 7090   5.769   0.600   3.665  0.2589  2.4398 -0.0102
 1773SOL     hw 7091   5.633   0.630   3.606 -0.4178  2.1957  1.3885
 1773SOL     vw 7092   5.682   0.599   3.671  0.2470  0.5811  0.1687
 1774SOL     ow 7093   5.288   4.451   5.896 -0.4066 -0.7935  0.4913
 1774SOL     hw 7094   5.220   4.439   5.830 -0.4353 -1.2704  0.6038
 1774SOL     hw 7095   5.278   4.542   5.925  0.6627 -0.0181 -1.3514
 1774SOL     vw 7096   5.278   4.462   5.891 -0.2692 -0.7539  0.2627
 1775SOL     ow 7097   5.427   0.162   6.136 -0.3430  0.1670 -0.1853
 1775SOL     hw 7098   5.520   0.164   6.115 -0.0475 -0.9857  0.8763
 1775SOL     hw 7099   5.415   0.231   6.201 -0.1211 -0.0503  0.0850
 1775SOL     vw 7100   5.437   0.171   6.142 -0.2751 -0.0137 -0.0095
 1776SOL     ow 7101   2.533   2.768   3.767 -0.3435 -0.4670 -0.1356
 1776SOL     hw 7102   2.459   2.746   3.709  0.6416  0.7931 -1.9846
 1776SOL     hw 7103   2.538   2.863   3.764 -0.4021 -0.3360  2.3217
 1776SOL     vw 7104   2.524   2.777   3.759 -0.2211 -0.2834 -0.0553
 1777SOL     ow 7105   4.055   3.426   2.454 -0.0610  0.1700 -1.4504
 1777SOL     hw 7106   3.988   3.372   2.410 -0.9932  1.1247 -1.2587
 1777SOL     hw 7107   4.121   3.363   2.483 -0.0740 -0.6434 -3.0353
 1777SOL     vw 7108   4.055   3.411   2.452 -0.1857  0.1885 -1.6342
 1778SOL     ow 7109   4.293   4.121   5.697 -0.2801  0.0197 -0.1422
 1778SOL     hw 7110   4.220   4.147   5.752 -2.5943 -1.6647 -2.1786
 1778SOL     hw 7111   4.296   4.188   5.628 -0.2020 -0.1819 -0.3349
 1778SOL     vw 7112   4.284   4.134   5.695 -0.5751 -0.2291 -0.4365
 1779SOL     ow 7113   1.204   1.924   4.925  0.1036 -0.1151 -0.0605
 1779SOL     hw 7114   1.166   1.989   4.867 -0.1656  0.8604  1.1633
 1779SOL     hw 7115   1.296   1.949   4.932 -0.3292  1.1457  1.6663
 1779SOL     vw 7116   1.211   1.936   4.918  0.0110  0.1799  0.3288
 1780SOL     ow 7117   5.336   5.056   4.299 -0.2503 -0.2383 -0.7009
 1780SOL     hw 7118   5.372   5.132   4.346  0.8329 -1.8346  1.2014
 1780SOL     hw 7119   5.243   5.078   4.286 -0.5459  0.4977  1.9314
 1780SOL     vw 7120   5.328   5.069   4.304 -0.1466 -0.3517 -0.1030
 1781SOL     ow 7121   2.751   6.805   4.371 -0.3594  0.3852  0.4655
 1781SOL     hw 7122   2.719   6.792   4.282 -0.5022 -0.5026  0.6333
 1781SOL     hw 7123   2.790   6.892   4.371 -1.8388  1.0740 -0.0229
 1781SOL     vw 7124   2.752   6.815   4.360 -0.5734  0.3591  0.4232
 1782SOL     ow 7125   6.195   1.055   6.827 -0.1605 -0.0927 -0.0631
 1782SOL     hw 7126   6.286   1.080   6.813  0.1051 -1.6515 -1.3445
 1782SOL     hw 7127   6.156   1.054   6.740 -1.4908  0.7625  0.4883
 1782SOL     vw 7128   6.202   1.058   6.814 -0.3009 -0.1855 -0.1595
 1783SOL     ow 7129   2.467   6.381   3.811 -0.0310 -0.3619  0.3384
 1783SOL     hw 7130   2.427   6.393   3.897 -0.4869  0.7202 -0.0068
 1783SOL     hw 7131   2.561   6.393   3.827 -0.3158  2.8475  0.2520
 1783SOL     vw 7132   2.475   6.384   3.825 -0.1287  0.2041  0.2813
 1784SOL     ow 7133   1.442   4.076   0.429  1.1109  0.8416  0.4264
 1784SOL     hw 7134   1.412   4.142   0.367 -1.8613 -0.9003 -0.2373
 1784SOL     hw 7135   1.504   4.023   0.379  0.8028  1.0517 -0.1939
 1784SOL     vw 7136   1.446   4.077   0.414  0.6780  0.6397  0.2570
 1785SOL     ow 7137   6.627   6.449   1.503  0.4200  0.5155 -0.3681
 1785SOL     hw 7138   6.645   6.460   1.596 -0.4142  2.1630 -0.3607
 1785SOL     hw 7139   6.545   6.496   1.488 -0.7759 -1.7396 -1.5011
 1785SOL     vw 7140   6.619   6.457   1.513  0.1521  0.4354 -0.5166
 1786SOL     ow 7141   3.995   0.842   0.434 -0.4123  0.4784  0.5706
 1786SOL     hw 7142   4.067   0.903   0.454 -1.0169  0.7894  1.8591
 1786SOL     hw 7143   3.981   0.794   0.515 -1.5656  0.3248  0.2906
 1786SOL     vw 7144   4.003   0.844   0.447 -0.6440  0.4992  0.7036
 1787SOL     ow 7145   6.071   4.817   2.664 -0.0154 -0.8655 -0.1731
 1787SOL     hw 7146   6.100   4.751   2.601 -1.0249 -2.6541  1.1265
 1787SOL     hw 7147   5.977   4.801   2.674  0.0351 -0.3180  1.4204
 1787SOL     vw 7148   6.062   4.806   2.657 -0.1419 -1.0293  0.2086
 1788SOL     ow 7149   4.941   5.152   5.703  0.5799 -0.1485 -0.1329
 1788SOL     hw 7150   4.881   5.150   5.629 -1.2459  0.7143  1.2594
 1788SOL     hw 7151   4.896   5.203   5.770  2.0860 -1.0330  1.6510
 1788SOL     vw 7152   4.927   5.158   5.702  0.5376 -0.1512  0.2863
 1789SOL     ow 7153   1.298   5.279   1.504 -0.1758  0.3815 -0.1260
 1789SOL     hw 7154   1.240   5.207   1.530 -0.1349 -0.3767 -2.0146
 1789SOL     hw 7155   1.244   5.333   1.447  0.4190  0.6817 -0.4097
 1789SOL     vw 7156   1.283   5.276   1.500 -0.0920  0.3209 -0.4126
 1790SOL     ow 7157   4.642   6.463   2.568  0.2122 -0.1901  0.1179
 1790SOL     hw 7158   4.556   6.478   2.607  0.1456 -0.0436 -0.0876
 1790SOL     hw 7159   4.702   6.458   2.643  0.1650  0.6302  0.2170
 1790SOL     vw 7160   4.639   6.465   2.583  0.1972 -0.0625  0.1038
 1791SOL     ow 7161   5.247   5.000   3.830  0.1069  0.2740 -0.1901
 1791SOL     hw 7162   5.210   5.071   3.778  1.4991 -0.1079 -1.7490
 1791SOL     hw 7163   5.221   4.920   3.784  0.1602 -0.1544  0.5032
 1791SOL     vw 7164   5.239   4.999   3.817  0.2973  0.1671 -0.3042
 1792SOL     ow 7165   0.627   5.345   3.627  0.0699 -0.6676  0.5645
 1792SOL     hw 7166   0.715   5.370   3.598  0.4742 -1.3487  1.1726
 1792SOL     hw 7167   0.577   5.337   3.546  0.2291  0.9025  0.2761
 1792SOL     vw 7168   0.632   5.348   3.612  0.1442 -0.5505  0.6067
 1793SOL     ow 7169   2.783   3.594   1.060 -0.8041 -0.4530 -0.3290
 1793SOL     hw 7170   2.695   3.620   1.034 -0.1605  1.7663 -0.4903
 1793SOL     hw 7171   2.838   3.670   1.039  0.8081 -0.9714  1.6345
 1793SOL     vw 7172   2.779   3.608   1.054 -0.5066 -0.2286 -0.0913
 1794SOL     ow 7173   3.827   6.248   6.162 -0.3843  0.2738 -0.4924
 1794SOL     hw 7174   3.885   6.317   6.130  1.4869 -1.5516 -1.2860
 1794SOL     hw 7175   3.877   6.205   6.231 -0.7168 -1.3760 -1.2218
 1794SOL     vw 7176   3.841   6.252   6.167 -0.1812 -0.1845 -0.6933
 1795SOL     ow 7177   3.674   2.366   5.033  0.4423  0.2460 -0.0119
 1795SOL     hw 7178   3.677   2.394   5.125 -0.2385  2.2697 -0.5303
 1795SOL     hw 7179   3.589   2.397   5.003 -0.0803 -1.9183 -0.9153
 1795SOL     vw 7180   3.663   2.374   5.041  0.2836  0.2275 -0.1993
 1796SOL     ow 7181   3.209   3.345   5.873  0.1936  0.3183 -0.3871
 1796SOL     hw 7182   3.234   3.257   5.844  0.6832 -0.0917  1.1649
 1796SOL     hw 7183   3.233   3.402   5.801  0.1482 -0.7886 -1.3065
 1796SOL     vw 7184   3.215   3.341   5.860  0.2522  0.1181 -0.3037
 1797SOL     ow 7185   0.619   2.159   6.428  0.1759  0.0892 -0.1624
 1797SOL     hw 7186   0.665   2.153   6.512 -0.4804  0.8049  0.2641
 1797SOL     hw 7187   0.565   2.081   6.425  0.0929  0.1326  0.1483
 1797SOL     vw 7188   0.618   2.148   6.439  0.0784  0.1894 -0.0651
 1798SOL     ow 7189   2.551   5.788   3.136 -0.1872  0.6057  0.5930
 1798SOL     hw 7190   2.472   5.752   3.176 -0.7238  1.8131  0.6788
 1798SOL     hw 7191   2.614   5.794   3.208  0.2988 -1.1321  0.3582
 1798SOL     vw 7192   2.548   5.784   3.150 -0.1938  0.5357  0.5733
 1799SOL     ow 7193   4.682   7.241   0.042 -0.7887 -0.3602  0.0710
 1799SOL     hw 7194   4.658   7.326   0.078 -0.9355 -1.4949  2.8705
 1799SOL     hw 7195   4.778   7.244   0.036 -0.5642 -0.7884  2.5246
 1799SOL     vw 7196   4.691   7.253   0.046 -0.7784 -0.5664  0.7641
 1800SOL     ow 7197   6.144   6.760   0.271  0.1424 -0.1486 -0.4584
 1800SOL     hw 7198   6.211   6.773   0.204 -0.5152 -2.7686 -1.7594
 1800SOL     hw 7199   6.193   6.754   0.353  1.4349 -1.0879 -1.2572
 1800SOL     vw 7200   6.159   6.761   0.273  0.2263 -0.6182 -0.7355
 1801SOL     ow 7201   2.558   0.082   3.215 -0.0773  0.1876 -0.7081
 1801SOL     hw 7202   2.649   0.104   3.235  0.0222 -0.5041 -0.3599
 1801SOL     hw 7203   2.508   0.129   3.281 -0.0157  0.9619 -1.1986
 1801SOL     vw 7204   2.564   0.091   3.226 -0.0561  0.1985 -0.7268
 1802SOL     ow 7205   1.016   1.628   3.949  0.8397  0.3016 -0.0831
 1802SOL     hw 7206   1.050   1.616   3.861  0.3541 -0.1773 -0.2092
 1802SOL     hw 7207   1.094   1.644   4.003  1.2673 -0.7408 -0.3707
 1802SOL     vw 7208   1.031   1.628   3.945  0.8320  0.1009 -0.1377
 1803SOL     ow 7209   1.644   4.567   1.534  0.2124 -0.4261 -0.5532
 1803SOL     hw 7210   1.691   4.649   1.516 -0.1898  0.1840  0.9692
 1803SOL     hw 7211   1.706   4.514   1.584 -0.6381  0.4300  1.5714
 1803SOL     vw 7212   1.658   4.571   1.538  0.0471 -0.2329 -0.0719
 1804SOL     ow 7213   0.044   5.235   5.167 -0.3542  0.1312  0.2077
 1804SOL     hw 7214   0.013   5.145   5.179 -0.0928 -0.2428 -1.6165
 1804SOL     hw 7215   0.139   5.229   5.172 -0.3840  0.6021  1.7144
 1804SOL     vw 7216   0.052   5.222   5.169 -0.3237  0.1440  0.1657
 1805SOL     ow 7217   0.544   0.286   1.921  0.1117  0.0136  0.0460
 1805SOL     hw 7218   0.588   0.359   1.964 -0.5078  1.0675 -1.0603
 1805SOL     hw 7219   0.610   0.216   1.921  0.5624  0.3871  1.5141
 1805SOL     vw 7220   0.559   0.286   1.927  0.0895  0.2019  0.0938
 1806SOL     ow 7221   7.096   1.978   0.936  0.3603 -0.0635  0.2204
 1806SOL     hw 7222   7.106   1.923   0.859  2.5574 -1.9430  1.7360
 1806SOL     hw 7223   7.007   2.014   0.928 -0.9772 -3.3290 -1.1691
 1806SOL     vw 7224   7.086   1.976   0.925  0.4737 -0.7424  0.2370
 1807SOL     ow 7225   5.754   2.090   5.770  0.6056  0.1069 -0.6795
 1807SOL     hw 7226   5.684   2.150   5.743 -0.9348 -1.4263 -0.2947
 1807SOL     hw 7227   5.723   2.052   5.852  1.7318 -0.8907 -0.6802
 1807SOL     vw 7228   5.741   2.093   5.777  0.5510 -0.2271 -0.6292
 1808SOL     ow 7229   1.047   0.811   2.750  0.0427 -0.5495 -0.1655
 1808SOL     hw 7230   0.991   0.762   2.691 -0.6081 -2.5765  1.9644
 1808SOL     hw 7231   1.046   0.761   2.832  1.8032  1.4604  1.2238
 1808SOL     vw 7232   1.040   0.798   2.753  0.1891 -0.5517  0.2989
 1809SOL     ow 7233   1.666   1.117   1.180 -0.3755  0.0261  0.1723
 1809SOL     hw 7234   1.610   1.088   1.108 -0.8082 -1.2626  0.9953
 1809SOL     hw 7235   1.752   1.129   1.140 -1.3314  2.9456 -1.3284
 1809SOL     vw 7236   1.670   1.115   1.165 -0.5587  0.2412  0.0829
 1810SOL     ow 7237   1.624   4.632   1.254 -0.1936  0.2033  0.0640
 1810SOL     hw 7238   1.562   4.703   1.272 -0.7632 -0.4015  0.5128
 1810SOL     hw 7239   1.621   4.577   1.333  1.4839  0.5760  0.4337
 1810SOL     vw 7240   1.615   4.634   1.267 -0.0475  0.1726  0.1721
 1811SOL     ow 7241   6.697   1.707   2.544  0.3079 -0.3917 -0.0862
 1811SOL     hw 7242   6.743   1.791   2.543  1.4300 -0.9997 -1.0150
 1811SOL     hw 7243   6.663   1.700   2.633  0.7812  0.7323  0.2038
 1811SOL     vw 7244   6.698   1.718   2.556  0.5186 -0.3237 -0.1704
 1812SOL     ow 7245   4.644   2.343   4.520 -0.6025  0.6634  0.0136
 1812SOL     hw 7246   4.683   2.378   4.440  2.3055 -1.5385  0.2787
 1812SOL     hw 7247   4.590   2.270   4.491  1.4802 -0.9698  0.0072
 1812SOL     vw 7248   4.642   2.338   4.506  0.0563  0.1575  0.0477
 1813SOL     ow 7249   4.852   5.039   1.962 -0.3435 -0.2915  0.6246
 1813SOL     hw 7250   4.826   4.949   1.980  1.7316 -0.6999  1.9470
 1813SOL     hw 7251   4.900   5.067   2.040  2.1038  0.7038 -1.0847
 1813SOL     vw 7252   4.855   5.031   1.974  0.2534 -0.2143  0.5736
 1814SOL     ow 7253   4.381   1.051   4.000 -0.1443  0.3187 -0.3794
 1814SOL     hw 7254   4.316   1.107   3.958  1.1933  2.1198 -0.1756
 1814SOL     hw 7255   4.356   1.050   4.092 -1.0342 -0.7159 -0.6079
 1814SOL     vw 7256   4.369   1.058   4.006 -0.0851  0.4199 -0.3827
 1815SOL     ow 7257   2.566   0.830   2.162  0.5657  0.2586 -0.4823
 1815SOL     hw 7258   2.630   0.775   2.208 -0.3784  0.3032  0.9688
 1815SOL     hw 7259   2.484   0.815   2.210 -0.5644  0.1000 -2.3612
 1815SOL     vw 7260   2.563   0.820   2.175  0.2919  0.2436 -0.5388
 1816SOL     ow 7261   1.422   0.110   1.808  0.8869 -0.4909  0.9542
 1816SOL     hw 7262   1.391   0.021   1.791  2.1971 -1.1909  1.9979
 1816SOL     hw 7263   1.481   0.129   1.735 -1.4203  0.6299 -0.7347
 1816SOL     vw 7264   1.426   0.101   1.796  0.7553 -0.4354  0.8691
 1817SOL     ow 7265   0.073   3.309   3.603 -0.2437 -0.3280  0.1668
 1817SOL     hw 7266   0.164   3.308   3.633 -0.4583 -2.1492  0.8911
 1817SOL     hw 7267   0.078   3.337   3.512  1.0653 -0.6340  0.1247
 1817SOL     vw 7268   0.086   3.313   3.595 -0.0993 -0.6086  0.2568
 1818SOL     ow 7269   4.000   2.995   6.353  0.5917 -0.2058 -0.2200
 1818SOL     hw 7270   3.950   3.035   6.424  0.2463 -0.0611 -0.5368
 1818SOL     hw 7271   3.998   2.901   6.371 -3.1860 -0.7506 -2.2261
 1818SOL     vw 7272   3.993   2.988   6.364  0.0477 -0.2586 -0.5264
 1819SOL     ow 7273   4.319   5.572   0.668  0.3525  0.0360 -0.0788
 1819SOL     hw 7274   4.391   5.535   0.616 -0.9777 -0.5210 -1.6137
 1819SOL     hw 7275   4.301   5.506   0.734  0.6324 -0.2543 -0.2855
 1819SOL     vw 7276   4.326   5.559   0.670  0.2139 -0.0761 -0.3085
 1820SOL     ow 7277   3.433   4.194   3.652  0.1862  0.0284  0.4283
 1820SOL     hw 7278   3.410   4.217   3.742  2.5743 -0.9678  1.3892
 1820SOL     hw 7279   3.473   4.108   3.659 -1.4536 -1.0310 -1.9385
 1820SOL     vw 7280   3.436   4.186   3.665  0.2849 -0.2427  0.2428
 1821SOL     ow 7281   0.962   6.264   4.603  0.2007  1.0055 -0.2695
 1821SOL     hw 7282   1.021   6.200   4.642 -0.1564  1.1628  0.5544
 1821SOL     hw 7283   0.920   6.307   4.678  1.1245  2.8730 -0.7495
 1821SOL     vw 7284   0.964   6.261   4.618  0.2754  1.2729 -0.2239
 1822SOL     ow 7285   0.486   3.267   4.282 -0.2134 -0.9856 -0.3930
 1822SOL     hw 7286   0.398   3.294   4.256  0.1983 -0.8262 -1.6690
 1822SOL     hw 7287   0.535   3.261   4.200  1.3895  0.3633  0.3978
 1822SOL     vw 7288   0.481   3.270   4.268  0.0524 -0.7865 -0.4568
 1823SOL     ow 7289   2.320   0.278   5.565  0.0930  0.2316 -0.2158
 1823SOL     hw 7290   2.350   0.257   5.654 -0.5560  0.8139  0.1521
 1823SOL     hw 7291   2.262   0.353   5.577  1.1108  1.2355 -1.2898
 1823SOL     vw 7292   2.317   0.285   5.578  0.1416  0.4409 -0.3090
 1824SOL     ow 7293   3.674   0.752   4.224  0.0585 -0.0467 -0.1744
 1824SOL     hw 7294   3.669   0.796   4.309 -0.0287  0.8584 -0.6358
 1824SOL     hw 7295   3.753   0.789   4.182 -1.1407  1.2346 -1.4073
 1824SOL     vw 7296   3.684   0.762   4.229 -0.1113  0.2418 -0.3977
 1825SOL     ow 7297   3.670   2.676   6.812 -0.1702  0.0315 -0.7543
 1825SOL     hw 7298   3.589   2.684   6.862 -0.2353  1.6269 -1.0848
 1825SOL     hw 7299   3.683   2.581   6.803  0.8701 -0.5246  3.9408
 1825SOL     vw 7300   3.661   2.664   6.818 -0.0416  0.1688 -0.1786
 1826SOL     ow 7301   4.331   4.837   7.211  0.1726  0.0826  0.0755
 1826SOL     hw 7302   4.357   4.920   7.251 -2.0290 -0.2120  2.3903
 1826SOL     hw 7303   4.411   4.784   7.212  1.4542  1.8734 -0.8394
 1826SOL     vw 7304   4.345   4.841   7.217  0.0513  0.2799  0.2601
 1827SOL     ow 7305   2.340   4.585   4.129  0.7497  0.4120 -0.1196
 1827SOL     hw 7306   2.334   4.579   4.033 -0.2840  1.9295 -0.2006
 1827SOL     hw 7307   2.249   4.595   4.158  1.0281 -0.2977  1.0524
 1827SOL     vw 7308   2.327   4.586   4.120  0.6500  0.5186  0.0241
 1828SOL     ow 7309   1.474   0.432   6.128 -0.8869 -0.5258 -0.5822
 1828SOL     hw 7310   1.446   0.487   6.055  0.9965  1.0703 -0.1763
 1828SOL     hw 7311   1.446   0.479   6.206  1.8713  0.6575 -0.1911
 1828SOL     vw 7312   1.467   0.445   6.128 -0.2745 -0.1591 -0.4771
 1829SOL     ow 7313   7.185   3.213   7.121 -0.7992  0.0975 -0.5587
 1829SOL     hw 7314   7.151   3.125   7.139 -2.4202  0.2041 -2.6048
 1829SOL     hw 7315   7.280   3.203   7.120 -0.9622 -1.8883 -1.7142
 1829SOL     vw 7316   7.193   3.200   7.123 -1.0347 -0.1504 -0.9811
 1830SOL     ow 7317   5.432   6.331   0.102  0.4484  0.5725 -0.3707
 1830SOL     hw 7318   5.417   6.329   0.007 -0.1898 -2.6774 -0.3092
 1830SOL     hw 7319   5.361   6.385   0.136  1.7559  3.4098 -1.8020
 1830SOL     vw 7320   5.421   6.338   0.094  0.5362  0.5183 -0.5515
 1831SOL     ow 7321   0.085   5.703   3.824  0.2188  0.1300 -0.7444
 1831SOL     hw 7322   0.168   5.730   3.865  0.5906  0.4884 -1.6958
 1831SOL     hw 7323   0.022   5.700   3.896  0.7494  1.1747 -0.2173
 1831SOL     vw 7324   0.088   5.706   3.839  0.3379  0.3157 -0.8004
 1832SOL     ow 7325   6.487   7.144   4.360  0.3440  0.0113  0.2707
 1832SOL     hw 7326   6.433   7.142   4.280  0.6729  1.6072 -0.0230
 1832SOL     hw 7327   6.577   7.145   4.328  0.4711  1.9009  0.5828
 1832SOL     vw 7328   6.491   7.144   4.345  0.4041  0.4709  0.2730
 1833SOL     ow 7329   6.563   2.079   5.711 -1.3332  0.2002  0.8716
 1833SOL     hw 7330   6.546   1.993   5.751  2.3701 -1.1946 -0.1200
 1833SOL     hw 7331   6.492   2.091   5.649 -0.6334 -3.5599 -0.9273
 1833SOL     vw 7332   6.551   2.069   5.708 -0.7522 -0.4798  0.5035
 1834SOL     ow 7333   1.680   1.727   4.678  0.4616 -0.3197  0.5439
 1834SOL     hw 7334   1.679   1.632   4.689  0.0755 -0.1973  1.6671
 1834SOL     hw 7335   1.746   1.743   4.611 -0.4632 -1.4738 -0.6895
 1834SOL     vw 7336   1.689   1.717   4.671  0.2887 -0.4559  0.5298
 1835SOL     ow 7337   6.330   3.751   3.674 -0.0226  0.0004  0.2221
 1835SOL     hw 7338   6.377   3.729   3.594  0.0419  1.3920 -0.1487
 1835SOL     hw 7339   6.240   3.721   3.658 -0.0641  0.4691 -0.4746
 1835SOL     vw 7340   6.324   3.744   3.662 -0.0196  0.2458  0.0813
 1836SOL     ow 7341   4.197   6.180   4.682 -0.9502 -0.4359 -0.2635
 1836SOL     hw 7342   4.183   6.211   4.772 -1.2146  1.5055 -0.9205
 1836SOL     hw 7343   4.270   6.119   4.689  0.8168  1.6472  0.9629
 1836SOL     vw 7344   4.205   6.176   4.695 -0.7520  0.0949 -0.1881
 1837SOL     ow 7345   2.448   5.866   5.254 -0.2833  0.8835 -0.3543
 1837SOL     hw 7346   2.369   5.812   5.260  0.0320  0.5232  0.7519
 1837SOL     hw 7347   2.508   5.829   5.319 -0.0003  2.4664  0.3397
 1837SOL     vw 7348   2.446   5.854   5.263 -0.2044  1.0450 -0.1171
 1838SOL     ow 7349   6.329   4.179   6.434  0.7564 -0.5995 -0.0813
 1838SOL     hw 7350   6.252   4.173   6.378  1.9527 -0.5888 -1.8168
 1838SOL     hw 7351   6.304   4.239   6.504 -1.1078 -1.3606 -0.0571
 1838SOL     vw 7352   6.316   4.186   6.436  0.6680 -0.6983 -0.3068
 1839SOL     ow 7353   2.637   6.310   0.750  0.1601 -0.3235 -0.3210
 1839SOL     hw 7354   2.594   6.315   0.835  2.1099  0.2984  0.7093
 1839SOL     hw 7355   2.613   6.225   0.714 -1.2762 -0.2884  0.5194
 1839SOL     vw 7356   2.628   6.300   0.756  0.2278 -0.2367 -0.0742
 1840SOL     ow 7357   6.097   3.910   2.680 -0.5786 -0.1749  0.6667
 1840SOL     hw 7358   6.058   3.916   2.768 -1.7068  0.6516  0.1394
 1840SOL     hw 7359   6.117   3.818   2.669 -0.1047 -0.2409  1.9225
 1840SOL     vw 7360   6.094   3.899   2.690 -0.6649 -0.0746  0.7627
 1841SOL     ow 7361   4.945   1.545   1.186 -0.3344  0.1563  0.5466
 1841SOL     hw 7362   4.896   1.625   1.204  0.2297  0.3370  1.3314
 1841SOL     hw 7363   4.961   1.547   1.091 -1.0526  0.5407  0.4254
 1841SOL     vw 7364   4.941   1.556   1.176 -0.3548  0.2309  0.6341
 1842SOL     ow 7365   5.175   5.130   5.929  0.0508 -0.6054  0.1783
 1842SOL     hw 7366   5.244   5.153   5.990  0.5830 -0.0858 -0.5985
 1842SOL     hw 7367   5.116   5.073   5.979  0.3414 -0.0060  1.2281
 1842SOL     vw 7368   5.176   5.125   5.943  0.1590 -0.4578  0.2143
 1843SOL     ow 7369   1.755   5.999   5.924  0.6402 -0.7713 -0.0196
 1843SOL     hw 7370   1.811   6.073   5.947  0.7831 -0.7068 -0.5718
 1843SOL     hw 7371   1.813   5.939   5.878  0.2885 -0.7622 -0.4823
 1843SOL     vw 7372   1.770   6.001   5.921  0.6126 -0.7617 -0.1538
 1844SOL     ow 7373   3.001   4.789   3.937 -0.3610  0.4533  0.5290
 1844SOL     hw 7374   2.982   4.696   3.951 -0.3391  0.5692  1.3890
 1844SOL     hw 7375   3.011   4.797   3.843  2.4515 -0.9591  0.6046
 1844SOL     vw 7376   2.999   4.778   3.927  0.0129  0.2820  0.6524
 1845SOL     ow 7377   0.179   1.432   6.049 -0.0663  0.7367  0.0563
 1845SOL     hw 7378   0.263   1.441   6.094 -0.9007 -0.4756  1.9823
 1845SOL     hw 7379   0.144   1.521   6.045  0.6516  1.0554  0.5524
 1845SOL     vw 7380   0.186   1.445   6.054 -0.0817  0.6188  0.3760
 1846SOL     ow 7381   3.312   6.148   3.233 -0.1057 -0.0156  0.0544
 1846SOL     hw 7382   3.323   6.053   3.231  1.7481  0.1667  0.1499
 1846SOL     hw 7383   3.395   6.181   3.267 -1.1317  1.5909  1.1319
 1846SOL     vw 7384   3.324   6.140   3.237  0.0033  0.2203  0.2092
 1847SOL     ow 7385   4.555   0.906   5.974 -0.0827  0.5596 -0.1770
 1847SOL     hw 7386   4.579   0.870   5.888 -1.5447 -2.6492  0.6151
 1847SOL     hw 7387   4.459   0.904   5.974 -0.1312 -1.6358  2.2585
 1847SOL     vw 7388   4.545   0.901   5.962 -0.2820 -0.1534  0.2487
 1848SOL     ow 7389   5.015   1.954   0.161 -0.7576  0.1860 -0.2172
 1848SOL     hw 7390   5.066   1.874   0.176 -1.8000 -0.6288 -0.9166
 1848SOL     hw 7391   4.962   1.963   0.240 -0.5418  0.2724 -0.0794
 1848SOL     vw 7392   5.015   1.944   0.173 -0.8669  0.0899 -0.2913
 1849SOL     ow 7393   3.240   5.833   1.977 -0.5419 -0.4815  0.0530
 1849SOL     hw 7394   3.262   5.802   2.065  1.1935 -0.1047 -0.2124
 1849SOL     hw 7395   3.265   5.762   1.919 -0.1563 -0.0960 -0.2586
 1849SOL     vw 7396   3.246   5.819   1.981 -0.2620 -0.3812 -0.0232
 1850SOL     ow 7397   1.814   1.261   7.208 -0.6359 -0.2752  0.7119
 1850SOL     hw 7398   1.865   1.243   7.287  0.7924 -2.2619 -0.5743
 1850SOL     hw 7399   1.809   1.357   7.204  2.4833  0.0025  1.2590
 1850SOL     vw 7400   1.820   1.271   7.218 -0.0359 -0.5006  0.6142
 1851SOL     ow 7401   1.583   0.157   6.155 -0.6151 -0.4300 -0.3361
 1851SOL     hw 7402   1.631   0.174   6.236 -1.4661 -1.2032  0.3591
 1851SOL     hw 7403   1.628   0.082   6.116  0.7096  0.8467 -1.3778
 1851SOL     vw 7404   1.595   0.149   6.161 -0.5527 -0.3636 -0.3819
 1852SOL     ow 7405   4.530   6.989   5.713  0.6281  0.4208  0.6736
 1852SOL     hw 7406   4.439   7.015   5.699  0.0873 -0.7722  1.8535
 1852SOL     hw 7407   4.556   7.035   5.793 -0.4192 -2.6017  2.9413
 1852SOL     vw 7408   4.522   6.999   5.721  0.4187 -0.1354  1.1284
 1853SOL     ow 7409   2.504   6.987   2.458 -0.4757  0.6660 -0.3943
 1853SOL     hw 7410   2.509   7.080   2.435 -1.8821  1.1232  0.9501
 1853SOL     hw 7411   2.562   6.978   2.534 -0.6801  0.5541 -0.2504
 1853SOL     vw 7412   2.512   6.998   2.465 -0.6883  0.7114 -0.1980
 1854SOL     ow 7413   6.243   4.089   4.690  0.2945  0.1122  0.0227
 1854SOL     hw 7414   6.194   4.030   4.634  0.1140  2.3158 -2.3417
 1854SOL     hw 7415   6.328   4.047   4.701  0.9088  0.2275 -3.2884
 1854SOL     vw 7416   6.248   4.076   4.684  0.3519  0.4182 -0.7265
 1855SOL     ow 7417   4.203   2.192   2.224  0.4588  0.2230  0.6400
 1855SOL     hw 7418   4.220   2.192   2.318 -2.1148  2.6493  1.2527
 1855SOL     hw 7419   4.159   2.275   2.208 -4.1475 -2.2835 -1.6744
 1855SOL     vw 7420   4.199   2.203   2.234 -0.4885  0.2123  0.4154
 1856SOL     ow 7421   5.126   0.985   7.032 -0.4151  0.4175 -0.3651
 1856SOL     hw 7422   5.136   0.993   6.937 -0.0433 -1.0234 -0.4758
 1856SOL     hw 7423   5.065   0.912   7.044 -2.3114  2.0229  0.5096
 1856SOL     vw 7424   5.119   0.976   7.021 -0.6166  0.4393 -0.2644
 1857SOL     ow 7425   5.970   2.511   3.808  0.1972 -0.4554  0.4529
 1857SOL     hw 7426   5.980   2.522   3.903 -1.1785 -0.5725  0.6326
 1857SOL     hw 7427   5.876   2.500   3.795  0.3733 -0.4995 -0.9304
 1857SOL     vw 7428   5.959   2.511   3.819  0.0386 -0.4767  0.2941
 1858SOL     ow 7429   0.446   5.774   1.520  0.0355  0.2357  0.3403
 1858SOL     hw 7430   0.450   5.822   1.603 -0.9423  1.4152 -0.2578
 1858SOL     hw 7431   0.478   5.836   1.455 -1.4913  0.2120 -0.4860
 1858SOL     vw 7432   0.450   5.789   1.522 -0.2950  0.3884  0.1523
 1859SOL     ow 7433   3.594   3.330   0.882  0.5729 -0.1625  0.1135
 1859SOL     hw 7434   3.562   3.419   0.899  2.1621  0.9428 -2.1995
 1859SOL     hw 7435   3.661   3.316   0.949 -0.3300 -0.0418  1.0774
 1859SOL     vw 7436   3.598   3.340   0.893  0.6635 -0.0007 -0.0645
 1860SOL     ow 7437   7.066   0.533   5.185  0.3011  0.1230  0.3140
 1860SOL     hw 7438   7.152   0.570   5.207 -0.2166  0.3336  2.1385
 1860SOL     hw 7439   7.063   0.451   5.234  0.5075 -1.2868 -1.8836
 1860SOL     vw 7440   7.077   0.527   5.194  0.2599 -0.0352  0.2649
 1861SOL     ow 7441   5.043   6.687   5.684  0.7694 -0.2030  0.1708
 1861SOL     hw 7442   5.098   6.609   5.681  1.8400  0.5467 -2.3537
 1861SOL     hw 7443   5.057   6.729   5.600  2.2566  4.1175  2.2785
 1861SOL     vw 7444   5.052   6.682   5.673  1.1067  0.4659  0.1156
 1862SOL     ow 7445   5.880   0.994   3.531  0.1807  0.1647  0.9097
 1862SOL     hw 7446   5.868   0.922   3.468 -0.2191 -1.7501  3.0337
 1862SOL     hw 7447   5.888   1.072   3.477  0.1653 -1.4048 -1.5167
 1862SOL     vw 7448   5.880   0.995   3.516  0.1259 -0.2950  0.8699
 1863SOL     ow 7449   3.785   6.711   0.656  0.2269 -0.0519  0.1881
 1863SOL     hw 7450   3.740   6.661   0.724  3.1093  0.5489  2.7898
 1863SOL     hw 7451   3.833   6.778   0.704  5.0775 -1.5398 -1.9057
 1863SOL     vw 7452   3.786   6.713   0.672  1.2470 -0.1693  0.2551
 1864SOL     ow 7453   4.198   4.140   6.829  0.5065 -0.0682 -0.6216
 1864SOL     hw 7454   4.114   4.156   6.872  1.5325  2.7012  0.6475
 1864SOL     hw 7455   4.178   4.079   6.759 -2.6779  0.8718 -0.6990
 1864SOL     vw 7456   4.184   4.134   6.826  0.2215  0.4210 -0.4644
 1865SOL     ow 7457   5.703   1.262   5.170  0.0471  0.0931  0.6450
 1865SOL     hw 7458   5.690   1.357   5.174  0.3989  0.1853 -0.0728
 1865SOL     hw 7459   5.730   1.246   5.079 -3.9593 -1.1789 -0.5581
 1865SOL     vw 7460   5.705   1.273   5.158 -0.4351 -0.0626  0.3915
 1866SOL     ow 7461   2.428   6.070   1.272 -0.3032 -0.8936  0.0052
 1866SOL     hw 7462   2.423   6.037   1.182  1.2580 -0.6315 -0.2018
 1866SOL     hw 7463   2.428   6.165   1.262 -0.3552 -0.8629  0.3017
 1866SOL     vw 7464   2.427   6.078   1.259 -0.1041 -0.8550  0.0170
 1867SOL     ow 7465   5.290   4.281   4.355  0.2046  0.8355  0.0979
 1867SOL     hw 7466   5.293   4.349   4.288 -1.2600  0.8973  0.0618
 1867SOL     hw 7467   5.228   4.314   4.420 -1.5766 -0.9754 -0.5684
 1867SOL     vw 7468   5.282   4.294   4.354 -0.2234  0.6049  0.0050
 1868SOL     ow 7469   6.378   6.273   0.312  0.3528  0.1334 -0.2192
 1868SOL     hw 7470   6.307   6.329   0.341  0.7809  1.2684 -1.2620
 1868SOL     hw 7471   6.419   6.321   0.239  1.4622 -1.0018 -0.3924
 1868SOL     vw 7472   6.374   6.286   0.306  0.5558  0.1335 -0.3797
 1869SOL     ow 7473   0.341   4.926   6.779  0.3533 -1.1540  0.9604
 1869SOL     hw 7474   0.249   4.921   6.805  0.1207  0.2608  0.4860
 1869SOL     hw 7475   0.339   4.966   6.692  1.5082  0.8713  1.7934
 1869SOL     vw 7476   0.329   4.931   6.771  0.4750 -0.7000  1.0076
 1870SOL     ow 7477   2.917   6.992   5.107  0.2697 -0.3992  0.2458
 1870SOL     hw 7478   2.930   7.037   5.190  0.9468 -2.4922  1.3561
 1870SOL     hw 7479   2.826   6.961   5.111 -0.6008  1.7830 -1.0512
 1870SOL     vw 7480   2.907   6.994   5.118  0.2443 -0.3874  0.2210
 1871SOL     ow 7481   1.465   3.390   4.431 -0.1297 -0.0831  0.3997
 1871SOL     hw 7482   1.523   3.349   4.367 -1.1159 -0.9392  0.0371
 1871SOL     hw 7483   1.377   3.380   4.395 -0.4713  2.0471  0.4791
 1871SOL     vw 7484   1.461   3.383   4.418 -0.3049  0.0850  0.3624
 1872SOL     ow 7485   0.581   0.717   6.797 -0.2171  1.2151  0.2402
 1872SOL     hw 7486   0.503   0.736   6.744 -1.1247  2.2143  1.8549
 1872SOL     hw 7487   0.654   0.747   6.743 -1.0722  1.6705 -0.6954
 1872SOL     vw 7488   0.581   0.723   6.783 -0.4497  1.4070  0.3297
 1873SOL     ow 7489   7.109   2.030   3.919  1.0040  0.1020 -0.0469
 1873SOL     hw 7490   7.184   2.083   3.894  3.3463 -1.5191  2.8249
 1873SOL     hw 7491   7.132   1.941   3.891  0.1276 -0.4193  0.8147
 1873SOL     vw 7492   7.122   2.025   3.912  1.1976 -0.1806  0.4456
 1874SOL     ow 7493   1.102   4.155   3.578  0.7989 -0.2372  0.0331
 1874SOL     hw 7494   1.184   4.196   3.549  0.4185 -1.0692 -2.4226
 1874SOL     hw 7495   1.129   4.096   3.648  2.5162 -1.2960 -1.4445
 1874SOL     vw 7496   1.117   4.153   3.583  0.9752 -0.4866 -0.4858
 1875SOL     ow 7497   2.296   5.005   3.313  0.1678 -0.6812  0.1552
 1875SOL     hw 7498   2.238   5.026   3.239  0.0936  2.2153  0.8827
 1875SOL     hw 7499   2.250   5.041   3.389  0.8803 -2.3746  1.4443
 1875SOL     vw 7500   2.282   5.013   3.313  0.2520 -0.5224  0.4212
 1876SOL     ow 7501   0.397   4.956   7.077 -0.5692 -0.1253  0.1307
 1876SOL     hw 7502   0.308   4.976   7.106  0.1239  0.5532  1.9266
 1876SOL     hw 7503   0.452   5.021   7.122  0.8670 -0.7341 -0.6785
 1876SOL     vw 7504   0.393   4.967   7.087 -0.2882 -0.1163  0.2611
 1877SOL     ow 7505   0.024   3.327   2.417 -0.3711  0.1132 -0.3668
 1877SOL     hw 7506   0.057   3.403   2.464  2.6765 -0.2470 -1.6890
 1877SOL     hw 7507   0.034   3.349   2.325  2.1322 -2.3208 -0.8301
 1877SOL     vw 7508   0.030   3.340   2.411  0.3613 -0.2556 -0.6024
 1878SOL     ow 7509   1.385   0.445   0.085  0.0773  0.2015 -0.4486
 1878SOL     hw 7510   1.422   0.517   0.034  1.8218 -2.3302 -3.0868
 1878SOL     hw 7511   1.461   0.394   0.114 -1.0883 -2.0233 -1.0617
 1878SOL     vw 7512   1.400   0.448   0.082  0.1537 -0.4261 -0.8775
 1879SOL     ow 7513   4.924   1.716   2.127  0.6456  0.3927 -0.5500
 1879SOL     hw 7514   4.911   1.646   2.063  0.6054 -0.2975  0.1888
 1879SOL     hw 7515   5.016   1.741   2.117 -0.0005  2.2209 -2.7450
 1879SOL     vw 7516   4.934   1.710   2.118  0.5553  0.5428 -0.7421
 1880SOL     ow 7517   1.308   0.230   6.292  0.2579  0.5143  0.0470
 1880SOL     hw 7518   1.215   0.211   6.306  0.2140  0.3583 -0.4370
 1880SOL     hw 7519   1.348   0.221   6.379  0.1616 -1.3458 -0.0617
 1880SOL     vw 7520   1.301   0.227   6.306  0.2394  0.2483 -0.0312
 1881SOL     ow 7521   2.956   2.295   5.057  0.0154 -0.0165  0.0967
 1881SOL     hw 7522   2.916   2.230   4.999 -0.7338 -0.7191  1.3631
 1881SOL     hw 7523   2.899   2.371   5.051  0.6748  0.4024 -1.0867
 1881SOL     vw 7524   2.943   2.296   5.048  0.0036 -0.0538  0.1073
 1882SOL     ow 7525   3.035   0.792   3.776 -0.5815  0.1238  0.0950
 1882SOL     hw 7526   2.969   0.859   3.795  1.0546  1.5456  0.9957
 1882SOL     hw 7527   3.071   0.769   3.861 -0.4144 -1.1670 -0.3132
 1882SOL     vw 7528   3.031   0.798   3.790 -0.3437  0.1411  0.1599
 1883SOL     ow 7529   3.065   2.241   2.079  0.8392 -0.5963 -0.1883
 1883SOL     hw 7530   3.113   2.317   2.111  0.4915  0.0774 -1.2145
 1883SOL     hw 7531   2.986   2.238   2.133 -1.0379  2.0741 -2.4540
 1883SOL     vw 7532   3.061   2.251   2.090  0.5457 -0.1551 -0.6226
 1884SOL     ow 7533   2.296   2.675   1.149 -0.3959 -0.3474  0.2181
 1884SOL     hw 7534   2.312   2.734   1.223  1.2728  2.1361 -1.9595
 1884SOL     hw 7535   2.369   2.613   1.152  1.0338  1.2059 -0.6013
 1884SOL     vw 7536   2.308   2.675   1.159  0.0130  0.1851 -0.1773
 1885SOL     ow 7537   1.088   4.605   4.522  0.3504  1.0144 -0.0571
 1885SOL     hw 7538   1.031   4.600   4.599  0.4978  1.1796  0.0623
 1885SOL     hw 7539   1.034   4.572   4.450 -0.2611  2.1407 -0.1395
 1885SOL     vw 7540   1.073   4.600   4.523  0.2892  1.1847 -0.0520
 1886SOL     ow 7541   0.626   3.145   1.249 -0.2817 -0.3631 -0.4710
 1886SOL     hw 7542   0.570   3.193   1.310 -3.0121 -1.8341 -1.6265
 1886SOL     hw 7543   0.565   3.109   1.184  1.9798 -2.5502 -1.5557
 1886SOL     vw 7544   0.611   3.147   1.248 -0.3436 -0.8457 -0.7666
 1887SOL     ow 7545   1.480   5.869   1.232 -0.1574 -0.1272 -0.7762
 1887SOL     hw 7546   1.570   5.885   1.205  0.0427 -2.5858 -1.7969
 1887SOL     hw 7547   1.438   5.955   1.225  1.4996  0.6110 -2.7514
 1887SOL     vw 7548   1.486   5.883   1.227  0.0876 -0.3541 -1.1715
 1888SOL     ow 7549   2.395   6.914   2.152 -0.2582  0.4124  0.1646
 1888SOL     hw 7550   2.406   6.852   2.080 -1.8075 -0.6279  0.7814
 1888SOL     hw 7551   2.352   6.989   2.112  0.2617  0.4827 -0.2794
 1888SOL     vw 7552   2.391   6.916   2.137 -0.3940  0.2844  0.1874
 1889SOL     ow 7553   1.291   5.490   1.714  0.4765 -0.5615  0.0697
 1889SOL     hw 7554   1.238   5.562   1.679  0.5861 -1.4759 -2.0907
 1889SOL     hw 7555   1.325   5.524   1.797  0.2901  1.7778 -0.7370
 1889SOL     vw 7556   1.289   5.504   1.721  0.4663 -0.3736 -0.3217
 1890SOL     ow 7557   5.412   4.951   4.057  0.1461  0.0959 -0.4284
 1890SOL     hw 7558   5.360   4.982   3.983 -1.3823 -0.3552  0.3970
 1890SOL     hw 7559   5.368   4.988   4.134  1.4314  0.1895  0.2870
 1890SOL     vw 7560   5.399   4.960   4.058  0.1142  0.0486 -0.2248
 1891SOL     ow 7561   2.569   4.722   4.240 -0.0865 -0.1513  0.0056
 1891SOL     hw 7562   2.620   4.674   4.306  0.9312 -1.9055 -1.9247
 1891SOL     hw 7563   2.489   4.671   4.229  0.1703 -0.4112 -0.7466
 1891SOL     vw 7564   2.565   4.709   4.247  0.0817 -0.4172 -0.3483
 1892SOL     ow 7565   1.629   3.926   6.739  0.0761 -0.4323 -0.7169
 1892SOL     hw 7566   1.623   3.845   6.689  0.6308 -1.1038  0.2870
 1892SOL     hw 7567   1.590   3.905   6.824  0.4538  0.2812 -0.3579
 1892SOL     vw 7568   1.623   3.913   6.743  0.1991 -0.4269 -0.5374
 1893SOL     ow 7569   1.318   3.999   6.595  0.3458 -0.1209  0.5404
 1893SOL     hw 7570   1.281   4.060   6.659  0.0196  0.9771 -0.6411
 1893SOL     hw 7571   1.401   3.970   6.635  0.5229  1.1227  1.1301
 1893SOL     vw 7572   1.324   4.003   6.609  0.3261  0.1879  0.4623
 1894SOL     ow 7573   0.615   6.446   0.786  0.1133  0.8120 -0.1523
 1894SOL     hw 7574   0.535   6.497   0.802  0.3531  0.9999  0.4719
 1894SOL     hw 7575   0.647   6.425   0.873  0.8707  0.9242 -0.4019
 1894SOL     vw 7576   0.608   6.450   0.800  0.2448  0.8516 -0.1029
 1895SOL     ow 7577   4.770   4.052   3.251 -0.3424 -0.0083 -0.2736
 1895SOL     hw 7578   4.827   4.105   3.194  0.5768 -0.2240  0.4242
 1895SOL     hw 7579   4.681   4.078   3.226 -0.0234 -0.7245 -2.4239
 1895SOL     vw 7580   4.766   4.063   3.240 -0.1793 -0.1311 -0.4652
 1896SOL     ow 7581   2.777   6.722   6.297 -0.7191 -0.3345  0.4904
 1896SOL     hw 7582   2.683   6.720   6.316 -0.7753 -0.2901  0.2310
 1896SOL     hw 7583   2.819   6.703   6.380 -0.9385  0.5389  0.8020
 1896SOL     vw 7584   2.770   6.719   6.310 -0.7555 -0.2134  0.4969
 1897SOL     ow 7585   4.814   6.347   1.298  0.2102 -0.0585  0.0732
 1897SOL     hw 7586   4.841   6.317   1.385 -3.1127  0.7708  1.5275
 1897SOL     hw 7587   4.822   6.269   1.243  2.2556 -0.6427  1.0844
 1897SOL     vw 7588   4.819   6.333   1.303  0.0417 -0.0262  0.3985
 1898SOL     ow 7589   5.452   5.713   6.965 -0.4009  0.5935 -0.2632
 1898SOL     hw 7590   5.420   5.628   6.936 -3.6742  1.6070 -0.1025
 1898SOL     hw 7591   5.386   5.742   7.029  0.9850  2.9386  0.2095
 1898SOL     vw 7592   5.439   5.706   6.970 -0.6499  1.0369 -0.1795
 1899SOL     ow 7593   7.070   3.110   0.245  0.0501 -0.1538 -0.2111
 1899SOL     hw 7594   7.121   3.190   0.237 -0.9239  0.3870 -1.2026
 1899SOL     hw 7595   7.105   3.052   0.178  1.1254 -0.7971  0.8650
 1899SOL     vw 7596   7.081   3.113   0.235  0.0634 -0.1673 -0.2000
 1900SOL     ow 7597   6.903   2.508   2.857  0.7869 -0.0770  0.2489
 1900SOL     hw 7598   6.832   2.510   2.921 -0.0795 -1.2343 -0.6279
 1900SOL     hw 7599   6.978   2.474   2.905  0.9258  1.6837  1.3289
 1900SOL     vw 7600   6.903   2.503   2.871  0.6907  0.0027  0.2757
 1901SOL     ow 7601   2.613   3.549   1.334 -0.0340  0.2388 -0.1860
 1901SOL     hw 7602   2.529   3.503   1.322  0.6349 -1.8090  2.2322
 1901SOL     hw 7603   2.603   3.596   1.417  1.1759  0.0353  0.0855
 1901SOL     vw 7604   2.601   3.549   1.343  0.2139 -0.0583  0.1689
 1902SOL     ow 7605   4.299   5.026   5.248  0.1456  0.2808  0.7163
 1902SOL     hw 7606   4.354   5.078   5.307 -0.0901 -1.0750  2.2272
 1902SOL     hw 7607   4.216   5.074   5.245  0.0705  0.2477  1.7397
 1902SOL     vw 7608   4.295   5.040   5.256  0.1047  0.0975  1.0509
 1903SOL     ow 7609   1.565   0.837   2.645  0.2998  0.0827  0.0008
 1903SOL     hw 7610   1.641   0.782   2.662 -0.3202 -0.5535  0.7619
 1903SOL     hw 7611   1.527   0.801   2.565 -0.0360 -0.5358  0.4305
 1903SOL     vw 7612   1.570   0.825   2.637  0.1737 -0.0829  0.1580
 1904SOL     ow 7613   6.350   5.971   0.274 -0.2728 -0.3203  0.2457
 1904SOL     hw 7614   6.258   5.943   0.275  0.2945 -2.4769 -1.2478
 1904SOL     hw 7615   6.384   5.939   0.190  1.8466  0.4791  0.7323
 1904SOL     vw 7616   6.342   5.963   0.263  0.0818 -0.4992  0.1129
 1905SOL     ow 7617   4.293   4.726   4.160  0.6404  0.0823 -0.0908
 1905SOL     hw 7618   4.198   4.740   4.154  0.2311 -1.8243  1.3026
 1905SOL     hw 7619   4.302   4.637   4.191  2.8793  0.7570  1.3815
 1905SOL     vw 7620   4.281   4.716   4.164  0.8817 -0.0801  0.2871
 1906SOL     ow 7621   2.833   3.831   5.774 -0.1576  0.7540 -0.7816
 1906SOL     hw 7622   2.923   3.864   5.781  0.5138 -1.1558  0.2752
 1906SOL     hw 7623   2.844   3.739   5.750 -1.7920  0.2101  0.4240
 1906SOL     vw 7624   2.846   3.824   5.771 -0.2847  0.4305 -0.4830
 1907SOL     ow 7625   3.563   3.413   3.053 -0.2618 -0.5054  0.6375
 1907SOL     hw 7626   3.501   3.478   3.087 -2.5856 -4.0190  3.9657
 1907SOL     hw 7627   3.644   3.429   3.102  0.9326  2.5090 -1.9269
 1907SOL     vw 7628   3.565   3.424   3.064 -0.4109 -0.5711  0.7384
 1908SOL     ow 7629   5.124   7.132   6.826  0.0618  0.0934  0.3221
 1908SOL     hw 7630   5.189   7.202   6.817  2.0616 -1.8962 -2.0567
 1908SOL     hw 7631   5.052   7.158   6.769  1.7178 -0.6178 -2.2633
 1908SOL     vw 7632   5.123   7.145   6.817  0.5441 -0.2627 -0.3328
 1909SOL     ow 7633   2.990   1.077   0.157  0.1636 -0.2008  0.0679
 1909SOL     hw 7634   3.070   1.024   0.154  0.9986  0.7487  2.5577
 1909SOL     hw 7635   2.919   1.014   0.147  1.0753 -0.8715 -4.3145
 1909SOL     vw 7636   2.991   1.062   0.155  0.3941 -0.1640 -0.1818
 1910SOL     ow 7637   3.080   0.802   1.032 -0.2164 -0.1204  0.4398
 1910SOL     hw 7638   3.087   0.736   0.963 -0.7081 -1.2005  1.3836
 1910SOL     hw 7639   3.089   0.752   1.113  0.2107  1.1023  1.1663
 1910SOL     vw 7640   3.082   0.786   1.034 -0.2249 -0.1016  0.6602
 1911SOL     ow 7641   5.715   5.362   3.859 -0.4975 -0.1683  0.1071
 1911SOL     hw 7642   5.753   5.330   3.778 -0.1354 -0.3229  0.3363
 1911SOL     hw 7643   5.621   5.351   3.847 -0.6673  2.2223 -1.3209
 1911SOL     vw 7644   5.708   5.356   3.847 -0.4723  0.1266 -0.0509
 1912SOL     ow 7645   2.950   1.039   1.310  0.3782 -1.1514 -0.2253
 1912SOL     hw 7646   2.950   1.101   1.383 -1.8996 -0.2566 -0.9114
 1912SOL     hw 7647   2.940   0.954   1.351 -0.1060 -0.7372  0.5447
 1912SOL     vw 7648   2.949   1.036   1.325  0.0138 -0.9788 -0.2143
 1913SOL     ow 7649   6.844   0.666   3.267  0.0242  0.0385  0.3804
 1913SOL     hw 7650   6.826   0.739   3.327 -2.2263  2.7931 -3.2273
 1913SOL     hw 7651   6.762   0.618   3.262  0.1729 -0.1414 -0.4756
 1913SOL     vw 7652   6.831   0.669   3.274 -0.2534  0.3782 -0.2086
 1914SOL     ow 7653   0.699   0.732   6.487 -0.5426  0.2061  0.3856
 1914SOL     hw 7654   0.639   0.800   6.457  0.1943  1.5741  1.8165
 1914SOL     hw 7655   0.744   0.772   6.561  1.4788 -1.1009 -0.0713
 1914SOL     vw 7656   0.697   0.746   6.493 -0.1786  0.2142  0.5143
 1915SOL     ow 7657   6.147   5.732   5.599  0.1013 -0.0454 -0.3965
 1915SOL     hw 7658   6.119   5.649   5.562  1.2916 -0.6739  0.0942
 1915SOL     hw 7659   6.188   5.779   5.526  0.6348 -0.4486 -0.3583
 1915SOL     vw 7660   6.148   5.727   5.584  0.3288 -0.1812 -0.3266
 1916SOL     ow 7661   0.971   3.378   6.631 -0.3092  0.2442 -0.7178
 1916SOL     hw 7662   0.996   3.311   6.694 -0.4027  0.8837  0.0148
 1916SOL     hw 7663   0.881   3.358   6.608 -0.5962  0.5782  0.1041
 1916SOL     vw 7664   0.963   3.367   6.636 -0.3594  0.3725 -0.5124
 1917SOL     ow 7665   2.918   1.155   0.995  0.1569 -0.0831  0.5611
 1917SOL     hw 7666   2.862   1.103   0.938  1.6001 -2.3022  1.0464
 1917SOL     hw 7667   2.909   1.114   1.081  2.2052 -0.3168  0.7164
 1917SOL     vw 7668   2.909   1.143   0.999  0.6175 -0.4067  0.6456
 1918SOL     ow 7669   5.207   0.229   4.657 -0.4905  0.0521 -0.0741
 1918SOL     hw 7670   5.115   0.219   4.681  0.0791 -0.9877  1.9270
 1918SOL     hw 7671   5.253   0.164   4.710  1.1869 -1.1120 -2.7340
 1918SOL     vw 7672   5.201   0.219   4.667 -0.1938 -0.2387 -0.1612
 1919SOL     ow 7673   4.183   2.401   0.862  0.8786 -0.4162  0.1928
 1919SOL     hw 7674   4.093   2.431   0.877  1.2669  0.6220  0.5054
 1919SOL     hw 7675   4.181   2.308   0.887  0.0664 -0.2275  0.8884
 1919SOL     vw 7676   4.171   2.392   0.868  0.8228 -0.2544  0.3258
 1920SOL     ow 7677   2.267   0.261   0.495  0.2081 -0.1867 -0.5075
 1920SOL     hw 7678   2.278   0.203   0.420  1.7394 -2.1714  1.1665
 1920SOL     hw 7679   2.355   0.293   0.515  0.1100 -0.9530  1.3755
 1920SOL     vw 7680   2.280   0.258   0.488  0.3971 -0.5496 -0.0382
 1921SOL     ow 7681   6.056   4.700   1.227 -0.5199  0.0446  1.2242
 1921SOL     hw 7682   6.011   4.752   1.160 -0.6184  0.2916  1.4826
 1921SOL     hw 7683   6.120   4.760   1.265  1.2685 -0.7723 -0.3191
 1921SOL     vw 7684   6.059   4.715   1.223 -0.2968 -0.0305  1.0547
 1922SOL     ow 7685   6.318   4.775   0.449  0.7107 -0.4653 -0.4091
 1922SOL     hw 7686   6.303   4.869   0.440  1.5032 -0.3323 -0.4651
 1922SOL     hw 7687   6.412   4.764   0.433  1.1065 -0.9621  1.8909
 1922SOL     vw 7688   6.328   4.786   0.446  0.8674 -0.5133 -0.1131
 1923SOL     ow 7689   1.443   1.152   3.040  0.2267 -1.2046  0.8190
 1923SOL     hw 7690   1.378   1.137   3.109 -2.2084  1.3967 -0.7373
 1923SOL     hw 7691   1.458   1.246   3.041  3.5678 -1.5980  0.5918
 1923SOL     vw 7692   1.436   1.162   3.049  0.3462 -0.9133  0.5839
 1924SOL     ow 7693   5.114   1.966   2.280  0.5004  0.1753  0.0052
 1924SOL     hw 7694   5.162   1.884   2.292  2.5781  1.3377  0.0915
 1924SOL     hw 7695   5.162   2.030   2.332 -1.5014  1.3483  0.5353
 1924SOL     vw 7696   5.127   1.964   2.289  0.5105  0.4834  0.0865
 1925SOL     ow 7697   6.445   3.042   4.882  0.4366 -0.3696  0.9570
 1925SOL     hw 7698   6.490   3.105   4.938 -0.1821  0.2118  0.8156
 1925SOL     hw 7699   6.352   3.060   4.897  0.2317  0.6409 -1.1736
 1925SOL     vw 7700   6.438   3.053   4.891  0.3278 -0.1596  0.6573
 1926SOL     ow 7701   5.486   4.946   0.551 -0.7247  0.4363  0.0338
 1926SOL     hw 7702   5.573   4.977   0.524 -0.3545 -0.6566 -0.0919
 1926SOL     hw 7703   5.504   4.869   0.605 -1.6269 -0.4563 -0.8822
 1926SOL     vw 7704   5.500   4.940   0.554 -0.7946  0.1743 -0.1036
 1927SOL     ow 7705   5.636   6.485   1.929 -0.7228  0.2562  0.9447
 1927SOL     hw 7706   5.662   6.402   1.968 -1.2594 -0.2014  0.3539
 1927SOL     hw 7707   5.699   6.548   1.963  0.7196 -0.6833  0.1213
 1927SOL     vw 7708   5.648   6.482   1.938 -0.6034  0.0720  0.7582
 1928SOL     ow 7709   4.129   6.267   4.369  0.1335  0.6440 -0.1327
 1928SOL     hw 7710   4.176   6.229   4.295 -2.1596 -1.0745 -0.8365
 1928SOL     hw 7711   4.061   6.322   4.329 -0.9713 -0.0995  0.6627
 1928SOL     vw 7712   4.126   6.269   4.354 -0.3147  0.3192 -0.1209
 1929SOL     ow 7713   2.268   3.065   3.038  0.2283  0.3659  0.0797
 1929SOL     hw 7714   2.352   3.022   3.019  0.4725  1.1952 -0.8441
 1929SOL     hw 7715   2.203   3.014   2.989  0.6073  1.3743 -1.5820
 1929SOL     vw 7716   2.271   3.053   3.029  0.3104  0.6083 -0.2614
 1930SOL     ow 7717   3.361   4.820   1.359  0.2624 -0.3418  0.2387
 1930SOL     hw 7718   3.300   4.891   1.379  0.8428  0.3727 -0.4183
 1930SOL     hw 7719   3.387   4.837   1.268  0.1698 -1.5873 -0.0303
 1930SOL     vw 7720   3.357   4.832   1.349  0.3266 -0.4117  0.1165
 1931SOL     ow 7721   0.107   0.690   2.634 -0.2042  0.3436 -0.5319
 1931SOL     hw 7722   0.029   0.745   2.643 -0.8853 -0.8195  1.4093
 1931SOL     hw 7723   0.074   0.606   2.601  0.3075  0.0180 -0.2360
 1931SOL     vw 7724   0.093   0.686   2.631 -0.2265  0.1472 -0.2367
 1932SOL     ow 7725   6.128   6.024   5.639  0.2684 -0.6784 -0.1057
 1932SOL     hw 7726   6.113   6.016   5.545 -0.9157 -0.0878  0.0149
 1932SOL     hw 7727   6.171   6.109   5.649 -1.2323  0.1064  0.0207
 1932SOL     vw 7728   6.132   6.034   5.628 -0.0858 -0.4969 -0.0732
 1933SOL     ow 7729   6.036   1.974   1.211  0.1224  0.2606  0.0127
 1933SOL     hw 7730   6.009   2.017   1.130 -0.2061  1.3860  0.7044
 1933SOL     hw 7731   6.087   2.041   1.258  2.5298 -1.1697 -0.3843
 1933SOL     vw 7732   6.039   1.989   1.207  0.3967  0.2204  0.0516
 1934SOL     ow 7733   1.864   6.569   7.060 -0.6837 -0.3826  0.4551
 1934SOL     hw 7734   1.891   6.493   7.007  2.5557  0.2116  1.0859
 1934SOL     hw 7735   1.770   6.556   7.073 -0.2997 -4.3330  0.5714
 1934SOL     vw 7736   1.855   6.557   7.054 -0.2057 -0.8254  0.5538
 1935SOL     ow 7737   7.196   5.081   6.846  0.1598 -0.5488  0.6153
 1935SOL     hw 7738   7.227   5.156   6.897  0.8956 -1.1906  1.1248
 1935SOL     hw 7739   7.257   5.011   6.867 -0.8334 -1.4488  0.5463
 1935SOL     vw 7740   7.208   5.082   6.855  0.1259 -0.7522  0.6735
 1936SOL     ow 7741   0.385   5.329   2.379 -0.4969 -0.9384 -0.2388
 1936SOL     hw 7742   0.463   5.363   2.336  0.1006  1.1137  2.1950
 1936SOL     hw 7743   0.347   5.405   2.424 -2.1844 -2.4780  1.1169
 1936SOL     vw 7744   0.390   5.343   2.379 -0.6407 -0.8709  0.2612
 1937SOL     ow 7745   2.199   5.084   2.291 -0.1629 -0.0574 -0.4972
 1937SOL     hw 7746   2.161   5.156   2.241  1.5961  0.2670 -1.4251
 1937SOL     hw 7747   2.276   5.122   2.334  1.2484 -1.5090 -1.6108
 1937SOL     vw 7748   2.204   5.099   2.290  0.2555 -0.2058 -0.7666
 1938SOL     ow 7749   5.902   3.000   1.500  0.3463  0.1669 -0.7563
 1938SOL     hw 7750   5.933   3.079   1.455  0.2177  0.1304 -0.9082
 1938SOL     hw 7751   5.867   3.032   1.583  0.6572  0.2253 -0.6438
 1938SOL     vw 7752   5.902   3.014   1.505  0.3703  0.1698 -0.7615
 1939SOL     ow 7753   2.184   5.274   1.885  0.6988 -0.5627  0.0134
 1939SOL     hw 7754   2.274   5.298   1.863  0.9037 -1.2837  0.0406
 1939SOL     hw 7755   2.158   5.214   1.816 -1.3380  2.9394 -2.5950
 1939SOL     vw 7756   2.192   5.269   1.873  0.4572 -0.1957 -0.3272
 1940SOL     ow 7757   4.228   0.062   3.156  0.1445 -0.0466  0.1797
 1940SOL     hw 7758   4.261  -0.016   3.202  2.5620  0.7294 -0.0945
 1940SOL     hw 7759   4.255   0.135   3.212 -1.5755  0.6701  0.1324
 1940SOL     vw 7760   4.236   0.061   3.170  0.2365  0.1503  0.1373
 1941SOL     ow 7761   5.912   0.358   3.041  0.0750 -0.3951 -0.1813
 1941SOL     hw 7762   5.946   0.372   2.952  0.6118 -2.3941 -0.3252
 1941SOL     hw 7763   5.982   0.390   3.098 -0.4282  1.2546 -0.4405
 1941SOL     vw 7764   5.926   0.364   3.037  0.0794 -0.4412 -0.2345
 1942SOL     ow 7765   6.127   0.889   1.249 -0.8267 -0.4047 -0.8193
 1942SOL     hw 7766   6.153   0.835   1.174  0.3062 -1.1344  0.0620
 1942SOL     hw 7767   6.201   0.948   1.263 -2.2604  1.8375 -2.1006
 1942SOL     vw 7768   6.140   0.890   1.241 -0.8662 -0.2051 -0.8721
 1943SOL     ow 7769   5.100   4.128   1.430  0.1632  0.5107 -0.0907
 1943SOL     hw 7770   5.101   4.047   1.482  1.3948  1.7011  1.8553
 1943SOL     hw 7771   5.186   4.130   1.387  0.2265  0.9028  0.0538
 1943SOL     vw 7772   5.112   4.117   1.431  0.3343  0.7195  0.1851
 1944SOL     ow 7773   1.810   6.003   1.605  0.9248 -0.1671  0.4415
 1944SOL     hw 7774   1.800   6.087   1.561  0.7757 -1.2596 -1.7426
 1944SOL     hw 7775   1.723   5.984   1.642  1.1713  0.9707  1.6964
 1944SOL     vw 7776   1.797   6.011   1.604  0.9377 -0.1609  0.3189
 1945SOL     ow 7777   5.097   4.960   2.885 -0.3325 -0.3358 -0.4146
 1945SOL     hw 7778   5.157   5.025   2.849  0.0938 -0.0584  0.7449
 1945SOL     hw 7779   5.048   5.008   2.952 -0.7448 -0.9570 -0.2643
 1945SOL     vw 7780   5.098   4.975   2.889 -0.3304 -0.3815 -0.2418
 1946SOL     ow 7781   2.087   1.929   6.729  0.2032 -0.5889  0.8679
 1946SOL     hw 7782   2.022   1.983   6.685 -0.4818 -1.6410  0.5568
 1946SOL     hw 7783   2.072   1.841   6.695  1.8416 -0.8450  0.7343
 1946SOL     vw 7784   2.077   1.925   6.719  0.3291 -0.7614  0.8092
 1947SOL     ow 7785   6.765   3.833   2.628 -0.0677  0.2420  0.4590
 1947SOL     hw 7786   6.688   3.887   2.611  0.7805  1.2349 -0.3250
 1947SOL     hw 7787   6.729   3.745   2.642 -1.2799  0.5370 -0.6017
 1947SOL     vw 7788   6.750   3.829   2.628 -0.1159  0.4120  0.2155
 1948SOL     ow 7789   0.834   5.123   5.878 -0.4621 -0.3575 -0.3816
 1948SOL     hw 7790   0.858   5.207   5.839 -2.9623 -0.2677 -1.9150
 1948SOL     hw 7791   0.781   5.146   5.954 -1.0652 -0.5406 -0.7432
 1948SOL     vw 7792   0.830   5.137   5.883 -0.8715 -0.3698 -0.6316
 1949SOL     ow 7793   5.508   4.204   5.982  0.2542 -0.0482  0.8135
 1949SOL     hw 7794   5.442   4.144   6.016  0.5351  0.3068  2.0287
 1949SOL     hw 7795   5.576   4.147   5.947  0.3855 -0.4420  1.6890
 1949SOL     vw 7796   5.508   4.189   5.982  0.3085 -0.0534  1.0891
 1950SOL     ow 7797   0.255   1.047   5.026  0.4693  0.1567  0.2178
 1950SOL     hw 7798   0.346   1.064   5.002  0.2328  1.0834 -0.0783
 1950SOL     hw 7799   0.245   0.952   5.020  0.4263  0.2614 -3.4530
 1950SOL     vw 7800   0.265   1.037   5.022  0.4325  0.2928 -0.3057
 1951SOL     ow 7801   4.301   7.193   0.890  0.0667  0.0378  0.8679
 1951SOL     hw 7802   4.343   7.170   0.973  1.3076  3.2919  1.2835
 1951SOL     hw 7803   4.208   7.192   0.908  0.3123  0.4040  2.2147
 1951SOL     vw 7804   4.294   7.190   0.903  0.2627  0.5150  1.1004
 1952SOL     ow 7805   6.959   3.637   5.597  0.0105  0.0574 -0.2607
 1952SOL     hw 7806   6.987   3.710   5.651 -0.5777  0.0378  0.0868
 1952SOL     hw 7807   6.881   3.603   5.642  0.1847 -0.6815 -0.4995
 1952SOL     vw 7808   6.952   3.642   5.610 -0.0439 -0.0426 -0.2463
 1953SOL     ow 7809   1.743   4.860   6.356  0.2654  0.9993 -0.0051
 1953SOL     hw 7810   1.715   4.774   6.324  0.1270  1.0250  0.0507
 1953SOL     hw 7811   1.805   4.891   6.289 -0.8640  1.5481 -0.8257
 1953SOL     vw 7812   1.748   4.853   6.343  0.0981  1.0753 -0.1061
 1954SOL     ow 7813   1.498   4.354   6.564  0.1621 -0.0362 -0.4799
 1954SOL     hw 7814   1.412   4.395   6.561  0.1270 -0.1077 -0.4459
 1954SOL     hw 7815   1.533   4.365   6.475 -0.8768 -2.1364 -1.2231
 1954SOL     vw 7816   1.492   4.361   6.552  0.0204 -0.3226 -0.5736
 1955SOL     ow 7817   0.062   2.307   3.982 -0.4681 -0.9445 -0.5215
 1955SOL     hw 7818   0.145   2.342   3.948  0.1038 -1.1764  0.5790
 1955SOL     hw 7819   0.022   2.264   3.907 -0.6132  0.9732 -1.6201
 1955SOL     vw 7820   0.068   2.306   3.967 -0.4118 -0.7221 -0.5213
 1956SOL     ow 7821   4.829   0.715   5.320  0.0334 -0.2767 -0.1275
 1956SOL     hw 7822   4.878   0.685   5.244  1.0971  0.9655  0.0225
 1956SOL     hw 7823   4.775   0.640   5.346 -1.7193 -0.2051 -3.1290
 1956SOL     vw 7824   4.828   0.701   5.314 -0.0577 -0.1033 -0.5035
 1957SOL     ow 7825   6.855   2.481   5.744 -0.4362 -0.2545 -0.2281
 1957SOL     hw 7826   6.876   2.512   5.657  0.7220  1.0565  0.4854
 1957SOL     hw 7827   6.850   2.385   5.735 -0.8047 -0.1152 -1.7906
 1957SOL     vw 7828   6.857   2.472   5.732 -0.3321 -0.0632 -0.3400
 1958SOL     ow 7829   1.935   5.627   1.467  0.6526  0.2226  0.1117
 1958SOL     hw 7830   1.847   5.595   1.487  0.1507 -0.7322 -3.0286
 1958SOL     hw 7831   1.991   5.589   1.534 -1.1843  0.1928  1.7006
 1958SOL     vw 7832   1.931   5.618   1.478  0.3439  0.0927 -0.0930
 1959SOL     ow 7833   5.775   6.311   2.573 -0.3257 -0.4117  0.1843
 1959SOL     hw 7834   5.687   6.288   2.601 -0.9679 -0.1532 -1.4852
 1959SOL     hw 7835   5.822   6.330   2.654 -1.9462 -0.0642  1.0907
 1959SOL     vw 7836   5.769   6.311   2.587 -0.6242 -0.3319  0.0836
 1960SOL     ow 7837   4.091   4.377   3.799 -0.5298  0.4930  0.1684
 1960SOL     hw 7838   4.133   4.291   3.799  0.5954  1.0147  0.7822
 1960SOL     hw 7839   4.045   4.382   3.882  2.8465  2.0073  2.1767
 1960SOL     vw 7840   4.091   4.367   3.810  0.0644  0.7615  0.5144
 1961SOL     ow 7841   0.072   4.367   2.817 -0.3908 -0.1951  0.0490
 1961SOL     hw 7842  -0.019   4.382   2.791 -0.9474 -0.2672  1.7927
 1961SOL     hw 7843   0.087   4.429   2.888  0.9452 -0.1616 -0.2431
 1961SOL     vw 7844   0.062   4.377   2.823 -0.2879 -0.2003  0.2406
 1962SOL     ow 7845   2.709   3.669   0.394  0.5846  0.1269 -0.1451
 1962SOL     hw 7846   2.755   3.749   0.369 -2.1488  2.2981  1.2642
 1962SOL     hw 7847   2.772   3.622   0.450  0.6155  4.0869  3.7478
 1962SOL     vw 7848   2.724   3.673   0.398  0.2280  0.9358  0.5545
 1963SOL     ow 7849   2.336   0.022   2.804 -0.1508  0.3085  0.0807
 1963SOL     hw 7850   2.352  -0.028   2.884 -0.0177  1.5107  0.8176
 1963SOL     hw 7851   2.420   0.023   2.759 -0.8108 -2.7373 -1.5295
 1963SOL     vw 7852   2.349   0.015   2.809 -0.2204  0.0652 -0.0346
 1964SOL     ow 7853   0.994   3.113   0.327  0.3467  0.2669 -0.1938
 1964SOL     hw 7854   1.011   3.195   0.281 -2.5584  0.1892 -1.6351
 1964SOL     hw 7855   1.037   3.046   0.274  1.6277  0.6743  0.2820
 1964SOL     vw 7856   1.002   3.115   0.314  0.1324  0.3104 -0.3212
 1965SOL     ow 7857   3.878   5.076   0.374  0.0432  0.4851 -0.1686
 1965SOL     hw 7858   3.939   5.129   0.323 -0.5987  1.5655  0.1752
 1965SOL     hw 7859   3.840   5.136   0.437  0.4912 -0.7364  1.3317
 1965SOL     vw 7860   3.881   5.091   0.375  0.0178  0.4663  0.0747
 1966SOL     ow 7861   0.989   0.976   4.324 -0.3378  0.0860 -1.0043
 1966SOL     hw 7862   0.908   0.932   4.349 -0.5822  1.2095  0.3232
 1966SOL     hw 7863   0.995   0.965   4.229 -1.0543 -1.6325 -0.8759
 1966SOL     vw 7864   0.979   0.969   4.315 -0.4646  0.0075 -0.8121
 1967SOL     ow 7865   3.149   3.433   6.220  0.5492  0.4754 -0.0592
 1967SOL     hw 7866   3.229   3.465   6.263  0.2341 -0.1286  1.0048
 1967SOL     hw 7867   3.086   3.423   6.291 -0.0823 -0.2676 -0.7138
 1967SOL     vw 7868   3.151   3.436   6.235  0.4243  0.2977 -0.0055
 1968SOL     ow 7869   3.925   1.080   6.549  0.1668  0.3475  0.2021
 1968SOL     hw 7870   4.006   1.031   6.566 -0.2255  0.5107  3.0299
 1968SOL     hw 7871   3.939   1.164   6.592 -0.7095  1.2097 -1.1522
 1968SOL     vw 7872   3.938   1.085   6.557 -0.0005  0.4827  0.3965
 1969SOL     ow 7873   4.426   6.956   4.586  0.3697  0.5510  0.0945
 1969SOL     hw 7874   4.343   6.910   4.576  0.2214  1.2078 -2.1347
 1969SOL     hw 7875   4.416   7.005   4.667 -0.7356 -0.7092  0.7664
 1969SOL     vw 7876   4.414   6.956   4.595  0.2041  0.4711 -0.1111
 1970SOL     ow 7877   0.397   5.207   4.459  0.9357 -0.3085  0.2197
 1970SOL     hw 7878   0.450   5.265   4.404 -1.5345 -1.6305 -4.0303
 1970SOL     hw 7879   0.430   5.119   4.441 -0.9471 -0.9185 -0.5256
 1970SOL     vw 7880   0.408   5.203   4.449  0.3614 -0.5631 -0.4394
 1971SOL     ow 7881   0.040   5.729   1.158  0.7390 -0.8087  0.2076
 1971SOL     hw 7882  -0.051   5.724   1.128  0.1178 -2.8295  2.1255
 1971SOL     hw 7883   0.057   5.822   1.167 -1.1531 -0.3748 -0.1572
 1971SOL     vw 7884   0.030   5.740   1.155  0.4074 -1.0180  0.4125
 1972SOL     ow 7885   1.386   6.550   1.853  0.5895  0.4035 -0.4309
 1972SOL     hw 7886   1.451   6.560   1.922 -1.4369 -1.9593  2.1016
 1972SOL     hw 7887   1.367   6.639   1.824  0.1497  1.8067  3.5758
 1972SOL     vw 7888   1.392   6.563   1.858  0.2640  0.2770  0.4318
 1973SOL     ow 7889   1.840   0.967   7.174  0.4927 -0.4042 -0.0368
 1973SOL     hw 7890   1.869   1.057   7.162  4.1711 -1.3029  0.7743
 1973SOL     hw 7891   1.753   0.964   7.135  1.2228  2.8860 -2.3016
 1973SOL     vw 7892   1.832   0.979   7.168  1.0743 -0.0887 -0.2286
 1974SOL     ow 7893   5.140   4.176   0.561 -0.0926 -0.5702  0.3668
 1974SOL     hw 7894   5.154   4.266   0.532  0.5099 -0.5959  0.5600
 1974SOL     hw 7895   5.073   4.183   0.629  0.3935 -0.1907  0.8112
 1974SOL     vw 7896   5.133   4.189   0.566  0.0510 -0.5238  0.4509
 1975SOL     ow 7897   2.786   5.868   7.069 -0.4758 -0.0842  0.8350
 1975SOL     hw 7898   2.837   5.791   7.042  1.1184  0.8087  1.2009
 1975SOL     hw 7899   2.779   5.860   7.164 -0.0145  0.3807  0.9119
 1975SOL     vw 7900   2.792   5.857   7.078 -0.2047  0.0951  0.8934
 1976SOL     ow 7901   1.682   4.168   6.651  0.0572  0.4133  0.2479
 1976SOL     hw 7902   1.608   4.202   6.600  0.5311  0.9757 -0.0754
 1976SOL     hw 7903   1.655   4.080   6.677  0.9838 -1.2304 -3.6085
 1976SOL     vw 7904   1.669   4.161   6.648  0.2420  0.2706 -0.3035
 1977SOL     ow 7905   4.058   1.717   0.956  0.4151  0.5830  0.1788
 1977SOL     hw 7906   4.001   1.680   0.888 -0.0491  1.4287  0.0880
 1977SOL     hw 7907   4.140   1.668   0.948  0.7868  1.4055 -1.7595
 1977SOL     vw 7908   4.061   1.706   0.946  0.4032  0.8031 -0.0889
 1978SOL     ow 7909   0.176   1.337   5.137  0.6775 -0.0183 -0.5535
 1978SOL     hw 7910   0.211   1.343   5.227  2.5923 -2.0411 -1.0693
 1978SOL     hw 7911   0.174   1.428   5.107  1.9732  0.5386  0.8563
 1978SOL     vw 7912   0.181   1.350   5.145  1.1011 -0.2117 -0.4354
 1979SOL     ow 7913   7.013   7.033   1.900  0.0675 -0.0372  0.1494
 1979SOL     hw 7914   6.935   7.023   1.846 -0.3973  2.4824  0.2488
 1979SOL     hw 7915   7.001   6.970   1.972 -1.2866 -0.5090 -0.4700
 1979SOL     vw 7916   7.001   7.023   1.903 -0.1721  0.2332  0.0808
 1980SOL     ow 7917   0.913   0.523   6.446  0.7977  0.2968  0.1398
 1980SOL     hw 7918   0.908   0.427   6.447  1.6167  0.2076  2.3140
 1980SOL     hw 7919   1.007   0.541   6.439  0.9796  0.7997  2.7202
 1980SOL     vw 7920   0.925   0.512   6.445  0.9297  0.3514  0.7672
 1981SOL     ow 7921   5.389   0.178   3.293  0.1174 -0.6789 -0.3831
 1981SOL     hw 7922   5.386   0.104   3.232 -1.8259  0.2601 -1.5225
 1981SOL     hw 7923   5.302   0.217   3.289  1.1436  1.8798 -0.0821
 1981SOL     vw 7924   5.377   0.174   3.284 -0.0038 -0.2174 -0.4936
 1982SOL     ow 7925   3.812   1.623   0.823  0.6523  0.1779 -0.2172
 1982SOL     hw 7926   3.725   1.654   0.798  1.2062 -1.2064 -4.8467
 1982SOL     hw 7927   3.795   1.553   0.886 -1.4813  0.6978 -0.1192
 1982SOL     vw 7928   3.798   1.618   0.828  0.4439  0.0638 -0.8151
 1983SOL     ow 7929   1.080   2.111   2.604  0.0915  0.1673 -0.1282
 1983SOL     hw 7930   1.159   2.125   2.655  2.1728 -1.7222 -2.5534
 1983SOL     hw 7931   1.078   2.183   2.541 -1.2012  1.2128  1.0369
 1983SOL     vw 7932   1.090   2.122   2.602  0.1955  0.0559 -0.2943
 1984SOL     ow 7933   2.881   7.038   0.669  0.1415 -0.5904 -0.2408
 1984SOL     hw 7934   2.953   7.016   0.728  0.7178  1.4089 -0.1070
 1984SOL     hw 7935   2.904   6.995   0.586  1.5334  0.0168 -0.2024
 1984SOL     vw 7936   2.894   7.029   0.666  0.4013 -0.2463 -0.2181
 1985SOL     ow 7937   1.626   4.996   7.042  0.2746  0.1554 -0.1053
 1985SOL     hw 7938   1.578   5.034   7.115  0.6343  2.2965 -0.9070
 1985SOL     hw 7939   1.717   4.994   7.071  0.4343  1.1154 -0.5079
 1985SOL     vw 7940   1.632   5.001   7.055  0.3431  0.5643 -0.2644
 1986SOL     ow 7941   5.637   2.060   1.123  0.5006 -0.2030  0.2850
 1986SOL     hw 7942   5.586   2.127   1.169  1.6746  0.0858  1.2168
 1986SOL     hw 7943   5.611   2.069   1.031 -1.0174  0.0010  0.7227
 1986SOL     vw 7944   5.627   2.070   1.117  0.4551 -0.1378  0.4657
 1987SOL     ow 7945   2.930   3.443   4.112  0.6395  0.3439  0.5147
 1987SOL     hw 7946   2.883   3.439   4.195  0.9893  0.2836  0.7125
 1987SOL     hw 7947   2.915   3.358   4.071 -0.7538  0.8877 -0.1647
 1987SOL     vw 7948   2.922   3.431   4.117  0.5018  0.4078  0.4513
 1988SOL     ow 7949   0.187   3.859   1.589 -0.2329 -0.6111 -0.5448
 1988SOL     hw 7950   0.131   3.839   1.664 -2.6785  2.1016 -1.4471
 1988SOL     hw 7951   0.224   3.775   1.562 -2.2603 -2.2210  1.3999
 1988SOL     vw 7952   0.185   3.845   1.595 -0.8230 -0.4655 -0.4072
 1989SOL     ow 7953   2.657   0.611   6.053 -0.0034  0.5571 -0.7645
 1989SOL     hw 7954   2.647   0.625   5.958  0.1637 -0.7610 -0.9904
 1989SOL     hw 7955   2.600   0.677   6.092 -1.0348  0.3446 -1.8179
 1989SOL     vw 7956   2.648   0.622   6.045 -0.1174  0.3551 -0.9334
 1990SOL     ow 7957   5.967   3.179   7.211  0.1004 -0.3043  0.5177
 1990SOL     hw 7958   5.994   3.166   7.120  1.9898  1.2336  0.7838
 1990SOL     hw 7959   6.010   3.108   7.258 -0.3336 -0.7119  0.3042
 1990SOL     vw 7960   5.976   3.168   7.205  0.2925 -0.1552  0.5245
 1991SOL     ow 7961   0.451   5.761   6.958 -0.0285 -0.3566 -0.1968
 1991SOL     hw 7962   0.443   5.821   6.884 -1.7968  0.8786  0.9086
 1991SOL     hw 7963   0.414   5.679   6.927 -1.1592  0.2776 -0.5836
 1991SOL     vw 7964   0.445   5.758   6.944 -0.4110 -0.1101 -0.1020
 1992SOL     ow 7965   1.874   4.210   5.441  0.6241  1.1095 -0.4318
 1992SOL     hw 7966   1.963   4.212   5.406  1.3545  1.4448  1.3289
 1992SOL     hw 7967   1.883   4.243   5.531 -0.9805 -0.5881  0.4168
 1992SOL     vw 7968   1.887   4.214   5.448  0.5087  0.9296 -0.0875
 1993SOL     ow 7969   0.382   0.716   2.438 -0.2516 -0.3874  0.0970
 1993SOL     hw 7970   0.442   0.765   2.382 -0.1980  1.0551  1.3371
 1993SOL     hw 7971   0.357   0.640   2.386  0.7006  0.2745 -1.4045
 1993SOL     vw 7972   0.386   0.713   2.424 -0.1189 -0.1098  0.0625
 1994SOL     ow 7973   6.307   3.502   4.384 -0.2070 -0.5121 -0.1911
 1994SOL     hw 7974   6.222   3.495   4.427 -0.6419 -1.5191 -1.1720
 1994SOL     hw 7975   6.312   3.593   4.354 -2.1670 -1.0949 -2.5447
 1994SOL     vw 7976   6.297   3.513   4.386 -0.5229 -0.7219 -0.6309
 1995SOL     ow 7977   2.805   4.885   4.132 -0.7731  1.3686 -0.3985
 1995SOL     hw 7978   2.833   4.854   4.045 -0.7523  2.3012 -0.7314
 1995SOL     hw 7979   2.720   4.843   4.145  0.5961 -1.3822  0.5605
 1995SOL     vw 7980   2.797   4.875   4.122 -0.5896  1.1284 -0.3159
 1996SOL     ow 7981   5.725   7.152   0.186  0.5786 -0.4754 -0.3990
 1996SOL     hw 7982   5.639   7.176   0.220  1.0941  0.3931  0.3356
 1996SOL     hw 7983   5.768   7.235   0.165  0.7248 -0.9457 -2.1124
 1996SOL     vw 7984   5.720   7.166   0.188  0.6659 -0.4230 -0.5281
 1997SOL     ow 7985   0.596   5.580   3.849 -0.3352  0.6332  0.1125
 1997SOL     hw 7986   0.553   5.646   3.794 -2.1130 -1.5065 -1.2628
 1997SOL     hw 7987   0.559   5.593   3.936 -3.6215 -0.7957 -0.9220
 1997SOL     vw 7988   0.585   5.590   3.853 -1.0033  0.1626 -0.2054
 1998SOL     ow 7989   0.618   1.158   6.489 -0.2549 -0.2866  0.2900
 1998SOL     hw 7990   0.705   1.177   6.525 -1.2706 -0.2288  2.9112
 1998SOL     hw 7991   0.588   1.241   6.453  0.4027 -0.0882  0.1865
 1998SOL     vw 7992   0.625   1.171   6.489 -0.3022 -0.2528  0.6220
 1999SOL     ow 7993   3.028   1.459   1.091  0.0557 -0.8073  0.6259
 1999SOL     hw 7994   3.119   1.483   1.069  0.2389 -1.2331  0.9093
 1999SOL     hw 7995   3.022   1.474   1.186  0.5994 -3.1665  1.0936
 1999SOL     vw 7996   3.039   1.464   1.101  0.1518 -1.1747  0.7250
 2000SOL     ow 7997   1.317   6.279   5.866  0.0354  0.2670 -0.2172
 2000SOL     hw 7998   1.252   6.329   5.817 -1.3401 -1.2776 -0.0780
 2000SOL     hw 7999   1.265   6.225   5.926  1.5928  1.0244  1.9298
 2000SOL     vw 8000   1.302   6.278   5.867  0.0594  0.1631  0.0844
 2001SOL     ow 8001   0.851   6.710   7.187  0.3974 -0.5182  0.2563
 2001SOL     hw 8002   0.785   6.641   7.179 -0.1718  0.1138 -0.6382
 2001SOL     hw 8003   0.877   6.708   7.279 -0.2543 -1.3381  0.4301
 2001SOL     vw 8004   0.846   6.701   7.198  0.2363 -0.5431  0.1612
 2002SOL     ow 8005   5.750   2.777   4.514  0.4660  0.1114  0.3135
 2002SOL     hw 8006   5.820   2.765   4.579  0.4893 -2.6627 -0.1048
 2002SOL     hw 8007   5.788   2.745   4.432 -1.0370 -0.8180 -0.0619
 2002SOL     vw 8008   5.764   2.771   4.512  0.2708 -0.3773  0.2089
 2003SOL     ow 8009   5.486   6.324   5.510  0.3276 -0.1334  0.4827
 2003SOL     hw 8010   5.433   6.247   5.533 -0.2711  0.4592  1.1150
 2003SOL     hw 8011   5.471   6.337   5.417  1.0405 -1.2376  0.1840
 2003SOL     vw 8012   5.477   6.315   5.501  0.3426 -0.2010  0.5267
 2004SOL     ow 8013   1.325   5.060   1.897 -0.2285 -0.6378  0.7982
 2004SOL     hw 8014   1.327   5.028   1.987  1.2594 -2.8946  0.0437
 2004SOL     hw 8015   1.302   4.984   1.844 -0.0164  0.3675 -0.8286
 2004SOL     vw 8016   1.322   5.046   1.902 -0.0043 -0.8030  0.4840
 2005SOL     ow 8017   4.254   3.135   6.232  0.1883  0.0251  0.5752
 2005SOL     hw 8018   4.348   3.133   6.251  0.3195 -0.6497 -0.0978
 2005SOL     hw 8019   4.220   3.207   6.285  0.8785 -0.4982  1.7527
 2005SOL     vw 8020   4.262   3.144   6.241  0.2966 -0.1330  0.6421
 2006SOL     ow 8021   5.071   5.010   0.824 -0.2499 -0.8192  0.0731
 2006SOL     hw 8022   5.005   5.006   0.755 -0.1211 -0.4633 -0.0738
 2006SOL     hw 8023   5.102   5.101   0.822  0.7366 -1.1530 -0.3185
 2006SOL     vw 8024   5.066   5.022   0.815 -0.1028 -0.8163  0.0020
 2007SOL     ow 8025   0.077   0.451   2.534 -0.1786  0.0045 -0.4080
 2007SOL     hw 8026  -0.010   0.418   2.559  0.0973  0.0227  0.6155
 2007SOL     hw 8027   0.136   0.413   2.599  0.8350 -1.3270 -2.0467
 2007SOL     vw 8028   0.073   0.442   2.546 -0.0085 -0.1687 -0.4891
 2008SOL     ow 8029   5.861   7.207   3.338  0.1757  0.6009  0.6075
 2008SOL     hw 8030   5.899   7.294   3.352 -1.7625  1.2271  2.5751
 2008SOL     hw 8031   5.793   7.221   3.271  0.9577  0.2072 -0.3024
 2008SOL     vw 8032   5.857   7.220   3.331  0.0226  0.6313  0.7470
 2009SOL     ow 8033   3.567   0.411   1.984  0.6250 -0.4566  0.1454
 2009SOL     hw 8034   3.650   0.364   1.993  0.2966 -0.9219  0.7968
 2009SOL     hw 8035   3.578   0.463   1.904  2.3617  1.1646  1.3194
 2009SOL     vw 8036   3.580   0.412   1.975  0.8107 -0.3041  0.3862
 2010SOL     ow 8037   5.918   3.894   5.447  0.6397 -0.9162  0.0856
 2010SOL     hw 8038   5.907   3.967   5.386  0.1992 -1.0677 -0.0201
 2010SOL     hw 8039   5.861   3.915   5.521  1.3397 -0.6238  0.5532
 2010SOL     vw 8040   5.909   3.906   5.449  0.6738 -0.8978  0.1335
 2011SOL     ow 8041   0.308   6.059   6.077 -0.3786  0.0885 -0.1662
 2011SOL     hw 8042   0.401   6.063   6.058 -0.7215  0.0070 -2.0191
 2011SOL     hw 8043   0.303   6.035   6.170  1.4291  1.4918  0.3481
 2011SOL     vw 8044   0.319   6.056   6.087 -0.1854  0.2627 -0.3428
 2012SOL     ow 8045   0.773   1.879   1.067  0.3877 -0.3444 -0.0160
 2012SOL     hw 8046   0.814   1.872   1.153  1.0580  0.0855 -0.2917
 2012SOL     hw 8047   0.794   1.968   1.038 -0.4678 -0.2303 -0.3117
 2012SOL     vw 8048   0.781   1.890   1.075  0.3632 -0.2726 -0.0914
 2013SOL     ow 8049   1.776   6.980   6.122  0.1886 -0.9397 -0.3239
 2013SOL     hw 8050   1.856   7.008   6.166  0.4707 -1.1173 -0.7202
 2013SOL     hw 8051   1.740   7.060   6.084  1.1272 -1.1276 -1.6709
 2013SOL     vw 8052   1.782   6.994   6.123  0.3496 -0.9880 -0.5536
 2014SOL     ow 8053   6.129   4.240   7.113  0.5526  0.3181 -0.0770
 2014SOL     hw 8054   6.120   4.145   7.117  1.0795  0.2646 -0.1018
 2014SOL     hw 8055   6.138   4.259   7.020 -2.8560  0.7206 -0.4321
 2014SOL     vw 8056   6.129   4.230   7.101  0.1724  0.3641 -0.1271
 2015SOL     ow 8057   0.272   1.742   7.111  0.1412  0.0020 -1.2152
 2015SOL     hw 8058   0.208   1.727   7.181  2.9806 -2.1389  1.1660
 2015SOL     hw 8059   0.232   1.703   7.034 -0.7435 -3.1725  0.6324
 2015SOL     vw 8060   0.258   1.735   7.110  0.3991 -0.6993 -0.6576
 2016SOL     ow 8061   0.032   1.192   4.361  0.0115 -0.4948  0.4696
 2016SOL     hw 8062   0.067   1.275   4.391 -0.9385  0.3215 -0.5924
 2016SOL     hw 8063  -0.000   1.149   4.441  1.4356 -0.3294  1.1565
 2016SOL     vw 8064   0.032   1.197   4.376  0.0741 -0.3653  0.4199
 2017SOL     ow 8065   4.544   3.807   1.198  0.9680 -0.5366  1.0339
 2017SOL     hw 8066   4.533   3.715   1.177 -1.0332 -1.1103  3.9826
 2017SOL     hw 8067   4.611   3.809   1.266  1.5227  0.3251  0.4933
 2017SOL     vw 8068   4.551   3.795   1.204  0.7770 -0.4985  1.3517
 2018SOL     ow 8069   7.146   5.566   3.635 -0.2140  0.3428 -0.4979
 2018SOL     hw 8070   7.186   5.480   3.647  0.1864  0.5072 -0.6250
 2018SOL     hw 8071   7.204   5.626   3.681 -0.6260  0.5158 -0.2007
 2018SOL     vw 8072   7.159   5.562   3.643 -0.2158  0.3874 -0.4755
 2019SOL     ow 8073   1.522   1.251   3.650 -0.0488  0.2937 -0.7819
 2019SOL     hw 8074   1.521   1.333   3.600 -0.8121 -0.9000 -2.8834
 2019SOL     hw 8075   1.445   1.203   3.619 -0.6429 -0.4999  1.7205
 2019SOL     vw 8076   1.512   1.255   3.639 -0.2280  0.0315 -0.7288
 2020SOL     ow 8077   6.394   2.202   5.534  0.0981  0.2697 -0.1734
 2020SOL     hw 8078   6.421   2.188   5.444  0.6794  0.5020 -0.0432
 2020SOL     hw 8079   6.319   2.144   5.547  0.5560 -0.4150 -0.5415
 2020SOL     vw 8080   6.388   2.193   5.524  0.2348  0.2100 -0.2048
 2021SOL     ow 8081   7.009   3.940   6.165 -0.3097 -0.8314  0.3459
 2021SOL     hw 8082   6.929   3.890   6.182 -1.2958  0.1349 -1.2138
 2021SOL     hw 8083   7.026   3.927   6.072  0.5270  0.1621  0.3390
 2021SOL     vw 8084   7.000   3.931   6.155 -0.3295 -0.5728  0.1392
 2022SOL     ow 8085   3.652   2.544   6.543 -0.5076  0.1148  0.1766
 2022SOL     hw 8086   3.577   2.498   6.506 -0.3772  0.5229 -0.6272
 2022SOL     hw 8087   3.727   2.508   6.497 -0.6224  3.7304 -3.5236
 2022SOL     vw 8088   3.652   2.534   6.532 -0.5056  0.6456 -0.4177
 2023SOL     ow 8089   6.623   3.210   2.500  0.5686  0.9052  0.7804
 2023SOL     hw 8090   6.597   3.249   2.583  1.2403 -0.3589  1.6115
 2023SOL     hw 8091   6.638   3.118   2.521  1.2666  0.6780 -0.6371
 2023SOL     vw 8092   6.621   3.203   2.514  0.7493  0.7082  0.7032
 2024SOL     ow 8093   0.458   5.496   1.297  0.1598 -0.9434  0.2776
 2024SOL     hw 8094   0.406   5.552   1.240 -0.1540 -1.1436  0.3636
 2024SOL     hw 8095   0.532   5.468   1.243  0.3392 -0.4160  0.2496
 2024SOL     vw 8096   0.461   5.500   1.283  0.1421 -0.9000  0.2853
 2025SOL     ow 8097   5.546   5.918   6.666  0.0503 -0.9517  0.2720
 2025SOL     hw 8098   5.577   5.990   6.721 -0.1962 -0.0440 -0.7568
 2025SOL     hw 8099   5.459   5.898   6.700 -0.3214 -0.0359 -0.1066
 2025SOL     vw 8100   5.539   5.925   6.678 -0.0310 -0.7110  0.0863
 2026SOL     ow 8101   5.032   2.685   1.963 -0.4014 -0.3828 -0.0027
 2026SOL     hw 8102   5.074   2.769   1.982 -0.3184 -0.4672  0.1857
 2026SOL     hw 8103   4.939   2.702   1.973 -0.3641 -0.4022  0.3766
 2026SOL     vw 8104   5.025   2.699   1.967 -0.3855 -0.3965  0.0722
 2027SOL     ow 8105   2.090   1.546   1.900  0.4076  0.2398 -0.5346
 2027SOL     hw 8106   2.060   1.478   1.961  0.2742  1.6669  1.0755
 2027SOL     hw 8107   2.097   1.502   1.816  2.2465 -2.2505  0.8194
 2027SOL     vw 8108   2.087   1.531   1.897  0.6326  0.0995 -0.1435
 2028SOL     ow 8109   3.755   4.907   0.162 -0.4575 -0.3352  0.4659
 2028SOL     hw 8110   3.737   4.849   0.089  1.2015 -0.5926  0.2430
 2028SOL     hw 8111   3.743   4.995   0.127 -3.3847 -0.4403  0.9069
 2028SOL     vw 8112   3.751   4.911   0.148 -0.6249 -0.3831  0.4947
 2029SOL     ow 8113   3.628   5.478   3.632 -0.4950  0.0213  0.0034
 2029SOL     hw 8114   3.628   5.406   3.569  2.0037  1.8868 -2.3349
 2029SOL     hw 8115   3.548   5.527   3.613 -0.6823 -0.4457 -0.4311
 2029SOL     vw 8116   3.618   5.475   3.621 -0.1901  0.2055 -0.3624
 2030SOL     ow 8117   1.238   0.156   0.162 -0.1012 -0.1298  0.1297
 2030SOL     hw 8118   1.196   0.161   0.247 -0.3470  0.4667 -0.0237
 2030SOL     hw 8119   1.299   0.083   0.170 -0.9549 -0.8259  0.4444
 2030SOL     vw 8120   1.241   0.147   0.174 -0.2462 -0.1429  0.1510
 2031SOL     ow 8121   0.712   2.223   1.853 -0.3153 -0.4989  0.1203
 2031SOL     hw 8122   0.700   2.257   1.764 -1.8126 -2.0385 -0.3187
 2031SOL     hw 8123   0.803   2.193   1.856 -0.3429 -0.7116 -0.9969
 2031SOL     vw 8124   0.722   2.224   1.842 -0.5165 -0.7300 -0.0850
 2032SOL     ow 8125   4.759   4.611   4.861 -0.3006 -0.2296  0.0823
 2032SOL     hw 8126   4.748   4.542   4.927 -1.7983  1.0324  1.2212
 2032SOL     hw 8127   4.826   4.668   4.898 -1.0728  0.4258  0.5029
 2032SOL     vw 8128   4.766   4.609   4.875 -0.5999  0.0231  0.2878
 2033SOL     ow 8129   6.891   5.231   4.616  0.6486 -0.3436 -0.0851
 2033SOL     hw 8130   6.947   5.285   4.672  2.2964 -1.7893 -0.2330
 2033SOL     hw 8131   6.917   5.255   4.527  0.6070 -0.5920 -0.1642
 2033SOL     vw 8132   6.902   5.241   4.611  0.8605 -0.5674 -0.1152
 2034SOL     ow 8133   3.418   0.331   3.443 -0.3921  0.4000 -0.0367
 2034SOL     hw 8134   3.369   0.397   3.395  0.9102  0.8137 -0.8497
 2034SOL     hw 8135   3.436   0.371   3.528  0.4498  1.1371 -0.5531
 2034SOL     vw 8136   3.414   0.345   3.448 -0.1092  0.5518 -0.2121
 2035SOL     ow 8137   2.752   4.867   5.068  0.1835 -0.0769  0.5255
 2035SOL     hw 8138   2.716   4.857   5.156  0.7796 -0.3988  0.7367
 2035SOL     hw 8139   2.728   4.787   5.022  1.4832 -0.7628  0.9820
 2035SOL     vw 8140   2.744   4.855   5.074  0.4334 -0.2098  0.6135
 2036SOL     ow 8141   6.688   0.052   6.954 -0.0262  0.0614 -0.5079
 2036SOL     hw 8142   6.697  -0.004   6.878 -0.1989 -1.3437  0.4771
 2036SOL     hw 8143   6.753   0.121   6.940  1.5427 -1.4121 -0.8649
 2036SOL     vw 8144   6.698   0.054   6.942  0.1581 -0.3184 -0.4251
 2037SOL     ow 8145   0.578   1.782   1.545 -0.3331  0.2357 -0.1713
 2037SOL     hw 8146   0.663   1.741   1.533 -0.3189  0.1999  0.0514
 2037SOL     hw 8147   0.588   1.869   1.507  0.5979  1.2068  2.1041
 2037SOL     vw 8148   0.590   1.788   1.539 -0.2084  0.3590  0.1583
 2038SOL     ow 8149   5.904   3.456   7.110  0.5545  0.6142  0.3896
 2038SOL     hw 8150   5.899   3.546   7.078 -1.0529  0.3434 -0.2214
 2038SOL     hw 8151   5.856   3.405   7.044  2.5865 -0.9054 -0.0007
 2038SOL     vw 8152   5.897   3.461   7.097  0.6104  0.3778  0.2573
 2039SOL     ow 8153   5.629   4.915   1.355 -0.2230  0.4830 -0.0038
 2039SOL     hw 8154   5.655   4.998   1.313  2.6208 -0.2819 -0.0037
 2039SOL     hw 8155   5.690   4.906   1.428 -1.0439 -1.2080  0.5085
 2039SOL     vw 8156   5.641   4.925   1.359  0.0439  0.1590  0.0638
 2040SOL     ow 8157   4.382   7.186   4.453 -0.0479 -0.4523 -0.5114
 2040SOL     hw 8158   4.304   7.182   4.397 -0.3934 -0.3291 -0.0490
 2040SOL     hw 8159   4.407   7.095   4.468  2.5106 -0.5518 -4.1950
 2040SOL     vw 8160   4.375   7.174   4.448  0.2444 -0.4494 -0.9363
 2041SOL     ow 8161   5.699   0.527   1.361  0.0265 -0.2355  0.3225
 2041SOL     hw 8162   5.705   0.604   1.419  0.6009  0.9331 -1.1991
 2041SOL     hw 8163   5.606   0.511   1.352 -0.0809 -0.2850  1.3607
 2041SOL     vw 8164   5.688   0.535   1.368  0.0882 -0.0879  0.2587
 2042SOL     ow 8165   3.712   4.664   2.959  0.9810  0.7859 -0.5540
 2042SOL     hw 8166   3.683   4.741   2.911  1.1167 -0.0982 -2.1255
 2042SOL     hw 8167   3.775   4.622   2.901 -1.1383 -2.0150 -1.0016
 2042SOL     vw 8168   3.716   4.669   2.945  0.7194  0.2995 -0.8205
 2043SOL     ow 8169   5.610   6.028   1.866 -0.0628  0.3443 -0.1498
 2043SOL     hw 8170   5.663   6.088   1.919  0.6889  0.3767 -0.9191
 2043SOL     hw 8171   5.520   6.057   1.880  0.1015  0.2360  1.2416
 2043SOL     vw 8172   5.605   6.040   1.875  0.0582  0.3343 -0.0678
 2044SOL     ow 8173   5.835   6.423   4.136 -0.2065  0.3934 -0.1145
 2044SOL     hw 8174   5.863   6.390   4.050  0.5228  0.6091  0.0362
 2044SOL     hw 8175   5.745   6.391   4.145 -0.8773  1.7123 -1.6543
 2044SOL     vw 8176   5.827   6.414   4.126 -0.1986  0.5958 -0.2980
 2045SOL     ow 8177   4.118   5.027   4.541 -0.6368  0.3604 -0.4196
 2045SOL     hw 8178   4.028   5.007   4.568 -1.0225 -0.9844 -2.4881
 2045SOL     hw 8179   4.134   5.114   4.576 -3.3545  1.3487 -1.3710
 2045SOL     vw 8180   4.108   5.036   4.549 -1.0464  0.3133 -0.8178
 2046SOL     ow 8181   0.682   2.102   2.118 -0.3659  0.3370  0.1524
 2046SOL     hw 8182   0.762   2.049   2.119 -0.3608  0.2072 -1.9781
 2046SOL     hw 8183   0.631   2.069   2.191  1.7953  0.9208  2.0647
 2046SOL     vw 8184   0.686   2.091   2.127 -0.0801  0.3970  0.1235
 2047SOL     ow 8185   6.328   7.104   4.139  0.2729  0.6887 -0.4893
 2047SOL     hw 8186   6.251   7.085   4.192 -0.1069  0.2912 -1.1627
 2047SOL     hw 8187   6.296   7.162   4.070  0.1724 -0.7635 -1.7417
 2047SOL     vw 8188   6.314   7.109   4.137  0.2093  0.4449 -0.7434
 2048SOL     ow 8189   0.051   6.320   2.156 -0.0632 -0.7109 -0.1591
 2048SOL     hw 8190  -0.031   6.331   2.110 -4.0051  0.0351  5.8602
 2048SOL     hw 8191   0.092   6.406   2.156 -1.8302  0.1748  0.5266
 2048SOL     vw 8192   0.046   6.333   2.150 -0.8164 -0.4957  0.7256
 2049SOL     ow 8193   3.378   5.650   3.499 -0.2808 -0.1180 -0.4218
 2049SOL     hw 8194   3.333   5.729   3.529  0.5986 -0.3768  1.8442
 2049SOL     hw 8195   3.313   5.581   3.508  0.3432 -0.4638  2.6838
 2049SOL     vw 8196   3.364   5.651   3.504 -0.0825 -0.1976  0.2869
 2050SOL     ow 8197   0.395   4.039   0.675  0.9973 -0.8311 -0.9620
 2050SOL     hw 8198   0.373   4.076   0.761  0.3944 -1.9174 -0.6261
 2050SOL     hw 8199   0.393   4.113   0.615 -2.3930 -0.6230 -0.7316
 2050SOL     vw 8200   0.392   4.054   0.679  0.4705 -0.9472 -0.8873
 2051SOL     ow 8201   6.755   6.005   1.774  0.3863  0.2450 -0.3984
 2051SOL     hw 8202   6.801   5.954   1.841  1.6028 -1.1934 -2.2006
 2051SOL     hw 8203   6.662   5.997   1.796  0.7949  0.5673  1.5736
 2051SOL     vw 8204   6.749   5.997   1.786  0.6006  0.0978 -0.3760
 2052SOL     ow 8205   1.429   3.336   4.104  0.0675 -0.4648 -0.2423
 2052SOL     hw 8206   1.352   3.330   4.162 -0.8515  0.4606 -1.3077
 2052SOL     hw 8207   1.414   3.417   4.054  2.2545  0.2866  0.2244
 2052SOL     vw 8208   1.417   3.346   4.105  0.2348 -0.2435 -0.3214
 2053SOL     ow 8209   1.841   5.615   6.162 -0.3893  0.2828  0.2335
 2053SOL     hw 8210   1.754   5.579   6.182 -0.7886  1.2453  0.3142
 2053SOL     hw 8211   1.902   5.559   6.210 -0.8543 -1.1305 -0.7622
 2053SOL     vw 8212   1.837   5.603   6.171 -0.5034  0.2234  0.1125
 2054SOL     ow 8213   1.415   0.228   3.744  0.5248 -0.5895 -0.5476
 2054SOL     hw 8214   1.493   0.175   3.751 -0.0131 -1.1401  2.5688
 2054SOL     hw 8215   1.446   0.319   3.749  1.2438 -0.5163 -3.8503
 2054SOL     vw 8216   1.429   0.233   3.746  0.5487 -0.6525 -0.5722
 2055SOL     ow 8217   2.162   2.738   1.990  0.4612  0.5104 -0.2227
 2055SOL     hw 8218   2.157   2.644   1.972  0.6292  0.5733 -0.6197
 2055SOL     hw 8219   2.205   2.774   1.913  0.9335  0.8397  0.1905
 2055SOL     vw 8220   2.167   2.730   1.977  0.5457  0.5620 -0.2205
 2056SOL     ow 8221   6.832   5.624   6.023  0.5785 -0.6466  0.3565
 2056SOL     hw 8222   6.857   5.714   5.999 -0.7124 -0.1743  0.6731
 2056SOL     hw 8223   6.754   5.606   5.969  0.9588 -1.6734  0.1299
 2056SOL     vw 8224   6.825   5.634   6.012  0.4585 -0.7195  0.3684
 2057SOL     ow 8225   3.216   5.058   2.357 -0.0821  0.3094  0.1432
 2057SOL     hw 8226   3.240   4.974   2.397 -3.2190 -1.3176 -1.0240
 2057SOL     hw 8227   3.232   5.123   2.426 -2.0299 -1.9245  2.9641
 2057SOL     vw 8228   3.221   5.055   2.371 -0.7529 -0.2000  0.3613
 2058SOL     ow 8229   4.228   3.261   5.761  0.1534  1.4544  0.2431
 2058SOL     hw 8230   4.200   3.311   5.684 -0.0823  0.1584 -0.5353
 2058SOL     hw 8231   4.323   3.266   5.760  0.1565  1.3104 -0.2184
 2058SOL     vw 8232   4.237   3.268   5.751  0.1228  1.2646  0.0796
 2059SOL     ow 8233   4.251   0.242   5.707  0.2949 -0.3297 -0.2659
 2059SOL     hw 8234   4.174   0.208   5.661 -0.3289  0.7553 -0.0484
 2059SOL     hw 8235   4.277   0.319   5.657  1.3469 -0.7735 -0.4231
 2059SOL     vw 8236   4.244   0.248   5.695  0.3514 -0.2451 -0.2577
 2060SOL     ow 8237   4.537   5.956   0.382  0.0767  0.5223 -0.0391
 2060SOL     hw 8238   4.476   5.954   0.456 -0.9790 -1.4298 -0.8882
 2060SOL     hw 8239   4.548   5.865   0.357  3.3289  0.7997 -0.0140
 2060SOL     vw 8240   4.531   5.944   0.388  0.3664  0.3016 -0.1478
 2061SOL     ow 8241   1.480   5.020   3.670 -0.0438  0.4506  0.0131
 2061SOL     hw 8242   1.405   4.995   3.618  1.3550 -1.5446 -1.1705
 2061SOL     hw 8243   1.543   4.949   3.658  1.8168  1.7546  1.4044
 2061SOL     vw 8244   1.479   5.008   3.662  0.3862  0.3595  0.0407
 2062SOL     ow 8245   6.662   6.524   4.124 -0.8888  1.4066  0.1077
 2062SOL     hw 8246   6.611   6.451   4.091 -0.6160  0.8969  0.8006
 2062SOL     hw 8247   6.637   6.532   4.216 -2.4393  3.4899 -0.4080
 2062SOL     vw 8248   6.652   6.516   4.131 -1.0574  1.6143  0.1311
 2063SOL     ow 8249   1.382   1.101   2.724 -0.0340  0.0077  0.1581
 2063SOL     hw 8250   1.305   1.114   2.670 -1.5423 -3.9359  1.0366
 2063SOL     hw 8251   1.434   1.180   2.711 -3.3618  2.1119 -1.8092
 2063SOL     vw 8252   1.379   1.113   2.715 -0.6722 -0.2350  0.0144
 2064SOL     ow 8253   4.766   1.890   3.916 -0.1130 -0.4803 -0.2552
 2064SOL     hw 8254   4.738   1.799   3.926 -0.7577 -0.4236 -1.4148
 2064SOL     hw 8255   4.697   1.940   3.959  1.2672 -0.5836  2.2687
 2064SOL     vw 8256   4.753   1.885   3.923 -0.0160 -0.4864 -0.0751
 2065SOL     ow 8257   2.500   4.405   4.443 -0.4170  0.4091 -0.0938
 2065SOL     hw 8258   2.461   4.329   4.401  1.6680 -0.6390 -0.2308
 2065SOL     hw 8259   2.584   4.417   4.399  0.5732  1.0099  1.8328
 2065SOL     vw 8260   2.506   4.397   4.432 -0.0114  0.3500  0.1426
 2066SOL     ow 8261   0.186   1.093   5.480  0.4833  0.2678  0.4924
 2066SOL     hw 8262   0.094   1.112   5.460  0.8344  1.6599  0.0389
 2066SOL     hw 8263   0.191   0.998   5.481 -0.5685  0.1331 -1.4445
 2066SOL     vw 8264   0.174   1.083   5.478  0.3908  0.4337  0.1771
 2067SOL     ow 8265   2.869   1.509   3.487 -0.1801  1.1979  0.0114
 2067SOL     hw 8266   2.810   1.533   3.558  1.2725 -1.2213  2.1996
 2067SOL     hw 8267   2.953   1.490   3.530  1.7996  2.8841 -2.7636
 2067SOL     vw 8268   2.872   1.510   3.502  0.2728  1.1012 -0.0659
 2068SOL     ow 8269   5.977   4.308   0.410  0.3697 -0.5297  0.0840
 2068SOL     hw 8270   6.018   4.229   0.444 -0.1869 -0.9545 -0.2125
 2068SOL     hw 8271   5.923   4.340   0.482 -1.0339 -1.5880 -0.4532
 2068SOL     vw 8272   5.975   4.302   0.424  0.1109 -0.7253 -0.0260
 2069SOL     ow 8273   5.423   0.909   3.828  0.1570 -0.2460 -0.5678
 2069SOL     hw 8274   5.375   0.898   3.746  1.0983 -0.1888 -1.1464
 2069SOL     hw 8275   5.515   0.893   3.804  0.2481 -2.2349  0.8793
 2069SOL     vw 8276   5.429   0.905   3.814  0.2935 -0.5009 -0.4532
 2070SOL     ow 8277   4.330   6.405   3.511 -0.0684  0.1932 -0.1717
 2070SOL     hw 8278   4.345   6.497   3.535 -0.1580 -0.0464  0.8827
 2070SOL     hw 8279   4.410   6.378   3.467  1.1308  0.0143  1.9873
 2070SOL     vw 8280   4.342   6.414   3.509  0.0780  0.1380  0.2522
 2071SOL     ow 8281   5.712   6.540   1.651  0.2137 -0.4414 -0.0945
 2071SOL     hw 8282   5.795   6.579   1.625  1.0181 -3.3032 -2.3774
 2071SOL     hw 8283   5.651   6.566   1.582 -0.7607  1.1838  1.2807
 2071SOL     vw 8284   5.715   6.549   1.639  0.1912 -0.6046 -0.2143
 2072SOL     ow 8285   2.537   6.927   4.512  0.3285  0.2770 -0.5174
 2072SOL     hw 8286   2.507   6.954   4.425 -0.0844  1.9819  0.1351
 2072SOL     hw 8287   2.601   6.857   4.493 -0.5545 -0.1584 -2.1225
 2072SOL     vw 8288   2.542   6.921   4.498  0.1576  0.4444 -0.6430
 2073SOL     ow 8289   3.968   0.781   0.147 -0.4322 -0.7799 -0.9536
 2073SOL     hw 8290   4.025   0.706   0.125 -1.7133 -1.5364 -1.8266
 2073SOL     hw 8291   4.028   0.855   0.155  1.1528 -2.2226  1.9470
 2073SOL     vw 8292   3.984   0.780   0.145 -0.3920 -1.0701 -0.6861
 2074SOL     ow 8293   3.525   2.249   2.671  0.2275  0.1684 -0.0369
 2074SOL     hw 8294   3.523   2.303   2.750  0.2226  0.1451 -0.0214
 2074SOL     hw 8295   3.588   2.294   2.614  1.2479 -0.5451  0.4965
 2074SOL     vw 8296   3.533   2.262   2.674  0.3616  0.0712  0.0354
 2075SOL     ow 8297   1.673   4.869   1.773  0.4274 -1.2135 -0.6280
 2075SOL     hw 8298   1.748   4.929   1.772 -2.8799  3.4930 -2.3514
 2075SOL     hw 8299   1.651   4.860   1.865  0.3653  1.3475 -0.3343
 2075SOL     vw 8300   1.680   4.876   1.785 -0.0172 -0.2549 -0.8166
 2076SOL     ow 8301   0.314   6.953   6.194  0.3492  0.8242 -0.3331
 2076SOL     hw 8302   0.373   7.009   6.143  0.3609 -0.6694 -2.0892
 2076SOL     hw 8303   0.325   6.866   6.155 -1.8592  0.1944  0.3074
 2076SOL     vw 8304   0.323   6.949   6.182  0.0594  0.5438 -0.4802
 2077SOL     ow 8305   0.789   0.797   4.423  0.8168 -0.2961 -0.7040
 2077SOL     hw 8306   0.694   0.812   4.419  1.2127  2.4947 -2.2376
 2077SOL     hw 8307   0.803   0.721   4.368 -0.5227 -0.6887 -0.5492
 2077SOL     vw 8308   0.778   0.789   4.415  0.6923  0.0203 -0.8860
 2078SOL     ow 8309   4.616   6.089   4.615  0.2001 -0.5116  0.0285
 2078SOL     hw 8310   4.634   6.181   4.638  0.8068  1.0051 -5.1511
 2078SOL     hw 8311   4.536   6.067   4.662 -1.1099  3.4362 -0.0087
 2078SOL     vw 8312   4.608   6.098   4.624  0.1073  0.2096 -0.6599
 2079SOL     ow 8313   0.499   4.687   6.932  0.0476  0.2513 -0.8701
 2079SOL     hw 8314   0.460   4.643   7.007 -0.0838 -1.5104 -1.9231
 2079SOL     hw 8315   0.463   4.642   6.855  0.8848  1.3758 -1.9759
 2079SOL     vw 8316   0.489   4.675   6.932  0.1407  0.1674 -1.1551
 2080SOL     ow 8317   2.663   2.945   0.934 -0.6660 -0.0280  0.2720
 2080SOL     hw 8318   2.679   2.959   1.027 -1.3562 -1.4625  0.6446
 2080SOL     hw 8319   2.726   3.001   0.889 -2.0427  2.7265  1.5329
 2080SOL     vw 8320   2.673   2.954   0.940 -0.9387  0.1462  0.4875
 2081SOL     ow 8321   1.415   1.641   0.857  0.0399 -0.1039 -0.6588
 2081SOL     hw 8322   1.510   1.646   0.844  0.6127 -2.7624  1.5584
 2081SOL     hw 8323   1.379   1.632   0.769  1.6514  2.0811 -1.6509
 2081SOL     vw 8324   1.423   1.641   0.844  0.3281 -0.1663 -0.4971
 2082SOL     ow 8325   0.781   3.740   6.877 -0.4583  0.6274  0.6408
 2082SOL     hw 8326   0.710   3.683   6.906  0.8064 -0.2695  2.1572
 2082SOL     hw 8327   0.745   3.829   6.887 -1.9149  0.1745 -0.2579
 2082SOL     vw 8328   0.767   3.744   6.882 -0.4836  0.4493  0.7222
 2083SOL     ow 8329   0.289   2.228   3.649  0.0374  0.3202  0.3515
 2083SOL     hw 8330   0.232   2.304   3.662  2.6614  2.2388  1.5429
 2083SOL     hw 8331   0.326   2.210   3.735  0.9012 -1.1533 -0.2829
 2083SOL     vw 8332   0.286   2.236   3.662  0.4976  0.3788  0.4250
 2084SOL     ow 8333   6.476   2.105   0.959 -0.2283  0.4884  0.1173
 2084SOL     hw 8334   6.556   2.148   0.928  0.1597 -0.1152  0.2627
 2084SOL     hw 8335   6.507   2.022   0.996 -0.6460  1.2752  2.3374
 2084SOL     vw 8336   6.491   2.100   0.960 -0.2325  0.5126  0.4294
 2085SOL     ow 8337   6.754   7.000   2.998  0.4686 -0.3918  0.4837
 2085SOL     hw 8338   6.745   6.916   3.042 -1.0068 -0.5392 -0.0485
 2085SOL     hw 8339   6.667   7.039   3.002  0.6859  0.2995 -0.8801
 2085SOL     vw 8340   6.742   6.994   3.004  0.3026 -0.3200  0.2335
 2086SOL     ow 8341   6.832   4.458   1.974 -0.3430 -0.1308  0.1397
 2086SOL     hw 8342   6.864   4.442   2.063 -0.1462 -0.9604 -0.0721
 2086SOL     hw 8343   6.738   4.474   1.985 -0.0832  1.2579  0.6456
 2086SOL     vw 8344   6.824   4.458   1.987 -0.2830 -0.0570  0.1785
 2087SOL     ow 8345   4.796   7.160   3.640  0.0224 -0.4468  0.9849
 2087SOL     hw 8346   4.858   7.128   3.574  0.0483  1.5036 -0.0040
 2087SOL     hw 8347   4.719   7.104   3.631  0.4991 -0.9723  0.1322
 2087SOL     vw 8348   4.794   7.148   3.630  0.0887 -0.2588  0.7420
 2088SOL     ow 8349   4.489   3.891   6.156  0.1258 -0.8246  0.0254
 2088SOL     hw 8350   4.462   3.799   6.162  0.0834 -0.7224  1.9342
 2088SOL     hw 8351   4.575   3.888   6.113  0.5614 -1.8742  0.9061
 2088SOL     vw 8352   4.497   3.878   6.151  0.1776 -0.9495  0.3932
 2089SOL     ow 8353   5.398   2.818   5.472  0.0417 -0.0290 -0.4148
 2089SOL     hw 8354   5.326   2.798   5.532  0.6690  0.1027  0.3965
 2089SOL     hw 8355   5.382   2.908   5.444  0.9464  0.7074  1.3151
 2089SOL     vw 8356   5.386   2.827   5.476  0.2439  0.0856 -0.0796
 2090SOL     ow 8357   3.876   2.509   7.057 -0.0791 -0.1091  0.2886
 2090SOL     hw 8358   3.896   2.596   7.091  0.9860 -0.5961  0.9598
 2090SOL     hw 8359   3.934   2.450   7.106 -1.0166 -1.2365  0.0846
 2090SOL     vw 8360   3.886   2.512   7.068 -0.0623 -0.3221  0.3500
 2091SOL     ow 8361   6.645   5.024   6.934 -0.4750 -0.3808 -0.4038
 2091SOL     hw 8362   6.637   5.055   6.843  0.4550 -2.0826 -1.1222
 2091SOL     hw 8363   6.653   4.929   6.925  1.3620 -0.4365  1.3624
 2091SOL     vw 8364   6.645   5.016   6.921 -0.1099 -0.6130 -0.2654
 2092SOL     ow 8365   3.511   2.958   2.136  0.1498  0.0654  0.1174
 2092SOL     hw 8366   3.534   2.888   2.197  1.6735  1.6993  1.5422
 2092SOL     hw 8367   3.485   3.031   2.193 -0.9674  0.7934 -1.2941
 2092SOL     vw 8368   3.511   2.958   2.152  0.2033  0.3769  0.1192
 2093SOL     ow 8369   5.867   6.995   4.801 -0.5966  0.9714  0.9901
 2093SOL     hw 8370   5.932   7.026   4.864  0.6315 -0.5106  0.5370
 2093SOL     hw 8371   5.915   6.992   4.718 -1.2052 -0.2214  0.6601
 2093SOL     vw 8372   5.882   6.998   4.798 -0.5150  0.6185  0.8869
 2094SOL     ow 8373   6.695   2.281   0.964 -0.5849 -0.1924  0.3054
 2094SOL     hw 8374   6.753   2.341   1.010  0.2158 -1.8695  1.5974
 2094SOL     hw 8375   6.663   2.331   0.889 -0.0243  1.8404  1.3520
 2094SOL     vw 8376   6.698   2.295   0.960 -0.4051 -0.1454  0.6140
 2095SOL     ow 8377   6.710   5.429   6.226 -0.2444  0.0442  0.1518
 2095SOL     hw 8378   6.689   5.357   6.167 -0.3047  1.1005 -1.1507
 2095SOL     hw 8379   6.629   5.446   6.273 -0.8685  0.7189 -1.1434
 2095SOL     vw 8380   6.697   5.421   6.225 -0.3350  0.2725 -0.1907
 2096SOL     ow 8381   4.294   4.475   4.216  0.3371  0.4113  0.8076
 2096SOL     hw 8382   4.327   4.392   4.181 -2.3626 -0.0396 -1.0474
 2096SOL     hw 8383   4.252   4.451   4.299 -0.4114 -0.1444  0.2937
 2096SOL     vw 8384   4.292   4.461   4.222 -0.1175  0.2785  0.4952
 2097SOL     ow 8385   6.541   2.968   0.940 -0.2769  0.1294  0.8017
 2097SOL     hw 8386   6.492   3.033   0.889  1.2913  1.3467  0.7406
 2097SOL     hw 8387   6.560   3.012   1.022  0.5655 -0.3468  0.8793
 2097SOL     vw 8388   6.537   2.983   0.944  0.0410  0.2271  0.8039
 2098SOL     ow 8389   3.656   4.313   3.491 -0.7508  0.6795  0.2179
 2098SOL     hw 8390   3.693   4.321   3.579  0.0622  0.1937 -0.0649
 2098SOL     hw 8391   3.725   4.270   3.440 -0.9579  1.5198 -0.8118
 2098SOL     vw 8392   3.670   4.308   3.496 -0.6710  0.7262  0.0447
 2099SOL     ow 8393   5.703   3.035   4.627  0.5584 -0.5075 -0.6726
 2099SOL     hw 8394   5.780   3.055   4.575 -0.0720  0.0464 -1.4245
 2099SOL     hw 8395   5.666   3.121   4.649  1.0658 -0.6951  1.1209
 2099SOL     vw 8396   5.708   3.049   4.623  0.5422 -0.4592 -0.5350
 2100SOL     ow 8397   7.064   1.753   5.018 -0.3736 -0.0265 -0.3009
 2100SOL     hw 8398   7.087   1.665   4.987 -1.9980 -0.5127 -0.2622
 2100SOL     hw 8399   7.049   1.741   5.112 -2.8428 -0.2826 -0.6544
 2100SOL     vw 8400   7.065   1.740   5.026 -0.9141 -0.1244 -0.3426
 2101SOL     ow 8401   4.200   6.772   3.865 -0.7271 -0.0705  0.2795
 2101SOL     hw 8402   4.273   6.714   3.846 -1.3673 -0.1023 -2.3815
 2101SOL     hw 8403   4.217   6.851   3.814 -2.6850 -0.2256 -0.7256
 2101SOL     vw 8404   4.212   6.775   3.856 -1.0700 -0.0951 -0.2041
 2102SOL     ow 8405   4.547   4.029   6.983  0.1697 -0.0571  0.0769
 2102SOL     hw 8406   4.514   4.116   6.962 -0.6261 -0.8618 -2.3704
 2102SOL     hw 8407   4.485   3.996   7.049  0.2157  1.0259  0.6861
 2102SOL     vw 8408   4.534   4.036   6.989  0.0708 -0.0205 -0.1657
 2103SOL     ow 8409   1.980   6.561   0.027 -0.0495  0.0510 -0.2597
 2103SOL     hw 8410   1.937   6.573  -0.057 -1.6998  1.1133  0.6799
 2103SOL     hw 8411   2.031   6.480   0.017 -1.9586 -1.0675 -1.5814
 2103SOL     vw 8412   1.981   6.552   0.015 -0.5191  0.0436 -0.3101
 2104SOL     ow 8413   2.435   7.052   6.735 -0.0271  0.0734  0.0613
 2104SOL     hw 8414   2.464   6.998   6.809  2.5028  1.1603 -0.0308
 2104SOL     hw 8415   2.485   7.019   6.660 -0.6909  0.6203 -0.6383
 2104SOL     vw 8416   2.446   7.040   6.735  0.2191  0.2892 -0.0434
 2105SOL     ow 8417   3.704   0.856   6.109 -0.4627 -0.0592 -0.5152
 2105SOL     hw 8418   3.683   0.763   6.099  0.2372 -0.0238 -2.7644
 2105SOL     hw 8419   3.629   0.902   6.073 -0.3883  0.2458 -0.2909
 2105SOL     vw 8420   3.692   0.850   6.103 -0.3606 -0.0142 -0.7823
 2106SOL     ow 8421   5.995   2.178   7.125 -0.3864 -0.0021  0.2264
 2106SOL     hw 8422   6.078   2.144   7.091 -0.5660 -2.0342  1.6518
 2106SOL     hw 8423   6.019   2.259   7.170  1.1435 -1.3361  1.9520
 2106SOL     vw 8424   6.009   2.184   7.127 -0.2081 -0.4462  0.6421
 2107SOL     ow 8425   7.073   6.956   3.446 -0.3053 -0.5964  0.3439
 2107SOL     hw 8426   7.136   6.887   3.466 -0.9096 -1.2220  0.1693
 2107SOL     hw 8427   7.125   7.028   3.412  0.3350 -1.0044  0.4484
 2107SOL     vw 8428   7.088   6.956   3.444 -0.3004 -0.7329  0.3346
 2108SOL     ow 8429   4.852   3.932   5.071  0.3512  0.3821  0.0599
 2108SOL     hw 8430   4.826   3.944   5.162 -0.2994 -3.9107  0.6432
 2108SOL     hw 8431   4.776   3.960   5.020 -0.1190  0.7466  0.9558
 2108SOL     vw 8432   4.839   3.937   5.076  0.2031 -0.1361  0.2551
 2109SOL     ow 8433   7.030   5.340   6.931  0.0439  1.1454 -0.4902
 2109SOL     hw 8434   7.053   5.424   6.972 -0.4513  0.4101  1.4188
 2109SOL     hw 8435   7.053   5.275   6.998  0.2052 -0.2298 -1.8477
 2109SOL     vw 8436   7.036   5.343   6.945 -0.0005  0.8671 -0.4177
 2110SOL     ow 8437   4.010   2.895   4.933 -0.3709 -0.2585  0.6451
 2110SOL     hw 8438   3.916   2.889   4.920 -0.1602  0.9374 -1.9496
 2110SOL     hw 8439   4.045   2.927   4.850  2.2972 -0.2606  1.6418
 2110SOL     vw 8440   4.002   2.899   4.921  0.0091 -0.1011  0.4342
 2111SOL     ow 8441   1.837   2.350   4.441 -0.5108  0.8657  0.1255
 2111SOL     hw 8442   1.767   2.400   4.483  0.4263  1.7279  0.6866
 2111SOL     hw 8443   1.862   2.284   4.506 -2.2399 -0.8932 -0.8781
 2111SOL     vw 8444   1.831   2.348   4.455 -0.6152  0.7474  0.0672
 2112SOL     ow 8445   6.476   1.614   3.429  0.6193  0.0783 -0.0632
 2112SOL     hw 8446   6.456   1.549   3.361 -0.1998 -0.9754  1.1222
 2112SOL     hw 8447   6.531   1.567   3.491  1.4995  1.0791 -0.0664
 2112SOL     vw 8448   6.480   1.599   3.428  0.6278  0.0713  0.0929
 2113SOL     ow 8449   6.058   3.657   5.551  0.4717  0.1452  0.1686
 2113SOL     hw 8450   6.101   3.735   5.586  0.0909 -0.0900  1.1695
 2113SOL     hw 8451   6.091   3.585   5.605 -2.4425  0.1387  2.1858
 2113SOL     vw 8452   6.068   3.658   5.563  0.0370  0.1132  0.5667
 2114SOL     ow 8453   5.668   2.598   5.432 -0.3706 -0.2853 -0.8286
 2114SOL     hw 8454   5.738   2.605   5.367  0.6069  1.4353  0.3129
 2114SOL     hw 8455   5.681   2.513   5.473  1.3414  0.1553 -0.3693
 2114SOL     vw 8456   5.679   2.588   5.429 -0.0155 -0.0002 -0.6175
 2115SOL     ow 8457   7.166   6.129   0.077  0.1039 -0.5693 -0.0440
 2115SOL     hw 8458   7.169   6.223   0.092  1.8108 -0.7630  1.1422
 2115SOL     hw 8459   7.103   6.118   0.006 -0.1912  1.4457 -0.1545
 2115SOL     vw 8460   7.158   6.140   0.070  0.2902 -0.3290  0.0979
 2116SOL     ow 8461   3.083   4.800   4.256  0.2904  0.2175  0.0564
 2116SOL     hw 8462   3.119   4.721   4.215  0.7118 -0.9756  2.5713
 2116SOL     hw 8463   3.156   4.837   4.305 -0.1260  1.7664 -0.4282
 2116SOL     vw 8464   3.097   4.795   4.257  0.2911  0.2644  0.3242
 2117SOL     ow 8465   6.425   1.564   2.449 -0.4652  1.5325  0.8734
 2117SOL     hw 8466   6.338   1.536   2.419  0.8539 -3.3298  0.7542
 2117SOL     hw 8467   6.416   1.574   2.544 -1.4368  2.5825  0.6887
 2117SOL     vw 8468   6.412   1.561   2.458 -0.4194  1.0295  0.8334
 2118SOL     ow 8469   2.142   6.286   7.249  0.2512  0.8151 -0.5367
 2118SOL     hw 8470   2.224   6.242   7.227 -0.5634 -0.4393 -1.2028
 2118SOL     hw 8471   2.081   6.259   7.181 -2.1940 -2.5571  2.6159
 2118SOL     vw 8472   2.144   6.277   7.237 -0.1789  0.2048 -0.2086
 2119SOL     ow 8473   0.947   4.393   3.705 -0.8488 -0.5913  0.2771
 2119SOL     hw 8474   0.862   4.436   3.697 -0.8518 -0.0102  2.8861
 2119SOL     hw 8475   1.008   4.463   3.725  0.1137 -1.1383 -0.6507
 2119SOL     vw 8476   0.944   4.408   3.706 -0.7222 -0.5865  0.4989
 2120SOL     ow 8477   3.846   0.419   6.960  0.1533  0.2736  0.5394
 2120SOL     hw 8478   3.926   0.471   6.957  0.1453  0.2495 -0.1422
 2120SOL     hw 8479   3.868   0.338   6.915 -0.1058  0.0561  0.7998
 2120SOL     vw 8480   3.859   0.415   6.954  0.1180  0.2417  0.4838
 2121SOL     ow 8481   3.403   5.970   3.018  0.0705 -0.8279  0.4645
 2121SOL     hw 8482   3.434   6.061   3.028  0.8298 -1.1156  0.8280
 2121SOL     hw 8483   3.441   5.942   2.935 -1.5274 -0.2942 -0.4903
 2121SOL     vw 8484   3.412   5.978   3.008 -0.0401 -0.7954  0.3865
 2122SOL     ow 8485   3.397   2.781   3.661  0.5759  0.5652  0.1839
 2122SOL     hw 8486   3.395   2.788   3.565  1.0690 -0.8318  0.0455
 2122SOL     hw 8487   3.306   2.764   3.686 -0.2002  4.1874  0.3240
 2122SOL     vw 8488   3.385   2.780   3.651  0.5385  0.8589  0.1842
 2123SOL     ow 8489   6.630   2.900   0.601 -0.1581 -0.5387 -0.3141
 2123SOL     hw 8490   6.606   2.936   0.686 -0.9545 -0.1980 -0.6648
 2123SOL     hw 8491   6.676   2.819   0.620 -0.6078 -0.6257  0.4375
 2123SOL     vw 8492   6.633   2.894   0.615 -0.3226 -0.5054 -0.2612
 2124SOL     ow 8493   5.714   5.349   0.397  0.3056 -0.1172  0.6542
 2124SOL     hw 8494   5.779   5.283   0.423  0.9229  0.2404  0.0373
 2124SOL     hw 8495   5.758   5.433   0.408  0.6053  0.0649 -1.4908
 2124SOL     vw 8496   5.728   5.351   0.402  0.4265 -0.0460  0.2898
 2125SOL     ow 8497   4.476   2.235   2.120  0.1329 -0.0826 -0.2855
 2125SOL     hw 8498   4.512   2.172   2.183  0.2035 -1.4615 -1.6289
 2125SOL     hw 8499   4.541   2.304   2.116  0.4488 -0.3062  0.6475
 2125SOL     vw 8500   4.489   2.236   2.128  0.1838 -0.2940 -0.3396
 2126SOL     ow 8501   6.996   3.475   5.324 -0.3411  0.2294 -0.1495
 2126SOL     hw 8502   6.992   3.546   5.260 -0.3803  1.6993  1.4252
 2126SOL     hw 8503   7.008   3.396   5.271  0.4391  1.4695 -1.9098
 2126SOL     vw 8504   6.997   3.474   5.309 -0.2432  0.5870 -0.1740
 2127SOL     ow 8505   3.352   4.903   5.841 -0.3203  0.3499  0.2658
 2127SOL     hw 8506   3.431   4.860   5.809 -2.0890 -1.0874 -2.6419
 2127SOL     hw 8507   3.367   4.996   5.825  0.6747  0.0657 -0.5679
 2127SOL     vw 8508   3.364   4.909   5.834 -0.4224  0.1230 -0.2277
 2128SOL     ow 8509   0.064   0.197   5.265 -0.1925  0.5486  0.1640
 2128SOL     hw 8510   0.133   0.256   5.296 -0.4616  0.8230  0.2370
 2128SOL     hw 8511   0.037   0.149   5.343 -1.1458  1.5174  0.4463
 2128SOL     vw 8512   0.070   0.198   5.279 -0.3538  0.7126  0.2108
 2129SOL     ow 8513   3.355   7.211   6.499 -0.0447 -0.0334 -0.2074
 2129SOL     hw 8514   3.263   7.236   6.511  0.1081  0.5290 -0.1333
 2129SOL     hw 8515   3.403   7.290   6.525  0.5080 -0.7760  1.0905
 2129SOL     vw 8516   3.349   7.225   6.504  0.0484 -0.0572 -0.0265
 2130SOL     ow 8517   5.453   5.114   3.255  0.2585 -0.3029 -0.1861
 2130SOL     hw 8518   5.531   5.076   3.294 -0.1980 -2.6287 -1.3302
 2130SOL     hw 8519   5.463   5.096   3.161 -0.5039  1.5886 -0.6662
 2130SOL     vw 8520   5.465   5.106   3.248  0.0980 -0.3603 -0.4004
 2131SOL     ow 8521   1.197   0.111   3.949  0.6423  0.2519 -0.5864
 2131SOL     hw 8522   1.203   0.031   4.001  3.4895 -0.0840 -1.2441
 2131SOL     hw 8523   1.223   0.181   4.008  2.0231  0.1127 -0.9808
 2131SOL     vw 8524   1.201   0.109   3.963  1.2001  0.1892 -0.7253
 2132SOL     ow 8525   0.334   5.053   2.402  0.3353 -0.2773 -0.2801
 2132SOL     hw 8526   0.333   5.036   2.496 -0.4221  2.7189  0.3676
 2132SOL     hw 8527   0.349   5.147   2.395  0.6436 -0.4517 -3.1943
 2132SOL     vw 8528   0.335   5.063   2.414  0.2760  0.0949 -0.5791
 2133SOL     ow 8529   4.558   0.184   6.812  0.0630 -0.3264  0.1431
 2133SOL     hw 8530   4.549   0.091   6.791  0.9923 -0.3327 -0.2554
 2133SOL     hw 8531   4.606   0.222   6.738 -0.7047  0.5715  0.0810
 2133SOL     vw 8532   4.563   0.177   6.800  0.0842 -0.2088  0.0825
 2134SOL     ow 8533   5.298   2.794   5.103  0.2011 -0.1257  0.1766
 2134SOL     hw 8534   5.226   2.737   5.078 -0.2156  0.5000 -0.0998
 2134SOL     hw 8535   5.257   2.881   5.112  0.1171 -0.3884  3.9522
 2134SOL     vw 8536   5.283   2.798   5.101  0.1352 -0.0776  0.6380
 2135SOL     ow 8537   4.809   4.137   0.295 -0.6115 -0.2006 -0.1874
 2135SOL     hw 8538   4.848   4.224   0.294 -0.7874 -0.1136  0.3454
 2135SOL     hw 8539   4.839   4.098   0.377 -0.4853 -0.6652 -0.4484
 2135SOL     vw 8540   4.818   4.143   0.306 -0.6180 -0.2503 -0.1515
 2136SOL     ow 8541   5.492   1.972   2.675 -0.7957 -0.0172  0.2563
 2136SOL     hw 8542   5.535   2.021   2.745 -2.1201  1.1707  0.2825
 2136SOL     hw 8543   5.436   2.036   2.632 -1.2059 -1.1041 -0.8943
 2136SOL     vw 8544   5.490   1.987   2.679 -1.0245 -0.0039  0.1078
 2137SOL     ow 8545   2.820   1.861   0.011 -0.0641 -0.1651  0.9549
 2137SOL     hw 8546   2.794   1.911  -0.066  1.3728  0.0335  0.5762
 2137SOL     hw 8547   2.771   1.900   0.083 -1.2868 -0.2342  0.1988
 2137SOL     vw 8548   2.810   1.873   0.010 -0.0360 -0.1480  0.8049
 2138SOL     ow 8549   4.063   5.443   1.496 -0.3593 -0.1419 -0.4424
 2138SOL     hw 8550   4.043   5.531   1.526  1.9868  0.9038 -1.7184
 2138SOL     hw 8551   4.079   5.451   1.402 -0.6542 -2.0263 -0.7028
 2138SOL     vw 8552   4.063   5.455   1.488 -0.0887 -0.2527 -0.6452
 2139SOL     ow 8553   0.188   0.823   6.359 -0.1612 -0.0724 -0.0885
 2139SOL     hw 8554   0.244   0.843   6.284 -1.3694 -0.0470 -1.0075
 2139SOL     hw 8555   0.163   0.731   6.346 -0.0908 -0.1778  0.4860
 2139SOL     vw 8556   0.192   0.813   6.347 -0.3113 -0.0829 -0.1340
 2140SOL     ow 8557   0.939   3.176   0.633 -0.7140 -0.3515  0.0407
 2140SOL     hw 8558   0.941   3.272   0.642 -1.3799 -0.2087 -1.1132
 2140SOL     hw 8559   1.030   3.150   0.649 -1.0338  0.1098  3.3903
 2140SOL     vw 8560   0.951   3.185   0.636 -0.8440 -0.2719  0.3304
 2141SOL     ow 8561   1.767   5.545   0.939  0.9242 -0.1783 -0.5165
 2141SOL     hw 8562   1.852   5.527   0.899  0.1667 -2.0213 -1.4023
 2141SOL     hw 8563   1.715   5.586   0.870  0.3983 -1.1162 -0.6964
 2141SOL     vw 8564   1.771   5.548   0.925  0.7549 -0.5448 -0.6571
 2142SOL     ow 8565   7.034   4.614   4.985 -0.8664 -0.3397 -0.2847
 2142SOL     hw 8566   6.940   4.596   4.995 -1.0526  0.7945  0.0844
 2142SOL     hw 8567   7.060   4.651   5.069 -0.2217 -0.0690 -0.5995
 2142SOL     vw 8568   7.025   4.616   4.998 -0.8061 -0.1543 -0.2775
 2143SOL     ow 8569   4.177   3.660   2.004 -0.5418  0.4612 -0.3535
 2143SOL     hw 8570   4.117   3.672   1.930 -0.5295  1.8321 -0.1642
 2143SOL     hw 8571   4.234   3.736   2.002  0.3459 -0.1638  0.2692
 2143SOL     vw 8572   4.176   3.671   1.994 -0.4230  0.5597 -0.2463
 2144SOL     ow 8573   2.664   6.837   2.248  0.1844 -0.1284  0.2067
 2144SOL     hw 8574   2.736   6.831   2.311  0.7045  0.6043 -0.2996
 2144SOL     hw 8575   2.700   6.801   2.167 -0.5235 -1.1854  0.3488
 2144SOL     vw 8576   2.679   6.832   2.246  0.1596 -0.1712  0.1587
 2145SOL     ow 8577   6.801   4.979   4.434  0.4390 -0.0050 -0.5852
 2145SOL     hw 8578   6.825   4.997   4.343 -0.0832 -3.0345 -1.4417
 2145SOL     hw 8579   6.740   4.906   4.429 -2.5365  2.0128  2.0440
 2145SOL     vw 8580   6.796   4.972   4.422 -0.0224 -0.1385 -0.3512
 2146SOL     ow 8581   4.567   4.114   0.065 -0.2633  1.3359  0.2999
 2146SOL     hw 8582   4.472   4.126   0.055 -0.3193  0.8197  0.1623
 2146SOL     hw 8583   4.595   4.075  -0.017 -0.1963  0.0428  0.9066
 2146SOL     vw 8584   4.558   4.110   0.053 -0.2618  1.0972  0.3618
 2147SOL     ow 8585   1.189   5.117   2.797  0.3581 -0.2619 -0.3948
 2147SOL     hw 8586   1.242   5.070   2.733  1.9466  1.5975 -0.5441
 2147SOL     hw 8587   1.246   5.186   2.830 -1.8543  1.6666 -0.3093
 2147SOL     vw 8588   1.203   5.120   2.793  0.2758  0.2379 -0.4032
 2148SOL     ow 8589   3.706   0.336   4.265  0.3490 -0.4225 -0.0973
 2148SOL     hw 8590   3.611   0.335   4.259  0.2720  1.9642 -0.4758
 2148SOL     hw 8591   3.735   0.259   4.215 -1.3420 -0.5939 -0.8763
 2148SOL     vw 8592   3.697   0.326   4.257  0.1156 -0.1302 -0.2503
 2149SOL     ow 8593   2.406   4.335   3.014  0.0219  0.3294  0.1406
 2149SOL     hw 8594   2.330   4.276   3.019 -1.6769  2.5143  3.4349
 2149SOL     hw 8595   2.462   4.308   3.086  1.3130  0.2279 -0.8608
 2149SOL     vw 8596   2.403   4.323   3.024 -0.0319  0.6044  0.4431
 2150SOL     ow 8597   0.033   0.809   1.579  0.0481  0.1528  0.1952
 2150SOL     hw 8598   0.026   0.871   1.652 -0.7653  3.0916 -2.1551
 2150SOL     hw 8599  -0.056   0.779   1.565 -0.0458  0.6837 -0.4023
 2150SOL     vw 8600   0.020   0.813   1.587 -0.0716  0.6106 -0.1937
 2151SOL     ow 8601   2.625   0.675   3.708  0.2859  0.0601  0.0993
 2151SOL     hw 8602   2.562   0.620   3.755 -0.1819  2.0515  1.9600
 2151SOL     hw 8603   2.572   0.744   3.668  0.9024 -0.5389 -1.8775
 2151SOL     vw 8604   2.610   0.677   3.709  0.3055  0.2438  0.0839
 2152SOL     ow 8605   3.838   1.488   2.602  0.2984 -0.0748  0.4265
 2152SOL     hw 8606   3.760   1.478   2.656  1.1571 -1.8807  1.4353
 2152SOL     hw 8607   3.808   1.535   2.524 -1.3789  0.8939  1.5864
 2152SOL     vw 8608   3.824   1.493   2.599  0.1903 -0.1853  0.7125
 2153SOL     ow 8609   2.964   5.210   0.082 -0.5160 -0.3413  0.2257
 2153SOL     hw 8610   2.997   5.139   0.138 -0.2085 -0.8098 -0.5318
 2153SOL     hw 8611   2.869   5.209   0.096 -0.6277 -1.5209 -0.4478
 2153SOL     vw 8612   2.956   5.200   0.091 -0.4901 -0.5591  0.0369
 2154SOL     ow 8613   2.313   5.765   0.563 -0.3148 -0.2207 -0.5282
 2154SOL     hw 8614   2.393   5.795   0.520 -0.1591 -0.5114 -0.4411
 2154SOL     hw 8615   2.330   5.778   0.656 -0.3092 -0.4282 -0.5002
 2154SOL     vw 8616   2.326   5.771   0.569 -0.2936 -0.2861 -0.5130
 2155SOL     ow 8617   2.809   2.772   5.915  0.0329  0.4316 -0.5802
 2155SOL     hw 8618   2.798   2.754   6.008  3.5188  0.0289 -0.1188
 2155SOL     hw 8619   2.791   2.866   5.906 -1.5123  0.2400  0.2118
 2155SOL     vw 8620   2.805   2.782   5.926  0.2890  0.3532 -0.4146
 2156SOL     ow 8621   6.169   2.950   0.376  0.3208  0.7169  0.3854
 2156SOL     hw 8622   6.117   2.872   0.395  1.2611 -0.5808 -1.9362
 2156SOL     hw 8623   6.120   2.994   0.306  0.8136  1.0980  0.2807
 2156SOL     vw 8624   6.155   2.945   0.369  0.5097  0.5960  0.0653
 2157SOL     ow 8625   1.490   2.742   0.986 -0.4717 -0.0581  0.0413
 2157SOL     hw 8626   1.537   2.661   1.004 -1.3519 -0.6710 -0.3659
 2157SOL     hw 8627   1.558   2.810   0.987 -0.0657 -0.3719  3.0456
 2157SOL     vw 8628   1.506   2.741   0.988 -0.5342 -0.1804  0.3839
 2158SOL     ow 8629   0.889   1.258   1.857 -0.2371  0.5858 -0.0456
 2158SOL     hw 8630   0.870   1.262   1.951 -1.3696  1.5205 -0.2786
 2158SOL     hw 8631   0.977   1.295   1.849 -1.2680  3.4210  0.4113
 2158SOL     vw 8632   0.898   1.264   1.869 -0.5226  1.0831 -0.0160
 2159SOL     ow 8633   7.258   1.211   4.932  0.9506  0.0955  0.3766
 2159SOL     hw 8634   7.211   1.293   4.924  1.9658  0.5211 -2.1782
 2159SOL     hw 8635   7.193   1.144   4.912  0.3091  0.3020  1.6942
 2159SOL     vw 8636   7.243   1.213   4.928  0.9999  0.1789  0.2131
 2160SOL     ow 8637   5.177   6.530   3.637  0.0717 -0.4424  0.2299
 2160SOL     hw 8638   5.212   6.615   3.664 -1.5046 -0.3338  2.1289
 2160SOL     hw 8639   5.170   6.537   3.542 -0.9639  1.9861  0.4060
 2160SOL     vw 8640   5.181   6.542   3.628 -0.2730 -0.1075  0.5037
 2161poe    c31 8641   3.018   0.759   5.739 -0.6149 -0.3489 -0.4649
 2161poe     o2 8642   2.901   0.793   5.668 -0.9656 -0.0083  0.2590
 2161poe    c23 8643   2.880   0.743   5.538  0.0352 -0.4276  0.2425
 2161poe    c23 8644   2.756   0.797   5.464 -0.1983 -0.5827  0.5195
 2161poe     o2 8645   2.626   0.744   5.477 -0.4036 -0.3386 -0.4710
 2161poe    c23 8646   2.530   0.838   5.436 -0.2015  0.2833  0.4492
 2161poe    c23 8647   2.394   0.769   5.413 -0.2716  0.6078 -0.1521
 2161poe     o2 8648   2.337   0.717   5.531 -0.2614 -0.2943 -0.5365
 2161poe    c23 8649   2.203   0.685   5.502 -0.6143  0.1963  0.5074
 2161poe    c23 8650   2.126   0.625   5.621  0.3440 -0.0131  1.0320
 2161poe     o2 8651   2.161   0.493   5.655  0.1205 -0.3738 -0.0929
 2161poe    c31 8652   2.098   0.443   5.771 -1.0117 -0.6139 -0.7998
 2162poe    c31 8653   4.321   6.624   2.183  0.4494  0.5435  0.0400
 2162poe     o2 8654   4.321   6.578   2.316  0.3400  0.1416 -0.0991
 2162poe    c23 8655   4.269   6.681   2.397  0.2364  0.0446 -0.0418
 2162poe    c23 8656   4.286   6.659   2.548 -0.1881 -0.2705 -0.0362
 2162poe     o2 8657   4.411   6.670   2.613 -0.0800  0.0821 -0.2934
 2162poe    c23 8658   4.399   6.730   2.740  0.1049 -0.2412 -0.1209
 2162poe    c23 8659   4.525   6.750   2.825 -0.1270  0.1517  0.1314
 2162poe     o2 8660   4.577   6.620   2.831 -0.0748  0.1525 -0.2882
 2162poe    c23 8661   4.692   6.618   2.913 -0.2132 -0.1039 -0.0973
 2162poe    c23 8662   4.756   6.478   2.918  0.7948  0.3691  0.8129
 2162poe     o2 8663   4.818   6.449   2.795 -0.2482 -0.1987  0.4053
 2162poe    c31 8664   4.920   6.353   2.812  0.1964  0.3176  0.7007
 2163poe    c31 8665   0.276   6.598   2.101  0.1975 -0.2729 -0.0759
 2163poe     o2 8666   0.156   6.565   2.167  0.1188 -0.5890 -0.3756
 2163poe    c23 8667   0.137   6.636   2.287  0.8778  0.0221 -0.6128
 2163poe    c23 8668   0.213   6.575   2.407  0.1248 -0.3755 -0.3342
 2163poe     o2 8669   0.173   6.452   2.462 -0.6732 -0.0613 -0.1977
 2163poe    c23 8670   0.262   6.397   2.557 -0.6015  1.2586  0.5173
 2163poe    c23 8671   0.239   6.263   2.629  0.3732  0.5451 -0.4660
 2163poe     o2 8672   0.121   6.258   2.706  0.4437 -0.2573 -0.4082
 2163poe    c23 8673   0.083   6.123   2.722 -0.1075 -0.0439  0.1219
 2163poe    c23 8674  -0.069   6.117   2.743 -0.0740  0.1077  0.4216
 2163poe     o2 8675  -0.128   6.176   2.629  0.4196  0.4846  0.3629
 2163poe    c31 8676  -0.221   6.276   2.662 -0.0255  0.2627 -0.2102
 2164poe    c31 8677   3.538   1.570   2.220 -0.3436 -0.6634  0.2548
 2164poe     o2 8678   3.454   1.474   2.160 -0.5912 -0.0803 -0.3376
 2164poe    c23 8679   3.368   1.407   2.249 -0.4136  0.8386  0.5458
 2164poe    c23 8680   3.336   1.276   2.174 -0.1418  0.9320  0.2635
 2164poe     o2 8681   3.294   1.313   2.044 -0.0840  0.0048 -0.0223
 2164poe    c23 8682   3.280   1.203   1.957 -0.2450 -0.3619  0.4643
 2164poe    c23 8683   3.195   1.255   1.840  0.3119 -0.3498  0.0619
 2164poe     o2 8684   3.253   1.378   1.804 -0.1330 -0.2415 -0.2922
 2164poe    c23 8685   3.191   1.452   1.701  0.0371 -0.2393 -0.3926
 2164poe    c23 8686   3.287   1.552   1.634 -0.3563  0.0016 -0.5962
 2164poe     o2 8687   3.307   1.668   1.712  0.2001 -0.2829 -0.3079
 2164poe    c31 8688   3.343   1.779   1.633  0.0712 -0.0618 -0.0577
 2165poe    c31 8689   3.936   1.012   7.130  0.6599 -0.3242 -0.2461
 2165poe     o2 8690   3.848   0.913   7.082 -0.1601  0.0125  0.5288
 2165poe    c23 8691   3.783   0.969   6.970  0.4749 -0.6090 -0.1677
 2165poe    c23 8692   3.703   0.858   6.901 -0.4973  0.0299 -0.0851
 2165poe     o2 8693   3.794   0.769   6.840 -0.1726  0.3332 -0.0452
 2165poe    c23 8694   3.721   0.673   6.767  0.4272  0.1646 -0.4322
 2165poe    c23 8695   3.818   0.610   6.666  0.7123 -0.0562 -0.0193
 2165poe     o2 8696   3.836   0.682   6.547  0.3025  0.2063  0.0773
 2165poe    c23 8697   3.901   0.603   6.450 -0.3465  0.4572 -0.5756
 2165poe    c23 8698   3.937   0.674   6.318 -0.2734  0.0902 -0.7541
 2165poe     o2 8699   4.038   0.772   6.325 -0.4533  0.2043  0.3354
 2165poe    c31 8700   4.034   0.858   6.214 -0.1696  0.0477  0.2015
 2166poe    c31 8701   1.452   6.142   3.030 -0.0638 -0.1089 -0.4700
 2166poe     o2 8702   1.494   6.008   3.030 -0.0359 -0.1008  0.1806
 2166poe    c23 8703   1.381   5.924   3.027 -0.1854  0.1052  0.0775
 2166poe    c23 8704   1.354   5.846   2.897  0.3801 -0.6778  0.4182
 2166poe     o2 8705   1.328   5.913   2.775 -0.5580 -0.7783  0.5557
 2166poe    c23 8706   1.320   5.814   2.676  0.6882 -0.3258 -0.0149
 2166poe    c23 8707   1.418   5.840   2.559 -0.5683 -0.0711 -1.0307
 2166poe     o2 8708   1.411   5.965   2.496  0.2747  0.3333 -0.3459
 2166poe    c23 8709   1.530   5.990   2.424  0.4692 -0.4848 -0.3107
 2166poe    c23 8710   1.627   6.073   2.510 -0.4339 -0.3792  0.6249
 2166poe     o2 8711   1.572   6.199   2.538  0.1127 -0.0778  0.3508
 2166poe    c31 8712   1.667   6.294   2.580 -0.0808  0.2398  0.0746
 2167poe    c31 8713   5.127   1.177   2.905  0.9771  0.0586  0.0976
 2167poe     o2 8714   5.141   1.302   2.968 -0.0432  0.2846 -0.1020
 2167poe    c23 8715   5.125   1.290   3.108 -0.1049 -0.4367 -0.1688
 2167poe    c23 8716   5.056   1.411   3.173 -0.2944 -0.3686 -0.4968
 2167poe     o2 8717   5.140   1.522   3.197 -0.4351 -0.3702  0.0082
 2167poe    c23 8718   5.074   1.613   3.282  0.2469  0.2328 -0.0953
 2167poe    c23 8719   5.153   1.733   3.336  0.2570  0.1439  0.0900
 2167poe     o2 8720   5.209   1.827   3.247  0.1607 -0.0992 -0.2291
 2167poe    c23 8721   5.190   1.952   3.310  0.6017 -0.2639  0.2313
 2167poe    c23 8722   5.250   2.060   3.218  0.0275  0.0136  0.1765
 2167poe     o2 8723   5.170   2.076   3.103 -0.3701 -0.4143  0.3907
 2167poe    c31 8724   5.205   2.200   3.046 -0.6326 -0.4164  0.2238
 2168poe    c31 8725   3.597   3.709   2.736 -0.1538  0.1046 -0.0599
 2168poe     o2 8726   3.475   3.690   2.668  0.1716 -0.5713 -0.4634
 2168poe    c23 8727   3.371   3.666   2.761 -0.0232 -0.1414 -0.5717
 2168poe    c23 8728   3.238   3.681   2.684 -0.2860  0.0131 -0.0946
 2168poe     o2 8729   3.206   3.579   2.592 -0.3469 -0.1048  0.0594
 2168poe    c23 8730   3.201   3.449   2.646  0.0072 -0.0114  0.3190
 2168poe    c23 8731   3.219   3.332   2.547  0.3714  0.4811 -0.2047
 2168poe     o2 8732   3.101   3.306   2.474  0.0102 -0.3772  0.6675
 2168poe    c23 8733   3.132   3.222   2.366 -0.1704  0.8356 -0.3445
 2168poe    c23 8734   3.145   3.289   2.228  0.5231  0.2882 -0.5536
 2168poe     o2 8735   3.027   3.349   2.178  0.1509 -0.4183 -0.5322
 2168poe    c31 8736   3.070   3.420   2.064  0.0436  0.5752  0.0404
 2169poe    c31 8737   2.009   4.653   6.560 -0.0383 -0.0043  0.3810
 2169poe     o2 8738   2.021   4.519   6.519 -0.5088  0.0701 -0.0220
 2169poe    c23 8739   1.955   4.504   6.396 -0.2677 -0.9561 -0.0377
 2169poe    c23 8740   1.968   4.365   6.331  0.3875 -0.8310 -0.1873
 2169poe     o2 8741   1.911   4.263   6.410  0.8707 -0.4391  0.6798
 2169poe    c23 8742   1.904   4.132   6.358 -0.2781 -0.2899  0.4313
 2169poe    c23 8743   2.006   4.044   6.434  0.6820  0.6419  0.2417
 2169poe     o2 8744   1.972   4.055   6.570 -0.6122  0.3973 -0.0449
 2169poe    c23 8745   2.054   3.984   6.660  0.1290  0.5262 -0.6078
 2169poe    c23 8746   1.984   3.984   6.797  0.9575  0.3469 -0.1735
 2169poe     o2 8747   1.908   4.100   6.822  0.5291  0.0847 -0.2292
 2169poe    c31 8748   1.877   4.117   6.958  0.2433 -0.1739 -0.2619
 2170poe    c31 8749   1.153   2.559   5.050  0.1166 -0.4657  0.1570
 2170poe     o2 8750   1.246   2.624   5.133  0.0437  0.2970 -0.3424
 2170poe    c23 8751   1.328   2.714   5.061 -0.0995  0.2545 -0.5593
 2170poe    c23 8752   1.391   2.813   5.161  0.2281 -0.2079 -0.2997
 2170poe     o2 8753   1.280   2.867   5.229  0.5702 -0.0774  0.1531
 2170poe    c23 8754   1.336   2.939   5.337  0.1856  0.6676 -0.1365
 2170poe    c23 8755   1.220   3.000   5.418  0.3493  0.4221  0.2872
 2170poe     o2 8756   1.122   2.899   5.418  0.6641  0.1160 -0.1263
 2170poe    c23 8757   1.025   2.950   5.507  0.1896 -0.0262 -0.5564
 2170poe    c23 8758   0.913   2.852   5.546 -0.1112  0.6261  0.2347
 2170poe     o2 8759   0.831   2.814   5.438 -0.2810 -0.0706  0.6055
 2170poe    c31 8760   0.720   2.741   5.487 -0.2315 -0.5477  0.0186
 2171poe    c31 8761   0.518   3.449   0.746  0.7766 -0.2576  0.8293
 2171poe     o2 8762   0.428   3.489   0.847  0.5524  0.7582  0.2473
 2171poe    c23 8763   0.450   3.435   0.976 -0.1773  0.0260  0.0704
 2171poe    c23 8764   0.316   3.439   1.053  0.2292  0.4284  0.7604
 2171poe     o2 8765   0.289   3.578   1.055  0.2908  0.4632 -0.2350
 2171poe    c23 8766   0.162   3.621   1.099  0.1226  0.2143 -0.4747
 2171poe    c23 8767   0.137   3.763   1.045 -0.2396  0.2614 -0.1862
 2171poe     o2 8768   0.116   3.767   0.905 -0.5038  0.3139 -0.1449
 2171poe    c23 8769   0.065   3.893   0.871  0.3783  0.7843  0.2400
 2171poe    c23 8770   0.013   3.893   0.726  0.6677 -0.1972  0.1315
 2171poe     o2 8771   0.117   3.879   0.632  0.5411  0.5854 -0.1287
 2171poe    c31 8772   0.066   3.907   0.503  0.2478  0.4958 -0.0326
 2172poe    c31 8773   4.960   4.212   4.977 -0.3315 -0.5084  0.3825
 2172poe     o2 8774   4.850   4.275   4.916 -0.0274 -0.7836 -0.4673
 2172poe    c23 8775   4.744   4.285   5.009  0.3340 -0.5817 -0.0787
 2172poe    c23 8776   4.605   4.292   4.945  0.5936 -0.6891 -0.6537
 2172poe     o2 8777   4.593   4.372   4.829 -0.3068 -0.2477 -0.2617
 2172poe    c23 8778   4.462   4.383   4.778 -0.1974 -0.3831 -0.5702
 2172poe    c23 8779   4.482   4.411   4.627  0.6227  0.0833 -0.3828
 2172poe     o2 8780   4.530   4.543   4.618 -0.4700  0.5055 -0.1885
 2172poe    c23 8781   4.538   4.571   4.480 -0.1048 -0.1509 -0.3032
 2172poe    c23 8782   4.600   4.711   4.487  0.1655 -0.2753 -0.2229
 2172poe     o2 8783   4.712   4.715   4.573 -0.2242  0.0017  0.2821
 2172poe    c31 8784   4.785   4.835   4.561 -0.0594 -0.0873  0.3947
 2173poe    c31 8785   2.002   0.368   0.244 -0.1263  0.3992  0.3296
 2173poe     o2 8786   1.986   0.343   0.382  0.1701 -0.0714  0.2847
 2173poe    c23 8787   1.936   0.215   0.410  0.3949 -0.1334  0.4008
 2173poe    c23 8788   1.895   0.208   0.559  0.0104 -0.2473  0.2918
 2173poe     o2 8789   2.007   0.252   0.632  0.2349  0.0106 -0.2073
 2173poe    c23 8790   1.966   0.284   0.762 -0.0086 -0.5828 -0.1380
 2173poe    c23 8791   2.088   0.271   0.855  0.2571 -0.7194 -0.5038
 2173poe     o2 8792   2.202   0.330   0.798  0.0491  0.3319  0.1408
 2173poe    c23 8793   2.304   0.335   0.895  0.0368  0.0908  0.1677
 2173poe    c23 8794   2.433   0.395   0.837 -0.0691  0.0075 -0.1563
 2173poe     o2 8795   2.426   0.533   0.811 -0.3900  0.1443  0.6270
 2173poe    c31 8796   2.540   0.589   0.750 -0.2340 -0.4600  0.3566
 2174poe    c31 8797   0.242   5.449   3.566 -0.4915  0.4220 -0.4660
 2174poe     o2 8798   0.323   5.478   3.677 -0.2540 -0.6486 -0.3562
 2174poe    c23 8799   0.262   5.433   3.797  0.2769  0.3304  0.2911
 2174poe    c23 8800   0.316   5.307   3.867 -0.3229 -0.0147  0.1402
 2174poe     o2 8801   0.441   5.332   3.928 -0.4291  0.5659  0.1302
 2174poe    c23 8802   0.501   5.215   3.980 -0.3696  0.3757 -0.3651
 2174poe    c23 8803   0.648   5.243   4.016 -0.3855 -0.0500  0.0287
 2174poe     o2 8804   0.699   5.313   3.905 -0.1477  0.0336  0.1898
 2174poe    c23 8805   0.838   5.292   3.888 -0.2575  0.3129 -1.1201
 2174poe    c23 8806   0.918   5.399   3.811  0.7924  0.1488 -0.2805
 2174poe     o2 8807   0.906   5.400   3.670  0.2605 -0.2820 -0.2426
 2174poe    c31 8808   1.002   5.490   3.621  0.0822  0.2767  0.4212
 2175poe    c31 8809   2.774   3.281   0.512  0.1984 -0.4517 -0.1746
 2175poe     o2 8810   2.777   3.418   0.546 -0.5776 -0.4302 -0.1645
 2175poe    c23 8811   2.715   3.441   0.670 -0.1870  0.0287 -0.0536
 2175poe    c23 8812   2.741   3.580   0.731  0.0199  0.2008 -0.5294
 2175poe     o2 8813   2.678   3.692   0.672 -0.7865  0.1363  0.1856
 2175poe    c23 8814   2.736   3.809   0.725  0.0043 -0.1426 -0.0542
 2175poe    c23 8815   2.645   3.930   0.700  0.7247  0.3401 -0.3810
 2175poe     o2 8816   2.564   3.917   0.586  0.2651  0.1994 -0.0437
 2175poe    c23 8817   2.529   4.046   0.542  0.0639  0.1112 -0.1427
 2175poe    c23 8818   2.442   4.068   0.416 -0.1640  0.2871  0.0423
 2175poe     o2 8819   2.487   4.011   0.295  0.3977  0.3999  0.1954
 2175poe    c31 8820   2.536   4.119   0.217  0.1090 -0.1699 -0.7949
 2176poe    c31 8821   5.667   2.602   7.033 -0.4454  0.0505  0.3362
 2176poe     o2 8822   5.690   2.526   6.916 -0.0333  0.4826  0.1331
 2176poe    c23 8823   5.583   2.435   6.903  0.2283  0.1458  0.3041
 2176poe    c23 8824   5.621   2.323   6.804 -0.0131  0.5345 -0.2327
 2176poe     o2 8825   5.540   2.289   6.694  0.2943 -0.0478 -0.2826
 2176poe    c23 8826   5.554   2.389   6.596  0.1336  0.3907  0.1363
 2176poe    c23 8827   5.447   2.386   6.485 -0.0100 -0.2884  0.2878
 2176poe     o2 8828   5.327   2.452   6.519 -0.0748 -0.5359  0.5467
 2176poe    c23 8829   5.235   2.506   6.427 -0.0975  0.1346  0.9550
 2176poe    c23 8830   5.145   2.610   6.496 -0.4225  0.5080 -0.0219
 2176poe     o2 8831   5.042   2.547   6.570  0.0501  0.2208  0.3928
 2176poe    c31 8832   4.975   2.644   6.647  0.4664  0.9361 -0.1343
 2177poe    c31 8833   7.085   2.346   0.656 -0.6570  0.5388  0.0689
 2177poe     o2 8834   7.223   2.367   0.634 -0.5588 -0.2032 -0.0378
 2177poe    c23 8835   7.233   2.369   0.493  0.5708  0.4107  0.0391
 2177poe    c23 8836   7.382   2.345   0.464  0.5205  0.1044  0.0265
 2177poe     o2 8837   7.461   2.401   0.566 -0.3561  0.1492  0.6947
 2177poe    c23 8838   7.598   2.369   0.550 -0.4684 -0.2624  0.5579
 2177poe    c23 8839   7.643   2.376   0.697  0.0467  0.4584  0.3697
 2177poe     o2 8840   7.542   2.326   0.781  0.2456  0.7122  0.7609
 2177poe    c23 8841   7.579   2.238   0.885 -0.0236  0.1058  0.3475
 2177poe    c23 8842   7.652   2.310   0.999 -0.3630  0.7502  0.1589
 2177poe     o2 8843   7.559   2.400   1.054 -0.5921  0.3708  0.3951
 2177poe    c31 8844   7.616   2.456   1.170  1.1422  0.3391 -0.4017
 2178poe    c31 8845   1.723   1.509   1.040  0.3908  0.2262  0.3904
 2178poe     o2 8846   1.760   1.620   0.961 -0.3987 -0.1453 -0.5217
 2178poe    c23 8847   1.729   1.734   1.037  0.1393 -0.3464  0.0168
 2178poe    c23 8848   1.713   1.844   0.930 -0.0037 -0.5150 -0.1353
 2178poe     o2 8849   1.580   1.856   0.885  0.3024  0.4129 -0.8231
 2178poe    c23 8850   1.569   1.993   0.854  0.1816  0.5625 -0.1342
 2178poe    c23 8851   1.455   1.992   0.751  0.3832 -0.3209 -0.3569
 2178poe     o2 8852   1.340   1.940   0.814  0.2633  0.3199 -0.0328
 2178poe    c23 8853   1.231   1.941   0.725 -0.1017 -0.3142  0.4037
 2178poe    c23 8854   1.125   1.871   0.813 -0.4164  0.1083  0.3619
 2178poe     o2 8855   1.168   1.759   0.887 -0.3493  0.0862  0.2896
 2178poe    c31 8856   1.050   1.690   0.921 -0.1903 -0.0830  0.4966
 2179poe    c31 8857   3.757   3.873   0.047 -0.6612  0.3782 -0.6662
 2179poe     o2 8858   3.650   3.789   0.083 -0.4293  0.2736 -0.2144
 2179poe    c23 8859   3.666   3.725   0.208  0.1129  0.7848 -0.0175
 2179poe    c23 8860   3.690   3.780   0.350  0.0293 -0.0523  0.3287
 2179poe     o2 8861   3.583   3.867   0.382  0.2204  0.1522  0.4144
 2179poe    c23 8862   3.612   3.997   0.427 -0.0227  0.3455  0.0120
 2179poe    c23 8863   3.517   4.051   0.535  0.2169 -0.4176  0.6108
 2179poe     o2 8864   3.402   4.099   0.468  0.2688 -0.2637  0.6308
 2179poe    c23 8865   3.336   4.206   0.532  0.4060  0.7028 -0.8012
 2179poe    c23 8866   3.220   4.257   0.445 -0.5173  0.1300  0.0620
 2179poe     o2 8867   3.261   4.345   0.342 -0.1569 -0.5499 -0.3819
 2179poe    c31 8868   3.149   4.373   0.260 -0.4132  0.1254  0.1901
 2180poe    c31 8869   6.321   6.420   2.025  0.7279 -0.1405 -0.1028
 2180poe     o2 8870   6.367   6.545   1.977  0.0613  0.0807 -0.1672
 2180poe    c23 8871   6.469   6.524   1.882  0.0761  0.1128 -0.1583
 2180poe    c23 8872   6.529   6.655   1.827  0.4033 -0.0552 -0.1994
 2180poe     o2 8873   6.561   6.747   1.929  0.2913  0.1169 -0.3205
 2180poe    c23 8874   6.589   6.874   1.875  0.8215  0.1131 -0.0649
 2180poe    c23 8875   6.564   6.985   1.979 -0.3968  0.2113 -0.4417
 2180poe     o2 8876   6.427   7.008   2.003 -0.3504 -0.2724  0.3329
 2180poe    c23 8877   6.394   7.135   2.055  0.2132  0.2898 -0.6491
 2180poe    c23 8878   6.246   7.164   2.021 -0.0011 -0.0190  0.0068
 2180poe     o2 8879   6.163   7.054   2.049 -0.4023  0.2662 -0.0649
 2180poe    c31 8880   6.046   7.070   1.971 -0.0144 -0.0295 -0.7202
 2181poe    c31 8881   4.078   1.803   2.545  0.0185  0.4425  0.5762
 2181poe     o2 8882   4.154   1.730   2.639  0.5815  0.1354 -0.1034
 2181poe    c23 8883   4.282   1.788   2.631  0.4311  0.4738 -0.0574
 2181poe    c23 8884   4.367   1.743   2.752  0.1535 -0.0868 -0.0678
 2181poe     o2 8885   4.316   1.813   2.863 -0.1638 -0.4157 -0.0068
 2181poe    c23 8886   4.409   1.802   2.969 -0.6573  0.0607  0.4843
 2181poe    c23 8887   4.375   1.896   3.086  0.1258  0.6118  0.2814
 2181poe     o2 8888   4.235   1.892   3.101  0.1073  0.0713 -0.0036
 2181poe    c23 8889   4.193   1.970   3.211 -0.0738 -0.4598  0.3074
 2181poe    c23 8890   4.045   2.012   3.213  0.1065  0.1915  0.1159
 2181poe     o2 8891   3.997   2.084   3.101  0.7975 -0.1112 -0.3824
 2181poe    c31 8892   4.030   2.218   3.127  0.2893 -0.1556  0.5429
 2182poe    c31 8893   3.104   5.886   6.194 -0.2140  0.4641 -0.0663
 2182poe     o2 8894   3.242   5.888   6.164 -0.2298 -0.0726 -0.1989
 2182poe    c23 8895   3.287   5.916   6.033 -0.0499 -0.3392 -0.1937
 2182poe    c23 8896   3.260   5.828   5.909  0.5363 -0.3942 -0.2838
 2182poe     o2 8897   3.124   5.796   5.893  0.4177 -0.3190  0.5197
 2182poe    c23 8898   3.097   5.705   5.788  0.1599  0.0010  0.3050
 2182poe    c23 8899   2.960   5.729   5.724  0.5195 -0.1192 -0.5150
 2182poe     o2 8900   2.960   5.850   5.652  0.3917 -0.0293 -0.3654
 2182poe    c23 8901   2.912   5.954   5.735  0.1995 -0.0471 -0.4552
 2182poe    c23 8902   2.938   6.095   5.680  0.4324 -0.0335 -0.3101
 2182poe     o2 8903   2.872   6.126   5.559  0.8738  0.2866 -0.4736
 2182poe    c31 8904   2.853   6.266   5.557  0.5368  0.2457 -0.3614
 2183poe    c31 8905   6.616   5.393   7.021 -0.1222  0.2032 -0.9133
 2183poe     o2 8906   6.527   5.286   6.999  0.2012 -0.2849  0.0730
 2183poe    c23 8907   6.452   5.323   6.885  0.6428  0.5819  0.0528
 2183poe    c23 8908   6.313   5.258   6.870  0.7072  0.3836  0.3021
 2183poe     o2 8909   6.351   5.123   6.885  0.2408  0.1931 -0.1787
 2183poe    c23 8910   6.239   5.060   6.942  0.4210  0.2748  0.2696
 2183poe    c23 8911   6.292   4.951   7.036  0.2250 -0.1937 -0.1560
 2183poe     o2 8912   6.400   5.005   7.111 -0.0694  0.0349  0.1079
 2183poe    c23 8913   6.430   4.924   7.223 -0.3270  0.1025  0.2274
 2183poe    c23 8914   6.508   5.028   7.306 -0.0945 -0.1245  0.2928
 2183poe     o2 8915   6.589   5.106   7.222 -0.2016 -0.8810 -0.5305
 2183poe    c31 8916   6.666   5.182   7.313  0.3019 -0.9127 -0.9234
 2184poe    c31 8917   6.084   4.378   5.591  0.3839 -0.1609 -0.1101
 2184poe     o2 8918   6.064   4.510   5.547 -0.4693 -0.3656 -0.3497
 2184poe    c23 8919   6.186   4.575   5.520 -0.6685  0.3504  0.4378
 2184poe    c23 8920   6.170   4.684   5.413  0.4998  0.3468  0.2400
 2184poe     o2 8921   6.085   4.793   5.445 -0.2154 -0.2964  0.5528
 2184poe    c23 8922   6.052   4.875   5.335  0.5240 -0.5185  0.1579
 2184poe    c23 8923   5.957   4.818   5.228  0.3794 -0.1761  0.1030
 2184poe     o2 8924   5.822   4.791   5.259  0.2544  0.0253 -0.2621
 2184poe    c23 8925   5.766   4.713   5.156  0.0310  0.3351 -0.3754
 2184poe    c23 8926   5.615   4.697   5.181  0.1296 -0.9917 -0.5585
 2184poe     o2 8927   5.619   4.645   5.312 -0.2071  0.0874 -0.1126
 2184poe    c31 8928   5.484   4.663   5.347 -0.1211 -0.1316  0.3336
 2185poe    c31 8929   2.621   6.656   4.042 -0.0244 -0.5260  0.5800
 2185poe     o2 8930   2.621   6.776   4.115 -0.1282 -0.0028 -0.2656
 2185poe    c23 8931   2.521   6.865   4.071 -0.0703  0.0587 -0.2724
 2185poe    c23 8932   2.497   6.994   4.151 -0.8178 -0.0871 -0.2526
 2185poe     o2 8933   2.434   6.990   4.277  0.0661 -0.3220  0.1817
 2185poe    c23 8934   2.295   6.972   4.265  0.0168  0.2449 -0.1489
 2185poe    c23 8935   2.221   6.936   4.395  0.6118 -0.3361  0.0351
 2185poe     o2 8936   2.269   6.818   4.456  0.2996 -0.3639  0.2282
 2185poe    c23 8937   2.161   6.757   4.523  0.1077 -0.2528  0.0205
 2185poe    c23 8938   2.188   6.614   4.574 -0.1936 -0.1514  0.4633
 2185poe     o2 8939   2.305   6.637   4.649 -0.0980  0.2387  0.1956
 2185poe    c31 8940   2.305   6.533   4.744 -0.4864  0.6536  0.6547
 2186poe    c31 8941   7.169   5.149   3.392  0.2661  0.0679 -0.3540
 2186poe     o2 8942   7.178   5.270   3.320  0.0882  0.2896 -0.0058
 2186poe    c23 8943   7.060   5.346   3.335 -0.0904  0.0363 -0.1204
 2186poe    c23 8944   7.089   5.475   3.255  1.0152 -0.2675 -0.2315
 2186poe     o2 8945   7.137   5.429   3.130 -0.3314 -0.4171 -0.7126
 2186poe    c23 8946   7.159   5.542   3.048 -0.0307  0.0236 -0.0355
 2186poe    c23 8947   7.270   5.502   2.950  0.1484  0.1226  0.1253
 2186poe     o2 8948   7.378   5.435   3.011  0.2097  0.5164  0.4491
 2186poe    c23 8949   7.478   5.427   2.913  0.0110 -0.4466  0.3138
 2186poe    c23 8950   7.616   5.374   2.956  0.4811  0.4311 -0.0781
 2186poe     o2 8951   7.679   5.458   3.051  0.4476  1.2711 -0.7862
 2186poe    c31 8952   7.813   5.422   3.074 -0.0356  0.0066  0.1860
 2187poe    c31 8953   4.007   5.554   0.759 -0.6874 -0.0577 -0.0558
 2187poe     o2 8954   3.929   5.621   0.855 -0.5528 -0.0672  0.0609
 2187poe    c23 8955   3.930   5.759   0.824  0.4144 -0.0144  0.3044
 2187poe    c23 8956   3.851   5.839   0.929 -0.0745 -0.0894 -0.0027
 2187poe     o2 8957   3.740   5.770   0.982 -0.3399 -0.2711 -0.7871
 2187poe    c23 8958   3.676   5.820   1.097  0.4208 -0.5600 -0.2342
 2187poe    c23 8959   3.549   5.733   1.102  0.0856 -0.0605 -0.0503
 2187poe     o2 8960   3.594   5.601   1.122 -0.6949 -0.4226 -0.6345
 2187poe    c23 8961   3.541   5.538   1.236 -0.0710 -0.4837 -0.3737
 2187poe    c23 8962   3.542   5.385   1.220  0.1732 -0.4821 -0.3732
 2187poe     o2 8963   3.668   5.337   1.178  0.4633 -0.1419  0.0972
 2187poe    c31 8964   3.678   5.196   1.187 -0.3549 -0.1901  0.3256
 2188poe    c31 8965   5.055   6.142   6.759 -0.0854  0.3325 -0.4021
 2188poe     o2 8966   4.936   6.069   6.743  0.1497 -0.1613  0.0844
 2188poe    c23 8967   4.889   6.058   6.875 -1.3558  0.7403 -0.3539
 2188poe    c23 8968   4.797   5.935   6.876  0.1089 -0.3799 -0.1191
 2188poe     o2 8969   4.706   5.945   6.769 -0.2199  0.4462  0.2301
 2188poe    c23 8970   4.638   5.823   6.743 -0.0865  0.3963  0.1103
 2188poe    c23 8971   4.581   5.848   6.603  0.1682  0.2059 -0.0266
 2188poe     o2 8972   4.674   5.923   6.528 -0.0514  0.0742 -0.4395
 2188poe    c23 8973   4.613   6.013   6.438 -0.5520  0.0602 -0.1201
 2188poe    c23 8974   4.716   6.120   6.400 -0.4790 -0.0050 -0.1036
 2188poe     o2 8975   4.826   6.107   6.488 -0.3332 -0.2390 -0.3189
 2188poe    c31 8976   4.913   6.207   6.439  0.0236 -0.4013 -0.0238
 2189poe    c31 8977   5.754   1.784   0.399  0.3958 -0.2766  0.2442
 2189poe     o2 8978   5.805   1.895   0.471 -0.2257  0.1582  0.0209
 2189poe    c23 8979   5.939   1.880   0.511 -0.3370  0.0372  0.3526
 2189poe    c23 8980   5.999   1.994   0.596  0.5160  0.2657 -0.5351
 2189poe     o2 8981   5.971   2.124   0.549  0.4942  0.1049 -0.9755
 2189poe    c23 8982   6.062   2.220   0.597 -0.2434  0.2611  0.1592
 2189poe    c23 8983   5.972   2.334   0.649 -0.4429  0.2459 -0.1506
 2189poe     o2 8984   5.853   2.351   0.575 -0.3653 -0.0236 -0.3413
 2189poe    c23 8985   5.783   2.467   0.615  0.1636  0.4464 -0.7388
 2189poe    c23 8986   5.660   2.500   0.528 -0.4372 -0.3186 -0.1979
 2189poe     o2 8987   5.565   2.396   0.531  0.0752 -0.7838 -0.0259
 2189poe    c31 8988   5.440   2.452   0.499  0.3371  0.0555  0.3999
 2190poe    c31 8989   0.524   6.862   1.092  0.6784 -0.0463  1.1684
 2190poe     o2 8990   0.578   6.993   1.097 -0.5572  0.5258  0.0927
 2190poe    c23 8991   0.533   7.055   1.215 -0.7049  0.2428  0.1859
 2190poe    c23 8992   0.594   7.195   1.230 -0.6009  0.2155  0.0194
 2190poe     o2 8993   0.734   7.208   1.239 -0.5301 -0.4773 -0.0636
 2190poe    c23 8994   0.777   7.183   1.371  0.2506 -0.0853 -0.2342
 2190poe    c23 8995   0.920   7.233   1.396 -0.0586  0.4248  0.5501
 2190poe     o2 8996   0.973   7.187   1.274  0.1733  0.6232  0.5744
 2190poe    c23 8997   1.112   7.202   1.254  0.1800  0.2792  0.3380
 2190poe    c23 8998   1.147   7.273   1.122  0.2828 -0.7006 -0.1664
 2190poe     o2 8999   1.061   7.206   1.033 -0.5008  0.0533  0.0131
 2190poe    c31 9000   1.147   7.178   0.925 -0.7477  1.0863 -0.4667
 2191poe    c31 9001   5.200   4.656   6.694 -0.2067  0.1308  0.1902
 2191poe     o2 9002   5.162   4.709   6.819  0.2379  0.5179  0.1623
 2191poe    c23 9003   5.141   4.849   6.809 -0.0142  0.4980  0.3886
 2191poe    c23 9004   5.061   4.898   6.931 -0.1923 -0.3293  0.6155
 2191poe     o2 9005   5.134   4.842   7.038  0.3386 -0.8261  0.0008
 2191poe    c23 9006   5.063   4.870   7.156  0.0078  0.1994 -0.4254
 2191poe    c23 9007   5.134   4.778   7.258 -0.2189  0.0935 -0.3637
 2191poe     o2 9008   5.156   4.649   7.205  0.0346 -0.0317  0.0441
 2191poe    c23 9009   5.193   4.559   7.307 -0.0522  0.0262  0.1273
 2191poe    c23 9010   5.277   4.445   7.247  0.1428  0.1349  0.1923
 2191poe     o2 9011   5.402   4.481   7.194  0.0263 -0.0452 -0.2107
 2191poe    c31 9012   5.480   4.364   7.197  0.2204  0.0817 -0.2966
 2192poe    c31 9013   0.913   5.119   1.530 -0.3396  0.1519  0.2946
 2192poe     o2 9014   0.821   5.162   1.627 -0.0945  0.3641  0.4345
 2192poe    c23 9015   0.825   5.303   1.631 -0.0292  0.3976 -0.6028
 2192poe    c23 9016   0.759   5.363   1.756  0.8018  0.4765 -0.1941
 2192poe     o2 9017   0.821   5.325   1.877  0.5372 -0.3879 -0.3252
 2192poe    c23 9018   0.763   5.393   1.987  0.3893  0.1714 -0.7457
 2192poe    c23 9019   0.842   5.351   2.112 -0.3592 -0.6093 -0.5256
 2192poe     o2 9020   0.838   5.210   2.117 -0.0616 -0.6087 -0.2248
 2192poe    c23 9021   0.901   5.158   2.232  0.1487  0.1207 -0.0011
 2192poe    c23 9022   0.876   5.006   2.227  0.2986  0.1066 -0.3446
 2192poe     o2 9023   0.918   4.961   2.100  0.5887  0.0289 -0.2216
 2192poe    c31 9024   0.982   4.836   2.108  0.2891 -0.0835  0.4614
 2193poe    c31 9025   1.474   6.570   1.332 -0.1494 -0.4361 -0.3424
 2193poe     o2 9026   1.498   6.631   1.207  0.3022 -0.2882 -0.1864
 2193poe    c23 9027   1.467   6.767   1.229  0.4935 -0.3104  0.2284
 2193poe    c23 9028   1.521   6.855   1.114 -0.3918  0.1126  0.1310
 2193poe     o2 9029   1.468   6.828   0.986 -0.1087 -0.2332  0.0854
 2193poe    c23 9030   1.541   6.913   0.901 -0.5256  0.1386  0.0918
 2193poe    c23 9031   1.490   6.905   0.756  0.5102 -0.5268 -0.2504
 2193poe     o2 9032   1.434   6.776   0.742 -0.6028 -0.1255  0.3618
 2193poe    c23 9033   1.398   6.749   0.608  0.5570  0.0177  0.0047
 2193poe    c23 9034   1.320   6.617   0.625  0.1679  0.1693 -0.5616
 2193poe     o2 9035   1.392   6.542   0.720 -0.1056  0.5833 -0.0223
 2193poe    c31 9036   1.440   6.413   0.690 -0.5978  0.4773 -0.3601
 2194poe    c31 9037   6.565   5.591   3.122 -0.0239 -0.4835  0.6367
 2194poe     o2 9038   6.636   5.693   3.056 -1.1265 -0.3259 -0.3313
 2194poe    c23 9039   6.620   5.822   3.112 -0.5689 -0.1101 -0.6575
 2194poe    c23 9040   6.706   5.924   3.035  0.4639 -0.3939  0.0952
 2194poe     o2 9041   6.680   5.934   2.897  0.4745 -0.0598  0.1175
 2194poe    c23 9042   6.751   6.032   2.824 -0.2862  0.6232  0.2780
 2194poe    c23 9043   6.735   6.043   2.671 -0.1463  0.3759  0.2449
 2194poe     o2 9044   6.777   5.923   2.611 -0.8242  0.1933  0.1287
 2194poe    c23 9045   6.805   5.941   2.474 -0.0088  0.3170  0.3050
 2194poe    c23 9046   6.802   5.797   2.418 -0.1885  0.4262  0.0327
 2194poe     o2 9047   6.845   5.697   2.507 -0.4051  0.2812 -0.0254
 2194poe    c31 9048   6.875   5.579   2.437 -0.3745  0.3118 -0.0643
 2195poe    c31 9049   2.628   5.289   5.343 -0.6198 -0.1206 -0.2315
 2195poe     o2 9050   2.713   5.182   5.376 -0.1604  0.3018 -0.0470
 2195poe    c23 9051   2.812   5.216   5.471 -0.2618 -0.7128  0.4401
 2195poe    c23 9052   2.834   5.111   5.581  0.1314 -0.4005  0.6641
 2195poe     o2 9053   2.891   4.992   5.530 -0.3362 -0.0978 -0.5936
 2195poe    c23 9054   3.032   4.988   5.531 -0.3260  0.2604 -0.3839
 2195poe    c23 9055   3.101   4.879   5.447  0.0021  0.1303  0.0493
 2195poe     o2 9056   3.081   4.752   5.504 -0.4362  0.1629 -0.0291
 2195poe    c23 9057   3.105   4.639   5.424  0.0039 -0.2703  0.7037
 2195poe    c23 9058   3.037   4.509   5.469 -0.6417 -0.0107  0.4828
 2195poe     o2 9059   3.045   4.497   5.609 -0.1373 -0.2960  0.4312
 2195poe    c31 9060   2.955   4.395   5.651 -0.0817 -0.6142 -0.2186
 2196poe    c31 9061   1.538   3.116   4.926  0.5734 -0.0219 -0.3313
 2196poe     o2 9062   1.618   3.187   4.834  0.3844  0.0953 -0.4059
 2196poe    c23 9063   1.751   3.208   4.875  0.3955 -0.3035 -0.2322
 2196poe    c23 9064   1.855   3.154   4.775  0.0135 -0.8546 -0.3368
 2196poe     o2 9065   1.867   3.246   4.669  0.3808 -0.1176  0.3393
 2196poe    c23 9066   1.989   3.229   4.601  0.2815  0.2709  0.0560
 2196poe    c23 9067   2.017   3.340   4.498 -0.3293  0.4559  0.0870
 2196poe     o2 9068   1.934   3.331   4.384  0.3069 -0.0078 -0.3469
 2196poe    c23 9069   2.003   3.389   4.275 -0.1164 -0.5607 -0.9096
 2196poe    c23 9070   1.913   3.378   4.150 -0.5984 -0.1392 -0.6009
 2196poe     o2 9071   1.935   3.258   4.079  0.4935 -0.4398  0.2259
 2196poe    c31 9072   2.016   3.263   3.963  0.0283  0.3921 -0.0657
 2197poe    c31 9073   7.047   0.792   1.135  0.1979  0.1979 -1.1017
 2197poe     o2 9074   7.070   0.654   1.118  0.6185  0.0980  0.1354
 2197poe    c23 9075   6.966   0.592   1.045  0.7316 -0.5348  0.4985
 2197poe    c23 9076   6.980   0.442   1.015  0.0917 -0.4088 -0.4647
 2197poe     o2 9077   7.089   0.407   0.933  0.1745 -0.0488 -0.5098
 2197poe    c23 9078   7.055   0.431   0.798  0.1391  0.6853 -0.3755
 2197poe    c23 9079   7.139   0.345   0.702 -0.1521 -0.2613  0.1908
 2197poe     o2 9080   7.266   0.399   0.730 -0.1402 -0.3181  0.2457
 2197poe    c23 9081   7.370   0.360   0.643  0.1196  0.0567  0.3870
 2197poe    c23 9082   7.501   0.428   0.686  0.3084 -0.0812  0.0381
 2197poe     o2 9083   7.509   0.458   0.824  0.3446 -0.4393  0.1136
 2197poe    c31 9084   7.636   0.506   0.863  0.3576  0.0462 -0.5198
 2198poe    c31 9085   4.613   4.624   3.869 -0.4863  0.1694  0.8809
 2198poe     o2 9086   4.641   4.487   3.886  0.1448  0.1164 -0.4184
 2198poe    c23 9087   4.766   4.453   3.832  0.0519  0.6687 -0.9953
 2198poe    c23 9088   4.749   4.321   3.754 -0.0706  0.1254 -0.0668
 2198poe     o2 9089   4.661   4.339   3.646 -0.4086  0.0465  0.1935
 2198poe    c23 9090   4.635   4.217   3.579 -0.1280  0.0740  0.0295
 2198poe    c23 9091   4.541   4.256   3.463 -0.0336  0.0549 -0.0522
 2198poe     o2 9092   4.413   4.298   3.502 -0.1366  0.0831 -0.4134
 2198poe    c23 9093   4.317   4.329   3.403 -0.5426 -0.2538 -0.1303
 2198poe    c23 9094   4.354   4.459   3.330 -0.2742 -0.0986  0.2784
 2198poe     o2 9095   4.356   4.582   3.400  0.3372  0.0242  0.0531
 2198poe    c31 9096   4.446   4.670   3.336  0.6773  0.1594  0.7167
 2199poe    c31 9097   1.769   5.909   3.371 -0.5555 -0.5870 -0.4369
 2199poe     o2 9098   1.670   5.981   3.442 -0.2587 -0.2645 -0.3511
 2199poe    c23 9099   1.607   5.898   3.537 -0.0355  0.1005  0.1229
 2199poe    c23 9100   1.474   5.950   3.594 -0.1550  0.4076 -0.4233
 2199poe     o2 9101   1.483   6.072   3.663 -0.2103  0.4532 -0.4973
 2199poe    c23 9102   1.360   6.105   3.725 -0.0777 -0.5539  0.3230
 2199poe    c23 9103   1.354   6.234   3.809 -0.1929 -0.5780  0.3519
 2199poe     o2 9104   1.486   6.233   3.858 -0.1157  0.5603  0.1898
 2199poe    c23 9105   1.503   6.358   3.919 -0.2464  0.6045  0.1363
 2199poe    c23 9106   1.646   6.354   3.976 -0.2411  0.1178  0.0887
 2199poe     o2 9107   1.727   6.294   3.877  0.0147  0.0553  0.3320
 2199poe    c31 9108   1.863   6.324   3.897  0.0800  0.0318 -0.0633
 2200poe    c31 9109   0.304   7.050   5.124 -0.5477  0.0275  0.2607
 2200poe     o2 9110   0.368   7.175   5.142 -0.4610  0.0798 -0.3703
 2200poe    c23 9111   0.345   7.271   5.042 -0.2830  0.2566 -0.2436
 2200poe    c23 9112   0.369   7.420   5.069 -0.2303  0.2020  0.0083
 2200poe     o2 9113   0.479   7.410   5.157  0.3250  0.1252 -0.6815
 2200poe    c23 9114   0.539   7.526   5.211 -0.2788 -0.1083  0.5379
 2200poe    c23 9115   0.501   7.536   5.360 -0.2567  0.2464  0.5201
 2200poe     o2 9116   0.541   7.418   5.426  0.4532  0.0510 -0.2437
 2200poe    c23 9117   0.567   7.434   5.563 -0.1065 -0.5118 -0.0672
 2200poe    c23 9118   0.621   7.311   5.639  0.0522 -0.1057  0.4905
 2200poe     o2 9119   0.517   7.216   5.635 -0.2013  0.1751  0.3336
 2200poe    c31 9120   0.525   7.098   5.711 -0.3385 -0.0343  0.0281
 2201poe    c31 9121   2.377   1.982   6.109 -0.4877 -0.5963  0.2824
 2201poe     o2 9122   2.241   1.962   6.082 -0.4653 -0.0750 -0.2457
 2201poe    c23 9123   2.231   1.838   6.015 -0.7268 -0.1558 -0.0645
 2201poe    c23 9124   2.082   1.818   5.983 -0.6912 -0.1676 -0.2246
 2201poe     o2 9125   2.013   1.798   6.104 -0.4102  0.1250 -0.0134
 2201poe    c23 9126   1.872   1.799   6.095 -0.4309 -0.6058  0.1746
 2201poe    c23 9127   1.817   1.805   6.239  0.2283 -0.3170  0.4212
 2201poe     o2 9128   1.872   1.712   6.329  0.2406 -0.2558  0.4763
 2201poe    c23 9129   1.809   1.725   6.455 -0.4325  0.4624  0.0733
 2201poe    c23 9130   1.879   1.629   6.553 -0.6555  0.3797  0.1503
 2201poe     o2 9131   2.012   1.654   6.590 -0.6404 -0.1467  0.4508
 2201poe    c31 9132   2.057   1.556   6.681 -0.0272 -0.1565  0.1448
 2202poe    c31 9133   4.611   3.220   2.269 -0.8766  0.3069 -0.0096
 2202poe     o2 9134   4.546   3.271   2.155  0.0303 -0.5875 -0.9441
 2202poe    c23 9135   4.637   3.343   2.076 -0.1542  0.7017 -0.0098
 2202poe    c23 9136   4.613   3.323   1.925 -0.3049  0.4310  0.0488
 2202poe     o2 9137   4.478   3.338   1.887 -0.3545 -0.6236 -0.2154
 2202poe    c23 9138   4.488   3.379   1.752 -0.4041 -0.2362 -0.1025
 2202poe    c23 9139   4.342   3.389   1.703 -0.7425 -0.0727  0.9022
 2202poe     o2 9140   4.265   3.275   1.731 -0.4771 -0.4005  0.3035
 2202poe    c23 9141   4.131   3.301   1.695 -0.1890  0.4128 -0.1967
 2202poe    c23 9142   4.040   3.222   1.791  0.4036  0.0413  0.0696
 2202poe     o2 9143   4.105   3.228   1.915  0.2285  1.3445  0.1183
 2202poe    c31 9144   4.020   3.177   2.016  0.4495 -0.0159 -0.3615
 2203poe    c31 9145   6.451   7.045   1.227 -0.7939 -0.0043 -0.1925
 2203poe     o2 9146   6.567   6.998   1.162 -0.4357  0.1002  0.3609
 2203poe    c23 9147   6.616   6.891   1.240  0.6270  0.0946 -0.2954
 2203poe    c23 9148   6.562   6.759   1.182 -0.3734  0.3866 -0.0572
 2203poe     o2 9149   6.604   6.757   1.048 -0.5617  0.6125 -0.1191
 2203poe    c23 9150   6.564   6.638   0.984 -0.3048  0.7953 -0.6303
 2203poe    c23 9151   6.666   6.624   0.869  0.1176  0.3247 -0.2012
 2203poe     o2 9152   6.652   6.733   0.781  0.4135  0.4027 -0.1531
 2203poe    c23 9153   6.755   6.746   0.686  0.3718  0.5679 -0.1766
 2203poe    c23 9154   6.699   6.856   0.594  0.3707  0.8673  0.1800
 2203poe     o2 9155   6.609   6.942   0.661 -0.4841  0.1512 -0.0200
 2203poe    c31 9156   6.583   7.055   0.581  0.6037  0.2119 -0.3069
 2204poe    c31 9157   6.930   2.607   2.465  0.1251  0.5324  0.0301
 2204poe     o2 9158   6.955   2.650   2.596  0.3971  0.2144  0.0853
 2204poe    c23 9159   7.047   2.757   2.595  0.3161  0.2811 -0.3136
 2204poe    c23 9160   7.070   2.788   2.744 -0.0124 -0.1593 -0.1702
 2204poe     o2 9161   6.947   2.805   2.812  0.1026  0.0901 -0.0244
 2204poe    c23 9162   6.966   2.805   2.952  0.3446  0.9300 -0.0501
 2204poe    c23 9163   6.823   2.801   3.010  0.3070 -0.3200 -0.2042
 2204poe     o2 9164   6.747   2.692   2.962 -0.1974  0.0613 -0.2799
 2204poe    c23 9165   6.642   2.666   3.052  0.1683 -0.4200  0.0124
 2204poe    c23 9166   6.535   2.570   2.996 -0.1188 -0.2434  0.2565
 2204poe     o2 9167   6.592   2.442   2.983 -0.0185 -0.1966  0.2293
 2204poe    c31 9168   6.492   2.350   2.942 -0.1982 -0.2739  0.8302
 2205poe    c31 9169   1.318   1.101   2.316  0.3853  0.0202  0.4434
 2205poe     o2 9170   1.444   1.164   2.308  0.3104  0.1122 -0.0154
 2205poe    c23 9171   1.536   1.082   2.376 -0.0406 -0.3442 -0.0833
 2205poe    c23 9172   1.665   1.166   2.370 -0.4355  0.2588 -0.1836
 2205poe     o2 9173   1.682   1.259   2.474  0.5035  0.0149 -0.1118
 2205poe    c23 9174   1.728   1.386   2.431 -0.2919  0.4153  0.1971
 2205poe    c23 9175   1.704   1.498   2.533 -0.4010  0.4056  0.1821
 2205poe     o2 9176   1.802   1.480   2.633 -0.5528 -0.2336  0.2186
 2205poe    c23 9177   1.761   1.556   2.744 -0.2887  0.1241  0.0729
 2205poe    c23 9178   1.820   1.501   2.875  0.3971  0.8441  0.0787
 2205poe     o2 9179   1.772   1.370   2.899  1.1605  0.4361 -0.5445
 2205poe    c31 9180   1.808   1.327   3.029  0.3418 -0.4848 -0.6112
 2206poe    c31 9181   2.475   4.663   6.549  0.1371  0.0881  0.2897
 2206poe     o2 9182   2.476   4.537   6.486 -0.2676  0.1773  0.1065
 2206poe    c23 9183   2.352   4.474   6.512 -0.1686 -0.2449 -0.4201
 2206poe    c23 9184   2.340   4.334   6.449 -0.1853 -0.1751 -0.5747
 2206poe     o2 9185   2.427   4.244   6.514 -0.8178 -0.4065 -0.0327
 2206poe    c23 9186   2.422   4.116   6.456  0.1450 -0.1384 -0.7266
 2206poe    c23 9187   2.534   4.031   6.519 -0.3245 -0.5949 -0.5062
 2206poe     o2 9188   2.663   4.074   6.484 -0.4045  0.3579  0.3382
 2206poe    c23 9189   2.758   3.974   6.515 -0.1762  0.3160 -0.4713
 2206poe    c23 9190   2.905   4.019   6.507  0.1320 -0.4339  0.7112
 2206poe     o2 9191   2.910   4.150   6.559 -0.3532 -0.2158  0.2157
 2206poe    c31 9192   3.048   4.180   6.554 -0.3824  0.0071  0.6987
 2207poe    c31 9193   4.611   5.148   2.340  0.4463  0.1272  0.1487
 2207poe     o2 9194   4.598   5.288   2.358 -0.4050  0.1250 -0.4135
 2207poe    c23 9195   4.504   5.352   2.275 -0.5246  0.5347  0.0331
 2207poe    c23 9196   4.565   5.411   2.147  0.0520 -0.2561 -0.0652
 2207poe     o2 9197   4.678   5.495   2.162 -0.1197 -0.1096  0.4556
 2207poe    c23 9198   4.801   5.440   2.204 -0.1591 -0.4981  0.0778
 2207poe    c23 9199   4.834   5.480   2.349 -0.0034 -0.4334  0.0247
 2207poe     o2 9200   4.966   5.441   2.382  0.2701  0.4332 -0.0089
 2207poe    c23 9201   4.990   5.416   2.518 -0.2161  0.1437  0.0285
 2207poe    c23 9202   5.101   5.310   2.536  0.0240  0.4912  0.6445
 2207poe     o2 9203   5.213   5.353   2.461 -0.0805 -0.2844  0.0245
 2207poe    c31 9204   5.300   5.242   2.469  0.2065 -0.1138 -0.7030
 2208poe    c31 9205   3.418   7.201   7.164 -0.4527  0.0041  0.0334
 2208poe     o2 9206   3.346   7.268   7.265 -0.0935 -0.2365  0.4541
 2208poe    c23 9207   3.423   7.355   7.345 -0.0355  0.1832 -0.0501
 2208poe    c23 9208   3.336   7.414   7.457 -0.1220  0.0811 -0.0631
 2208poe     o2 9209   3.262   7.304   7.507 -0.3235 -0.0210 -0.5819
 2208poe    c23 9210   3.230   7.336   7.641  0.2009 -0.5183 -0.3332
 2208poe    c23 9211   3.080   7.307   7.662  0.2389 -0.2973  0.2540
 2208poe     o2 9212   3.047   7.175   7.624 -0.1327  0.0188 -0.5436
 2208poe    c23 9213   2.907   7.159   7.641 -0.0345 -0.0680  0.2122
 2208poe    c23 9214   2.845   7.025   7.598 -0.0789  0.0734 -0.1663
 2208poe     o2 9215   2.856   6.924   7.695 -0.2809  0.3169  0.1156
 2208poe    c31 9216   2.811   6.801   7.643  0.3698  0.0959  0.0632
 2209poe    c31 9217   0.433   0.814   0.291 -0.2812 -0.1315  0.7412
 2209poe     o2 9218   0.413   0.949   0.255 -0.2816 -0.4023 -0.3184
 2209poe    c23 9219   0.295   0.971   0.182 -0.6307 -0.2895  0.2729
 2209poe    c23 9220   0.314   1.096   0.094 -0.6695 -0.4152  0.0849
 2209poe     o2 9221   0.214   1.192   0.116 -0.0787  0.1826  0.2031
 2209poe    c23 9222   0.208   1.267  -0.004 -0.0759 -0.3684 -0.1426
 2209poe    c23 9223   0.084   1.355  -0.027  0.5665  0.4110 -0.6999
 2209poe     o2 9224   0.067   1.461   0.064  0.0555  0.0568 -0.3739
 2209poe    c23 9225  -0.038   1.539   0.012 -0.5527 -0.6293 -0.1793
 2209poe    c23 9226  -0.063   1.656   0.109 -0.1829 -0.6247 -0.0883
 2209poe     o2 9227   0.044   1.747   0.107 -0.6793 -0.0177  0.5953
 2209poe    c31 9228  -0.018   1.874   0.100 -0.6829 -0.0508 -0.0057
 2210poe    c31 9229   0.207   5.017   6.472 -0.0006 -0.0081  0.0009
 2210poe     o2 9230   0.321   4.936   6.488  0.0797  0.0311 -0.3702
 2210poe    c23 9231   0.426   4.956   6.395  0.1539  0.1664 -0.2596
 2210poe    c23 9232   0.550   4.898   6.465 -0.1838 -0.1894  0.0594
 2210poe     o2 9233   0.614   4.978   6.562  0.1334  0.4745 -0.6745
 2210poe    c23 9234   0.683   5.091   6.515 -0.3095  0.9371 -0.2275
 2210poe    c23 9235   0.808   5.129   6.597 -0.1518  0.7055 -0.3598
 2210poe     o2 9236   0.802   5.180   6.729  0.1455  0.0625 -0.0937
 2210poe    c23 9237   0.774   5.318   6.728 -0.3056 -0.0276 -0.1522
 2210poe    c23 9238   0.888   5.401   6.788 -0.4836  0.3593 -0.3464
 2210poe     o2 9239   0.901   5.373   6.926  0.5005 -0.0570 -0.5202
 2210poe    c31 9240   1.035   5.382   6.967  0.4263 -0.3553 -0.2063
 2211poe    c31 9241   1.805   2.062   3.003  0.0956  0.5455 -0.3110
 2211poe     o2 9242   1.940   2.087   2.972  0.3233 -0.1591  0.0968
 2211poe    c23 9243   1.989   1.994   2.878  0.4687 -0.1866  0.1995
 2211poe    c23 9244   2.140   1.998   2.847  0.5014 -0.1732  0.3582
 2211poe     o2 9245   2.189   2.128   2.820  0.3623 -0.0552  0.6631
 2211poe    c23 9246   2.310   2.119   2.748  0.0406 -0.2469  0.1403
 2211poe    c23 9247   2.374   2.257   2.725 -0.5674  0.2508  1.3351
 2211poe     o2 9248   2.452   2.308   2.831  0.5770  0.3690  0.4601
 2211poe    c23 9249   2.534   2.411   2.779  0.2982  0.2598 -0.2055
 2211poe    c23 9250   2.576   2.508   2.891 -0.2055  0.2971 -0.0445
 2211poe     o2 9251   2.471   2.566   2.965  0.1906  0.3070  0.5221
 2211poe    c31 9252   2.522   2.617   3.086  0.0847  0.4044  0.5265
 2212poe    c31 9253   0.089   3.032   2.929  0.5189 -0.3610 -0.9130
 2212poe     o2 9254   0.044   3.099   2.814 -0.4573  0.7306  0.0770
 2212poe    c23 9255   0.025   3.239   2.821  0.2119  0.7994  0.6453
 2212poe    c23 9256  -0.117   3.262   2.764  0.2839 -0.2854 -0.0085
 2212poe     o2 9257  -0.127   3.211   2.633  0.4072 -0.2732 -0.0228
 2212poe    c23 9258  -0.263   3.222   2.597  0.3651 -0.6398  0.0227
 2212poe    c23 9259  -0.287   3.116   2.488  0.1700  0.1339 -0.6988
 2212poe     o2 9260  -0.185   3.126   2.391  0.4721  0.3072 -0.3672
 2212poe    c23 9261  -0.208   3.071   2.263  0.2395 -0.2498 -0.0899
 2212poe    c23 9262  -0.072   3.080   2.192  0.2552 -0.2582 -0.0604
 2212poe     o2 9263   0.030   3.062   2.288 -0.1946 -0.1061  0.4470
 2212poe    c31 9264   0.130   2.972   2.246 -0.6166 -0.3259 -0.0993
 2213poe    c31 9265   1.082   4.100   0.465  0.1348 -0.5870 -0.7138
 2213poe     o2 9266   1.152   4.056   0.579 -0.6157 -0.0617 -0.0315
 2213poe    c23 9267   1.187   4.152   0.676 -0.1532  0.1820 -0.4353
 2213poe    c23 9268   1.280   4.079   0.773  0.1543  0.4482 -0.5275
 2213poe     o2 9269   1.372   3.994   0.708 -0.0140  0.4641 -0.7898
 2213poe    c23 9270   1.457   3.929   0.800 -0.3340  0.3600 -0.5660
 2213poe    c23 9271   1.495   3.803   0.719 -0.0935  0.2332 -0.2608
 2213poe     o2 9272   1.537   3.848   0.592 -0.0484  0.4681 -0.1644
 2213poe    c23 9273   1.594   3.745   0.515 -0.1681  0.4322 -0.2057
 2213poe    c23 9274   1.674   3.801   0.396 -0.2308  0.2659 -0.3265
 2213poe     o2 9275   1.599   3.898   0.327 -0.6199  0.1655 -0.0497
 2213poe    c31 9276   1.683   3.953   0.227 -0.2128 -0.4332 -0.0435
 2214poe    c31 9277   3.686   5.127   3.514  0.5331 -0.4042  0.8537
 2214poe     o2 9278   3.662   5.205   3.629  0.6217  0.2340  0.4465
 2214poe    c23 9279   3.716   5.141   3.743  0.2532 -0.5300  0.2021
 2214poe    c23 9280   3.672   5.208   3.875  0.0202 -0.3786  0.0481
 2214poe     o2 9281   3.695   5.347   3.880 -0.1635 -0.3500  0.1040
 2214poe    c23 9282   3.651   5.400   4.003  0.5294 -0.6680  0.4944
 2214poe    c23 9283   3.729   5.527   4.039 -0.1033 -0.1741  0.1412
 2214poe     o2 9284   3.746   5.589   3.914 -0.2509 -0.2472  0.0846
 2214poe    c23 9285   3.834   5.698   3.927 -0.0320 -0.3640 -0.4215
 2214poe    c23 9286   3.857   5.768   3.791  0.6271  0.2796  0.0134
 2214poe     o2 9287   3.894   5.667   3.700  0.1337 -0.3449  0.4924
 2214poe    c31 9288   3.972   5.721   3.596 -0.7913 -0.2077 -0.1403
 2215poe    c31 9289   0.196   1.274   6.823 -0.1470  0.0585  0.7458
 2215poe     o2 9290   0.310   1.228   6.892 -0.3603 -0.3715  0.8142
 2215poe    c23 9291   0.398   1.155   6.810 -0.2237  0.5358  0.1332
 2215poe    c23 9292   0.532   1.136   6.884 -0.1161  0.7529 -0.0036
 2215poe     o2 9293   0.525   1.031   6.978  0.3861  0.3563 -0.4026
 2215poe    c23 9294   0.648   1.004   7.041 -0.0057  0.9838  0.6480
 2215poe    c23 9295   0.644   0.889   7.144 -0.1139  0.3801 -0.0288
 2215poe     o2 9296   0.606   0.767   7.084 -0.2540  0.4223 -0.0282
 2215poe    c23 9297   0.626   0.658   7.171 -0.4696  0.1688 -0.2949
 2215poe    c23 9298   0.584   0.524   7.107  0.0783 -0.0133 -0.2877
 2215poe     o2 9299   0.461   0.552   7.042 -0.0518 -0.0152 -0.0428
 2215poe    c31 9300   0.405   0.428   7.005  0.1850 -0.1907  0.1750
 2216poe    c31 9301   4.636   0.869   4.981 -0.3617 -0.3707  0.0847
 2216poe     o2 9302   4.533   0.940   5.045 -0.2024 -0.2372  0.1913
 2216poe    c23 9303   4.449   0.848   5.111  0.4504 -1.0947 -0.1622
 2216poe    c23 9304   4.325   0.908   5.181  0.8804 -0.0829 -0.2456
 2216poe     o2 9305   4.366   0.984   5.292  0.4386  0.1426 -0.2385
 2216poe    c23 9306   4.252   1.006   5.372  0.2673 -0.0378 -0.4315
 2216poe    c23 9307   4.265   1.079   5.507  0.0502 -0.0371 -0.4108
 2216poe     o2 9308   4.292   1.218   5.507 -0.0244 -0.0227 -0.1999
 2216poe    c23 9309   4.295   1.265   5.640  0.4131  0.2856 -0.3179
 2216poe    c23 9310   4.320   1.414   5.613  0.0369  0.4058 -0.0110
 2216poe     o2 9311   4.447   1.418   5.553  0.2214  0.3508  0.3698
 2216poe    c31 9312   4.491   1.552   5.546 -0.1783  0.5124  0.8874
 2217poe    c31 9313   5.697   2.478   2.947  0.3648 -0.1406 -0.1861
 2217poe     o2 9314   5.650   2.590   2.877 -0.2266 -0.3321 -0.1030
 2217poe    c23 9315   5.525   2.572   2.815 -0.2399 -0.0228 -0.1685
 2217poe    c23 9316   5.506   2.687   2.714  0.0929 -0.0356 -0.2435
 2217poe     o2 9317   5.525   2.799   2.798  0.2691 -0.3710  0.1726
 2217poe    c23 9318   5.519   2.924   2.732  0.7113 -0.4694 -0.0552
 2217poe    c23 9319   5.386   2.971   2.670  0.6699  0.3024  0.6023
 2217poe     o2 9320   5.279   2.980   2.761  0.0897 -0.1970 -0.0192
 2217poe    c23 9321   5.162   3.006   2.687  0.0037 -0.0795  0.1564
 2217poe    c23 9322   5.049   2.903   2.702  0.1261 -0.1269  0.7634
 2217poe     o2 9323   5.051   2.785   2.624 -0.5532  0.2041  0.2340
 2217poe    c31 9324   5.005   2.792   2.491 -0.0732 -0.4192  0.0303
 2218poe    c31 9325   3.743   5.397   0.349  0.4511  0.2881  0.4616
 2218poe     o2 9326   3.855   5.402   0.264 -0.2070  0.2846 -0.4189
 2218poe    c23 9327   3.832   5.382   0.126  0.0306  0.0441 -0.4247
 2218poe    c23 9328   3.961   5.357   0.045  0.1252 -0.1760 -0.2089
 2218poe     o2 9329   4.055   5.463   0.042  0.0627 -0.1148 -0.0043
 2218poe    c23 9330   4.182   5.421  -0.002  0.3791  0.1773  0.6120
 2218poe    c23 9331   4.283   5.383   0.108  0.3182  0.3823  0.7369
 2218poe     o2 9332   4.270   5.285   0.208 -0.4441  0.0938  0.3619
 2218poe    c23 9333   4.370   5.301   0.306 -0.0958  0.8086 -0.1071
 2218poe    c23 9334   4.331   5.233   0.439 -0.2440  0.7174 -0.1972
 2218poe     o2 9335   4.235   5.308   0.509 -0.5289  0.1917 -0.0260
 2218poe    c31 9336   4.199   5.234   0.624 -0.4090  0.0770 -0.0617
 2219poe    c31 9337   5.478   5.117   5.010 -0.2402 -0.1262 -0.7346
 2219poe     o2 9338   5.406   5.237   5.029 -0.7332 -0.5052 -0.1691
 2219poe    c23 9339   5.314   5.235   5.136 -0.4473 -0.2988  0.0800
 2219poe    c23 9340   5.184   5.157   5.112 -0.4182 -0.3405  0.0601
 2219poe     o2 9341   5.133   5.200   4.987 -0.7410  0.1927  0.3713
 2219poe    c23 9342   5.042   5.103   4.940 -0.3432 -0.2986  0.5975
 2219poe    c23 9343   4.968   5.154   4.814  0.9309  0.2236  0.0445
 2219poe     o2 9344   5.052   5.162   4.701  0.2844 -0.2470 -0.4717
 2219poe    c23 9345   4.987   5.180   4.577 -0.2680  0.0846 -0.1390
 2219poe    c23 9346   4.979   5.331   4.547 -0.2409  0.3843  1.3238
 2219poe     o2 9347   5.105   5.389   4.522 -0.3093  0.1475  0.4298
 2219poe    c31 9348   5.104   5.524   4.562 -0.3335  0.5622 -0.9055
 2220poe    c31 9349   0.172   4.662   0.692  1.3140  0.2846  0.4906
 2220poe     o2 9350   0.224   4.782   0.639  0.5899  0.4780  0.2100
 2220poe    c23 9351   0.210   4.770   0.499 -0.3879  0.1456  0.3251
 2220poe    c23 9352   0.265   4.906   0.453 -0.4861  0.1436  0.2009
 2220poe     o2 9353   0.376   4.931   0.537  0.2274 -0.2328 -0.6190
 2220poe    c23 9354   0.460   5.027   0.475 -0.1464  0.2803 -0.3358
 2220poe    c23 9355   0.544   5.099   0.582 -0.3775 -0.0639  0.0811
 2220poe     o2 9356   0.472   5.141   0.697 -0.1563 -0.5968  0.4181
 2220poe    c23 9357   0.560   5.207   0.786 -0.3823 -0.0833  0.2628
 2220poe    c23 9358   0.501   5.250   0.922 -1.0894  0.4725 -0.2086
 2220poe     o2 9359   0.459   5.145   1.007  0.0700 -0.0356 -0.2421
 2220poe    c31 9360   0.391   5.179   1.125  0.1327 -0.2316 -0.1503
 2221poe    c31 9361   2.514   1.812   3.030  0.8356 -0.4395 -0.2068
 2221poe     o2 9362   2.537   1.782   3.166 -0.2114  0.1405  0.1076
 2221poe    c23 9363   2.584   1.897   3.232  0.6180  0.0039 -0.2384
 2221poe    c23 9364   2.637   1.878   3.375 -0.5574 -0.4764  0.1406
 2221poe     o2 9365   2.759   1.806   3.370 -0.0331  0.3686  0.5728
 2221poe    c23 9366   2.856   1.856   3.459  0.6193 -0.5790  0.4027
 2221poe    c23 9367   2.993   1.837   3.393  0.5971  0.3306  0.0909
 2221poe     o2 9368   3.031   1.702   3.387 -0.4658 -0.0120  0.8585
 2221poe    c23 9369   3.144   1.674   3.468  0.6858  0.2342 -0.6229
 2221poe    c23 9370   3.191   1.528   3.460 -0.3721 -0.1616  0.1605
 2221poe     o2 9371   3.097   1.450   3.530 -0.1154 -0.1325  0.5429
 2221poe    c31 9372   3.143   1.317   3.534  0.1425 -0.0964 -0.7409
 2222poe    c31 9373   7.035   6.395   3.222 -0.5722 -0.3429 -0.2968
 2222poe     o2 9374   7.095   6.468   3.118  0.3539 -0.4765  0.1317
 2222poe    c23 9375   7.002   6.558   3.062 -0.0190 -0.6385  0.4885
 2222poe    c23 9376   7.048   6.586   2.918 -0.5415 -0.3472  0.3772
 2222poe     o2 9377   7.189   6.580   2.911 -0.5582 -0.2035 -0.1800
 2222poe    c23 9378   7.216   6.597   2.774  0.3778  0.0666  0.0319
 2222poe    c23 9379   7.348   6.674   2.757  0.0242  0.5681 -0.4686
 2222poe     o2 9380   7.452   6.621   2.836 -0.2980  0.6518  0.0182
 2222poe    c23 9381   7.557   6.712   2.863  0.0098  0.3017  0.0110
 2222poe    c23 9382   7.664   6.658   2.959  0.1861  0.4570 -0.0980
 2222poe     o2 9383   7.616   6.655   3.092  0.3750  0.0516 -0.0345
 2222poe    c31 9384   7.714   6.614   3.184 -0.4618 -0.2863  0.7238
 2223poe    c31 9385   6.535   4.038   3.600  0.2213  0.0373 -0.6638
 2223poe     o2 9386   6.528   3.898   3.593 -0.1574  0.0175 -0.0460
 2223poe    c23 9387   6.609   3.855   3.486 -0.0478  0.0439  0.0266
 2223poe    c23 9388   6.624   3.702   3.474 -0.0428  0.0098  0.4707
 2223poe     o2 9389   6.486   3.676   3.465 -0.0582  0.3607 -0.4482
 2223poe    c23 9390   6.460   3.540   3.438  0.7027  0.0970  0.1153
 2223poe    c23 9391   6.313   3.510   3.403  0.5381  0.8115  0.1656
 2223poe     o2 9392   6.231   3.538   3.513  0.1368 -0.1514  0.1183
 2223poe    c23 9393   6.094   3.532   3.478  0.1793  0.0400 -0.0760
 2223poe    c23 9394   6.029   3.577   3.610  0.4269 -0.3942  0.1942
 2223poe     o2 9395   6.074   3.704   3.652  0.1514 -0.4456  0.6543
 2223poe    c31 9396   5.959   3.775   3.692  0.1138 -0.6500  0.9121
 2224poe    c31 9397   1.372   1.660   5.155  0.0996 -0.5450 -0.0275
 2224poe     o2 9398   1.252   1.587   5.144 -0.3858  0.2648 -0.1326
 2224poe    c23 9399   1.235   1.495   5.250 -0.0143 -0.0593 -0.3555
 2224poe    c23 9400   1.146   1.573   5.348  0.4490  0.2655 -0.1910
 2224poe     o2 9401   1.022   1.609   5.293  0.2413  0.1751  0.2134
 2224poe    c23 9402   0.955   1.649   5.411 -0.1442 -0.0193  0.0623
 2224poe    c23 9403   0.842   1.749   5.381 -0.1838 -0.1156 -0.1120
 2224poe     o2 9404   0.874   1.877   5.332 -0.2483 -0.0906 -0.0886
 2224poe    c23 9405   0.776   1.972   5.370 -0.0078  0.2380 -0.2908
 2224poe    c23 9406   0.828   2.107   5.317  0.0547  0.3492  0.0517
 2224poe     o2 9407   0.958   2.134   5.365 -0.0873  0.0732  0.6049
 2224poe    c31 9408   0.972   2.274   5.381  0.2271  0.1240 -0.0601
 2225poe    c31 9409   1.919   4.954   5.846  0.6203  0.5841 -0.2568
 2225poe     o2 9410   1.962   4.930   5.714 -0.0681 -0.7182 -0.2635
 2225poe    c23 9411   2.077   4.854   5.684  0.1928 -0.3914 -0.0963
 2225poe    c23 9412   2.023   4.726   5.617  0.2480 -0.3054 -0.3060
 2225poe     o2 9413   1.961   4.742   5.492 -0.3864 -0.1935  0.0176
 2225poe    c23 9414   1.976   4.629   5.409  0.0099 -0.0231 -0.1496
 2225poe    c23 9415   1.865   4.600   5.306  0.0372 -0.2881 -0.1048
 2225poe     o2 9416   1.859   4.714   5.224  0.3719 -0.2212 -0.0384
 2225poe    c23 9417   1.795   4.691   5.101 -0.3259 -0.6764  0.4025
 2225poe    c23 9418   1.753   4.815   5.020 -0.3626 -0.7993  0.2334
 2225poe     o2 9419   1.652   4.886   5.088  0.0724  0.1703 -0.1197
 2225poe    c31 9420   1.532   4.891   5.014  0.0169 -0.2768 -0.0598
 2226poe    c31 9421   3.526   6.129   3.665 -0.1560  0.9130 -0.0989
 2226poe     o2 9422   3.428   6.140   3.565 -0.1210 -0.3233 -0.2947
 2226poe    c23 9423   3.315   6.221   3.593 -0.0510 -0.2954 -0.0968
 2226poe    c23 9424   3.349   6.369   3.570  0.1257 -0.2148  0.6519
 2226poe     o2 9425   3.410   6.411   3.690 -0.3425  0.7541  0.5587
 2226poe    c23 9426   3.530   6.484   3.673  0.3870 -0.3506  0.8300
 2226poe    c23 9427   3.591   6.521   3.809  0.7474  0.6657  0.4056
 2226poe     o2 9428   3.511   6.629   3.853 -0.4646 -0.0641  0.0398
 2226poe    c23 9429   3.528   6.665   3.988  0.2173  0.1074 -0.0892
 2226poe    c23 9430   3.489   6.814   3.994  0.3532  0.1766 -0.8399
 2226poe     o2 9431   3.353   6.833   3.964 -0.0327 -0.1441  0.6131
 2226poe    c31 9432   3.316   6.969   3.968  0.5427  0.0173  0.4987
 2227poe    c31 9433   4.161   1.442   1.855  0.0405 -0.2031  0.4810
 2227poe     o2 9434   4.158   1.303   1.831 -0.3743 -0.1060 -0.0405
 2227poe    c23 9435   4.241   1.271   1.721 -0.2753 -0.2504  0.0747
 2227poe    c23 9436   4.258   1.118   1.720  0.3333 -0.1807 -0.1127
 2227poe     o2 9437   4.127   1.069   1.736  0.3524 -0.1647  0.0933
 2227poe    c23 9438   4.109   0.936   1.694  0.6688 -0.1602 -0.0646
 2227poe    c23 9439   4.133   0.850   1.819 -0.2851  0.0485  0.2720
 2227poe     o2 9440   4.094   0.925   1.932 -0.0393 -0.0932  0.4514
 2227poe    c23 9441   4.031   0.835   2.020  0.6184 -0.3691  0.6480
 2227poe    c23 9442   3.919   0.904   2.101  0.2810  0.2022 -0.2954
 2227poe     o2 9443   3.819   0.944   2.011  0.1209 -0.0997 -0.2510
 2227poe    c31 9444   3.714   0.850   2.001  0.0482 -0.0558  0.0842
 2228poe    c31 9445   3.979   1.588   4.179  0.2604  0.3921 -0.3184
 2228poe     o2 9446   3.919   1.693   4.251  0.0508 -0.4067  0.6825
 2228poe    c23 9447   4.017   1.794   4.254 -0.0537 -0.2943  0.3121
 2228poe    c23 9448   3.977   1.906   4.352  0.1814  0.5631 -0.5527
 2228poe     o2 9449   3.868   1.987   4.313 -0.0354  0.2414 -0.6235
 2228poe    c23 9450   3.850   2.074   4.423  0.2688  0.1828 -0.5254
 2228poe    c23 9451   3.820   2.217   4.374 -0.5610  0.3023  0.3166
 2228poe     o2 9452   3.693   2.251   4.324 -0.5618 -0.1717 -0.0092
 2228poe    c23 9453   3.689   2.387   4.285 -0.5963  0.0036  0.5949
 2228poe    c23 9454   3.545   2.441   4.290 -0.7296 -0.2858  0.0626
 2228poe     o2 9455   3.497   2.424   4.159 -0.3063 -0.2173 -0.1002
 2228poe    c31 9456   3.445   2.545   4.108  0.5067  0.0621 -0.2939
 2229poe    c31 9457   1.303   1.064   6.943 -0.0588 -0.2379 -0.2318
 2229poe     o2 9458   1.431   1.085   6.889 -0.1324 -0.1196 -0.3576
 2229poe    c23 9459   1.428   1.214   6.832  0.0922 -0.2932 -0.7650
 2229poe    c23 9460   1.571   1.267   6.807  0.0973  0.2821  0.4309
 2229poe     o2 9461   1.633   1.197   6.702 -0.0310  0.9548 -0.0969
 2229poe    c23 9462   1.766   1.231   6.670  0.1414  0.2179 -0.1903
 2229poe    c23 9463   1.869   1.150   6.751 -0.8052 -0.1706  0.6454
 2229poe     o2 9464   1.889   1.029   6.682  0.0916  0.2299  0.1943
 2229poe    c23 9465   1.965   0.947   6.768 -0.3895 -0.2756  0.1438
 2229poe    c23 9466   1.969   0.805   6.709  0.4504 -0.1512 -0.1121
 2229poe     o2 9467   1.839   0.777   6.662  0.1262 -0.1415  0.7673
 2229poe    c31 9468   1.816   0.644   6.620 -0.3022 -0.1515  1.0273
 2230poe    c31 9469   0.067   5.342   0.325 -0.0275  0.3575 -0.3427
 2230poe     o2 9470   0.114   5.458   0.389  0.1851  0.2993 -0.3931
 2230poe    c23 9471   0.022   5.502   0.486  0.0790  0.2351 -0.4649
 2230poe    c23 9472   0.107   5.574   0.592  0.0450 -0.2830 -0.0787
 2230poe     o2 9473   0.164   5.694   0.544 -0.7140  0.1145 -0.0219
 2230poe    c23 9474   0.236   5.773   0.636 -0.1518  0.5688 -0.8423
 2230poe    c23 9475   0.158   5.872   0.724  0.0448  0.1568 -0.1995
 2230poe     o2 9476   0.098   5.971   0.644  0.3479  0.1976 -0.3789
 2230poe    c23 9477   0.138   6.098   0.688 -0.3744  0.3141 -0.0348
 2230poe    c23 9478   0.087   6.213   0.600  0.2016  0.1682 -0.5673
 2230poe     o2 9479   0.142   6.219   0.470 -0.3234 -0.2648 -0.8146
 2230poe    c31 9480   0.116   6.346   0.414 -0.9188  0.1215  0.2995
 2231poe    c31 9481   1.167   4.213   4.674 -0.1658  0.3210  0.2532
 2231poe     o2 9482   1.206   4.080   4.649  0.2478  0.4307  0.3095
 2231poe    c23 9483   1.306   4.062   4.551 -0.0830  0.0894  0.0275
 2231poe    c23 9484   1.267   3.994   4.419 -0.1760  0.2036 -0.0036
 2231poe     o2 9485   1.258   3.854   4.439 -0.1119  0.1714 -0.1978
 2231poe    c23 9486   1.209   3.800   4.319  0.3729 -0.3143 -0.1806
 2231poe    c23 9487   1.223   3.646   4.317  0.1951 -0.3282 -0.3845
 2231poe     o2 9488   1.147   3.581   4.217 -0.1016  0.0642 -0.4204
 2231poe    c23 9489   1.018   3.542   4.257  0.0041 -0.2056 -0.3316
 2231poe    c23 9490   0.957   3.431   4.170  0.4000 -0.5494 -0.1717
 2231poe     o2 9491   1.026   3.308   4.170  0.7090 -0.3752 -0.2461
 2231poe    c31 9492   0.964   3.214   4.085  0.6028 -0.5960  0.0749
 2232poe    c31 9493   6.747   5.468   0.947  0.2814 -0.1596  0.8857
 2232poe     o2 9494   6.608   5.466   0.927  0.3859  0.2203  0.1033
 2232poe    c23 9495   6.542   5.585   0.888 -0.0473 -0.1446 -0.2808
 2232poe    c23 9496   6.390   5.562   0.902  0.0267 -0.5840 -0.1697
 2232poe     o2 9497   6.320   5.532   1.020 -0.6341  0.8465 -0.1767
 2232poe    c23 9498   6.310   5.632   1.119  0.3489  0.3493  0.4381
 2232poe    c23 9499   6.167   5.648   1.172  0.1767  0.1440  0.0379
 2232poe     o2 9500   6.076   5.746   1.126  0.0541 -0.1039 -0.2514
 2232poe    c23 9501   5.947   5.688   1.127  0.2782 -0.6098  0.3868
 2232poe    c23 9502   5.870   5.721   1.256 -0.1495  0.2506 -0.0781
 2232poe     o2 9503   5.883   5.860   1.274  0.0204  0.2129  0.1003
 2232poe    c31 9504   5.789   5.904   1.369  0.2082 -0.0447  0.4045
 2233poe    c31 9505   2.278   1.253   1.827  0.0377  0.0937 -0.2917
 2233poe     o2 9506   2.306   1.390   1.808 -0.2651  0.2052  0.0661
 2233poe    c23 9507   2.403   1.395   1.706 -0.1313 -0.6803  0.1403
 2233poe    c23 9508   2.388   1.541   1.660 -0.2225 -0.7475 -0.0444
 2233poe     o2 9509   2.391   1.621   1.776 -0.3212 -0.0992 -0.4807
 2233poe    c23 9510   2.371   1.753   1.732  0.1579  0.0526 -0.2427
 2233poe    c23 9511   2.356   1.840   1.859  0.0313  0.5705 -0.6105
 2233poe     o2 9512   2.273   1.769   1.949  0.1079  0.7769 -0.3776
 2233poe    c23 9513   2.243   1.861   2.051 -0.1388  0.5048 -0.2040
 2233poe    c23 9514   2.104   1.831   2.112  0.2320 -0.2166  0.3054
 2233poe     o2 9515   2.097   1.701   2.166  0.4675 -0.0644  0.7069
 2233poe    c31 9516   1.964   1.676   2.205  0.2511  0.1813  0.1410
 2234poe    c31 9517   3.085   2.056   6.402  0.6138 -0.2897 -0.4565
 2234poe     o2 9518   3.083   1.938   6.479  0.5696 -0.1105 -0.1801
 2234poe    c23 9519   3.013   1.964   6.599 -0.2193 -0.0020 -0.6517
 2234poe    c23 9520   3.018   1.837   6.686  0.0674  0.4507  0.0053
 2234poe     o2 9521   2.978   1.726   6.609  0.0536  0.1626  0.4228
 2234poe    c23 9522   2.986   1.610   6.689  0.3235 -0.0381  0.1113
 2234poe    c23 9523   2.926   1.503   6.597  0.0866  0.3682 -0.2121
 2234poe     o2 9524   2.981   1.515   6.467  0.1320 -0.0276 -0.2309
 2234poe    c23 9525   2.949   1.408   6.380  0.1669  0.0302 -0.3147
 2234poe    c23 9526   3.071   1.319   6.352  0.3265  0.1724 -0.0818
 2234poe     o2 9527   3.169   1.400   6.289 -0.2564  0.6993 -0.3187
 2234poe    c31 9528   3.299   1.347   6.285 -0.4232  0.1951  0.4729
 2235poe    c31 9529   2.253   2.608   5.610 -0.1670  0.6634 -0.2753
 2235poe     o2 9530   2.150   2.646   5.699 -0.1595 -0.0272  0.0345
 2235poe    c23 9531   2.081   2.757   5.647 -0.7873 -0.7469 -0.6906
 2235poe    c23 9532   1.969   2.786   5.749  0.3265 -0.1498  0.3815
 2235poe     o2 9533   2.015   2.817   5.879 -0.4906  0.4743  0.5256
 2235poe    c23 9534   1.929   2.789   5.988 -0.0184 -0.2952  0.7062
 2235poe    c23 9535   1.988   2.861   6.110  0.1164  0.1650  0.3737
 2235poe     o2 9536   2.121   2.817   6.130  0.2866  0.4432 -0.1170
 2235poe    c23 9537   2.167   2.840   6.262  0.5105  0.8702 -0.2682
 2235poe    c23 9538   2.293   2.754   6.282 -0.3481 -0.3302  0.1126
 2235poe     o2 9539   2.345   2.753   6.151  0.4060  0.8812  0.3811
 2235poe    c31 9540   2.475   2.701   6.162 -0.1316 -0.5861  0.0932
 2236poe    c31 9541   6.564   0.082   1.019 -0.1834 -0.2920  0.2432
 2236poe     o2 9542   6.614   0.019   0.903  0.1028 -0.2920  0.3672
 2236poe    c23 9543   6.687   0.111   0.825 -0.8892 -0.3410 -0.6297
 2236poe    c23 9544   6.829   0.073   0.780 -0.4236  0.6534 -0.0441
 2236poe     o2 9545   6.842  -0.033   0.687 -0.6399  0.0587  0.5914
 2236poe    c23 9546   6.975  -0.080   0.678 -0.4196  0.7287  0.3041
 2236poe    c23 9547   6.980  -0.190   0.570  0.5856  0.2394  0.8395
 2236poe     o2 9548   6.971  -0.144   0.437  0.3973 -0.2972  0.6667
 2236poe    c23 9549   6.997  -0.254   0.352  0.2670  0.0128  0.2209
 2236poe    c23 9550   7.018  -0.202   0.209 -0.1556  0.0258  0.1603
 2236poe     o2 9551   6.932  -0.095   0.182 -0.3087 -0.0470  0.3581
 2236poe    c31 9552   6.969  -0.040   0.057 -0.0996  1.2714  0.9870
 2237poe    c31 9553   5.351   3.020   4.088 -0.6248  0.7558 -0.1696
 2237poe     o2 9554   5.449   3.062   4.181 -0.3310 -0.1222 -0.0715
 2237poe    c23 9555   5.410   3.196   4.203 -0.0985 -0.0032 -0.3784
 2237poe    c23 9556   5.454   3.238   4.345 -0.6542  0.2683 -0.2848
 2237poe     o2 9557   5.418   3.151   4.449  0.4581  0.1351  0.0016
 2237poe    c23 9558   5.379   3.226   4.562 -0.2291 -0.2727  0.0416
 2237poe    c23 9559   5.336   3.143   4.685 -0.0198 -0.1003  0.2313
 2237poe     o2 9560   5.453   3.085   4.738  0.3271  0.6259  0.2760
 2237poe    c23 9561   5.415   3.005   4.847  0.0394 -0.1141 -0.3532
 2237poe    c23 9562   5.514   2.890   4.875 -0.6454 -0.5941  0.1192
 2237poe     o2 9563   5.551   2.822   4.758 -0.6541  0.0120 -0.2396
 2237poe    c31 9564   5.493   2.693   4.754 -0.2384 -0.1987  0.4658
 2238poe    c31 9565   5.429   6.721   7.069 -0.1541  0.0291 -0.3732
 2238poe     o2 9566   5.472   6.837   7.138  0.5663 -0.3744 -0.1332
 2238poe    c23 9567   5.592   6.890   7.087  0.1119  0.3319 -0.4792
 2238poe    c23 9568   5.631   7.022   7.157  0.4115  0.0098 -0.0365
 2238poe     o2 9569   5.546   7.127   7.115  0.0392 -0.1552  0.2968
 2238poe    c23 9570   5.566   7.256   7.167 -0.0945  0.1009 -0.2817
 2238poe    c23 9571   5.508   7.359   7.068  0.4993 -0.2068 -0.9509
 2238poe     o2 9572   5.368   7.348   7.073  0.4885  0.0256 -0.6890
 2238poe    c23 9573   5.286   7.450   7.020 -0.1628 -0.0098  0.2380
 2238poe    c23 9574   5.303   7.478   6.870  0.3629 -0.0356  0.2935
 2238poe     o2 9575   5.273   7.367   6.789  0.4093  0.1496  0.0220
 2238poe    c31 9576   5.290   7.411   6.656 -0.2576 -0.2817 -0.2135
 2239poe    c31 9577   6.484   5.246   3.172  0.0324  0.5549  0.5568
 2239poe     o2 9578   6.512   5.222   3.308  0.1175 -0.5680  0.3531
 2239poe    c23 9579   6.537   5.086   3.336  0.5444 -0.5363  0.1308
 2239poe    c23 9580   6.660   5.089   3.428  0.2878  0.5092  0.4505
 2239poe     o2 9581   6.610   5.176   3.527 -0.3192  0.3934  0.2505
 2239poe    c23 9582   6.683   5.148   3.645  0.0232  0.3534  0.0323
 2239poe    c23 9583   6.623   5.220   3.767  0.0387  0.3497  0.0423
 2239poe     o2 9584   6.482   5.212   3.779  0.0486  0.2433  0.0839
 2239poe    c23 9585   6.440   5.211   3.913  0.2582  0.0093  0.1479
 2239poe    c23 9586   6.423   5.069   3.972 -0.1065 -0.0439 -0.0806
 2239poe     o2 9587   6.354   5.078   4.094  0.6384  0.4580  0.3112
 2239poe    c31 9588   6.383   4.955   4.155  0.6177  0.4985  0.4034
 2240poe    c31 9589   5.524   0.338   5.783  0.2684 -0.3115  0.3803
 2240poe     o2 9590   5.611   0.441   5.823  0.1218 -0.0572  0.0483
 2240poe    c23 9591   5.679   0.438   5.947  0.1026 -0.5169  0.0483
 2240poe    c23 9592   5.750   0.304   5.975  0.0578 -0.5067  0.2119
 2240poe     o2 9593   5.685   0.194   6.034  0.2640 -0.4495  0.5438
 2240poe    c23 9594   5.767   0.080   6.048  0.5723 -0.3563 -0.4320
 2240poe    c23 9595   5.696  -0.013   6.148  0.3731  0.0205 -0.2199
 2240poe     o2 9596   5.563  -0.046   6.114  0.2644 -0.1700  0.3847
 2240poe    c23 9597   5.526  -0.166   6.049 -0.1801  0.1637  0.0193
 2240poe    c23 9598   5.428  -0.256   6.126 -0.7654  0.1685 -0.7094
 2240poe     o2 9599   5.319  -0.178   6.172 -0.4370  0.2594 -0.0665
 2240poe    c31 9600   5.193  -0.235   6.146 -0.4407  0.2884 -0.1111
 2241poe    c31 9601   3.219   6.424   4.254  0.2382  0.3918 -0.0027
 2241poe     o2 9602   3.100   6.473   4.313  0.1809  0.3039 -0.0450
 2241poe    c23 9603   3.001   6.377   4.342  0.3396  0.3013  0.4921
 2241poe    c23 9604   3.041   6.265   4.440 -0.6336 -0.3259  0.1770
 2241poe     o2 9605   3.105   6.321   4.552  0.0642  0.1057 -0.4289
 2241poe    c23 9606   3.227   6.263   4.594 -0.4639 -0.2870  0.6153
 2241poe    c23 9607   3.329   6.364   4.648 -0.3957  0.0212 -0.0713
 2241poe     o2 9608   3.294   6.429   4.768  0.1912  0.2833 -0.0368
 2241poe    c23 9609   3.417   6.470   4.823  0.3278  0.4206 -0.4402
 2241poe    c23 9610   3.408   6.528   4.965 -0.0643  0.2099 -0.3774
 2241poe     o2 9611   3.319   6.637   4.971 -0.5170 -0.1885  0.3013
 2241poe    c31 9612   3.338   6.692   5.100  0.0590 -0.7511  0.4616
 2242poe    c31 9613   3.371   5.690   4.306  0.0431  0.1345 -0.7408
 2242poe     o2 9614   3.230   5.684   4.310  0.0946 -0.5243  0.1968
 2242poe    c23 9615   3.193   5.728   4.439  0.7623  0.1877  0.1500
 2242poe    c23 9616   3.152   5.876   4.442  0.2625  0.0505  0.2410
 2242poe     o2 9617   3.024   5.900   4.390  0.3063 -0.2441 -0.0012
 2242poe    c23 9618   2.925   5.839   4.470  0.0443 -0.1233 -0.2288
 2242poe    c23 9619   2.786   5.823   4.406 -0.1026 -0.9142  0.2781
 2242poe     o2 9620   2.787   5.750   4.285  0.3136  0.1743 -0.3828
 2242poe    c23 9621   2.669   5.749   4.207  0.4819  0.8844 -0.6538
 2242poe    c23 9622   2.683   5.703   4.061 -0.2747  0.2251 -0.5272
 2242poe     o2 9623   2.767   5.790   3.987  0.2039 -0.0951 -0.3690
 2242poe    c31 9624   2.689   5.895   3.933  0.0790  0.0640  0.1132
 2243poe    c31 9625   0.726   4.607   3.381  0.0926  0.7076 -0.0664
 2243poe     o2 9626   0.795   4.552   3.270  0.0992  0.3323  0.1236
 2243poe    c23 9627   0.880   4.635   3.195  0.2600  0.0768  0.0211
 2243poe    c23 9628   0.931   4.567   3.067  0.0008  0.8339 -0.4939
 2243poe     o2 9629   0.992   4.444   3.098  0.1478  1.0821  0.2166
 2243poe    c23 9630   1.027   4.371   2.983  0.5943  0.5766  0.6697
 2243poe    c23 9631   1.102   4.239   3.012  0.6629  0.4062 -0.2508
 2243poe     o2 9632   1.237   4.252   3.052  0.4816  0.5116  0.3213
 2243poe    c23 9633   1.289   4.128   3.092 -0.0503  0.1487 -0.1030
 2243poe    c23 9634   1.443   4.120   3.101 -0.1088 -0.2998  0.5562
 2243poe     o2 9635   1.496   4.198   3.206  0.2348  0.2647 -0.0329
 2243poe    c31 9636   1.615   4.147   3.261 -0.0457 -0.1700  0.1726
 2244poe    c31 9637   5.939   0.144   0.003 -0.2689 -0.7320 -0.4168
 2244poe     o2 9638   5.852   0.141   0.114  0.4230 -0.2240  0.1537
 2244poe    c23 9639   5.759   0.245   0.134 -0.1297 -0.6982  0.0863
 2244poe    c23 9640   5.663   0.252   0.254  0.5634 -0.2261  0.6171
 2244poe     o2 9641   5.573   0.147   0.230  0.0923  0.3093  0.0002
 2244poe    c23 9642   5.481   0.113   0.330  0.2168 -0.5292 -0.1593
 2244poe    c23 9643   5.382   0.012   0.269  0.2724 -0.5919 -0.1475
 2244poe     o2 9644   5.432  -0.114   0.233 -0.0185 -0.5575 -0.6754
 2244poe    c23 9645   5.332  -0.212   0.253 -0.5915  0.2068  0.2662
 2244poe    c23 9646   5.385  -0.354   0.224  0.2180  0.5796 -0.1011
 2244poe     o2 9647   5.456  -0.420   0.325 -0.1614 -0.1973 -0.3338
 2244poe    c31 9648   5.449  -0.560   0.307 -0.3500 -0.1954 -0.2721
 2245poe    c31 9649   2.519   2.712   0.149 -0.1655  0.2953 -0.3875
 2245poe     o2 9650   2.575   2.773   0.263 -0.1274  0.1971 -0.3530
 2245poe    c23 9651   2.700   2.834   0.237 -0.1577  0.3692 -0.1029
 2245poe    c23 9652   2.682   2.983   0.200 -0.5577  0.3870  0.1609
 2245poe     o2 9653   2.631   3.025   0.076 -0.1456  0.3475 -0.0245
 2245poe    c23 9654   2.528   3.118   0.103 -0.4648  0.0831 -0.3111
 2245poe    c23 9655   2.477   3.172  -0.032  0.0895  0.2528 -0.4571
 2245poe     o2 9656   2.583   3.201  -0.121  0.0844 -0.8512 -0.8457
 2245poe    c23 9657   2.527   3.256  -0.238 -0.5561  0.3606  0.0136
 2245poe    c23 9658   2.644   3.301  -0.327 -0.1279 -0.0566  0.3581
 2245poe     o2 9659   2.724   3.188  -0.354 -0.0535  0.0432  0.1531
 2245poe    c31 9660   2.819   3.191  -0.457 -0.4149 -0.7175 -0.2082
 2246poe    c31 9661   7.230   5.168   6.215  0.1589 -0.1169  0.3600
 2246poe     o2 9662   7.192   5.302   6.194 -0.1083 -0.2070  0.2608
 2246poe    c23 9663   7.292   5.399   6.172 -0.1061 -0.0982  0.7212
 2246poe    c23 9664   7.326   5.472   6.303  0.7804  0.7535  0.0310
 2246poe     o2 9665   7.233   5.558   6.365  0.0834  0.0352  0.0042
 2246poe    c23 9666   7.302   5.624   6.469  0.0157  0.2686 -0.0969
 2246poe    c23 9667   7.202   5.711   6.547 -0.2169  0.2055 -0.3252
 2246poe     o2 9668   7.132   5.774   6.441  0.4682  0.0035 -0.9070
 2246poe    c23 9669   7.046   5.878   6.481 -0.0585 -0.7663  0.0234
 2246poe    c23 9670   6.903   5.837   6.523 -0.4230  0.3938 -0.0405
 2246poe     o2 9671   6.840   5.758   6.425  0.1985  0.3518 -0.4110
 2246poe    c31 9672   6.709   5.728   6.466  0.3981  0.6172  0.4546
 2247poe    c31 9673   4.793   0.106   4.431 -0.4067  0.3084  0.2927
 2247poe     o2 9674   4.853  -0.020   4.411 -0.1538  0.5255 -0.3166
 2247poe    c23 9675   4.971  -0.024   4.488  0.0201  0.1991 -0.5990
 2247poe    c23 9676   5.038  -0.162   4.478 -0.0528  0.0890  0.3322
 2247poe     o2 9677   5.121  -0.168   4.364 -0.4412  0.0310  0.0524
 2247poe    c23 9678   5.198  -0.286   4.360 -0.0735  0.2791 -0.3503
 2247poe    c23 9679   5.331  -0.271   4.284  0.4315  0.2081  0.5039
 2247poe     o2 9680   5.401  -0.160   4.335 -0.0461  1.0455 -0.6113
 2247poe    c23 9681   5.509  -0.140   4.247  0.6198  0.8669  0.1476
 2247poe    c23 9682   5.533   0.004   4.200  0.0672  0.8284 -0.2576
 2247poe     o2 9683   5.415   0.044   4.133 -0.6871 -0.3341  0.3463
 2247poe    c31 9684   5.454   0.077   4.001  0.6699 -0.1920  0.7722
 2248poe    c31 9685   4.594   0.199   0.294 -0.2795  0.0938  0.1229
 2248poe     o2 9686   4.569   0.154   0.162  0.3659  0.5385 -0.1550
 2248poe    c23 9687   4.433   0.190   0.151 -0.0287 -0.7250  0.3565
 2248poe    c23 9688   4.358   0.183   0.017  0.3151  0.3337  0.0948
 2248poe     o2 9689   4.359   0.049  -0.026 -0.4736  0.3547 -0.0047
 2248poe    c23 9690   4.381   0.032  -0.164 -0.4415 -0.0999  0.0538
 2248poe    c23 9691   4.384  -0.116  -0.207 -0.3331 -0.0657 -0.0578
 2248poe     o2 9692   4.476  -0.194  -0.134 -0.9644 -0.2860  0.5097
 2248poe    c23 9693   4.528  -0.295  -0.216  0.0307  0.0382  0.7316
 2248poe    c23 9694   4.609  -0.402  -0.140 -0.1095 -0.3267  0.3738
 2248poe     o2 9695   4.649  -0.326  -0.028  0.5271 -0.0111 -0.0573
 2248poe    c31 9696   4.651  -0.408   0.086 -0.1029 -0.1901 -0.1680
 2249poe    c31 9697   0.466   0.860   1.146  0.4229  0.5309  0.4890
 2249poe     o2 9698   0.494   0.809   1.017  0.2256  0.5581  0.4354
 2249poe    c23 9699   0.463   0.901   0.914  0.0339 -0.6188 -0.5839
 2249poe    c23 9700   0.514   0.866   0.773  0.0438 -0.2023 -0.6851
 2249poe     o2 9701   0.654   0.880   0.764  0.0703 -0.3762 -0.5479
 2249poe    c23 9702   0.685   0.925   0.634  0.0150  0.0663 -0.4087
 2249poe    c23 9703   0.832   0.964   0.610  0.1452  0.3542  0.7509
 2249poe     o2 9704   0.915   0.878   0.684  0.5527 -0.1783 -0.3050
 2249poe    c23 9705   0.973   0.776   0.605 -0.1172 -0.8016  0.0043
 2249poe    c23 9706   1.108   0.744   0.671  0.2535  0.8783  0.0835
 2249poe     o2 9707   1.106   0.740   0.812  0.0741  0.4330  0.0698
 2249poe    c31 9708   1.209   0.651   0.851  0.0016  0.2750 -0.0965
 2250poe    c31 9709   6.195   2.855   1.339 -0.0359 -0.3584 -0.6755
 2250poe     o2 9710   6.097   2.776   1.404  0.2332 -0.0417  0.1190
 2250poe    c23 9711   6.123   2.725   1.533 -0.0852 -0.8202 -0.1217
 2250poe    c23 9712   6.002   2.634   1.557 -0.1615 -0.7665 -0.2954
 2250poe     o2 9713   5.890   2.696   1.499  0.3735  0.1602 -0.3431
 2250poe    c23 9714   5.773   2.618   1.505  0.1024  0.6078  0.2703
 2250poe    c23 9715   5.649   2.709   1.510 -0.4414 -0.0912 -0.3384
 2250poe     o2 9716   5.673   2.795   1.400  0.2909 -0.0609 -0.1556
 2250poe    c23 9717   5.557   2.831   1.329  0.2860  0.0622 -0.0853
 2250poe    c23 9718   5.554   2.979   1.289  0.5148  0.0671 -0.0887
 2250poe     o2 9719   5.657   3.017   1.200  0.3387  0.0024 -0.3242
 2250poe    c31 9720   5.660   3.158   1.193 -0.2157  0.0365  0.0233
 2251poe    c31 9721   6.038   0.707   5.982 -0.7438 -0.3275 -0.0657
 2251poe     o2 9722   5.953   0.674   6.090 -0.3082 -0.4027  0.2583
 2251poe    c23 9723   5.924   0.797   6.154 -0.0738 -0.2481  0.0712
 2251poe    c23 9724   5.878   0.767   6.298  0.3105 -0.2697  0.1895
 2251poe     o2 9725   5.980   0.700   6.369  0.6635  0.0236 -0.0394
 2251poe    c23 9726   5.958   0.694   6.508  0.3264  0.2262 -0.0840
 2251poe    c23 9727   6.090   0.684   6.586  0.0243  0.1788  0.4303
 2251poe     o2 9728   6.149   0.562   6.546 -0.0002  0.0997  0.6392
 2251poe    c23 9729   6.286   0.550   6.575  0.0210 -0.7557  0.2017
 2251poe    c23 9730   6.323   0.420   6.501  0.6180 -0.2635 -0.3797
 2251poe     o2 9731   6.292   0.444   6.366  0.6791  0.6373 -0.2366
 2251poe    c31 9732   6.287   0.310   6.324 -0.1787  0.4920  0.3064
 2252poe    c31 9733   3.383   6.930   4.639 -0.1360 -0.6023  0.9366
 2252poe     o2 9734   3.333   7.017   4.738 -0.4950  0.5136 -0.1913
 2252poe    c23 9735   3.439   7.072   4.813 -0.2853 -0.1297 -0.0083
 2252poe    c23 9736   3.382   7.175   4.912 -1.0558 -0.0194 -0.5577
 2252poe     o2 9737   3.323   7.112   5.024 -0.2163  0.3018  0.0770
 2252poe    c23 9738   3.397   7.115   5.144 -0.6291 -0.3624  0.3501
 2252poe    c23 9739   3.312   7.080   5.268 -0.5884 -0.4222  0.3611
 2252poe     o2 9740   3.212   7.175   5.293  0.4519  0.6092  0.6847
 2252poe    c23 9741   3.147   7.139   5.413  0.8406 -0.3332  0.6207
 2252poe    c23 9742   3.012   7.212   5.394  0.9057 -0.4355 -0.2891
 2252poe     o2 9743   2.929   7.142   5.304 -0.2443  0.3190  0.1643
 2252poe    c31 9744   2.794   7.177   5.327 -0.1298  0.4350  0.6747
 2253poe    c31 9745   0.765   4.800   6.037 -0.4706  0.0303  0.0716
 2253poe     o2 9746   0.867   4.899   6.037 -0.6511  0.2237 -0.6199
 2253poe    c23 9747   0.926   4.901   6.165 -0.4461 -0.2003 -0.7046
 2253poe    c23 9748   1.069   4.944   6.127 -0.1144 -0.4258  0.2782
 2253poe     o2 9749   1.080   5.030   6.016  0.0795  0.0340  0.6489
 2253poe    c23 9750   1.214   5.067   5.993 -0.0812  0.1856 -0.0691
 2253poe    c23 9751   1.198   5.175   5.885  0.3747 -0.0149 -0.3410
 2253poe     o2 9752   1.107   5.130   5.787  0.4781 -0.3499 -0.2861
 2253poe    c23 9753   1.094   5.202   5.667  0.0945  0.0683 -0.0003
 2253poe    c23 9754   1.042   5.346   5.686  0.3390  0.1121  0.3413
 2253poe     o2 9755   0.917   5.346   5.752  0.2927 -0.2440  0.2576
 2253poe    c31 9756   0.899   5.468   5.820 -0.0141 -0.4798  0.6011
 2254poe    c31 9757   6.718   2.785   5.832  0.1596  0.1607 -0.2990
 2254poe     o2 9758   6.756   2.819   5.700 -0.2975 -0.6405 -0.6458
 2254poe    c23 9759   6.652   2.820   5.605 -0.1989  0.3313 -0.7527
 2254poe    c23 9760   6.685   2.762   5.466 -0.2071  0.1990 -0.6995
 2254poe     o2 9761   6.662   2.624   5.475 -0.3894  0.2347 -0.6016
 2254poe    c23 9762   6.735   2.553   5.377 -0.0112 -0.0906 -0.0944
 2254poe    c23 9763   6.834   2.455   5.440 -0.2656 -0.4161 -0.1964
 2254poe     o2 9764   6.956   2.516   5.478 -0.3759 -0.1839 -0.2158
 2254poe    c23 9765   7.056   2.422   5.446 -0.0358  0.2022 -0.2982
 2254poe    c23 9766   7.198   2.478   5.461 -0.2332  0.7545 -0.4736
 2254poe     o2 9767   7.242   2.487   5.594  0.2221  0.0552 -0.5704
 2254poe    c31 9768   7.376   2.527   5.576  0.4540 -0.5471 -0.2199
 2255poe    c31 9769   6.853   5.962   5.986 -0.3731 -0.1689  0.1572
 2255poe     o2 9770   6.946   5.859   6.008  0.4056  0.3938 -0.4084
 2255poe    c23 9771   7.063   5.899   6.076  0.3384 -0.2065  0.0743
 2255poe    c23 9772   7.165   5.785   6.092  0.4223 -0.0638  0.5513
 2255poe     o2 9773   7.249   5.763   5.981  0.2116  0.5361  0.2714
 2255poe    c23 9774   7.349   5.857   5.947  0.6833 -0.1470 -0.2550
 2255poe    c23 9775   7.441   5.800   5.838  0.4012 -0.0958 -0.5191
 2255poe     o2 9776   7.535   5.701   5.872  0.2261 -0.0273  0.1773
 2255poe    c23 9777   7.627   5.670   5.769  0.2177 -0.3400  0.2623
 2255poe    c23 9778   7.726   5.561   5.812  0.0695 -0.7614 -0.4608
 2255poe     o2 9779   7.821   5.597   5.910 -0.9976  0.5383  0.1232
 2255poe    c31 9780   7.774   5.615   6.042 -0.5137 -0.4146  0.4337
 2256poe    c31 9781   4.845   0.666   0.365 -0.6606 -0.2296  0.2041
 2256poe     o2 9782   4.822   0.571   0.468 -0.4066 -0.7160 -0.1819
 2256poe    c23 9783   4.943   0.534   0.531 -0.1825  0.7903  0.3282
 2256poe    c23 9784   4.912   0.455   0.660 -0.4122 -0.2004 -0.3198
 2256poe     o2 9785   4.834   0.534   0.747  0.0706 -0.0396 -0.0289
 2256poe    c23 9786   4.835   0.483   0.879  0.6723 -0.2103 -0.0976
 2256poe    c23 9787   4.798   0.594   0.978  0.1098 -0.2738 -0.2372
 2256poe     o2 9788   4.665   0.629   0.947  0.1678  0.0122 -0.1695
 2256poe    c23 9789   4.612   0.696   1.059 -0.4782  0.3518 -0.6670
 2256poe    c23 9790   4.463   0.736   1.060 -0.6798 -0.3719 -0.1708
 2256poe     o2 9791   4.424   0.831   0.963 -0.5672 -0.4817 -0.3248
 2256poe    c31 9792   4.343   0.926   1.029 -0.1317  0.2287 -0.7934
 2257poe    c31 9793   6.804   4.633   6.991  0.2582  0.1420 -1.2198
 2257poe     o2 9794   6.682   4.696   6.959 -0.3528 -0.3503  0.0563
 2257poe    c23 9795   6.615   4.631   6.854 -0.0381 -0.4155 -0.1044
 2257poe    c23 9796   6.508   4.714   6.780  0.2384 -0.4833 -0.5841
 2257poe     o2 9797   6.583   4.824   6.731 -0.0421  0.1242  0.3304
 2257poe    c23 9798   6.520   4.912   6.641 -0.5242  0.3772  0.9077
 2257poe    c23 9799   6.629   5.006   6.585 -0.1918 -0.3889  0.2527
 2257poe     o2 9800   6.672   5.099   6.681  0.5615 -0.3546 -0.1156
 2257poe    c23 9801   6.723   5.221   6.631  0.3905 -0.1279  0.2581
 2257poe    c23 9802   6.858   5.252   6.698  0.1441  0.3160  0.5589
 2257poe     o2 9803   6.969   5.176   6.656 -0.5422 -0.3229 -0.1488
 2257poe    c31 9804   7.058   5.245   6.571 -0.2006  0.4316  0.7993
 2258poe    c31 9805   5.385   1.076   1.278  0.2960  0.2295  0.4930
 2258poe     o2 9806   5.264   1.107   1.344  0.3895  0.3450  0.6126
 2258poe    c23 9807   5.232   0.998   1.427 -0.3254 -0.3785 -0.5861
 2258poe    c23 9808   5.121   1.040   1.525  0.2576  0.7544 -0.4025
 2258poe     o2 9809   5.016   1.079   1.439  0.0751  0.1194 -0.4692
 2258poe    c23 9810   4.899   1.111   1.511  0.1411  0.3094 -0.4449
 2258poe    c23 9811   4.788   1.142   1.409 -0.2453 -0.1641 -0.1730
 2258poe     o2 9812   4.793   1.266   1.341  0.5656 -0.2765 -0.3283
 2258poe    c23 9813   4.690   1.304   1.253 -0.0786  0.1286  0.5815
 2258poe    c23 9814   4.651   1.217   1.132 -0.0342  0.7448  0.1233
 2258poe     o2 9815   4.755   1.170   1.049 -0.1461  0.4506  0.1517
 2258poe    c31 9816   4.720   1.064   0.962  0.2641  0.4861 -0.0556
 2259poe    c31 9817   6.031   4.671   3.603 -0.2961 -0.1974 -0.5551
 2259poe     o2 9818   6.016   4.655   3.742  0.1013 -0.1097 -0.4986
 2259poe    c23 9819   6.133   4.591   3.785  0.1798  0.4970  0.2059
 2259poe    c23 9820   6.161   4.644   3.927  0.8410  0.9117 -0.0754
 2259poe     o2 9821   6.058   4.634   4.022  0.8257 -0.4559 -0.2154
 2259poe    c23 9822   6.090   4.717   4.131 -0.3502 -0.1367 -0.0904
 2259poe    c23 9823   5.998   4.707   4.254 -0.7324  0.0325 -0.3636
 2259poe     o2 9824   5.880   4.779   4.227 -0.6903  0.1931 -0.1144
 2259poe    c23 9825   5.802   4.781   4.345 -0.0317  0.1577  0.3290
 2259poe    c23 9826   5.717   4.659   4.385 -0.1047  0.1505  0.1555
 2259poe     o2 9827   5.608   4.628   4.301  0.2429 -0.5023 -0.0628
 2259poe    c31 9828   5.563   4.497   4.325 -0.2408 -0.2987  0.1604
 2260poe    c31 9829   1.298   3.742   4.947 -0.6719  0.8054 -0.4683
 2260poe     o2 9830   1.345   3.808   4.832 -0.0483  0.1245 -0.6174
 2260poe    c23 9831   1.381   3.941   4.861 -0.6679  0.2591 -0.4565
 2260poe    c23 9832   1.530   3.973   4.845 -0.6053  0.3300  0.2669
 2260poe     o2 9833   1.581   4.069   4.935  0.3350 -0.2406  0.3682
 2260poe    c23 9834   1.674   4.162   4.886 -0.1810  0.3715  0.5315
 2260poe    c23 9835   1.629   4.247   4.766  0.3155  0.5332  0.4555
 2260poe     o2 9836   1.506   4.316   4.776 -0.2556 -0.3660 -0.1322
 2260poe    c23 9837   1.461   4.379   4.894 -0.0911 -1.1219  0.3448
 2260poe    c23 9838   1.319   4.437   4.884  0.2154 -0.5284 -0.6939
 2260poe     o2 9839   1.300   4.562   4.821 -0.0144  0.0265  0.4465
 2260poe    c31 9840   1.191   4.627   4.883 -0.0085  0.2658  0.2097
 2261poe    c31 9841   5.397   6.334   5.146 -0.1674  0.0282 -0.6271
 2261poe     o2 9842   5.405   6.412   5.263 -0.7405 -1.1579  0.2200
 2261poe    c23 9843   5.379   6.543   5.218  0.7412 -0.7553  0.4906
 2261poe    c23 9844   5.402   6.652   5.325  0.0275 -0.5133  0.4054
 2261poe     o2 9845   5.539   6.654   5.357  0.1186 -0.3484  0.0123
 2261poe    c23 9846   5.562   6.761   5.446  0.1866 -0.2980 -0.0656
 2261poe    c23 9847   5.712   6.766   5.479  0.1908  0.2900 -0.1662
 2261poe     o2 9848   5.771   6.640   5.498 -0.1857  0.0676 -0.4471
 2261poe    c23 9849   5.905   6.669   5.533 -0.1623  0.0475 -0.5213
 2261poe    c23 9850   6.008   6.556   5.513 -0.6580 -0.4494 -0.2812
 2261poe     o2 9851   6.027   6.518   5.379 -0.1793 -0.7783 -0.1206
 2261poe    c31 9852   6.146   6.442   5.370  0.0031 -0.6074  0.7668
 2262poe    c31 9853   2.638   1.277   0.257  0.3858 -0.4619  0.8470
 2262poe     o2 9854   2.692   1.167   0.187  0.1257  0.2275 -0.4721
 2262poe    c23 9855   2.680   1.051   0.265  0.5790  0.2623 -0.3488
 2262poe    c23 9856   2.702   0.911   0.203  0.6137  0.1781 -0.1499
 2262poe     o2 9857   2.826   0.888   0.142  0.4338  0.1023 -0.4896
 2262poe    c23 9858   2.849   0.751   0.165 -0.8174 -0.0721 -0.2443
 2262poe    c23 9859   2.980   0.718   0.092 -0.8234 -0.2343 -0.1805
 2262poe     o2 9860   2.970   0.752  -0.044 -0.1153  1.0468  0.0737
 2262poe    c23 9861   3.088   0.712  -0.111  0.0505  0.9836  0.3990
 2262poe    c23 9862   3.034   0.688  -0.254  0.9539 -0.5615  0.2953
 2262poe     o2 9863   2.945   0.580  -0.265 -0.5531  0.6778 -0.0691
 2262poe    c31 9864   2.892   0.570  -0.396 -0.1261 -0.0063 -0.1956
 2263poe    c31 9865   7.077   2.370   7.051  0.2497  0.2786 -0.3475
 2263poe     o2 9866   7.043   2.451   6.940 -0.5179  0.2019 -0.1740
 2263poe    c23 9867   7.138   2.554   6.922 -0.3491  0.1010  0.1244
 2263poe    c23 9868   7.148   2.606   6.777 -0.2180  0.4291  0.2496
 2263poe     o2 9869   7.026   2.667   6.743 -0.3171  0.2944  0.3608
 2263poe    c23 9870   7.010   2.685   6.604  0.3126  0.5717  0.3197
 2263poe    c23 9871   6.889   2.775   6.570 -0.2644  0.0158  0.8796
 2263poe     o2 9872   6.893   2.908   6.616 -0.2086  0.1479  0.4917
 2263poe    c23 9873   6.926   2.988   6.504 -0.8999 -0.3499 -0.0763
 2263poe    c23 9874   6.866   3.128   6.526 -0.0916  0.0198 -0.1915
 2263poe     o2 9875   6.934   3.205   6.623 -0.5073 -0.2701  0.3321
 2263poe    c31 9876   6.844   3.303   6.672 -0.1028  0.1261  0.2840
 2264poe    c31 9877   5.437   1.458   3.494 -0.4871 -0.6378  0.3325
 2264poe     o2 9878   5.559   1.434   3.560 -0.2234  0.2090  0.1634
 2264poe    c23 9879   5.616   1.554   3.607 -0.1183  0.2569 -0.0845
 2264poe    c23 9880   5.748   1.557   3.685 -0.3935 -0.1245  0.4011
 2264poe     o2 9881   5.750   1.490   3.809  0.4357 -0.8734 -0.0032
 2264poe    c23 9882   5.878   1.496   3.869  0.2322  0.0466  0.3599
 2264poe    c23 9883   5.986   1.412   3.799 -0.0193  0.1825 -0.2001
 2264poe     o2 9884   5.950   1.295   3.730  0.0576 -0.2028  0.4052
 2264poe    c23 9885   6.056   1.247   3.650  0.0130 -0.1723  0.3278
 2264poe    c23 9886   6.028   1.302   3.508  0.0836 -0.9899 -0.0051
 2264poe     o2 9887   5.914   1.242   3.452 -0.0749 -0.8612  0.1778
 2264poe    c31 9888   5.873   1.321   3.343 -0.3977 -0.3563  0.6621
 2265poe    c31 9889   2.598   2.264   3.292 -0.5612 -0.1286 -0.3658
 2265poe     o2 9890   2.459   2.254   3.272 -0.7187  1.1216  0.0282
 2265poe    c23 9891   2.387   2.279   3.391  0.1423  0.5604  0.6731
 2265poe    c23 9892   2.283   2.169   3.423  0.2362  0.1010 -0.5442
 2265poe     o2 9893   2.345   2.050   3.466 -0.0611 -0.0563 -0.5465
 2265poe    c23 9894   2.256   1.955   3.518  0.1304  0.2771  0.4130
 2265poe    c23 9895   2.310   1.885   3.644 -0.3667  0.2120  0.5959
 2265poe     o2 9896   2.372   1.964   3.743  0.1708  0.1868  0.2859
 2265poe    c23 9897   2.429   1.895   3.851 -0.0985 -0.5756 -0.0549
 2265poe    c23 9898   2.493   1.989   3.955 -0.2584 -0.3360 -0.1753
 2265poe     o2 9899   2.403   2.084   4.008  0.1738  0.4153 -0.7583
 2265poe    c31 9900   2.453   2.175   4.104 -0.0908 -0.2359  0.0085
 2266poe    c31 9901   3.128   6.069   1.468 -0.5696  0.6744 -0.1605
 2266poe     o2 9902   3.204   6.080   1.587  0.2266 -0.2761 -0.5659
 2266poe    c23 9903   3.322   6.005   1.605  0.0013 -0.4207  0.3585
 2266poe    c23 9904   3.396   6.081   1.716 -0.2169  0.5914 -0.1767
 2266poe     o2 9905   3.355   6.063   1.849  0.4026 -0.1090 -0.0754
 2266poe    c23 9906   3.450   6.118   1.938 -0.2190  0.7812  0.0427
 2266poe    c23 9907   3.411   6.096   2.086  0.6094  0.3087  0.1937
 2266poe     o2 9908   3.272   6.117   2.084  0.5839  0.1358  0.1630
 2266poe    c23 9909   3.212   6.161   2.204 -0.2810 -0.4684 -0.0345
 2266poe    c23 9910   3.060   6.157   2.180 -0.2049  0.8952 -0.8151
 2266poe     o2 9911   3.017   6.029   2.140  0.2585  0.1950  0.8592
 2266poe    c31 9912   2.877   6.015   2.131  0.2771  0.1419  0.6597
 2267poe    c31 9913   2.305   4.369   1.578  0.0265  0.1455 -0.0548
 2267poe     o2 9914   2.441   4.356   1.543  0.0022  0.0975 -0.1322
 2267poe    c23 9915   2.484   4.467   1.466 -0.6487 -0.0512 -0.7178
 2267poe    c23 9916   2.636   4.459   1.444 -0.5587 -0.5172  0.0450
 2267poe     o2 9917   2.674   4.345   1.371  0.5752  0.0859 -0.3314
 2267poe    c23 9918   2.749   4.258   1.454 -0.0929 -0.4992 -0.3299
 2267poe    c23 9919   2.774   4.125   1.381  0.5404 -0.4804 -0.1468
 2267poe     o2 9920   2.856   4.143   1.267  0.0753  0.1543 -0.3879
 2267poe    c23 9921   2.894   4.025   1.200  0.8003 -0.0113  0.3015
 2267poe    c23 9922   2.978   4.070   1.080  0.3359 -0.2757 -0.1283
 2267poe     o2 9923   2.893   4.125   0.981  0.0116  0.2221  0.4178
 2267poe    c31 9924   2.974   4.161   0.871 -0.3887 -0.4495 -0.1058
 2268poe    c31 9925   5.560   5.837   4.950  0.6963 -0.4985  0.5531
 2268poe     o2 9926   5.588   5.886   4.821 -0.4583 -0.7209  0.2129
 2268poe    c23 9927   5.479   5.870   4.733 -0.1449 -0.2415 -0.2696
 2268poe    c23 9928   5.516   5.791   4.606  0.4756  0.7614 -0.7200
 2268poe     o2 9929   5.580   5.667   4.624 -0.6191  0.2816 -0.0601
 2268poe    c23 9930   5.588   5.609   4.495  0.1661  0.1294  0.0517
 2268poe    c23 9931   5.702   5.508   4.477  0.3427  0.3453 -0.0437
 2268poe     o2 9932   5.683   5.398   4.563 -0.3807  0.2734 -0.2892
 2268poe    c23 9933   5.791   5.308   4.546 -0.4961  0.0977 -0.0980
 2268poe    c23 9934   5.814   5.220   4.670 -0.0454  0.1580 -0.1359
 2268poe     o2 9935   5.866   5.287   4.783  0.3844  0.1947 -0.3555
 2268poe    c31 9936   5.885   5.194   4.887 -0.9234  0.1911 -0.1046
 2269poe    c31 9937   4.663   6.615   0.699  0.4675 -0.4737 -0.0542
 2269poe     o2 9938   4.527   6.632   0.732  0.5369 -0.2108  0.1009
 2269poe    c23 9939   4.491   6.765   0.703  0.2834 -0.3527 -0.2510
 2269poe    c23 9940   4.337   6.779   0.710  0.3155 -0.1329  0.0613
 2269poe     o2 9941   4.296   6.906   0.664  0.0262 -0.1248  0.3422
 2269poe    c23 9942   4.155   6.908   0.668  0.0349  0.0194  0.5743
 2269poe    c23 9943   4.082   7.030   0.609  0.0227 -0.1693  0.1899
 2269poe     o2 9944   4.148   7.149   0.649 -0.0228 -0.0269 -0.1540
 2269poe    c23 9945   4.137   7.251   0.552  0.8005  0.3099  0.0966
 2269poe    c23 9946   4.208   7.373   0.614  0.5447  0.6928 -0.3646
 2269poe     o2 9947   4.344   7.351   0.643  0.4143  0.2504 -0.0855
 2269poe    c31 9948   4.395   7.468   0.702 -0.1613  0.1971  0.5375
 2270poe    c31 9949   1.326   0.084   6.624 -0.1672 -0.0451  0.3176
 2270poe     o2 9950   1.419   0.120   6.524 -0.1094 -0.2645  0.2924
 2270poe    c23 9951   1.535   0.162   6.592 -0.4235  0.1397  0.5807
 2270poe    c23 9952   1.616   0.260   6.507 -0.2986 -0.0339  0.4994
 2270poe     o2 9953   1.702   0.209   6.407  0.2480  0.0338  0.9268
 2270poe    c23 9954   1.817   0.290   6.414  0.5834 -0.4367  0.8934
 2270poe    c23 9955   1.874   0.302   6.272 -0.6988  0.5616  0.4387
 2270poe     o2 9956   1.942   0.186   6.228 -0.5930  0.8533 -0.1754
 2270poe    c23 9957   2.012   0.199   6.107  0.3699 -0.5020  0.2221
 2270poe    c23 9958   2.059   0.064   6.049 -0.1775 -0.6550  0.1279
 2270poe     o2 9959   1.973  -0.008   5.964 -0.4231 -0.0755 -0.1203
 2270poe    c31 9960   2.052  -0.118   5.921  0.3959  0.5718 -0.3001
 2271poe    c31 9961   3.359   0.605   5.272  0.9615 -0.5902  0.3537
 2271poe     o2 9962   3.294   0.517   5.183 -0.3306  0.5983  0.0864
 2271poe    c23 9963   3.155   0.512   5.209 -0.3156 -0.6084 -0.0089
 2271poe    c23 9964   3.079   0.439   5.097  0.0942  0.0512 -0.7219
 2271poe     o2 9965   3.103   0.506   4.975  0.7186  0.3408 -0.4438
 2271poe    c23 9966   3.083   0.415   4.869 -0.0720 -0.2971  0.2365
 2271poe    c23 9967   3.097   0.499   4.740 -0.1950 -0.2389  0.2616
 2271poe     o2 9968   3.036   0.625   4.759  0.4032  0.0333  0.3769
 2271poe    c23 9969   3.019   0.709   4.647  0.4773  0.2878  0.5576
 2271poe    c23 9970   2.936   0.835   4.677  0.0283  0.1820 -0.2402
 2271poe     o2 9971   2.982   0.890   4.798  0.4821  0.8026 -0.6864
 2271poe    c31 9972   2.948   1.021   4.836 -0.2552  0.3646  0.1829
 2272poe    c31 9973   6.997   4.559   1.629  0.2238  0.0406 -0.4269
 2272poe     o2 9974   6.989   4.454   1.722  0.0681  0.7196  0.3361
 2272poe    c23 9975   7.096   4.366   1.699 -0.2586  0.2965  0.4214
 2272poe    c23 9976   7.114   4.270   1.818  0.0709  0.0277  0.1564
 2272poe     o2 9977   6.991   4.216   1.860  0.1871 -0.5800 -0.2634
 2272poe    c23 9978   7.026   4.096   1.924 -0.2183 -0.7225 -0.3061
 2272poe    c23 9979   6.925   3.983   1.897 -0.8025 -0.2147 -0.2679
 2272poe     o2 9980   6.794   4.001   1.947 -0.3560  0.4240  0.7102
 2272poe    c23 9981   6.733   3.874   1.959  0.2501  0.0554 -0.0126
 2272poe    c23 9982   6.589   3.911   1.922  0.1874  0.0790  0.2491
 2272poe     o2 9983   6.522   3.996   2.012 -0.8521  0.0246 -0.4512
 2272poe    c31 9984   6.439   4.077   1.931 -0.8092  0.2733 -0.2491
 2273poe    c31 9985   3.132   5.376   0.307 -0.1704  0.0280  0.3247
 2273poe     o2 9986   3.206   5.456   0.397 -0.5867  0.3530  0.3799
 2273poe    c23 9987   3.286   5.367   0.472 -0.2261  0.5655  0.2494
 2273poe    c23 9988   3.356   5.433   0.593  0.1310  0.5185  0.0687
 2273poe     o2 9989   3.255   5.445   0.691  0.4071 -0.4775  0.4895
 2273poe    c23 9990   3.307   5.497   0.812  0.5537  0.6857 -0.0564
 2273poe    c23 9991   3.236   5.623   0.865 -0.2732  0.1124  0.2316
 2273poe     o2 9992   3.116   5.588   0.930 -0.3022  0.4583  0.3621
 2273poe    c23 9993   3.056   5.703   0.986 -0.1460  0.5317  0.3819
 2273poe    c23 9994   3.101   5.736   1.129 -0.1423 -0.7169  0.6864
 2273poe     o2 9995   3.227   5.801   1.138 -0.4727  0.0529 -0.0913
 2273poe    c31 9996   3.218   5.937   1.104 -0.0714  0.2625  0.6244
 2274poe    c31 9997   4.127   4.265   1.812  0.2428 -0.1890  1.0396
 2274poe     o2 9998   3.998   4.209   1.796  0.2268  0.0363  0.3736
 2274poe    c23 9999   3.966   4.117   1.898 -0.7388  0.0947  0.1287
 2274poe    c2310000   3.822   4.062   1.899 -0.7174  0.0256 -0.2995
 2274poe     o210001   3.734   4.168   1.928 -0.6730  0.2004 -0.7841
 2274poe    c2310002   3.611   4.101   1.951 -0.1874 -0.3116  0.4142
 2274poe    c2310003   3.492   4.197   1.967  0.2970  0.3061  0.3626
 2274poe     o210004   3.466   4.228   2.102 -0.2577 -0.2099  0.3778
 2274poe    c2310005   3.338   4.286   2.117  0.1046  0.5195  0.6807
 2274poe    c2310006   3.292   4.334   2.256 -0.2060  0.6941  0.5182
 2274poe     o210007   3.274   4.222   2.340 -0.1946  0.2908 -0.0138
 2274poe    c3110008   3.266   4.249   2.478  0.8072 -0.5672  0.2338
 2275poe    c3110009   6.201   6.448   6.966  0.1765  0.1141  0.7443
 2275poe     o210010   6.303   6.354   6.940  0.3899  0.3523  0.7130
 2275poe    c2310011   6.262   6.235   7.003 -0.3700  0.0959 -0.2279
 2275poe    c2310012   6.266   6.115   6.906 -0.1805  0.2032 -0.3519
 2275poe     o210013   6.371   6.146   6.816  0.0220  0.6769  0.0415
 2275poe    c2310014   6.365   6.051   6.713 -0.2079  0.4821  0.2341
 2275poe    c2310015   6.496   6.070   6.635 -0.2475 -0.5634 -0.1076
 2275poe     o210016   6.533   6.205   6.646 -0.6511 -0.4556 -0.0627
 2275poe    c2310017   6.621   6.235   6.540 -0.7653 -0.3835 -0.1379
 2275poe    c2310018   6.573   6.328   6.427 -0.6445  0.0289  0.1472
 2275poe     o210019   6.515   6.447   6.475  0.1675  0.8926 -0.9924
 2275poe    c3110020   6.431   6.504   6.376 -1.3834  0.2744 -0.0576
 2276poe    c3110021   4.289   1.645   3.375  0.0981 -0.2269 -0.5548
 2276poe     o210022   4.415   1.701   3.342  0.1417 -0.3528 -0.6002
 2276poe    c2310023   4.529   1.630   3.384  0.1030  0.1657  0.4005
 2276poe    c2310024   4.655   1.709   3.344  0.5164 -0.7222 -0.0681
 2276poe     o210025   4.686   1.840   3.386 -0.1442 -0.5227 -0.2011
 2276poe    c2310026   4.785   1.897   3.303 -0.2490 -0.0736 -0.0228
 2276poe    c2310027   4.820   2.031   3.369 -0.3115 -0.0777  0.0189
 2276poe     o210028   4.872   2.014   3.499  0.1400 -0.2142 -0.1787
 2276poe    c2310029   4.921   2.137   3.547  0.0011 -0.2090 -0.0499
 2276poe    c2310030   5.037   2.104   3.643 -0.1102 -0.3751  0.0257
 2276poe     o210031   4.989   2.013   3.739  0.3450 -0.4455  0.1855
 2276poe    c3110032   5.092   1.998   3.834 -0.3061 -1.0608  0.8147
 2277poe    c3110033   3.356   4.068   4.671  0.9832  0.3283  0.1700
 2277poe     o210034   3.340   3.992   4.554  0.2908  0.7262 -0.0036
 2277poe    c2310035   3.286   4.060   4.443  0.2220  0.0806 -0.3696
 2277poe    c2310036   3.387   4.125   4.347  0.4054 -0.0305 -0.2531
 2277poe     o210037   3.439   4.016   4.273  0.0874 -0.3467 -0.0116
 2277poe    c2310038   3.540   4.073   4.193 -0.4906 -0.0751 -0.5552
 2277poe    c2310039   3.604   3.964   4.105 -0.6815  0.1935 -1.0308
 2277poe     o210040   3.625   3.852   4.188  0.5546  0.7934 -0.5085
 2277poe    c2310041   3.714   3.756   4.135 -0.2431 -0.1980 -0.1008
 2277poe    c2310042   3.706   3.629   4.221  0.4085 -0.2377 -0.0922
 2277poe     o210043   3.755   3.648   4.351  1.5265 -0.2293 -0.4992
 2277poe    c3110044   3.808   3.524   4.393  0.3449 -0.5570  0.0760
 2278poe    c3110045   3.653   4.545   4.792 -0.2689 -0.7261 -0.6912
 2278poe     o210046   3.694   4.443   4.880 -0.0648 -0.3897 -0.3917
 2278poe    c2310047   3.666   4.316   4.826  0.3196 -0.2207 -0.9866
 2278poe    c2310048   3.693   4.210   4.934 -1.3162 -0.6237 -0.9468
 2278poe     o210049   3.616   4.204   5.052  0.2248 -0.0111  0.1212
 2278poe    c2310050   3.477   4.187   5.037  0.2199  0.1351 -0.0040
 2278poe    c2310051   3.405   4.150   5.168  0.4540  0.0731  0.1073
 2278poe     o210052   3.443   4.237   5.272  0.2036 -0.2865  0.5034
 2278poe    c2310053   3.357   4.253   5.382 -0.4677 -0.0776 -0.0471
 2278poe    c2310054   3.439   4.319   5.494 -0.2228 -0.0052 -0.2696
 2278poe     o210055   3.473   4.450   5.452  0.6345 -0.0823  0.1517
 2278poe    c3110056   3.520   4.530   5.558 -0.3072  0.2107  0.3651
 2279poe    c3110057   1.346   5.285   4.954 -0.2885 -0.7407 -0.2841
 2279poe     o210058   1.247   5.288   5.055  0.3750 -0.1437  0.3620
 2279poe    c2310059   1.230   5.159   5.108 -0.3879 -0.1955  0.0051
 2279poe    c2310060   1.126   5.185   5.219  0.1269  0.4961  0.3320
 2279poe     o210061   1.010   5.244   5.164 -0.5329 -0.7026  0.4089
 2279poe    c2310062   0.908   5.276   5.256 -1.0817 -0.7566 -0.1709
 2279poe    c2310063   0.797   5.345   5.175 -0.5446 -0.0539 -0.3192
 2279poe     o210064   0.842   5.451   5.094  0.0183  0.2429  0.3643
 2279poe    c2310065   0.730   5.506   5.027 -0.1150 -0.6112 -0.1286
 2279poe    c2310066   0.764   5.629   4.940 -0.0872 -0.1111  0.5762
 2279poe     o210067   0.834   5.586   4.825  0.1722 -0.3915  0.8360
 2279poe    c3110068   0.884   5.704   4.767 -0.1643 -0.5557  0.2018
 2280poe    c3110069   4.941   5.042   2.299  0.1120 -0.2703 -0.1098
 2280poe     o210070   4.966   5.111   2.179  0.3370  0.4523  0.3474
 2280poe    c2310071   5.100   5.154   2.170  0.3800  0.2514  0.0098
 2280poe    c2310072   5.110   5.255   2.055 -0.6861 -0.1319 -0.4267
 2280poe     o210073   5.077   5.204   1.928  0.1133 -0.2208 -0.6049
 2280poe    c2310074   5.065   5.320   1.849  0.3020  0.1149 -0.1391
 2280poe    c2310075   5.077   5.285   1.700  0.1834  0.3203 -0.1982
 2280poe     o210076   4.992   5.173   1.689  0.1799  0.2764  0.2776
 2280poe    c2310077   4.971   5.117   1.562 -0.0581  0.4659  0.2331
 2280poe    c2310078   4.846   5.028   1.579  0.1122  0.2955  0.6106
 2280poe     o210079   4.875   4.928   1.674  0.4101 -0.2131 -0.0134
 2280poe    c3110080   4.752   4.869   1.711  0.0954  0.5285  0.1488
 2281poe    c3110081   6.921   5.845   3.492 -0.1699 -0.0868  0.1881
 2281poe     o210082   6.875   5.973   3.530  0.4367  0.0144  0.5969
 2281poe    c2310083   6.969   6.043   3.609  0.9743 -0.1710  0.1267
 2281poe    c2310084   6.938   6.193   3.607 -0.0879 -0.3835 -0.1828
 2281poe     o210085   6.801   6.208   3.634 -0.1389 -0.3418 -0.4574
 2281poe    c2310086   6.783   6.348   3.638 -0.3452 -0.3854  0.2963
 2281poe    c2310087   6.636   6.391   3.646 -0.4816 -0.7944  0.0110
 2281poe     o210088   6.583   6.354   3.520 -0.0792  0.1458 -0.4457
 2281poe    c2310089   6.443   6.372   3.522 -0.0214  0.5507  0.3754
 2281poe    c2310090   6.364   6.372   3.390  0.2661 -0.1094  0.1965
 2281poe     o210091   6.369   6.245   3.330  0.3241 -0.2575  0.5093
 2281poe    c3110092   6.266   6.229   3.235  0.1530 -0.1609  0.6796
 2282poe    c3110093   3.609   6.009   6.793 -0.1137  0.7268 -0.3714
 2282poe     o210094   3.634   5.994   6.931 -0.8325 -0.0535 -0.3196
 2282poe    c2310095   3.768   5.958   6.954 -0.7388  0.4185 -0.1172
 2282poe    c2310096   3.806   5.946   7.103 -0.1057  0.0873 -0.3006
 2282poe     o210097   3.701   5.872   7.161 -0.3368  0.8444  0.2601
 2282poe    c2310098   3.708   5.851   7.300  0.6368 -0.3459  0.0547
 2282poe    c2310099   3.630   5.725   7.341  0.2505 -0.0734  0.1644
 2282poe     o210100   3.494   5.735   7.302  0.1346 -0.2477  0.5228
 2282poe    c2310101   3.408   5.638   7.358 -0.3919 -0.4158 -0.5590
 2282poe    c2310102   3.297   5.706   7.440 -0.0969 -0.2611 -0.2860
 2282poe     o210103   3.192   5.784   7.389 -0.3074 -0.2596  0.1424
 2282poe    c3110104   3.114   5.728   7.285  0.1532 -0.4912 -0.0795
 2283poe    c3110105   6.788   4.560   1.203 -0.2526 -0.0517 -0.6516
 2283poe     o210106   6.651   4.534   1.216 -0.1992 -0.1670 -0.3162
 2283poe    c2310107   6.596   4.580   1.337 -0.2181 -0.4709 -0.2084
 2283poe    c2310108   6.443   4.566   1.343 -0.1999 -0.5659  0.0575
 2283poe     o210109   6.373   4.643   1.438 -0.3729 -0.2179 -0.3483
 2283poe    c2310110   6.324   4.567   1.547 -0.6328  0.0876 -0.2492
 2283poe    c2310111   6.276   4.662   1.658 -0.0326 -0.6240  0.6304
 2283poe     o210112   6.143   4.692   1.621  0.2749  0.0757  0.0813
 2283poe    c2310113   6.096   4.804   1.693  0.1445  0.0202  0.0832
 2283poe    c2310114   5.981   4.870   1.616  0.0722  0.1942  0.3390
 2283poe     o210115   6.039   4.921   1.498 -0.0490 -0.3179  0.0569
 2283poe    c3110116   5.961   5.014   1.426 -0.3249 -0.0366  0.7090
 2284poe    c3110117   6.459   0.547   2.397  0.6905  0.6234 -0.8287
 2284poe     o210118   6.479   0.683   2.428  0.4034  0.3742  0.4900
 2284poe    c2310119   6.481   0.771   2.318  0.0072 -0.1452  0.0626
 2284poe    c2310120   6.454   0.912   2.372 -0.5330 -0.3193  0.2580
 2284poe     o210121   6.539   0.929   2.483 -0.2204 -0.6318  0.0685
 2284poe    c2310122   6.535   1.068   2.511 -0.1876 -0.7389  0.6124
 2284poe    c2310123   6.639   1.082   2.624  0.1821  0.2373  0.1617
 2284poe     o210124   6.601   0.982   2.716 -0.0719 -0.2424 -0.4520
 2284poe    c2310125   6.672   0.982   2.838 -0.1836 -0.3152 -0.3864
 2284poe    c2310126   6.576   0.951   2.954  0.5115  0.0810  0.3007
 2284poe     o210127   6.566   0.811   2.970  0.1578  0.0023 -0.5384
 2284poe    c3110128   6.494   0.793   3.090 -0.2644  0.4102 -0.7289
 2285poe    c3110129   6.087   0.330   0.403 -0.1901 -0.1894  0.1679
 2285poe     o210130   5.997   0.394   0.491 -0.2677 -0.0959  0.0225
 2285poe    c2310131   5.987   0.317   0.609  0.0490  0.3362  0.3384
 2285poe    c2310132   5.906   0.382   0.722 -0.4096  0.1422  0.1255
 2285poe     o210133   5.783   0.434   0.678 -0.1598  0.7615  0.1395
 2285poe    c2310134   5.722   0.520   0.772 -0.2928  0.0228  0.7396
 2285poe    c2310135   5.605   0.588   0.699 -0.0057 -0.5234 -0.2514
 2285poe     o210136   5.648   0.685   0.605 -0.2387 -0.4882 -0.3222
 2285poe    c2310137   5.541   0.760   0.553  0.0443 -0.0527 -0.2789
 2285poe    c2310138   5.577   0.830   0.421 -0.9326  0.2730 -0.3860
 2285poe     o210139   5.623   0.726   0.338  0.1803  0.3053  0.1709
 2285poe    c3110140   5.670   0.763   0.210  0.1685  0.0573  0.0941
 2286poe    c3110141   0.798   6.885   4.743  0.2824 -0.1030  0.0199
 2286poe     o210142   0.709   6.831   4.648  0.2206 -0.3145  0.1988
 2286poe    c2310143   0.672   6.899   4.531  0.6491  0.2639  0.3948
 2286poe    c2310144   0.784   6.927   4.430  0.5415 -0.2008  0.1432
 2286poe     o210145   0.816   6.819   4.345 -0.2639  0.1242 -0.5897
 2286poe    c2310146   0.931   6.839   4.267  0.0803 -0.2456 -0.1794
 2286poe    c2310147   1.069   6.820   4.334 -0.1165  0.5396  0.4620
 2286poe     o210148   1.100   6.697   4.394  0.4870  0.4828  0.0381
 2286poe    c2310149   1.191   6.607   4.335  0.0760 -0.2141  0.4502
 2286poe    c2310150   1.263   6.510   4.431  0.2392 -1.1745 -0.6183
 2286poe     o210151   1.182   6.418   4.500 -0.2329 -0.1148  0.2651
 2286poe    c3110152   1.257   6.355   4.602 -0.0042 -0.5092 -0.1441
 2287poe    c3110153   2.459   6.391   6.594 -0.2950 -0.2598 -0.6475
 2287poe     o210154   2.462   6.250   6.593 -0.4686 -0.2837  0.4641
 2287poe    c2310155   2.534   6.185   6.695 -0.2641  0.0784  0.5529
 2287poe    c2310156   2.563   6.035   6.674 -0.0343  0.1305  0.4892
 2287poe     o210157   2.451   5.956   6.707 -0.1057 -0.2068 -0.5303
 2287poe    c2310158   2.481   5.819   6.720  0.0157 -0.1524 -0.2334
 2287poe    c2310159   2.359   5.724   6.728 -0.4728  0.4746 -0.1473
 2287poe     o210160   2.304   5.689   6.603 -0.5888  0.2777 -0.0416
 2287poe    c2310161   2.194   5.767   6.563  0.0179  0.8667 -0.5957
 2287poe    c2310162   2.147   5.708   6.428  0.1021 -0.1570 -0.1874
 2287poe     o210163   2.218   5.710   6.306  0.5377 -0.5635  0.0545
 2287poe    c3110164   2.218   5.842   6.257 -0.3123 -0.6201 -0.1202
 2288poe    c3110165   3.502   3.735   3.146  0.5220  0.4269  0.0915
 2288poe     o210166   3.453   3.605   3.170  0.6428  0.3672  0.0117
 2288poe    c2310167   3.383   3.611   3.292 -0.5954  0.1107 -0.6667
 2288poe    c2310168   3.258   3.524   3.313 -0.1741 -0.2033  0.5894
 2288poe     o210169   3.296   3.396   3.267  0.1688  0.0164  0.2524
 2288poe    c2310170   3.264   3.307   3.372  0.2613 -0.4292 -0.0959
 2288poe    c2310171   3.232   3.176   3.299  0.3738 -0.5530  0.0771
 2288poe     o210172   3.121   3.193   3.214  0.6612 -0.2879 -0.2488
 2288poe    c2310173   3.055   3.075   3.173  0.4947 -0.1448 -0.3968
 2288poe    c2310174   2.979   3.099   3.042  0.0467  1.3791  0.1123
 2288poe     o210175   3.055   3.131   2.927  0.5533  0.4990  0.1952
 2288poe    c3110176   2.972   3.198   2.836  0.8641  0.5253 -0.0698
 2289poe    c3110177   6.607   6.155   4.317 -0.8691 -0.5136  0.2251
 2289poe     o210178   6.605   6.014   4.317 -0.5091 -0.5215 -0.1486
 2289poe    c2310179   6.700   5.985   4.217  0.0545  0.2342  0.1568
 2289poe    c2310180   6.712   5.839   4.167 -0.3986  0.2002  0.1441
 2289poe     o210181   6.766   5.751   4.263  0.3400  0.3497 -0.1288
 2289poe    c2310182   6.700   5.627   4.250  0.2287  0.3397  0.5097
 2289poe    c2310183   6.714   5.535   4.373 -0.2148 -0.6388 -0.1639
 2289poe     o210184   6.651   5.580   4.491  0.2675 -0.3835 -0.0001
 2289poe    c2310185   6.653   5.470   4.578  0.0471 -0.3144  0.0921
 2289poe    c2310186   6.582   5.510   4.709  0.4218  0.1076  0.1671
 2289poe     o210187   6.459   5.571   4.675  0.1610 -0.2470  0.4683
 2289poe    c3110188   6.387   5.580   4.795  0.1106  0.5643  0.3788
 2290poe    c3110189   3.145   2.427   6.605  0.0774 -0.7414 -0.5341
 2290poe     o210190   3.280   2.389   6.620  0.2058 -0.0492  0.0809
 2290poe    c2310191   3.292   2.292   6.721 -0.3559 -0.2492 -0.0383
 2290poe    c2310192   3.438   2.242   6.727 -0.0545  0.5621 -0.5539
 2290poe     o210193   3.470   2.144   6.631  0.2690  0.5042 -0.3903
 2290poe    c2310194   3.475   2.173   6.493  0.8759 -0.1389 -0.5075
 2290poe    c2310195   3.440   2.049   6.409  0.1624 -0.3222  0.0546
 2290poe     o210196   3.546   1.956   6.413  0.5764  0.1647  0.5329
 2290poe    c2310197   3.583   1.927   6.280  0.1922  0.1667  0.4272
 2290poe    c2310198   3.676   1.807   6.255  0.0517  0.0302  0.5489
 2290poe     o210199   3.612   1.691   6.302 -0.1702  0.0033  0.1791
 2290poe    c3110200   3.693   1.579   6.273  0.4892  0.5682 -0.1617
 2291poe    c3110201   0.454   4.867   4.161  0.9300  0.3048  0.3542
 2291poe     o210202   0.477   4.925   4.287 -0.4731  0.5835  0.5012
 2291poe    c2310203   0.478   4.818   4.378  0.4825 -0.1355 -0.3317
 2291poe    c2310204   0.517   4.876   4.515 -0.5298 -0.7346  0.2229
 2291poe     o210205   0.429   4.970   4.572 -0.1744 -0.2292 -0.0630
 2291poe    c2310206   0.411   4.951   4.710 -0.3877 -0.6582 -0.1458
 2291poe    c2310207   0.312   5.046   4.780 -0.1741 -0.4430 -0.1325
 2291poe     o210208   0.349   5.182   4.767  0.5841 -0.5947  0.3927
 2291poe    c2310209   0.261   5.268   4.836 -0.0680 -0.5143 -0.5246
 2291poe    c2310210   0.306   5.414   4.823 -0.8041 -0.2166  0.1495
 2291poe     o210211   0.341   5.433   4.687 -0.3104  0.4702  0.3665
 2291poe    c3110212   0.268   5.537   4.626 -0.1158  0.6067  0.3659
 2292poe    c3110213   5.500   4.770   6.415 -0.4340  1.1150  0.2095
 2292poe     o210214   5.606   4.861   6.395  0.4637 -0.0454 -0.4718
 2292poe    c2310215   5.584   4.983   6.464  0.2460 -0.2052 -0.2579
 2292poe    c2310216   5.695   5.085   6.433  0.2422 -0.2454 -0.4064
 2292poe     o210217   5.823   5.052   6.481 -0.1226 -0.0646  0.7312
 2292poe    c2310218   5.928   5.141   6.448 -0.1199 -0.1160  0.5992
 2292poe    c2310219   6.057   5.084   6.509  0.2555  0.0916 -0.0005
 2292poe     o210220   6.067   4.961   6.440 -0.2190 -0.1152  0.2957
 2292poe    c2310221   6.186   4.891   6.471 -0.1039 -0.2241 -0.3860
 2292poe    c2310222   6.190   4.775   6.369 -0.0178 -0.0453 -0.5869
 2292poe     o210223   6.068   4.707   6.385  0.0395 -0.0642 -0.2013
 2292poe    c3110224   6.066   4.581   6.320 -0.1533 -0.1637 -0.0024
 2293poe    c3110225   3.853   3.808   2.412 -0.0852 -0.2509 -0.0651
 2293poe     o210226   3.949   3.751   2.498 -0.1805 -0.1178  0.1307
 2293poe    c2310227   4.060   3.838   2.503 -0.0076 -0.3199 -0.1525
 2293poe    c2310228   4.154   3.801   2.619  0.1435  0.0694 -0.1498
 2293poe     o210229   4.160   3.662   2.637 -0.4902  0.1078  0.3792
 2293poe    c2310230   4.286   3.612   2.675 -0.3473 -0.0959 -0.3498
 2293poe    c2310231   4.280   3.474   2.743  0.7340 -0.0195 -0.0846
 2293poe     o210232   4.245   3.357   2.672  0.2264 -0.1264  0.3329
 2293poe    c2310233   4.213   3.250   2.758 -0.2707 -0.1908  0.0666
 2293poe    c2310234   4.203   3.122   2.674  0.1524 -0.1815  0.0037
 2293poe     o210235   4.074   3.109   2.620  0.1000  0.4011 -0.0088
 2293poe    c3110236   4.054   2.974   2.584 -0.7937  0.3428  0.6890
 2294poe    c3110237   5.107   1.040   3.891  0.2010 -0.1012 -0.4721
 2294poe     o210238   5.232   1.105   3.904  0.1269 -0.1417  0.5068
 2294poe    c2310239   5.215   1.243   3.926  0.6270  0.0726 -0.3986
 2294poe    c2310240   5.350   1.316   3.922  0.6031  0.1003 -0.7094
 2294poe     o210241   5.423   1.227   4.004  0.9818  0.4296 -0.6857
 2294poe    c2310242   5.551   1.282   4.028  0.5157  1.1053  0.3467
 2294poe    c2310243   5.642   1.196   4.118 -0.2737 -0.0182  0.0952
 2294poe     o210244   5.662   1.063   4.077 -0.5332 -0.0173 -0.0382
 2294poe    c2310245   5.689   0.963   4.173 -0.5352  0.4032  0.4057
 2294poe    c2310246   5.704   0.826   4.104  0.0402  0.4994  0.3395
 2294poe     o210247   5.820   0.810   4.026 -0.3090  0.3623 -0.1599
 2294poe    c3110248   5.828   0.679   3.973 -0.0309  0.5028 -0.4693
 2295poe    c3110249   2.545   1.596   2.327  0.4933 -0.2466 -0.5704
 2295poe     o210250   2.674   1.599   2.384  0.1579 -0.5880  0.2334
 2295poe    c2310251   2.692   1.701   2.479  0.0089 -0.3627  0.0212
 2295poe    c2310252   2.831   1.684   2.544 -0.0897 -0.3395  0.2388
 2295poe     o210253   2.840   1.546   2.574  0.0937 -0.4068 -0.1272
 2295poe    c2310254   2.972   1.516   2.609  0.0173 -0.4243  0.1433
 2295poe    c2310255   2.985   1.370   2.655  0.9492 -0.5020 -0.3261
 2295poe     o210256   2.933   1.289   2.552 -0.1874  0.4840 -0.5539
 2295poe    c2310257   2.966   1.155   2.584 -0.4341  0.3858 -0.7018
 2295poe    c2310258   2.887   1.052   2.501 -0.5081 -0.0729 -0.0646
 2295poe     o210259   2.906   1.096   2.369  0.8264  0.3444  0.2436
 2295poe    c3110260   2.925   0.989   2.279 -0.0464  0.2987  0.1023
 2296poe    c3110261   3.505   3.202   1.846 -0.1480 -0.0890  0.0571
 2296poe     o210262   3.583   3.091   1.810 -0.5592 -0.1478 -0.6643
 2296poe    c2310263   3.669   3.133   1.706 -0.2833  0.5859 -0.1462
 2296poe    c2310264   3.745   3.015   1.643 -0.0496  0.6247  0.0589
 2296poe     o210265   3.805   2.935   1.742 -0.0424  0.6509  0.0755
 2296poe    c2310266   3.884   2.830   1.690 -0.0266  0.8944 -0.3944
 2296poe    c2310267   3.989   2.770   1.785 -0.8332  0.2861  0.1244
 2296poe     o210268   3.913   2.693   1.875 -0.3241 -0.0487  0.2751
 2296poe    c2310269   3.971   2.579   1.933  0.1037  0.1655  0.2685
 2296poe    c2310270   3.897   2.484   2.029  0.0860 -0.4524 -0.3514
 2296poe     o210271   3.959   2.357   2.021 -0.0185 -0.4942 -0.5190
 2296poe    c3110272   3.899   2.264   2.109 -0.2283  0.0180 -0.1134
 2297poe    c3110273   0.557   3.563   1.975 -0.4653 -0.0972  0.2405
 2297poe     o210274   0.615   3.681   2.026  0.4091 -0.0970 -0.7133
 2297poe    c2310275   0.630   3.768   1.916  0.0280 -0.1694 -0.8233
 2297poe    c2310276   0.634   3.914   1.963 -0.2916 -0.5296  0.3535
 2297poe     o210277   0.707   3.914   2.084  0.5159  0.2591 -0.1213
 2297poe    c2310278   0.716   4.044   2.138  0.1394  0.2875 -0.1194
 2297poe    c2310279   0.838   4.042   2.232  0.2183 -0.0691 -0.2283
 2297poe     o210280   0.809   3.936   2.321 -0.5659  0.5820  0.2999
 2297poe    c2310281   0.918   3.914   2.407 -0.0724 -0.2295 -0.5132
 2297poe    c2310282   0.919   3.773   2.467  0.0799 -0.0371 -0.0548
 2297poe     o210283   0.959   3.677   2.371 -0.4675  0.1387 -0.4605
 2297poe    c3110284   0.922   3.547   2.414  1.0212  0.0376  0.5803
 2298poe    c3110285   0.460   0.678   4.406 -0.1781 -0.3053 -0.1892
 2298poe     o210286   0.528   0.740   4.514 -0.8121  0.0966 -0.0131
 2298poe    c2310287   0.509   0.687   4.643 -0.6158  0.1333  0.0317
 2298poe    c2310288   0.545   0.771   4.767  0.0497  0.6931 -0.5331
 2298poe     o210289   0.682   0.786   4.795 -0.0906  0.3494  0.3633
 2298poe    c2310290   0.708   0.723   4.919 -0.0824 -0.3545  0.0066
 2298poe    c2310291   0.842   0.783   4.966 -0.1199 -0.1968 -0.0864
 2298poe     o210292   0.953   0.770   4.881  0.2112 -0.0869  0.3273
 2298poe    c2310293   1.013   0.643   4.892 -0.3046 -0.4091 -0.4899
 2298poe    c2310294   1.153   0.648   4.828  0.0716  0.3085  0.3647
 2298poe     o210295   1.136   0.697   4.697 -0.2346  0.1471  0.3437
 2298poe    c3110296   1.212   0.630   4.598 -0.0965  0.6570  0.1033
 2299poe    c3110297   7.255   6.016   1.894 -0.1487 -0.2379 -0.0811
 2299poe     o210298   7.271   5.893   1.826 -0.5667 -0.3838  0.0818
 2299poe    c2310299   7.377   5.812   1.870 -0.1301  0.0673 -0.1210
 2299poe    c2310300   7.342   5.683   1.947  0.1763 -0.0372 -0.1543
 2299poe     o210301   7.288   5.591   1.855 -0.1123 -0.2214  0.1964
 2299poe    c2310302   7.215   5.488   1.918 -0.9058  0.4420  0.3846
 2299poe    c2310303   7.139   5.404   1.813 -0.3744 -0.2820  0.5708
 2299poe     o210304   7.066   5.494   1.733 -0.1925 -0.2484  0.4415
 2299poe    c2310305   6.955   5.434   1.671  0.1251 -0.0802 -0.3069
 2299poe    c2310306   6.866   5.525   1.585 -0.2605 -0.2414 -0.0814
 2299poe     o210307   6.797   5.620   1.664  0.0013 -0.0064 -0.1361
 2299poe    c3110308   6.712   5.696   1.581  0.1662  0.0661 -0.2394
 2300poe    c3110309   1.299   4.411   3.820 -0.3156 -0.0647 -0.2269
 2300poe     o210310   1.418   4.451   3.756 -0.2485  0.3883  0.1734
 2300poe    c2310311   1.495   4.560   3.802  0.1571  0.4505 -0.6258
 2300poe    c2310312   1.552   4.545   3.944 -0.3016  0.6706 -0.4141
 2300poe     o210313   1.441   4.536   4.031 -0.1654 -0.0184 -0.3031
 2300poe    c2310314   1.478   4.525   4.166 -0.8673 -0.1445 -0.1197
 2300poe    c2310315   1.373   4.513   4.278 -0.6978 -0.0222  0.0530
 2300poe     o210316   1.263   4.601   4.271 -0.4659  0.2600 -0.0334
 2300poe    c2310317   1.166   4.581   4.171  0.6834  0.0643 -1.1326
 2300poe    c2310318   1.037   4.664   4.186  0.4836 -0.4106 -0.1478
 2300poe     o210319   0.969   4.629   4.305  0.3410  0.2758 -0.0235
 2300poe    c3110320   0.844   4.693   4.318  0.2193  0.1343 -0.4515
 2301poe    c3110321   3.276   2.851   2.607 -0.2005  0.2490 -0.5042
 2301poe     o210322   3.208   2.760   2.690  0.0121  0.2022 -0.3808
 2301poe    c2310323   3.078   2.799   2.728  0.1185  0.3907 -0.2095
 2301poe    c2310324   3.022   2.716   2.845  0.2019 -0.0532 -0.4835
 2301poe     o210325   3.066   2.585   2.817  0.6142  0.0064 -0.1282
 2301poe    c2310326   3.008   2.489   2.902  0.3121 -0.1118 -0.4631
 2301poe    c2310327   3.101   2.366   2.904  0.1034 -0.2672 -0.2811
 2301poe     o210328   3.235   2.402   2.927 -0.0075  0.0329 -0.1024
 2301poe    c2310329   3.302   2.289   2.979 -0.3250 -0.1133 -0.0077
 2301poe    c2310330   3.438   2.331   3.038 -0.0637 -0.0512 -0.6422
 2301poe     o210331   3.528   2.360   2.933 -0.2360  0.6132 -0.6134
 2301poe    c3110332   3.649   2.416   2.976 -0.1258  0.3617 -0.5948
 2302poe    c3110333   3.520   3.468   0.537  0.3095  0.5587  0.0873
 2302poe     o210334   3.480   3.373   0.633  0.1287  0.7375  0.1908
 2302poe    c2310335   3.348   3.330   0.611  0.1573  0.6397  0.2129
 2302poe    c2310336   3.306   3.221   0.711  0.1611  0.4756  0.0375
 2302poe     o210337   3.414   3.134   0.738 -0.1899  0.1101  0.2787
 2302poe    c2310338   3.369   3.015   0.798 -0.4987 -0.2342 -0.6158
 2302poe    c2310339   3.485   2.916   0.820 -0.5019 -0.0828  0.1399
 2302poe     o210340   3.568   2.964   0.923 -0.3332 -0.1700  0.0455
 2302poe    c2310341   3.664   2.867   0.958 -0.5573 -0.3500  0.1617
 2302poe    c2310342   3.622   2.760   1.060 -0.0767 -0.1658  0.5518
 2302poe     o210343   3.574   2.812   1.183  0.1142 -0.2929  0.6809
 2302poe    c3110344   3.677   2.810   1.279  0.4814 -0.5264  0.2866
 2303poe    c3110345   0.351   3.998   1.323 -0.3278  0.1097 -0.0115
 2303poe     o210346   0.465   4.040   1.250 -0.3094 -0.2902 -0.2143
 2303poe    c2310347   0.547   3.926   1.239  0.3273  0.1298  0.1347
 2303poe    c2310348   0.694   3.952   1.203  0.1577  0.8311 -0.0582
 2303poe     o210349   0.691   3.983   1.065  0.8316  0.6507 -0.1188
 2303poe    c2310350   0.767   3.902   0.979  1.3414  0.4637  0.4953
 2303poe    c2310351   0.759   3.961   0.837  0.5283 -0.0675  0.3084
 2303poe     o210352   0.775   4.101   0.845  0.6903 -0.0269 -0.6182
 2303poe    c2310353   0.742   4.175   0.729 -0.1260  0.0307 -0.3568
 2303poe    c2310354   0.804   4.311   0.764 -0.0915 -0.1753  0.4138
 2303poe     o210355   0.739   4.351   0.882 -0.0466  0.1882  0.3177
 2303poe    c3110356   0.713   4.489   0.894  0.4466  0.2877  0.3056
 2304poe    c3110357   5.492   5.903   3.690  0.7493  0.1990 -0.0853
 2304poe     o210358   5.456   6.015   3.612 -0.1925  0.2869  0.4524
 2304poe    c2310359   5.335   6.005   3.541  0.1314 -0.2819 -0.0323
 2304poe    c2310360   5.338   6.105   3.423  0.3961 -0.0368  0.1804
 2304poe     o210361   5.371   6.237   3.458 -0.0031  0.0910  0.0749
 2304poe    c2310362   5.392   6.314   3.341 -0.3107  0.0943  0.0197
 2304poe    c2310363   5.412   6.458   3.391 -0.0802 -0.1690  0.6973
 2304poe     o210364   5.496   6.454   3.505  0.5040  0.0884  0.2773
 2304poe    c2310365   5.548   6.580   3.540  0.3644  0.2459 -0.0708
 2304poe    c2310366   5.606   6.563   3.682  0.0732 -0.3009 -0.0139
 2304poe     o210367   5.726   6.489   3.685 -0.0267 -0.4367  0.6755
 2304poe    c3110368   5.839   6.572   3.673 -0.0644 -0.5681 -0.6622
 2305poe    c3110369   6.979   5.238   2.127 -0.0458 -0.0852  0.3785
 2305poe     o210370   6.856   5.284   2.076  0.0569 -0.3265 -0.0967
 2305poe    c2310371   6.870   5.416   2.027 -0.4978 -0.2173  0.0223
 2305poe    c2310372   6.729   5.473   2.010 -0.2289  0.2114 -0.8130
 2305poe     o210373   6.717   5.574   2.108 -0.0001 -0.1094 -0.4550
 2305poe    c2310374   6.590   5.631   2.127 -0.0888 -0.5541  0.3220
 2305poe    c2310375   6.556   5.746   2.030  0.0689 -0.3286  0.5328
 2305poe     o210376   6.638   5.852   2.075  0.0169 -0.4365  0.8845
 2305poe    c2310377   6.567   5.940   2.159  0.4024  0.4119  0.3308
 2305poe    c2310378   6.582   6.091   2.131 -0.1460  0.4045 -0.0215
 2305poe     o210379   6.696   6.143   2.197  0.1232 -0.6412  0.3626
 2305poe    c3110380   6.677   6.278   2.234  0.2192 -0.3506 -0.6032
 2306poe    c3110381   5.182   1.794   1.912 -0.2723  0.3647  0.1707
 2306poe     o210382   5.172   1.753   2.047 -0.0826  0.3535  0.1823
 2306poe    c2310383   5.297   1.702   2.086  0.0195  0.5493  0.1132
 2306poe    c2310384   5.316   1.649   2.229 -0.4882 -0.4170 -0.1691
 2306poe     o210385   5.263   1.744   2.318  1.0327  0.5759 -0.2787
 2306poe    c2310386   5.288   1.730   2.456 -0.2222 -0.2483 -0.1143
 2306poe    c2310387   5.227   1.606   2.522 -0.2557 -0.4661 -0.5520
 2306poe     o210388   5.290   1.481   2.501  0.0976 -0.4422  0.3227
 2306poe    c2310389   5.205   1.377   2.544  0.0446 -0.5491 -0.0448
 2306poe    c2310390   5.197   1.271   2.432 -0.3628 -0.4017 -0.1570
 2306poe     o210391   5.143   1.314   2.310 -0.3085 -0.0923 -0.0737
 2306poe    c3110392   5.166   1.206   2.222 -0.8422 -0.1846 -0.1047
 2307poe    c3110393   4.354   5.038   3.868 -0.5482 -0.0174  0.3079
 2307poe     o210394   4.247   4.947   3.858 -0.5003 -0.0784  0.3443
 2307poe    c2310395   4.187   4.948   3.730 -0.2869  0.4040  0.2454
 2307poe    c2310396   4.036   4.918   3.730 -0.1417 -0.3554 -0.0163
 2307poe     o210397   4.005   4.793   3.786 -0.0073 -0.2845  0.2162
 2307poe    c2310398   3.883   4.732   3.748 -0.2341  0.1588  0.2246
 2307poe    c2310399   3.859   4.707   3.598  0.8380  1.0553 -0.1113
 2307poe     o210400   3.953   4.620   3.538 -0.2964 -0.3539  0.0882
 2307poe    c2310401   3.898   4.561   3.423 -0.2025 -0.3121  0.0213
 2307poe    c2310402   3.983   4.542   3.296  0.0910 -0.4820  0.2440
 2307poe     o210403   3.917   4.478   3.190 -0.2885  0.8060 -0.3073
 2307poe    c3110404   3.995   4.419   3.089 -0.4877 -0.0841  0.0513
 2308poe    c3110405   0.276   0.204   4.654  0.5732 -0.4259 -0.5217
 2308poe     o210406   0.310   0.111   4.554 -0.3364 -0.9733 -0.3410
 2308poe    c2310407   0.447   0.082   4.567 -0.0833  0.2504 -0.2018
 2308poe    c2310408   0.492  -0.017   4.458 -0.0587 -0.1357  0.1575
 2308poe     o210409   0.497   0.023   4.323  0.2044 -0.2646  0.1277
 2308poe    c2310410   0.593   0.123   4.298  0.1649 -0.2006  0.2331
 2308poe    c2310411   0.712   0.049   4.235  0.5084  0.3326  0.2488
 2308poe     o210412   0.672   0.008   4.106 -0.5852 -0.3060  0.7794
 2308poe    c2310413   0.759  -0.095   4.063 -0.0772  0.3539  0.2065
 2308poe    c2310414   0.743  -0.144   3.918 -0.0598  0.3754  0.1972
 2308poe     o210415   0.616  -0.204   3.907  0.0196  0.1967  0.2523
 2308poe    c3110416   0.567  -0.210   3.775 -0.4225  0.9130  0.3794
 2309poe    c3110417   0.224   7.234   1.644  0.7441 -0.2806  0.1569
 2309poe     o210418   0.253   7.359   1.701 -0.0247 -0.0237  0.0003
 2309poe    c2310419   0.359   7.401   1.619 -0.3286 -0.3842 -0.5813
 2309poe    c2310420   0.339   7.550   1.583  0.2795 -0.1974 -0.1584
 2309poe     o210421   0.324   7.639   1.691 -0.0241  0.0425 -0.3987
 2309poe    c2310422   0.269   7.758   1.640  0.3228  0.3191 -0.1349
 2309poe    c2310423   0.256   7.873   1.742 -0.3832  0.2966 -0.1904
 2309poe     o210424   0.166   7.850   1.848 -0.2180  0.5053 -0.0024
 2309poe    c2310425   0.158   7.956   1.940 -0.3298  0.2564  0.2791
 2309poe    c2310426   0.036   7.950   2.033 -0.8725 -0.0426 -0.4460
 2309poe     o210427   0.011   7.824   2.091 -0.3234 -0.2967 -0.7512
 2309poe    c3110428  -0.053   7.845   2.215 -0.1159 -0.7740 -0.5624
 2310poe    c3110429   5.724   1.618   5.198 -0.1060  0.3417 -0.0427
 2310poe     o210430   5.641   1.505   5.182 -0.7952  0.7588  0.4674
 2310poe    c2310431   5.525   1.547   5.115 -0.7594  0.3225  0.1235
 2310poe    c2310432   5.409   1.447   5.131 -0.4635 -0.0934 -0.3268
 2310poe     o210433   5.420   1.319   5.073  0.1463 -0.1420 -0.1081
 2310poe    c2310434   5.311   1.254   5.134  0.4207 -0.3068  0.2124
 2310poe    c2310435   5.322   1.107   5.089 -0.7591 -0.3298 -0.0343
 2310poe     o210436   5.402   1.105   4.973 -0.4009  0.2338  0.2006
 2310poe    c2310437   5.379   0.992   4.892 -0.0060 -0.4489  1.0173
 2310poe    c2310438   5.488   0.970   4.785 -0.5873  0.0797  0.3074
 2310poe     o210439   5.531   1.092   4.730  0.0443 -0.0416  0.5253
 2310poe    c3110440   5.616   1.075   4.619  0.0922  0.1717  0.5288
 2311poe    c3110441   1.579   2.126   1.825 -0.3272  0.5336 -0.6177
 2311poe     o210442   1.677   2.107   1.725  0.1070 -0.3118 -0.0469
 2311poe    c2310443   1.771   2.008   1.757 -0.1513 -0.5180  0.0828
 2311poe    c2310444   1.857   2.005   1.628  0.6299  0.3461  0.5736
 2311poe     o210445   1.913   2.132   1.604  0.4248  0.2901 -0.2259
 2311poe    c2310446   1.976   2.146   1.479  0.5679  0.0838 -0.1779
 2311poe    c2310447   2.022   2.289   1.444  0.4518  0.1146 -0.2066
 2311poe     o210448   1.921   2.384   1.420  0.1310 -0.0726  0.3749
 2311poe    c2310449   1.957   2.520   1.421  0.2649 -0.1012 -0.0754
 2311poe    c2310450   1.818   2.582   1.395  0.5289  0.7046  0.4114
 2311poe     o210451   1.710   2.520   1.462 -0.2005  0.2376 -1.1616
 2311poe    c3110452   1.589   2.571   1.411 -0.3481  0.6327 -0.4179
 2312poe    c3110453   3.456   1.468   0.277  0.2806 -0.5395  0.3752
 2312poe     o210454   3.421   1.459   0.141  0.0864 -0.3909  0.4157
 2312poe    c2310455   3.480   1.348   0.077  0.6061  0.0203  0.1792
 2312poe    c2310456   3.522   1.368  -0.070 -0.0662 -0.0219 -0.0203
 2312poe     o210457   3.409   1.387  -0.153  0.1240  0.3601 -0.1938
 2312poe    c2310458   3.434   1.454  -0.275 -0.1625  0.1176 -0.3867
 2312poe    c2310459   3.396   1.603  -0.276 -0.3132  0.0799 -0.2472
 2312poe     o210460   3.267   1.633  -0.226  0.0752  0.3823  0.5925
 2312poe    c2310461   3.225   1.767  -0.233  0.0705  0.3681  0.3571
 2312poe    c2310462   3.292   1.860  -0.130  0.3078  0.6203 -0.0219
 2312poe     o210463   3.396   1.925  -0.200 -0.0807  0.6656 -0.5666
 2312poe    c3110464   3.512   1.945  -0.122 -0.2415  0.1956 -0.2014
 2313poe    c3110465   3.979   4.432   5.076  0.0002  0.0036 -0.1883
 2313poe     o210466   3.984   4.294   5.103 -0.0040  0.1010  0.3208
 2313poe    c2310467   4.113   4.270   5.154  0.0521 -0.1641  0.0542
 2313poe    c2310468   4.154   4.125   5.123  0.1939 -0.1357  0.1109
 2313poe     o210469   4.115   4.026   5.216 -0.1064 -0.0113  0.1164
 2313poe    c2310470   4.192   4.023   5.334  0.1959  0.0076 -0.0826
 2313poe    c2310471   4.130   3.925   5.434 -0.4384  0.0069 -0.4729
 2313poe     o210472   3.995   3.956   5.463 -0.2499  0.2864  0.1160
 2313poe    c2310473   3.943   3.876   5.567  0.0495  0.3466  0.3127
 2313poe    c2310474   3.791   3.884   5.592 -0.0403  0.0339 -0.1260
 2313poe     o210475   3.709   3.844   5.485  0.1122 -0.0572 -0.2101
 2313poe    c3110476   3.579   3.897   5.499  0.3272  0.3541  0.2758
 2314poe    c3110477   3.798   0.099   1.337 -0.1064 -0.5043  0.1264
 2314poe     o210478   3.673   0.132   1.282 -0.0097 -0.2268  0.0698
 2314poe    c2310479   3.597   0.179   1.391  0.2072 -0.0684  0.1521
 2314poe    c2310480   3.524   0.063   1.462 -0.1718  0.3223  0.4020
 2314poe     o210481   3.399   0.074   1.526 -0.5209  0.0692 -0.2298
 2314poe    c2310482   3.376  -0.049   1.593 -0.4123  0.3909  0.4071
 2314poe    c2310483   3.252  -0.057   1.683 -0.3601 -0.2694  0.4226
 2314poe     o210484   3.127  -0.021   1.628 -0.1269 -0.2630 -0.1013
 2314poe    c2310485   3.045   0.043   1.722  0.0639 -0.2645  0.0658
 2314poe    c2310486   2.925   0.114   1.657  0.0009 -0.0489  0.4119
 2314poe     o210487   2.959   0.236   1.595 -0.1133 -0.2073  0.0369
 2314poe    c3110488   2.978   0.353   1.670  0.8976  0.0566 -0.6125
 2315poe    c3110489   6.997   5.274   0.592 -0.1006  0.2052 -0.0036
 2315poe     o210490   6.931   5.157   0.636 -0.3528  0.4424  0.2563
 2315poe    c2310491   6.951   5.123   0.771  0.2122  0.4113  0.1669
 2315poe    c2310492   6.843   5.035   0.836 -0.1174  0.3324 -0.4809
 2315poe     o210493   6.813   4.913   0.773  0.2233 -0.0363  0.0637
 2315poe    c2310494   6.701   4.853   0.834 -0.4402  0.4707 -0.6487
 2315poe    c2310495   6.682   4.734   0.738  0.5796  0.1895 -0.5041
 2315poe     o210496   6.806   4.675   0.704  0.3637 -0.2863 -0.4671
 2315poe    c2310497   6.775   4.582   0.602 -0.3504  0.2689 -0.7645
 2315poe    c2310498   6.899   4.567   0.513  0.1462 -0.3241  0.0176
 2315poe     o210499   6.976   4.681   0.481  0.2747 -0.4263 -0.0417
 2315poe    c3110500   7.088   4.662   0.398  0.4842 -0.2164  0.1957
 2316poe    c3110501   5.250   6.652   2.855 -0.0702 -0.4691  0.2373
 2316poe     o210502   5.331   6.663   2.740 -0.0607  0.2835  0.3156
 2316poe    c2310503   5.458   6.617   2.779 -0.2165 -0.2865  0.1506
 2316poe    c2310504   5.568   6.585   2.676 -0.0073 -0.3301  0.3877
 2316poe     o210505   5.637   6.703   2.644 -0.5407 -0.2372 -0.4493
 2316poe    c2310506   5.741   6.668   2.555 -0.4527  0.1941 -0.5217
 2316poe    c2310507   5.847   6.778   2.536  0.1772 -0.2686  0.2525
 2316poe     o210508   5.784   6.889   2.477  0.4927 -0.4899 -0.5016
 2316poe    c2310509   5.888   6.985   2.478  0.0965 -0.0555 -0.2587
 2316poe    c2310510   5.840   7.119   2.420 -0.0040  0.0329  0.0264
 2316poe     o210511   5.798   7.185   2.537 -0.0014 -0.0625  0.0812
 2316poe    c3110512   5.740   7.313   2.524  0.0596 -0.0190  0.2311
 2317poe    c3110513   0.582   3.524   5.925 -0.2226 -0.2018 -0.1600
 2317poe     o210514   0.559   3.403   5.994  0.1947 -0.1423  0.0931
 2317poe    c2310515   0.428   3.357   5.969  0.1692  0.1896 -0.4116
 2317poe    c2310516   0.391   3.235   6.056  0.2362  0.3732 -0.1260
 2317poe     o210517   0.509   3.158   6.053  0.0759  0.1004  0.3977
 2317poe    c2310518   0.487   3.023   6.086  0.3595 -0.0321  0.0519
 2317poe    c2310519   0.608   2.929   6.066  0.1512 -0.4172  0.5730
 2317poe     o210520   0.721   3.012   6.086  0.1553 -0.3778  0.3888
 2317poe    c2310521   0.834   2.935   6.051 -0.2138 -0.9298  0.3950
 2317poe    c2310522   0.971   3.003   6.032 -0.7839  0.2335  0.3276
 2317poe     o210523   0.955   3.104   5.935 -0.4675 -0.3780 -0.3762
 2317poe    c3110524   1.072   3.177   5.905 -0.5172 -0.2089 -0.1619
 2318poe    c3110525   6.938   0.448   3.855 -0.1680 -0.0690 -0.0790
 2318poe     o210526   6.878   0.493   3.974 -0.3657  0.2838 -0.3086
 2318poe    c2310527   6.922   0.614   4.033  0.3474 -0.1407  0.0495
 2318poe    c2310528   6.828   0.671   4.141 -0.2414 -0.2732 -0.3908
 2318poe     o210529   6.697   0.698   4.094 -0.1046  0.2893 -0.4584
 2318poe    c2310530   6.627   0.753   4.202 -0.3338 -0.6155 -0.1424
 2318poe    c2310531   6.473   0.758   4.192 -0.3273  0.1065  0.0566
 2318poe     o210532   6.413   0.638   4.148 -0.5709  0.1888  0.1609
 2318poe    c2310533   6.289   0.616   4.210 -0.4290 -0.3226  0.2722
 2318poe    c2310534   6.308   0.519   4.328  0.1375  0.0574  0.4962
 2318poe     o210535   6.336   0.386   4.291  0.0508  0.2063 -0.1261
 2318poe    c3110536   6.267   0.282   4.356 -0.3828  0.8149  0.4000
 2319poe    c3110537   0.110   1.102   0.490  0.7271 -1.0093 -0.0349
 2319poe     o210538   0.202   1.208   0.505 -0.3791  0.0093 -0.3141
 2319poe    c2310539   0.148   1.321   0.441 -0.0685  0.1443 -0.3400
 2319poe    c2310540   0.214   1.453   0.484  0.6739 -0.2938 -0.1097
 2319poe     o210541   0.345   1.426   0.526  0.5320 -0.1557  0.4296
 2319poe    c2310542   0.432   1.536   0.516  0.3629 -0.0642 -0.0634
 2319poe    c2310543   0.558   1.477   0.583  0.3117  0.1734  0.2464
 2319poe     o210544   0.602   1.370   0.503  0.0934 -0.0060  0.3661
 2319poe    c2310545   0.741   1.345   0.507  0.0656 -0.2923 -0.2310
 2319poe    c2310546   0.777   1.318   0.360 -0.3677 -0.4109 -0.3179
 2319poe     o210547   0.707   1.203   0.318 -0.0404 -0.8359  0.2717
 2319poe    c3110548   0.739   1.177   0.183 -0.7963 -0.4177  0.0055
 2320poe    c3110549   1.755   3.328   3.507 -0.5287 -0.6430 -0.5500
 2320poe     o210550   1.765   3.231   3.609  0.0035 -0.0224  0.0016
 2320poe    c2310551   1.744   3.101   3.560  0.2197  0.0159 -0.1990
 2320poe    c2310552   1.707   3.007   3.677 -0.2581  0.5443  0.0797
 2320poe     o210553   1.600   3.036   3.763 -0.6170  0.0949 -0.2095
 2320poe    c2310554   1.572   2.927   3.848  0.2102 -0.1993 -0.3167
 2320poe    c2310555   1.437   2.940   3.919  0.2955 -0.0613 -0.1797
 2320poe     o210556   1.422   3.054   4.000  0.2858 -0.3888  0.2906
 2320poe    c2310557   1.291   3.057   4.053  0.1242 -0.3143 -0.1034
 2320poe    c2310558   1.284   3.001   4.197  0.1237  0.3685  0.1637
 2320poe     o210559   1.359   3.090   4.276  0.0930  0.6843 -0.1595
 2320poe    c3110560   1.364   3.034   4.405 -0.2075 -0.2190 -0.5374
 2321poe    c3110561   0.816   0.944   6.675 -0.3782 -0.1334  0.4017
 2321poe     o210562   0.812   0.807   6.705 -0.3640 -0.2618 -0.1777
 2321poe    c2310563   0.893   0.774   6.816 -0.2244 -0.2294 -0.2700
 2321poe    c2310564   0.933   0.625   6.805 -0.0709 -0.1971 -0.1396
 2321poe     o210565   0.812   0.553   6.807 -0.2043  0.0043 -0.7456
 2321poe    c2310566   0.851   0.418   6.793 -0.6859 -0.1547 -0.5424
 2321poe    c2310567   0.750   0.312   6.843 -0.3465 -0.1193  0.2275
 2321poe     o210568   0.726   0.302   6.982  0.1303 -0.0939  0.3151
 2321poe    c2310569   0.722   0.167   7.024  0.4979 -0.1757  0.0974
 2321poe    c2310570   0.726   0.155   7.177 -0.7379 -0.0194  0.1536
 2321poe     o210571   0.850   0.186   7.237 -0.4941 -0.1322 -0.2927
 2321poe    c3110572   0.868   0.121   7.361  0.6602  0.1103 -0.3280
 2322poe    c3110573   6.010   4.435   2.854 -0.2309  0.0851 -0.5648
 2322poe     o210574   5.987   4.321   2.934  0.4896  0.1164 -0.3016
 2322poe    c2310575   6.020   4.197   2.874  0.4909 -0.1661  0.2685
 2322poe    c2310576   5.975   4.077   2.959 -0.3056  0.0119  0.1111
 2322poe     o210577   5.934   3.973   2.873 -0.6354  0.4159 -0.2262
 2322poe    c2310578   5.862   3.881   2.953  0.8773 -0.6100 -0.0139
 2322poe    c2310579   5.833   3.756   2.868 -0.0987 -0.2259 -0.2511
 2322poe     o210580   5.962   3.713   2.833 -0.1219  0.1398 -0.7928
 2322poe    c2310581   5.942   3.598   2.754 -0.0099 -0.3749 -0.0884
 2322poe    c2310582   6.082   3.541   2.725  0.0559 -0.3572  0.1941
 2322poe     o210583   6.165   3.633   2.657 -0.4919 -0.3275 -0.4446
 2322poe    c3110584   6.295   3.580   2.644 -0.6141 -0.6633 -0.3228
 2323poe    c3110585   5.636   6.819   4.561 -0.1466 -0.2453 -0.6393
 2323poe     o210586   5.693   6.785   4.685 -0.3481  0.3052 -0.3900
 2323poe    c2310587   5.694   6.644   4.690  0.4441  0.3234  0.3231
 2323poe    c2310588   5.653   6.606   4.834  0.5439  0.1153  0.2975
 2323poe     o210589   5.731   6.700   4.904  0.7199  0.0113  0.2416
 2323poe    c2310590   5.736   6.677   5.044 -0.5524  0.6003  0.3995
 2323poe    c2310591   5.865   6.734   5.106  0.2061  0.0123 -0.5917
 2323poe     o210592   5.864   6.874   5.091  0.0898  0.0210 -0.5098
 2323poe    c2310593   5.959   6.932   5.178 -0.5254  0.3330 -0.0393
 2323poe    c2310594   5.970   7.084   5.152  0.3461  0.2269 -0.3119
 2323poe     o210595   6.019   7.124   5.026  0.6936 -0.1751 -0.3081
 2323poe    c3110596   5.988   7.259   5.000 -0.1201 -0.2990 -0.0169
 2324poe    c3110597   6.701   1.404   3.601  0.1961  0.1157 -0.0319
 2324poe     o210598   6.574   1.459   3.629  0.3123  0.0932  0.5494
 2324poe    c2310599   6.480   1.358   3.660 -0.1543  0.3005 -0.1702
 2324poe    c2310600   6.354   1.431   3.711  0.1006  0.3777  0.3512
 2324poe     o210601   6.384   1.516   3.819 -0.3612  0.3449  0.5033
 2324poe    c2310602   6.304   1.507   3.935  0.2232 -0.7627  0.8357
 2324poe    c2310603   6.302   1.378   4.019 -0.2029 -0.7481  0.8541
 2324poe     o210604   6.231   1.270   3.963 -0.2643  0.0699 -0.6826
 2324poe    c2310605   6.210   1.167   4.056  0.1262  0.6878  0.1034
 2324poe    c2310606   6.260   1.026   4.020 -0.3808  0.4392  0.3658
 2324poe     o210607   6.181   0.946   3.935  0.0316  0.1922  0.2126
 2324poe    c3110608   6.202   0.807   3.947  0.3308  0.1907 -0.3086
 2325poe    c3110609   0.566   6.471   3.972  0.3223  0.1517  0.1401
 2325poe     o210610   0.576   6.586   4.053  0.3937  0.3749 -0.1868
 2325poe    c2310611   0.524   6.688   3.971 -0.5269 -0.0322 -0.1203
 2325poe    c2310612   0.499   6.818   4.049 -0.3853 -0.0664 -0.0167
 2325poe     o210613   0.406   6.824   4.155 -0.1557 -0.3112  0.1973
 2325poe    c2310614   0.273   6.832   4.109 -0.1171  0.6655  0.2311
 2325poe    c2310615   0.175   6.886   4.214 -0.5418 -0.0084  0.1875
 2325poe     o210616   0.181   7.027   4.220 -0.1621 -0.0324  0.3826
 2325poe    c2310617   0.081   7.085   4.300  0.5758  0.5190  0.9189
 2325poe    c2310618   0.116   7.234   4.313  0.0129  0.7187  0.2174
 2325poe     o210619   0.146   7.282   4.183 -0.5211 -0.1000 -0.2173
 2325poe    c3110620   0.100   7.416   4.189 -0.7613 -0.1917  0.0553
 2326poe    c3110621   4.677   4.222   4.149 -0.5251 -0.1316  0.0254
 2326poe     o210622   4.801   4.274   4.104 -0.2432 -0.1111  0.8078
 2326poe    c2310623   4.915   4.211   4.156  0.1836  0.3268  0.4062
 2326poe    c2310624   5.046   4.248   4.084 -0.2138  0.2472 -0.3602
 2326poe     o210625   5.094   4.375   4.121 -0.1576  0.1851 -0.2205
 2326poe    c2310626   5.102   4.467   4.015 -0.4017  0.3400 -0.1059
 2326poe    c2310627   5.100   4.604   4.086  0.1831  0.1239  0.3364
 2326poe     o210628   5.190   4.611   4.194  0.5370  0.3321  0.0330
 2326poe    c2310629   5.190   4.740   4.251 -0.1018  0.3334  0.0465
 2326poe    c2310630   5.239   4.751   4.396  0.0396  0.5961 -0.0210
 2326poe     o210631   5.169   4.678   4.495  0.3076 -0.2294 -0.4388
 2326poe    c3110632   5.192   4.732   4.623  0.2681 -0.8320 -0.1756
 2327poe    c3110633   6.398   5.039   5.609 -0.5939 -0.0254 -0.5534
 2327poe     o210634   6.537   5.054   5.596 -0.5686 -0.1952 -0.4830
 2327poe    c2310635   6.598   4.929   5.573 -0.0358  0.0608 -0.4939
 2327poe    c2310636   6.741   4.923   5.518  0.5233 -0.0119  0.9314
 2327poe     o210637   6.750   5.001   5.401 -0.1662 -0.3219  0.6719
 2327poe    c2310638   6.874   4.977   5.339 -0.6620 -0.0589 -0.4557
 2327poe    c2310639   6.863   5.019   5.191 -0.1236 -0.0496 -0.4967
 2327poe     o210640   6.829   5.155   5.180 -0.3813 -0.0124  0.6105
 2327poe    c2310641   6.817   5.203   5.048  0.7451  0.1616  0.5561
 2327poe    c2310642   6.748   5.340   5.059 -0.3815 -0.3351 -0.1207
 2327poe     o210643   6.626   5.347   5.129 -0.3163  0.1999 -0.0570
 2327poe    c3110644   6.547   5.458   5.093  0.5681  0.6551 -0.6280
 2328poe    c3110645   5.651   6.698   4.224 -0.4727  0.6810 -0.2175
 2328poe     o210646   5.562   6.591   4.245  0.3546 -0.0877 -0.5356
 2328poe    c2310647   5.531   6.563   4.111 -0.2847 -0.2541 -0.3567
 2328poe    c2310648   5.499   6.412   4.098  0.0240 -0.3634  0.1245
 2328poe     o210649   5.610   6.326   4.102 -0.1704 -0.6316 -0.2523
 2328poe    c2310650   5.568   6.201   4.051 -0.5804 -0.6712  0.1830
 2328poe    c2310651   5.668   6.088   4.019  0.1540 -0.0744  0.3514
 2328poe     o210652   5.720   6.104   3.889 -0.5754 -0.2711  0.0291
 2328poe    c2310653   5.824   6.014   3.860 -0.1804  0.1672  0.0719
 2328poe    c2310654   5.958   6.069   3.807 -0.1974 -0.2053 -0.3627
 2328poe     o210655   5.935   6.110   3.674  0.1404  0.3585 -0.2503
 2328poe    c3110656   6.065   6.133   3.624  0.5591 -0.0108  0.6543
 2329poe    c3110657   2.458   6.760   0.598 -0.2368 -0.0608 -0.8002
 2329poe     o210658   2.462   6.898   0.627  0.0089 -0.2134 -0.1040
 2329poe    c2310659   2.424   6.984   0.522  0.2520 -0.0932 -0.0936
 2329poe    c2310660   2.415   7.133   0.562 -0.0275 -0.2843  0.5713
 2329poe     o210661   2.530   7.192   0.617  0.2207 -0.3799  0.1588
 2329poe    c2310662   2.494   7.311   0.682  0.6977 -0.0365 -0.1979
 2329poe    c2310663   2.630   7.376   0.716  0.3878  0.4665  0.0945
 2329poe     o210664   2.717   7.283   0.777 -0.1662  0.1642  0.4359
 2329poe    c2310665   2.833   7.352   0.818 -0.0339  0.0371  0.2763
 2329poe    c2310666   2.900   7.275   0.934  0.3739  0.0802  0.0701
 2329poe     o210667   2.857   7.142   0.921  0.2688  0.1384 -0.1778
 2329poe    c3110668   2.847   7.058   1.034 -0.1282 -0.2020 -0.4585
 2330poe    c3110669   6.319   2.090   7.032 -0.0026 -0.2907 -0.9773
 2330poe     o210670   6.184   2.085   6.993 -0.3106 -0.2592  0.0530
 2330poe    c2310671   6.183   1.976   6.904  0.2913 -0.5041  0.3404
 2330poe    c2310672   6.041   1.966   6.844  0.2666  0.1664  0.2756
 2330poe     o210673   5.998   2.079   6.773 -0.2625 -0.0819  0.1979
 2330poe    c2310674   5.903   2.035   6.678 -0.2984  0.1577  0.1195
 2330poe    c2310675   5.940   2.118   6.554  0.2780 -0.5835 -0.2153
 2330poe     o210676   5.963   2.247   6.608  0.8969 -0.4408 -0.7986
 2330poe    c2310677   5.965   2.366   6.533 -0.0108  0.1384  0.0720
 2330poe    c2310678   6.059   2.376   6.412  0.1805  0.1290  0.2182
 2330poe     o210679   6.190   2.396   6.459  0.1771  0.5560  0.0594
 2330poe    c3110680   6.272   2.421   6.347 -0.0240 -0.5661 -0.3497
 2331poe    c3110681   0.672   6.642   3.522  0.0648 -0.2727 -0.5672
 2331poe     o210682   0.706   6.728   3.416 -0.4017 -0.3002 -0.7417
 2331poe    c2310683   0.845   6.751   3.415 -0.3587 -0.4866  0.1047
 2331poe    c2310684   0.928   6.656   3.327  0.2853  0.0778  0.0926
 2331poe     o210685   0.925   6.523   3.374  0.2486 -0.1240 -0.4710
 2331poe    c2310686   0.944   6.417   3.284  0.0673 -0.2996 -0.3035
 2331poe    c2310687   1.045   6.316   3.342  0.2336 -0.0447 -0.1468
 2331poe     o210688   1.162   6.380   3.387  0.0790 -0.2335  0.5269
 2331poe    c2310689   1.258   6.284   3.427  0.3308 -0.4123 -0.4934
 2331poe    c2310690   1.400   6.343   3.428  0.0698  0.2281 -0.2830
 2331poe     o210691   1.393   6.475   3.476  0.1848  0.1107  0.0651
 2331poe    c3110692   1.510   6.553   3.487  0.4349 -0.2351 -0.1312
 2332poe    c3110693   1.954   2.827   1.109 -0.0813 -0.4577  0.1805
 2332poe     o210694   2.031   2.898   1.013 -0.7644 -0.0353 -0.0646
 2332poe    c2310695   2.108   2.996   1.078  0.3159 -0.5678 -0.5252
 2332poe    c2310696   2.177   3.095   0.981 -0.2032  0.2019 -0.1206
 2332poe     o210697   2.241   3.041   0.868  0.0726  0.2527  0.0109
 2332poe    c2310698   2.273   3.125   0.758 -0.1562  0.1989 -0.0978
 2332poe    c2310699   2.352   3.049   0.650  0.4165 -0.9338  1.0890
 2332poe     o210700   2.263   2.963   0.583 -0.0223  0.2171  0.1563
 2332poe    c2310701   2.323   2.896   0.474 -0.2520  0.3182 -0.0318
 2332poe    c2310702   2.209   2.828   0.396 -0.1506  0.0752  0.0305
 2332poe     o210703   2.094   2.814   0.476  0.2905  0.1798  0.6901
 2332poe    c3110704   2.014   2.715   0.415 -0.2826  1.0627 -0.0232
 2333poe    c3110705   7.077   3.554   6.249  0.1874  0.8090 -0.7039
 2333poe     o210706   7.156   3.527   6.363 -0.3927  0.1836 -0.4466
 2333poe    c2310707   7.083   3.556   6.481 -0.1594  0.3889 -0.3526
 2333poe    c2310708   7.168   3.515   6.602 -0.1948  0.2771 -0.3663
 2333poe     o210709   7.300   3.557   6.574 -0.0224 -0.0028  0.0155
 2333poe    c2310710   7.395   3.537   6.676 -0.2730  0.2574  0.3032
 2333poe    c2310711   7.525   3.605   6.629 -0.1567  0.2387  0.5955
 2333poe     o210712   7.550   3.743   6.615 -0.0489  0.2036  0.4352
 2333poe    c2310713   7.681   3.769   6.570 -0.0123 -0.2764  0.2550
 2333poe    c2310714   7.700   3.922   6.567 -0.2334 -0.2532 -0.1412
 2333poe     o210715   7.653   4.004   6.671  0.0124  0.1029 -0.3107
 2333poe    c3110716   7.524   4.057   6.651  0.1141  0.6115  0.3346
 2334poe    c3110717   2.776   1.089   3.595  0.0101  0.0248 -0.1057
 2334poe     o210718   2.825   1.023   3.709 -0.2739  0.4445  0.2613
 2334poe    c2310719   2.839   1.109   3.820 -0.0024  0.1845  0.4329
 2334poe    c2310720   2.753   1.057   3.937 -0.3158  0.1856  0.2047
 2334poe     o210721   2.781   0.948   4.022 -0.7476  0.1158  0.2629
 2334poe    c2310722   2.694   0.952   4.132 -0.1879  0.0639  0.7131
 2334poe    c2310723   2.728   0.849   4.241 -0.4315 -0.4262  0.3313
 2334poe     o210724   2.708   0.717   4.197 -0.3599 -0.3573  0.0926
 2334poe    c2310725   2.688   0.626   4.304 -0.0684 -0.1515  0.3235
 2334poe    c2310726   2.662   0.488   4.241 -0.0485  0.2119 -0.4937
 2334poe     o210727   2.770   0.449   4.159  0.1324 -0.1647 -0.0743
 2334poe    c3110728   2.796   0.312   4.180  0.7185 -0.0336  0.0782
 2335poe    c3110729   3.373   4.442   0.847  0.0524 -0.9576  1.1897
 2335poe     o210730   3.306   4.560   0.884  0.4988 -0.1820 -0.4011
 2335poe    c2310731   3.166   4.562   0.866  0.4044 -0.2171  0.3018
 2335poe    c2310732   3.101   4.701   0.850  0.1112 -0.3509  0.3089
 2335poe     o210733   3.058   4.770   0.965 -0.1067  0.2031 -0.1063
 2335poe    c2310734   2.948   4.718   1.036 -0.0427 -0.2631 -0.3484
 2335poe    c2310735   2.894   4.806   1.150  0.0817  0.1150 -0.5784
 2335poe     o210736   2.983   4.832   1.256 -0.3227  0.0025 -0.2086
 2335poe    c2310737   2.940   4.940   1.336 -0.1502  0.0601 -0.1958
 2335poe    c2310738   3.027   4.959   1.462 -0.1745 -0.1517 -0.1480
 2335poe     o210739   3.160   4.993   1.430 -0.2923  0.1821 -0.2878
 2335poe    c3110740   3.223   5.065   1.533 -0.2856  0.0443 -0.1946
 2336poe    c3110741   6.357   3.041   1.674  0.5177  0.0949  1.0734
 2336poe     o210742   6.231   3.016   1.734 -0.0569 -0.2652 -0.2533
 2336poe    c2310743   6.144   3.124   1.707  0.3192  0.1753  0.2830
 2336poe    c2310744   6.022   3.140   1.800  0.0793  0.4190 -0.0703
 2336poe     o210745   5.929   3.036   1.781  0.2268  0.3043 -0.1730
 2336poe    c2310746   5.851   3.024   1.898  0.3072 -0.1341 -0.1620
 2336poe    c2310747   5.785   2.886   1.886 -0.2817  0.2228 -1.1755
 2336poe     o210748   5.872   2.777   1.910 -0.8925 -0.0864 -0.3262
 2336poe    c2310749   5.800   2.663   1.949 -0.3903 -0.5331 -0.6890
 2336poe    c2310750   5.901   2.548   1.965  0.0542 -0.0650 -0.1252
 2336poe     o210751   6.005   2.595   2.049  0.1597 -0.0340 -0.2726
 2336poe    c3110752   6.071   2.487   2.109  0.7416  0.1804 -0.5225
 2337poe    c3110753   2.034   6.691   5.875  0.9150  0.5158  0.4601
 2337poe     o210754   1.943   6.662   5.978  0.1184  0.1731 -0.3265
 2337poe    c2310755   1.996   6.703   6.102  0.2456 -0.8053 -0.0512
 2337poe    c2310756   1.932   6.628   6.220  0.2210 -0.2749  0.2744
 2337poe     o210757   1.802   6.672   6.254  0.1416 -0.0812 -0.2650
 2337poe    c2310758   1.788   6.670   6.395 -0.1870  0.5463 -0.2882
 2337poe    c2310759   1.645   6.703   6.442 -0.1442  0.1867  0.0935
 2337poe     o210760   1.611   6.839   6.439 -0.8984  0.0012 -0.1743
 2337poe    c2310761   1.507   6.872   6.529 -0.9533 -0.2294 -0.1550
 2337poe    c2310762   1.445   7.009   6.498  0.2147  0.3499  0.0244
 2337poe     o210763   1.383   7.017   6.372 -0.0135 -0.3182  0.0893
 2337poe    c3110764   1.378   7.149   6.321  0.5239 -0.1641  0.4321
 2338poe    c3110765   1.482   6.904   4.923  0.6132 -0.7177 -0.1256
 2338poe     o210766   1.524   6.976   5.037 -0.0783  0.2347 -0.4621
 2338poe    c2310767   1.628   6.905   5.101 -0.7241 -0.1824  0.1425
 2338poe    c2310768   1.700   7.013   5.184 -0.4635  0.0246 -0.3501
 2338poe     o210769   1.699   7.138   5.120  0.7112  0.1097 -0.2329
 2338poe    c2310770   1.764   7.248   5.180 -0.6219  0.5965  0.3502
 2338poe    c2310771   1.650   7.324   5.251 -0.3808  1.0145  0.2945
 2338poe     o210772   1.549   7.330   5.153  0.0474  0.2574 -0.2041
 2338poe    c2310773   1.429   7.384   5.206  0.3266  0.9657 -0.2868
 2338poe    c2310774   1.313   7.338   5.116  0.0861 -0.2595  0.6219
 2338poe     o210775   1.366   7.229   5.043 -0.3456  0.2983 -0.5608
 2338poe    c3110776   1.270   7.171   4.957 -0.5508 -0.4497  0.1471
 2339poe    c3110777   2.905   0.770   0.572  0.0871  0.1862  0.4300
 2339poe     o210778   3.010   0.836   0.505  0.3387 -0.9188 -0.2810
 2339poe    c2310779   3.133   0.800   0.563  0.1777 -0.5457  0.2917
 2339poe    c2310780   3.238   0.891   0.496 -0.3415 -0.0963  0.0790
 2339poe     o210781   3.236   1.022   0.547 -0.2412 -0.1122  0.1238
 2339poe    c2310782   3.309   1.110   0.465 -0.4031 -0.2308 -0.1461
 2339poe    c2310783   3.311   1.254   0.518 -0.7780 -0.1926 -0.2305
 2339poe     o210784   3.180   1.307   0.515 -0.6722  0.0580 -0.4879
 2339poe    c2310785   3.169   1.431   0.580  0.1416 -0.0168 -0.1905
 2339poe    c2310786   3.038   1.511   0.564  0.2135  0.0647 -0.3758
 2339poe     o210787   3.034   1.589   0.447  0.4290  0.0368 -0.4023
 2339poe    c3110788   2.982   1.720   0.451  0.3889  0.0069  0.1533
 2340poe    c3110789   1.145   0.773   1.256  0.2667  0.2066 -0.6382
 2340poe     o210790   1.269   0.741   1.313 -0.2194 -0.1201  0.2612
 2340poe    c2310791   1.373   0.803   1.241 -0.5777  0.3998  0.1881
 2340poe    c2310792   1.517   0.759   1.274 -0.8827 -0.5045  0.3248
 2340poe     o210793   1.563   0.808   1.398  0.0232 -0.0222 -0.1979
 2340poe    c2310794   1.703   0.793   1.407  0.0694  0.5834  0.1832
 2340poe    c2310795   1.788   0.902   1.474  0.3656  0.0949  0.6071
 2340poe     o210796   1.798   1.028   1.412 -0.3071  0.1197  0.5456
 2340poe    c2310797   1.920   1.095   1.434 -0.1199  0.1093 -0.4450
 2340poe    c2310798   1.898   1.234   1.370 -0.1982  0.1368 -0.3582
 2340poe     o210799   1.773   1.288   1.407  0.0416  0.5439 -0.1435
 2340poe    c3110800   1.789   1.428   1.412  0.5983  0.4964 -0.5007
 2341poe    c3110801   5.103   2.727   6.150  0.1550 -0.2626 -0.3650
 2341poe     o210802   5.030   2.619   6.205 -0.0388  0.3087  0.5377
 2341poe    c2310803   4.943   2.571   6.104  0.1093  0.0971  0.5082
 2341poe    c2310804   4.863   2.446   6.145 -0.1339 -0.1633 -0.7437
 2341poe     o210805   4.935   2.328   6.173 -0.3552 -0.3256 -0.8493
 2341poe    c2310806   4.864   2.239   6.256 -0.0213 -0.1537 -0.3705
 2341poe    c2310807   4.939   2.111   6.296 -0.3716  0.0277  0.9213
 2341poe     o210808   4.996   2.040   6.188 -0.5174  0.1573  0.7576
 2341poe    c2310809   4.902   1.974   6.107 -0.1578 -0.1496  0.5859
 2341poe    c2310810   4.963   1.884   5.998 -0.1213  0.0566  0.4371
 2341poe     o210811   5.080   1.953   5.959 -0.2203 -0.3750 -0.6691
 2341poe    c3110812   5.148   1.884   5.857  0.1904 -1.1064  0.0903
 2342poe    c3110813   3.043   6.660   2.193  0.0384 -0.3829  0.2610
 2342poe     o210814   2.974   6.657   2.315  0.2027 -0.5605  0.3489
 2342poe    c2310815   3.037   6.689   2.437 -0.0884  0.4042  0.2542
 2342poe    c2310816   2.927   6.722   2.539 -0.4745 -0.4956  0.1405
 2342poe     o210817   2.854   6.839   2.508  0.0845 -0.1173  0.2225
 2342poe    c2310818   2.869   6.955   2.586  0.0568 -0.4414  0.7219
 2342poe    c2310819   2.781   6.964   2.712 -0.1114  0.4356  0.5549
 2342poe     o210820   2.645   6.947   2.678  0.0844 -0.3777  0.1411
 2342poe    c2310821   2.576   6.876   2.778  0.4019 -0.2451  0.4609
 2342poe    c2310822   2.425   6.847   2.763  0.3151  0.4099  0.0080
 2342poe     o210823   2.358   6.938   2.847 -0.0760  0.1833 -0.0570
 2342poe    c3110824   2.219   6.915   2.834  0.0981 -0.9429  0.0271
 2343poe    c3110825   3.563   4.689   6.191 -0.0268 -0.0864  0.4712
 2343poe     o210826   3.646   4.737   6.087  0.0868 -0.3384  0.4469
 2343poe    c2310827   3.610   4.663   5.973 -0.3059  0.2136  0.2103
 2343poe    c2310828   3.667   4.714   5.840 -0.4966 -0.4327 -0.1252
 2343poe     o210829   3.600   4.828   5.792  0.3560  0.0072 -0.3021
 2343poe    c2310830   3.690   4.929   5.751  0.3582  0.0468 -0.2001
 2343poe    c2310831   3.646   5.024   5.639  0.4028  0.1262 -0.1490
 2343poe     o210832   3.711   5.144   5.604  0.5033 -0.1227 -0.8240
 2343poe    c2310833   3.725   5.236   5.710  0.3645 -0.4067 -0.5591
 2343poe    c2310834   3.757   5.373   5.647  0.4309  0.0238  0.3990
 2343poe     o210835   3.854   5.365   5.545  0.0842 -0.4950  0.1045
 2343poe    c3110836   3.895   5.496   5.513  0.6133 -0.6353  0.1917
 2344poe    c3110837   2.976   6.957   6.426 -0.2666 -0.3840  0.2685
 2344poe     o210838   2.887   7.067   6.430 -0.2470 -0.3607  0.0598
 2344poe    c2310839   2.756   7.036   6.471 -0.4175  0.0839 -0.1428
 2344poe    c2310840   2.673   7.161   6.437  0.3307  0.4446 -0.6781
 2344poe     o210841   2.706   7.285   6.496  0.5176  0.1064 -0.0533
 2344poe    c2310842   2.729   7.302   6.634  0.2231 -0.1193  0.0242
 2344poe    c2310843   2.745   7.455   6.636  0.1924 -0.1163  0.0455
 2344poe     o210844   2.867   7.484   6.570  0.2830  0.1220  0.3126
 2344poe    c2310845   2.946   7.590   6.619  0.4517  0.0176  0.2672
 2344poe    c2310846   3.073   7.623   6.539 -0.0784  0.9129 -0.2170
 2344poe     o210847   3.039   7.681   6.415  0.2504  0.3384 -0.5802
 2344poe    c3110848   3.165   7.722   6.366  0.5887 -0.1094 -0.0968
 2345poe    c3110849   4.364   1.564   6.443 -0.1842  0.1348 -0.0928
 2345poe     o210850   4.430   1.653   6.530 -0.8455  0.1702  0.3768
 2345poe    c2310851   4.361   1.775   6.515 -0.0928  0.5312 -0.2556
 2345poe    c2310852   4.343   1.841   6.653  0.1676 -0.5655  0.3144
 2345poe     o210853   4.458   1.840   6.736  0.3700 -0.3101  0.0375
 2345poe    c2310854   4.564   1.930   6.709  0.2207 -0.1046  0.1293
 2345poe    c2310855   4.681   1.911   6.807  0.3042  0.0361  0.0553
 2345poe     o210856   4.703   1.772   6.813  0.0940  0.0101  0.2349
 2345poe    c2310857   4.795   1.742   6.915 -0.2376 -0.2185  0.4672
 2345poe    c2310858   4.841   1.595   6.919  0.2488 -0.0800  0.1061
 2345poe     o210859   4.938   1.564   6.822 -0.3351 -0.0938 -0.4823
 2345poe    c3110860   4.967   1.426   6.830  0.4605  0.1161  0.4548
 2346poe    c3110861   6.402   3.440   1.912  0.0402 -0.3573 -0.3023
 2346poe     o210862   6.352   3.434   2.044 -0.1117 -0.3700 -0.3612
 2346poe    c2310863   6.429   3.340   2.115 -0.3804  0.0067  0.4425
 2346poe    c2310864   6.384   3.317   2.260 -0.2540 -0.1763  0.4535
 2346poe     o210865   6.244   3.305   2.269 -0.3313 -0.0743 -0.5077
 2346poe    c2310866   6.223   3.264   2.402  0.7639  0.3044 -0.2117
 2346poe    c2310867   6.108   3.163   2.412  0.5521  0.5728  0.0853
 2346poe     o210868   6.006   3.228   2.339  0.3602 -0.0128 -0.1765
 2346poe    c2310869   5.908   3.133   2.305  0.0137  0.1835  0.2737
 2346poe    c2310870   5.790   3.199   2.229 -0.0741 -0.6830 -0.3549
 2346poe     o210871   5.847   3.278   2.128 -0.1496 -0.4910 -0.2462
 2346poe    c3110872   5.741   3.347   2.065  0.3081 -0.2555 -0.7734
 2347poe    c3110873   6.059   5.436   5.415 -0.4787 -0.5267  0.3794
 2347poe     o210874   6.032   5.513   5.530 -0.2177  0.3768 -0.1634
 2347poe    c2310875   5.973   5.421   5.618 -0.4990  0.3816 -0.3441
 2347poe    c2310876   5.963   5.467   5.765 -0.0193  0.4948 -0.3438
 2347poe     o210877   5.860   5.558   5.798 -0.1301  0.5491 -0.8266
 2347poe    c2310878   5.736   5.491   5.798 -0.0813  0.4321  0.4392
 2347poe    c2310879   5.621   5.579   5.746 -0.0979 -0.0473 -0.3528
 2347poe     o210880   5.598   5.696   5.821  0.4477 -0.0229 -0.2170
 2347poe    c2310881   5.516   5.786   5.751  0.2837 -0.2243 -0.2866
 2347poe    c2310882   5.531   5.914   5.836 -0.2318  0.0285 -0.5672
 2347poe     o210883   5.657   5.975   5.819  0.0203 -0.2527  0.2452
 2347poe    c3110884   5.673   6.066   5.925  0.5428 -0.2592  0.1753
 2348poe    c3110885   4.317   4.697   2.105 -0.6542  0.6666 -0.0120
 2348poe     o210886   4.215   4.647   2.189 -0.0381  0.2198  0.4770
 2348poe    c2310887   4.249   4.545   2.280  0.2370  0.4082  0.5880
 2348poe    c2310888   4.357   4.587   2.381  0.4204  0.3098  0.4340
 2348poe     o210889   4.315   4.693   2.463 -0.2021  0.3753  0.0367
 2348poe    c2310890   4.420   4.711   2.556 -0.0991 -0.3976  0.0706
 2348poe    c2310891   4.396   4.814   2.668 -0.8957 -0.2044 -0.2726
 2348poe     o210892   4.331   4.759   2.781 -0.2435  0.1436  0.2767
 2348poe    c2310893   4.320   4.866   2.872  0.0828  0.2403  0.2032
 2348poe    c2310894   4.247   4.830   3.003 -0.8696  0.8615 -0.1450
 2348poe     o210895   4.113   4.788   2.989 -0.3683 -0.9354  0.2245
 2348poe    c3110896   4.038   4.842   3.096 -0.1977  0.0723 -0.1481
 2349poe    c3110897   1.200   6.727   7.139 -0.1945 -0.4753  0.0794
 2349poe     o210898   1.104   6.766   7.044  0.0244  0.7941  0.3564
 2349poe    c2310899   1.145   6.780   6.910  0.1500  0.0763  0.3166
 2349poe    c2310900   1.020   6.760   6.823  0.3173  1.2483 -0.2097
 2349poe     o210901   0.920   6.836   6.886 -0.4503 -0.1849  0.3487
 2349poe    c2310902   0.787   6.832   6.837 -0.2532  0.0606 -0.2206
 2349poe    c2310903   0.717   6.946   6.914 -0.6940 -0.4019  0.0688
 2349poe     o210904   0.730   6.927   7.053  0.1282 -0.2251  0.0244
 2349poe    c2310905   0.612   6.980   7.109  0.0115 -0.1586 -0.2829
 2349poe    c2310906   0.632   6.978   7.262  0.5476 -0.6356 -0.3571
 2349poe     o210907   0.698   7.097   7.298  0.1683 -0.5345  0.0061
 2349poe    c3110908   0.659   7.123   7.431 -0.0357  0.3417 -0.2122
 2350poe    c3110909   4.299   6.239   0.618  0.0891 -0.1986  0.2841
 2350poe     o210910   4.407   6.149   0.609  0.0500 -0.2067 -0.1201
 2350poe    c2310911   4.527   6.211   0.650 -0.0544  0.3134 -0.5935
 2350poe    c2310912   4.664   6.142   0.646 -0.3446 -0.2806 -0.4285
 2350poe     o210913   4.714   6.122   0.515  0.3898 -0.5249 -0.1156
 2350poe    c2310914   4.766   6.243   0.465  0.0398 -0.3023  0.0564
 2350poe    c2310915   4.773   6.232   0.311  0.5642  0.4090  0.0271
 2350poe     o210916   4.838   6.110   0.286 -0.5264 -0.2380  0.3090
 2350poe    c2310917   4.878   6.114   0.151 -0.7666  0.3086  0.2529
 2350poe    c2310918   4.806   6.011   0.061 -0.1312 -0.1402  0.2524
 2350poe     o210919   4.849   5.880   0.090 -0.3590 -0.2748 -0.0182
 2350poe    c3110920   4.870   5.793  -0.019  0.1358  0.2632 -0.3603
 2351poe    c3110921   6.597   7.204   3.521  0.0473 -0.7727  0.0222
 2351poe     o210922   6.730   7.183   3.477  0.1559  0.5215 -0.3100
 2351poe    c2310923   6.805   7.228   3.587 -0.1961 -0.6529  0.4299
 2351poe    c2310924   6.957   7.209   3.572 -0.2183 -0.1105 -0.5378
 2351poe     o210925   7.013   7.293   3.473 -0.0727  0.2289 -0.1722
 2351poe    c2310926   7.151   7.296   3.500 -0.1444  0.3391  0.1930
 2351poe    c2310927   7.231   7.283   3.369 -0.1299 -0.3244  0.2634
 2351poe     o210928   7.238   7.151   3.320 -0.3643  0.0206 -0.7321
 2351poe    c2310929   7.369   7.127   3.275 -0.0841  0.4595 -0.1582
 2351poe    c2310930   7.374   7.013   3.173 -0.7286 -0.0456  0.3657
 2351poe     o210931   7.292   7.029   3.059 -0.1962 -0.5559 -0.1036
 2351poe    c3110932   7.364   7.080   2.949  0.2483  0.5087  0.6581
 2352poe    c3110933   0.120   6.639   6.768 -0.9212 -0.1526  0.8293
 2352poe     o210934   0.136   6.766   6.709 -0.6753 -0.5241  0.0848
 2352poe    c2310935   0.101   6.872   6.796  0.0370 -0.0632 -0.1812
 2352poe    c2310936   0.091   7.005   6.719 -0.3854 -0.0342 -0.0754
 2352poe     o210937   0.213   7.003   6.649 -0.3211 -0.1563  0.0386
 2352poe    c2310938   0.247   7.131   6.600 -0.2768 -0.4337 -0.6781
 2352poe    c2310939   0.400   7.134   6.580 -0.2537  0.2472 -0.4541
 2352poe     o210940   0.432   7.038   6.481  0.0123 -0.2389  0.0984
 2352poe    c2310941   0.569   7.057   6.456 -0.0918  0.3269 -0.0451
 2352poe    c2310942   0.634   6.941   6.378 -0.7739 -0.1587  0.1016
 2352poe     o210943   0.595   6.809   6.408  0.0869 -0.6291 -0.7831
 2352poe    c3110944   0.633   6.718   6.307  0.3438 -0.6905 -0.6329
 2353poe    c3110945   2.311   4.007   2.516  0.7170 -0.8552  0.1456
 2353poe     o210946   2.249   3.938   2.622  0.3158 -0.1325  0.3872
 2353poe    c2310947   2.118   3.991   2.614  0.6140  0.5240 -0.2407
 2353poe    c2310948   2.019   3.895   2.682  0.4273  0.7676 -0.1686
 2353poe     o210949   2.093   3.873   2.800  0.1468  0.2822 -0.0807
 2353poe    c2310950   2.022   3.794   2.893  0.2377  0.2942 -0.0005
 2353poe    c2310951   2.104   3.770   3.021 -0.0934 -0.1072  0.1381
 2353poe     o210952   2.236   3.725   3.002  0.0969  0.5421 -0.0876
 2353poe    c2310953   2.293   3.709   3.130 -0.6668  0.3546  0.2342
 2353poe    c2310954   2.444   3.733   3.116 -0.6023 -0.2265 -0.1162
 2353poe     o210955   2.470   3.871   3.100  0.0204 -0.3613 -0.2909
 2353poe    c3110956   2.608   3.893   3.117 -0.1676  0.4009  0.2803
 2354poe    c3110957   6.692   2.451   7.224 -0.1469  0.1034  0.2076
 2354poe     o210958   6.596   2.434   7.122  0.0999  0.0538 -0.0190
 2354poe    c2310959   6.477   2.506   7.141  0.0775 -0.0875  0.3858
 2354poe    c2310960   6.384   2.487   7.020  0.0091  0.7266  0.3081
 2354poe     o210961   6.463   2.485   6.903 -0.1948 -0.3428  0.1837
 2354poe    c2310962   6.394   2.530   6.788 -0.2378 -0.0188  0.3345
 2354poe    c2310963   6.511   2.539   6.688 -0.1598 -0.6972  0.3570
 2354poe     o210964   6.602   2.435   6.716  0.1944 -0.2716  0.8128
 2354poe    c2310965   6.693   2.428   6.609 -0.4189 -0.0349  0.2669
 2354poe    c2310966   6.779   2.300   6.596  0.2526  0.4425 -0.0291
 2354poe     o210967   6.706   2.182   6.574  0.4250  0.2598  0.3790
 2354poe    c3110968   6.776   2.063   6.547  0.1394  0.2015 -0.1242
 2355poe    c3110969   4.895   0.019   3.027  1.2171 -0.3913 -0.7820
 2355poe     o210970   4.847   0.108   2.928  0.2496 -0.0845 -0.0498
 2355poe    c2310971   4.930   0.131   2.817  0.0257 -0.4241 -0.2875
 2355poe    c2310972   4.888   0.235   2.710  0.2472  0.0114  0.0470
 2355poe     o210973   4.832   0.350   2.767  0.0014 -0.1187  0.0682
 2355poe    c2310974   4.889   0.464   2.707  0.4825 -0.2906  0.1936
 2355poe    c2310975   4.903   0.566   2.821 -0.2499  0.0247  0.0077
 2355poe     o210976   4.775   0.562   2.881 -0.0266 -0.5764  0.4415
 2355poe    c2310977   4.791   0.604   3.015  0.1141 -0.0543  0.2612
 2355poe    c2310978   4.666   0.547   3.085  0.1837 -0.3456  0.1501
 2355poe     o210979   4.674   0.407   3.072 -0.1559 -0.3270 -0.2670
 2355poe    c3110980   4.643   0.340   3.192 -0.1643 -0.0373 -0.1056
 2356poe    c3110981   5.732   2.150   3.450 -0.5879  0.4842 -0.1388
 2356poe     o210982   5.638   2.110   3.547 -0.1837 -0.5986 -0.1738
 2356poe    c2310983   5.598   1.978   3.521  0.2320 -0.6073 -0.7833
 2356poe    c2310984   5.483   1.913   3.600  0.7005 -0.7589 -0.2230
 2356poe     o210985   5.509   1.931   3.738 -0.4788 -0.0182 -0.0856
 2356poe    c2310986   5.405   1.875   3.814 -0.2144 -0.3520  0.0276
 2356poe    c2310987   5.446   1.848   3.960 -0.5594  0.2795  0.2417
 2356poe     o210988   5.517   1.960   4.009 -0.0138 -0.0308  0.1691
 2356poe    c2310989   5.554   1.954   4.144  0.4408 -0.1640  0.0378
 2356poe    c2310990   5.626   2.086   4.176 -0.0931 -0.0301  0.7213
 2356poe     o210991   5.613   2.185   4.076 -0.2611  0.1286  0.9001
 2356poe    c3110992   5.686   2.304   4.090 -0.0717  0.0418  0.6656
 2357poe    c3110993   2.919   5.415   4.399  0.9815  0.3608  0.5620
 2357poe     o210994   3.000   5.348   4.305 -0.0966 -0.1137 -0.0632
 2357poe    c2310995   3.054   5.444   4.217  0.3488  0.1301  0.4610
 2357poe    c2310996   3.046   5.395   4.071  0.8826 -0.0346  0.4841
 2357poe     o210997   3.104   5.463   3.962 -0.0805 -0.0045 -0.0250
 2357poe    c2310998   3.245   5.458   3.962 -0.0613  0.4218  0.4536
 2357poe    c2310999   3.319   5.573   3.891  0.7989 -0.0337  0.6010
 2357poe     o211000   3.335   5.689   3.968 -0.6715  0.2469  0.5020
 2357poe    c2311001   3.424   5.784   3.914 -0.5387 -0.3077 -0.2693
 2357poe    c2311002   3.409   5.913   3.997 -0.1562 -0.6672  0.3667
 2357poe     o211003   3.277   5.962   3.986  0.0113 -0.3315 -0.2091
 2357poe    c3111004   3.287   6.092   4.039  1.0463 -0.2096 -0.6698
 2358poe    c3111005   5.224   6.405   2.528 -0.0339 -0.0448 -0.2049
 2358poe     o211006   5.187   6.527   2.469  0.1200  0.0258 -0.1576
 2358poe    c2311007   5.265   6.559   2.356 -0.0172  0.1320 -0.2220
 2358poe    c2311008   5.185   6.655   2.266 -1.0509 -0.5326 -0.0305
 2358poe     o211009   5.161   6.782   2.324  0.2395 -0.3078  0.0474
 2358poe    c2311010   5.127   6.872   2.221  0.1629  0.2416  0.5496
 2358poe    c2311011   5.046   6.995   2.267  0.0333  0.2549  0.2905
 2358poe     o211012   4.916   6.977   2.317  0.3020 -0.2261  0.8308
 2358poe    c2311013   4.871   7.085   2.396 -0.2306  0.1849 -0.0236
 2358poe    c2311014   4.734   7.082   2.465 -0.3045  0.2861 -0.1637
 2358poe     o211015   4.744   6.993   2.574  0.7499  0.0841 -0.4136
 2358poe    c3111016   4.756   7.055   2.700 -0.4443 -0.1443 -0.1691
 2359poe    c3111017   3.909   2.481   1.264 -0.0792  0.0609 -0.1572
 2359poe     o211018   3.925   2.372   1.351 -0.1960  0.1011 -0.0853
 2359poe    c2311019   3.792   2.359   1.398 -0.0757 -0.3513  0.1424
 2359poe    c2311020   3.776   2.241   1.494 -0.1555 -0.6144 -0.1919
 2359poe     o211021   3.869   2.247   1.601  0.3315 -0.3570 -0.6261
 2359poe    c2311022   3.904   2.122   1.656 -0.3096 -0.1762  0.2156
 2359poe    c2311023   4.046   2.081   1.614 -0.2501 -0.1162  0.3560
 2359poe     o211024   4.074   2.132   1.486  0.2887 -0.3928  0.3587
 2359poe    c2311025   4.187   2.058   1.444 -0.1217 -0.7601 -0.1114
 2359poe    c2311026   4.214   2.106   1.300 -0.3212 -0.2949  0.0027
 2359poe     o211027   4.194   2.245   1.310  0.4921 -0.1933  0.3527
 2359poe    c3111028   4.249   2.303   1.194 -0.2605 -0.0791  0.0465
 2360poe    c3111029   4.768   1.270   4.137 -0.5300 -0.5156 -0.2667
 2360poe     o211030   4.722   1.228   4.263  0.0944  0.5467  0.3274
 2360poe    c2311031   4.770   1.096   4.274 -0.1600  0.4019 -0.2600
 2360poe    c2311032   4.724   1.035   4.408 -0.5124  0.0899 -0.5196
 2360poe     o211033   4.789   1.082   4.525  0.0575 -0.1115 -0.7503
 2360poe    c2311034   4.804   0.971   4.610 -0.0707  0.6180  0.2381
 2360poe    c2311035   4.885   0.971   4.741  0.1068 -0.2054  0.1299
 2360poe     o211036   4.861   1.060   4.847  0.2025  0.4250 -0.3738
 2360poe    c2311037   4.952   1.048   4.954  0.2725  0.1525 -0.4625
 2360poe    c2311038   4.938   1.187   5.020  0.1369 -0.1289  0.0980
 2360poe     o211039   4.952   1.295   4.931  0.0585 -0.0064  0.2332
 2360poe    c3111040   4.963   1.422   4.991 -0.0964  0.0147  0.2169
 2361poe    c3111041   6.137   2.995   3.565  0.3024 -0.4939  0.2850
 2361poe     o211042   6.061   2.884   3.524 -0.0418 -0.2133  0.1600
 2361poe    c2311043   5.923   2.912   3.526  0.0261  0.1312  0.0798
 2361poe    c2311044   5.850   2.777   3.535  0.0849  0.0737 -0.2774
 2361poe     o211045   5.921   2.690   3.449  0.6562 -0.1456  0.4041
 2361poe    c2311046   5.828   2.599   3.393  0.2781  0.4693  0.0171
 2361poe    c2311047   5.894   2.478   3.324 -0.0627  0.3227 -0.0520
 2361poe     o211048   5.985   2.521   3.225  0.7554 -0.1201  0.4961
 2361poe    c2311049   6.044   2.412   3.157 -0.9463 -0.5984 -0.2714
 2361poe    c2311050   6.167   2.344   3.220 -0.4662  0.4141 -0.0844
 2361poe     o211051   6.282   2.424   3.215 -0.4987  0.4401 -0.5305
 2361poe    c3111052   6.399   2.369   3.272 -0.8078  0.7804  0.4616
 2362poe    c3111053   5.505   4.450   4.758  0.2029 -0.0671 -0.3503
 2362poe     o211054   5.421   4.369   4.678 -0.4953 -0.0659  0.3668
 2362poe    c2311055   5.421   4.240   4.733 -0.8766 -0.0809  0.3346
 2362poe    c2311056   5.364   4.125   4.647 -0.4146  0.0888 -0.2090
 2362poe     o211057   5.428   4.099   4.525  0.6618  0.3220  0.2983
 2362poe    c2311058   5.542   4.015   4.529  0.0400 -0.5829 -0.5182
 2362poe    c2311059   5.607   4.027   4.390 -0.0337  0.0153 -0.5032
 2362poe     o211060   5.507   4.014   4.292 -0.2366 -0.0540 -0.2878
 2362poe    c2311061   5.570   4.020   4.166  0.6819  1.0180  0.2101
 2362poe    c2311062   5.486   4.069   4.047 -0.3537 -0.5268  0.2833
 2362poe     o211063   5.461   4.205   4.074 -0.5806 -0.6014  0.4590
 2362poe    c3111064   5.412   4.265   3.956 -0.0233 -0.2366  0.4044
 2363poe    c3111065   0.273   2.947   6.939  0.2693  0.0336  0.3822
 2363poe     o211066   0.288   2.846   7.036 -0.5697 -0.2285  0.2408
 2363poe    c2311067   0.416   2.855   7.093 -0.5612  0.1226  0.1681
 2363poe    c2311068   0.433   2.752   7.206  0.1937  0.2974  0.2235
 2363poe     o211069   0.421   2.623   7.150  0.4617  0.3415  0.0674
 2363poe    c2311070   0.438   2.522   7.247 -0.4895 -0.2737 -0.3939
 2363poe    c2311071   0.339   2.406   7.226 -0.7859 -0.0573 -0.2033
 2363poe     o211072   0.366   2.363   7.094  0.3673  0.2771 -0.0920
 2363poe    c2311073   0.273   2.264   7.056  0.2534  0.3164  0.0827
 2363poe    c2311074   0.296   2.220   6.910  0.0624  0.0711  0.1253
 2363poe     o211075   0.308   2.344   6.843  0.2733  0.0470  0.1190
 2363poe    c3111076   0.321   2.336   6.703  0.5071 -0.4888  0.1674
 2364poe    c3111077   6.533   3.378   6.861  0.0214  0.5354 -0.1021
 2364poe     o211078   6.421   3.463   6.854 -0.2586  0.1782  0.0558
 2364poe    c2311079   6.303   3.386   6.849 -0.0950 -0.0801  0.1472
 2364poe    c2311080   6.208   3.489   6.785 -0.1047 -0.3912 -0.3452
 2364poe     o211081   6.224   3.625   6.818 -0.1814 -0.4530 -0.0536
 2364poe    c2311082   6.110   3.708   6.822  0.4024  0.3877 -0.5437
 2364poe    c2311083   6.161   3.852   6.842 -0.1601  0.5524 -0.2648
 2364poe     o211084   6.257   3.866   6.945 -0.3201  0.1644 -0.0619
 2364poe    c2311085   6.315   3.994   6.952 -0.7923  0.3703  0.1449
 2364poe    c2311086   6.429   4.011   7.054 -0.5092 -0.5716  0.0021
 2364poe     o211087   6.543   3.942   7.009  0.5668  1.1804 -0.0581
 2364poe    c3111088   6.667   4.000   7.042  0.8570  0.3569  0.3107
 2365poe    c3111089   5.039   4.864   5.640 -0.3807 -0.4895 -0.2948
 2365poe     o211090   5.137   4.962   5.666 -0.2899 -0.7213  0.2429
 2365poe    c2311091   5.260   4.952   5.597 -0.3734  0.3735 -0.0888
 2365poe    c2311092   5.345   5.077   5.626 -0.2572  0.3054 -0.1373
 2365poe     o211093   5.260   5.188   5.634 -0.4789  0.0693  0.9215
 2365poe    c2311094   5.327   5.311   5.650  0.1469  0.0402 -1.2056
 2365poe    c2311095   5.216   5.414   5.675  0.0275 -0.1845 -0.8081
 2365poe     o211096   5.137   5.367   5.782  0.2592 -0.0849 -0.5935
 2365poe    c2311097   5.050   5.464   5.838  0.0754 -0.6778  0.1673
 2365poe    c2311098   4.975   5.403   5.958 -0.0604 -0.2107  0.3219
 2365poe     o211099   4.903   5.290   5.914 -0.3219  0.1101 -0.0846
 2365poe    c3111100   4.809   5.245   6.010 -0.2669 -0.4794 -0.3038
 2366poe    c3111101   4.589   2.980   7.182 -0.2331 -0.3030 -0.2412
 2366poe     o211102   4.589   3.121   7.184 -0.0584 -0.3065  0.1248
 2366poe    c2311103   4.719   3.171   7.160 -0.4061  0.8339  0.5647
 2366poe    c2311104   4.797   3.187   7.292  0.1183  0.6496  0.2788
 2366poe     o211105   4.818   3.069   7.367 -0.1098  0.2293 -0.3091
 2366poe    c2311106   4.949   3.063   7.418 -0.2007  0.0428 -0.0914
 2366poe    c2311107   4.950   2.933   7.500 -0.1361  0.1437  0.0665
 2366poe     o211108   4.873   2.948   7.618 -0.0757 -0.3571  0.1714
 2366poe    c2311109   4.890   2.822   7.678 -0.0383 -0.3960  0.0794
 2366poe    c2311110   4.843   2.837   7.824 -0.3326 -0.1125 -0.0442
 2366poe     o211111   4.741   2.935   7.827  0.4259  0.6748  0.4237
 2366poe    c3111112   4.677   2.946   7.951  0.1366 -0.7027  0.4122
 2367poe    c3111113   2.121   0.587   7.123 -0.2304 -0.1802  0.3268
 2367poe     o211114   2.026   0.691   7.133 -0.0778  0.1021 -0.9398
 2367poe    c2311115   1.892   0.655   7.107 -0.1923 -0.1752 -0.0353
 2367poe    c2311116   1.809   0.621   7.232 -0.1666 -0.1721 -0.0179
 2367poe     o211117   1.821   0.723   7.329  0.4436 -0.1681 -0.0937
 2367poe    c2311118   1.736   0.694   7.437  0.2396  0.1821 -0.1577
 2367poe    c2311119   1.798   0.776   7.552 -0.1034  0.0738  0.1046
 2367poe     o211120   1.818   0.903   7.495 -0.3240  0.0913  0.0633
 2367poe    c2311121   1.837   0.983   7.610  0.1581  0.0917 -0.0127
 2367poe    c2311122   1.864   1.125   7.557  0.3947  0.0951  0.1187
 2367poe     o211123   1.979   1.129   7.475  0.2931 -0.0597 -0.0319
 2367poe    c3111124   2.048   1.252   7.488 -0.2103  0.2124  0.1093
 2368poe    c3111125   2.714   2.366   1.933  0.4703  0.2562 -0.2439
 2368poe     o211126   2.810   2.287   1.869  0.3205 -0.5325  0.4890
 2368poe    c2311127   2.759   2.156   1.885 -0.2784 -0.2825  0.6165
 2368poe    c2311128   2.859   2.047   1.844  0.0038  0.1527  0.1211
 2368poe     o211129   2.993   2.090   1.854  0.1372 -0.0945 -0.5590
 2368poe    c2311130   3.088   1.988   1.836  0.1463 -0.3423  0.7557
 2368poe    c2311131   3.218   2.042   1.898 -0.1659  0.7118  0.5090
 2368poe     o211132   3.250   2.166   1.839  0.4327  0.3673  0.1001
 2368poe    c2311133   3.387   2.190   1.862  0.6045 -0.5369  0.0532
 2368poe    c2311134   3.423   2.303   1.763 -0.3347 -0.1765  0.1074
 2368poe     o211135   3.384   2.430   1.810 -0.4537 -0.0190 -0.4126
 2368poe    c3111136   3.424   2.528   1.718 -0.1360 -0.3902 -0.6744
 2369poe    c3111137   0.571   1.635   5.041 -0.5544 -0.5704 -0.1931
 2369poe     o211138   0.538   1.686   5.169  0.4157  0.2678 -0.2702
 2369poe    c2311139   0.421   1.764   5.173  0.1516 -0.1597  0.5910
 2369poe    c2311140   0.420   1.842   5.305  0.6023  0.1624  0.4053
 2369poe     o211141   0.386   1.776   5.425  0.2604 -0.0385  0.1971
 2369poe    c2311142   0.416   1.868   5.527  0.5271  0.2705 -0.1560
 2369poe    c2311143   0.417   1.819   5.673  0.1262  0.2376 -0.1642
 2369poe     o211144   0.497   1.704   5.677  0.0495  0.1726 -0.4950
 2369poe    c2311145   0.483   1.654   5.808  0.1363 -0.0862 -0.5823
 2369poe    c2311146   0.553   1.517   5.805 -0.0639 -0.1937 -0.4282
 2369poe     o211147   0.509   1.459   5.684  0.3155 -0.5192 -0.4132
 2369poe    c3111148   0.547   1.324   5.667 -0.5731 -0.8364  0.0567
 2370poe    c3111149   0.230   6.691   6.031 -0.2770  0.6546 -0.1682
 2370poe     o211150   0.367   6.715   6.054 -0.1734 -0.2384  0.1799
 2370poe    c2311151   0.435   6.670   5.939 -0.1213 -0.0816  0.1497
 2370poe    c2311152   0.583   6.710   5.925 -0.2256  0.1811 -0.2103
 2370poe     o211153   0.598   6.849   5.905 -0.2638  0.1404 -0.5358
 2370poe    c2311154   0.731   6.887   5.881 -0.0639 -0.3084 -0.1519
 2370poe    c2311155   0.808   6.937   6.004  0.0622  0.3100 -0.4805
 2370poe     o211156   0.911   7.021   5.957  0.0231  0.3610 -0.4754
 2370poe    c2311157   0.990   7.065   6.065  0.2048  0.1250 -0.5124
 2370poe    c2311158   1.061   6.976   6.169  0.0401  0.0090 -0.4988
 2370poe     o211159   0.980   6.920   6.270 -0.0650  0.0994 -0.5321
 2370poe    c3111160   1.043   6.839   6.367  0.0160  0.0205 -0.6496
 2371poe    c3111161   4.330   5.794   5.679 -0.9787 -0.4280 -0.5618
 2371poe     o211162   4.241   5.903   5.685 -0.2561  0.1609 -0.5012
 2371poe    c2311163   4.261   5.976   5.804 -0.0329  0.1241 -0.5163
 2371poe    c2311164   4.124   6.036   5.838  0.2397  0.2337  0.4134
 2371poe     o211165   4.070   6.100   5.724  1.0346  0.8368  0.3597
 2371poe    c2311166   3.955   6.176   5.755 -0.0636 -0.3404 -0.7015
 2371poe    c2311167   3.882   6.211   5.625  0.4157  0.6345 -0.7176
 2371poe     o211168   3.909   6.103   5.538  0.2462  0.2356 -0.2795
 2371poe    c2311169   3.818   6.106   5.431 -0.0305 -0.5755 -0.0750
 2371poe    c2311170   3.691   6.022   5.453 -0.2327 -0.1505  0.3966
 2371poe     o211171   3.734   5.893   5.491 -0.4255 -0.2179  0.3894
 2371poe    c3111172   3.625   5.806   5.508 -0.5702 -0.2741 -0.7377
 2372poe    c3111173   3.942   0.330   2.134 -0.5694  0.1646  0.7498
 2372poe     o211174   3.855   0.224   2.104 -0.4426  0.3606 -0.3476
 2372poe    c2311175   3.936   0.111   2.077 -0.4315  0.3011 -0.0741
 2372poe    c2311176   3.981   0.094   1.930 -0.1889  0.0725  0.0267
 2372poe     o211177   4.081   0.189   1.899 -0.4253  0.2449 -0.2158
 2372poe    c2311178   4.085   0.187   1.758  0.9121 -0.4964 -0.1901
 2372poe    c2311179   4.184   0.289   1.701 -0.0490  0.1778 -0.6799
 2372poe     o211180   4.319   0.253   1.719 -0.0539  0.4510 -0.0876
 2372poe    c2311181   4.406   0.339   1.650  0.5698  0.2668  0.4574
 2372poe    c2311182   4.515   0.242   1.600 -0.5227 -0.5732 -0.3258
 2372poe     o211183   4.613   0.282   1.506 -0.3624 -0.2182 -0.0115
 2372poe    c3111184   4.563   0.333   1.385 -0.6451 -0.0894  0.1589
 2373poe    c3111185   5.362   1.201   6.414 -0.3991 -0.3434  0.1578
 2373poe     o211186   5.339   1.123   6.298 -0.6081 -0.1802  0.0892
 2373poe    c2311187   5.215   1.057   6.291 -0.5085 -0.4388  0.6816
 2373poe    c2311188   5.230   0.904   6.297  0.2186 -0.4030 -0.0712
 2373poe     o211189   5.284   0.871   6.171 -0.5079  0.3129 -0.5785
 2373poe    c2311190   5.308   0.738   6.129 -0.5735  0.1552 -0.1154
 2373poe    c2311191   5.382   0.742   5.994  0.0315  0.4109  0.2149
 2373poe     o211192   5.476   0.846   5.980  0.9277 -0.3335  0.6288
 2373poe    c2311193   5.562   0.813   5.873 -0.4206  0.0440 -0.5969
 2373poe    c2311194   5.652   0.927   5.823 -0.0559  0.1100  0.1986
 2373poe     o211195   5.722   0.981   5.933  0.1029 -0.2280  0.2682
 2373poe    c3111196   5.820   1.070   5.885 -0.1826 -0.2486 -0.3579
 2374poe    c3111197   4.187   1.751   0.058 -0.6444  0.4321  0.4571
 2374poe     o211198   4.056   1.734   0.108 -0.5271  0.1521  0.6713
 2374poe    c2311199   3.963   1.727   0.001  0.1531 -0.2693  0.1021
 2374poe    c2311200   3.819   1.687   0.037  0.1045 -0.0455  0.1553
 2374poe     o211201   3.765   1.800   0.101 -0.7216  0.0937 -0.7646
 2374poe    c2311202   3.675   1.743   0.194 -0.3749  0.3816 -0.2474
 2374poe    c2311203   3.611   1.847   0.288 -0.5735  0.1371 -0.1114
 2374poe     o211204   3.527   1.927   0.208  0.1562  0.7107 -0.3108
 2374poe    c2311205   3.445   2.014   0.282 -0.0454  0.1827  0.0936
 2374poe    c2311206   3.301   2.032   0.231  0.0638  0.4055 -0.1388
 2374poe     o211207   3.232   2.144   0.282  0.2736  0.7143 -0.5225
 2374poe    c3111208   3.100   2.137   0.234 -0.1664  0.6245  0.6601
 2375poe    c3111209   1.462   1.671   6.306  0.4164 -0.6034  0.0329
 2375poe     o211210   1.333   1.640   6.354  0.1661  0.0317 -0.2257
 2375poe    c2311211   1.269   1.561   6.256  0.1738 -0.0175 -0.1907
 2375poe    c2311212   1.124   1.535   6.301  0.5145 -0.1423  0.8697
 2375poe     o211213   1.075   1.653   6.361  0.5026  0.0826  0.4215
 2375poe    c2311214   0.937   1.649   6.391  0.6159 -0.4520  0.8842
 2375poe    c2311215   0.912   1.776   6.475 -0.0352 -0.2407  0.3756
 2375poe     o211216   1.011   1.763   6.575  0.3529  0.3973  0.0770
 2375poe    c2311217   0.979   1.832   6.694  0.0979  0.6466 -0.1318
 2375poe    c2311218   1.090   1.848   6.800 -0.2751 -0.3036  0.4221
 2375poe     o211219   1.196   1.927   6.749 -0.3152 -0.3401  0.2813
 2375poe    c3111220   1.249   2.014   6.846 -0.3809 -0.2368  0.2249
 2376poe    c3111221   6.899   4.253   6.074 -0.0367  0.1317  0.3788
 2376poe     o211222   7.021   4.231   6.142 -0.0927  0.1119  0.4731
 2376poe    c2311223   7.114   4.320   6.085 -0.2025  0.3482  0.6614
 2376poe    c2311224   7.248   4.244   6.087 -0.1837  0.3667  0.2923
 2376poe     o211225   7.240   4.161   6.202  0.1341  0.3319  0.2893
 2376poe    c2311226   7.336   4.058   6.189 -0.0870  0.1330  0.2373
 2376poe    c2311227   7.311   3.923   6.259  0.6947 -0.1185  0.0372
 2376poe     o211228   7.271   3.951   6.391  0.1160 -0.0543 -0.1468
 2376poe    c2311229   7.252   3.840   6.477 -0.7372  0.3035  0.1344
 2376poe    c2311230   7.201   3.895   6.612 -0.1362 -0.5031  0.6969
 2376poe     o211231   7.071   3.948   6.598  0.0047 -0.1630  0.6596
 2376poe    c3111232   7.009   3.936   6.724 -0.5990 -0.2750  0.3535
 2377poe    c3111233   2.477   4.767   4.560 -0.2755  0.2578  0.2688
 2377poe     o211234   2.410   4.645   4.582 -0.2932  0.1840 -0.1915
 2377poe    c2311235   2.298   4.669   4.664 -0.5456  0.6018 -0.6530
 2377poe    c2311236   2.185   4.566   4.644  0.1802 -0.2804 -0.2922
 2377poe     o211237   2.261   4.449   4.622  0.4428 -0.1267 -0.2147
 2377poe    c2311238   2.177   4.343   4.581 -0.0461  0.1182  0.1451
 2377poe    c2311239   2.250   4.212   4.615 -0.0570 -0.0736 -0.5704
 2377poe     o211240   2.390   4.231   4.619 -0.1971  0.8560  0.2105
 2377poe    c2311241   2.442   4.109   4.667 -0.4323  0.4602 -0.5297
 2377poe    c2311242   2.591   4.086   4.637 -0.4222 -0.4497  0.1834
 2377poe     o211243   2.649   4.203   4.689  0.2321 -0.4915 -0.4359
 2377poe    c3111244   2.789   4.191   4.678  0.2620 -0.1750 -0.4210
 2378poe    c3111245   3.042   3.198   1.019  0.1685 -0.4207 -0.0154
 2378poe     o211246   3.091   3.268   1.131 -0.4089  0.3541 -0.2311
 2378poe    c2311247   3.195   3.353   1.089 -0.0356 -0.2897 -0.6220
 2378poe    c2311248   3.273   3.420   1.203  0.2210 -1.2204 -0.2375
 2378poe     o211249   3.373   3.342   1.264  0.4946 -0.5210  0.2295
 2378poe    c2311250   3.455   3.430   1.337  0.3004  0.2760 -0.4985
 2378poe    c2311251   3.587   3.352   1.356 -0.0168 -0.1934 -0.1978
 2378poe     o211252   3.645   3.323   1.231 -0.2594 -0.1762 -0.3168
 2378poe    c2311253   3.768   3.254   1.229 -0.4265 -0.4638 -0.7258
 2378poe    c2311254   3.809   3.207   1.088 -0.2872 -0.6984 -0.6086
 2378poe     o211255   3.820   3.314   0.997 -0.1084 -0.1840  0.0057
 2378poe    c3111256   3.960   3.331   0.987 -0.1194  0.3890  0.7191
 2379poe    c3111257   1.542   0.164   1.535  0.0574  0.5190 -0.3027
 2379poe     o211258   1.599   0.217   1.653  0.4465 -0.0510 -0.2292
 2379poe    c2311259   1.729   0.166   1.663  0.3310 -0.1473  0.9372
 2379poe    c2311260   1.741   0.021   1.712  0.4693 -0.3307  0.3753
 2379poe     o211261   1.672   0.023   1.835  0.4362 -0.2708  0.3554
 2379poe    c2311262   1.710  -0.088   1.912  0.5952 -0.3398  0.1786
 2379poe    c2311263   1.593  -0.146   1.994  0.1127  0.3110 -0.0421
 2379poe     o211264   1.552  -0.019   2.038 -0.2684  0.0199  0.4532
 2379poe    c2311265   1.465  -0.038   2.147 -0.4392  0.2672  0.3599
 2379poe    c2311266   1.437   0.096   2.219 -0.2216  0.4364  0.1281
 2379poe     o211267   1.398   0.172   2.107  0.0580  0.2349 -0.1084
 2379poe    c3111268   1.293   0.263   2.129 -0.3637 -0.1140 -0.6510
 2380poe    c3111269   1.220   2.293   2.360 -0.2130 -0.8477  0.4877
 2380poe     o211270   1.098   2.286   2.430 -0.2339  0.4466  0.6126
 2380poe    c2311271   1.004   2.350   2.347 -0.1585  0.0917  0.2488
 2380poe    c2311272   0.859   2.380   2.389 -0.2025  0.0294  0.1409
 2380poe     o211273   0.819   2.252   2.430 -0.3824 -0.0016 -0.1256
 2380poe    c2311274   0.691   2.242   2.489 -0.1053 -0.0043  0.4868
 2380poe    c2311275   0.660   2.112   2.565 -0.3977 -0.3312 -0.1789
 2380poe     o211276   0.770   2.060   2.636  0.1367  0.4379 -0.4401
 2380poe    c2311277   0.733   1.978   2.744 -0.0139  0.8423 -0.1872
 2380poe    c2311278   0.866   1.917   2.792 -0.1283  0.0211 -0.9001
 2380poe     o211279   0.938   1.871   2.680 -0.4099 -0.3811 -0.9168
 2380poe    c3111280   1.060   1.807   2.711 -0.3186  0.4210  0.4716
 2381poe    c3111281   6.930   0.593   5.649  0.3816 -0.2022 -0.4833
 2381poe     o211282   6.889   0.573   5.516 -0.4083  0.3120 -0.3259
 2381poe    c2311283   6.806   0.461   5.498  0.2187 -0.2776  0.3743
 2381poe    c2311284   6.704   0.490   5.386  0.0406 -0.0295  0.5987
 2381poe     o211285   6.763   0.503   5.259 -0.1311  0.6650  0.5877
 2381poe    c2311286   6.661   0.466   5.168  0.5985 -0.1020  0.0626
 2381poe    c2311287   6.727   0.445   5.031  0.7936 -0.3650  0.1959
 2381poe     o211288   6.820   0.549   5.019  0.3675  0.0160  0.1810
 2381poe    c2311289   6.792   0.645   4.919  0.3635  0.0192  0.1854
 2381poe    c2311290   6.905   0.750   4.925  0.4459 -0.0788  0.3538
 2381poe     o211291   6.947   0.788   5.055  0.3291  0.2975  0.2825
 2381poe    c3111292   7.080   0.833   5.049  0.3123  0.3215  0.0930
 2382poe    c3111293   2.777   7.156   2.999  0.3282 -0.6453 -0.6659
 2382poe     o211294   2.687   7.112   3.098  0.2275 -0.0500 -0.4873
 2382poe    c2311295   2.729   6.984   3.139 -0.5546 -0.1976 -0.1424
 2382poe    c2311296   2.646   6.931   3.258  0.0045 -1.2216 -0.1904
 2382poe     o211297   2.529   7.011   3.255  0.7077 -0.1689 -0.1443
 2382poe    c2311298   2.452   6.998   3.373  0.3977  0.0461 -0.3221
 2382poe    c2311299   2.423   7.131   3.445 -0.7277 -0.5044  0.2542
 2382poe     o211300   2.353   7.229   3.373 -0.1565 -0.0298  0.3396
 2382poe    c2311301   2.324   7.330   3.467 -0.1579  0.3238 -0.0350
 2382poe    c2311302   2.275   7.465   3.411  0.0400  0.4785  0.1603
 2382poe     o211303   2.366   7.518   3.318  0.3477  0.1309  0.2582
 2382poe    c3111304   2.387   7.656   3.340  0.3699  0.2721 -0.5974
 2383poe    c3111305   0.754   2.938   1.504  0.0051 -0.2826 -0.4393
 2383poe     o211306   0.818   2.971   1.382 -0.5883  0.2971 -0.5999
 2383poe    c2311307   0.850   2.851   1.315  0.5831  0.0501  0.3745
 2383poe    c2311308   0.819   2.872   1.166 -0.2543 -0.3930  0.4806
 2383poe     o211309   0.880   2.990   1.118 -1.0344 -0.1693  0.0274
 2383poe    c2311310   0.851   3.030   0.985  0.3562  0.0278 -0.2280
 2383poe    c2311311   0.905   3.173   0.965 -0.6603  0.4248 -0.1829
 2383poe     o211312   0.849   3.267   1.053 -0.2939  0.2458  0.2414
 2383poe    c2311313   0.935   3.378   1.068 -0.1043  0.1352 -0.0264
 2383poe    c2311314   0.898   3.478   1.179  0.0250  0.4515 -0.2654
 2383poe     o211315   0.954   3.455   1.307  0.2214  0.1343 -0.4079
 2383poe    c3111316   0.942   3.561   1.399 -0.2832  0.0188 -0.3381
 2384poe    c3111317   1.231   7.123   4.228  0.0091 -0.6301 -0.1238
 2384poe     o211318   1.263   7.246   4.166 -0.1362 -0.5246  0.0102
 2384poe    c2311319   1.293   7.340   4.267 -0.1793  0.0440 -0.4979
 2384poe    c2311320   1.365   7.467   4.220 -0.0539  0.0951 -0.1701
 2384poe     o211321   1.279   7.539   4.135 -0.5733 -0.5132 -0.1683
 2384poe    c2311322   1.338   7.665   4.108 -0.1637 -0.7046 -0.1689
 2384poe    c2311323   1.239   7.771   4.058 -0.0452 -0.4599  0.1110
 2384poe     o211324   1.211   7.742   3.923 -0.1181  0.4182 -0.0704
 2384poe    c2311325   1.081   7.794   3.902 -0.1192  0.3888 -0.1357
 2384poe    c2311326   1.061   7.887   3.781  0.2899  0.0933 -0.4367
 2384poe     o211327   1.117   7.807   3.679  0.2657  0.0598 -0.4234
 2384poe    c3111328   1.078   7.844   3.549 -0.2039  0.3421 -0.2052
 2385poe    c3111329   3.485   0.101   2.000 -0.1632  0.3179 -0.5433
 2385poe     o211330   3.449   0.168   2.119 -0.0151 -0.2756 -0.1599
 2385poe    c2311331   3.416   0.066   2.211 -0.3039 -0.2005 -0.1787
 2385poe    c2311332   3.448   0.104   2.356 -0.0820  0.2431 -0.3427
 2385poe     o211333   3.586   0.114   2.382 -0.0293 -0.1371 -0.4803
 2385poe    c2311334   3.625   0.054   2.504 -0.2681 -0.3552 -0.5117
 2385poe    c2311335   3.775   0.057   2.538 -0.2670 -0.1106 -0.5361
 2385poe     o211336   3.817   0.177   2.598  0.0350 -0.0733 -0.8181
 2385poe    c2311337   3.956   0.190   2.619 -0.1288 -0.0903  0.3578
 2385poe    c2311338   4.012   0.319   2.682 -0.1978  0.0885  0.0555
 2385poe     o211339   3.993   0.332   2.821 -0.5321  0.5194 -0.0257
 2385poe    c3111340   3.975   0.470   2.845 -0.1942  0.6077 -0.2606
 2386poe    c3111341   6.114   6.919   5.702  0.3261 -0.7536 -0.3988
 2386poe     o211342   6.221   6.830   5.677  0.2953 -0.9911  0.2854
 2386poe    c2311343   6.320   6.868   5.583 -0.3295  0.3783  0.1477
 2386poe    c2311344   6.401   6.996   5.608  0.2286 -0.0053  0.3203
 2386poe     o211345   6.458   7.014   5.736 -0.1751 -0.3317  0.5501
 2386poe    c2311346   6.553   7.118   5.743 -0.1090 -0.3758  0.3430
 2386poe    c2311347   6.675   7.082   5.830 -0.0737 -0.4748  0.2516
 2386poe     o211348   6.712   6.953   5.787  0.1817 -0.1994 -0.3814
 2386poe    c2311349   6.787   6.885   5.886  0.3352  0.3404 -0.1227
 2386poe    c2311350   6.851   6.762   5.819  0.1507 -0.0276  0.3736
 2386poe     o211351   6.751   6.663   5.809  0.5101 -0.4108  0.5667
 2386poe    c3111352   6.795   6.538   5.760  0.7025 -0.3510  0.5881
 2387poe    c3111353   1.919   3.661   1.662 -0.2128  0.4657 -0.2725
 2387poe     o211354   1.787   3.702   1.639 -0.5244 -0.7009 -0.6508
 2387poe    c2311355   1.731   3.710   1.768  0.0942  0.1440 -0.4282
 2387poe    c2311356   1.583   3.749   1.750  0.1742  0.2762 -0.8131
 2387poe     o211357   1.508   3.650   1.683 -0.1885  0.0237 -0.0449
 2387poe    c2311358   1.375   3.683   1.652  0.0514  0.1418 -0.9635
 2387poe    c2311359   1.320   3.567   1.567 -0.0476 -0.2394 -0.3860
 2387poe     o211360   1.371   3.591   1.437 -0.3793  0.3250 -0.4162
 2387poe    c2311361   1.306   3.504   1.347 -0.3567  0.2726 -0.3820
 2387poe    c2311362   1.356   3.550   1.209 -0.0858  0.3941 -0.2436
 2387poe     o211363   1.496   3.537   1.217 -0.1660 -0.3724 -0.0579
 2387poe    c3111364   1.552   3.545   1.088 -0.3309  0.0555 -0.1024
 2388poe    c3111365   2.890   1.432   4.164 -0.3441  0.4322 -0.2966
 2388poe     o211366   2.927   1.409   4.298  0.1510  0.3987 -0.4367
 2388poe    c2311367   2.944   1.269   4.310  0.4748  0.4840  0.1249
 2388poe    c2311368   2.986   1.231   4.453 -0.0470 -0.0531  0.1392
 2388poe     o211369   3.123   1.241   4.487 -0.0360  0.0132  0.0747
 2388poe    c2311370   3.166   1.373   4.513 -0.0993  0.0024  0.2373
 2388poe    c2311371   3.315   1.388   4.550 -0.2377  0.2961  0.6736
 2388poe     o211372   3.331   1.362   4.688 -0.3164 -0.3696  0.5600
 2388poe    c2311373   3.448   1.419   4.741 -0.0045 -0.6511  0.1845
 2388poe    c2311374   3.434   1.460   4.889  0.5293  0.1395  0.0269
 2388poe     o211375   3.392   1.354   4.973 -0.3817  0.2210 -0.3147
 2388poe    c3111376   3.409   1.392   5.108 -0.2765  0.3557 -0.3652
 2389poe    c3111377   1.096   6.328   5.456  0.1457  0.3763 -0.6713
 2389poe     o211378   0.958   6.297   5.468  0.2697 -0.0543 -0.3036
 2389poe    c2311379   0.880   6.403   5.518  0.1067 -0.3577  0.0934
 2389poe    c2311380   0.736   6.349   5.517 -0.0062 -0.0703  0.5689
 2389poe     o211381   0.734   6.209   5.533 -0.1829 -0.1462 -0.1018
 2389poe    c2311382   0.620   6.132   5.503 -0.7274  0.2708  0.8608
 2389poe    c2311383   0.620   5.991   5.563  0.5578 -0.0409  0.1562
 2389poe     o211384   0.743   5.935   5.521  0.4080  0.0286 -0.3708
 2389poe    c2311385   0.747   5.808   5.582 -0.3211  0.1842  0.0134
 2389poe    c2311386   0.860   5.720   5.526 -0.1273  0.2473  0.3035
 2389poe     o211387   0.980   5.789   5.555 -0.0515  0.0497  0.4639
 2389poe    c3111388   1.089   5.701   5.542 -0.2438 -0.0991 -0.1646
 2390poe    c3111389   1.950   5.201   1.360  0.0521 -0.0555  0.1550
 2390poe     o211390   1.975   5.277   1.475  0.2121  0.7105 -0.3810
 2390poe    c2311391   2.106   5.329   1.468  0.4853  0.0306 -0.3631
 2390poe    c2311392   2.140   5.388   1.606  0.1141 -0.3383 -0.1110
 2390poe     o211393   2.089   5.519   1.620  0.0138 -0.4048  0.1593
 2390poe    c2311394   2.143   5.582   1.734  0.8902  0.0278 -0.4818
 2390poe    c2311395   2.108   5.732   1.732 -0.6314 -0.2943  0.0764
 2390poe     o211396   2.151   5.812   1.623  0.4160 -0.1286  0.5943
 2390poe    c2311397   2.109   5.946   1.636  0.1172 -0.1794  0.1676
 2390poe    c2311398   2.180   6.033   1.741 -0.0230  0.4817 -0.2807
 2390poe     o211399   2.320   6.048   1.736  0.0601 -0.1585 -0.0173
 2390poe    c3111400   2.379   6.093   1.857  0.1881 -0.3283 -0.0171
 2391poe    c3111401   0.489   6.474   0.485  0.3791  0.0161 -0.1597
 2391poe     o211402   0.554   6.351   0.510 -0.1624 -0.2583 -0.0854
 2391poe    c2311403   0.463   6.243   0.504 -0.9398  0.3507  0.4156
 2391poe    c2311404   0.530   6.109   0.537 -0.7521  0.1991 -0.5515
 2391poe     o211405   0.607   6.142   0.650  0.1341 -0.0872 -1.0578
 2391poe    c2311406   0.702   6.046   0.691 -0.2481  0.2408  0.6934
 2391poe    c2311407   0.785   6.094   0.811  0.4096  0.3478  0.2041
 2391poe     o211408   0.803   6.230   0.777 -0.2563  0.2542 -0.5528
 2391poe    c2311409   0.897   6.303   0.852 -0.3008 -0.2943  0.0481
 2391poe    c2311410   0.859   6.339   0.997  0.6497  0.5681  0.0974
 2391poe     o211411   0.733   6.403   1.003  0.7629  0.8814 -0.7361
 2391poe    c3111412   0.710   6.469   1.125 -0.1206 -0.6794 -0.0428
 2392poe    c3111413   0.220   1.055   3.207  0.3435  0.3040 -0.3410
 2392poe     o211414   0.360   1.075   3.212  0.3185  0.3408  0.3454
 2392poe    c2311415   0.399   1.156   3.103 -0.5606 -0.4701 -0.5990
 2392poe    c2311416   0.525   1.235   3.144 -0.6466 -0.5448 -0.1831
 2392poe     o211417   0.604   1.135   3.204 -0.1295 -0.2540 -0.3698
 2392poe    c2311418   0.717   1.192   3.265 -0.4809  0.1240 -0.0686
 2392poe    c2311419   0.816   1.082   3.309 -0.3053  0.4584  0.3815
 2392poe     o211420   0.743   0.996   3.394  0.1861 -0.0793  0.2606
 2392poe    c2311421   0.823   0.881   3.409  0.2335 -0.0717  0.0691
 2392poe    c2311422   0.759   0.770   3.495 -0.5858  0.4790  0.1857
 2392poe     o211423   0.630   0.729   3.458 -0.6530  0.4227  0.4831
 2392poe    c3111424   0.602   0.605   3.519  0.2529 -0.1537 -0.2478
 2393poe    c3111425   5.213   1.287   1.847  0.2702 -0.6578 -0.4605
 2393poe     o211426   5.078   1.309   1.815  0.0595 -0.1046  0.7301
 2393poe    c2311427   5.055   1.443   1.778  0.0849 -0.3170 -0.0933
 2393poe    c2311428   4.917   1.457   1.711 -0.1748 -0.1269  0.4704
 2393poe     o211429   4.829   1.416   1.812 -0.1324 -0.6990  0.2786
 2393poe    c2311430   4.699   1.471   1.804  0.0669 -0.2488  0.1343
 2393poe    c2311431   4.612   1.364   1.872  0.3223 -0.3884  0.2445
 2393poe     o211432   4.649   1.343   2.006  0.0656  0.1590  0.4011
 2393poe    c2311433   4.550   1.262   2.065  0.0846 -0.1293  0.0386
 2393poe    c2311434   4.603   1.206   2.199 -0.4480 -0.0442  0.2852
 2393poe     o211435   4.736   1.161   2.189 -0.6522 -0.5005 -0.4460
 2393poe    c3111436   4.790   1.158   2.319 -1.0460 -0.1615 -0.2725
 2394poe    c3111437   3.652   2.005   2.961 -0.0410  0.7471 -0.2396
 2394poe     o211438   3.602   1.906   2.874  0.1207  0.4265  0.0297
 2394poe    c2311439   3.716   1.841   2.824 -0.2264  0.3736 -0.7042
 2394poe    c2311440   3.703   1.807   2.674 -0.5301  0.0822 -0.6116
 2394poe     o211441   3.662   1.918   2.599 -0.2990  0.6746  0.1304
 2394poe    c2311442   3.675   1.895   2.460  0.7297 -0.2420  0.3639
 2394poe    c2311443   3.617   2.017   2.386 -0.4965 -0.7980  0.3825
 2394poe     o211444   3.493   2.061   2.435 -0.0351  1.0029  0.0216
 2394poe    c2311445   3.410   2.123   2.340 -0.4108  0.2822 -0.1253
 2394poe    c2311446   3.262   2.125   2.382 -0.4780  0.4056 -0.3637
 2394poe     o211447   3.264   2.167   2.517 -0.2936 -0.4387 -0.1015
 2394poe    c3111448   3.135   2.160   2.572 -0.1720  0.2024  0.2662
 2395poe    c3111449   3.893   3.395   3.876 -0.8053 -0.8064  0.1560
 2395poe     o211450   3.976   3.391   3.762  0.0346  0.3255  0.7114
 2395poe    c2311451   4.053   3.507   3.740  0.3769  0.0430  0.4271
 2395poe    c2311452   4.103   3.496   3.594  0.0583 -0.2493  0.3390
 2395poe     o211453   4.198   3.395   3.570 -0.2799 -0.3714 -0.5147
 2395poe    c2311454   4.251   3.438   3.446 -0.2752 -0.0450 -0.4022
 2395poe    c2311455   4.358   3.343   3.390 -0.2900 -0.2880 -0.0217
 2395poe     o211456   4.319   3.210   3.417 -0.1011 -0.3473 -0.0375
 2395poe    c2311457   4.432   3.126   3.410  0.0343 -0.1669 -0.0349
 2395poe    c2311458   4.395   2.987   3.466 -0.0905 -0.0497  0.1722
 2395poe     o211459   4.309   3.001   3.577  0.4674  0.2528  0.5733
 2395poe    c3111460   4.255   2.885   3.636  0.4582 -0.3194 -0.5177
 2396poe    c3111461   3.585   4.627   7.255 -0.6676 -0.0450  1.2627
 2396poe     o211462   3.669   4.625   7.368  0.2309 -0.1191  0.6123
 2396poe    c2311463   3.678   4.504   7.440 -0.0291 -0.6823 -0.2900
 2396poe    c2311464   3.757   4.387   7.377  0.2750 -0.5606 -0.1391
 2396poe     o211465   3.896   4.408   7.384  0.1751  0.1089 -0.0624
 2396poe    c2311466   3.964   4.294   7.335  0.3333  0.2215 -0.1046
 2396poe    c2311467   4.116   4.312   7.351  0.3652  0.0424 -0.2103
 2396poe     o211468   4.160   4.261   7.474  0.0121  0.1485 -0.0388
 2396poe    c2311469   4.150   4.340   7.590 -0.0404  0.1608 -0.0521
 2396poe    c2311470   4.191   4.282   7.727 -0.1313 -0.7161 -0.3910
 2396poe     o211471   4.330   4.270   7.740 -0.1689  0.0111  0.8786
 2396poe    c3111472   4.360   4.205   7.862  0.0338 -0.0794  0.7829
 2397poe    c3111473   5.371   3.371   0.559 -0.3309 -0.3591  0.4795
 2397poe     o211474   5.316   3.424   0.677  0.1791  0.4461  0.3589
 2397poe    c2311475   5.217   3.522   0.650 -0.0553 -0.0014 -0.4317
 2397poe    c2311476   5.123   3.532   0.771  0.5636  0.8714 -0.0110
 2397poe     o211477   5.190   3.554   0.894  0.3945 -0.3405  0.3131
 2397poe    c2311478   5.104   3.511   0.997  0.1639 -0.1669  0.1946
 2397poe    c2311479   5.132   3.581   1.131  0.2999 -0.3030  0.2376
 2397poe     o211480   5.270   3.577   1.160  0.4257  1.0905 -0.1412
 2397poe    c2311481   5.306   3.583   1.296  0.4087 -0.8378 -0.0236
 2397poe    c2311482   5.459   3.568   1.310  0.5223  0.2572  0.0463
 2397poe     o211483   5.508   3.652   1.208 -0.0836  0.7129  0.1268
 2397poe    c3111484   5.641   3.694   1.231  0.2190 -0.3204  0.3192
 2398poe    c3111485   1.005   7.186   5.482  0.9701 -0.1489 -0.3435
 2398poe     o211486   1.026   7.298   5.566  0.7337 -0.8435  0.6650
 2398poe    c2311487   0.953   7.265   5.682  0.2258 -0.0929  0.5661
 2398poe    c2311488   0.983   7.368   5.792 -0.2579 -0.0414  0.6503
 2398poe     o211489   0.965   7.502   5.753 -0.1887 -0.1300  0.3141
 2398poe    c2311490   0.866   7.556   5.838 -0.0170  0.5870  0.0711
 2398poe    c2311491   0.922   7.658   5.938  0.5452  0.1507  0.2124
 2398poe     o211492   1.018   7.747   5.886  0.0396  0.2008 -0.6688
 2398poe    c2311493   1.041   7.836   5.993  0.2395  0.3721 -0.8513
 2398poe    c2311494   1.149   7.945   5.983  0.4868  0.1831 -0.2769
 2398poe     o211495   1.271   7.884   5.945  0.4769 -0.2782  0.4022
 2398poe    c3111496   1.375   7.967   5.992  0.5906 -0.1860 -0.0017
 2399poe    c3111497   2.142   5.661   4.956  0.0653  0.2443  0.4540
 2399poe     o211498   2.190   5.682   5.087  0.5260  0.5304  0.2447
 2399poe    c2311499   2.197   5.557   5.153 -0.7827  0.3250  0.0206
 2399poe    c2311500   2.190   5.570   5.306 -0.0093 -0.4788  0.1298
 2399poe     o211501   2.303   5.637   5.357  0.1836 -0.6413 -0.0796
 2399poe    c2311502   2.300   5.632   5.498  0.1467  0.3232 -0.0421
 2399poe    c2311503   2.231   5.757   5.556  0.1617  0.5673 -0.5414
 2399poe     o211504   2.281   5.888   5.544  0.0285  0.6477 -0.2508
 2399poe    c2311505   2.376   5.936   5.637  0.1340  0.0624 -0.0577
 2399poe    c2311506   2.311   6.036   5.733  0.3421 -0.4659  0.6453
 2399poe     o211507   2.235   6.130   5.660  0.4860 -0.7507  0.1265
 2399poe    c3111508   2.192   6.247   5.727 -0.2702 -0.6422 -0.5297
 2400poe    c3111509   0.707   0.678   1.614  0.7850 -0.5311  0.4469
 2400poe     o211510   0.677   0.723   1.744 -0.0436 -0.0461  0.0977
 2400poe    c2311511   0.680   0.608   1.826  0.5234  0.2108  0.4443
 2400poe    c2311512   0.625   0.615   1.970 -0.0099 -0.1508  0.2639
 2400poe     o211513   0.629   0.493   2.040  0.2765 -0.1087  0.3221
 2400poe    c2311514   0.635   0.518   2.179  0.0736  0.4620  0.2290
 2400poe    c2311515   0.674   0.407   2.277 -0.0697 -0.0542 -0.2938
 2400poe     o211516   0.567   0.344   2.345 -0.0899 -0.3187 -0.5707
 2400poe    c2311517   0.612   0.211   2.364  0.2525 -0.1988 -0.5308
 2400poe    c2311518   0.517   0.138   2.460  0.2664  0.4440 -0.0233
 2400poe     o211519   0.391   0.125   2.398  0.4273 -0.1949 -0.2176
 2400poe    c3111520   0.293   0.097   2.495  0.6786 -0.4936 -0.0467
 2401poe    c3111521   4.186   6.511   4.700  0.4396 -0.3808 -0.1987
 2401poe     o211522   4.219   6.607   4.799 -0.3707 -0.3282  0.0325
 2401poe    c2311523   4.338   6.576   4.868 -0.1630  0.2734 -0.0456
 2401poe    c2311524   4.384   6.702   4.943  0.0343  0.2450 -0.1198
 2401poe     o211525   4.274   6.739   5.023 -0.2225 -0.6054 -0.0694
 2401poe    c2311526   4.285   6.820   5.137  0.2822 -0.4663 -0.2133
 2401poe    c2311527   4.147   6.878   5.174  0.2603 -0.4261 -0.3577
 2401poe     o211528   4.042   6.786   5.156 -0.4457  0.3371 -0.1994
 2401poe    c2311529   4.002   6.730   5.279  0.3286 -0.0727 -0.1284
 2401poe    c2311530   3.863   6.662   5.276  0.1695  0.2241  0.4309
 2401poe     o211531   3.861   6.547   5.196 -0.4635  0.6974 -0.2409
 2401poe    c3111532   3.739   6.476   5.186 -0.4119  0.4858  0.5378
 2402poe    c3111533   2.385   7.174   5.565  0.9964  0.2867 -0.1801
 2402poe     o211534   2.310   7.267   5.488 -0.2661 -0.1730  0.4615
 2402poe    c2311535   2.218   7.202   5.404 -0.1810  0.1164  0.1464
 2402poe    c2311536   2.146   7.319   5.334  0.1611 -0.0616 -0.5161
 2402poe     o211537   2.240   7.409   5.282 -0.0294  0.0483 -0.6730
 2402poe    c2311538   2.171   7.508   5.209 -0.1161 -0.2807 -1.0332
 2402poe    c2311539   2.274   7.618   5.182 -0.1295  0.1724  0.7043
 2402poe     o211540   2.379   7.626   5.276 -0.1402 -0.4693  0.7763
 2402poe    c2311541   2.475   7.724   5.242  0.0599 -0.9929 -0.1952
 2402poe    c2311542   2.606   7.718   5.323 -0.6378 -0.5557  0.9940
 2402poe     o211543   2.663   7.596   5.281 -0.0912  0.1650 -0.4254
 2402poe    c3111544   2.796   7.569   5.320 -0.2605 -0.0379  0.0276
 2403poe    c3111545   2.172   2.330   5.886 -0.2150  1.0536  0.4057
 2403poe     o211546   2.299   2.391   5.889  0.5227 -0.3813 -0.2760
 2403poe    c2311547   2.401   2.301   5.855 -0.1433 -1.1078 -0.3763
 2403poe    c2311548   2.541   2.348   5.900 -0.5760 -0.2293  0.0737
 2403poe     o211549   2.544   2.327   6.039 -0.4033 -1.0193 -0.0410
 2403poe    c2311550   2.667   2.280   6.089  0.1954  0.6235  0.1058
 2403poe    c2311551   2.665   2.300   6.241  0.2739  0.2257  0.1599
 2403poe     o211552   2.697   2.433   6.275 -0.0779  0.4701 -0.4504
 2403poe    c2311553   2.756   2.427   6.403  0.4751  0.0514 -0.7175
 2403poe    c2311554   2.789   2.556   6.481  0.0687  0.0624 -0.5607
 2403poe     o211555   2.892   2.617   6.408  0.4058  0.1196 -0.0414
 2403poe    c3111556   2.929   2.742   6.463  0.1599  0.3918 -0.4918
 2404poe    c3111557   0.062   5.460   4.315  0.7295  0.4339 -0.4068
 2404poe     o211558  -0.022   5.348   4.302  0.8004  0.2489  0.6481
 2404poe    c2311559   0.054   5.231   4.322  0.0573 -0.3466  0.0405
 2404poe    c2311560  -0.034   5.104   4.316 -0.2554 -0.1299  0.0102
 2404poe     o211561  -0.106   5.075   4.434  0.2262  0.2444  0.4014
 2404poe    c2311562  -0.041   4.989   4.524  0.3049  0.0305  0.1392
 2404poe    c2311563  -0.105   5.010   4.663  0.0065  0.0383  0.0013
 2404poe     o211564  -0.243   4.980   4.662 -0.0898  0.4636  0.3121
 2404poe    c2311565  -0.261   4.924   4.790 -0.0763 -0.9670 -0.2905
 2404poe    c2311566  -0.408   4.878   4.796 -0.3728  0.0112  0.0570
 2404poe     o211567  -0.490   4.979   4.741  0.6347  0.7377 -0.1275
 2404poe    c3111568  -0.619   4.928   4.718  0.8066 -0.0709  0.6545
 2405poe    c3111569   2.665   4.838   3.180  0.0078 -0.1135 -0.2341
 2405poe     o211570   2.550   4.920   3.179  0.1732  0.1238  0.0355
 2405poe    c2311571   2.546   5.013   3.072  0.2823 -0.2297 -0.2783
 2405poe    c2311572   2.627   5.142   3.094 -0.5584  0.3587 -0.5816
 2405poe     o211573   2.566   5.178   3.215  0.0776  0.6824 -0.3528
 2405poe    c2311574   2.567   5.317   3.240  0.9008  0.5010  0.6915
 2405poe    c2311575   2.511   5.358   3.378  0.0306 -0.2318  0.5675
 2405poe     o211576   2.376   5.322   3.397 -0.0266 -0.3923 -0.0922
 2405poe    c2311577   2.325   5.345   3.527 -0.7168  0.3452 -0.4889
 2405poe    c2311578   2.177   5.302   3.522 -0.8196  0.4568  1.2439
 2405poe     o211579   2.146   5.170   3.483  0.0371  0.5160  0.3416
 2405poe    c3111580   2.035   5.104   3.538  0.4126 -0.3266  0.0995
 2406poe    c3111581   6.398   5.990   1.058  0.0151 -0.1332  0.0911
 2406poe     o211582   6.313   6.100   1.033  0.3699 -0.0262 -0.6736
 2406poe    c2311583   6.376   6.225   1.045 -0.0198  0.1707 -0.6731
 2406poe    c2311584   6.270   6.337   1.030  0.1171  0.4226  0.1377
 2406poe     o211585   6.141   6.301   1.073  0.0514  0.0858 -0.3285
 2406poe    c2311586   6.048   6.405   1.088  0.0809  0.0264  0.2743
 2406poe    c2311587   5.921   6.343   1.151  0.4403 -0.4711  0.5125
 2406poe     o211588   5.842   6.260   1.070 -0.1744 -0.0150  0.6355
 2406poe    c2311589   5.732   6.215   1.146 -0.0752 -0.5651  0.4651
 2406poe    c2311590   5.664   6.112   1.054  0.0736 -0.4904  0.2714
 2406poe     o211591   5.749   6.009   1.008 -0.1299 -0.5941  0.1278
 2406poe    c3111592   5.687   5.928   0.911  0.6318 -0.7560 -0.2280
 2407poe    c3111593   0.375   0.930   1.569  0.0842  0.6932  0.4551
 2407poe     o211594   0.255   0.998   1.543 -0.4225 -0.2539  0.2436
 2407poe    c2311595   0.262   1.139   1.528 -0.2303 -0.3112 -0.2235
 2407poe    c2311596   0.119   1.189   1.505 -0.3736 -0.3423  0.5597
 2407poe     o211597   0.066   1.098   1.411 -0.6748 -0.1594  0.5502
 2407poe    c2311598  -0.057   1.148   1.363 -0.4306 -0.1002 -0.0139
 2407poe    c2311599  -0.175   1.130   1.460 -0.2884 -0.0603  0.1663
 2407poe     o211600  -0.201   0.992   1.463 -0.0325 -0.1153 -0.0982
 2407poe    c2311601  -0.319   0.965   1.535  0.1634 -0.5220  0.0796
 2407poe    c2311602  -0.333   0.821   1.588 -0.6091 -0.3016  0.4879
 2407poe     o211603  -0.233   0.768   1.671 -0.1233 -0.7954 -0.4045
 2407poe    c3111604  -0.293   0.664   1.745  0.0640  0.0569  0.9798
 2408poe    c3111605   1.703   2.940   1.446 -0.1672  0.1070  0.2889
 2408poe     o211606   1.668   3.068   1.400  0.0989  0.1381  0.1668
 2408poe    c2311607   1.538   3.115   1.431  0.0212  0.0004  0.0515
 2408poe    c2311608   1.436   3.085   1.321 -0.1529 -0.3883  0.3144
 2408poe     o211609   1.416   2.953   1.277  0.3713 -0.4609  0.2917
 2408poe    c2311610   1.276   2.938   1.264  0.3182  0.1514  0.1611
 2408poe    c2311611   1.231   2.792   1.280 -0.7365  0.4399 -0.0947
 2408poe     o211612   1.265   2.706   1.174 -0.0880  0.0977  0.3840
 2408poe    c2311613   1.177   2.596   1.165  0.6356 -0.4567 -0.0497
 2408poe    c2311614   1.233   2.498   1.060 -0.5255 -0.5516 -0.5972
 2408poe     o211615   1.290   2.580   0.960  0.1729  0.2161  0.4008
 2408poe    c3111616   1.330   2.506   0.847 -0.0349  0.4970  0.1403
 2409poe    c3111617   1.092   4.006   1.931 -0.1823  0.2804 -0.3902
 2409poe     o211618   1.218   3.945   1.919 -0.4819 -0.4075 -0.1190
 2409poe    c2311619   1.236   3.822   1.985  0.6086  0.0306  0.4316
 2409poe    c2311620   1.248   3.829   2.138  0.2775  0.6142  0.4363
 2409poe     o211621   1.381   3.870   2.159  0.4476  0.1969  0.1723
 2409poe    c2311622   1.405   3.914   2.290 -0.7649  0.2662  0.3797
 2409poe    c2311623   1.533   3.848   2.346  0.0192  1.4950  0.0573
 2409poe     o211624   1.643   3.910   2.283  0.2625  0.3667 -0.6452
 2409poe    c2311625   1.767   3.864   2.332  0.2503 -0.5982 -1.4698
 2409poe    c2311626   1.864   3.984   2.320  0.2924 -0.4645  0.0405
 2409poe     o211627   1.867   4.010   2.182 -0.2442  0.7242  0.2392
 2409poe    c3111628   1.974   4.102   2.171  0.1826  0.2590  0.4414
 2410poe    c3111629   3.633   7.185   0.344  0.0970 -0.8216  0.1537
 2410poe     o211630   3.514   7.109   0.348 -0.3279 -0.1776 -0.0580
 2410poe    c2311631   3.501   7.019   0.240  0.0129 -0.0028 -0.2483
 2410poe    c2311632   3.357   6.965   0.228 -0.1682  0.3481  0.3071
 2410poe     o211633   3.272   7.036   0.142 -0.0083 -0.0501 -0.1841
 2410poe    c2311634   3.195   6.945   0.066  0.2333  0.0340 -0.5346
 2410poe    c2311635   3.102   7.023  -0.028  0.3229 -0.0966 -0.7311
 2410poe     o211636   3.068   7.143   0.038  0.5332 -0.2845 -0.2815
 2410poe    c2311637   2.965   7.204  -0.036 -0.0241 -0.5061  0.3071
 2410poe    c2311638   2.898   7.321   0.038 -0.0187 -0.2911 -0.0244
 2410poe     o211639   3.011   7.397   0.076 -0.1024 -0.1275 -0.1058
 2410poe    c3111640   2.967   7.529   0.098 -0.1139 -0.2304  0.4812
 2411poe    c3111641   4.679   2.105   4.169 -1.1210  0.7686 -0.1640
 2411poe     o211642   4.606   2.067   4.055 -0.0874 -0.7472 -0.3529
 2411poe    c2311643   4.468   2.092   4.044  0.0018 -0.2584 -0.3836
 2411poe    c2311644   4.414   2.013   3.924 -0.4361 -0.0874 -0.3035
 2411poe     o211645   4.375   1.881   3.956  0.2160 -0.2497 -0.1534
 2411poe    c2311646   4.351   1.817   3.832 -0.4344  0.3182 -0.3291
 2411poe    c2311647   4.282   1.685   3.871 -0.1306 -0.1719 -1.4161
 2411poe     o211648   4.377   1.589   3.913 -0.4008  0.2457  0.2159
 2411poe    c2311649   4.343   1.452   3.919 -0.4533  0.2217 -0.6060
 2411poe    c2311650   4.291   1.373   3.797  0.1627 -0.4839 -0.4158
 2411poe     o211651   4.293   1.234   3.817  0.5616 -0.3896  0.2214
 2411poe    c3111652   4.274   1.155   3.702  0.2285 -0.4426  0.3105
 2412poe    c3111653   3.696   5.519   1.954  0.2706 -0.0058 -0.8136
 2412poe     o211654   3.669   5.409   1.869 -0.0540 -0.3346 -0.2923
 2412poe    c2311655   3.642   5.445   1.736 -1.1609  0.5768  0.1693
 2412poe    c2311656   3.551   5.335   1.677  0.4587 -0.1602 -1.0124
 2412poe     o211657   3.641   5.230   1.648  0.0362 -1.0717  0.7997
 2412poe    c2311658   3.582   5.134   1.563 -0.2767 -0.0354 -0.1854
 2412poe    c2311659   3.580   4.996   1.631 -0.4128 -0.1175 -0.3546
 2412poe     o211660   3.489   5.002   1.738  0.2775 -0.4038  0.2586
 2412poe    c2311661   3.462   4.886   1.814 -0.6116 -0.4243 -0.0759
 2412poe    c2311662   3.579   4.867   1.912 -0.3521 -0.0222 -0.3031
 2412poe     o211663   3.695   4.794   1.879 -0.2322 -0.1514  0.3888
 2412poe    c3111664   3.786   4.792   1.987  0.4024  0.6919 -0.1195
 2413poe    c3111665   6.046   0.574   2.192 -0.7318  0.0686  0.2773
 2413poe     o211666   6.078   0.677   2.101 -0.3340 -0.1725  0.1439
 2413poe    c2311667   6.048   0.801   2.161 -0.4493 -0.1096 -0.0456
 2413poe    c2311668   6.021   0.915   2.060  0.1541  0.2401  0.1846
 2413poe     o211669   6.130   0.934   1.974  0.5974  0.2124  0.7349
 2413poe    c2311670   6.091   1.033   1.881  0.2097 -0.1275  0.5332
 2413poe    c2311671   6.216   1.070   1.800  0.1061 -0.0593  0.4060
 2413poe     o211672   6.268   0.969   1.716  0.6193  0.2087  0.3965
 2413poe    c2311673   6.391   1.009   1.661  0.5818 -0.4992 -0.2102
 2413poe    c2311674   6.457   0.897   1.577  1.3159  0.1868 -0.5705
 2413poe     o211675   6.509   0.796   1.661 -0.2327 -0.1515  0.0242
 2413poe    c3111676   6.539   0.686   1.579  0.4033  0.2332 -0.2637
 2414poe    c3111677   6.440   0.941   7.021  0.2364  0.6270  0.3131
 2414poe     o211678   6.322   0.997   7.074 -0.4388 -0.4400 -0.0304
 2414poe    c2311679   6.258   0.917   7.172 -0.5154 -0.1922  0.1233
 2414poe    c2311680   6.173   1.009   7.261 -0.2202 -0.3552  0.5755
 2414poe     o211681   6.090   1.076   7.168  0.9087  0.4558  0.1271
 2414poe    c2311682   6.017   1.187   7.215 -0.0248  0.1502 -0.5786
 2414poe    c2311683   5.933   1.233   7.094 -0.1790  0.1568 -0.4696
 2414poe     o211684   6.019   1.248   6.984  0.0855 -0.2955 -0.3260
 2414poe    c2311685   5.958   1.300   6.868  0.2514  0.5380 -0.0470
 2414poe    c2311686   6.063   1.359   6.773 -0.3304  0.5080 -0.7114
 2414poe     o211687   6.099   1.495   6.781 -0.0919  0.4037  0.0324
 2414poe    c3111688   5.993   1.572   6.728 -0.4283  0.2083  0.4151
 2415poe    c3111689   5.149   2.953   4.379  0.5210 -0.1042 -0.2224
 2415poe     o211690   5.013   2.983   4.361  0.5539  0.2444  0.0875
 2415poe    c2311691   4.992   3.093   4.276 -0.3046  0.0629  0.0534
 2415poe    c2311692   4.845   3.131   4.306 -0.2594  0.3216 -0.0452
 2415poe     o211693   4.758   3.022   4.285  0.2605  0.0091 -0.6323
 2415poe    c2311694   4.625   3.067   4.296  0.4999  0.5742 -0.0181
 2415poe    c2311695   4.536   2.980   4.206  0.2958  0.5403  0.2137
 2415poe     o211696   4.539   2.854   4.269  0.0436  0.2353 -0.3698
 2415poe    c2311697   4.431   2.792   4.336  0.3711  0.1543  0.0905
 2415poe    c2311698   4.437   2.810   4.489 -0.4571  0.4779  0.0890
 2415poe     o211699   4.536   2.742   4.563 -0.4847  0.3823  0.0382
 2415poe    c3111700   4.500   2.761   4.698  0.5765  0.1818  0.3545
 2416poe    c3111701   6.142   5.372   2.918  0.0355 -0.2036  0.3871
 2416poe     o211702   6.208   5.316   2.807 -0.1243  0.3302  0.0193
 2416poe    c2311703   6.339   5.367   2.789 -0.0718  0.1495 -0.1104
 2416poe    c2311704   6.412   5.339   2.656 -0.1449  0.6400 -0.2564
 2416poe     o211705   6.447   5.203   2.643 -0.0214  0.6914 -0.4640
 2416poe    c2311706   6.486   5.156   2.516 -0.3833 -0.0567 -0.3056
 2416poe    c2311707   6.380   5.172   2.405  0.1069  0.5599 -0.6872
 2416poe     o211708   6.295   5.060   2.397  0.2347  0.4451 -0.4272
 2416poe    c2311709   6.201   5.064   2.292 -0.1309  0.3018 -0.1103
 2416poe    c2311710   6.060   5.003   2.301 -0.0983  0.2419  0.0012
 2416poe     o211711   5.969   5.082   2.375  0.2315  0.4556  0.1827
 2416poe    c3111712   5.853   5.004   2.390  0.5927 -0.0837  0.1926
 2417poe    c3111713   3.239   2.497   0.549 -0.3054  0.0759 -0.1575
 2417poe     o211714   3.370   2.515   0.499 -0.1637  0.4773  0.3526
 2417poe    c2311715   3.462   2.419   0.545  0.0619  0.3965 -0.2638
 2417poe    c2311716   3.610   2.444   0.509  0.1946  0.2326  0.1705
 2417poe     o211717   3.626   2.457   0.370 -0.5212  0.7843  0.1344
 2417poe    c2311718   3.753   2.495   0.323 -0.4009  0.3514  0.1046
 2417poe    c2311719   3.753   2.433   0.182  0.1354 -0.4573  0.4512
 2417poe     o211720   3.628   2.454   0.120  0.1731  0.2358  0.5958
 2417poe    c2311721   3.634   2.400  -0.011 -0.0760 -0.8129  1.0049
 2417poe    c2311722   3.503   2.393  -0.091  0.0966  0.4314  0.5915
 2417poe     o211723   3.398   2.321  -0.030  0.2164  0.0029  0.3010
 2417poe    c3111724   3.299   2.300  -0.129  0.7628 -0.3276 -0.1819
 2418poe    c3111725   1.341   3.400   6.545  0.2589  0.8907 -0.1459
 2418poe     o211726   1.342   3.502   6.643 -0.4333  0.4397  0.3431
 2418poe    c2311727   1.467   3.518   6.708 -0.5051  0.2825  0.5213
 2418poe    c2311728   1.579   3.578   6.621 -0.1797  0.0811  0.7998
 2418poe     o211729   1.559   3.715   6.591 -0.3085 -0.2179 -0.5315
 2418poe    c2311730   1.635   3.730   6.474  0.0489  0.4407 -0.2186
 2418poe    c2311731   1.552   3.747   6.345  0.0412  0.4112 -0.2174
 2418poe     o211732   1.479   3.865   6.367 -0.4388  0.0833 -0.0371
 2418poe    c2311733   1.428   3.892   6.238 -0.0960 -0.0570 -0.2004
 2418poe    c2311734   1.345   4.021   6.241 -0.2523 -0.1629  0.0616
 2418poe     o211735   1.226   3.999   6.314 -0.1709 -0.2247  0.1779
 2418poe    c3111736   1.126   4.091   6.276 -0.3171 -0.0789  0.9147
 2419poe    c3111737   4.409   3.513   4.707  0.7153  0.1394  0.2316
 2419poe     o211738   4.420   3.575   4.581  0.4122 -0.0889  0.0925
 2419poe    c2311739   4.294   3.628   4.543  0.4730 -0.0521 -0.0609
 2419poe    c2311740   4.327   3.736   4.439  0.7824  0.1199  0.2154
 2419poe     o211741   4.404   3.850   4.470  0.4049  0.4258  0.0346
 2419poe    c2311742   4.325   3.960   4.510  0.0028  0.0715  0.2105
 2419poe    c2311743   4.384   4.050   4.620 -0.0279  0.2555  0.0777
 2419poe     o211744   4.399   4.013   4.755  0.1585  0.2709  0.0627
 2419poe    c2311745   4.492   3.916   4.797 -0.0191 -0.2990 -0.8453
 2419poe    c2311746   4.502   3.887   4.948 -0.9347  0.2180 -0.6749
 2419poe     o211747   4.527   3.997   5.033  0.1566 -0.3195 -0.2849
 2419poe    c3111748   4.527   3.949   5.166 -0.2898  0.0871 -0.1390
 2420poe    c3111749   4.843   5.625   1.845 -0.7808 -0.2998  0.7459
 2420poe     o211750   4.766   5.706   1.760  0.2199 -0.1136 -0.0052
 2420poe    c2311751   4.754   5.634   1.639 -0.0253  0.0454 -0.0760
 2420poe    c2311752   4.644   5.693   1.549 -0.4482 -0.1468  0.3131
 2420poe     o211753   4.644   5.834   1.551  0.0203 -0.1496  0.6574
 2420poe    c2311754   4.518   5.870   1.497  0.2283 -0.0797  0.2167
 2420poe    c2311755   4.487   6.021   1.502 -0.9518 -0.3281  0.5452
 2420poe     o211756   4.496   6.082   1.628  0.0401  0.1184  0.2629
 2420poe    c2311757   4.469   6.220   1.612 -0.6284 -0.0267  0.1284
 2420poe    c2311758   4.499   6.277   1.752  0.1430  0.5018 -0.2467
 2420poe     o211759   4.588   6.204   1.833  0.0958  0.9519  0.2230
 2420poe    c3111760   4.615   6.250   1.963  0.1159 -0.2014  0.6413
 2421poe    c3111761   0.917   0.446   4.274 -0.1063  0.0780 -0.1220
 2421poe     o211762   0.834   0.555   4.240 -0.2040 -0.1072 -0.4839
 2421poe    c2311763   0.762   0.543   4.120  0.0570 -0.7875 -0.5768
 2421poe    c2311764   0.732   0.682   4.061  0.1869 -0.7521 -0.5573
 2421poe     o211765   0.835   0.737   3.981  0.2679  0.2296  0.2004
 2421poe    c2311766   0.822   0.873   3.946  0.4101  0.2816  0.3503
 2421poe    c2311767   0.955   0.940   3.908  0.3856  0.2686  0.2412
 2421poe     o211768   1.045   0.963   4.014  0.9542 -0.1431 -0.1456
 2421poe    c2311769   1.171   1.006   3.966  0.7915 -0.3372 -0.7542
 2421poe    c2311770   1.274   1.019   4.079  0.2720 -0.1140 -0.3004
 2421poe     o211771   1.300   0.894   4.139 -0.5068  0.1111  0.5255
 2421poe    c3111772   1.307   0.915   4.278 -0.3343  0.1177  0.5160
 2422poe    c3111773   1.116   2.751   1.625  0.8649  0.0452  0.4071
 2422poe     o211774   1.006   2.723   1.709  0.7123 -0.4390  0.0474
 2422poe    c2311775   0.927   2.620   1.653 -0.0357  0.1510  0.0108
 2422poe    c2311776   0.801   2.588   1.735  0.0513 -0.2627 -0.0192
 2422poe     o211777   0.712   2.697   1.746 -0.0753 -0.3448 -0.2220
 2422poe    c2311778   0.591   2.674   1.815  0.0229 -0.2222 -0.0076
 2422poe    c2311779   0.504   2.797   1.843  0.3555 -0.0551  0.2969
 2422poe     o211780   0.578   2.905   1.895  0.3073  0.1681 -0.0890
 2422poe    c2311781   0.502   2.999   1.968  0.2468  0.0009  0.0644
 2422poe    c2311782   0.598   3.113   2.008  0.2762  0.0062 -0.0200
 2422poe     o211783   0.724   3.058   2.036  0.3491  0.2196  0.0685
 2422poe    c3111784   0.781   3.141   2.135  0.3282  0.4996 -0.1554
 2423poe    c3111785   4.358   6.022   3.628 -0.2355 -0.5983  0.3122
 2423poe     o211786   4.457   5.941   3.689  0.1772  0.0250  0.4861
 2423poe    c2311787   4.554   5.930   3.587 -0.2005  0.1107  0.1108
 2423poe    c2311788   4.674   5.842   3.628  0.2000  0.6646  0.1394
 2423poe     o211789   4.634   5.734   3.709  0.7268 -0.0126 -0.4874
 2423poe    c2311790   4.745   5.684   3.780  0.2272 -0.4037  0.0301
 2423poe    c2311791   4.695   5.560   3.856 -0.1384 -0.3317 -0.0928
 2423poe     o211792   4.587   5.588   3.943 -0.3958  0.1604 -0.5632
 2423poe    c2311793   4.534   5.464   3.985 -0.0303  0.1710 -0.0517
 2423poe    c2311794   4.405   5.498   4.062 -0.0264 -0.0109  0.0350
 2423poe     o211795   4.310   5.565   3.981 -0.5131 -0.3627  0.3120
 2423poe    c3111796   4.180   5.561   4.034 -0.6268 -0.8034  0.0006
 2424poe    c3111797   0.839   5.739   1.766 -0.6880  0.0252  0.0980
 2424poe     o211798   0.699   5.733   1.775 -0.6736 -0.2096  0.1924
 2424poe    c2311799   0.638   5.803   1.881 -0.5310  0.7403 -0.3372
 2424poe    c2311800   0.487   5.832   1.879 -0.7100 -0.0956  0.3486
 2424poe     o211801   0.444   5.905   1.766 -0.4433 -0.6144 -0.0899
 2424poe    c2311802   0.402   6.037   1.793 -0.4907 -0.6680  0.1025
 2424poe    c2311803   0.342   6.082   1.658  0.2150 -0.2530 -0.0770
 2424poe     o211804   0.211   6.030   1.646  0.5053 -1.0266  0.0532
 2424poe    c2311805   0.167   6.050   1.514  0.3662 -0.4973  0.1798
 2424poe    c2311806   0.042   5.967   1.479  0.0749  0.1062 -0.2338
 2424poe     o211807  -0.073   5.971   1.561  0.4737 -0.2720  0.3478
 2424poe    c3111808  -0.185   6.001   1.482  0.3692 -0.1128  0.5552
 2425poe    c3111809   0.777   5.799   6.966 -0.3177  0.0077  0.1428
 2425poe     o211810   0.880   5.846   6.881  0.0072 -0.3127  0.3568
 2425poe    c2311811   0.847   5.959   6.804  0.5551 -0.4088 -0.0259
 2425poe    c2311812   0.973   6.031   6.755  0.2122  0.5045  0.4059
 2425poe     o211813   1.047   5.956   6.661 -0.4258  0.2250  0.1232
 2425poe    c2311814   1.158   6.038   6.630 -0.7382  0.4139 -0.5286
 2425poe    c2311815   1.250   5.948   6.546  0.6165  0.5577  0.7619
 2425poe     o211816   1.270   5.832   6.624  0.3711  0.2374  0.3525
 2425poe    c2311817   1.350   5.738   6.556 -0.2418 -0.4026  0.5083
 2425poe    c2311818   1.389   5.632   6.661  0.3944 -0.1279  0.5570
 2425poe     o211819   1.267   5.588   6.716  0.0070  0.3365  0.0816
 2425poe    c3111820   1.290   5.463   6.776 -0.2955  0.0303 -0.4303
 2426poe    c3111821   2.781   4.975   0.302  0.0632 -0.1885  0.4050
 2426poe     o211822   2.741   5.100   0.252 -0.1217 -0.2738  0.3380
 2426poe    c2311823   2.601   5.119   0.246 -0.1102 -0.3575 -0.3101
 2426poe    c2311824   2.565   5.235   0.152  0.2061  0.1743  0.2155
 2426poe     o211825   2.620   5.223   0.023  0.5633  0.0478  0.3789
 2426poe    c2311826   2.561   5.311  -0.071 -0.0620 -1.0169 -0.2476
 2426poe    c2311827   2.634   5.338  -0.203 -0.9775 -0.1339 -0.5853
 2426poe     o211828   2.621   5.210  -0.260 -0.0551 -0.3371 -0.3548
 2426poe    c2311829   2.707   5.191  -0.371  0.0677  0.4012 -0.3924
 2426poe    c2311830   2.745   5.048  -0.415  0.2342  0.2361  0.2767
 2426poe     o211831   2.848   5.071  -0.508  0.0233 -0.2393 -0.0810
 2426poe    c3111832   2.906   4.953  -0.557  0.2521 -0.0491 -0.2708
 2427poe    c3111833   5.267   3.876   1.006  0.2747  0.0172  0.5656
 2427poe     o211834   5.351   3.776   0.953 -0.2777  0.1290 -0.5473
 2427poe    c2311835   5.393   3.816   0.824  0.6002  0.2683 -0.2207
 2427poe    c2311836   5.544   3.788   0.810  0.5475 -0.1389  0.0202
 2427poe     o211837   5.581   3.653   0.827  0.2334 -0.2495 -0.1569
 2427poe    c2311838   5.693   3.631   0.745  0.3933  0.3172 -0.0950
 2427poe    c2311839   5.761   3.502   0.795 -0.8555 -0.4970 -0.4544
 2427poe     o211840   5.686   3.389   0.757 -0.9214 -0.5883 -0.0547
 2427poe    c2311841   5.746   3.277   0.819  0.4241 -0.0793 -0.4262
 2427poe    c2311842   5.654   3.155   0.806 -0.2385  0.3973 -0.2520
 2427poe     o211843   5.635   3.097   0.679 -0.1803 -0.0318 -0.0658
 2427poe    c3111844   5.570   2.972   0.690  0.1378 -0.1896  0.0372
 2428poe    c3111845   2.587   4.989   6.435 -0.0916 -0.2614  0.0284
 2428poe     o211846   2.674   5.091   6.477 -0.3889  0.0618 -0.1401
 2428poe    c2311847   2.601   5.206   6.515  0.2398  0.3537  0.2151
 2428poe    c2311848   2.701   5.318   6.548  0.0239  0.3214  1.0019
 2428poe     o211849   2.798   5.352   6.451 -0.3919 -0.2838  0.3634
 2428poe    c2311850   2.898   5.439   6.499 -0.5240  0.4299 -0.6125
 2428poe    c2311851   2.942   5.519   6.376  0.6492  0.5414 -0.1352
 2428poe     o211852   2.990   5.415   6.294 -0.3356  0.2828 -0.3975
 2428poe    c2311853   3.040   5.453   6.167  0.5225 -0.0691 -0.1732
 2428poe    c2311854   3.048   5.335   6.069  0.5055 -0.5981  0.4564
 2428poe     o211855   2.931   5.257   6.082  0.2242 -0.2258  0.1818
 2428poe    c3111856   2.919   5.136   6.011  0.5576 -0.2190  0.1109
 2429poe    c3111857   3.738   4.255   0.986 -0.5127  0.0884  0.2474
 2429poe     o211858   3.755   4.355   1.083 -0.8065  0.3528  0.0287
 2429poe    c2311859   3.895   4.377   1.092 -0.8275  0.3088  0.4842
 2429poe    c2311860   3.945   4.522   1.098 -0.6375  0.2329  0.7971
 2429poe     o211861   4.012   4.564   1.214  0.5868  0.1714  0.1276
 2429poe    c2311862   4.067   4.693   1.213  0.0982  0.3835  0.4650
 2429poe    c2311863   4.150   4.723   1.340 -0.0477  0.7255  0.4825
 2429poe     o211864   4.067   4.718   1.453 -0.3597  0.5966  0.2489
 2429poe    c2311865   4.122   4.708   1.582  0.1377 -0.3568 -0.0295
 2429poe    c2311866   4.013   4.674   1.685  0.2030  0.2733  0.2488
 2429poe     o211867   3.943   4.554   1.663  0.0150  0.4538 -0.1466
 2429poe    c3111868   3.843   4.518   1.755  0.1979 -0.6780 -0.3706
 2430poe    c3111869   6.859   2.416   1.472 -0.4326  0.1801  0.4259
 2430poe     o211870   6.965   2.457   1.555  0.3786 -0.1034 -0.4525
 2430poe    c2311871   7.058   2.353   1.574  0.0948 -0.3862 -0.6152
 2430poe    c2311872   7.029   2.246   1.682 -0.4432  0.4070  0.0384
 2430poe     o211873   6.923   2.166   1.636 -0.2647 -0.1647  0.6123
 2430poe    c2311874   6.902   2.072   1.739 -0.1295 -0.1576  0.6465
 2430poe    c2311875   6.806   1.953   1.718  0.2592 -0.3489 -0.0957
 2430poe     o211876   6.864   1.870   1.621  0.1071 -0.4754 -0.0788
 2430poe    c2311877   6.800   1.744   1.618  0.2153 -0.5501  0.6671
 2430poe    c2311878   6.864   1.645   1.518  0.1772 -0.0025  0.0948
 2430poe     o211879   6.864   1.699   1.388  0.0710  0.3287  0.2290
 2430poe    c3111880   6.916   1.591   1.313 -0.1240 -0.1185  0.7282
 2431poe    c3111881   5.764   1.051   1.334 -0.9424  0.0692  0.5673
 2431poe     o211882   5.805   1.084   1.465  0.0124 -0.1477  0.3307
 2431poe    c2311883   5.699   1.159   1.521  0.1327  0.3157 -0.0505
 2431poe    c2311884   5.731   1.245   1.645  0.6467 -0.0560  0.0811
 2431poe     o211885   5.857   1.308   1.639  0.5630  0.0766 -0.3401
 2431poe    c2311886   5.881   1.402   1.741 -0.1123  0.0692 -0.1719
 2431poe    c2311887   5.986   1.510   1.711  0.2354 -0.1145  0.3741
 2431poe     o211888   6.102   1.455   1.651 -0.3297  0.2400 -1.0630
 2431poe    c2311889   6.205   1.551   1.650 -0.0750 -0.0185 -0.1247
 2431poe    c2311890   6.274   1.597   1.520  0.1984 -0.6134 -0.1903
 2431poe     o211891   6.170   1.640   1.435  0.4263 -0.0224 -0.1734
 2431poe    c3111892   6.219   1.643   1.303 -0.4669  1.3312 -0.4871
 2432poe    c3111893   5.906   6.230   1.810  0.2859 -0.4178 -0.5454
 2432poe     o211894   5.822   6.205   1.921  0.7835  0.0957 -0.0437
 2432poe    c2311895   5.874   6.236   2.048  0.1734  0.6472  0.0816
 2432poe    c2311896   5.753   6.207   2.140 -0.1971 -0.1925 -0.6499
 2432poe     o211897   5.641   6.278   2.091 -0.3902 -0.0690 -0.0288
 2432poe    c2311898   5.521   6.232   2.150 -0.2772 -0.2507  0.0621
 2432poe    c2311899   5.398   6.265   2.064  0.4553  1.0052 -0.5456
 2432poe     o211900   5.383   6.182   1.951  0.8505 -0.4580  0.4418
 2432poe    c2311901   5.253   6.222   1.913  0.8321 -0.2521  0.7158
 2432poe    c2311902   5.225   6.193   1.764 -0.0796  0.4708  0.7417
 2432poe     o211903   5.308   6.267   1.677 -0.2898 -0.2168 -0.0550
 2432poe    c3111904   5.268   6.249   1.543  0.2498  0.1335 -0.2680
 2433poe    c3111905   1.646   2.481   2.197 -0.6917 -0.0405 -0.5113
 2433poe     o211906   1.705   2.559   2.095 -0.0200  0.2664  0.1089
 2433poe    c2311907   1.644   2.539   1.970 -0.0888  0.1141  0.1663
 2433poe    c2311908   1.687   2.649   1.871 -0.1533 -0.5146 -0.5662
 2433poe     o211909   1.635   2.775   1.908  0.1190 -0.5392 -0.0992
 2433poe    c2311910   1.619   2.870   1.806 -0.2612 -0.2967  0.1847
 2433poe    c2311911   1.593   3.012   1.861 -0.1215 -0.2145  0.0378
 2433poe     o211912   1.708   3.092   1.875 -0.1204 -0.2298  0.1114
 2433poe    c2311913   1.753   3.185   1.780  0.7933 -0.3859  0.3790
 2433poe    c2311914   1.853   3.289   1.835 -0.1174  0.6068  0.1855
 2433poe     o211915   1.814   3.374   1.941 -0.3714 -0.0351  0.6119
 2433poe    c3111916   1.930   3.441   1.984 -0.3027  0.3858 -0.2032
 2434poe    c3111917   4.671   4.791   6.729 -0.3439  0.0514  0.3861
 2434poe     o211918   4.616   4.874   6.629 -0.1377  0.0275  0.2522
 2434poe    c2311919   4.504   4.943   6.681  0.1745  0.8486 -0.1442
 2434poe    c2311920   4.445   5.044   6.582 -0.3816  0.3019 -0.3764
 2434poe     o211921   4.522   5.161   6.560 -0.0291  0.1640  0.1043
 2434poe    c2311922   4.442   5.258   6.496  0.0810  0.2278  0.0636
 2434poe    c2311923   4.504   5.399   6.484  0.3718  0.1593  0.7048
 2434poe     o211924   4.606   5.392   6.388 -0.2717  0.0411  0.0162
 2434poe    c2311925   4.628   5.511   6.315  0.1923  0.0029  0.0875
 2434poe    c2311926   4.512   5.554   6.223  0.2562  0.0451  0.0264
 2434poe     o211927   4.425   5.654   6.270  0.5200  0.1872  0.2111
 2434poe    c3111928   4.350   5.708   6.164 -0.4950 -0.7615  0.4343
 2435poe    c3111929   6.656   3.546   1.642 -0.4654  0.5520 -0.0568
 2435poe     o211930   6.612   3.610   1.524 -0.2781  0.3357 -0.2465
 2435poe    c2311931   6.490   3.559   1.475 -0.4796  0.2170  0.3578
 2435poe    c2311932   6.475   3.601   1.327  0.0857 -0.1562  0.1934
 2435poe     o211933   6.574   3.557   1.236  0.1721  0.3661  0.0354
 2435poe    c2311934   6.547   3.633   1.120  0.5018  0.4068 -0.0154
 2435poe    c2311935   6.620   3.769   1.112  0.2445  0.5364 -0.1569
 2435poe     o211936   6.756   3.760   1.147  0.2683 -0.2637 -0.4172
 2435poe    c2311937   6.830   3.854   1.073 -0.2010  0.0043 -0.5520
 2435poe    c2311938   6.982   3.830   1.076 -0.2620 -0.2843  0.5006
 2435poe     o211939   7.028   3.721   0.999  0.6841  0.2094  0.3493
 2435poe    c3111940   7.073   3.597   1.049 -0.2290 -0.3651 -0.2126
 2436poe    c3111941   5.395   5.409   3.966 -0.5967 -0.1738  0.2651
 2436poe     o211942   5.374   5.474   3.843  0.0210 -0.2854  0.0977
 2436poe    c2311943   5.261   5.556   3.863  0.2025  0.1276 -0.5248
 2436poe    c2311944   5.234   5.648   3.742  0.7933  0.1644 -0.6311
 2436poe     o211945   5.162   5.580   3.641 -0.5013  0.3804  0.1263
 2436poe    c2311946   5.033   5.628   3.611 -0.6355  0.3024  0.5606
 2436poe    c2311947   4.963   5.509   3.542  0.2090  0.1789 -0.1051
 2436poe     o211948   5.023   5.482   3.417  0.2810  0.1998 -0.0745
 2436poe    c2311949   4.985   5.359   3.361  0.5679 -0.4817  1.1852
 2436poe    c2311950   5.060   5.338   3.228 -0.0824 -0.2093  0.7743
 2436poe     o211951   5.189   5.283   3.220  0.0433  0.1830 -0.0853
 2436poe    c3111952   5.237   5.286   3.088  0.5311 -0.1832  0.0816
 2437poe    c3111953   2.155   6.009   0.735 -0.4909 -0.3376  0.6176
 2437poe     o211954   2.053   5.937   0.669  0.3174 -0.3246 -0.6831
 2437poe    c2311955   1.923   5.990   0.669  0.3173 -0.3002  0.2560
 2437poe    c2311956   1.825   5.893   0.600  0.2218 -0.3003  0.3928
 2437poe     o211957   1.862   5.867   0.467 -1.0215 -0.5145  0.0775
 2437poe    c2311958   1.791   5.764   0.401 -0.3367 -0.6523 -0.4495
 2437poe    c2311959   1.869   5.633   0.428 -0.0666 -0.4110 -0.0531
 2437poe     o211960   1.831   5.571   0.549 -0.2714  0.0523  0.1239
 2437poe    c2311961   1.909   5.457   0.573  0.2568  0.3609 -0.1081
 2437poe    c2311962   2.028   5.478   0.669  0.0744  0.0858  0.1822
 2437poe     o211963   1.975   5.515   0.795 -0.5538 -0.1378 -0.0117
 2437poe    c3111964   2.071   5.529   0.897 -0.3956  0.7161 -0.2676
 2438poe    c3111965   0.417   3.662   4.343  0.2106 -0.6489  0.1537
 2438poe     o211966   0.484   3.782   4.372 -0.7643  0.0023 -0.2410
 2438poe    c2311967   0.502   3.855   4.253 -0.0685  0.2543  0.0096
 2438poe    c2311968   0.602   3.969   4.277  0.1503  0.1383 -0.3336
 2438poe     o211969   0.710   3.934   4.360 -0.2865  0.1487  0.2521
 2438poe    c2311970   0.792   4.045   4.391  0.1841 -0.0277 -0.3348
 2438poe    c2311971   0.914   4.014   4.479  0.1916 -0.1185 -0.3777
 2438poe     o211972   0.864   3.958   4.598  0.7367  0.0338 -0.0710
 2438poe    c2311973   0.951   3.909   4.698 -0.0363 -0.8385  0.1895
 2438poe    c2311974   1.034   3.785   4.659  0.2578 -0.4055 -0.5893
 2438poe     o211975   0.953   3.675   4.624 -0.4244 -0.1546  0.1596
 2438poe    c3111976   1.010   3.560   4.681 -0.3274 -0.3774 -0.3769
 2439poe    c3111977   5.580   4.515   2.162 -0.1598  0.0814  0.1957
 2439poe     o211978   5.573   4.392   2.231 -0.4312 -0.1959 -0.3285
 2439poe    c2311979   5.660   4.400   2.341 -0.5232 -0.5362 -0.2278
 2439poe    c2311980   5.683   4.269   2.418  0.2145 -0.1781  0.1699
 2439poe     o211981   5.749   4.163   2.351 -0.1118  0.0701 -0.5539
 2439poe    c2311982   5.658   4.098   2.266 -0.6349 -0.0084  0.0584
 2439poe    c2311983   5.734   4.002   2.172 -0.4641 -0.1298  0.3213
 2439poe     o211984   5.831   3.932   2.246 -0.2321  0.0106  0.1512
 2439poe    c2311985   5.896   3.850   2.151  0.6775  0.1356  0.6556
 2439poe    c2311986   6.043   3.806   2.164  0.6068 -0.1165  0.6139
 2439poe     o211987   6.077   3.734   2.281 -0.0858 -0.0938  0.8324
 2439poe    c3111988   6.211   3.753   2.320  0.1405 -0.2078  0.1322
 2440poe    c3111989   5.500   2.385   0.120 -0.6238 -0.1671  0.1974
 2440poe     o211990   5.488   2.276   0.031 -0.2154 -0.4794  0.5219
 2440poe    c2311991   5.610   2.207   0.046 -0.2386 -0.4820  0.7031
 2440poe    c2311992   5.633   2.104  -0.066  0.2316  0.0867  0.2694
 2440poe     o211993   5.520   2.025  -0.092  0.2337  0.1459  0.0737
 2440poe    c2311994   5.534   1.964  -0.218 -0.3564  0.0936  0.0291
 2440poe    c2311995   5.435   1.846  -0.231 -0.1983 -0.1514  0.9768
 2440poe     o211996   5.305   1.898  -0.246  0.0157  0.1532  0.1128
 2440poe    c2311997   5.203   1.800  -0.258 -0.1359  0.3542 -0.2535
 2440poe    c2311998   5.181   1.750  -0.401 -0.7286 -0.4446  0.1129
 2440poe     o211999   5.152   1.847  -0.500 -0.1856 -0.6350 -0.2343
 2440poe    c3112000   5.085   1.806  -0.617 -0.3358 -0.4550 -0.2109
 2441poe    c3112001   3.536   4.082   3.317  0.3284 -0.2658 -0.2115
 2441poe     o212002   3.450   4.178   3.373  0.3326 -0.6956  0.5518
 2441poe    c2312003   3.324   4.158   3.314  0.5537  0.4701 -0.3582
 2441poe    c2312004   3.217   4.234   3.395  0.4229  0.0976 -0.1788
 2441poe     o212005   3.240   4.373   3.404 -0.4639  0.1926  0.7730
 2441poe    c2312006   3.144   4.448   3.332  0.1000 -0.2026 -0.4078
 2441poe    c2312007   3.143   4.595   3.378  0.9235 -0.5536  0.7933
 2441poe     o212008   3.268   4.660   3.366  0.7871 -0.3848  0.2633
 2441poe    c2312009   3.255   4.787   3.424  0.3263  0.2454 -1.1579
 2441poe    c2312010   3.386   4.828   3.494  0.0410 -0.3037 -0.2875
 2441poe     o212011   3.421   4.744   3.602 -0.0015  0.0080 -0.0278
 2441poe    c3112012   3.386   4.812   3.720  0.9033  0.1023  0.1936
 2442poe    c3112013   0.751   3.185   5.543 -0.3912 -0.3450 -0.8651
 2442poe     o212014   0.748   3.312   5.482  0.5861  0.1172  0.0342
 2442poe    c2312015   0.716   3.405   5.583 -0.5662 -0.1628 -0.0619
 2442poe    c2312016   0.701   3.545   5.521 -0.0114 -0.0299  0.0976
 2442poe     o212017   0.610   3.546   5.413  0.2107 -0.5990 -0.0950
 2442poe    c2312018   0.508   3.641   5.434  0.5016 -0.2252 -0.3727
 2442poe    c2312019   0.405   3.625   5.321 -0.3334  0.4872  0.2733
 2442poe     o212020   0.477   3.599   5.202 -0.0855 -0.0340  0.5355
 2442poe    c2312021   0.399   3.616   5.085 -0.3114 -0.3758  0.6315
 2442poe    c2312022   0.485   3.573   4.965 -0.5266 -0.2990  0.4500
 2442poe     o212023   0.558   3.456   4.996  1.1402  0.5504 -0.1147
 2442poe    c3112024   0.624   3.398   4.886  0.0894 -0.4080 -0.2560
 2443poe    c3112025   2.682   3.406   1.925 -0.1125  0.2721  0.2026
 2443poe     o212026   2.726   3.273   1.947  0.6955  0.5174  0.1190
 2443poe    c2312027   2.702   3.210   1.824  0.2258  0.0875  0.4268
 2443poe    c2312028   2.736   3.061   1.844  0.3988  0.0448 -0.1701
 2443poe     o212029   2.658   3.000   1.944  0.4052 -0.0232 -0.2069
 2443poe    c2312030   2.662   2.860   1.932 -0.3025 -0.0745  0.1073
 2443poe    c2312031   2.596   2.796   2.056 -0.3254  0.0392  0.1533
 2443poe     o212032   2.640   2.873   2.166 -0.1118  0.3114 -0.1181
 2443poe    c2312033   2.551   2.865   2.275 -0.3688  0.6661 -0.3011
 2443poe    c2312034   2.612   2.944   2.392  0.0165  0.0657 -0.0937
 2443poe     o212035   2.750   2.967   2.373 -0.1629  0.8063 -0.5141
 2443poe    c3112036   2.820   3.024   2.481  0.5010 -0.7027 -0.1232
 2444poe    c3112037   5.346   5.881   1.212  0.1189 -0.0707 -0.1299
 2444poe     o212038   5.219   5.903   1.268  0.1012 -0.4689 -0.0114
 2444poe    c2312039   5.204   5.865   1.402  0.0684 -0.3034  0.0322
 2444poe    c2312040   5.057   5.902   1.428  0.1648  0.1260 -0.0215
 2444poe     o212041   5.035   6.039   1.451 -0.1770  0.0341  0.2174
 2444poe    c2312042   4.902   6.054   1.495 -0.2487  0.0716 -0.0110
 2444poe    c2312043   4.889   6.168   1.597 -0.8094  0.1598 -0.1798
 2444poe     o212044   4.897   6.292   1.532  0.2592  0.1314 -0.1178
 2444poe    c2312045   4.887   6.399   1.623 -0.6375 -0.1369  0.1060
 2444poe    c2312046   4.982   6.511   1.578 -1.2791  0.4102  0.0896
 2444poe     o212047   4.950   6.557   1.449 -0.4731  0.2982 -0.1546
 2444poe    c3112048   5.059   6.638   1.409 -0.1611 -0.0043  0.0719
 2445poe    c3112049   5.390   5.792   2.148  0.3694  0.4815 -0.1861
 2445poe     o212050   5.479   5.747   2.247 -0.2376  0.3917  0.3231
 2445poe    c2312051   5.423   5.712   2.372 -0.1771 -0.4370  0.1171
 2445poe    c2312052   5.522   5.623   2.450 -0.5310 -0.5647  0.4248
 2445poe     o212053   5.589   5.534   2.364 -0.0897 -0.2501  0.4410
 2445poe    c2312054   5.671   5.429   2.412  0.0857 -0.4157 -0.2122
 2445poe    c2312055   5.698   5.330   2.298 -0.3904  0.2981 -0.9630
 2445poe     o212056   5.782   5.392   2.203 -0.1410  0.2718 -0.7604
 2445poe    c2312057   5.802   5.322   2.082 -0.3143 -0.4111 -0.3971
 2445poe    c2312058   5.924   5.387   2.015  0.1158 -0.2039  0.5665
 2445poe     o212059   5.877   5.495   1.937  0.0004 -0.2059  0.6324
 2445poe    c3112060   5.972   5.529   1.839 -0.9236  0.8570  0.0850
 2446poe    c3112061   3.217   2.562   3.866 -0.2951  0.1974  0.2811
 2446poe     o212062   3.194   2.692   3.819  0.9405  0.4807  0.4288
 2446poe    c2312063   3.165   2.776   3.929 -0.1399  0.1423  0.4175
 2446poe    c2312064   3.167   2.928   3.906 -1.2796 -0.0044 -0.7459
 2446poe     o212065   3.287   2.977   3.850 -0.6058 -0.5722  0.1721
 2446poe    c2312066   3.261   3.109   3.809  0.4846 -0.4799 -0.2665
 2446poe    c2312067   3.391   3.190   3.799  0.0535  0.2309 -0.1836
 2446poe     o212068   3.465   3.116   3.704  0.1575 -0.1712  0.2104
 2446poe    c2312069   3.602   3.150   3.703  0.1209 -0.0126  0.4708
 2446poe    c2312070   3.672   3.051   3.608  0.4432  0.5652  0.1003
 2446poe     o212071   3.641   2.919   3.647  0.2987  0.6385  0.2331
 2446poe    c3112072   3.763   2.852   3.626 -0.1496  0.1164 -0.7895
 2447poe    c3112073   2.142   6.281   4.986 -0.5324  0.2399  0.3347
 2447poe     o212074   2.006   6.281   4.948 -0.2659  0.8191 -0.6522
 2447poe    c2312075   1.933   6.265   5.067 -0.0557  0.9628 -0.5035
 2447poe    c2312076   1.779   6.263   5.063 -0.0565  0.1631 -0.2890
 2447poe     o212077   1.718   6.383   5.106  0.6294  0.4403 -0.0783
 2447poe    c2312078   1.580   6.362   5.124  0.6870  0.2995  0.2015
 2447poe    c2312079   1.471   6.467   5.153  0.3172 -0.0443  0.0706
 2447poe     o212080   1.492   6.535   5.275  0.3089 -0.1906  0.1549
 2447poe    c2312081   1.375   6.607   5.305  0.3851 -0.1574  0.3722
 2447poe    c2312082   1.384   6.646   5.454 -0.1980 -0.0967  0.3938
 2447poe     o212083   1.360   6.539   5.542 -0.2479 -0.3265  0.1004
 2447poe    c3112084   1.317   6.588   5.667 -0.3123  0.3685 -0.1904
 2448poe    c3112085   5.579   3.756   3.569  1.0050  0.4409 -0.0409
 2448poe     o212086   5.523   3.636   3.521 -0.1697  0.9392  0.0592
 2448poe    c2312087   5.386   3.659   3.493 -0.1961 -0.1593 -0.7624
 2448poe    c2312088   5.335   3.517   3.463  0.3132 -0.4512 -0.2582
 2448poe     o212089   5.383   3.435   3.568  0.3162 -0.1185  0.0015
 2448poe    c2312090   5.341   3.301   3.568  0.0953 -0.0495  0.0274
 2448poe    c2312091   5.396   3.205   3.675 -0.0176 -0.3571 -0.1900
 2448poe     o212092   5.527   3.245   3.707 -0.1981  0.0107  0.0984
 2448poe    c2312093   5.560   3.167   3.820 -0.2201 -0.3127 -0.1181
 2448poe    c2312094   5.704   3.203   3.861 -0.2133  0.1506 -0.5439
 2448poe     o212095   5.704   3.337   3.906 -0.1456 -0.1562  0.3812
 2448poe    c3112096   5.832   3.389   3.932 -0.2444  0.4890 -0.4173
 2449poe    c3112097   2.283   3.776   5.961 -0.2052 -0.2086  0.3699
 2449poe     o212098   2.401   3.842   6.001 -0.1691  0.0202 -0.1017
 2449poe    c2312099   2.389   3.973   6.052 -0.1649 -0.1268  0.2823
 2449poe    c2312100   2.490   4.055   5.970 -0.2267 -0.1386  0.1936
 2449poe     o212101   2.625   4.042   6.010 -0.1647  0.0157  0.0358
 2449poe    c2312102   2.710   4.138   5.951 -0.2526  0.4283  0.5757
 2449poe    c2312103   2.820   4.171   6.054  0.8343  0.3479 -0.5368
 2449poe     o212104   2.879   4.061   6.118 -0.3102  0.1919  0.2925
 2449poe    c2312105   2.999   4.096   6.183  0.1512  0.0475 -0.4644
 2449poe    c2312106   3.110   3.992   6.160 -0.1051 -0.2448 -0.3732
 2449poe     o212107   3.089   3.883   6.246  0.0697  0.1543  0.1749
 2449poe    c3112108   3.205   3.804   6.233  0.3261  0.4971  0.3476
 2450poe    c3112109   6.609   3.574   5.782  0.5827  0.0223  0.1636
 2450poe     o212110   6.701   3.566   5.676 -0.1562 -0.2083 -0.4682
 2450poe    c2312111   6.670   3.466   5.582  0.6986  0.0168 -0.9981
 2450poe    c2312112   6.739   3.330   5.610  0.4216  0.0585 -0.0778
 2450poe     o212113   6.876   3.345   5.581  0.4160  0.1644 -0.0550
 2450poe    c2312114   6.943   3.222   5.597 -0.0212 -0.0307  0.2851
 2450poe    c2312115   7.089   3.255   5.634  0.1544 -0.3186 -0.1451
 2450poe     o212116   7.137   3.362   5.557 -0.2447  0.3675  0.5509
 2450poe    c2312117   7.251   3.422   5.615  0.1266 -0.0524  0.2665
 2450poe    c2312118   7.314   3.508   5.504  0.0438  0.0579  0.3049
 2450poe     o212119   7.218   3.602   5.460 -0.2888 -0.2741  0.3237
 2450poe    c3112120   7.263   3.663   5.341 -0.0730 -0.3041  0.3884
 2451poe    c3112121   6.086   4.111   6.202  0.0255  0.1475 -0.6808
 2451poe     o212122   6.182   4.211   6.227  0.4862 -0.5505  0.3653
 2451poe    c2312123   6.270   4.219   6.118  0.0453 -0.1138  0.0375
 2451poe    c2312124   6.355   4.347   6.111 -0.1695  0.0263 -0.0151
 2451poe     o212125   6.444   4.354   6.220  0.2497  0.1626 -0.3621
 2451poe    c2312126   6.537   4.458   6.202  0.7038 -0.0845  0.4810
 2451poe    c2312127   6.589   4.501   6.340  0.1685  0.4357  0.5257
 2451poe     o212128   6.605   4.378   6.407 -0.7860  0.1317  0.2111
 2451poe    c2312129   6.664   4.390   6.534  0.2171  0.3950 -0.2668
 2451poe    c2312130   6.694   4.246   6.577 -0.3594  0.3380 -0.0512
 2451poe     o212131   6.575   4.173   6.558 -0.0049 -0.3298  0.2548
 2451poe    c3112132   6.592   4.035   6.582 -0.1191 -0.4802 -0.4766
 2452poe    c3112133   0.540   6.994   3.247  0.0307  0.6163  0.2578
 2452poe     o212134   0.488   7.108   3.183 -0.9696 -0.3473 -0.6874
 2452poe    c2312135   0.503   7.219   3.269  0.7393 -0.8242 -0.3299
 2452poe    c2312136   0.611   7.318   3.222  0.1435 -0.1540 -0.3051
 2452poe     o212137   0.736   7.287   3.280  0.1019  0.0530 -0.1034
 2452poe    c2312138   0.850   7.369   3.266 -0.2104  0.4641 -0.2747
 2452poe    c2312139   0.928   7.375   3.399 -0.6054 -0.5000  0.0115
 2452poe     o212140   0.894   7.457   3.509 -0.0425 -0.8531  0.4486
 2452poe    c2312141   0.795   7.404   3.595 -0.4496 -0.4669  0.2233
 2452poe    c2312142   0.768   7.501   3.712 -0.2526 -0.4133  0.2246
 2452poe     o212143   0.889   7.521   3.782 -0.0042 -0.1688 -0.2695
 2452poe    c3112144   0.859   7.509   3.919  0.8312  0.6239 -0.0060
 2453poe    c3112145   5.030   6.580   6.028  0.6861 -0.6957 -0.3881
 2453poe     o212146   4.971   6.706   6.006  0.0966 -0.7167  1.0143
 2453poe    c2312147   4.870   6.744   6.097 -0.1925  0.8089  0.0907
 2453poe    c2312148   4.728   6.686   6.085  0.3372 -0.5251  0.0752
 2453poe     o212149   4.676   6.704   5.955 -0.0223  0.0538  0.2948
 2453poe    c2312150   4.539   6.669   5.947  0.0874 -0.3224  0.0435
 2453poe    c2312151   4.536   6.595   5.812  0.0204 -0.4234  0.0998
 2453poe     o212152   4.572   6.678   5.703  0.3458 -0.0481  0.4870
 2453poe    c2312153   4.546   6.611   5.582  0.2815  0.4140  0.2433
 2453poe    c2312154   4.618   6.688   5.469 -0.3026  0.3739 -0.1597
 2453poe     o212155   4.629   6.822   5.509 -0.5109  0.3958 -0.1732
 2453poe    c3112156   4.722   6.897   5.433 -0.2687  0.4838  0.2057
 2454poe    c3112157   4.764   3.531   6.285 -0.1032  0.3788 -0.4599
 2454poe     o212158   4.870   3.575   6.367 -0.1433 -0.0458 -0.1791
 2454poe    c2312159   4.847   3.576   6.506 -0.1922 -0.3604 -0.1848
 2454poe    c2312160   4.983   3.606   6.572 -0.2752  0.1966 -0.2617
 2454poe     o212161   5.081   3.517   6.526 -0.5649 -0.3774  0.2092
 2454poe    c2312162   5.164   3.467   6.629 -0.0744  0.5228  0.2603
 2454poe    c2312163   5.301   3.532   6.606 -0.4936  1.2073 -0.3609
 2454poe     o212164   5.346   3.488   6.480  0.2403 -0.0273  0.3091
 2454poe    c2312165   5.458   3.568   6.449  0.0749  0.3229  0.6013
 2454poe    c2312166   5.517   3.527   6.312 -0.7771 -0.6783  0.5216
 2454poe     o212167   5.437   3.570   6.204 -0.1810 -0.0011  0.3426
 2454poe    c3112168   5.514   3.551   6.088 -1.1789 -0.5419 -0.2371
 2455poe    c3112169   3.026   3.993   1.680  0.5974  0.0941  0.2500
 2455poe     o212170   2.978   3.968   1.810 -0.1955 -0.1042 -0.0762
 2455poe    c2312171   3.088   3.954   1.896 -0.4361 -0.1144  0.2306
 2455poe    c2312172   3.042   3.928   2.041 -0.1968 -0.3425  0.2661
 2455poe     o212173   2.962   4.037   2.080 -0.3156 -0.1867 -0.3975
 2455poe    c2312174   2.903   4.015   2.207  0.2353  0.5241 -0.0099
 2455poe    c2312175   2.795   4.122   2.231 -0.2400  0.0432  0.0086
 2455poe     o212176   2.710   4.110   2.120  0.4745 -0.0300 -0.5384
 2455poe    c2312177   2.594   4.181   2.157  0.3524 -0.5057 -0.0104
 2455poe    c2312178   2.490   4.150   2.048  0.2148  0.1160 -0.0600
 2455poe     o212179   2.478   4.013   2.016  0.0565  0.0172  0.4065
 2455poe    c3112180   2.361   3.988   1.943  0.5295 -0.1582 -0.3023
 2456poe    c3112181   1.260   3.201   2.755  0.2457 -0.2230 -0.0826
 2456poe     o212182   1.249   3.200   2.615  0.0977 -0.6998 -0.0709
 2456poe    c2312183   1.122   3.155   2.573 -0.3388  0.4569 -0.0320
 2456poe    c2312184   1.119   3.142   2.419 -0.0512  0.1572 -0.0128
 2456poe     o212185   1.174   3.251   2.349  0.6151 -0.1647 -0.0037
 2456poe    c2312186   1.184   3.226   2.211 -0.2275 -0.1591 -0.0681
 2456poe    c2312187   1.307   3.292   2.147 -0.5326  0.6140  0.1342
 2456poe     o212188   1.425   3.277   2.223 -0.4453  0.1596 -0.0872
 2456poe    c2312189   1.534   3.334   2.155 -0.6377  0.1911 -0.3697
 2456poe    c2312190   1.659   3.264   2.213 -0.4280  0.3224 -0.6587
 2456poe     o212191   1.641   3.245   2.351  0.0834  0.3968 -0.5793
 2456poe    c3112192   1.761   3.206   2.414 -0.0093  0.6976 -0.2061
 2457poe    c3112193   2.339   2.647   4.432 -0.1637 -1.2983  1.1259
 2457poe     o212194   2.346   2.533   4.349  0.3658 -0.5878  0.1712
 2457poe    c2312195   2.299   2.418   4.417 -0.5525 -0.3949 -0.1165
 2457poe    c2312196   2.403   2.338   4.499  0.3401  0.3334 -0.5200
 2457poe     o212197   2.504   2.260   4.439  0.3528 -0.3304  0.3476
 2457poe    c2312198   2.621   2.282   4.514  0.1235 -0.0683  0.6297
 2457poe    c2312199   2.736   2.194   4.462  0.4520  0.5067  0.3775
 2457poe     o212200   2.724   2.057   4.496 -0.3231  0.5554  0.3321
 2457poe    c2312201   2.763   1.994   4.377  0.1759  0.3327  0.6104
 2457poe    c2312202   2.765   1.840   4.383 -0.2447  0.3153  0.2847
 2457poe     o212203   2.629   1.804   4.396 -0.0636 -0.4917  0.0472
 2457poe    c3112204   2.624   1.667   4.367 -0.5149 -0.5428  0.3509
 2458poe    c3112205   4.690   6.285   4.876  0.0518  0.2194  0.2386
 2458poe     o212206   4.639   6.319   4.750  0.3927  0.2483  0.1072
 2458poe    c2312207   4.674   6.446   4.699 -0.3216  0.3656 -0.1005
 2458poe    c2312208   4.623   6.462   4.555 -0.5008  0.5756 -0.0136
 2458poe     o212209   4.681   6.369   4.467 -0.8376  0.5855 -0.2489
 2458poe    c2312210   4.634   6.375   4.334  0.4249  0.4727 -0.7175
 2458poe    c2312211   4.701   6.265   4.250  0.3707 -0.0711 -0.0566
 2458poe     o212212   4.698   6.138   4.312  0.8625  0.0155  0.1530
 2458poe    c2312213   4.730   6.045   4.212 -0.2309 -0.1695 -0.0351
 2458poe    c2312214   4.703   5.910   4.281  0.5267 -0.3023  0.0083
 2458poe     o212215   4.729   5.916   4.420 -0.3064  0.1010  0.1562
 2458poe    c3112216   4.698   5.793   4.481  0.3331 -0.1067  0.0776
 2459poe    c3112217   6.512   4.252   2.890 -0.5321  0.0058 -0.6957
 2459poe     o212218   6.452   4.124   2.900  0.1209 -0.2464  0.0957
 2459poe    c2312219   6.507   4.003   2.854 -0.2777 -0.2014 -0.5013
 2459poe    c2312220   6.425   3.876   2.882  0.3527 -0.4022  0.4555
 2459poe     o212221   6.398   3.869   3.020  0.3568  1.0105  0.5382
 2459poe    c2312222   6.269   3.820   3.045  0.1040  1.2997 -0.1944
 2459poe    c2312223   6.224   3.814   3.192 -0.0610  0.1965 -0.2841
 2459poe     o212224   6.232   3.943   3.249  0.4583  0.0709 -0.0662
 2459poe    c2312225   6.212   3.955   3.388  0.1122 -0.1004 -0.0986
 2459poe    c2312226   6.063   3.976   3.422  0.1894 -0.4262  0.4465
 2459poe     o212227   5.987   3.861   3.392 -0.0682  0.0866 -0.9020
 2459poe    c3112228   5.856   3.900   3.355 -0.3695 -0.4873 -0.4627
 2460poe    c3112229   7.092   3.407   0.138  0.5665 -0.0558  0.7919
 2460poe     o212230   7.162   3.354   0.249 -0.1260 -0.7620  0.8978
 2460poe    c2312231   7.238   3.461   0.299  0.3030 -0.4963 -0.2712
 2460poe    c2312232   7.327   3.415   0.417  0.0732  0.1463  0.1622
 2460poe     o212233   7.255   3.414   0.538 -0.0159  0.2157  0.1097
 2460poe    c2312234   7.324   3.376   0.654 -0.0798 -0.2087  0.0092
 2460poe    c2312235   7.242   3.390   0.784 -0.3471  0.2636 -0.2095
 2460poe     o212236   7.171   3.271   0.812  0.1578  0.0108 -0.0039
 2460poe    c2312237   7.240   3.158   0.860  0.3472  0.1539  0.0664
 2460poe    c2312238   7.150   3.033   0.868 -0.1194  0.4937  0.1644
 2460poe     o212239   7.095   2.980   0.749  0.1136  0.2200  0.1770
 2460poe    c3112240   7.178   2.890   0.680  0.0131 -0.0914  0.4602
 2461poe    c3112241   2.423   0.174   4.312  0.8772 -0.8938 -0.0218
 2461poe     o212242   2.337   0.107   4.222 -0.2210  0.3279  0.0941
 2461poe    c2312243   2.411   0.107   4.102  0.5252 -0.3834  0.5393
 2461poe    c2312244   2.320   0.023   4.010 -0.0523  0.7548  0.0499
 2461poe     o212245   2.194   0.087   4.021 -0.3881  0.1074 -0.0030
 2461poe    c2312246   2.124   0.097   3.899  0.2860 -0.0014 -0.4051
 2461poe    c2312247   1.971   0.107   3.911  0.3127 -0.8699  0.8552
 2461poe     o212248   1.937   0.224   3.982  0.2526 -0.3588  0.0016
 2461poe    c2312249   1.796   0.230   3.983  0.2733  0.1154 -0.0369
 2461poe    c2312250   1.747   0.318   4.099  0.6896  0.3026 -0.0009
 2461poe     o212251   1.723   0.230   4.206 -0.3694  0.0703 -0.4175
 2461poe    c3112252   1.727   0.298   4.330 -0.3439  0.1046 -0.4373
 2462poe    c3112253   6.402   3.796   0.202 -0.2020 -0.0107 -0.3926
 2462poe     o212254   6.542   3.788   0.212 -0.2275  0.2031  0.1482
 2462poe    c2312255   6.599   3.855   0.102 -0.0720 -0.1484  0.0150
 2462poe    c2312256   6.752   3.860   0.117 -0.1086 -0.1904  0.4218
 2462poe     o212257   6.793   3.975   0.188 -0.3494 -0.3973  0.8968
 2462poe    c2312258   6.926   3.985   0.233 -0.0252  0.1068 -0.1518
 2462poe    c2312259   6.953   4.065   0.361  0.0765 -0.2608  0.0567
 2462poe     o212260   6.868   4.039   0.471  0.1750 -0.4120  0.0975
 2462poe    c2312261   6.905   4.083   0.600 -0.0038  0.4780 -0.1440
 2462poe    c2312262   6.798   4.003   0.679  0.3533 -0.0353 -0.1762
 2462poe     o212263   6.669   4.028   0.630  0.3182 -0.2351 -0.1861
 2462poe    c3112264   6.616   4.148   0.682 -0.0635 -0.3175 -0.3749
 2463poe    c3112265   5.811   3.774   0.440 -0.7684  0.0655  0.5785
 2463poe     o212266   5.816   3.634   0.428 -0.1793  0.1616 -0.3852
 2463poe    c2312267   5.943   3.577   0.405  0.0633  0.2978  0.5725
 2463poe    c2312268   5.953   3.429   0.446  0.5412  0.1853  0.0546
 2463poe     o212269   5.886   3.335   0.364  0.7930  0.1511 -0.1135
 2463poe    c2312270   5.888   3.200   0.404  0.3645  0.0504 -0.4265
 2463poe    c2312271   5.766   3.131   0.341 -0.1561  0.5479  0.0256
 2463poe     o212272   5.752   3.129   0.200 -0.1605  0.2075  0.0298
 2463poe    c2312273   5.678   3.010   0.181  0.1867  0.0481 -0.3363
 2463poe    c2312274   5.665   2.966   0.034 -0.0860  0.3732 -0.4107
 2463poe     o212275   5.558   3.025  -0.036 -0.2531  0.3260 -0.1986
 2463poe    c3112276   5.550   2.979  -0.169 -0.2003  0.0704 -0.1143
 2464poe    c3112277   4.075   0.089   4.763  0.3966 -0.3386  0.0273
 2464poe     o212278   4.204   0.140   4.791  0.4230 -0.2374 -0.2716
 2464poe    c2312279   4.205   0.203   4.918  0.2997  0.0895 -0.4327
 2464poe    c2312280   4.295   0.327   4.933  0.0736  0.1492  0.4403
 2464poe     o212281   4.393   0.338   4.832 -0.2707 -0.2243  0.0636
 2464poe    c2312282   4.478   0.450   4.840 -0.7379  0.1237  0.2331
 2464poe    c2312283   4.584   0.448   4.728 -0.3021 -1.3121  0.6433
 2464poe     o212284   4.528   0.414   4.603  0.3250 -0.0386 -0.0070
 2464poe    c2312285   4.613   0.424   4.492 -0.0355  0.4001 -0.2488
 2464poe    c2312286   4.536   0.390   4.363 -0.8299 -0.6727  0.4870
 2464poe     o212287   4.504   0.254   4.343 -0.0297 -0.8071  0.0470
 2464poe    c3112288   4.427   0.227   4.228 -0.0492 -0.4263 -0.0324
 2465poe    c3112289   7.106   7.216   6.912  0.1263  0.1174  0.2263
 2465poe     o212290   7.055   7.087   6.937 -0.0990  0.2470  0.4414
 2465poe    c2312291   7.122   7.024   7.045 -0.0963  0.2940  0.4674
 2465poe    c2312292   7.046   6.895   7.078  0.3492 -0.1056 -0.0561
 2465poe     o212293   7.079   6.778   7.006  0.4388 -0.2212  0.1703
 2465poe    c2312294   7.002   6.677   7.068  0.5446 -0.6172 -0.3403
 2465poe    c2312295   6.936   6.579   6.969  0.1420 -0.2963 -0.3894
 2465poe     o212296   6.821   6.614   6.895 -0.0854 -0.1092  0.0512
 2465poe    c2312297   6.825   6.564   6.763  0.1237  0.6113 -0.2212
 2465poe    c2312298   6.701   6.613   6.686  0.2773  0.1429 -0.7685
 2465poe     o212299   6.694   6.752   6.709  0.6236  0.0998 -0.3981
 2465poe    c3112300   6.634   6.823   6.603  0.1147  0.0139 -0.1689
 2466poe    c3112301   5.733   1.482   5.504  0.8240 -0.4970 -0.8172
 2466poe     o212302   5.690   1.355   5.461  0.3444 -0.5514 -0.1961
 2466poe    c2312303   5.621   1.294   5.567  0.1935  0.2299  0.1625
 2466poe    c2312304   5.558   1.161   5.520 -0.4145  0.5013  0.2093
 2466poe     o212305   5.654   1.101   5.436 -0.1335  0.4946  0.5353
 2466poe    c2312306   5.607   0.994   5.356  0.3958  0.3145  0.4657
 2466poe    c2312307   5.732   0.939   5.286  0.2168  0.2551  0.1953
 2466poe     o212308   5.809   1.034   5.215  0.3749  0.3358  0.4744
 2466poe    c2312309   5.910   0.954   5.157  0.2151  0.3133  0.2279
 2466poe    c2312310   5.964   1.001   5.021 -0.2693 -0.3375 -0.1943
 2466poe     o212311   5.867   1.003   4.919 -0.3247 -0.1885 -0.1387
 2466poe    c3112312   5.918   0.975   4.790 -0.4739  0.0511 -0.2502
 2467poe    c3112313   1.138   6.995   4.695 -0.2265 -0.2255  0.1574
 2467poe     o212314   1.101   6.876   4.760 -0.4186 -0.4415 -0.3483
 2467poe    c2312315   1.189   6.771   4.724  0.1429  0.0478 -0.4170
 2467poe    c2312316   1.164   6.651   4.817 -0.1111  0.1875 -0.3018
 2467poe     o212317   1.034   6.596   4.814 -0.0921  0.1275 -0.0719
 2467poe    c2312318   1.024   6.491   4.907  0.0456 -0.0543 -0.2597
 2467poe    c2312319   0.881   6.439   4.930 -0.0596  0.3953  0.1331
 2467poe     o212320   0.825   6.359   4.828  0.0555 -0.0104  0.3873
 2467poe    c2312321   0.751   6.264   4.901  0.4782 -0.6051  0.0438
 2467poe    c2312322   0.635   6.215   4.813  0.1768 -0.1513  0.1900
 2467poe     o212323   0.537   6.307   4.769  0.5389  0.3390  0.3976
 2467poe    c3112324   0.460   6.363   4.873  0.1131  0.1072  0.2116
 2468poe    c3112325   0.260   1.453   4.785  0.0942  0.0920 -0.0476
 2468poe     o212326   0.252   1.587   4.829 -0.0997  0.0204  0.1350
 2468poe    c2312327   0.213   1.690   4.742  0.6308 -0.1944 -0.4591
 2468poe    c2312328   0.225   1.822   4.820  0.1970 -0.7564  0.5739
 2468poe     o212329   0.125   1.845   4.917  0.1861 -0.1410  0.4182
 2468poe    c2312330   0.136   1.963   4.994 -0.2510  0.1079  0.1065
 2468poe    c2312331   0.007   1.994   5.072 -0.2923 -0.3440  0.2182
 2468poe     o212332  -0.108   2.032   5.001 -0.1546  0.1065  0.2335
 2468poe    c2312333  -0.207   2.096   5.079 -0.3186 -0.1171  0.2099
 2468poe    c2312334  -0.341   2.086   5.003 -0.1949 -0.0773 -0.0121
 2468poe     o212335  -0.350   1.959   4.942  0.3009 -0.1208 -0.0064
 2468poe    c3112336  -0.488   1.935   4.921  0.1240  0.8939 -0.1073
 2469poe    c3112337   0.899   2.624   4.636 -0.1955  0.3453 -0.4772
 2469poe     o212338   0.818   2.598   4.749  0.8844  0.1829  0.2774
 2469poe    c2312339   0.859   2.663   4.867  0.2589  0.5515  0.2988
 2469poe    c2312340   0.770   2.615   4.983 -0.0728 -0.4122 -0.3361
 2469poe     o212341   0.631   2.622   4.960 -0.0304 -0.3364 -0.5741
 2469poe    c2312342   0.563   2.578   5.076 -0.2100  0.6942 -0.2705
 2469poe    c2312343   0.416   2.543   5.049 -0.0918  0.0709 -0.1270
 2469poe     o212344   0.418   2.440   4.953  0.1085 -0.0295 -0.0159
 2469poe    c2312345   0.281   2.406   4.942  0.1326 -0.2026  0.2156
 2469poe    c2312346   0.269   2.311   4.821 -0.5000  0.3927 -0.1927
 2469poe     o212347   0.351   2.365   4.721 -0.3859  0.2947 -0.1518
 2469poe    c3112348   0.336   2.302   4.595 -0.0401 -0.1588  0.0303
 2470poe    c3112349   5.819   6.092   5.578  0.2301  0.6126 -0.1845
 2470poe     o212350   5.705   6.132   5.505 -0.3186 -0.0226  0.3125
 2470poe    c2312351   5.671   6.014   5.435 -0.0178  0.1528 -0.1368
 2470poe    c2312352   5.527   6.010   5.379 -0.0237  0.5289 -0.1533
 2470poe     o212353   5.433   6.034   5.482 -0.0304 -0.5603  0.1044
 2470poe    c2312354   5.299   6.019   5.440 -0.2988  0.4056  0.5988
 2470poe    c2312355   5.218   6.062   5.564 -1.1045 -0.1458  0.2702
 2470poe     o212356   5.255   6.188   5.614 -0.5372 -0.1183 -0.2057
 2470poe    c2312357   5.180   6.242   5.721 -0.1014 -1.1067  0.6087
 2470poe    c2312358   5.276   6.323   5.810 -0.1464  0.4744 -0.7379
 2470poe     o212359   5.297   6.453   5.759  0.1887  0.6224 -0.2299
 2470poe    c3112360   5.417   6.523   5.779  0.6422 -0.1832 -0.1071
 2471poe    c3112361   4.802   1.437   0.818 -0.3210 -0.0752  0.0874
 2471poe     o212362   4.878   1.555   0.804 -0.0802 -0.2340  0.0585
 2471poe    c2312363   5.000   1.522   0.741  0.2771  0.1655  0.5442
 2471poe    c2312364   5.091   1.647   0.731  0.1105  0.2817  0.4711
 2471poe     o212365   5.101   1.720   0.851 -0.0725  0.3024  0.4749
 2471poe    c2312366   5.214   1.805   0.856  0.0988  0.1171 -0.0961
 2471poe    c2312367   5.185   1.880   0.988  0.9414 -0.2559  0.3053
 2471poe     o212368   5.082   1.972   0.963  0.6575 -0.5678  0.3235
 2471poe    c2312369   5.049   2.068   1.062 -0.4700 -0.5164 -0.0811
 2471poe    c2312370   4.918   2.140   1.028  0.1019  0.1677 -0.8884
 2471poe     o212371   4.835   2.038   0.976 -0.0170 -0.1805 -0.0332
 2471poe    c3112372   4.699   2.069   1.000  0.0267 -0.6561  0.8430
 2472poe    c3112373   0.820   4.228   5.816 -0.0277  0.7902  0.5483
 2472poe     o212374   0.726   4.309   5.750 -0.6634 -0.1098  0.3305
 2472poe    c2312375   0.732   4.431   5.820  1.0129 -0.1176  0.2279
 2472poe    c2312376   0.608   4.516   5.788  0.5212 -0.9855 -0.1977
 2472poe     o212377   0.597   4.508   5.648 -0.1005 -0.2798 -0.1944
 2472poe    c2312378   0.544   4.620   5.581 -0.2508 -0.4185 -0.3087
 2472poe    c2312379   0.555   4.600   5.429  0.2673  0.5342 -0.4057
 2472poe     o212380   0.470   4.492   5.400  0.0204  0.6971 -0.2845
 2472poe    c2312381   0.523   4.439   5.281 -0.3644 -0.0424 -0.1363
 2472poe    c2312382   0.462   4.313   5.217  0.0045 -0.2806 -0.0274
 2472poe     o212383   0.508   4.204   5.293 -0.2088 -0.0876  0.3799
 2472poe    c3112384   0.536   4.084   5.225  0.1607  0.0023  0.3707
 2473poe    c3112385   5.430   7.125   1.260  0.3214 -0.8513  0.1287
 2473poe     o212386   5.444   7.140   1.121  0.6693  0.5038  0.2936
 2473poe    c2312387   5.324   7.171   1.054  0.6158 -0.2728  0.0216
 2473poe    c2312388   5.332   7.173   0.900 -0.9802  0.2762 -0.0754
 2473poe     o212389   5.380   7.048   0.854 -0.5981  0.5164 -0.3351
 2473poe    c2312390   5.414   7.055   0.717 -0.2824 -0.1409 -0.2924
 2473poe    c2312391   5.419   6.917   0.649  0.2928 -0.0936 -0.3500
 2473poe     o212392   5.529   6.851   0.707 -0.3894 -0.4971  0.5014
 2473poe    c2312393   5.539   6.717   0.666  0.0523 -0.3588  0.1466
 2473poe    c2312394   5.646   6.659   0.760 -0.2915 -0.9637  0.1755
 2473poe     o212395   5.621   6.706   0.890  0.5383 -0.1041  0.0384
 2473poe    c3112396   5.736   6.670   0.963  0.7475 -0.0906 -0.2862
 2474poe    c3112397   4.380   2.933   6.563 -0.4581 -0.4030 -0.4400
 2474poe     o212398   4.339   2.822   6.639  0.5005 -0.3240  0.2188
 2474poe    c2312399   4.439   2.730   6.675  0.5972 -0.3181 -0.0337
 2474poe    c2312400   4.376   2.623   6.766  0.5698 -0.4257 -0.1791
 2474poe     o212401   4.308   2.670   6.880  0.4674  0.3911 -0.5734
 2474poe    c2312402   4.263   2.566   6.964  0.2389  1.0037  0.0853
 2474poe    c2312403   4.212   2.618   7.099 -0.1969 -0.4943  0.5217
 2474poe     o212404   4.099   2.701   7.082 -0.2712 -0.6454  0.2776
 2474poe    c2312405   4.058   2.754   7.205  0.3959  0.5520 -0.0059
 2474poe    c2312406   3.936   2.846   7.184 -0.1119 -0.1209 -0.0475
 2474poe     o212407   3.828   2.776   7.129 -0.1411 -0.1522  0.0509
 2474poe    c3112408   3.709   2.821   7.189 -0.2096 -0.3003  0.0287
 2475poe    c3112409   2.103   0.822   4.383  0.0330  0.1548 -1.0392
 2475poe     o212410   2.102   0.683   4.401  0.0536  0.3115  0.2345
 2475poe    c2312411   2.220   0.633   4.460 -0.1263 -0.3145  0.0718
 2475poe    c2312412   2.197   0.524   4.567 -0.0835 -0.2422  0.1557
 2475poe     o212413   2.094   0.548   4.660 -0.4231 -0.2644 -0.2109
 2475poe    c2312414   1.960   0.539   4.616 -0.3810  0.2115 -0.4359
 2475poe    c2312415   1.883   0.622   4.720 -0.7942 -0.9610  0.2118
 2475poe     o212416   1.918   0.565   4.844  0.3739 -0.1543  0.2688
 2475poe    c2312417   1.821   0.596   4.941 -0.0699 -0.1309 -0.1837
 2475poe    c2312418   1.824   0.740   4.995 -0.3350 -0.1041 -0.2363
 2475poe     o212419   1.949   0.766   5.054 -0.4955 -0.3146  0.2025
 2475poe    c3112420   1.933   0.892   5.116  0.0852 -0.2914  0.3138
 2476poe    c3112421   4.576   0.107   5.845 -0.6043 -0.1438 -0.7774
 2476poe     o212422   4.485   0.149   5.945  0.4312  0.3610 -0.0237
 2476poe    c2312423   4.522   0.264   6.017  0.0184  0.1908  0.4646
 2476poe    c2312424   4.407   0.302   6.113 -0.0840 -0.0011  0.4180
 2476poe     o212425   4.283   0.300   6.047  0.2540  0.1326 -0.2311
 2476poe    c2312426   4.186   0.366   6.125 -0.0693 -0.5309 -0.0617
 2476poe    c2312427   4.065   0.391   6.033  0.2426 -0.2413 -0.3945
 2476poe     o212428   4.060   0.291   5.934 -0.1881 -0.1817 -0.4354
 2476poe    c2312429   3.944   0.291   5.854 -0.3544  0.2715 -0.1991
 2476poe    c2312430   3.943   0.182   5.745  0.1777  0.2793 -0.2155
 2476poe     o212431   4.016   0.207   5.628  0.7089 -0.3797 -0.0360
 2476poe    c3112432   4.011   0.109   5.527 -0.6681 -0.3092 -0.0565
 2477poe    c3112433   2.241   5.467   0.229  0.5483 -0.4187  0.0062
 2477poe     o212434   2.179   5.415   0.114 -0.2949  0.8467 -0.1265
 2477poe    c2312435   2.070   5.341   0.167  0.1992  0.2763  0.1087
 2477poe    c2312436   2.003   5.250   0.062  0.0291  0.5065  0.0152
 2477poe     o212437   1.900   5.183   0.131 -0.3216  0.4722 -0.5398
 2477poe    c2312438   1.810   5.128   0.038 -0.3138 -0.4395 -0.0179
 2477poe    c2312439   1.691   5.061   0.109 -0.1449 -0.1790  0.5152
 2477poe     o212440   1.579   5.044   0.024  0.3360 -0.5314 -0.0548
 2477poe    c2312441   1.474   5.012   0.111 -0.2005  0.3528 -0.3579
 2477poe    c2312442   1.330   5.013   0.058 -0.4301  0.3583  0.2509
 2477poe     o212443   1.304   4.928  -0.052  0.1602  0.0804  0.3260
 2477poe    c3112444   1.171   4.931  -0.098  0.3681 -0.0304 -0.3025
 2478poe    c3112445   2.880   0.649   2.158  0.1166 -0.8742  0.1471
 2478poe     o212446   2.742   0.638   2.187  0.0257  0.2977  0.2024
 2478poe    c2312447   2.738   0.576   2.313  0.4033  0.5684  0.3492
 2478poe    c2312448   2.602   0.576   2.385  0.1404 -0.0969 -0.1441
 2478poe     o212449   2.584   0.711   2.419 -0.0441 -0.0327 -0.4963
 2478poe    c2312450   2.464   0.742   2.485  0.0904 -0.1866 -0.1805
 2478poe    c2312451   2.332   0.706   2.414  0.0430  0.0639 -0.2230
 2478poe     o212452   2.339   0.760   2.283 -0.1619 -0.2106 -0.3477
 2478poe    c2312453   2.225   0.703   2.222 -0.5214 -0.0534  0.1653
 2478poe    c2312454   2.200   0.767   2.084  0.1899 -0.1838 -0.0261
 2478poe     o212455   2.310   0.811   2.007  0.3099  0.1633  0.3437
 2478poe    c3112456   2.275   0.863   1.881  0.6989 -0.0975  0.1259
 2479poe    c3112457   1.151   6.785   2.661  0.2383 -0.0844  0.1650
 2479poe     o212458   1.134   6.686   2.562  0.2310  0.2853 -0.2056
 2479poe    c2312459   1.080   6.737   2.442 -0.1429  0.2745 -0.0431
 2479poe    c2312460   0.928   6.721   2.425 -0.0462 -0.0010 -0.6609
 2479poe     o212461   0.887   6.587   2.442  0.8223 -0.1957 -0.0758
 2479poe    c2312462   0.747   6.580   2.426  0.8188  0.0141 -0.1403
 2479poe    c2312463   0.684   6.444   2.460  0.0963  0.4283  0.1800
 2479poe     o212464   0.694   6.339   2.366 -0.1486  0.2553  0.3444
 2479poe    c2312465   0.609   6.236   2.412  0.3733 -0.2729  0.1343
 2479poe    c2312466   0.562   6.145   2.297 -0.0635  0.2272 -0.0888
 2479poe     o212467   0.455   6.191   2.219 -0.2161 -0.0739 -0.0570
 2479poe    c3112468   0.510   6.249   2.103 -0.4138  0.4395  0.1048
 2480poe    c3112469   0.320   6.508   4.345  0.1838  0.1037 -0.7049
 2480poe     o212470   0.408   6.403   4.376 -0.6587 -0.3649  0.1574
 2480poe    c2312471   0.347   6.319   4.471 -0.6571  0.1500  0.6161
 2480poe    c2312472   0.398   6.173   4.461 -0.4306  0.2920 -0.4177
 2480poe     o212473   0.536   6.151   4.477 -0.4607  0.0946 -0.4276
 2480poe    c2312474   0.584   6.019   4.472 -0.1526  0.1802  0.1934
 2480poe    c2312475   0.738   6.011   4.476 -0.1884 -0.5851  0.1906
 2480poe     o212476   0.785   6.047   4.348 -0.0351 -0.5415  0.2593
 2480poe    c2312477   0.921   6.037   4.312  0.0866 -0.1971  0.6184
 2480poe    c2312478   0.928   6.099   4.171 -0.5413 -0.3717  0.5053
 2480poe     o212479   0.909   6.238   4.184  0.1849 -0.2029 -0.1540
 2480poe    c3112480   0.961   6.297   4.067 -0.1663  0.1317 -0.1440
 2481poe    c3112481   4.063   5.767   6.465  0.1307  0.1048 -0.5784
 2481poe     o212482   3.938   5.819   6.427 -0.1435  0.4395  0.7342
 2481poe    c2312483   3.919   5.942   6.360  0.0818 -0.1449 -0.4333
 2481poe    c2312484   3.992   6.065   6.417 -0.2654 -0.2829  0.3243
 2481poe     o212485   4.028   6.173   6.334  0.2724  0.1546  1.1068
 2481poe    c2312486   4.159   6.153   6.288 -0.1585  0.1819 -0.1749
 2481poe    c2312487   4.202   6.258   6.183 -0.0349  0.3470  0.0385
 2481poe     o212488   4.242   6.387   6.223  0.0661  0.2687  0.1925
 2481poe    c2312489   4.148   6.484   6.264  0.2839  0.6660 -0.2404
 2481poe    c2312490   4.054   6.533   6.152  0.0304  0.3235 -0.1799
 2481poe     o212491   3.971   6.437   6.090  0.1442 -0.0675  0.2658
 2481poe    c3112492   3.912   6.498   5.978  0.6669 -0.1111 -0.0394
 2482poe    c3112493   2.109   1.766   5.392  0.3642  0.2059  0.0349
 2482poe     o212494   2.228   1.735   5.323 -0.1493 -0.7771 -0.4227
 2482poe    c2312495   2.324   1.668   5.403  0.2639  0.2897 -0.0126
 2482poe    c2312496   2.425   1.619   5.297 -0.1925  0.1511 -0.3877
 2482poe     o212497   2.362   1.561   5.185 -0.5472 -0.1275 -0.0518
 2482poe    c2312498   2.467   1.527   5.096 -0.4967 -0.3953  0.1088
 2482poe    c2312499   2.441   1.426   4.983 -0.1644 -0.1732 -0.1648
 2482poe     o212500   2.362   1.477   4.878 -0.0539  0.2259 -0.0581
 2482poe    c2312501   2.333   1.375   4.785  0.2965 -0.0236  0.1054
 2482poe    c2312502   2.234   1.434   4.683 -0.0663  0.0115  0.4740
 2482poe     o212503   2.105   1.459   4.734 -0.2727  0.4099 -0.2310
 2482poe    c3112504   2.010   1.452   4.630  0.0943 -0.7434 -0.4985
 2483poe    c3112505   1.918   1.065   3.225 -0.3605  0.6818 -0.4405
 2483poe     o212506   1.933   1.101   3.360 -0.0401  0.3419 -0.3838
 2483poe    c2312507   1.835   1.198   3.389 -0.2543  0.1486 -0.4584
 2483poe    c2312508   1.853   1.295   3.507  0.0764  0.0695 -0.4428
 2483poe     o212509   1.960   1.384   3.485 -0.0617  0.3346 -0.0605
 2483poe    c2312510   1.967   1.469   3.598  0.0461  0.6990 -0.3402
 2483poe    c2312511   2.093   1.555   3.578  0.4232  0.1142 -0.5226
 2483poe     o212512   2.201   1.466   3.564  0.0397 -0.3663 -0.4436
 2483poe    c2312513   2.321   1.538   3.582 -0.1176 -0.2878  0.3149
 2483poe    c2312514   2.456   1.469   3.555  0.0221 -0.0164  0.3174
 2483poe     o212515   2.477   1.433   3.420  0.2060  0.0450  0.3299
 2483poe    c3112516   2.573   1.330   3.415 -0.1195 -0.2221 -0.4165
 2484poe    c3112517   6.832   2.648   6.187 -0.5010  0.0948 -0.1827
 2484poe     o212518   6.879   2.526   6.239 -1.3939  0.0815  0.6091
 2484poe    c2312519   6.866   2.426   6.141 -0.4448  0.1100  0.4456
 2484poe    c2312520   6.942   2.298   6.180 -0.7776 -0.3775 -0.4711
 2484poe     o212521   7.080   2.313   6.198 -0.8799  0.1684 -0.1334
 2484poe    c2312522   7.116   2.362   6.326  0.3408  0.8805 -0.7238
 2484poe    c2312523   7.208   2.263   6.400 -0.1418  0.8015 -0.2227
 2484poe     o212524   7.327   2.258   6.324  0.0163  0.0165  0.0711
 2484poe    c2312525   7.391   2.134   6.341 -0.2945 -0.1478  0.0485
 2484poe    c2312526   7.514   2.128   6.249 -0.4143  0.8565 -0.1818
 2484poe     o212527   7.488   2.167   6.116 -0.2867 -0.1956 -0.5222
 2484poe    c3112528   7.601   2.160   6.031  0.2678 -0.1669  0.2070
 2485poe    c3112529   4.756   3.680   7.118  0.2870  1.4984  0.1067
 2485poe     o212530   4.801   3.701   6.986 -0.5618 -0.0657 -0.4538
 2485poe    c2312531   4.843   3.576   6.934 -0.2278 -0.3941  0.5783
 2485poe    c2312532   4.731   3.504   6.856 -0.0026  0.0517 -0.1722
 2485poe     o212533   4.647   3.445   6.953 -0.1930  0.3661 -0.1457
 2485poe    c2312534   4.527   3.419   6.884  0.1055 -0.0226 -0.5238
 2485poe    c2312535   4.429   3.316   6.944 -0.2296  0.2358 -0.6263
 2485poe     o212536   4.365   3.347   7.066  0.0661 -0.5634 -0.2633
 2485poe    c2312537   4.239   3.406   7.046  0.1087 -0.2184  0.4592
 2485poe    c2312538   4.151   3.419   7.172 -0.3781  0.1673  0.0883
 2485poe     o212539   4.107   3.290   7.209 -0.1726 -0.0607 -0.4553
 2485poe    c3112540   3.977   3.263   7.161 -0.4854 -0.4628  0.5878
 2486poe    c3112541   4.555   4.966   5.992 -0.2218  0.0128  0.6242
 2486poe     o212542   4.428   5.025   6.001  0.0021  0.5523  0.3193
 2486poe    c2312543   4.353   4.967   6.105  0.4254  0.6832  0.6978
 2486poe    c2312544   4.211   5.027   6.092  0.1373 -0.2013 -0.2755
 2486poe     o212545   4.188   5.028   5.953  0.3639 -0.3842 -0.3169
 2486poe    c2312546   4.054   5.010   5.913  0.2471  0.0328 -0.1232
 2486poe    c2312547   4.047   4.977   5.763 -0.5023 -0.0637 -0.0719
 2486poe     o212548   4.085   5.087   5.683 -0.1299  0.0349  0.2359
 2486poe    c2312549   4.049   5.062   5.549  0.1698 -0.2565  0.2101
 2486poe    c2312550   4.077   5.187   5.464 -0.5429 -0.3254 -0.1337
 2486poe     o212551   4.081   5.148   5.328  0.7138  0.2978 -0.2950
 2486poe    c3112552   4.082   5.258   5.241 -0.1731  0.3958 -0.1990
 2487poe    c3112553   5.761   5.740   6.807 -0.3739 -0.1984 -0.0808
 2487poe     o212554   5.737   5.663   6.923 -0.4710  0.0205  0.0447
 2487poe    c2312555   5.766   5.526   6.903  0.9402  0.2471  0.4094
 2487poe    c2312556   5.758   5.459   7.041 -0.2946  0.4586  0.4513
 2487poe     o212557   5.646   5.511   7.109 -0.5407 -0.0665  0.4540
 2487poe    c2312558   5.652   5.474   7.245 -0.0486  0.5868  0.6146
 2487poe    c2312559   5.530   5.523   7.325 -0.4382  0.4180  0.1220
 2487poe     o212560   5.494   5.659   7.320  0.0833  0.5222 -1.0709
 2487poe    c2312561   5.354   5.662   7.338  0.1850  0.1571 -0.1921
 2487poe    c2312562   5.293   5.797   7.295 -0.7561 -0.1788  0.0711
 2487poe     o212563   5.295   5.798   7.154 -0.7979 -0.3727  0.0679
 2487poe    c3112564   5.203   5.897   7.113 -0.4518 -0.1247 -0.1117
 2488poe    c3112565   1.423   6.548   6.049 -0.1109 -0.0707 -0.0865
 2488poe     o212566   1.563   6.529   6.048 -0.0688  0.2360 -0.0948
 2488poe    c2312567   1.594   6.393   6.065  0.3432  0.3379 -0.0147
 2488poe    c2312568   1.730   6.357   6.001  0.2687 -0.0438  0.0381
 2488poe     o212569   1.718   6.346   5.861  0.0928  0.6074 -0.0007
 2488poe    c2312570   1.842   6.381   5.805  0.1907 -0.3980 -0.4300
 2488poe    c2312571   1.846   6.340   5.656  0.0668  0.1622 -0.5918
 2488poe     o212572   1.845   6.200   5.639  0.5473  0.1249 -0.3137
 2488poe    c2312573   1.845   6.157   5.505  0.1800 -0.1999 -0.2123
 2488poe    c2312574   1.771   6.022   5.505 -0.1130 -0.0412  0.4941
 2488poe     o212575   1.639   6.008   5.555 -0.2308 -0.0913  0.1701
 2488poe    c3112576   1.606   5.874   5.529 -0.7135  0.0020  0.2911
 2489poe    c3112577   0.253   3.765   3.409  0.1273  0.1320 -0.4027
 2489poe     o212578   0.271   3.845   3.294 -0.2668  0.0239 -0.5418
 2489poe    c2312579   0.349   3.774   3.201 -0.0544 -0.2705 -0.1465
 2489poe    c2312580   0.376   3.868   3.082  0.1770 -0.1494  0.0014
 2489poe     o212581   0.264   3.908   3.006  0.2161  0.1159  0.0797
 2489poe    c2312582   0.199   3.805   2.934 -0.2976  0.5321 -0.0554
 2489poe    c2312583   0.233   3.784   2.785  0.5293 -0.0643  0.2099
 2489poe     o212584   0.234   3.897   2.702  0.0709 -0.1201  0.1234
 2489poe    c2312585   0.296   3.853   2.583 -0.4339 -0.4239 -0.0291
 2489poe    c2312586   0.290   3.965   2.478 -0.7125 -0.0240  0.4112
 2489poe     o212587   0.380   4.070   2.502 -0.4908 -0.1092 -0.0311
 2489poe    c3112588   0.443   4.125   2.389 -0.5861 -0.4370 -0.2416
 2490poe    c3112589   4.689   0.643   3.767  0.2902 -0.1706  0.2624
 2490poe     o212590   4.630   0.736   3.856 -1.0148 -0.7014 -0.0343
 2490poe    c2312591   4.679   0.739   3.988 -0.1495 -0.2280 -0.3559
 2490poe    c2312592   4.571   0.762   4.096  0.2159  0.0822 -0.0554
 2490poe     o212593   4.461   0.674   4.103  0.4221 -0.1695  0.0144
 2490poe    c2312594   4.345   0.742   4.146  0.3576 -0.2878  0.0266
 2490poe    c2312595   4.223   0.649   4.135  0.1201  0.0533 -0.2146
 2490poe     o212596   4.184   0.578   4.250 -0.6226  0.1828 -0.3790
 2490poe    c2312597   4.078   0.489   4.224 -0.7809  0.0356  0.7213
 2490poe    c2312598   4.025   0.414   4.348 -0.3588 -0.6994  0.4620
 2490poe     o212599   3.920   0.482   4.412 -0.1617 -0.2866  0.3515
 2490poe    c3112600   3.953   0.602   4.478  0.5383 -0.2359 -0.0832
 2491poe    c3112601   4.582   4.200   5.972 -0.3647  0.3814  0.3952
 2491poe     o212602   4.477   4.154   6.054 -0.2412 -0.7235 -0.0660
 2491poe    c2312603   4.432   4.262   6.132  0.1099 -0.1225 -0.6818
 2491poe    c2312604   4.337   4.206   6.240  0.5891 -0.4443 -0.4206
 2491poe     o212605   4.251   4.112   6.178  0.6112 -1.2074  0.6711
 2491poe    c2312606   4.165   4.052   6.272 -0.3465  0.0253  0.6090
 2491poe    c2312607   4.093   3.932   6.209  0.3170 -0.0836  0.0363
 2491poe     o212608   4.183   3.843   6.147 -0.0310  0.0509 -0.6692
 2491poe    c2312609   4.144   3.719   6.093 -0.1474 -0.0827 -0.2797
 2491poe    c2312610   4.244   3.661   5.992 -0.0076  0.2305 -0.3224
 2491poe     o212611   4.374   3.659   6.047 -0.1542  0.4665  0.0348
 2491poe    c3112612   4.456   3.603   5.946 -0.4876 -0.0085  0.0229
 2492poe    c3112613   0.214   0.454   6.395 -0.0422  0.0564  0.1494
 2492poe     o212614   0.143   0.562   6.338 -0.3865 -0.4188 -0.3393
 2492poe    c2312615   0.008   0.523   6.347 -0.4437 -0.1431  0.0197
 2492poe    c2312616  -0.086   0.606   6.257 -0.3657 -0.2121 -0.1235
 2492poe     o212617  -0.101   0.737   6.305  0.8406 -0.0797 -0.0768
 2492poe    c2312618  -0.186   0.817   6.226  0.3541 -0.3382  0.1868
 2492poe    c2312619  -0.207   0.957   6.288  0.5361 -0.2474  0.0438
 2492poe     o212620  -0.076   1.002   6.313  0.4069  0.1890 -0.0657
 2492poe    c2312621  -0.086   1.139   6.347  0.3711  0.0295  0.5707
 2492poe    c2312622   0.059   1.190   6.358  0.1964  0.4955  0.7328
 2492poe     o212623   0.128   1.089   6.428  0.3078  0.3021  0.3469
 2492poe    c3112624   0.257   1.125   6.473  0.2416 -0.0355  0.8225
 2493poe    c3112625   2.334   2.936   6.774  0.1015  0.0204 -0.1736
 2493poe     o212626   2.408   2.939   6.894 -0.3335 -0.2335  0.1065
 2493poe    c2312627   2.454   2.811   6.934  0.7411  0.1260  0.0667
 2493poe    c2312628   2.519   2.820   7.073 -0.0055  0.4955  0.3994
 2493poe     o212629   2.634   2.900   7.090  0.3234 -0.0554  0.7786
 2493poe    c2312630   2.748   2.838   7.034 -0.2548 -0.2324 -0.2306
 2493poe    c2312631   2.879   2.874   7.106 -0.3171 -0.0750 -0.1951
 2493poe     o212632   2.879   3.012   7.135 -0.2016 -0.0830 -0.1543
 2493poe    c2312633   2.987   3.043   7.220 -0.7599 -0.0691  0.5650
 2493poe    c2312634   2.979   3.197   7.230 -0.1635  0.0455 -0.5241
 2493poe     o212635   2.850   3.219   7.281 -0.0212 -0.0421 -0.1203
 2493poe    c3112636   2.827   3.332   7.362 -0.1213 -0.0514 -0.1348
 2494poe    c3112637   5.219   4.278   5.246 -0.3834  0.0187  0.5190
 2494poe     o212638   5.285   4.163   5.198 -0.2034  0.3436 -0.0110
 2494poe    c2312639   5.379   4.191   5.097 -0.4721 -0.1956 -0.4145
 2494poe    c2312640   5.451   4.065   5.045 -0.2371 -0.0863 -0.3554
 2494poe     o212641   5.382   3.980   4.956  0.2862 -0.0549 -0.8005
 2494poe    c2312642   5.432   3.858   4.908 -0.4521 -0.5395 -0.3601
 2494poe    c2312643   5.467   3.751   5.013  0.2331  0.3320  0.3077
 2494poe     o212644   5.351   3.722   5.088 -0.2344 -0.2557 -0.6237
 2494poe    c2312645   5.379   3.598   5.149  0.9477  0.5331  0.4820
 2494poe    c2312646   5.317   3.590   5.289  0.0542  0.3172  0.0786
 2494poe     o212647   5.180   3.623   5.276 -0.0646 -0.1203  0.1984
 2494poe    c3112648   5.121   3.646   5.402 -0.2729  0.0873  0.0635
 2495poe    c3112649   1.417   3.643   6.010 -0.7148 -0.1296  0.0360
 2495poe     o212650   1.486   3.526   5.973 -0.5094 -0.0100  0.0446
 2495poe    c2312651   1.428   3.418   6.042  0.3949 -0.0056  0.8241
 2495poe    c2312652   1.473   3.295   5.962  0.1870  0.4424  0.0131
 2495poe     o212653   1.612   3.313   5.962  0.2002  0.3409 -0.0518
 2495poe    c2312654   1.695   3.205   5.923  0.1754  0.4424 -0.3938
 2495poe    c2312655   1.842   3.226   5.964  0.1048  0.0942  0.0449
 2495poe     o212656   1.878   3.345   5.898 -0.2930  0.0694 -0.2162
 2495poe    c2312657   2.015   3.353   5.867 -0.3044  0.0092 -0.2843
 2495poe    c2312658   2.055   3.498   5.834  0.3999 -0.0776  0.1664
 2495poe     o212659   2.001   3.526   5.707 -0.0530 -0.0032  0.3730
 2495poe    c3112660   2.049   3.644   5.646  0.5947 -0.0442  0.7954
 2496poe    c3112661   6.557   1.535   4.787 -0.1526  0.3084 -0.0359
 2496poe     o212662   6.632   1.421   4.824  0.1374  0.2002 -0.9344
 2496poe    c2312663   6.768   1.433   4.788  0.2650  0.2444 -0.4501
 2496poe    c2312664   6.843   1.303   4.823  0.5210  0.3672 -0.5384
 2496poe     o212665   6.814   1.272   4.957  0.1752 -0.2693 -0.7553
 2496poe    c2312666   6.886   1.175   5.028  0.3806  0.8495  0.6202
 2496poe    c2312667   6.830   1.139   5.167 -0.3924  0.0845  0.1266
 2496poe     o212668   6.700   1.092   5.143 -0.2922 -0.4202  0.5477
 2496poe    c2312669   6.665   0.994   5.238  0.0881 -0.3445  0.7698
 2496poe    c2312670   6.514   1.009   5.268  0.0069  0.0309  0.1948
 2496poe     o212671   6.433   0.958   5.166 -0.0736  0.2333  0.1569
 2496poe    c3112672   6.418   0.818   5.164  0.5324  0.1671 -0.0694
 2497poe    c3112673   6.622   6.279   0.505  0.6338 -0.3638  0.1184
 2497poe     o212674   6.558   6.154   0.519  0.5182 -0.3072  0.0988
 2497poe    c2312675   6.572   6.105   0.651 -0.1279 -0.4588  0.1104
 2497poe    c2312676   6.581   5.951   0.661  0.1522 -0.4300  0.2955
 2497poe     o212677   6.485   5.896   0.574  0.0413 -0.3040  0.3379
 2497poe    c2312678   6.499   5.758   0.553  0.3565 -0.3255  0.6742
 2497poe    c2312679   6.592   5.728   0.434 -0.2806 -0.0900  0.1087
 2497poe     o212680   6.730   5.756   0.442 -0.2980 -0.0951  0.4544
 2497poe    c2312681   6.809   5.687   0.536 -0.0347 -0.0594  0.2619
 2497poe    c2312682   6.958   5.723   0.528 -0.1061  0.1100 -0.4479
 2497poe     o212683   6.988   5.858   0.556 -0.3010  0.0846 -0.1119
 2497poe    c3112684   7.022   5.871   0.692 -0.1987 -0.0215 -0.1273
 2498poe    c3112685   2.542   5.443   0.468  0.1721 -0.1828 -0.1763
 2498poe     o212686   2.533   5.364   0.585  0.1137 -0.4129 -0.3359
 2498poe    c2312687   2.415   5.378   0.662  0.4320  0.4253  0.0088
 2498poe    c2312688   2.415   5.277   0.778 -0.1521  0.5106  0.0839
 2498poe     o212689   2.538   5.296   0.844 -0.0803  0.1214  0.0638
 2498poe    c2312690   2.547   5.217   0.961 -0.3928  0.4468  0.3099
 2498poe    c2312691   2.686   5.245   1.022 -0.0707  0.6383 -0.4899
 2498poe     o212692   2.782   5.243   0.919 -0.1289 -0.0868 -0.5359
 2498poe    c2312693   2.863   5.135   0.960  0.5049  0.6154  0.1091
 2498poe    c2312694   2.971   5.091   0.859  0.0078 -0.2092 -0.0764
 2498poe     o212695   2.936   5.083   0.723 -0.2135 -0.1267 -0.0257
 2498poe    c3112696   3.060   5.064   0.658  0.4087  0.1213  1.0568
 2499poe    c3112697   2.301   4.488   2.694 -0.2214  0.0168 -0.3179
 2499poe     o212698   2.241   4.451   2.816  0.0211 -0.3122 -0.2987
 2499poe    c2312699   2.126   4.371   2.800 -0.1993 -0.0410 -0.0854
 2499poe    c2312700   2.047   4.330   2.925 -0.2857 -0.7093 -0.3494
 2499poe     o212701   2.127   4.239   2.997 -0.3749 -0.1484  0.4795
 2499poe    c2312702   2.049   4.189   3.103 -0.1863 -0.2090  0.5889
 2499poe    c2312703   2.133   4.127   3.217 -0.0869 -0.4857  0.3668
 2499poe     o212704   2.226   4.214   3.276 -0.2806  0.0042 -0.0384
 2499poe    c2312705   2.344   4.140   3.297 -0.2957 -0.0949 -0.2995
 2499poe    c2312706   2.459   4.231   3.346 -0.4398 -0.1025  0.0570
 2499poe     o212707   2.523   4.304   3.244 -0.1711 -0.2938  0.0900
 2499poe    c3112708   2.644   4.370   3.274 -0.2918 -0.0341  0.0000
 2500poe    c3112709   5.463   6.174   6.389  0.4994 -0.4613  0.0175
 2500poe     o212710   5.486   6.036   6.405 -0.4486 -0.5627  0.5847
 2500poe    c2312711   5.463   5.957   6.291  0.1509 -0.0844  0.1249
 2500poe    c2312712   5.495   5.811   6.327 -0.8276 -0.0834  1.0330
 2500poe     o212713   5.625   5.815   6.382 -0.4170  0.3186  0.0531
 2500poe    c2312714   5.675   5.684   6.387  0.4909  0.6658  0.3041
 2500poe    c2312715   5.829   5.687   6.382  0.4891  0.3259 -0.0606
 2500poe     o212716   5.875   5.755   6.497 -0.2838 -0.4149  0.7081
 2500poe    c2312717   6.015   5.772   6.505 -0.2860  0.0131 -0.0626
 2500poe    c2312718   6.093   5.878   6.425 -0.4627  0.0684 -0.1637
 2500poe     o212719   6.032   6.005   6.421  0.0652  0.3292 -0.0089
 2500poe    c3112720   6.088   6.101   6.335  0.5003  0.3707  0.3164
 2501poe    c3112721   6.460   4.074   2.444 -0.3086  0.6164 -0.2943
 2501poe     o212722   6.593   4.028   2.454 -0.3378  0.3642 -0.9909
 2501poe    c2312723   6.681   4.111   2.381  0.0736  0.4668 -0.3931
 2501poe    c2312724   6.768   4.023   2.289 -0.1080 -0.3507  0.1995
 2501poe     o212725   6.848   3.918   2.336  0.3350 -0.1723 -0.1393
 2501poe    c2312726   6.938   3.859   2.246  0.8976  0.6954 -0.1538
 2501poe    c2312727   6.973   3.722   2.307  0.3858  0.4825 -0.3343
 2501poe     o212728   6.983   3.746   2.445 -0.9698  0.0047 -0.1376
 2501poe    c2312729   7.093   3.684   2.509 -0.5426  0.2598 -0.6209
 2501poe    c2312730   7.069   3.675   2.661 -0.1441 -0.1231 -0.5808
 2501poe     o212731   7.089   3.799   2.725  0.1798 -0.3491 -0.2360
 2501poe    c3112732   7.053   3.781   2.860  0.4358  0.0194 -0.1179
 2502poe    c3112733   1.246   0.674   5.559  0.6117 -0.5195  0.3917
 2502poe     o212734   1.107   0.671   5.535  0.6884  0.2314 -0.1837
 2502poe    c2312735   1.056   0.779   5.460 -0.0689 -0.0539 -0.0883
 2502poe    c2312736   1.012   0.906   5.534  0.1178 -0.4187  0.6527
 2502poe     o212737   1.109   1.004   5.562  0.0596 -0.1974  0.0861
 2502poe    c2312738   1.101   1.075   5.684  0.0732  1.2126 -0.7077
 2502poe    c2312739   1.230   1.146   5.730  0.3636  0.3638 -0.1714
 2502poe     o212740   1.329   1.057   5.775 -0.0833 -0.1833 -0.2599
 2502poe    c2312741   1.424   1.134   5.844 -0.1048 -0.4956  0.1204
 2502poe    c2312742   1.551   1.066   5.899  0.0591  0.0479  0.4300
 2502poe     o212743   1.648   1.046   5.799 -0.2402  0.6695  0.0112
 2502poe    c3112744   1.771   1.006   5.855 -0.0916  0.1689 -0.6485
 2503poe    c3112745   6.225   3.924   5.703  0.1134  0.5515 -0.5685
 2503poe     o212746   6.238   3.836   5.594 -0.2891  0.0132 -0.1860
 2503poe    c2312747   6.259   3.914   5.478 -0.4045 -0.1155 -0.2956
 2503poe    c2312748   6.288   3.833   5.351  0.0571  0.0804 -0.3213
 2503poe     o212749   6.165   3.774   5.313 -0.0287 -0.0400  0.1364
 2503poe    c2312750   6.174   3.730   5.179 -0.0859 -0.2696  0.2077
 2503poe    c2312751   6.090   3.601   5.181 -0.1372 -0.2432 -0.1678
 2503poe     o212752   5.967   3.656   5.223 -0.1147 -0.4859  0.2167
 2503poe    c2312753   5.874   3.554   5.193 -0.5414 -0.0750  0.1363
 2503poe    c2312754   5.750   3.597   5.275 -0.1920  0.3371  0.4549
 2503poe     o212755   5.803   3.623   5.402  0.0011  0.4921  0.3433
 2503poe    c3112756   5.715   3.624   5.513 -0.3756 -1.0295  0.0869
 2504poe    c3112757   5.059   2.393   2.170  0.8341 -0.3740 -0.0485
 2504poe     o212758   5.046   2.398   2.030 -0.0753 -0.3865  0.0306
 2504poe    c2312759   5.019   2.275   1.968 -0.6552 -0.0372 -0.4169
 2504poe    c2312760   5.003   2.307   1.818  0.1746 -0.0624 -0.5144
 2504poe     o212761   5.092   2.408   1.778  0.0685  0.3837  0.3637
 2504poe    c2312762   5.084   2.411   1.638 -0.0862  0.1045  0.3661
 2504poe    c2312763   5.145   2.534   1.569 -0.4658  0.1652  0.1347
 2504poe     o212764   5.099   2.658   1.619 -0.4458  0.3640 -0.3302
 2504poe    c2312765   5.155   2.768   1.551  1.4041 -0.1218  0.3553
 2504poe    c2312766   5.137   2.899   1.630  0.3621  0.0759 -0.1860
 2504poe     o212767   5.021   2.973   1.603  0.2192 -0.0373  0.1164
 2504poe    c3112768   5.070   3.104   1.589  0.0274  0.0174 -0.0393
 2505poe    c3112769   1.004   7.201   2.677  0.1992  0.3444 -0.1970
 2505poe     o212770   1.080   7.300   2.743 -0.0430  0.2621  0.2094
 2505poe    c2312771   1.102   7.261   2.877  0.0882 -0.0010  0.1125
 2505poe    c2312772   1.081   7.387   2.963  0.2455  0.2335 -0.1895
 2505poe     o212773   1.145   7.488   2.889 -0.3123  0.6422 -0.1236
 2505poe    c2312774   1.144   7.601   2.973 -0.3092  0.3117  0.3207
 2505poe    c2312775   1.215   7.706   2.886  0.3442 -0.3062  0.0971
 2505poe     o212776   1.340   7.658   2.843  0.0394 -0.7268 -0.3259
 2505poe    c2312777   1.433   7.737   2.772 -0.0561  0.1134  0.4693
 2505poe    c2312778   1.554   7.670   2.706 -0.3642  0.5859 -0.5905
 2505poe     o212779   1.523   7.581   2.601  0.8919 -0.1247 -0.3775
 2505poe    c3112780   1.637   7.554   2.522  0.9069 -0.5102 -0.2275
 2506poe    c3112781   4.590   3.768   3.218 -0.5917  0.7142 -0.4520
 2506poe     o212782   4.705   3.760   3.299 -0.9346  0.1868 -0.0137
 2506poe    c2312783   4.666   3.742   3.433 -0.4910  0.0443  0.0970
 2506poe    c2312784   4.805   3.753   3.499 -0.4054  0.1387 -0.0981
 2506poe     o212785   4.872   3.869   3.456  0.1810 -0.2895 -0.3540
 2506poe    c2312786   4.976   3.914   3.542  0.2666 -0.0548 -0.5783
 2506poe    c2312787   5.042   4.035   3.473 -0.5522  0.7257 -0.0124
 2506poe     o212788   5.044   4.009   3.335 -0.4915 -0.0740  0.1330
 2506poe    c2312789   5.124   4.109   3.277 -0.0248 -0.5767 -0.1040
 2506poe    c2312790   5.102   4.144   3.129 -0.0654 -0.6332 -0.1110
 2506poe     o212791   4.975   4.204   3.115  0.2536  0.1073  0.0854
 2506poe    c3112792   4.949   4.244   2.982 -0.2948  0.0273  0.1636
 2507poe    c3112793   4.631   5.653   3.321  0.7025 -0.0514 -0.5409
 2507poe     o212794   4.605   5.781   3.268 -0.4742  0.0579  0.2451
 2507poe    c2312795   4.703   5.798   3.167 -0.2550 -0.4077  0.3740
 2507poe    c2312796   4.712   5.946   3.126  0.0805 -0.4309  0.3622
 2507poe     o212797   4.614   5.962   3.025  0.2573  0.1399  0.2753
 2507poe    c2312798   4.606   6.101   3.008 -0.4274  0.0318 -0.3203
 2507poe    c2312799   4.549   6.138   2.870 -0.4575 -0.0372 -0.3265
 2507poe     o212800   4.410   6.126   2.885 -0.5125  0.3239 -0.5314
 2507poe    c2312801   4.360   6.138   2.754 -0.4276  0.1979 -0.5748
 2507poe    c2312802   4.229   6.068   2.712 -0.3814 -0.4104  0.2580
 2507poe     o212803   4.218   5.939   2.766  0.1203 -0.6647 -0.2328
 2507poe    c3112804   4.096   5.872   2.741 -0.3826  0.3085 -0.4328
 2508poe    c3112805   3.149   1.701   4.313 -0.0344 -0.5099 -0.1570
 2508poe     o212806   3.232   1.653   4.209 -0.3303 -0.2445 -0.5155
 2508poe    c2312807   3.270   1.770   4.140 -0.0634  0.1125  0.2312
 2508poe    c2312808   3.338   1.742   4.005 -0.1284  0.3415  0.1497
 2508poe     o212809   3.430   1.635   3.998 -0.2728  0.2667 -0.7200
 2508poe    c2312810   3.412   1.553   3.884  0.4485 -0.3943 -0.3648
 2508poe    c2312811   3.529   1.453   3.871  0.5986 -0.2667 -0.0250
 2508poe     o212812   3.571   1.411   3.999  0.2769 -0.6904 -0.0583
 2508poe    c2312813   3.691   1.338   4.012  0.3741 -0.5998 -0.4359
 2508poe    c2312814   3.717   1.299   4.158  0.1598  0.3646 -0.1366
 2508poe     o212815   3.700   1.405   4.250  0.0848  0.2253  0.0109
 2508poe    c3112816   3.718   1.351   4.379 -0.5165  0.0956  0.0398
 2509poe    c3112817   0.934   6.124   1.637  0.1598 -0.4207 -0.1762
 2509poe     o212818   1.063   6.097   1.687  0.1009  0.3318  0.3823
 2509poe    c2312819   1.147   6.047   1.585  0.2724  0.6064  0.3854
 2509poe    c2312820   1.290   5.999   1.615  0.1737  0.0891  0.0503
 2509poe     o212821   1.361   6.109   1.668 -0.0651  0.1886  0.1671
 2509poe    c2312822   1.479   6.054   1.723  0.4107  0.1652 -0.8594
 2509poe    c2312823   1.552   6.171   1.793  0.1684 -0.1519 -0.0668
 2509poe     o212824   1.471   6.245   1.881 -0.1257 -0.3101 -0.2004
 2509poe    c2312825   1.512   6.199   2.008 -0.0326 -0.1709 -0.1798
 2509poe    c2312826   1.409   6.236   2.116 -0.7827 -0.0780 -0.9196
 2509poe     o212827   1.388   6.373   2.093 -1.0939  0.0050 -0.1633
 2509poe    c3112828   1.366   6.415   2.226  0.1074 -0.1724  0.1018
 2510poe    c3112829   7.049   6.539   3.953 -0.3184  0.1447  0.8292
 2510poe     o212830   6.932   6.616   3.933 -0.2184  0.1313  0.1973
 2510poe    c2312831   6.930   6.721   3.838  0.5213 -0.1936 -0.1928
 2510poe    c2312832   6.793   6.790   3.845  0.2827 -0.6525 -0.2769
 2510poe     o212833   6.761   6.810   3.981  0.0631 -0.7182 -0.3178
 2510poe    c2312834   6.666   6.915   3.987  0.7327 -0.1267  0.1951
 2510poe    c2312835   6.610   6.926   4.129  0.2504  0.0935 -0.0098
 2510poe     o212836   6.589   6.792   4.165  0.3302  0.1059  0.0860
 2510poe    c2312837   6.514   6.784   4.285  0.4392 -0.0586  0.1433
 2510poe    c2312838   6.446   6.646   4.294  0.4778 -0.0827  0.0711
 2510poe     o212839   6.537   6.562   4.361  0.3150 -0.0423  0.3439
 2510poe    c3112840   6.508   6.528   4.494  0.2758 -0.2631  0.2803
 2511poe    c3112841   5.311   4.775   2.492 -0.5255  1.2713 -1.1471
 2511poe     o212842   5.197   4.754   2.573  0.4196 -0.1655 -0.1627
 2511poe    c2312843   5.097   4.677   2.512  0.0911 -0.6082  0.9101
 2511poe    c2312844   4.963   4.679   2.588 -0.4220  0.8496  0.0125
 2511poe     o212845   4.964   4.608   2.710 -0.2189  0.5928 -0.1354
 2511poe    c2312846   4.843   4.615   2.782 -0.1188 -0.0570  0.1037
 2511poe    c2312847   4.862   4.597   2.933  0.1388 -0.4175  0.0287
 2511poe     o212848   4.933   4.708   2.981  0.3572 -0.5068 -0.0904
 2511poe    c2312849   4.960   4.684   3.117 -0.2772 -0.0918  0.1102
 2511poe    c2312850   5.069   4.776   3.176 -0.3469  0.2523 -0.2867
 2511poe     o212851   5.171   4.794   3.081 -0.0901 -0.0079 -0.0622
 2511poe    c3112852   5.285   4.852   3.140 -0.1616  0.4650 -0.3855
 2512poe    c3112853   2.241   4.511   3.217 -0.0939 -0.0602  0.1342
 2512poe     o212854   2.223   4.580   3.096 -0.3488 -0.0742  0.1636
 2512poe    c2312855   2.198   4.717   3.120  0.1501  0.0738 -0.1345
 2512poe    c2312856   2.129   4.792   3.004 -0.2367  0.3335  0.2630
 2512poe     o212857   2.222   4.837   2.908 -0.1585 -0.1516  0.1116
 2512poe    c2312858   2.170   4.875   2.783 -0.2976  0.2313  0.2848
 2512poe    c2312859   2.283   4.922   2.689  0.3995 -0.0975  0.9465
 2512poe     o212860   2.350   4.806   2.645 -0.1773 -0.0829  0.0004
 2512poe    c2312861   2.471   4.856   2.592 -0.3028 -0.0104 -0.2192
 2512poe    c2312862   2.585   4.753   2.604 -0.6249 -0.3360  0.0491
 2512poe     o212863   2.601   4.707   2.736 -0.4165  0.3560  0.2687
 2512poe    c3112864   2.713   4.623   2.750 -0.0677  0.7907  0.0980
 2513poe    c3112865   2.238   4.865   0.090 -0.6490  0.1844 -0.3046
 2513poe     o212866   2.238   4.754   0.177  0.2833  0.3175 -0.1184
 2513poe    c2312867   2.297   4.791   0.299  0.0182 -0.1867  0.1662
 2513poe    c2312868   2.327   4.656   0.367  0.7977 -0.3621 -0.5152
 2513poe     o212869   2.210   4.579   0.382  0.4772  0.2602  0.2651
 2513poe    c2312870   2.179   4.548   0.516  0.3400 -0.6575  0.0296
 2513poe    c2312871   2.046   4.471   0.523  0.0798 -0.2080  0.0689
 2513poe     o212872   1.930   4.552   0.524 -0.1290 -0.5065  0.4107
 2513poe    c2312873   1.823   4.472   0.482  0.1696 -0.2308 -0.9492
 2513poe    c2312874   1.693   4.546   0.445  0.1742  0.4317  0.2828
 2513poe     o212875   1.723   4.608   0.322 -0.4029  0.2310  0.0372
 2513poe    c3112876   1.625   4.707   0.298 -0.1533  0.3867 -0.3451
 2514poe    c3112877   2.065   6.934   1.140  0.2452  0.0821 -0.5351
 2514poe     o212878   2.105   6.818   1.071  0.1054 -0.1892 -0.1612
 2514poe    c2312879   2.140   6.858   0.941  0.3271  0.1637  0.0058
 2514poe    c2312880   2.239   6.749   0.895  0.0301 -0.0662 -0.0893
 2514poe     o212881   2.165   6.631   0.919  0.0772 -0.1038 -0.1290
 2514poe    c2312882   2.250   6.521   0.898  0.1594 -0.0370 -0.1442
 2514poe    c2312883   2.186   6.381   0.907  0.1869 -0.0743 -0.4927
 2514poe     o212884   2.137   6.359   1.037  0.3783 -0.0702 -0.4194
 2514poe    c2312885   2.075   6.234   1.056  0.2236  0.1370  0.4998
 2514poe    c2312886   2.083   6.193   1.204 -0.2068 -0.2267  0.4245
 2514poe     o212887   2.042   6.288   1.300 -0.4988 -0.0879  0.1614
 2514poe    c3112888   2.087   6.231   1.420  0.0942  0.0964  0.0286
 2515poe    c3112889   3.753   2.021   5.117 -0.0757 -0.5165 -0.1953
 2515poe     o212890   3.856   1.990   5.209  0.1714  0.3977 -0.1542
 2515poe    c2312891   3.983   2.042   5.176  0.2757 -0.2717 -0.8353
 2515poe    c2312892   4.105   1.988   5.253  0.1087  0.2093 -0.2234
 2515poe     o212893   4.118   2.014   5.391 -0.1599  0.4495 -0.2421
 2515poe    c2312894   4.231   1.940   5.430 -0.6688 -0.3779 -0.2917
 2515poe    c2312895   4.255   2.002   5.569  0.1822  0.2243 -0.6975
 2515poe     o212896   4.143   1.989   5.653  0.5061 -0.2824 -0.3360
 2515poe    c2312897   4.180   1.975   5.788 -0.0571 -0.2137 -0.1707
 2515poe    c2312898   4.053   1.969   5.874 -0.0740  0.1031 -0.1744
 2515poe     o212899   3.950   1.958   5.778 -0.2752  0.5377 -0.0113
 2515poe    c3112900   3.825   1.985   5.837 -0.4505  0.6324 -0.4160
 2516poe    c3112901   6.010   3.841   4.565 -0.6331 -0.2106 -0.0141
 2516poe     o212902   6.143   3.847   4.614 -0.4207 -0.4881 -0.5448
 2516poe    c2312903   6.155   3.765   4.728  0.3317 -0.1728 -0.3915
 2516poe    c2312904   6.303   3.746   4.764  0.1365 -0.1947  0.4225
 2516poe     o212905   6.372   3.870   4.758 -0.1399 -0.0582  0.0128
 2516poe    c2312906   6.509   3.852   4.730 -0.0468  0.5359  0.0821
 2516poe    c2312907   6.590   3.977   4.768 -0.1900  0.6233  0.1026
 2516poe     o212908   6.566   4.081   4.676 -0.1390  0.3093 -0.2675
 2516poe    c2312909   6.640   4.187   4.732  0.2251 -0.2285  0.2915
 2516poe    c2312910   6.588   4.319   4.671 -0.2516 -0.1044  0.9564
 2516poe     o212911   6.449   4.346   4.667 -0.1697  0.3095  0.8387
 2516poe    c3112912   6.427   4.469   4.602 -0.3170  0.1477  0.5825
 2517poe    c3112913   4.857   0.763   6.016 -0.4643 -0.3015 -0.4898
 2517poe     o212914   4.832   0.892   6.067  0.2726 -0.2790 -0.1610
 2517poe    c2312915   4.944   0.975   6.045 -0.0957  0.3682  0.4015
 2517poe    c2312916   4.913   1.120   6.089 -0.4329  0.0241  1.3265
 2517poe     o212917   4.785   1.148   6.039 -0.0049  0.1071  0.2595
 2517poe    c2312918   4.745   1.278   6.074  0.2644  0.2933 -0.1218
 2517poe    c2312919   4.603   1.295   6.016 -0.0934  0.3218  0.7571
 2517poe     o212920   4.509   1.200   6.061 -0.1735 -0.4510 -0.9699
 2517poe    c2312921   4.381   1.245   6.022  0.0204  0.8964 -0.1091
 2517poe    c2312922   4.264   1.145   6.020  0.8253 -0.0715  0.2458
 2517poe     o212923   4.297   1.035   5.939 -0.0753  0.0891 -0.3545
 2517poe    c3112924   4.175   0.977   5.896 -0.0897 -0.0649 -0.1105
 2518poe    c3112925   5.764   0.234   4.350  0.2098 -0.0822  0.0169
 2518poe     o212926   5.686   0.209   4.465  0.3710 -0.1410  0.1145
 2518poe    c2312927   5.751   0.118   4.550 -0.5488 -0.7647  0.1731
 2518poe    c2312928   5.689   0.124   4.691 -0.8581  0.3967 -0.0027
 2518poe     o212929   5.557   0.074   4.684 -0.8418  0.3221  0.2302
 2518poe    c2312930   5.523   0.056   4.820 -0.0463  0.6490  0.4806
 2518poe    c2312931   5.393  -0.019   4.855  0.2177  0.2121  0.5302
 2518poe     o212932   5.274   0.049   4.821  0.2110  0.1645  0.4617
 2518poe    c2312933   5.169   0.011   4.908 -0.3123  0.3201 -0.0915
 2518poe    c2312934   5.056   0.113   4.930 -0.2559  0.3730 -0.0404
 2518poe     o212935   4.994   0.124   4.804 -0.5312 -0.2140  0.0395
 2518poe    c3112936   4.860   0.166   4.821 -0.5133 -0.2195  0.1927
 2519poe    c3112937   5.921   1.461   4.444 -0.3304 -0.4070  0.0701
 2519poe     o212938   5.816   1.544   4.489 -0.3833 -0.3955 -0.0728
 2519poe    c2312939   5.832   1.671   4.430  0.0861 -0.5256 -0.2269
 2519poe    c2312940   5.727   1.757   4.502  0.3431 -0.1190 -0.3314
 2519poe     o212941   5.752   1.805   4.633 -0.1921  0.7473 -0.5427
 2519poe    c2312942   5.626   1.821   4.695 -0.1193 -0.0229 -0.1899
 2519poe    c2312943   5.634   1.869   4.841  0.2166 -0.2038 -0.1470
 2519poe     o212944   5.742   1.958   4.851  0.0737 -0.0031 -0.3806
 2519poe    c2312945   5.769   1.996   4.984  0.2248  0.3018 -0.4970
 2519poe    c2312946   5.873   2.110   4.985 -0.0066  0.5155 -0.5455
 2519poe     o212947   5.977   2.047   4.914  0.0676  0.1224 -0.0965
 2519poe    c3112948   6.102   2.112   4.917  0.2588 -0.2466 -0.0160
 2520poe    c3112949   3.991   6.656   2.063  0.4897  0.2235  0.1355
 2520poe     o212950   4.033   6.751   2.159 -0.1008  0.7810 -0.1459
 2520poe    c2312951   3.923   6.777   2.243  0.6310  0.5812  0.8907
 2520poe    c2312952   3.919   6.696   2.374  0.6183 -0.7940  0.0611
 2520poe     o212953   3.862   6.570   2.351  0.3336 -0.5866 -0.3672
 2520poe    c2312954   3.897   6.492   2.463  0.8017  0.0577 -0.0576
 2520poe    c2312955   3.801   6.373   2.483  0.2242  0.4331 -0.5407
 2520poe     o212956   3.781   6.306   2.361  0.1989  0.9037 -0.7985
 2520poe    c2312957   3.714   6.184   2.384  0.7858  0.6087 -0.6455
 2520poe    c2312958   3.780   6.088   2.283  0.5333 -0.2130 -0.0374
 2520poe     o212959   3.796   6.166   2.167  0.2148 -0.4635 -0.2507
 2520poe    c3112960   3.823   6.081   2.058  0.1162 -0.3422 -0.3690
 2521poe    c3112961   2.666   2.605   3.456 -0.0479 -0.0815 -0.1403
 2521poe     o212962   2.663   2.554   3.588 -0.7656  0.0467 -0.1024
 2521poe    c2312963   2.789   2.496   3.611 -0.5689  0.3481 -0.4165
 2521poe    c2312964   2.780   2.458   3.760  0.2646  0.4815 -0.3272
 2521poe     o212965   2.728   2.542   3.861 -0.3860 -0.4065  0.0874
 2521poe    c2312966   2.745   2.466   3.978  0.0998  0.0882  0.3441
 2521poe    c2312967   2.708   2.563   4.092  0.3232 -0.1809  0.6470
 2521poe     o212968   2.611   2.655   4.048  0.5581 -0.1032  0.2894
 2521poe    c2312969   2.569   2.744   4.148 -0.2845  0.4995 -0.5836
 2521poe    c2312970   2.466   2.846   4.096 -0.1161  0.8620 -0.2121
 2521poe     o212971   2.359   2.790   4.023  0.3754 -0.2719 -0.0722
 2521poe    c3112972   2.267   2.874   3.958  0.1398 -0.5923 -0.1588
 2522poe    c3112973   6.203   1.171   0.433  0.2907  0.0309  0.3278
 2522poe     o212974   6.295   1.067   0.459  0.2087 -0.0604  0.2555
 2522poe    c2312975   6.241   0.944   0.500 -0.1452  0.0391  0.0917
 2522poe    c2312976   6.357   0.844   0.511 -0.2614 -0.0913  0.1475
 2522poe     o212977   6.448   0.887   0.611 -0.1660 -0.7008  0.3272
 2522poe    c2312978   6.560   0.802   0.621  0.4668  0.1753  0.7838
 2522poe    c2312979   6.687   0.888   0.614  0.4015  0.1821 -0.3966
 2522poe     o212980   6.666   1.001   0.694 -0.1639 -0.1614 -0.0555
 2522poe    c2312981   6.781   1.053   0.756  0.0402  0.2751 -0.7876
 2522poe    c2312982   6.736   1.162   0.855 -0.0220 -0.2424 -0.2439
 2522poe     o212983   6.705   1.283   0.790 -0.4302 -0.0083  0.3724
 2522poe    c3112984   6.628   1.364   0.875  0.0532  0.2537  0.5614
 2523poe    c3112985   3.239   1.176   0.880  0.3329  0.4844  0.0143
 2523poe     o212986   3.268   1.040   0.906  0.0842  0.3708 -0.2942
 2523poe    c2312987   3.408   1.025   0.921 -0.0180  0.2987  0.6290
 2523poe    c2312988   3.434   0.875   0.946 -0.6815 -0.0212 -0.4980
 2523poe     o212989   3.352   0.845   1.057  0.3055 -0.7257  0.0549
 2523poe    c2312990   3.393   0.745   1.148 -0.4876 -0.6851  0.4682
 2523poe    c2312991   3.313   0.770   1.277 -0.1813 -0.7903  0.6793
 2523poe     o212992   3.174   0.750   1.262 -0.1707 -0.5345  0.2157
 2523poe    c2312993   3.120   0.733   1.391 -0.5035 -0.0977  0.1380
 2523poe    c2312994   2.970   0.696   1.387 -0.4871 -0.1629  0.1177
 2523poe     o212995   2.885   0.809   1.386  0.2617  0.4109 -0.7399
 2523poe    c3112996   2.774   0.767   1.311 -0.5058  0.5137  0.3253
 2524poe    c3112997   7.080   0.741   3.577  0.7507  0.0437  0.2668
 2524poe     o212998   7.121   0.670   3.462 -0.6138  0.0352 -0.2366
 2524poe    c2312999   7.179   0.756   3.367 -0.3534  0.1043 -0.0160
 2524poe    c2313000   7.221   0.691   3.235 -0.0867  0.1095  0.0661
 2524poe     o213001   7.112   0.643   3.160 -0.0370  0.5380 -0.2927
 2524poe    c2313002   7.156   0.590   3.037 -0.4005  0.2316 -0.2921
 2524poe    c2313003   7.031   0.561   2.951 -0.4242 -0.7236  0.0522
 2524poe     o213004   6.945   0.483   3.032 -0.8933 -0.3189 -0.0563
 2524poe    c2313005   6.825   0.474   2.959 -0.6994 -0.2263 -0.3898
 2524poe    c2313006   6.747   0.377   3.050  0.0106 -0.3718  0.0660
 2524poe     o213007   6.736   0.432   3.180 -0.2080 -0.1931 -0.0281
 2524poe    c3113008   6.666   0.350   3.271 -0.1049 -0.3253 -0.0675
 2525poe    c3113009   5.724   0.862   2.457  0.3179 -0.3683 -0.0555
 2525poe     o213010   5.644   0.944   2.539  0.1917 -0.0074 -0.5401
 2525poe    c2313011   5.504   0.928   2.533  0.2157 -0.8254  0.7087
 2525poe    c2313012   5.444   0.985   2.663 -0.4736 -0.2426  0.1385
 2525poe     o213013   5.511   1.104   2.699 -0.4283 -0.2131 -0.0391
 2525poe    c2313014   5.511   1.146   2.834 -0.0966  0.2755 -0.1892
 2525poe    c2313015   5.530   1.298   2.840  0.3280  0.2165  0.0105
 2525poe     o213016   5.651   1.327   2.773  0.2802 -0.0121 -0.1716
 2525poe    c2313017   5.700   1.457   2.796  0.8099 -0.2305 -0.0529
 2525poe    c2313018   5.691   1.567   2.688 -0.0945 -0.0996  0.1479
 2525poe     o213019   5.735   1.529   2.560 -0.3700  0.4030 -0.0998
 2525poe    c3113020   5.745   1.647   2.484  0.0799  0.3743 -0.0896
 2526poe    c3113021   6.382   0.171   4.751  0.4151  0.2179 -0.0052
 2526poe     o213022   6.504   0.220   4.702  0.4613 -0.2742 -0.3878
 2526poe    c2313023   6.514   0.361   4.701  0.9470 -0.2986  0.3003
 2526poe    c2313024   6.627   0.410   4.610  0.3748  0.4234 -0.0361
 2526poe     o213025   6.743   0.377   4.684  0.0107 -0.3014  0.2233
 2526poe    c2313026   6.860   0.381   4.605 -0.1984  0.2295 -0.0679
 2526poe    c2313027   6.976   0.372   4.705  0.0821  0.2316 -0.3921
 2526poe     o213028   7.018   0.240   4.732 -0.6894  0.1236  0.2967
 2526poe    c2313029   7.053   0.214   4.866  0.3044  0.0526  0.0273
 2526poe    c2313030   7.151   0.096   4.882 -0.0962 -0.2518  0.2456
 2526poe     o213031   7.089  -0.030   4.872 -0.0934 -0.3128  0.9046
 2526poe    c3113032   7.168  -0.124   4.942  1.1362 -0.4016 -0.5423
 2527poe    c3113033   2.199   1.788   4.145 -0.1163 -0.2497 -0.4585
 2527poe     o213034   2.144   1.852   4.032 -0.5152  0.6362  0.2249
 2527poe    c2313035   2.029   1.786   3.981 -0.2820  0.7530 -0.4684
 2527poe    c2313036   1.898   1.806   4.059  0.0423  0.0928  0.2599
 2527poe     o213037   1.902   1.765   4.194  0.2470 -0.3136  0.1344
 2527poe    c2313038   1.777   1.769   4.259  0.0764 -0.2251 -0.1954
 2527poe    c2313039   1.790   1.854   4.387 -0.1598 -0.5955  0.0798
 2527poe     o213040   1.867   1.812   4.497  0.4014  0.4491  0.1036
 2527poe    c2313041   2.007   1.804   4.480  0.4712  0.4316  0.6511
 2527poe    c2313042   2.082   1.840   4.609  0.6656 -0.1029  0.6875
 2527poe     o213043   2.067   1.973   4.653 -0.1000  0.0693 -0.0690
 2527poe    c3113044   2.173   2.000   4.743  0.3260 -0.2362 -0.4728
 2528poe    c3113045   1.117   2.303   4.264  0.3368 -0.4335 -0.4578
 2528poe     o213046   1.218   2.384   4.207 -0.1537  0.1911 -0.4477
 2528poe    c2313047   1.222   2.390   4.066 -0.4570 -0.3014 -0.4812
 2528poe    c2313048   1.364   2.433   4.025 -0.3219  0.0106  0.2883
 2528poe     o213049   1.462   2.381   4.112 -0.2655 -0.5444 -0.0975
 2528poe    c2313050   1.488   2.244   4.093 -0.6139 -0.6403  0.1101
 2528poe    c2313051   1.560   2.196   4.220  0.1355  0.6045  0.1724
 2528poe     o213052   1.468   2.219   4.324 -0.0470  0.0479  0.1344
 2528poe    c2313053   1.520   2.175   4.448 -0.3834 -0.7033  0.0146
 2528poe    c2313054   1.414   2.223   4.549 -0.3391 -0.5058 -0.0320
 2528poe     o213055   1.364   2.344   4.498 -0.1365 -0.3056  0.2412
 2528poe    c3113056   1.257   2.395   4.575 -0.0008  0.1684  0.1226
 2529poe    c3113057   0.469   2.909   4.948  0.2334 -0.0214 -0.3044
 2529poe     o213058   0.383   2.827   4.873 -0.1601 -0.4470  0.6012
 2529poe    c2313059   0.249   2.865   4.892 -0.1984 -0.1312 -0.2479
 2529poe    c2313060   0.142   2.767   4.840 -0.9853  0.5631  0.0401
 2529poe     o213061   0.128   2.767   4.700 -0.2056  0.4859 -0.0409
 2529poe    c2313062  -0.007   2.792   4.667 -0.5521 -0.5489  0.5437
 2529poe    c2313063  -0.043   2.748   4.523 -0.1035 -0.3122  0.3557
 2529poe     o213064   0.002   2.615   4.509 -0.0531 -0.2153 -0.4517
 2529poe    c2313065   0.132   2.600   4.459 -0.0390 -0.4423 -0.3474
 2529poe    c2313066   0.156   2.573   4.309 -0.4974 -0.4084 -0.4266
 2529poe     o213067   0.103   2.453   4.257 -0.7081 -0.6102  0.2440
 2529poe    c3113068   0.192   2.344   4.259 -0.3038 -0.2817  0.4641
 2530poe    c3113069   1.464   4.647   0.797 -0.0213 -0.1222  0.1336
 2530poe     o213070   1.537   4.593   0.906 -0.5406 -0.4030  0.3476
 2530poe    c2313071   1.542   4.452   0.907 -0.0942 -0.4189 -1.1012
 2530poe    c2313072   1.683   4.393   0.928  0.0369  0.0973 -0.4870
 2530poe     o213073   1.742   4.430   1.050  0.0129 -0.3712 -0.3331
 2530poe    c2313074   1.833   4.330   1.090 -0.0461 -0.3074 -0.0332
 2530poe    c2313075   1.885   4.344   1.234  0.4331 -0.1685 -0.2164
 2530poe     o213076   1.983   4.445   1.224 -0.0402  0.3042 -0.1439
 2530poe    c2313077   1.999   4.529   1.335  0.2139  0.2722 -0.1556
 2530poe    c2313078   2.009   4.679   1.304 -0.5637  0.2651 -0.4489
 2530poe     o213079   2.125   4.712   1.231 -0.1364 -0.6170 -0.1801
 2530poe    c3113080   2.110   4.844   1.183 -0.1110 -0.3657  0.5051
 2531poe    c3113081   4.183   2.721   0.954  0.2646  0.5383 -0.5738
 2531poe     o213082   4.221   2.692   0.821  0.6722 -0.3109 -0.2837
 2531poe    c2313083   4.173   2.778   0.721  0.0503 -0.3640 -0.0384
 2531poe    c2313084   4.226   2.725   0.586  0.0050  0.3655 -0.3494
 2531poe     o213085   4.192   2.589   0.584  0.3717  0.2595  0.2074
 2531poe    c2313086   4.235   2.517   0.470 -0.3937  0.6260 -0.3237
 2531poe    c2313087   4.228   2.366   0.499  0.6503  0.6520  0.0930
 2531poe     o213088   4.308   2.341   0.612  0.0637 -0.5392  0.2583
 2531poe    c2313089   4.320   2.201   0.624 -0.1700 -0.5634  0.2054
 2531poe    c2313090   4.385   2.162   0.758  0.1188  0.0834  0.2554
 2531poe     o213091   4.299   2.161   0.870 -0.6641  0.2991 -0.3378
 2531poe    c3113092   4.280   2.027   0.910  0.3252  0.0158 -0.7736
 2532poe    c3113093   4.373   5.553   3.110 -0.3782 -0.3314 -0.1587
 2532poe     o213094   4.393   5.530   2.972  0.2380  0.7711 -0.2575
 2532poe    c2313095   4.300   5.454   2.899  0.0621  0.8102 -0.0745
 2532poe    c2313096   4.360   5.435   2.759 -0.4332 -0.1974 -0.1556
 2532poe     o213097   4.396   5.568   2.731  0.1582 -0.3446 -0.1134
 2532poe    c2313098   4.437   5.582   2.597 -0.2723  0.6639 -0.1553
 2532poe    c2313099   4.487   5.724   2.564  0.1635  0.5059 -0.1904
 2532poe     o213100   4.573   5.778   2.661  0.2113  0.2143 -0.0708
 2532poe    c2313101   4.697   5.804   2.600  0.2850 -0.1558 -0.0835
 2532poe    c2313102   4.818   5.834   2.691  0.0244  0.4149  0.0789
 2532poe     o213103   4.851   5.721   2.768  0.3282 -0.1269 -0.8275
 2532poe    c3113104   4.971   5.746   2.838 -0.2155  0.3684 -0.0479
 2533poe    c3113105   2.184   2.926   0.015  0.2163  0.0126  0.1419
 2533poe     o213106   2.089   3.026  -0.013  0.8256  0.5305 -0.1132
 2533poe    c2313107   2.039   3.072   0.111 -0.4493 -0.2969 -0.3019
 2533poe    c2313108   1.911   3.157   0.120  0.1615  0.6375 -0.3052
 2533poe     o213109   1.799   3.080   0.082  0.4200  0.3829 -0.5635
 2533poe    c2313110   1.701   3.172   0.038 -0.9582 -0.4583  0.6431
 2533poe    c2313111   1.569   3.117  -0.016 -0.7822 -0.2554  0.0016
 2533poe     o213112   1.606   3.031  -0.122 -0.1343 -0.4799  0.4120
 2533poe    c2313113   1.491   2.993  -0.193  0.0140 -0.0264 -0.0785
 2533poe    c2313114   1.530   2.919  -0.322  0.1567  0.2439 -0.1905
 2533poe     o213115   1.646   2.844  -0.293 -0.3794 -0.4399  0.2183
 2533poe    c3113116   1.700   2.766  -0.397 -0.2681 -0.5925  0.3902
 2534poe    c3113117   2.558   0.906   6.497  0.4727 -0.4642  0.0039
 2534poe     o213118   2.535   0.848   6.371  0.0980  0.0123 -0.1459
 2534poe    c2313119   2.400   0.806   6.373  0.1697 -0.2017  0.3032
 2534poe    c2313120   2.353   0.703   6.269  0.0530  0.1354  0.0195
 2534poe     o213121   2.382   0.753   6.140  0.3313 -0.4553 -0.1506
 2534poe    c2313122   2.313   0.710   6.025  0.8214 -0.1207 -0.5758
 2534poe    c2313123   2.233   0.820   5.952  0.5520 -0.1937 -0.3916
 2534poe     o213124   2.324   0.920   5.914  0.2997  0.3538  0.4316
 2534poe    c2313125   2.288   1.019   5.821 -0.1004 -0.1072  0.0893
 2534poe    c2313126   2.341   1.160   5.853  0.3175 -0.0849 -0.6663
 2534poe     o213127   2.480   1.175   5.834  0.3569 -0.4315 -0.6594
 2534poe    c3113128   2.524   1.224   5.709  0.7174  0.4828 -0.1863
 2535poe    c3113129   4.854   1.126   0.187 -0.7546  0.3981  0.3777
 2535poe     o213130   4.986   1.130   0.137 -0.7957  0.0499  0.2430
 2535poe    c2313131   5.052   1.008   0.166 -0.3601  0.3400  0.4775
 2535poe    c2313132   5.205   1.013   0.156 -0.3768 -0.0361  0.0395
 2535poe     o213133   5.244   1.045   0.024 -0.9003 -0.6814 -0.2716
 2535poe    c2313134   5.378   1.020  -0.011 -0.5565 -0.2057  0.6907
 2535poe    c2313135   5.479   1.129   0.030 -0.2081  0.1964 -1.1357
 2535poe     o213136   5.478   1.236  -0.061 -0.3358  0.4908 -0.7920
 2535poe    c2313137   5.538   1.357  -0.021  0.3314 -0.0848 -0.0088
 2535poe    c2313138   5.506   1.480  -0.108  0.5882 -0.1802 -0.2387
 2535poe     o213139   5.372   1.507  -0.141  0.4466  0.2337  0.6470
 2535poe    c3113140   5.286   1.541  -0.035 -0.1244  1.5233 -0.2018
 2536poe    c3113141   0.941   2.694   3.377 -0.1672  0.9015  0.3480
 2536poe     o213142   0.938   2.664   3.239 -0.0249  0.5855  0.4109
 2536poe    c2313143   0.874   2.540   3.221 -0.2995  0.8120 -0.2145
 2536poe    c2313144   0.873   2.497   3.073 -0.1500  0.3017 -0.0710
 2536poe     o213145   0.796   2.568   2.979  0.1902  0.4435 -0.2421
 2536poe    c2313146   0.769   2.486   2.867  0.9258 -0.3679  0.1649
 2536poe    c2313147   0.710   2.575   2.756  0.3144 -0.2724  0.5595
 2536poe     o213148   0.803   2.681   2.753  0.2175 -0.2058 -0.3161
 2536poe    c2313149   0.762   2.780   2.661 -0.1327  0.5917  0.6821
 2536poe    c2313150   0.847   2.907   2.679  0.4340  0.2508  0.4445
 2536poe     o213151   0.824   2.926   2.817 -0.8972  0.4719  0.2066
 2536poe    c3113152   0.849   3.062   2.845 -0.2303  0.5008 -0.5016
 2537poe    c3113153   4.429   2.585   5.036 -0.1439  0.8185  0.5579
 2537poe     o213154   4.553   2.575   5.102 -0.0073  0.0351  0.1963
 2537poe    c2313155   4.552   2.651   5.221 -0.1978  0.2097  0.0837
 2537poe    c2313156   4.696   2.653   5.274 -0.1468  0.0100 -0.0468
 2537poe     o213157   4.748   2.523   5.254 -0.6332 -0.1922  0.0134
 2537poe    c2313158   4.876   2.538   5.310 -0.3057 -0.5842 -0.6242
 2537poe    c2313159   4.927   2.396   5.341 -0.4517 -0.6203 -0.5526
 2537poe     o213160   4.852   2.345   5.449 -0.5892  0.6901 -0.0026
 2537poe    c2313161   4.868   2.205   5.438  0.4226  0.7775  0.2996
 2537poe    c2313162   4.836   2.131   5.569 -0.2890 -0.3327 -0.4922
 2537poe     o213163   4.700   2.111   5.599 -0.2225 -0.2434 -0.1348
 2537poe    c3113164   4.674   2.029   5.711  0.2848  0.7564  0.7329
 2538poe    c3113165   6.290   2.374   3.943 -0.8851 -0.0328  0.1619
 2538poe     o213166   6.300   2.474   3.845  0.2214 -0.2844  0.0055
 2538poe    c2313167   6.304   2.593   3.920 -0.9754  0.0373 -0.4148
 2538poe    c2313168   6.355   2.721   3.851  0.4836 -0.3968 -0.1793
 2538poe     o213169   6.482   2.704   3.792  0.5306 -0.6029 -0.0181
 2538poe    c2313170   6.555   2.809   3.732  0.0824 -0.1264  0.2569
 2538poe    c2313171   6.662   2.736   3.648 -0.2643  0.1042 -0.3872
 2538poe     o213172   6.598   2.650   3.556 -0.4302 -0.0308 -0.1477
 2538poe    c2313173   6.639   2.648   3.421  0.5426  0.0866  0.1351
 2538poe    c2313174   6.737   2.536   3.380  0.2066 -0.1004 -0.1635
 2538poe     o213175   6.676   2.409   3.377  0.2946 -0.1533  0.2006
 2538poe    c3113176   6.749   2.333   3.282  0.1475 -0.4180  0.2984
 2539poe    c3113177   2.059   3.362   2.789  0.4078 -0.2365 -0.2422
 2539poe     o213178   2.062   3.394   2.926  0.0223  0.1507 -0.3210
 2539poe    c2313179   1.987   3.293   2.990 -0.0683 -0.0361 -0.7212
 2539poe    c2313180   2.011   3.307   3.142 -0.1551  0.6094 -0.7626
 2539poe     o213181   2.135   3.278   3.202 -0.4873  0.0828 -0.3210
 2539poe    c2313182   2.145   3.308   3.340  0.1229  0.0033 -0.3460
 2539poe    c2313183   2.268   3.231   3.391 -0.0831  0.1364  0.3571
 2539poe     o213184   2.372   3.237   3.296 -0.2796 -0.7370  0.0785
 2539poe    c2313185   2.498   3.226   3.357 -0.0492  0.3983 -0.1592
 2539poe    c2313186   2.620   3.236   3.263 -0.3295  0.3054 -0.5325
 2539poe     o213187   2.643   3.370   3.226  0.3141  0.5024  0.5618
 2539poe    c3113188   2.743   3.379   3.127 -0.4512  0.0788 -0.2603
 2540poe    c3113189   6.364   2.888   4.199 -0.2826  0.1906 -0.0529
 2540poe     o213190   6.320   2.992   4.283  0.5310  0.4489  0.0681
 2540poe    c2313191   6.291   2.949   4.414 -0.0186 -0.6826 -0.4105
 2540poe    c2313192   6.226   3.063   4.495  0.5853 -0.2838 -0.4793
 2540poe     o213193   6.303   3.181   4.499  0.1957 -0.0476  0.3240
 2540poe    c2313194   6.323   3.201   4.637 -0.3074 -0.0794  0.4026
 2540poe    c2313195   6.394   3.331   4.679 -0.2498 -0.0185  0.1183
 2540poe     o213196   6.491   3.334   4.577 -0.1429 -0.3210  0.2087
 2540poe    c2313197   6.611   3.394   4.621 -0.0548 -0.3300 -0.0172
 2540poe    c2313198   6.637   3.500   4.512 -0.0176 -0.0686  0.2453
 2540poe     o213199   6.697   3.440   4.400 -0.0049  0.1741  0.1219
 2540poe    c3113200   6.745   3.515   4.290 -0.2257  0.2906  0.1050
 2541poe    c3113201   3.099   4.266   3.808  1.0207 -0.4429  0.4445
 2541poe     o213202   3.230   4.316   3.823  0.9652 -0.0546 -0.3287
 2541poe    c2313203   3.281   4.338   3.952  0.0787  0.1411 -0.0031
 2541poe    c2313204   3.425   4.391   3.937  0.0340  0.0234 -0.8861
 2541poe     o213205   3.513   4.285   3.910  0.2234  0.0187 -0.2635
 2541poe    c2313206   3.646   4.330   3.902  0.3207 -0.2983 -0.4404
 2541poe    c2313207   3.760   4.233   3.866  0.2028 -0.2766 -0.8864
 2541poe     o213208   3.746   4.186   3.734 -0.2734  0.2315 -1.0182
 2541poe    c2313209   3.854   4.109   3.688  0.0274  0.1586 -0.1987
 2541poe    c2313210   3.854   4.085   3.536 -0.3335 -0.7418 -0.0652
 2541poe     o213211   3.893   4.190   3.451 -0.2550 -0.5961  0.1501
 2541poe    c3113212   3.932   4.147   3.322  0.1774 -0.3905  0.2112
 2542poe    c3113213   6.233   0.310   5.213  1.4259 -0.4061  0.5541
 2542poe     o213214   6.148   0.388   5.294 -0.1316 -0.2088 -1.1895
 2542poe    c2313215   6.126   0.333   5.422  0.2999  0.0651 -0.9941
 2542poe    c2313216   6.049   0.442   5.499  0.4059  0.0332 -0.8440
 2542poe     o213217   5.933   0.453   5.419  0.3955  0.1580 -0.8115
 2542poe    c2313218   5.816   0.499   5.483  0.4429 -0.0082 -0.6047
 2542poe    c2313219   5.690   0.488   5.396  0.4017  0.0186 -0.5482
 2542poe     o213220   5.686   0.549   5.269 -0.3650  0.2555 -0.4184
 2542poe    c2313221   5.565   0.520   5.204 -0.4416 -0.3819  0.0010
 2542poe    c2313222   5.551   0.569   5.059 -0.0947  0.5910  0.2893
 2542poe     o213223   5.650   0.516   4.973 -0.6624 -0.0992  0.0518
 2542poe    c3113224   5.621   0.537   4.837  0.1664 -0.2787 -0.1610
 2543poe    c3113225   4.975   3.664   2.164 -0.3466  0.5508 -0.4208
 2543poe     o213226   4.930   3.714   2.288  0.3249  0.0343  0.0359
 2543poe    c2313227   4.905   3.607   2.376 -0.3114 -0.0215 -0.2061
 2543poe    c2313228   4.873   3.640   2.523  0.1041 -0.0177 -0.1139
 2543poe     o213229   4.760   3.723   2.503  0.3250  0.3115 -0.0044
 2543poe    c2313230   4.708   3.770   2.625 -0.1272 -0.3445  0.0576
 2543poe    c2313231   4.599   3.875   2.593 -0.0345 -0.3168 -0.1659
 2543poe     o213232   4.635   3.968   2.494  0.4368 -0.2027  0.1083
 2543poe    c2313233   4.571   4.092   2.517 -0.0234 -0.3387 -0.4046
 2543poe    c2313234   4.631   4.189   2.414  0.4890 -0.6020 -0.3628
 2543poe     o213235   4.771   4.204   2.419  0.4253 -0.0056 -0.2816
 2543poe    c3113236   4.828   4.280   2.315 -0.2490 -0.0789 -0.7105
 2544poe    c3113237   4.544   6.833   4.255 -0.2785 -0.0180  1.3218
 2544poe     o213238   4.678   6.801   4.283 -0.0350  0.0059  0.1943
 2544poe    c2313239   4.715   6.805   4.419 -0.4267 -0.3455  0.3104
 2544poe    c2313240   4.867   6.783   4.434 -0.3574 -0.0121  0.0965
 2544poe     o213241   4.894   6.687   4.334  0.0440  0.4008 -0.1994
 2544poe    c2313242   5.010   6.612   4.361 -0.1717  0.3443  0.6221
 2544poe    c2313243   5.083   6.581   4.228 -0.8738  0.7083  0.1500
 2544poe     o213244   5.009   6.495   4.144 -0.3877  0.3051  0.1324
 2544poe    c2313245   5.087   6.482   4.027 -0.1740 -0.0964  0.3191
 2544poe    c2313246   4.999   6.413   3.922  0.2598  0.2228 -0.2602
 2544poe     o213247   4.888   6.491   3.883 -0.0442 -0.2727 -0.4048
 2544poe    c3113248   4.853   6.470   3.748  0.2612  0.3903 -0.5939
 2545poe    c3113249   3.236   6.837   5.816 -0.1200  0.1528 -0.2461
 2545poe     o213250   3.290   6.958   5.863  0.0595  0.1084 -0.3374
 2545poe    c2313251   3.232   7.076   5.811 -0.1858 -0.0851 -0.5027
 2545poe    c2313252   3.297   7.186   5.897 -0.4272 -0.1052 -0.2929
 2545poe     o213253   3.425   7.133   5.925 -0.3105  0.0601 -0.5102
 2545poe    c2313254   3.512   7.238   5.960  0.0971 -0.4620  0.0483
 2545poe    c2313255   3.658   7.191   5.969  0.3851  0.3484 -0.2821
 2545poe     o213256   3.675   7.066   6.034 -0.6219  0.6952  0.6684
 2545poe    c2313257   3.755   7.080   6.149  0.1573  0.4186  0.1712
 2545poe    c2313258   3.724   6.966   6.248 -0.1056 -0.2506 -0.6700
 2545poe     o213259   3.590   6.969   6.293  0.1877 -0.4560  0.2464
 2545poe    c3113260   3.573   6.994   6.430  0.0297  0.5389  0.0543
 2546poe    c3113261   3.190   4.571   1.606  0.5135 -0.6913  0.2683
 2546poe     o213262   3.318   4.600   1.553  0.3192 -0.1870  0.0623
 2546poe    c2313263   3.407   4.499   1.597  0.5762  0.1243  0.2585
 2546poe    c2313264   3.540   4.534   1.527  0.2930  0.1231 -0.2839
 2546poe     o213265   3.505   4.563   1.393  0.0671 -0.5524 -0.3761
 2546poe    c2313266   3.624   4.581   1.320  0.3314  0.2237  0.2329
 2546poe    c2313267   3.583   4.609   1.175 -0.5632 -0.2669  0.3835
 2546poe     o213268   3.495   4.719   1.162 -0.6007 -0.2901  0.4436
 2546poe    c2313269   3.484   4.761   1.028  0.1951 -0.1133  0.4323
 2546poe    c2313270   3.379   4.872   1.013  0.1219 -0.2473 -0.0672
 2546poe     o213271   3.386   4.994   1.084 -0.0244 -0.1841 -0.1601
 2546poe    c3113272   3.255   5.041   1.105  0.0784  0.0511 -0.0461
 2547poe    c3113273   5.948   6.891   6.426  0.2449  0.1522 -0.0396
 2547poe     o213274   5.897   6.961   6.538 -0.3086 -0.3158  0.0013
 2547poe    c2313275   5.927   7.096   6.514  0.4174 -0.3954  0.4397
 2547poe    c2313276   5.864   7.174   6.631 -0.1491 -0.1127 -0.0470
 2547poe     o213277   5.744   7.104   6.654  0.2557 -0.6493  0.4568
 2547poe    c2313278   5.676   7.154   6.767 -0.0965  0.4519 -0.2344
 2547poe    c2313279   5.535   7.094   6.780  0.2565 -0.3263  0.0163
 2547poe     o213280   5.543   6.957   6.745  0.5586 -0.4135  0.4249
 2547poe    c2313281   5.407   6.924   6.732  0.3814  0.6518 -0.6042
 2547poe    c2313282   5.382   6.780   6.682  0.5287  0.3561  0.1618
 2547poe     o213283   5.426   6.776   6.548  0.1090  0.2069  0.0266
 2547poe    c3113284   5.405   6.646   6.498  0.1098  0.0849  0.3369
 2548poe    c3113285   3.896   3.899   4.547  0.3772 -0.0526 -0.4254
 2548poe     o213286   3.959   3.791   4.611  0.5009  0.0796 -0.3245
 2548poe    c2313287   3.993   3.807   4.747  0.4163 -0.7870 -0.1951
 2548poe    c2313288   4.040   3.682   4.823 -0.1438 -0.4925  0.6534
 2548poe     o213289   3.957   3.589   4.889 -0.6797 -0.1032  0.5340
 2548poe    c2313290   3.866   3.522   4.805  0.0124 -0.8145  0.3383
 2548poe    c2313291   3.850   3.373   4.838  0.4523 -0.9384 -0.0010
 2548poe     o213292   3.781   3.332   4.955 -0.8793  0.1962 -0.3703
 2548poe    c2313293   3.789   3.193   4.971  0.3134  0.3071  0.1218
 2548poe    c2313294   3.755   3.143   5.112  0.1233 -0.0306 -0.0413
 2548poe     o213295   3.617   3.120   5.131  0.2823 -0.7752  0.2275
 2548poe    c3113296   3.613   3.068   5.262 -0.0366 -0.1084  0.4862
 2549poe    c3113297   6.025   1.384   4.994  0.5854 -0.2564 -0.0031
 2549poe     o213298   6.040   1.451   4.871  0.3557  0.1756  0.1988
 2549poe    c2313299   6.161   1.419   4.806  0.1504  0.0751 -0.1394
 2549poe    c2313300   6.180   1.471   4.662  0.1143  0.3479 -0.0454
 2549poe     o213301   6.175   1.612   4.664 -0.1025  0.3414 -0.0948
 2549poe    c2313302   6.246   1.672   4.558 -0.3412  0.4063 -0.2179
 2549poe    c2313303   6.264   1.824   4.579 -0.0723  0.3023  0.3279
 2549poe     o213304   6.137   1.885   4.583 -0.1756  0.0947  0.2510
 2549poe    c2313305   6.156   2.025   4.571  0.6691 -0.0575 -0.2749
 2549poe    c2313306   6.027   2.109   4.556  0.3364 -0.3708  0.7376
 2549poe     o213307   5.927   2.089   4.653 -0.3991 -0.3144  0.0011
 2549poe    c3113308   5.822   2.180   4.634  0.2621  0.3648 -0.4453
 2550poe    c3113309   6.461   6.433   5.201 -0.0674 -0.0900 -0.8133
 2550poe     o213310   6.507   6.562   5.233 -0.6036 -0.0313 -0.2493
 2550poe    c2313311   6.504   6.599   5.369 -0.7818 -0.3256 -0.1723
 2550poe    c2313312   6.612   6.707   5.390 -0.4003 -0.9184  0.9699
 2550poe     o213313   6.742   6.653   5.392 -0.0521 -0.1376  0.0343
 2550poe    c2313314   6.838   6.757   5.391 -0.5739  0.3447 -0.1337
 2550poe    c2313315   6.984   6.709   5.401 -0.9770 -0.7545  0.7909
 2550poe     o213316   7.040   6.661   5.281 -0.9626  0.6513  0.2098
 2550poe    c2313317   7.178   6.663   5.305 -0.7744 -0.4567 -0.6884
 2550poe    c2313318   7.266   6.626   5.184  0.0571 -0.3149 -0.1366
 2550poe     o213319   7.258   6.723   5.083  0.4077 -0.0101  0.1271
 2550poe    c3113320   7.358   6.712   4.985 -0.0174  0.6911 -0.3949
 2551poe    c3113321   0.821   1.667   0.188 -0.3161  0.3088 -0.5974
 2551poe     o213322   0.747   1.685   0.306  0.8535  0.4578  0.1319
 2551poe    c2313323   0.757   1.823   0.335  0.0839  0.5433  0.0166
 2551poe    c2313324   0.714   1.847   0.481 -0.1793 -0.1065  0.0520
 2551poe     o213325   0.574   1.844   0.501 -0.1760 -0.2885  0.0504
 2551poe    c2313326   0.528   1.969   0.547 -0.2653 -0.4108  0.2943
 2551poe    c2313327   0.379   1.971   0.586 -0.2472  0.6780  0.3431
 2551poe     o213328   0.345   1.873   0.681  0.3579 -0.3863 -0.5189
 2551poe    c2313329   0.206   1.865   0.704  0.5830 -0.4934  0.9453
 2551poe    c2313330   0.158   1.828   0.845 -0.1603 -0.2390  0.7645
 2551poe     o213331   0.223   1.890   0.953  0.5000 -0.5107  0.5321
 2551poe    c3113332   0.144   1.876   1.069 -0.4207 -0.2059 -0.0456
 2552poe    c3113333   1.982   3.801   5.265  0.4399  0.4418  0.1277
 2552poe     o213334   1.847   3.836   5.252  0.4691  0.1346 -1.1467
 2552poe    c2313335   1.759   3.726   5.244 -0.0809  0.4158  0.6835
 2552poe    c2313336   1.621   3.755   5.182  0.2523  0.5860  0.0121
 2552poe     o213337   1.545   3.832   5.273  0.6447  0.8004  0.1643
 2552poe    c2313338   1.404   3.824   5.275  0.6755  0.2175  0.5202
 2552poe    c2313339   1.354   3.894   5.403 -0.9137  0.1324 -0.0236
 2552poe     o213340   1.376   4.033   5.394 -0.2218  0.0160 -0.2269
 2552poe    c2313341   1.345   4.100   5.514  0.0406  0.2548 -0.2905
 2552poe    c2313342   1.383   4.246   5.486 -0.1314  0.4038  0.2320
 2552poe     o213343   1.515   4.245   5.437 -0.2846 -0.0755 -0.1775
 2552poe    c3113344   1.548   4.379   5.405 -1.0215  0.1926  0.1748
 2553poe    c3113345   4.991   1.787   4.818 -0.2772 -0.1759 -0.0199
 2553poe     o213346   4.929   1.734   4.703 -0.2847  0.7140 -0.4416
 2553poe    c2313347   5.035   1.714   4.612 -0.0701  0.2885 -0.1025
 2553poe    c2313348   4.994   1.618   4.499  0.2097 -0.1587  0.1721
 2553poe     o213349   4.880   1.663   4.429  0.4099  0.1578  0.0468
 2553poe    c2313350   4.894   1.638   4.291  0.0471  0.4714 -0.0502
 2553poe    c2313351   4.781   1.709   4.215 -0.7324 -0.6585  0.0361
 2553poe     o213352   4.673   1.649   4.283 -0.6771 -0.9204 -0.1074
 2553poe    c2313353   4.552   1.702   4.234 -0.2909 -0.1143 -0.1979
 2553poe    c2313354   4.435   1.633   4.307 -0.5955  0.5805 -0.0239
 2553poe     o213355   4.470   1.635   4.443 -0.1609 -0.5232 -0.1087
 2553poe    c3113356   4.394   1.544   4.519  0.2767 -0.4868  0.3761
 2554poe    c3113357   1.766   6.191   0.308  0.4478 -0.3965 -0.2842
 2554poe     o213358   1.745   6.115   0.191  0.1708 -0.0940 -0.4317
 2554poe    c2313359   1.616   6.060   0.178  0.1456 -0.2640  0.4749
 2554poe    c2313360   1.592   5.955   0.069 -0.5480 -0.4471  0.7987
 2554poe     o213361   1.693   5.857   0.077 -0.4855 -0.5438 -0.7655
 2554poe    c2313362   1.694   5.765  -0.030 -0.1261 -0.5243 -0.7785
 2554poe    c2313363   1.827   5.763  -0.108  0.0198 -0.0282 -0.5479
 2554poe     o213364   1.943   5.751  -0.030 -0.1094 -0.1432 -0.3744
 2554poe    c2313365   2.025   5.646  -0.078  0.0635 -0.0787 -0.2207
 2554poe    c2313366   2.149   5.695  -0.156 -0.0460  0.6614  0.0584
 2554poe     o213367   2.245   5.757  -0.075  0.0324 -0.1137  0.5723
 2554poe    c3113368   2.376   5.726  -0.117  0.1081  0.5355  0.3154
 2555poe    c3113369   3.879   0.869   5.794 -0.2527 -0.5471  0.6902
 2555poe     o213370   3.876   0.950   5.678 -0.2210 -0.1808  0.9439
 2555poe    c2313371   3.786   1.059   5.690  0.1966  0.1788  0.8409
 2555poe    c2313372   3.795   1.154   5.570  0.4555 -0.4500  0.3568
 2555poe     o213373   3.758   1.093   5.448 -0.6825 -0.1872  0.5578
 2555poe    c2313374   3.804   1.168   5.338 -0.5238 -0.4396  0.4502
 2555poe    c2313375   3.820   1.082   5.211  0.0993  0.0940  0.1578
 2555poe     o213376   3.905   0.971   5.229 -0.1218 -0.0730  0.1845
 2555poe    c2313377   3.904   0.926   5.095 -0.2258  0.0408  0.1475
 2555poe    c2313378   3.991   0.799   5.090 -0.0636  0.1439  0.3467
 2555poe     o213379   3.909   0.688   5.121  0.1237 -0.0532  0.1367
 2555poe    c3113380   4.000   0.581   5.132 -0.2104 -0.3577 -0.0589
 2556poe    c3113381   0.537   1.372   1.776  0.2385 -0.2466  1.0692
 2556poe     o213382   0.635   1.308   1.697  0.1175  0.5018  0.2938
 2556poe    c2313383   0.592   1.324   1.564  0.0985  0.7187  0.3254
 2556poe    c2313384   0.715   1.271   1.489 -0.3492 -0.3116  0.2991
 2556poe     o213385   0.783   1.159   1.541 -0.2938 -0.4029  0.0357
 2556poe    c2313386   0.895   1.130   1.461 -0.1769 -0.1109  0.0898
 2556poe    c2313387   0.946   0.987   1.487  0.0490 -0.0519 -0.0304
 2556poe     o213388   0.980   0.979   1.623  0.3728  0.4923 -0.0769
 2556poe    c2313389   1.062   0.869   1.658  0.8479  0.8309 -0.1212
 2556poe    c2313390   1.107   0.887   1.804 -0.0888  0.3232  0.2382
 2556poe     o213391   1.208   0.981   1.831  0.4453 -0.0738 -0.3439
 2556poe    c3113392   1.189   1.026   1.963  0.5573 -0.1128 -0.3140
 2557poe    c3113393   1.411   2.428   6.618  0.5371 -0.2539  0.9784
 2557poe     o213394   1.403   2.567   6.599 -0.1326 -0.4196 -0.0273
 2557poe    c2313395   1.488   2.628   6.504 -0.6444  0.6627  0.1869
 2557poe    c2313396   1.530   2.771   6.541  0.4297  0.2580  0.5679
 2557poe     o213397   1.420   2.857   6.521  0.0129 -0.3199  0.3311
 2557poe    c2313398   1.459   2.993   6.519  0.1121 -0.3511  0.0660
 2557poe    c2313399   1.349   3.069   6.443  0.0660 -0.0489  0.4340
 2557poe     o213400   1.217   3.047   6.485 -0.1284  0.8077  0.3036
 2557poe    c2313401   1.130   3.115   6.397 -0.0117  0.0166 -0.4419
 2557poe    c2313402   0.982   3.106   6.439  0.0848  0.1912 -0.0539
 2557poe     o213403   0.937   2.980   6.481 -0.3618  0.4160  0.1467
 2557poe    c3113404   0.824   2.983   6.566 -0.1270  0.3508  0.4639
 2558poe    c3113405   6.596   2.218   5.168 -0.2340 -1.0569 -0.5155
 2558poe     o213406   6.473   2.255   5.225  0.2277 -0.3017  0.0031
 2558poe    c2313407   6.421   2.365   5.154 -0.1676 -0.1868  0.4636
 2558poe    c2313408   6.275   2.411   5.172 -0.3436 -0.2441 -0.7072
 2558poe     o213409   6.262   2.482   5.293  0.2540 -0.2929 -0.6122
 2558poe    c2313410   6.134   2.488   5.353  0.5521 -0.5196  0.0580
 2558poe    c2313411   6.114   2.598   5.459 -0.3154 -0.3061 -0.3207
 2558poe     o213412   6.127   2.546   5.589  0.2660  0.2659 -0.1441
 2558poe    c2313413   6.097   2.653   5.676  0.0388 -0.1750  0.3276
 2558poe    c2313414   6.106   2.627   5.827  0.5256  0.5671  0.4309
 2558poe     o213415   6.037   2.516   5.880 -0.0347  0.4644 -0.4885
 2558poe    c3113416   6.046   2.510   6.021 -0.5152  0.1962 -0.4680
 2559poe    c3113417   4.070   6.500   3.680  0.4472  0.6487 -0.2033
 2559poe     o213418   4.051   6.457   3.547 -0.2434 -0.4237  0.2294
 2559poe    c2313419   4.024   6.573   3.472 -0.2054 -0.2496  0.4834
 2559poe    c2313420   4.011   6.526   3.326  0.6908 -0.1115  0.3536
 2559poe     o213421   4.103   6.420   3.313  0.3156 -0.4193  0.1860
 2559poe    c2313422   4.106   6.392   3.174 -0.2449  0.1669  0.0516
 2559poe    c2313423   4.244   6.333   3.143 -0.3413  0.0694 -0.1869
 2559poe     o213424   4.263   6.234   3.242 -0.3304 -0.0435 -0.3004
 2559poe    c2313425   4.295   6.115   3.174  0.5024 -0.0038  0.0060
 2559poe    c2313426   4.304   5.993   3.267 -0.0877  0.2740  0.4293
 2559poe     o213427   4.178   5.963   3.323 -0.0974 -0.2004  0.1601
 2559poe    c3113428   4.169   5.826   3.294  0.3722 -0.3972  0.8999
 2560poe    c3113429   7.076   0.277   7.224 -0.4896  0.0452  0.2063
 2560poe     o213430   6.936   0.267   7.225 -0.5034  0.1447 -0.5078
 2560poe    c2313431   6.868   0.370   7.293 -0.6017 -0.2969  0.0751
 2560poe    c2313432   6.843   0.488   7.196 -0.3046  0.1671  0.5583
 2560poe     o213433   6.756   0.464   7.087  0.1354  0.2259  0.1920
 2560poe    c2313434   6.664   0.570   7.079 -0.0109  0.1122  0.3614
 2560poe    c2313435   6.563   0.558   6.963  0.0980 -0.2604  0.3043
 2560poe     o213436   6.465   0.456   6.963 -0.0798 -0.0896 -0.0275
 2560poe    c2313437   6.348   0.494   7.032 -0.1726 -0.0971 -0.1797
 2560poe    c2313438   6.308   0.401   7.148 -0.3253  0.1965  0.0046
 2560poe     o213439   6.277   0.273   7.098  0.1195  0.0552  0.0823
 2560poe    c3113440   6.251   0.188   7.207 -0.2500 -0.2521 -0.2409
 2561poe    c3113441   0.358   1.948   3.869 -0.3504 -0.0143 -0.6059
 2561poe     o213442   0.391   2.085   3.867 -0.4662  0.0228  0.0219
 2561poe    c2313443   0.428   2.144   3.990  0.7118 -0.2937 -0.1652
 2561poe    c2313444   0.461   2.294   3.994 -0.3969 -0.0303 -0.3757
 2561poe     o213445   0.349   2.376   3.971 -0.2893  0.1374 -0.3045
 2561poe    c2313446   0.384   2.513   3.964  0.3085  0.0018 -0.0541
 2561poe    c2313447   0.287   2.613   3.899 -0.3123 -0.1747  0.5874
 2561poe     o213448   0.167   2.624   3.973 -0.6094  0.2868  0.0474
 2561poe    c2313449   0.054   2.649   3.893 -0.3056 -0.3538 -0.6004
 2561poe    c2313450  -0.060   2.689   3.989  0.0046  0.1734 -0.4446
 2561poe     o213451  -0.099   2.580   4.069 -0.1856  0.2909 -0.3750
 2561poe    c3113452  -0.196   2.627   4.160 -0.2067 -0.0312 -0.2270
 2562poe    c3113453   0.189   3.288   4.600 -0.3115  0.1561 -0.1118
 2562poe     o213454   0.152   3.381   4.500  0.6298  0.6009 -0.0561
 2562poe    c2313455   0.083   3.487   4.561  0.1482  0.4293 -0.2977
 2562poe    c2313456  -0.008   3.551   4.454  0.2217  0.3615 -0.4005
 2562poe     o213457  -0.067   3.458   4.366  0.7417 -0.5421  0.1794
 2562poe    c2313458  -0.179   3.404   4.433  0.6527 -0.5636  0.0151
 2562poe    c2313459  -0.175   3.262   4.375  0.3039 -0.6498  0.2054
 2562poe     o213460  -0.052   3.221   4.320  0.2783  0.4336 -0.6705
 2562poe    c2313461  -0.057   3.087   4.278  0.5667 -0.0037  0.6609
 2562poe    c2313462   0.070   3.004   4.303  0.5299 -0.1645  0.3189
 2562poe     o213463   0.175   3.078   4.243  0.1025  0.1507 -0.0433
 2562poe    c3113464   0.289   3.000   4.220 -0.4173 -0.8264  0.6000
 2563poe    c3113465   5.586   1.376   6.115  0.1514 -0.0414  0.2673
 2563poe     o213466   5.628   1.455   6.005 -0.1872 -0.5791 -0.2539
 2563poe    c2313467   5.567   1.580   6.023  0.4045 -0.3141 -0.0659
 2563poe    c2313468   5.627   1.684   5.926  0.4575 -0.2831  0.0007
 2563poe     o213469   5.763   1.709   5.953  0.6065 -0.5596 -0.4843
 2563poe    c2313470   5.810   1.802   5.858 -0.1525 -0.0365 -0.3523
 2563poe    c2313471   5.933   1.740   5.790 -0.2516  0.0411 -0.6058
 2563poe     o213472   6.019   1.685   5.887 -0.5249  0.1168 -0.3211
 2563poe    c2313473   6.137   1.638   5.826 -0.1805 -0.1390  0.5202
 2563poe    c2313474   6.209   1.546   5.926  0.0192 -0.6611 -0.0960
 2563poe     o213475   6.210   1.630   6.039  0.0688 -0.1617 -0.4627
 2563poe    c3113476   6.273   1.561   6.145 -0.7246 -0.0968  0.0634
 2564poe    c3113477   5.202   2.611   4.305 -0.4189 -0.0689  0.0486
 2564poe     o213478   5.140   2.630   4.180 -0.0865 -0.3660 -0.1640
 2564poe    c2313479   5.245   2.630   4.085 -0.1675 -0.2209 -0.2542
 2564poe    c2313480   5.180   2.634   3.946 -0.4457 -0.0227 -0.1195
 2564poe     o213481   5.116   2.513   3.910 -0.1113 -0.0484 -0.6383
 2564poe    c2313482   5.055   2.512   3.783 -0.0301  0.4399 -0.6853
 2564poe    c2313483   4.919   2.583   3.787 -0.2752 -0.0353 -0.5108
 2564poe     o213484   4.828   2.528   3.879 -0.1885  0.2947 -0.2287
 2564poe    c2313485   4.695   2.540   3.834 -0.5306 -0.1724  0.6239
 2564poe    c2313486   4.632   2.677   3.802  0.0750 -0.0107  0.1034
 2564poe     o213487   4.628   2.762   3.915 -0.5713  0.1552 -0.0401
 2564poe    c3113488   4.631   2.899   3.884  0.2759  0.0768 -0.3580
 2565poe    c3113489   3.499   5.231   6.774 -0.2661  0.0931  0.0115
 2565poe     o213490   3.460   5.331   6.683  0.0697  0.2176  0.0042
 2565poe    c2313491   3.489   5.461   6.729  0.3105  0.2360 -0.1960
 2565poe    c2313492   3.396   5.550   6.645 -0.0745  0.2144  0.2039
 2565poe     o213493   3.437   5.546   6.510 -0.3342  0.0608  0.1294
 2565poe    c2313494   3.341   5.612   6.430  0.0706 -0.0415 -0.4531
 2565poe    c2313495   3.359   5.579   6.281  0.9872 -0.0828 -0.3376
 2565poe     o213496   3.382   5.441   6.272  0.7407 -0.1796  0.4593
 2565poe    c2313497   3.422   5.418   6.139  0.2163  0.5162  0.1776
 2565poe    c2313498   3.489   5.280   6.144 -0.5008  0.1695  0.2960
 2565poe     o213499   3.394   5.183   6.184  0.0866 -0.4264  0.2621
 2565poe    c3113500   3.436   5.053   6.147 -0.2213 -0.3668 -0.3091
 2566poe    c3113501   2.478   5.783   2.040 -0.9314  0.0899  0.7556
 2566poe     o213502   2.500   5.657   2.101  0.5186 -0.1178 -0.1477
 2566poe    c2313503   2.376   5.590   2.116  0.4770 -0.1095 -0.4376
 2566poe    c2313504   2.418   5.452   2.169  0.3438 -0.0611 -0.2029
 2566poe     o213505   2.532   5.396   2.107  0.0577 -0.5408 -0.3051
 2566poe    c2313506   2.525   5.258   2.135  0.4719 -0.3748  0.6820
 2566poe    c2313507   2.636   5.181   2.061  0.4109  0.3608 -0.2013
 2566poe     o213508   2.640   5.199   1.921  0.3928  0.3011 -0.2095
 2566poe    c2313509   2.696   5.082   1.867 -0.0301  0.0093 -0.0313
 2566poe    c2313510   2.709   5.107   1.715  0.2038 -0.5240 -0.1036
 2566poe     o213511   2.789   5.222   1.695 -0.4660 -0.0110  0.1080
 2566poe    c3113512   2.824   5.228   1.558  0.8844  0.4094  0.4558
 2567poe    c3113513   3.013   6.255   1.085 -0.0397 -0.2569 -0.1169
 2567poe     o213514   3.044   6.310   0.959  0.9077 -0.3152  0.0840
 2567poe    c2313515   3.005   6.230   0.850  0.6354 -0.3905  0.2370
 2567poe    c2313516   3.070   6.289   0.724  0.3510  0.3126  0.4114
 2567poe     o213517   3.026   6.415   0.679  0.0406 -0.2040 -0.7735
 2567poe    c2313518   3.143   6.472   0.626  0.1668  0.5569  0.3067
 2567poe    c2313519   3.134   6.613   0.565  0.1565  0.5410  0.2708
 2567poe     o213520   3.162   6.714   0.659  0.1079  0.4269  0.4069
 2567poe    c2313521   3.180   6.832   0.584 -0.1956 -0.0418 -0.4086
 2567poe    c2313522   3.228   6.934   0.689 -0.4770 -0.7960  0.4703
 2567poe     o213523   3.133   6.982   0.780 -0.1207  0.1866  0.3378
 2567poe    c3113524   3.197   7.030   0.896 -0.2060  0.5715  0.2256
 2568poe    c3113525   5.407   6.231   0.439  0.3416 -0.4418  0.3062
 2568poe     o213526   5.547   6.243   0.443  0.3281 -0.0871 -0.2475
 2568poe    c2313527   5.590   6.207   0.573 -0.1274 -0.1600 -0.1175
 2568poe    c2313528   5.726   6.136   0.564  0.0687  0.2159 -0.1458
 2568poe     o213529   5.795   6.197   0.457 -0.0044 -0.3335 -0.5128
 2568poe    c2313530   5.929   6.153   0.450  0.2313  0.3395 -0.3257
 2568poe    c2313531   6.013   6.246   0.362  1.0446 -0.5266 -0.4796
 2568poe     o213532   5.942   6.259   0.241  0.0320  0.4038  0.1940
 2568poe    c2313533   6.005   6.347   0.151 -0.6187 -0.1360 -0.8090
 2568poe    c2313534   5.908   6.388   0.039 -0.2167 -0.1231 -1.1544
 2568poe     o213535   5.817   6.492   0.067  0.1181 -0.1794  0.2096
 2568poe    c3113536   5.723   6.505  -0.037  0.0908  0.3191  0.2922
 2569poe    c3113537   1.389   5.094   4.558 -0.0780  0.6159 -0.2259
 2569poe     o213538   1.402   5.006   4.448  0.0095  0.0971  0.1977
 2569poe    c2313539   1.525   5.016   4.380  0.0858 -0.0702  0.3102
 2569poe    c2313540   1.536   4.937   4.249 -0.5485 -0.4076  0.4610
 2569poe     o213541   1.456   4.987   4.144 -0.4429 -0.6806  0.2478
 2569poe    c2313542   1.451   4.916   4.023  0.0598  0.2049 -0.3039
 2569poe    c2313543   1.329   4.978   3.953 -0.2271 -0.3458 -0.2998
 2569poe     o213544   1.363   5.108   3.911 -0.8001 -0.0121  0.2522
 2569poe    c2313545   1.243   5.167   3.866 -0.5124  0.0596 -0.4304
 2569poe    c2313546   1.273   5.298   3.790 -0.2726  0.0672 -0.3229
 2569poe     o213547   1.393   5.284   3.717 -0.2482 -0.0807 -0.2555
 2569poe    c3113548   1.428   5.401   3.647 -0.2601 -0.0541 -0.2164
 2570poe    c3113549   6.846   1.413   7.127  0.5337  0.3487 -0.4207
 2570poe     o213550   6.762   1.515   7.177  0.0392 -0.2220 -0.0793
 2570poe    c2313551   6.753   1.497   7.316  0.6340 -0.2460 -0.0412
 2570poe    c2313552   6.755   1.630   7.393 -0.0063 -0.2500 -0.0064
 2570poe     o213553   6.674   1.710   7.310  0.3146  0.2523  0.1601
 2570poe    c2313554   6.706   1.847   7.303 -0.5164  0.4527  0.1707
 2570poe    c2313555   6.639   1.895   7.173 -0.2696 -0.4296 -0.2858
 2570poe     o213556   6.655   1.801   7.069  0.7530  0.0677 -0.5864
 2570poe    c2313557   6.575   1.827   6.957  0.6768  0.1035 -0.5235
 2570poe    c2313558   6.608   1.720   6.851  0.3025 -0.3139 -0.2215
 2570poe     o213559   6.572   1.600   6.914 -0.4009 -0.1258 -0.2512
 2570poe    c3113560   6.555   1.510   6.806  0.0381  0.0313 -0.4515
 2571poe    c3113561   1.935   0.128   2.159 -0.1432  0.5538  0.3058
 2571poe     o213562   1.897   0.205   2.047 -0.1868  0.1100  0.0103
 2571poe    c2313563   2.010   0.258   1.981 -0.0730 -0.2476 -0.0800
 2571poe    c2313564   1.981   0.395   1.918 -0.1055 -0.2117  0.0132
 2571poe     o213565   1.895   0.386   1.806  0.0545 -0.4411 -0.0905
 2571poe    c2313566   1.872   0.504   1.732 -0.6199 -0.6370 -0.1933
 2571poe    c2313567   1.767   0.600   1.792 -0.0185 -0.2227  0.2084
 2571poe     o213568   1.644   0.532   1.782  0.1761 -0.4662 -0.6468
 2571poe    c2313569   1.547   0.580   1.872  0.8100  0.1407 -0.2786
 2571poe    c2313570   1.426   0.485   1.854  0.2842  0.7517 -0.0187
 2571poe     o213571   1.337   0.507   1.746 -0.0697  0.4972  0.2208
 2571poe    c3113572   1.242   0.404   1.755  0.2576  0.1555 -0.1876
 2572poe    c3113573   3.569   3.148   6.134 -0.8344  0.2243  0.3105
 2572poe     o213574   3.585   3.288   6.143 -0.0863  0.1528  0.1532
 2572poe    c2313575   3.511   3.359   6.046 -0.2148  0.3294  0.3782
 2572poe    c2313576   3.588   3.461   5.961 -0.2753  0.1558  0.1155
 2572poe     o213577   3.628   3.568   6.043 -0.4534  0.4645 -0.1959
 2572poe    c2313578   3.738   3.645   6.000  0.7619 -0.9839  0.2259
 2572poe    c2313579   3.731   3.768   6.093  0.3751 -0.1040 -0.9476
 2572poe     o213580   3.722   3.733   6.229  0.0702  0.0239 -0.9354
 2572poe    c2313581   3.663   3.838   6.304 -0.3579 -0.3905 -0.6874
 2572poe    c2313582   3.673   3.823   6.457  0.1350  0.6026 -0.6164
 2572poe     o213583   3.614   3.708   6.514  0.6561  0.3486 -0.5891
 2572poe    c3113584   3.639   3.727   6.652 -0.0974  0.5240 -0.4757
 2573poe    c3113585   1.195   2.274   5.844 -0.2105 -0.0512  0.5724
 2573poe     o213586   1.326   2.307   5.882 -0.2164  0.4711  0.1490
 2573poe    c2313587   1.358   2.239   6.002 -0.0215  0.4746  0.0992
 2573poe    c2313588   1.489   2.301   6.054  0.2359 -0.3233  0.4096
 2573poe     o213589   1.565   2.291   5.936 -0.4230  0.0350 -0.0465
 2573poe    c2313590   1.702   2.312   5.962 -0.3875 -0.0067 -0.1984
 2573poe    c2313591   1.790   2.221   5.874 -0.1203  0.0087  0.0529
 2573poe     o213592   1.780   2.284   5.748  0.1178 -0.1472 -0.0439
 2573poe    c2313593   1.836   2.200   5.649  0.6204 -0.0857  0.1889
 2573poe    c2313594   1.848   2.275   5.516  0.5056 -0.5252 -0.0702
 2573poe     o213595   1.721   2.316   5.469  0.6366 -0.5953 -0.4973
 2573poe    c3113596   1.740   2.417   5.373  0.1495 -0.0245  0.0002
 2574poe    c3113597   0.157   4.035   5.389  0.3548 -0.4980  0.2322
 2574poe     o213598   0.213   4.047   5.260 -0.3810  0.1739 -0.0249
 2574poe    c2313599   0.111   4.061   5.162 -0.4638 -0.0277  0.0335
 2574poe    c2313600   0.054   4.203   5.152  0.0409  0.2229  0.5712
 2574poe     o213601  -0.004   4.271   5.261 -0.7072 -0.2888  0.5067
 2574poe    c2313602   0.082   4.375   5.304  0.0712 -0.5240 -0.4380
 2574poe    c2313603   0.020   4.422   5.436  0.2769 -0.5655 -0.3271
 2574poe     o213604  -0.118   4.450   5.420  0.2587 -0.3020  0.2494
 2574poe    c2313605  -0.172   4.480   5.547  0.5757 -0.4853  0.4321
 2574poe    c2313606  -0.323   4.508   5.531  0.8156  0.4680 -0.2969
 2574poe     o213607  -0.400   4.403   5.476  0.3337  0.7110 -0.0904
 2574poe    c3113608  -0.503   4.376   5.569  0.3316  0.8837 -0.0411
 2575poe    c3113609   6.972   3.623   0.455 -0.7804 -0.7340 -0.3062
 2575poe     o213610   6.891   3.679   0.556 -0.4304 -0.3139 -0.2588
 2575poe    c2313611   6.932   3.638   0.684  0.0746 -0.7868 -0.5677
 2575poe    c2313612   6.850   3.525   0.748 -0.2421 -0.4819 -0.4332
 2575poe     o213613   6.843   3.403   0.678 -0.7015 -0.2067 -0.8661
 2575poe    c2313614   6.758   3.304   0.731 -0.0480 -0.2242  0.1706
 2575poe    c2313615   6.809   3.230   0.855  0.3555  0.0817  0.1882
 2575poe     o213616   6.756   3.283   0.975 -0.6263 -0.8742  0.1873
 2575poe    c2313617   6.798   3.223   1.095  0.1252  0.5450  0.6407
 2575poe    c2313618   6.672   3.235   1.183 -0.0582 -0.1168  0.4691
 2575poe     o213619   6.560   3.150   1.168  0.2665 -0.3902 -0.4912
 2575poe    c3113620   6.450   3.234   1.140  0.7607  0.5502  0.3221
 2576poe    c3113621   0.651   6.000   5.992  0.1301  0.4092 -0.9546
 2576poe     o213622   0.566   6.088   6.062 -0.0432 -0.2900 -0.2606
 2576poe    c2313623   0.594   6.222   6.026  0.3127 -0.2768  0.0536
 2576poe    c2313624   0.516   6.320   6.116  0.0857 -0.4419  0.0389
 2576poe     o213625   0.376   6.313   6.124  0.0354  0.4679  0.0009
 2576poe    c2313626   0.333   6.410   6.216  0.0768  0.3422  0.1519
 2576poe    c2313627   0.255   6.355   6.337  0.3456 -0.7001 -0.1423
 2576poe     o213628   0.179   6.250   6.280  0.0238 -0.6852  0.2522
 2576poe    c2313629   0.128   6.141   6.353 -0.3523 -0.1934  0.7331
 2576poe    c2313630   0.237   6.049   6.411  0.3431  0.2849  0.2021
 2576poe     o213631   0.326   5.999   6.315 -0.0089  0.3470 -0.1589
 2576poe    c3113632   0.453   5.987   6.376  0.0586  0.2698 -0.3139
 2577poe    c3113633   5.596   3.990   6.339 -0.4980  0.3467  0.6340
 2577poe     o213634   5.494   4.062   6.273 -0.2511  0.1461  0.0287
 2577poe    c2313635   5.378   4.086   6.349  0.2395  0.3300  0.7352
 2577poe    c2313636   5.265   4.155   6.269  0.7384  0.2539 -0.0401
 2577poe     o213637   5.223   4.103   6.145 -0.1712  0.5906  0.1226
 2577poe    c2313638   5.098   4.162   6.117 -0.2155  0.2841 -0.3337
 2577poe    c2313639   5.046   4.109   5.982 -0.3445  0.3023 -0.2918
 2577poe     o213640   4.996   3.978   6.002 -0.4563  0.4250  0.2263
 2577poe    c2313641   5.033   3.908   5.886 -0.0119  0.2448  0.4728
 2577poe    c2313642   4.987   3.761   5.876  0.5933  0.0778  0.0778
 2577poe     o213643   5.058   3.670   5.957  0.2538 -0.2219  0.0361
 2577poe    c3113644   5.026   3.537   5.922 -0.3889 -0.0515 -0.0407
 2578poe    c3113645   5.332   4.522   1.760 -0.7016 -0.5793  0.8739
 2578poe     o213646   5.375   4.388   1.765  0.3235 -0.3085 -0.2122
 2578poe    c2313647   5.512   4.382   1.734  0.3455  0.5313 -0.3105
 2578poe    c2313648   5.545   4.232   1.747 -0.1991  0.3812 -0.6521
 2578poe     o213649   5.472   4.165   1.848  0.5761  0.4465 -0.0420
 2578poe    c2313650   5.492   4.026   1.853 -0.1701  0.3382  0.0712
 2578poe    c2313651   5.405   3.937   1.944  0.2933 -0.1085  0.0811
 2578poe     o213652   5.416   3.977   2.079 -0.1287 -0.3470  0.1887
 2578poe    c2313653   5.298   3.935   2.142  0.0630 -0.2617  0.6090
 2578poe    c2313654   5.288   3.993   2.285 -0.2058  0.3567  0.3456
 2578poe     o213655   5.256   4.130   2.287 -0.7357  0.2399  0.1527
 2578poe    c3113656   5.234   4.170   2.420  0.3787 -0.1800  0.4744
 2579poe    c3113657   2.877   1.656   5.480  0.0710 -0.0997  0.7219
 2579poe     o213658   3.013   1.692   5.471 -0.0297  0.2158  0.4340
 2579poe    c2313659   3.050   1.664   5.338 -0.2440 -0.5610  0.5318
 2579poe    c2313660   3.188   1.733   5.332 -0.1994 -0.7082 -0.3434
 2579poe     o213661   3.258   1.685   5.446 -0.1703  0.1261 -0.0053
 2579poe    c2313662   3.358   1.781   5.471  0.1794 -0.4103  0.6854
 2579poe    c2313663   3.455   1.741   5.583  0.4195  0.2589  0.7224
 2579poe     o213664   3.375   1.714   5.696  0.3981  0.1926  0.6918
 2579poe    c2313665   3.437   1.667   5.814  0.5402  0.7698  0.8515
 2579poe    c2313666   3.344   1.656   5.935 -0.1206 -0.3817  0.2548
 2579poe     o213667   3.236   1.567   5.917 -0.6446  0.4256 -0.6472
 2579poe    c3113668   3.145   1.557   6.024 -0.2338  0.0019 -0.3358
 2580poe    c3113669   6.009   2.410   1.150  0.0937  0.4369 -0.1370
 2580poe     o213670   5.886   2.342   1.152  0.1165  0.4016  0.2826
 2580poe    c2313671   5.775   2.430   1.150 -0.5318 -0.4117 -0.3029
 2580poe    c2313672   5.744   2.534   1.041 -0.8715  0.1568  0.3286
 2580poe     o213673   5.834   2.642   1.044 -0.4403 -0.1734 -0.3349
 2580poe    c2313674   5.823   2.716   0.925 -0.0187 -0.1575 -0.3621
 2580poe    c2313675   5.960   2.767   0.874 -0.2037  0.3633 -0.3405
 2580poe     o213676   6.028   2.666   0.803  0.6384  0.2367  0.6321
 2580poe    c2313677   6.154   2.712   0.761  0.4312  0.0695 -0.1921
 2580poe    c2313678   6.265   2.734   0.866  0.1669  0.0201  0.0990
 2580poe     o213679   6.323   2.607   0.885 -0.9935 -0.4743  0.4688
 2580poe    c3113680   6.421   2.629   0.984 -0.6563 -0.2116  0.0831
 2581poe    c3113681   2.312   3.568   3.946 -0.1977  0.5800  0.2936
 2581poe     o213682   2.331   3.696   4.002  0.3322  0.7040 -0.1593
 2581poe    c2313683   2.203   3.755   4.002 -0.1861 -0.4065 -0.4383
 2581poe    c2313684   2.227   3.897   4.055 -0.2635 -0.3038 -0.6788
 2581poe     o213685   2.326   3.949   3.970  0.0400  0.2375 -0.0026
 2581poe    c2313686   2.362   4.077   4.016  0.0336  0.5648 -0.8985
 2581poe    c2313687   2.486   4.142   3.950  0.7137  0.1321 -0.0667
 2581poe     o213688   2.457   4.159   3.813 -0.3810 -0.4121  0.0816
 2581poe    c2313689   2.549   4.238   3.740  0.0980 -1.1777 -0.1560
 2581poe    c2313690   2.687   4.183   3.702  0.5302 -0.1922 -0.0501
 2581poe     o213691   2.662   4.105   3.587  0.1921 -0.1297 -0.0192
 2581poe    c3113692   2.784   4.047   3.546  0.1176 -0.6183  0.4327
 2582poe    c3113693   6.613   2.750   1.512  0.3121  0.2969 -0.1674
 2582poe     o213694   6.746   2.797   1.516  0.4368 -0.0857  0.2134
 2582poe    c2313695   6.759   2.924   1.455  0.2800 -0.2513 -0.1685
 2582poe    c2313696   6.905   2.932   1.408  0.2267  0.4138 -0.2247
 2582poe     o213697   7.012   2.926   1.499 -0.1592 -1.4138  0.1493
 2582poe    c2313698   7.130   2.945   1.423 -0.7016  0.0023 -0.3674
 2582poe    c2313699   7.242   2.957   1.528 -1.3590  0.1428  0.3368
 2582poe     o213700   7.218   2.858   1.625  0.0474 -0.3568  0.2044
 2582poe    c2313701   7.314   2.864   1.728 -0.0009  0.2615  0.2164
 2582poe    c2313702   7.250   2.760   1.821  0.1246 -0.5333 -0.5666
 2582poe     o213703   7.121   2.799   1.862  0.0623 -1.1250 -0.1824
 2582poe    c3113704   7.041   2.701   1.925 -0.8752 -0.1630  0.1612
 2583poe    c3113705   5.467   2.224   0.852  0.5886 -0.2334  0.1180
 2583poe     o213706   5.529   2.104   0.894  0.2265 -0.4357  0.0757
 2583poe    c2313707   5.576   2.032   0.782  0.3556 -0.6392  0.2607
 2583poe    c2313708   5.625   1.890   0.816 -0.5268 -0.8417  0.7361
 2583poe     o213709   5.755   1.900   0.870 -0.0056 -0.2279 -0.5744
 2583poe    c2313710   5.779   1.779   0.939  0.1402 -0.0023 -0.2280
 2583poe    c2313711   5.921   1.759   0.997  0.0508 -0.1067 -0.0434
 2583poe     o213712   6.024   1.716   0.911  0.0356 -0.4020  0.0835
 2583poe    c2313713   5.999   1.603   0.830 -0.1631 -0.3297  0.0427
 2583poe    c2313714   6.137   1.537   0.815 -0.0625 -0.1186  0.0276
 2583poe     o213715   6.211   1.580   0.703  0.0623 -0.2070  0.0747
 2583poe    c3113716   6.297   1.475   0.667  0.0258 -0.3230  0.3265
 2584poe    c3113717   2.377   4.443   2.311 -0.0631 -0.1244 -0.4161
 2584poe     o213718   2.410   4.552   2.228  0.0201  0.0590 -0.1419
 2584poe    c2313719   2.334   4.535   2.111  0.0869  0.0192 -0.1800
 2584poe    c2313720   2.318   4.659   2.021 -0.7667 -0.1361 -0.2498
 2584poe     o213721   2.247   4.756   2.094  0.2345  0.5383 -0.1685
 2584poe    c2313722   2.203   4.869   2.022 -0.0137  0.5062 -0.0665
 2584poe    c2313723   2.050   4.887   2.025 -0.0498  0.2170 -0.1951
 2584poe     o213724   2.013   4.899   2.160  0.2841 -0.1733 -0.0657
 2584poe    c2313725   1.873   4.897   2.169  0.3018  0.0454  0.3234
 2584poe    c2313726   1.825   4.988   2.284 -0.2018  0.1653  0.0240
 2584poe     o213727   1.924   5.010   2.381  0.1488 -0.1128 -0.2673
 2584poe    c3113728   1.883   5.137   2.427 -0.3344 -0.5124  0.4233
 2585poe    c3113729   5.158   5.598   5.305  0.2623 -0.1027 -0.1624
 2585poe     o213730   5.042   5.658   5.358  0.6740  0.2028  0.3936
 2585poe    c2313731   4.936   5.570   5.330  0.7149  0.3755 -0.3018
 2585poe    c2313732   4.837   5.609   5.217  0.5297  0.4091 -0.1279
 2585poe     o213733   4.766   5.728   5.240 -0.8830 -0.4174 -0.1236
 2585poe    c2313734   4.669   5.752   5.140 -0.3816  0.4765 -0.4086
 2585poe    c2313735   4.650   5.904   5.132 -0.2988  0.5200  0.1534
 2585poe     o213736   4.662   5.973   5.255  0.0719  0.1083  0.3492
 2585poe    c2313737   4.666   6.113   5.240 -0.4109  0.0964  0.0820
 2585poe    c2313738   4.696   6.179   5.376  0.4134  0.1112 -0.0976
 2585poe     o213739   4.790   6.098   5.442 -0.0320 -0.2162  0.1398
 2585poe    c3113740   4.877   6.170   5.527 -0.7843  0.2414  0.5344
 2586poe    c3113741   6.404   4.602   2.882  0.8197  0.6241 -0.5644
 2586poe     o213742   6.337   4.654   2.995  0.5103 -0.2334 -0.3483
 2586poe    c2313743   6.321   4.792   2.977  0.7143 -0.0792  0.6083
 2586poe    c2313744   6.297   4.861   3.113 -0.5152 -0.3183  0.5170
 2586poe     o213745   6.164   4.906   3.130 -0.4884  0.0767 -0.2785
 2586poe    c2313746   6.101   4.862   3.248  0.0208  0.4111  0.1230
 2586poe    c2313747   5.948   4.879   3.247  0.0201  0.3851 -0.3439
 2586poe     o213748   5.885   4.826   3.361  0.2846  0.4628 -0.1604
 2586poe    c2313749   5.748   4.805   3.334  0.2609  0.3499  0.0464
 2586poe    c2313750   5.658   4.794   3.458 -0.6754 -0.3126 -0.6734
 2586poe     o213751   5.548   4.881   3.443 -0.2571  0.2357 -0.6347
 2586poe    c3113752   5.456   4.863   3.548 -0.0925 -0.0349 -0.5367
 2587poe    c3113753   3.860   6.905   2.667  0.4961 -0.2017  0.1837
 2587poe     o213754   3.919   6.890   2.794  0.5848  0.2414  0.1957
 2587poe    c2313755   3.908   7.013   2.862  0.3213  0.0494  0.5027
 2587poe    c2313756   4.008   7.049   2.973  0.7109  0.1877  0.1102
 2587poe     o213757   3.998   7.162   3.057  0.0106  0.5440 -0.4397
 2587poe    c2313758   3.908   7.136   3.162  0.2472  0.5927 -0.2241
 2587poe    c2313759   3.943   7.174   3.307 -0.5370  0.1391  0.0886
 2587poe     o213760   3.995   7.305   3.293  0.2886 -0.2179 -0.2246
 2587poe    c2313761   4.004   7.365   3.420  0.0303  0.2999 -0.4469
 2587poe    c2313762   3.992   7.518   3.417  0.4066  0.3308 -0.4602
 2587poe     o213763   4.075   7.575   3.319  0.6051  0.3213 -0.2977
 2587poe    c3113764   4.041   7.712   3.315 -0.6384  0.0380  0.1326
 2588poe    c3113765   3.423   5.339   2.238  0.4636 -1.0297 -0.4602
 2588poe     o213766   3.313   5.322   2.152 -0.2156 -0.3017  0.2498
 2588poe    c2313767   3.359   5.273   2.028  0.3145  0.0852  0.2944
 2588poe    c2313768   3.241   5.237   1.936  0.3392  0.4527  0.1171
 2588poe     o213769   3.184   5.126   2.001  0.5254  0.1050 -0.3166
 2588poe    c2313770   3.075   5.078   1.926  0.2553  0.2520 -0.0162
 2588poe    c2313771   3.021   4.954   2.000  0.2967  0.5280  0.4814
 2588poe     o213772   2.992   4.981   2.135 -0.5051  0.4241  0.3344
 2588poe    c2313773   2.930   4.870   2.196  0.6858 -0.0336  0.7376
 2588poe    c2313774   2.829   4.927   2.298  0.1189 -0.0314  0.1810
 2588poe     o213775   2.916   5.006   2.377  0.0499  0.2186  0.0108
 2588poe    c3113776   2.852   5.014   2.503  0.3495 -0.1990  0.1946
 2589poe    c3113777   6.555   1.287   6.063  0.0465 -0.3257 -0.1455
 2589poe     o213778   6.525   1.311   5.928 -0.7622  0.4651  0.1686
 2589poe    c2313779   6.569   1.205   5.846 -0.8833  0.1009  0.5726
 2589poe    c2313780   6.546   1.222   5.695  0.2292  0.1896  0.4023
 2589poe     o213781   6.604   1.334   5.632  0.4988 -0.1292  0.0791
 2589poe    c2313782   6.584   1.334   5.492 -0.3543  0.5795  0.1864
 2589poe    c2313783   6.671   1.435   5.415 -0.6521  0.4149 -0.3715
 2589poe     o213784   6.682   1.560   5.480 -0.1434  0.1337  0.0898
 2589poe    c2313785   6.711   1.663   5.389  0.0572  0.1700  0.1930
 2589poe    c2313786   6.710   1.805   5.449  0.2135  0.0772  0.4144
 2589poe     o213787   6.811   1.857   5.532 -0.0438  0.2503  0.6204
 2589poe    c3113788   6.820   1.795   5.659  0.6118 -0.1412  0.3875
 2590poe    c3113789   2.197   3.966   0.189  0.1693  0.3420 -0.7030
 2590poe     o213790   2.141   3.888   0.086 -0.7264 -0.1379  0.1310
 2590poe    c2313791   2.058   3.800   0.159  0.0019 -0.5285  0.4971
 2590poe    c2313792   2.002   3.692   0.063 -0.3810  0.2050 -0.1175
 2590poe     o213793   2.089   3.595   0.010 -0.6439 -0.2194  0.2249
 2590poe    c2313794   2.010   3.491  -0.045 -0.4388 -0.4096  0.2867
 2590poe    c2313795   2.098   3.418  -0.148 -0.2850  0.4715 -0.2203
 2590poe     o213796   2.152   3.521  -0.227  0.2067  0.4064  0.0246
 2590poe    c2313797   2.205   3.466  -0.346  0.3336  0.0636  0.2398
 2590poe    c2313798   2.306   3.564  -0.409  1.1493 -0.5435  0.5884
 2590poe     o213799   2.350   3.661  -0.317  0.0561  0.6631 -0.1376
 2590poe    c3113800   2.476   3.716  -0.348  0.2231  0.4892  0.2299
 2591poe    c3113801   0.864   0.127   1.988 -0.0606 -0.1596 -0.0268
 2591poe     o213802   0.741   0.102   1.923  0.1371 -0.2375 -0.3747
 2591poe    c2313803   0.736  -0.019   1.850  0.1434 -0.6206  0.2453
 2591poe    c2313804   0.598  -0.039   1.785  0.0111  0.3176  0.2169
 2591poe     o213805   0.485  -0.058   1.868 -0.0082  0.1034  0.1434
 2591poe    c2313806   0.493  -0.161   1.964  0.2950  0.7255  0.8005
 2591poe    c2313807   0.358  -0.198   2.028  0.4644  0.0062  0.7546
 2591poe     o213808   0.291  -0.098   2.101  0.1718  0.0967  0.3698
 2591poe    c2313809   0.157  -0.138   2.120  0.1076  0.3851  0.5367
 2591poe    c2313810   0.061  -0.044   2.195  0.2059  0.2768  0.8000
 2591poe     o213811   0.042   0.073   2.118  0.1517 -0.0682  0.2817
 2591poe    c3113812   0.003   0.172   2.211 -0.3536  0.0954 -0.1036
 2592poe    c3113813   0.314   0.881   4.101  0.3310  0.0075 -0.2313
 2592poe     o213814   0.257   0.853   3.975  0.0521  0.0287 -0.1111
 2592poe    c2313815   0.178   0.739   3.999  0.5909 -0.1853  0.6660
 2592poe    c2313816   0.087   0.706   3.879  0.7217  0.1143  0.4842
 2592poe     o213817  -0.019   0.798   3.879  0.0256 -0.6687 -0.0144
 2592poe    c2313818   0.001   0.924   3.819 -0.8141 -0.2699  0.5249
 2592poe    c2313819  -0.112   1.028   3.827 -0.1986  0.4688 -0.1583
 2592poe     o213820  -0.159   1.039   3.959  0.4539  0.0967  0.1051
 2592poe    c2313821  -0.267   1.128   3.972 -0.0505 -0.5087  0.1271
 2592poe    c2313822  -0.295   1.170   4.118  0.3933 -0.9683  0.3466
 2592poe     o213823  -0.197   1.232   4.198  0.4111 -0.5171 -0.0177
 2592poe    c3113824  -0.273   1.293   4.301 -0.5921 -0.6387 -0.6665
 2593poe    c3113825   5.370   5.027   0.941  0.9390 -0.2109 -0.2610
 2593poe     o213826   5.279   4.928   0.984  0.5809  0.2763  0.1214
 2593poe    c2313827   5.258   4.922   1.123  0.9763 -0.2423  0.1614
 2593poe    c2313828   5.159   4.817   1.177  0.0873  0.4564 -0.0925
 2593poe     o213829   5.079   4.787   1.065 -0.0164  0.0507  0.0888
 2593poe    c2313830   4.943   4.763   1.095  0.0169  0.1050  0.2809
 2593poe    c2313831   4.850   4.838   0.998  0.0666 -0.1598  0.0292
 2593poe     o213832   4.883   4.802   0.866  0.2506  0.0707  0.0111
 2593poe    c2313833   4.772   4.825   0.782  0.2055 -0.0912  0.0256
 2593poe    c2313834   4.808   4.827   0.632 -1.0291  0.0527 -0.2867
 2593poe     o213835   4.892   4.929   0.583 -0.2738 -0.4729 -0.1081
 2593poe    c3113836   4.850   4.975   0.457 -0.0385  0.4444  0.1371
 2594poe    c3113837   6.503   4.780   2.329 -0.3348  0.8890  0.0716
 2594poe     o213838   6.622   4.799   2.255 -0.0732  0.0631  0.2689
 2594poe    c2313839   6.730   4.763   2.338 -0.2397 -0.4231  0.2738
 2594poe    c2313840   6.861   4.823   2.286 -0.7154  0.3279 -0.0668
 2594poe     o213841   6.893   4.785   2.154  0.3228  0.6130  0.0874
 2594poe    c2313842   7.017   4.833   2.109  0.4703  0.2207  0.0654
 2594poe    c2313843   7.020   4.847   1.955 -0.0709 -0.0462  0.0283
 2594poe     o213844   6.919   4.931   1.904  0.3861  0.7412  0.3976
 2594poe    c2313845   6.927   4.920   1.764 -0.3295 -0.1050  0.4161
 2594poe    c2313846   6.794   4.947   1.690 -0.0189  0.1048 -0.0715
 2594poe     o213847   6.695   4.850   1.712 -0.1618  0.2144 -0.2322
 2594poe    c3113848   6.584   4.860   1.626 -0.2736 -0.1890 -0.1407
 2595poe    c3113849   1.913   6.000   3.058  0.8894  0.3211 -0.0561
 2595poe     o213850   1.904   5.895   2.964 -0.6440  0.1862  0.2174
 2595poe    c2313851   1.766   5.873   2.976 -0.6646  0.0884 -0.1719
 2595poe    c2313852   1.718   5.737   2.921  0.0010 -0.1371 -0.2037
 2595poe     o213853   1.722   5.744   2.780  0.2103 -0.4420 -0.2141
 2595poe    c2313854   1.680   5.622   2.723 -1.0651  0.1672 -0.6274
 2595poe    c2313855   1.723   5.615   2.575  0.1324 -0.2831 -0.2736
 2595poe     o213856   1.862   5.606   2.559  0.1494  0.3016 -0.4769
 2595poe    c2313857   1.902   5.545   2.438 -0.6669 -0.0748 -0.5600
 2595poe    c2313858   1.915   5.646   2.322 -0.1950  0.1392 -0.3244
 2595poe     o213859   2.012   5.744   2.351  0.0271 -0.2283  0.1863
 2595poe    c3113860   2.042   5.812   2.232 -0.4616 -0.3662 -0.0204
 2596poe    c3113861   2.507   6.664   2.491  0.0033 -0.5773 -0.3284
 2596poe     o213862   2.412   6.721   2.404 -0.0674 -0.2575 -0.0450
 2596poe    c2313863   2.311   6.628   2.368  0.3095 -0.4334 -0.6602
 2596poe    c2313864   2.215   6.682   2.260  0.6854  0.5524 -0.5192
 2596poe     o213865   2.125   6.780   2.304 -0.4355 -0.4799 -0.4646
 2596poe    c2313866   2.031   6.803   2.201 -0.3539  0.2135 -0.3912
 2596poe    c2313867   1.982   6.946   2.175 -0.4551  0.2448 -0.0316
 2596poe     o213868   2.053   7.032   2.089  0.0842  0.0066  0.1757
 2596poe    c2313869   2.095   6.982   1.964  0.9789 -0.2315  0.5571
 2596poe    c2313870   2.186   7.088   1.899  0.0815  0.4048  0.3188
 2596poe     o213871   2.308   7.091   1.969  0.2754 -0.4591  0.0196
 2596poe    c3113872   2.414   7.171   1.921 -0.3359 -0.1897 -0.9153
 2597poe    c3113873   3.988   2.991   5.481  0.4901 -0.3966 -0.1444
 2597poe     o213874   3.951   2.917   5.596  0.8132 -0.4120 -0.0491
 2597poe    c2313875   3.858   2.813   5.581 -0.7524  1.0263 -0.5653
 2597poe    c2313876   3.912   2.696   5.496 -0.7005  0.4507  0.2562
 2597poe     o213877   4.019   2.635   5.564 -0.2754  0.0052 -0.8014
 2597poe    c2313878   4.013   2.496   5.543  0.0497 -0.1650  0.1710
 2597poe    c2313879   4.108   2.421   5.639  0.7762  0.1917 -0.2583
 2597poe     o213880   4.237   2.478   5.638  0.8934 -0.0474  0.5385
 2597poe    c2313881   4.324   2.407   5.723  0.8633 -0.2531  0.3971
 2597poe    c2313882   4.433   2.324   5.653  0.4082 -0.3022 -0.2733
 2597poe     o213883   4.517   2.386   5.559  0.2762 -0.5568 -0.5607
 2597poe    c3113884   4.620   2.463   5.617  0.1793 -0.6860 -0.2182
 2598poe    c3113885   0.015   6.447   7.149 -0.4441  0.8691 -0.0095
 2598poe     o213886  -0.041   6.403   7.270  0.2036  0.3272  0.0966
 2598poe    c2313887  -0.044   6.514   7.357  0.1629 -0.0887  0.6394
 2598poe    c2313888  -0.182   6.507   7.425 -0.2339  0.2007 -0.1171
 2598poe     o213889  -0.175   6.401   7.518  0.3999  0.1389 -0.2285
 2598poe    c2313890  -0.299   6.386   7.585  0.4379 -0.0704 -0.2063
 2598poe    c2313891  -0.300   6.250   7.658 -0.6471  0.1242  0.1439
 2598poe     o213892  -0.297   6.140   7.570  0.8378  0.3714 -0.1456
 2598poe    c2313893  -0.412   6.059   7.567  1.1640 -0.0991  0.0394
 2598poe    c2313894  -0.388   5.955   7.455 -0.6494 -0.1530 -0.3380
 2598poe     o213895  -0.249   5.930   7.449 -0.6304 -0.0534 -0.3155
 2598poe    c3113896  -0.223   5.812   7.375  0.3487  0.0458 -0.1361
 2599poe    c3113897   1.116   7.215   6.998  0.2390  0.6370 -0.3733
 2599poe     o213898   1.141   7.139   7.114 -0.3018 -0.2620 -0.8389
 2599poe    c2313899   1.281   7.124   7.123 -0.2881  0.6257  0.5400
 2599poe    c2313900   1.324   7.051   7.252  0.4205 -0.1808 -0.1476
 2599poe     o213901   1.319   7.129   7.369  0.4433 -0.6859  0.1950
 2599poe    c2313902   1.336   7.060   7.491  0.7524 -0.0103  0.5370
 2599poe    c2313903   1.312   7.137   7.622 -0.4114  0.0207  0.3152
 2599poe     o213904   1.403   7.238   7.658 -0.3468  0.0577  0.0464
 2599poe    c2313905   1.354   7.312   7.767  0.0135 -0.0608  0.2887
 2599poe    c2313906   1.436   7.430   7.825 -0.2936  0.2996 -0.0073
 2599poe     o213907   1.481   7.528   7.735  0.1179 -0.0802 -0.2137
 2599poe    c3113908   1.531   7.639   7.806 -0.3053 -0.3366  0.4957
 2600poe    c3113909   1.349   4.517   1.419 -0.3437 -0.4497 -0.0981
 2600poe     o213910   1.345   4.499   1.559 -0.0360 -0.2616 -0.0645
 2600poe    c2313911   1.222   4.443   1.599 -0.2606  0.1352 -0.1959
 2600poe    c2313912   1.173   4.485   1.738 -0.1427 -0.0034 -0.1123
 2600poe     o213913   1.241   4.434   1.851 -0.0384  0.6016  0.1003
 2600poe    c2313914   1.193   4.486   1.973  0.0621  0.2929  0.2710
 2600poe    c2313915   1.295   4.469   2.088 -0.0917 -0.3860  0.3095
 2600poe     o213916   1.325   4.335   2.119  0.3173 -0.3700 -0.0045
 2600poe    c2313917   1.229   4.269   2.200  0.6113 -0.4709  0.2652
 2600poe    c2313918   1.209   4.324   2.342 -0.0362 -0.1546  0.0533
 2600poe     o213919   1.321   4.305   2.425 -0.2060 -0.2863  0.2516
 2600poe    c3113920   1.288   4.351   2.555  0.7979  0.2699  0.3155
 2601poe    c3113921   1.569   2.724   3.485 -0.3567  0.2081 -0.4327
 2601poe     o213922   1.529   2.591   3.458 -0.5659  0.2548 -0.3559
 2601poe    c2313923   1.451   2.554   3.569  0.2345  0.0260  0.1452
 2601poe    c2313924   1.397   2.411   3.549 -0.3297  0.2078  0.3255
 2601poe     o213925   1.331   2.411   3.424  0.4779 -0.0403 -0.1077
 2601poe    c2313926   1.243   2.304   3.400  0.2229  0.1242  0.0910
 2601poe    c2313927   1.173   2.278   3.265 -0.0762  0.2564  0.2196
 2601poe     o213928   1.270   2.250   3.166 -0.3214  0.3797 -0.0586
 2601poe    c2313929   1.233   2.266   3.031 -0.2585  0.9603 -0.0083
 2601poe    c2313930   1.271   2.403   2.972  0.5247  0.7499 -0.0073
 2601poe     o213931   1.201   2.517   3.015  0.1915  0.6133 -0.1794
 2601poe    c3113932   1.226   2.615   2.916 -0.6636  0.5363 -0.4758
 2602poe    c3113933   3.834   1.331   2.202  0.3004 -0.4395 -0.6485
 2602poe     o213934   3.927   1.250   2.270  0.5941  0.1453 -0.3416
 2602poe    c2313935   3.941   1.251   2.410  0.3121  0.5453 -0.3152
 2602poe    c2313936   4.013   1.135   2.482  0.1407  0.3398 -0.4720
 2602poe     o213937   4.093   1.150   2.597 -0.6428  0.3644  0.0700
 2602poe    c2313938   4.218   1.085   2.589 -0.5042  0.6234  0.1454
 2602poe    c2313939   4.295   1.104   2.721  0.2636 -0.0972 -0.1931
 2602poe     o213940   4.286   1.238   2.762  0.4503 -0.3162  0.5802
 2602poe    c2313941   4.366   1.256   2.877  0.6994 -0.1967  0.3902
 2602poe    c2313942   4.339   1.380   2.964 -0.1872 -0.5853  0.6826
 2602poe     o213943   4.220   1.407   3.036 -0.1033  0.6958  0.3770
 2602poe    c3113944   4.196   1.340   3.157 -0.5643 -0.5137 -0.3596
 2603poe    c3113945   0.918   4.866   2.681  0.5454 -0.0873  0.1670
 2603poe     o213946   0.943   4.952   2.790 -0.2212  0.8469 -0.3831
 2603poe    c2313947   0.901   4.894   2.911  0.4423  0.0301 -0.5380
 2603poe    c2313948   0.940   4.997   3.018 -0.3401 -0.2699  0.0477
 2603poe     o213949   0.916   5.120   2.955 -0.1948 -0.3990 -0.2631
 2603poe    c2313950   0.945   5.222   3.049 -0.8341  0.0164 -0.5062
 2603poe    c2313951   0.935   5.366   2.995  0.6534  0.1617 -0.4221
 2603poe     o213952   1.028   5.375   2.889  1.3542  0.2014  0.1818
 2603poe    c2313953   1.003   5.491   2.813 -0.1606 -0.0164  0.3122
 2603poe    c2313954   1.126   5.517   2.724 -0.1384 -0.3557  0.2452
 2603poe     o213955   1.125   5.437   2.608 -0.1071  0.2725 -0.1908
 2603poe    c3113956   1.231   5.464   2.519  0.3046  0.2109  0.2772
 2604poe    c3113957   6.126   3.565   4.084 -0.0528 -0.0072 -0.4097
 2604poe     o213958   6.240   3.523   4.012  0.0029 -0.0998 -0.2681
 2604poe    c2313959   6.326   3.625   3.969  0.4948 -0.3114  0.1979
 2604poe    c2313960   6.463   3.581   3.913  0.3911 -0.3911  0.0032
 2604poe     o213961   6.536   3.694   3.871 -0.1478  0.1684  0.5419
 2604poe    c2313962   6.674   3.669   3.884 -0.1450  0.3114  0.7842
 2604poe    c2313963   6.740   3.808   3.901 -0.0837  0.3867 -0.0641
 2604poe     o213964   6.727   3.895   3.790 -0.7245  0.2060 -0.1328
 2604poe    c2313965   6.795   4.018   3.799  0.0607 -0.2455  0.2055
 2604poe    c2313966   6.750   4.114   3.910 -0.9684 -0.2220 -0.2194
 2604poe     o213967   6.622   4.162   3.878 -0.8602 -0.0801 -0.4376
 2604poe    c3113968   6.591   4.295   3.915 -0.4970  0.0708 -0.6712
 2605poe    c3113969   1.901   6.444   6.700 -0.1560 -0.4543  0.4613
 2605poe     o213970   1.962   6.507   6.810  0.2423  0.2111 -0.1315
 2605poe    c2313971   2.091   6.533   6.761  0.2517  0.4321  0.0061
 2605poe    c2313972   2.175   6.630   6.846 -0.2953  0.2692  0.7394
 2605poe     o213973   2.136   6.765   6.832  0.2144  0.2782 -0.7656
 2605poe    c2313974   2.117   6.832   6.955 -0.4801 -0.3186 -0.5420
 2605poe    c2313975   1.975   6.887   6.975 -0.3659  0.0124 -0.6378
 2605poe     o213976   1.957   6.998   6.890 -0.1255  0.4331 -0.1441
 2605poe    c2313977   1.825   7.045   6.878 -0.3079 -0.0403 -0.0200
 2605poe    c2313978   1.775   7.040   6.733  0.3776 -0.1127 -0.2575
 2605poe     o213979   1.851   7.135   6.661  0.1377  0.5247  0.3265
 2605poe    c3113980   1.818   7.117   6.525 -0.1665  0.2987  0.4288
 2606poe    c3113981   3.831   4.785   5.392  0.2306  0.0645  0.6991
 2606poe     o213982   3.887   4.828   5.270 -1.0374  0.2621  0.1695
 2606poe    c2313983   3.835   4.943   5.208 -0.5828  0.1015 -0.5203
 2606poe    c2313984   3.892   4.950   5.065 -0.4023  0.0112 -0.4529
 2606poe     o213985   4.032   4.961   5.051 -0.3444  0.7061  0.5300
 2606poe    c2313986   4.057   5.023   4.926  0.0578  0.6438  0.5772
 2606poe    c2313987   4.201   5.077   4.934 -0.0411  0.9084  0.5885
 2606poe     o213988   4.273   4.963   4.973 -0.0402  0.3601 -0.9315
 2606poe    c2313989   4.408   4.966   4.930  0.3708  0.0567  0.2823
 2606poe    c2313990   4.453   4.820   4.945  0.2060 -0.0137  0.0984
 2606poe     o213991   4.383   4.773   5.058  0.3751 -0.1134  0.1616
 2606poe    c3113992   4.440   4.650   5.099 -0.0285 -0.3573 -0.0019
 2607poe    c3113993   2.013   1.435   0.556  0.0160 -0.3783  0.2410
 2607poe     o213994   2.029   1.555   0.628 -0.2449  0.0691 -0.4424
 2607poe    c2313995   2.110   1.542   0.743 -0.1963 -0.4956 -0.5347
 2607poe    c2313996   2.108   1.677   0.818 -0.0784 -0.6230 -0.3031
 2607poe     o213997   2.131   1.787   0.733  0.0965 -0.2003  0.2848
 2607poe    c2313998   2.116   1.905   0.809  0.3332  0.0509 -0.0562
 2607poe    c2313999   2.175   2.017   0.721  0.1205  0.3066  0.1232
 2607poe     o214000   2.113   2.007   0.595  0.0923  0.4323  0.1271
 2607poe    c2314001   2.185   2.083   0.500 -0.0143  0.3275 -0.0396
 2607poe    c2314002   2.109   2.074   0.366  0.0165  0.4445 -0.0655
 2607poe     o214003   2.112   1.951   0.297  0.5031  0.2802  0.2368
 2607poe    c3114004   1.999   1.926   0.216  0.6760  0.5386 -0.0901
 2608poe    c3114005   2.609   5.908   2.492 -0.3940 -0.0582 -0.6755
 2608poe     o214006   2.539   5.940   2.610  0.4522 -0.2942 -0.1007
 2608poe    c2314007   2.577   6.067   2.658 -0.2578  0.0048 -0.3132
 2608poe    c2314008   2.470   6.129   2.749 -0.0855 -0.4442  0.1960
 2608poe     o214009   2.434   6.051   2.861 -0.0568  0.0175  0.5311
 2608poe    c2314010   2.321   6.117   2.913  0.0846  0.8668 -0.2261
 2608poe    c2314011   2.344   6.102   3.064  0.2997 -0.1904 -0.3585
 2608poe     o214012   2.355   5.965   3.096 -0.2625 -0.1624 -0.0352
 2608poe    c2314013   2.296   5.943   3.222  0.4672  0.1414  0.3651
 2608poe    c2314014   2.234   5.802   3.214  0.2378  0.2419  0.3854
 2608poe     o214015   2.326   5.698   3.193  0.2026  0.2140  0.3678
 2608poe    c3114016   2.265   5.572   3.203 -0.0513  0.2759 -0.3294
 2609poe    c3114017   5.837   2.828   6.060  0.0488  0.8144  0.4262
 2609poe     o214018   5.752   2.923   6.001 -0.5121  0.1071  0.0809
 2609poe    c2314019   5.762   2.926   5.860  0.5549 -0.1806  0.1474
 2609poe    c2314020   5.744   3.073   5.816 -0.3947 -0.1231  0.7017
 2609poe     o214021   5.847   3.163   5.851 -0.2360 -0.0260 -0.0007
 2609poe    c2314022   5.790   3.290   5.828 -0.5869 -0.1030  0.4227
 2609poe    c2314023   5.890   3.404   5.804 -0.0774 -0.5931  0.1974
 2609poe     o214024   5.959   3.413   5.926  0.4151 -0.5626 -0.0799
 2609poe    c2314025   6.073   3.496   5.928 -0.3701  0.5399  0.0830
 2609poe    c2314026   6.198   3.464   5.842 -0.5279  0.6387 -0.1865
 2609poe     o214027   6.176   3.471   5.703  0.0518  0.1580 -0.3044
 2609poe    c3114028   6.288   3.427   5.630  0.3978  0.1173  0.2451
 2610poe    c3114029   0.546   1.855   6.819  0.5851 -0.0999  0.1352
 2610poe     o214030   0.488   1.766   6.912  0.3326 -0.4207 -0.3257
 2610poe    c2314031   0.577   1.656   6.912  0.6731 -0.1463  0.1734
 2610poe    c2314032   0.531   1.552   7.016 -0.7864  0.1835 -0.1138
 2610poe     o214033   0.505   1.603   7.145 -0.6909  0.4699 -0.2078
 2610poe    c2314034   0.444   1.508   7.229  0.1419 -0.0816 -0.2171
 2610poe    c2314035   0.448   1.571   7.370  0.3918 -0.3066 -0.1225
 2610poe     o214036   0.430   1.710   7.365 -0.3631 -0.3988 -0.0810
 2610poe    c2314037   0.390   1.755   7.493  0.3350  0.3362 -0.1099
 2610poe    c2314038   0.324   1.894   7.493 -0.3085  0.0351  0.1309
 2610poe     o214039   0.404   1.986   7.421 -0.6196  0.3676  0.2052
 2610poe    c3114040   0.428   2.102   7.497  0.1601 -0.0372  0.5956
 2611poe    c3114041   5.749   4.347   0.895 -0.2691 -0.3330  0.4299
 2611poe     o214042   5.729   4.345   0.755  0.0043 -0.0737  0.3855
 2611poe    c2314043   5.615   4.275   0.711  0.1483  0.1561 -0.3705
 2611poe    c2314044   5.523   4.363   0.626 -0.0984  0.2047 -0.0521
 2611poe     o214045   5.577   4.398   0.501  0.2450  0.2978  0.1227
 2611poe    c2314046   5.488   4.486   0.436 -0.3622 -0.3393  0.0864
 2611poe    c2314047   5.547   4.561   0.315 -0.3214  0.6864  0.7296
 2611poe     o214048   5.462   4.644   0.240  0.2359  0.5103 -0.1125
 2611poe    c2314049   5.556   4.725   0.172  0.8488  0.0691  0.2120
 2611poe    c2314050   5.537   4.786   0.032 -0.4559 -0.2435  0.2393
 2611poe     o214051   5.441   4.888   0.037  0.2211  0.4109  0.0945
 2611poe    c3114052   5.426   4.961  -0.083  0.5446 -0.0488 -0.2280
 2612poe    c3114053   1.573   5.092   0.526 -0.1115 -0.0409 -0.1409
 2612poe     o214054   1.452   5.121   0.594 -0.1586  0.6170 -0.4976
 2612poe    c2314055   1.352   5.024   0.576  0.1904  0.2149 -0.2879
 2612poe    c2314056   1.219   5.101   0.580  0.5338  0.8312 -0.5540
 2612poe     o214057   1.233   5.182   0.694  0.2219 -1.0292  0.8679
 2612poe    c2314058   1.119   5.262   0.718  1.1857  0.7278 -0.1886
 2612poe    c2314059   1.161   5.355   0.834 -0.3619  0.7645  0.3680
 2612poe     o214060   1.298   5.383   0.812 -0.1468 -0.2999  0.2767
 2612poe    c2314061   1.355   5.486   0.889 -0.0703  0.1903 -0.4294
 2612poe    c2314062   1.324   5.619   0.818  0.1995  0.5170  0.0609
 2612poe     o214063   1.362   5.615   0.682  0.0410  0.0125  0.0328
 2612poe    c3114064   1.272   5.677   0.593  0.0174 -0.5681 -0.3529
 2613poe    c3114065   2.885   3.564   1.706 -0.0666  0.4592 -0.0978
 2613poe     o214066   2.817   3.645   1.612 -0.4749  0.0485 -0.1576
 2613poe    c2314067   2.723   3.715   1.690 -0.8923 -0.8539  0.1678
 2613poe    c2314068   2.623   3.800   1.610 -0.0193  0.0326 -0.0036
 2613poe     o214069   2.516   3.725   1.556  0.1995 -0.2631 -0.0304
 2613poe    c2314070   2.426   3.818   1.500 -0.5101 -0.4844  0.7045
 2613poe    c2314071   2.307   3.758   1.424 -0.4292 -0.0108  0.1929
 2613poe     o214072   2.350   3.657   1.336  0.0156  0.0334  0.3588
 2613poe    c2314073   2.243   3.590   1.273 -0.2194 -0.0251  0.8189
 2613poe    c2314074   2.297   3.503   1.158 -0.3350  0.9018  0.0508
 2613poe     o214075   2.328   3.564   1.034  0.6381  0.2710 -0.0274
 2613poe    c3114076   2.213   3.563   0.953  0.6513  0.8279 -0.0560
 2614poe    c3114077   2.287   3.098   2.062  0.3174 -0.1316 -0.5089
 2614poe     o214078   2.213   3.024   2.156  0.0610  0.0136 -0.5956
 2614poe    c2314079   2.171   3.108   2.261  0.1075 -0.5184 -0.1466
 2614poe    c2314080   2.205   3.057   2.402  0.6443 -0.2682 -0.1819
 2614poe     o214081   2.148   2.931   2.431  0.0017  0.1296  0.3156
 2614poe    c2314082   2.174   2.892   2.563 -0.2540  0.8018  0.5715
 2614poe    c2314083   2.086   2.774   2.610  0.3767  0.1672  0.1887
 2614poe     o214084   2.131   2.652   2.556  0.1032  0.2016 -0.1301
 2614poe    c2314085   2.099   2.535   2.629 -0.2824  0.4549  0.1106
 2614poe    c2314086   2.091   2.428   2.519 -0.2169  0.9405 -0.3705
 2614poe     o214087   2.207   2.438   2.439  0.0936 -0.0342 -0.0530
 2614poe    c3114088   2.198   2.334   2.345 -0.2204  0.0491 -0.1154
 2615poe    c3114089   4.477   5.131   0.033  0.3917 -0.2131 -0.4795
 2615poe     o214090   4.366   5.099  -0.048  0.3490 -0.3122 -0.3816
 2615poe    c2314091   4.385   5.146  -0.180  0.2658  0.2228 -0.2058
 2615poe    c2314092   4.276   5.123  -0.287  0.2745 -0.0970 -0.1493
 2615poe     o214093   4.265   4.987  -0.320  0.3835 -0.1685  0.1012
 2615poe    c2314094   4.163   4.952  -0.412 -0.0729  0.1946  0.4655
 2615poe    c2314095   4.128   4.803  -0.402  1.4137 -0.2014 -0.0271
 2615poe     o214096   4.064   4.787  -0.277  0.3553 -0.0126 -0.5370
 2615poe    c2314097   4.030   4.651  -0.268 -0.5680  0.2537  0.1228
 2615poe    c2314098   3.985   4.623  -0.124  0.2945 -0.1221  0.3220
 2615poe     o214099   4.072   4.703  -0.048 -0.0978  0.5243  0.0990
 2615poe    c3114100   4.051   4.692   0.091  0.5046 -0.2583  0.1356
 2616poe    c3114101   4.903   4.060   1.940 -0.0686 -0.0275  0.9815
 2616poe     o214102   4.944   4.173   1.867 -0.5921 -0.5574 -0.1593
 2616poe    c2314103   4.848   4.268   1.825 -0.0393  0.0737 -0.0163
 2616poe    c2314104   4.920   4.377   1.743  0.2574  0.0583  0.2177
 2616poe     o214105   4.983   4.334   1.624 -0.0658  0.9061 -0.2740
 2616poe    c2314106   5.040   4.442   1.555  0.1289  0.5381 -0.6926
 2616poe    c2314107   4.950   4.474   1.434 -0.7380 -0.1368 -0.2350
 2616poe     o214108   4.963   4.368   1.342 -0.0440 -0.0197 -0.2814
 2616poe    c2314109   4.912   4.401   1.215 -0.2528  0.0717 -0.1751
 2616poe    c2314110   4.890   4.270   1.137 -0.1017 -0.0208 -0.0629
 2616poe     o214111   4.875   4.162   1.226  0.0918  0.0566  0.0650
 2616poe    c3114112   4.827   4.052   1.151 -0.1934  0.2635 -0.0562
 2617poe    c3114113   0.378   5.279   2.031  0.1227 -0.3023  0.5918
 2617poe     o214114   0.342   5.146   2.064  0.1109 -0.4935 -0.1629
 2617poe    c2314115   0.202   5.142   2.079  0.0724 -0.1954 -0.4404
 2617poe    c2314116   0.148   4.998   2.071 -0.0743 -0.1843  0.3165
 2617poe     o214117   0.183   4.918   2.181 -0.0334 -0.0884  0.3736
 2617poe    c2314118   0.104   4.802   2.174 -0.2196  0.0893 -0.5271
 2617poe    c2314119   0.169   4.687   2.094  0.3782  0.7087 -0.9384
 2617poe     o214120   0.297   4.638   2.128  0.0389  0.3435 -0.1613
 2617poe    c2314121   0.326   4.513   2.072  0.8563  0.3981  0.1266
 2617poe    c2314122   0.318   4.475   1.923 -0.2499 -0.1126  0.3029
 2617poe     o214123   0.189   4.489   1.868 -0.4000 -0.5695  0.5388
 2617poe    c3114124   0.174   4.507   1.729 -0.7380  0.8433  0.7405
 2618poe    c3114125   0.035   2.025   4.312 -0.5620 -1.1985 -0.4403
 2618poe     o214126   0.160   2.050   4.370 -0.9789 -0.1200  0.0156
 2618poe    c2314127   0.239   1.934   4.355  0.0143  0.5020  0.3070
 2618poe    c2314128   0.385   1.958   4.397  0.3132  0.0012 -0.4231
 2618poe     o214129   0.453   2.056   4.322  0.0311  0.5621  0.0428
 2618poe    c2314130   0.576   2.081   4.386  0.1067 -0.2408  0.2255
 2618poe    c2314131   0.668   2.177   4.309 -0.1342 -0.3471 -0.2043
 2618poe     o214132   0.613   2.307   4.301 -0.1063 -0.3175  0.0583
 2618poe    c2314133   0.701   2.405   4.252 -0.1050  0.0736  0.8378
 2618poe    c2314134   0.663   2.547   4.300  0.0013  0.3131  0.2210
 2618poe     o214135   0.560   2.630   4.252 -0.1899 -0.1338 -0.1463
 2618poe    c3114136   0.547   2.735   4.345  0.0699  0.0693 -0.3353
 2619poe    c3114137   0.908   4.641   7.087  0.3246 -0.0793 -0.3220
 2619poe     o214138   0.785   4.599   7.142  0.2016  0.0387 -0.5069
 2619poe    c2314139   0.706   4.696   7.207  0.2490 -0.0006 -0.3903
 2619poe    c2314140   0.579   4.633   7.267 -0.2833  0.7519 -0.7126
 2619poe     o214141   0.471   4.594   7.185 -0.3725 -0.0214 -0.2373
 2619poe    c2314142   0.379   4.511   7.251  0.3291 -0.3829  0.2966
 2619poe    c2314143   0.254   4.501   7.162  0.4571 -0.2230  0.0998
 2619poe     o214144   0.286   4.448   7.035  0.3303  0.5649 -0.2735
 2619poe    c2314145   0.211   4.507   6.932 -0.4477 -0.3674 -0.2523
 2619poe    c2314146   0.256   4.490   6.785 -0.1457  0.3062 -0.2371
 2619poe     o214147   0.373   4.567   6.766 -0.2810  0.5504 -0.0961
 2619poe    c3114148   0.419   4.549   6.634 -0.4498 -0.1681 -0.0615
 2620poe    c3114149   1.313   3.763   3.542 -0.0322  0.4649  0.4888
 2620poe     o214150   1.274   3.700   3.422  0.1692  0.4300  0.4410
 2620poe    c2314151   1.206   3.790   3.338  0.1679  0.4083  0.4187
 2620poe    c2314152   1.208   3.741   3.192  0.0654 -0.2421  0.6314
 2620poe     o214153   1.120   3.631   3.201  0.1044 -0.2858  0.4788
 2620poe    c2314154   1.133   3.547   3.088 -0.3019 -0.1160  0.3047
 2620poe    c2314155   1.017   3.445   3.093  0.0591 -0.5620 -0.3403
 2620poe     o214156   0.898   3.507   3.135  0.3905 -0.2864  0.1929
 2620poe    c2314157   0.791   3.415   3.142  0.3452 -0.2176  0.4223
 2620poe    c2314158   0.663   3.477   3.201  0.3487 -0.0661  0.2720
 2620poe     o214159   0.703   3.536   3.323 -0.0115  0.2690  0.2308
 2620poe    c3114160   0.592   3.567   3.403 -0.0738  0.1414  0.1941
 2621poe    c3114161   0.397   4.805   3.590  0.1326  0.2471 -0.8737
 2621poe     o214162   0.258   4.790   3.605  0.3346 -0.5893  0.1765
 2621poe    c2314163   0.199   4.821   3.481 -0.0711 -1.1771  0.2139
 2621poe    c2314164   0.047   4.824   3.458 -0.0206 -0.2889 -0.0588
 2621poe     o214165  -0.006   4.693   3.455 -0.2956 -0.1936  0.5169
 2621poe    c2314166  -0.141   4.709   3.419 -0.1674 -0.0974  0.0719
 2621poe    c2314167  -0.216   4.575   3.418  0.4538 -0.4420 -0.3567
 2621poe     o214168  -0.210   4.500   3.537  0.2778  0.5532  0.2885
 2621poe    c2314169  -0.258   4.370   3.509  0.2213  0.5938  0.1968
 2621poe    c2314170  -0.258   4.305   3.649 -0.1800  0.0393 -0.0565
 2621poe     o214171  -0.141   4.329   3.724 -0.3362 -0.4202  0.3359
 2621poe    c3114172  -0.102   4.231   3.817  0.4801  0.0587  0.5066
 2622poe    c3114173   6.014   2.145   2.511  0.3714 -0.8734 -0.0914
 2622poe     o214174   5.966   2.068   2.403 -0.2748 -0.3111 -0.2083
 2622poe    c2314175   5.838   2.118   2.370  0.0003  0.8165  0.3923
 2622poe    c2314176   5.785   2.039   2.249  0.2028  0.8912  0.2534
 2622poe     o214177   5.887   2.028   2.152 -0.2814  0.0037 -0.1669
 2622poe    c2314178   5.845   1.950   2.042 -0.3786 -0.5936  0.2901
 2622poe    c2314179   5.961   1.902   1.954 -0.7669 -0.5121 -0.2713
 2622poe     o214180   6.054   1.839   2.039  0.1075  0.7301 -0.2744
 2622poe    c2314181   6.165   1.804   1.959 -0.0188 -0.0277 -0.1247
 2622poe    c2314182   6.291   1.768   2.041 -0.2100 -0.1923  0.1004
 2622poe     o214183   6.384   1.868   2.007 -0.0359 -0.3843  0.0081
 2622poe    c3114184   6.518   1.833   2.033  0.0169 -0.3184 -0.1690
 2623poe    c3114185   1.719   0.371   3.636  0.5572 -0.2869  0.5953
 2623poe     o214186   1.778   0.274   3.553 -0.0443  0.1614 -0.3816
 2623poe    c2314187   1.689   0.179   3.497 -0.6443  0.5291 -0.0620
 2623poe    c2314188   1.673   0.042   3.565 -0.2759  0.2523 -0.5274
 2623poe     o214189   1.635   0.036   3.701  0.3894  0.5714 -0.3252
 2623poe    c2314190   1.652  -0.094   3.751  0.3661  0.6623 -0.0787
 2623poe    c2314191   1.588  -0.109   3.890 -0.3320  0.2270 -0.4389
 2623poe     o214192   1.688  -0.086   3.987 -0.1978  0.0258 -0.5299
 2623poe    c2314193   1.652  -0.126   4.117 -0.0183  0.5689 -0.3103
 2623poe    c2314194   1.780  -0.110   4.201 -0.2134  0.0655  0.0898
 2623poe     o214195   1.891  -0.196   4.193 -0.2271  0.0376  0.1924
 2623poe    c3114196   1.872  -0.333   4.220 -0.1580 -0.0345 -0.1220
 2624poe    c3114197   2.740   2.294   0.773  0.2786 -0.1565 -0.5839
 2624poe     o214198   2.776   2.160   0.748 -0.0665 -0.2734 -0.4633
 2624poe    c2314199   2.911   2.167   0.708 -0.0669  0.0406 -0.4141
 2624poe    c2314200   2.986   2.033   0.717  0.2035  0.2163  0.0018
 2624poe     o214201   2.946   1.969   0.836 -0.0255 -0.1620 -0.2769
 2624poe    c2314202   3.009   1.844   0.851  0.1428  0.0040  0.4287
 2624poe    c2314203   2.939   1.754   0.954 -0.0061 -0.4276 -0.0438
 2624poe     o214204   2.924   1.840   1.065  0.3512 -0.3272 -0.0732
 2624poe    c2314205   2.845   1.780   1.165  0.2667  0.1320  0.1379
 2624poe    c2314206   2.852   1.875   1.286 -0.4124  0.1002  0.2067
 2624poe     o214207   2.821   2.009   1.258 -0.3133 -0.0256 -0.5189
 2624poe    c3114208   2.794   2.078   1.378 -0.1407 -0.2592 -0.3455
 2625poe    c3114209   5.025   6.763   5.297 -0.5502  0.5147 -0.3477
 2625poe     o214210   5.051   6.829   5.419  0.2356 -0.5833  0.1025
 2625poe    c2314211   5.142   6.937   5.414  0.1685 -0.5485 -0.4095
 2625poe    c2314212   5.093   7.078   5.379 -0.6660 -0.7577 -0.1201
 2625poe     o214213   5.007   7.128   5.479  0.0512  0.4283 -0.0687
 2625poe    c2314214   4.911   7.220   5.435 -0.4906 -0.1234 -0.0582
 2625poe    c2314215   4.822   7.280   5.546 -0.1833  0.6942 -0.2414
 2625poe     o214216   4.883   7.373   5.632  0.4244  0.2198 -0.1489
 2625poe    c2314217   4.831   7.504   5.622  0.3028  0.1597 -0.3033
 2625poe    c2314218   4.873   7.596   5.738 -0.0072  0.2542 -0.2644
 2625poe     o214219   5.011   7.616   5.756  0.0569 -0.1503 -0.2986
 2625poe    c3114220   5.034   7.719   5.850 -0.7143 -0.1858 -0.0671
 2626poe    c3114221   4.154   6.137   0.268  0.2105 -0.0943  0.3927
 2626poe     o214222   4.086   6.120   0.390  0.3426 -0.2259  0.4477
 2626poe    c2314223   3.957   6.177   0.386  0.4690  0.0535  0.3051
 2626poe    c2314224   3.876   6.184   0.517 -0.1048  0.1982 -0.0521
 2626poe     o214225   3.948   6.257   0.614 -0.4848  0.1308  0.2865
 2626poe    c2314226   3.924   6.202   0.741  0.3575 -0.1317  0.3404
 2626poe    c2314227   3.985   6.279   0.859  0.0715  0.3003  0.2078
 2626poe     o214228   3.925   6.406   0.872  0.2208  0.4391 -0.3869
 2626poe    c2314229   3.801   6.409   0.940  0.7712  0.0015  0.6582
 2626poe    c2314230   3.724   6.540   0.964 -0.3376 -0.4228 -0.4883
 2626poe     o214231   3.671   6.590   0.844 -0.4162 -0.7520 -0.5908
 2626poe    c3114232   3.532   6.616   0.838 -0.3320 -0.0882  0.2563
 2627poe    c3114233   4.819   2.764   3.290  0.5270 -0.2758 -0.0440
 2627poe     o214234   4.841   2.710   3.162  0.2055  0.0080 -0.2179
 2627poe    c2314235   4.961   2.637   3.155  0.1806 -0.1110  0.5712
 2627poe    c2314236   4.959   2.533   3.041  0.0177  0.7108 -0.1803
 2627poe     o214237   4.866   2.593   2.953 -0.1265 -0.2419 -0.6869
 2627poe    c2314238   4.836   2.508   2.844  0.3701 -0.6610 -0.5049
 2627poe    c2314239   4.739   2.591   2.757  0.5426  0.1856  0.0957
 2627poe     o214240   4.628   2.628   2.836 -0.0902 -0.4840 -0.4643
 2627poe    c2314241   4.505   2.636   2.768 -0.3670  0.0794  0.0880
 2627poe    c2314242   4.393   2.701   2.851 -0.2261  0.5868 -0.1136
 2627poe     o214243   4.435   2.825   2.903 -0.1178  0.3632  0.3393
 2627poe    c3114244   4.351   2.872   3.006 -0.0515  0.7392  0.2261
 2628poe    c3114245   3.962   5.105   1.366 -0.4214 -0.3927 -0.1946
 2628poe     o214246   4.041   5.134   1.479 -0.5181 -0.3942 -0.1258
 2628poe    c2314247   4.151   5.046   1.485 -0.4519 -0.3162 -0.1776
 2628poe    c2314248   4.262   5.151   1.501 -0.3329 -0.3661 -0.6672
 2628poe     o214249   4.241   5.231   1.615 -0.4498 -0.6396 -0.4958
 2628poe    c2314250   4.355   5.305   1.653 -0.3865 -0.6014 -0.7582
 2628poe    c2314251   4.330   5.379   1.786 -0.8196 -0.7683 -0.7439
 2628poe     o214252   4.280   5.304   1.895  0.0463  0.0277  0.2307
 2628poe    c2314253   4.210   5.377   1.993  0.1863 -0.3142  0.5864
 2628poe    c2314254   4.107   5.280   2.053 -0.0597 -0.5710 -0.2388
 2628poe     o214255   3.998   5.260   1.966 -0.3717 -0.2122  0.0670
 2628poe    c3114256   3.896   5.195   2.039  0.1478 -0.3238  0.6997
 2629poe    c3114257   1.798   1.384   4.293  0.4030  0.4450 -0.1288
 2629poe     o214258   1.814   1.308   4.176 -0.0191 -0.2951  0.2895
 2629poe    c2314259   1.711   1.348   4.088  0.1794 -0.5993 -0.0851
 2629poe    c2314260   1.742   1.301   3.945  0.3744 -0.1248 -0.2010
 2629poe     o214261   1.749   1.160   3.946  0.2852 -0.1287  0.0077
 2629poe    c2314262   1.810   1.101   3.833  0.4370  0.0253  0.0094
 2629poe    c2314263   1.787   0.949   3.842  0.1515  0.0797  0.1962
 2629poe     o214264   1.809   0.906   3.975 -0.2093 -0.1793  0.1736
 2629poe    c2314265   1.799   0.766   3.983 -0.2059 -0.1728  0.2967
 2629poe    c2314266   1.776   0.725   4.129  0.6294  0.1270  0.5150
 2629poe     o214267   1.649   0.756   4.183  0.3331 -0.5983  0.2462
 2629poe    c3114268   1.624   0.708   4.313 -0.1187 -0.4240  0.2247
 2630poe    c3114269   5.517   1.529   6.565  0.7568  0.6570 -0.2985
 2630poe     o214270   5.512   1.404   6.631 -0.0915  0.9182  0.1385
 2630poe    c2314271   5.543   1.434   6.765 -0.6529  0.1722  0.4404
 2630poe    c2314272   5.596   1.306   6.832 -0.5195 -0.0068 -0.0014
 2630poe     o214273   5.495   1.214   6.864 -0.9828  0.3686 -0.3894
 2630poe    c2314274   5.520   1.091   6.799  0.1856  0.0900  0.5734
 2630poe    c2314275   5.428   0.979   6.851 -0.0830  0.1948  0.3275
 2630poe     o214276   5.297   0.975   6.801  0.2308 -0.1582 -0.4811
 2630poe    c2314277   5.285   0.896   6.685 -0.3095 -0.4101 -0.2584
 2630poe    c2314278   5.143   0.843   6.654 -0.4548 -0.5790  0.6578
 2630poe     o214279   5.048   0.938   6.611 -0.6252 -0.7500  0.6564
 2630poe    c3114280   4.931   0.875   6.565 -0.6880  0.0180 -0.2801
 2631poe    c3114281   4.784   6.093   1.028 -0.5948 -0.1554 -0.1571
 2631poe     o214282   4.825   5.961   1.055 -0.0919 -0.0732 -0.5060
 2631poe    c2314283   4.715   5.889   1.106 -0.0227  0.2197  0.0722
 2631poe    c2314284   4.746   5.738   1.109  0.3769  0.3052  0.4670
 2631poe     o214285   4.843   5.716   1.009 -0.0549 -0.3561  0.1836
 2631poe    c2314286   4.879   5.580   1.001  0.8558 -0.1142  0.0463
 2631poe    c2314287   4.981   5.550   0.889  0.0746 -0.4580 -0.5852
 2631poe     o214288   5.097   5.630   0.893  0.0754 -0.4859  0.1473
 2631poe    c2314289   5.170   5.632   0.772 -0.5491 -0.2934 -0.2304
 2631poe    c2314290   5.282   5.738   0.769 -0.5030 -0.3506 -0.6294
 2631poe     o214291   5.212   5.857   0.798 -0.0414 -0.1116 -0.4835
 2631poe    c3114292   5.255   5.957   0.709  0.9441  0.0760  0.1894
 2632poe    c3114293   0.005   1.418   2.991 -0.4433  0.3884 -0.0459
 2632poe     o214294   0.071   1.386   2.870  0.2394  0.3599  0.3283
 2632poe    c2314295   0.033   1.460   2.756  0.0895 -0.2389 -0.0152
 2632poe    c2314296   0.077   1.390   2.626 -0.0935 -0.0891 -0.1578
 2632poe     o214297   0.216   1.373   2.609  0.0969  0.7175  0.4916
 2632poe    c2314298   0.274   1.423   2.491 -0.2295  0.8841  0.4004
 2632poe    c2314299   0.415   1.362   2.498 -0.8264 -0.4800  0.8502
 2632poe     o214300   0.479   1.424   2.607  0.0535  0.3686 -0.1309
 2632poe    c2314301   0.616   1.390   2.613 -0.0652 -0.0277  0.3120
 2632poe    c2314302   0.696   1.495   2.693 -0.1058  0.1366  0.1363
 2632poe     o214303   0.614   1.537   2.799 -0.2259  0.0944  0.0599
 2632poe    c3114304   0.694   1.572   2.909  0.3976  0.0480 -0.3790
 2633poe    c3114305   1.870   0.713   3.543  0.0737  0.1938  0.5178
 2633poe     o214306   1.989   0.786   3.520  0.0189  0.0629 -0.1853
 2633poe    c2314307   2.045   0.738   3.399  0.3933 -0.1407  0.0678
 2633poe    c2314308   2.180   0.809   3.377  0.3316  0.1169  0.4836
 2633poe     o214309   2.185   0.948   3.358 -0.2269  0.0726 -0.0182
 2633poe    c2314310   2.316   0.975   3.314 -0.3634 -0.2634 -0.6344
 2633poe    c2314311   2.315   1.073   3.195 -0.0836 -0.2454 -0.6240
 2633poe     o214312   2.291   1.205   3.238 -0.1277 -0.5217  0.2220
 2633poe    c2314313   2.313   1.306   3.142 -0.1641 -0.0765  0.6771
 2633poe    c2314314   2.269   1.451   3.169  0.0213  0.0858  0.1277
 2633poe     o214315   2.129   1.452   3.185  0.0245 -0.3145  0.2114
 2633poe    c3114316   2.068   1.579   3.187 -0.0698 -0.3453 -0.3687
 2634poe    c3114317   4.543   4.047   0.956  0.0695  0.3730 -0.2270
 2634poe     o214318   4.417   4.071   1.015  0.2115  0.1042  0.1893
 2634poe    c2314319   4.379   4.198   0.967 -0.7414 -0.5625 -0.8858
 2634poe    c2314320   4.243   4.252   1.014 -0.1818  0.1349 -0.0148
 2634poe     o214321   4.144   4.162   0.970  0.1757 -0.2403 -0.0503
 2634poe    c2314322   4.103   4.200   0.840 -0.5360  0.0592  0.2576
 2634poe    c2314323   4.049   4.072   0.775  0.0941 -0.0700 -0.0169
 2634poe     o214324   3.930   4.039   0.842  0.0476  0.1191 -0.0079
 2634poe    c2314325   3.897   3.903   0.831 -0.8085  0.3340 -0.1826
 2634poe    c2314326   3.787   3.860   0.930 -0.8004  0.3639 -0.1606
 2634poe     o214327   3.834   3.884   1.060  0.3781  0.1145 -0.5278
 2634poe    c3114328   3.747   3.822   1.153  0.0459  0.3057 -0.7088
 2635poe    c3114329   2.191   4.962   4.396  0.0739  0.0614  0.2246
 2635poe     o214330   2.139   4.962   4.265  0.2149 -0.5553  0.1632
 2635poe    c2314331   1.999   4.981   4.264  0.3102  0.1731  0.0276
 2635poe    c2314332   1.960   5.129   4.244 -0.2183 -0.0079 -0.2928
 2635poe     o214333   2.035   5.157   4.128  0.3816 -0.2456  0.0300
 2635poe    c2314334   2.014   5.293   4.095  0.3647 -0.2765 -0.0866
 2635poe    c2314335   2.080   5.313   3.957  0.1304 -0.1128 -0.1757
 2635poe     o214336   2.217   5.281   3.966 -0.0525 -0.5980  1.0773
 2635poe    c2314337   2.299   5.356   3.880 -0.0493 -1.0886  0.6522
 2635poe    c2314338   2.440   5.376   3.938 -0.1754  0.2369  0.5259
 2635poe     o214339   2.518   5.259   3.948  0.1928  0.4330 -0.0145
 2635poe    c3114340   2.649   5.279   3.994  0.2152  0.0421  0.0933
 2636poe    c3114341   2.563   0.527   1.925 -0.6251 -0.1876  0.1461
 2636poe     o214342   2.565   0.666   1.901  0.6604 -0.2698 -0.2724
 2636poe    c2314343   2.674   0.708   1.821  0.6159  0.6107  0.1196
 2636poe    c2314344   2.651   0.853   1.775  0.3434  0.4521 -0.2516
 2636poe     o214345   2.595   0.935   1.875  0.4836  0.0067  0.1987
 2636poe    c2314346   2.599   1.071   1.838 -0.7334  0.0303  0.1187
 2636poe    c2314347   2.622   1.158   1.963 -0.3610  0.3569 -0.1711
 2636poe     o214348   2.522   1.140   2.061  0.1464 -0.6646  0.1812
 2636poe    c2314349   2.527   1.213   2.181 -0.2500 -0.0688 -0.1569
 2636poe    c2314350   2.388   1.198   2.246 -0.1316  0.0166  0.1170
 2636poe     o214351   2.293   1.258   2.162  0.1992  0.0605 -0.2290
 2636poe    c3114352   2.168   1.247   2.228  0.4020  0.1844  0.1757
 2637poe    c3114353   0.018   6.907   1.714  0.3104  0.7422 -0.2203
 2637poe     o214354   0.097   6.915   1.597 -0.0928 -0.3247 -0.5751
 2637poe    c2314355   0.185   6.804   1.597  0.0416 -0.2301  0.5601
 2637poe    c2314356   0.228   6.786   1.451 -0.2356  0.6973  0.3525
 2637poe     o214357   0.122   6.740   1.371 -0.0494 -0.2655  0.6454
 2637poe    c2314358   0.142   6.620   1.299 -0.2347  0.0629  0.0384
 2637poe    c2314359   0.010   6.546   1.271  0.0403 -0.1341 -0.7713
 2637poe     o214360  -0.074   6.647   1.219 -0.3964 -0.0733  0.0364
 2637poe    c2314361  -0.204   6.605   1.183 -0.5345  0.1336  0.2935
 2637poe    c2314362  -0.276   6.723   1.116 -0.1487 -0.0318 -0.4139
 2637poe     o214363  -0.225   6.851   1.146  0.0622 -0.2287  0.0727
 2637poe    c3114364  -0.316   6.953   1.109  0.4270  0.0407 -0.0936
 2638poe    c3114365   3.141   6.013   4.883 -0.2279 -0.4273 -0.1639
 2638poe     o214366   3.039   6.062   4.967 -0.0699 -0.0713 -0.1759
 2638poe    c2314367   3.004   6.196   4.940  0.3410  0.1822  0.5290
 2638poe    c2314368   2.887   6.252   5.023 -0.1597 -0.1166  0.0246
 2638poe     o214369   2.894   6.264   5.163 -0.6526  0.0764  0.0349
 2638poe    c2314370   2.973   6.379   5.184  0.0453 -0.3260 -0.3780
 2638poe    c2314371   3.100   6.367   5.271 -0.1790  0.4351  0.0653
 2638poe     o214372   3.202   6.290   5.212 -0.4517  0.1899 -0.0900
 2638poe    c2314373   3.324   6.284   5.282 -0.6384 -0.5336  0.1921
 2638poe    c2314374   3.421   6.184   5.216 -0.5023 -0.0724 -0.3168
 2638poe     o214375   3.378   6.051   5.227  0.2145 -0.2687  0.2086
 2638poe    c3114376   3.420   5.970   5.119 -1.0907  0.1335 -0.6252
 2639poe    c3114377   3.060   0.122   2.085  0.1294 -0.9544  0.7306
 2639poe     o214378   3.105   0.220   2.176 -0.2939  0.6133 -0.7005
 2639poe    c2314379   3.008   0.225   2.278  0.3340  0.6735 -0.1018
 2639poe    c2314380   3.043   0.308   2.403 -0.0836  0.1799  0.3489
 2639poe     o214381   3.055   0.446   2.376 -0.4856  0.1520  0.0267
 2639poe    c2314382   3.087   0.512   2.496 -0.4277  0.1899 -0.0094
 2639poe    c2314383   3.180   0.628   2.459  0.1755 -0.1437  0.4366
 2639poe     o214384   3.304   0.578   2.411 -0.1653  0.2453 -0.8960
 2639poe    c2314385   3.413   0.665   2.431 -0.2279  0.0079  0.5951
 2639poe    c2314386   3.530   0.584   2.490 -0.0221  0.1112  0.3315
 2639poe     o214387   3.521   0.541   2.624  0.0622 -0.0995  0.2696
 2639poe    c3114388   3.633   0.456   2.638  0.3177  0.0715 -0.6560
 2640poe    c3114389   0.578   5.718   0.617 -0.5607  0.2306  0.4871
 2640poe     o214390   0.477   5.640   0.556  0.1404 -0.0967 -0.2676
 2640poe    c2314391   0.546   5.536   0.490  0.2633 -0.2285  0.0664
 2640poe    c2314392   0.481   5.459   0.373 -0.0499 -0.0975  0.1530
 2640poe     o214393   0.461   5.546   0.264 -0.4854 -0.1430  0.1958
 2640poe    c2314394   0.472   5.475   0.143 -0.1514  0.1675  0.0416
 2640poe    c2314395   0.336   5.440   0.078 -0.1710  0.1124  0.1117
 2640poe     o214396   0.264   5.552   0.031 -0.0571  0.0852 -0.1328
 2640poe    c2314397   0.150   5.526  -0.048 -0.0805  0.1411 -0.1180
 2640poe    c2314398   0.121   5.661  -0.116  0.2471 -0.1176 -0.7865
 2640poe     o214399   0.094   5.770  -0.030 -0.3397 -0.5723 -0.3835
 2640poe    c3114400   0.043   5.880  -0.102  0.4534 -0.1240 -0.2702
 2641poe    c3114401   0.624   4.618   0.448 -0.2515 -0.2664 -0.0791
 2641poe     o214402   0.679   4.664   0.569  0.4360 -0.1956 -0.4130
 2641poe    c2314403   0.799   4.732   0.542  0.1014  0.5266 -0.1261
 2641poe    c2314404   0.874   4.746   0.676  0.0936  0.3163 -0.0999
 2641poe     o214405   0.807   4.836   0.762  0.5773  0.0478  0.5678
 2641poe    c2314406   0.835   4.798   0.895  0.6311  0.0031  0.5441
 2641poe    c2314407   0.741   4.870   0.994 -0.0856 -0.3824  0.1543
 2641poe     o214408   0.608   4.828   0.974 -0.2310 -0.0925  0.5015
 2641poe    c2314409   0.516   4.848   1.079 -0.5712 -0.0139  0.1906
 2641poe    c2314410   0.423   4.727   1.096 -0.3355 -0.2230 -0.0057
 2641poe     o214411   0.299   4.748   1.032 -0.3102 -0.1477 -0.0297
 2641poe    c3114412   0.193   4.664   1.071 -0.5794 -0.1861 -0.8292
 2642poe    c3114413   5.576   0.147   1.597 -0.2746 -0.1915 -0.4168
 2642poe     o214414   5.704   0.104   1.558  0.0629  0.6033 -0.1963
 2642poe    c2314415   5.701  -0.033   1.526 -0.8916  0.7230 -0.6316
 2642poe    c2314416   5.830  -0.057   1.446 -0.7038 -0.0133 -0.1148
 2642poe     o214417   5.825  -0.007   1.314 -0.1460  0.3455 -0.0018
 2642poe    c2314418   5.945  -0.020   1.241 -0.1944 -0.3465  0.0394
 2642poe    c2314419   6.074   0.050   1.286 -0.1202 -0.3282 -0.1998
 2642poe     o214420   6.065   0.189   1.303 -0.0958 -0.3288 -0.1810
 2642poe    c2314421   6.096   0.265   1.188 -0.0247 -0.0681  0.0086
 2642poe    c2314422   6.101   0.417   1.210 -0.2449  0.0116 -0.4779
 2642poe     o214423   5.981   0.468   1.264 -0.0569  0.2087 -0.2443
 2642poe    c3114424   5.985   0.596   1.324  0.3524 -0.0324  0.2532
 2643poe    c3114425   7.086   3.753   3.689 -0.0489 -0.1723 -0.0966
 2643poe     o214426   7.063   3.625   3.634  0.0438 -0.1558 -0.1739
 2643poe    c2314427   7.146   3.600   3.523 -0.0775 -0.0424 -0.2884
 2643poe    c2314428   7.095   3.489   3.430  1.3189 -0.8387 -0.1158
 2643poe     o214429   7.053   3.370   3.494  0.4661 -0.1749  0.5715
 2643poe    c2314430   7.030   3.279   3.389  0.5123  0.3018  0.1450
 2643poe    c2314431   7.031   3.134   3.440  0.1358  0.2404 -0.0182
 2643poe     o214432   7.138   3.104   3.527  0.3374  0.3272 -0.2336
 2643poe    c2314433   7.101   2.984   3.591  0.5814  0.1368 -0.4511
 2643poe    c2314434   7.186   2.973   3.720 -0.0205  0.1540 -0.0512
 2643poe     o214435   7.214   3.105   3.760  0.2012  0.2319 -0.4547
 2643poe    c3114436   7.301   3.084   3.869 -0.0151  0.3001 -0.2686
 2644poe    c3114437   1.700   5.235   4.825 -0.2982  0.2141 -0.2940
 2644poe     o214438   1.655   5.297   4.707 -0.2525  0.6623 -0.0796
 2644poe    c2314439   1.749   5.393   4.663 -0.1638  0.4010 -0.4716
 2644poe    c2314440   1.682   5.500   4.576  0.6712  0.8341 -0.5879
 2644poe     o214441   1.659   5.464   4.441  0.4699  0.6705 -0.5093
 2644poe    c2314442   1.594   5.571   4.377  0.1561  0.7975  0.0115
 2644poe    c2314443   1.559   5.538   4.230  0.1290  0.1265  0.1636
 2644poe     o214444   1.663   5.509   4.139  0.0945  0.8343 -0.1045
 2644poe    c2314445   1.600   5.450   4.027 -0.0807  0.5659  0.1354
 2644poe    c2314446   1.637   5.301   4.011  0.0129  0.6028  0.0111
 2644poe     o214447   1.605   5.258   3.880  0.0782  0.0056  0.1910
 2644poe    c3114448   1.716   5.252   3.794  0.1882 -0.6772  0.3743
 2645poe    c3114449   3.296   4.759   6.953 -0.2847  0.0745 -0.3616
 2645poe     o214450   3.185   4.680   6.989 -0.2220  0.1455 -0.0104
 2645poe    c2314451   3.225   4.566   7.061  0.6671  0.3750 -0.1263
 2645poe    c2314452   3.106   4.472   7.089  0.5536  0.4949 -0.2060
 2645poe     o214453   2.999   4.532   7.158 -0.0657 -0.5169 -0.2673
 2645poe    c2314454   2.881   4.458   7.181 -0.1162 -0.1518  0.6908
 2645poe    c2314455   2.772   4.445   7.073  0.6030  0.5081 -0.1257
 2645poe     o214456   2.706   4.565   7.041 -0.1687  0.1538  0.1233
 2645poe    c2314457   2.643   4.579   6.915  0.4341  0.3294 -0.1626
 2645poe    c2314458   2.727   4.629   6.796 -0.4893  0.4708 -0.7664
 2645poe     o214459   2.775   4.516   6.726 -0.3731  0.0623 -0.0372
 2645poe    c3114460   2.900   4.544   6.668 -0.1095  0.4944  0.7224
 2646poe    c3114461   5.575   6.199   4.574 -0.0461 -0.1111  0.3316
 2646poe     o214462   5.697   6.266   4.598  0.0524 -0.1717  0.0018
 2646poe    c2314463   5.793   6.170   4.634  0.2364  0.0043 -0.0211
 2646poe    c2314464   5.898   6.220   4.736  0.1706  0.4065 -0.1509
 2646poe     o214465   5.995   6.297   4.668  0.5349 -0.5060 -0.6979
 2646poe    c2314466   6.094   6.367   4.740 -0.5661  0.7627 -0.3579
 2646poe    c2314467   6.205   6.280   4.801 -0.8409  0.5567 -0.1466
 2646poe     o214468   6.317   6.254   4.718 -0.4367  0.5207  0.4002
 2646poe    c2314469   6.436   6.290   4.785 -0.2430  0.5145  0.0600
 2646poe    c2314470   6.485   6.199   4.898 -0.1073  0.1857 -0.2613
 2646poe     o214471   6.557   6.082   4.865 -0.4464  0.0494 -0.5206
 2646poe    c3114472   6.466   5.988   4.813 -0.6190 -0.2193  0.2691
 2647poe    c3114473   4.592   2.426   2.398  0.1817 -0.0351  0.1412
 2647poe     o214474   4.610   2.287   2.386  0.4883  0.0084  0.0886
 2647poe    c2314475   4.514   2.202   2.445  0.1514 -0.1102 -0.6136
 2647poe    c2314476   4.532   2.051   2.421 -0.2215 -0.3029  0.2981
 2647poe     o214477   4.509   2.034   2.283 -0.7568  0.1124  0.3342
 2647poe    c2314478   4.504   1.896   2.256 -0.2641  0.1206  0.1906
 2647poe    c2314479   4.494   1.837   2.115  0.6944 -0.3325  0.3056
 2647poe     o214480   4.593   1.891   2.029  0.5335 -0.3532  0.1057
 2647poe    c2314481   4.581   1.824   1.905 -0.7633  0.4972 -0.2438
 2647poe    c2314482   4.679   1.885   1.804 -0.0887 -0.2627 -0.0535
 2647poe     o214483   4.814   1.848   1.825 -0.0320 -0.2405 -0.3805
 2647poe    c3114484   4.891   1.900   1.719  0.3451  0.4628  0.2391
 2648poe    c3114485   0.934   4.280   7.191  0.3891 -0.3076 -0.1435
 2648poe     o214486   0.952   4.146   7.152 -0.1897 -0.4250 -0.0258
 2648poe    c2314487   0.970   4.058   7.261 -0.3041 -0.1088  0.2496
 2648poe    c2314488   0.963   3.907   7.228 -0.0498 -0.1818  0.5280
 2648poe     o214489   0.841   3.878   7.165  0.4281 -0.3794 -0.3273
 2648poe    c2314490   0.741   3.850   7.261  0.4764  0.5809  0.0084
 2648poe    c2314491   0.608   3.821   7.188  0.2303  0.5506  0.4662
 2648poe     o214492   0.588   3.913   7.083  0.2695  0.2984  0.2359
 2648poe    c2314493   0.476   3.875   7.006  0.1538  0.0954  0.5024
 2648poe    c2314494   0.335   3.892   7.066  0.0833 -0.1232  0.3973
 2648poe     o214495   0.314   4.017   7.127  0.3788  0.2473 -0.2580
 2648poe    c3114496   0.193   3.997   7.195  0.6771 -0.0610  0.1868
 2649poe    c3114497   0.800   1.858   4.085 -0.3722  0.7352 -0.3897
 2649poe     o214498   0.770   1.749   3.999  0.1080  0.5468 -0.3210
 2649poe    c2314499   0.719   1.792   3.875  0.2985 -0.3429 -0.7128
 2649poe    c2314500   0.661   1.683   3.783  0.0755 -0.3960 -0.5071
 2649poe     o214501   0.745   1.571   3.797  0.2249 -0.2063  0.1857
 2649poe    c2314502   0.745   1.485   3.685  0.0702  0.1489 -0.0923
 2649poe    c2314503   0.838   1.366   3.718 -0.1777 -0.1687 -0.5318
 2649poe     o214504   0.969   1.403   3.753 -0.3421 -0.0390 -0.0561
 2649poe    c2314505   1.050   1.434   3.642 -0.2605  0.3530  0.1103
 2649poe    c2314506   1.185   1.486   3.696 -0.2962  0.4503  0.1066
 2649poe     o214507   1.193   1.621   3.736  0.4755  0.5024 -0.1964
 2649poe    c3114508   1.320   1.660   3.784  0.5046  0.4674 -0.2443
 2650poe    c3114509   2.239   3.286   5.567 -0.0406  0.4615  0.2587
 2650poe     o214510   2.294   3.376   5.473  0.1726 -0.3562 -0.4080
 2650poe    c2314511   2.408   3.441   5.524  0.1610 -0.3336 -0.4114
 2650poe    c2314512   2.477   3.528   5.417  0.0858 -0.2839 -0.4202
 2650poe     o214513   2.400   3.640   5.383  0.2052 -0.2067 -0.4396
 2650poe    c2314514   2.465   3.740   5.308 -0.0877  0.1996 -0.1589
 2650poe    c2314515   2.367   3.817   5.217 -0.0592  0.3307 -0.0798
 2650poe     o214516   2.297   3.721   5.141  0.5429 -0.0675 -0.1465
 2650poe    c2314517   2.273   3.767   5.010  0.1412 -0.1668 -0.1109
 2650poe    c2314518   2.306   3.666   4.899 -0.7091 -0.2459 -0.3016
 2650poe     o214519   2.263   3.536   4.933  0.6788 -0.6584 -0.0157
 2650poe    c3114520   2.262   3.476   4.805 -1.0934  0.2282 -0.4619
 2651poe    c3114521   1.464   4.033   3.815  0.3351 -0.2176  0.1686
 2651poe     o214522   1.573   4.078   3.892  0.1973  0.1167  0.1705
 2651poe    c2314523   1.545   4.159   4.004 -0.3024  0.2669 -0.0613
 2651poe    c2314524   1.666   4.173   4.099 -0.3493 -0.3171  0.0850
 2651poe     o214525   1.770   4.244   4.035 -0.1699 -0.3598  0.3322
 2651poe    c2314526   1.887   4.229   4.114 -0.0843  0.6297  0.4032
 2651poe    c2314527   1.994   4.307   4.035 -0.0619 -0.4019 -0.6186
 2651poe     o214528   2.005   4.256   3.904 -0.1384 -0.2962 -0.6664
 2651poe    c2314529   2.124   4.305   3.846  0.3632 -0.1883  0.4165
 2651poe    c2314530   2.122   4.248   3.703  0.7444  0.4721  0.1454
 2651poe     o214531   1.997   4.301   3.663  0.2360 -0.3029  0.6725
 2651poe    c3114532   1.988   4.283   3.523  0.9345 -0.6432  0.6638
 2652poe    c3114533   3.473   5.514   4.581 -0.2419 -0.0093  0.0149
 2652poe     o214534   3.394   5.425   4.657  0.3793 -0.0905  0.5747
 2652poe    c2314535   3.287   5.375   4.580  0.4365 -0.2470  0.5969
 2652poe    c2314536   3.251   5.236   4.635  0.0285 -0.2450  0.3385
 2652poe     o214537   3.373   5.165   4.644  0.1508 -0.1361 -0.4695
 2652poe    c2314538   3.352   5.028   4.667  0.5281 -0.1782 -0.3669
 2652poe    c2314539   3.478   4.962   4.725  0.2425 -0.5094 -0.1202
 2652poe     o214540   3.524   4.993   4.855  0.0307 -0.1065 -0.1393
 2652poe    c2314541   3.478   4.900   4.951 -0.0573 -0.3252 -0.3930
 2652poe    c2314542   3.501   4.955   5.093 -0.9694 -0.2096 -0.2850
 2652poe     o214543   3.417   5.061   5.133 -0.4410  0.1284 -0.0636
 2652poe    c3114544   3.384   5.043   5.269 -0.5953  0.3720 -0.0693
 2653poe    c3114545   1.890   6.175   7.004 -0.5716 -0.4862  0.2913
 2653poe     o214546   2.025   6.195   7.037 -0.5226 -0.0732 -0.1455
 2653poe    c2314547   2.107   6.095   6.981 -0.0455  0.5722 -0.6186
 2653poe    c2314548   2.259   6.119   6.970  0.0743  0.1505  0.0377
 2653poe     o214549   2.310   6.147   7.098 -0.3757  1.2565 -0.0118
 2653poe    c2314550   2.444   6.191   7.101  0.4032 -1.0210  0.3028
 2653poe    c2314551   2.515   6.165   7.236  0.5987  0.2469  0.4533
 2653poe     o214552   2.473   6.250   7.341 -0.0034 -0.1090  0.5057
 2653poe    c2314553   2.515   6.210   7.470  0.2995 -0.5247  0.2792
 2653poe    c2314554   2.478   6.311   7.580  0.8051  0.6330 -0.5882
 2653poe     o214555   2.339   6.313   7.604  0.7714 -0.0560 -0.6986
 2653poe    c3114556   2.307   6.402   7.709 -0.0845 -0.5679 -0.5130
 2654poe    c3114557   2.013   6.977   3.153  0.2454 -0.1783  0.1681
 2654poe     o214558   2.082   7.098   3.132  0.1651 -0.1429  0.1103
 2654poe    c2314559   2.042   7.203   3.217  0.1613 -0.0249 -0.0372
 2654poe    c2314560   1.950   7.315   3.164 -0.0695 -0.3556 -0.3400
 2654poe     o214561   2.031   7.413   3.102 -0.2261 -0.0011  0.0143
 2654poe    c2314562   1.963   7.537   3.096  0.5482  0.4228 -0.0776
 2654poe    c2314563   2.042   7.640   3.013  1.2705 -0.0102  0.0672
 2654poe     o214564   2.066   7.580   2.888 -0.4090  0.1509 -0.3505
 2654poe    c2314565   2.122   7.677   2.802  0.6059  0.7132  0.9035
 2654poe    c2314566   2.239   7.620   2.719 -0.2095 -0.3965  0.4772
 2654poe     o214567   2.200   7.509   2.642 -0.2577 -0.3305  0.4053
 2654poe    c3114568   2.163   7.551   2.513 -0.4397 -0.4642  0.4134
 2655poe    c3114569   5.261   3.388   7.241 -1.1069 -0.1844  0.1311
 2655poe     o214570   5.195   3.513   7.246 -0.3818  0.1782  0.8010
 2655poe    c2314571   5.214   3.587   7.127 -1.0919 -0.1585  0.4768
 2655poe    c2314572   5.148   3.722   7.161 -0.3119  0.1852  0.6249
 2655poe     o214573   5.218   3.806   7.251 -0.0798  0.0716  0.5516
 2655poe    c2314574   5.134   3.917   7.272 -0.2457  0.0400  0.0588
 2655poe    c2314575   5.169   4.000   7.397 -0.2411  0.3367 -0.1386
 2655poe     o214576   5.294   4.063   7.389 -0.0982  0.0943  0.1632
 2655poe    c2314577   5.343   4.121   7.508  0.8633 -0.0221 -0.1679
 2655poe    c2314578   5.494   4.150   7.517  0.6521  1.0045  0.1667
 2655poe     o214579   5.559   4.049   7.591 -0.1356 -0.2070 -0.7670
 2655poe    c3114580   5.681   4.097   7.642 -0.8106  0.6222  0.1136
 2656poe    c3114581   4.589   2.502   1.086 -1.0381  0.1191 -0.0369
 2656poe     o214582   4.614   2.507   0.948  0.3140  0.3317  0.2056
 2656poe    c2314583   4.724   2.592   0.921  0.4056  0.2790  0.4093
 2656poe    c2314584   4.793   2.561   0.786 -0.4758  0.4493 -0.0916
 2656poe     o214585   4.695   2.537   0.687 -0.6828 -0.0307  0.2203
 2656poe    c2314586   4.763   2.472   0.582 -0.1170  0.1732  0.4513
 2656poe    c2314587   4.665   2.465   0.463 -0.0335 -0.1503  0.4010
 2656poe     o214588   4.648   2.590   0.400 -0.2981 -0.1030  0.5627
 2656poe    c2314589   4.559   2.589   0.291  0.2765 -0.2171  0.0867
 2656poe    c2314590   4.550   2.717   0.204  0.5326 -0.1714  0.1253
 2656poe     o214591   4.477   2.821   0.266  0.0889 -0.0980 -0.5111
 2656poe    c3114592   4.341   2.804   0.234  0.2605 -0.2032 -1.2084
 2657poe    c3114593   6.123   6.965   3.651  0.2303 -0.0253 -0.7746
 2657poe     o214594   5.999   7.029   3.633 -0.1759 -0.6117 -0.1163
 2657poe    c2314595   5.938   7.052   3.758 -0.1573 -0.2876 -0.1667
 2657poe    c2314596   5.816   7.144   3.734 -0.0550 -0.1021  0.0212
 2657poe     o214597   5.764   7.115   3.606 -0.1552  0.4494 -0.0656
 2657poe    c2314598   5.632   7.163   3.601 -0.1989  0.2309 -1.0881
 2657poe    c2314599   5.548   7.069   3.512 -1.0663  0.1446 -0.1966
 2657poe     o214600   5.610   7.032   3.391  0.0471  0.2001  0.3510
 2657poe    c2314601   5.515   6.956   3.320 -0.0625  0.6900 -0.0238
 2657poe    c2314602   5.592   6.881   3.210 -0.0333  0.3209  0.2505
 2657poe     o214603   5.659   6.776   3.276 -0.2433  0.2331  0.3284
 2657poe    c3114604   5.755   6.712   3.195 -0.5208 -0.0219  0.2058
 2658poe    c3114605   3.844   1.272   3.326  0.2758  1.2184 -0.6260
 2658poe     o214606   3.708   1.287   3.295  0.1420  0.6051 -0.3534
 2658poe    c2314607   3.680   1.382   3.194 -0.5400 -0.0866 -0.8217
 2658poe    c2314608   3.534   1.341   3.162 -0.5967 -0.0105 -0.6630
 2658poe     o214609   3.516   1.202   3.173  0.6238 -0.1602 -0.4039
 2658poe    c2314610   3.381   1.190   3.136  0.2038  0.4736  0.8686
 2658poe    c2314611   3.332   1.052   3.182  0.1898  0.1517 -0.0759
 2658poe     o214612   3.324   1.044   3.323 -0.5200  0.0873 -0.1160
 2658poe    c2314613   3.261   0.922   3.358  0.1559 -0.2938 -0.2052
 2658poe    c2314614   3.245   0.902   3.510  0.0457 -0.3247 -0.2205
 2658poe     o214615   3.371   0.881   3.570 -0.0493  0.0015  0.0972
 2658poe    c3114616   3.366   0.829   3.701  0.0008  0.4909  0.2951
 2659poe    c3114617   2.443   5.357   5.017 -0.6052  0.1509  0.2227
 2659poe     o214618   2.421   5.236   5.086  0.1221 -0.0053  0.1910
 2659poe    c2314619   2.386   5.132   4.997  0.0005  0.0544  0.1681
 2659poe    c2314620   2.389   4.994   5.066 -0.7000 -0.1499 -0.2042
 2659poe     o214621   2.291   4.982   5.167  0.1210 -0.4601  0.5759
 2659poe    c2314622   2.337   4.877   5.247  0.5360 -0.6936  0.0355
 2659poe    c2314623   2.276   4.874   5.388  0.6638 -0.8337  0.0885
 2659poe     o214624   2.300   4.973   5.486  0.1114 -0.2470 -0.3661
 2659poe    c2314625   2.411   5.057   5.468 -0.1119  0.0903 -0.1671
 2659poe    c2314626   2.422   5.119   5.609 -1.0681 -0.2508  0.0631
 2659poe     o214627   2.469   5.034   5.710  0.4676  0.4432 -0.0326
 2659poe    c3114628   2.483   5.117   5.823  1.1541  0.4481 -0.1217
 2660poe    c3114629   6.462   2.151   2.437  0.1715  0.0495 -0.5449
 2660poe     o214630   6.362   2.065   2.388 -0.0120  0.1375 -0.3293
 2660poe    c2314631   6.386   1.928   2.410 -0.5944  0.0162 -0.4380
 2660poe    c2314632   6.339   1.884   2.550  0.1206  0.1592 -0.1494
 2660poe     o214633   6.198   1.875   2.549  0.0933  0.5524 -0.1113
 2660poe    c2314634   6.152   1.838   2.677  0.0225  0.0289 -0.2838
 2660poe    c2314635   6.098   1.694   2.675 -0.0496  0.0371  0.7842
 2660poe     o214636   6.187   1.585   2.682  0.1021  0.1287  0.3063
 2660poe    c2314637   6.124   1.462   2.704  0.1727  0.0467  0.0447
 2660poe    c2314638   6.126   1.365   2.584 -1.3610 -0.3518  0.3144
 2660poe     o214639   6.073   1.236   2.608 -0.4243 -0.7855  0.0939
 2660poe    c3114640   6.181   1.146   2.613 -0.2458 -0.5937 -0.2454
 2661poe    c3114641   3.206   6.625   7.053  0.3149 -0.0643  0.1231
 2661poe     o214642   3.286   6.688   6.955 -0.2488  0.7970  0.2094
 2661poe    c2314643   3.192   6.752   6.871 -0.6837  0.1788  0.2185
 2661poe    c2314644   3.268   6.858   6.790 -0.0108 -0.2657  0.2580
 2661poe     o214645   3.403   6.859   6.830  0.1512  0.4480 -0.2796
 2661poe    c2314646   3.443   6.993   6.811  0.3630  0.4156 -0.0731
 2661poe    c2314647   3.594   7.009   6.831  0.3953  0.2265 -0.1625
 2661poe     o214648   3.632   6.950   6.954  0.0472  0.1831 -0.0742
 2661poe    c2314649   3.764   6.983   6.990  0.1744 -0.3414 -0.0522
 2661poe    c2314650   3.785   6.941   7.137  0.1655  0.2720  0.1294
 2661poe     o214651   3.784   6.801   7.155 -0.7203  0.2817  0.1606
 2661poe    c3114652   3.910   6.746   7.125 -0.3606  1.0091  0.3132
 2662poe    c3114653   3.536   0.702   3.343 -0.3269  0.8133 -0.3197
 2662poe     o214654   3.459   0.634   3.246 -0.6791  0.3069  0.3056
 2662poe    c2314655   3.521   0.638   3.119 -0.7547  0.4888  0.2750
 2662poe    c2314656   3.435   0.591   3.000 -0.9505  0.3148  0.4829
 2662poe     o214657   3.403   0.455   3.017 -0.4326  0.1931  0.5078
 2662poe    c2314658   3.339   0.386   2.912 -0.3354  0.3017  0.3769
 2662poe    c2314659   3.193   0.405   2.868 -0.2678  0.9965  0.4461
 2662poe     o214660   3.130   0.373   2.991  0.4179  0.0894  0.5737
 2662poe    c2314661   2.999   0.335   2.954  0.6506  0.1939 -0.4043
 2662poe    c2314662   2.932   0.253   3.066  1.0346  0.5525  0.0933
 2662poe     o214663   2.968   0.117   3.057  0.5605  0.4054  0.3814
 2662poe    c3114664   3.068   0.076   3.148  0.4101  0.4137  0.5506
 2663poe    c3114665   6.856   1.669   3.797 -0.4623  0.2202 -0.5880
 2663poe     o214666   6.781   1.702   3.912  0.6806 -0.1208  0.2742
 2663poe    c2314667   6.712   1.586   3.951 -0.1339  0.1362 -0.3694
 2663poe    c2314668   6.676   1.619   4.097 -0.2254 -0.3148 -0.2878
 2663poe     o214669   6.612   1.743   4.082  0.1270 -0.1081 -0.1003
 2663poe    c2314670   6.571   1.794   4.207  0.4785 -0.0118 -0.0239
 2663poe    c2314671   6.536   1.936   4.162  0.1477 -0.2349 -0.4768
 2663poe     o214672   6.626   1.996   4.072 -0.0724 -0.0493 -0.5774
 2663poe    c2314673   6.609   2.135   4.061 -0.0334  0.0683  0.6797
 2663poe    c2314674   6.689   2.225   3.964  0.1463 -0.4340  0.3572
 2663poe     o214675   6.667   2.178   3.833 -0.3943 -0.1143  0.3318
 2663poe    c3114676   6.721   2.261   3.732 -0.5635  0.0165  0.3475
 2664poe    c3114677   6.118   2.999   5.679  0.0680  0.2540  0.2043
 2664poe     o214678   6.197   2.993   5.796  0.0042 -0.3814  0.2179
 2664poe    c2314679   6.327   3.037   5.764 -0.3808  0.5738 -0.0620
 2664poe    c2314680   6.417   3.065   5.886 -0.3183  0.0510  0.0132
 2664poe     o214681   6.362   3.166   5.967  0.1679  0.2205  0.1323
 2664poe    c2314682   6.434   3.197   6.084  0.0061  0.4700  0.1671
 2664poe    c2314683   6.364   3.313   6.157 -0.0263  0.5913 -0.0592
 2664poe     o214684   6.239   3.270   6.206 -0.0331 -0.1499 -0.7083
 2664poe    c2314685   6.181   3.373   6.282 -0.0900  0.1449 -1.1437
 2664poe    c2314686   6.054   3.321   6.353  0.1275  0.7094 -0.3180
 2664poe     o214687   5.998   3.243   6.249 -0.4020  0.0388  0.4602
 2664poe    c3114688   5.860   3.218   6.264 -0.4729  0.2030  0.0892
 2665poe    c3114689   3.053   6.253   6.040 -0.1170 -0.3554  0.4256
 2665poe     o214690   2.926   6.250   5.978  0.1217 -0.3700 -0.0721
 2665poe    c2314691   2.822   6.216   6.067  0.1024 -0.4552 -0.1275
 2665poe    c2314692   2.688   6.268   6.010  0.0183 -0.2097  0.2853
 2665poe     o214693   2.712   6.402   5.975  0.2303 -0.7074 -1.6554
 2665poe    c2314694   2.606   6.444   5.892 -0.9765 -0.1481  0.1071
 2665poe    c2314695   2.619   6.596   5.869 -0.4658 -0.2296 -0.1659
 2665poe     o214696   2.755   6.628   5.854 -0.5076  0.2165  0.3774
 2665poe    c2314697   2.795   6.757   5.812  0.4636 -0.1516  0.1408
 2665poe    c2314698   2.785   6.796   5.663 -0.3186 -0.5438  0.0810
 2665poe     o214699   2.867   6.724   5.575 -0.2913 -0.2350 -0.1485
 2665poe    c3114700   2.881   6.808   5.462 -0.2544 -0.3360 -0.2196
 2666poe    c3114701   4.812   2.912   6.378  0.2215 -0.4717  0.0216
 2666poe     o214702   4.941   2.964   6.401  0.1556 -0.0952 -0.4580
 2666poe    c2314703   4.971   3.052   6.295 -0.0703 -0.0243 -0.4645
 2666poe    c2314704   5.091   3.144   6.328 -0.1289  0.0495 -0.4577
 2666poe     o214705   5.215   3.079   6.321 -0.2729 -0.3267  0.3017
 2666poe    c2314706   5.316   3.177   6.328 -0.3385 -0.1822 -0.6518
 2666poe    c2314707   5.447   3.098   6.318 -0.2436 -0.0600 -0.3736
 2666poe     o214708   5.446   2.999   6.418 -0.8618  0.0607 -0.2594
 2666poe    c2314709   5.514   2.879   6.389  0.2762  0.5336  0.4234
 2666poe    c2314710   5.509   2.782   6.509 -1.0122  0.0523 -0.0072
 2666poe     o214711   5.399   2.811   6.593 -0.6509 -0.0950  0.5184
 2666poe    c3114712   5.414   2.753   6.721 -0.8784 -0.2174  0.4901
 2667poe    c3114713   2.866   3.472   4.910  0.6803 -1.0449 -0.7014
 2667poe     o214714   2.800   3.347   4.902 -0.7111 -0.3433 -0.5601
 2667poe    c2314715   2.771   3.312   5.036 -0.3811 -0.1362 -0.4300
 2667poe    c2314716   2.708   3.171   5.040 -0.0497 -0.2635  0.2247
 2667poe     o214717   2.614   3.159   4.936  0.0251 -0.3187  0.1633
 2667poe    c2314718   2.557   3.031   4.947  0.0109 -0.3052  0.2514
 2667poe    c2314719   2.407   3.030   4.911  0.1882  0.1189 -0.5021
 2667poe     o214720   2.378   3.077   4.781  0.4637  0.0376 -0.5930
 2667poe    c2314721   2.410   2.967   4.698 -0.3687 -0.6859  0.0352
 2667poe    c2314722   2.365   3.022   4.562  0.1419 -0.2591  0.0378
 2667poe     o214723   2.410   3.152   4.530  0.6579 -0.4882 -0.1788
 2667poe    c3114724   2.396   3.171   4.391 -0.0523  0.1964 -0.0253
 2668poe    c3114725   6.203   1.730   3.243  0.4890  0.3414  0.4798
 2668poe     o214726   6.328   1.794   3.258  0.7627 -0.0816  0.0368
 2668poe    c2314727   6.383   1.815   3.129 -0.2074 -0.1611 -0.3982
 2668poe    c2314728   6.482   1.927   3.162 -0.4268 -0.1120  0.1037
 2668poe     o214729   6.542   1.892   3.285 -0.1046 -0.2289 -0.0845
 2668poe    c2314730   6.631   1.988   3.337 -0.1653 -0.0379 -0.3304
 2668poe    c2314731   6.729   1.923   3.437 -0.4163  0.0563 -0.0244
 2668poe     o214732   6.823   1.863   3.352 -0.7094 -0.2179 -0.1575
 2668poe    c2314733   6.920   1.795   3.429  0.3244  0.2758 -0.9835
 2668poe    c2314734   6.975   1.665   3.370  0.3482 -0.2170  0.0918
 2668poe     o214735   7.076   1.673   3.272 -0.3050  0.3173 -0.5471
 2668poe    c3114736   7.093   1.543   3.219 -0.2563  0.0181  0.1890
 2669poe    c3114737   4.986   4.456   5.709  0.0646 -0.7365  0.3453
 2669poe     o214738   5.116   4.402   5.710  0.2444 -0.3061  0.4924
 2669poe    c2314739   5.160   4.389   5.577 -0.7676 -0.3040  0.1493
 2669poe    c2314740   5.275   4.289   5.600 -0.2147  0.4075  0.5009
 2669poe     o214741   5.400   4.351   5.621  0.0490  0.2079 -0.4356
 2669poe    c2314742   5.503   4.258   5.594 -0.1030 -0.1775  0.2848
 2669poe    c2314743   5.628   4.336   5.640 -0.2898  0.2286  0.1082
 2669poe     o214744   5.630   4.373   5.776 -0.2053 -0.0702  0.1898
 2669poe    c2314745   5.742   4.450   5.814 -0.5608  0.5603 -0.0227
 2669poe    c2314746   5.731   4.464   5.967 -0.0469  0.0977  0.0600
 2669poe     o214747   5.600   4.492   6.012 -0.1212 -0.2605  0.0746
 2669poe    c3114748   5.594   4.503   6.153  0.1505 -0.4718  0.1024
 2670poe    c3114749   6.563   1.864   1.186 -0.8588 -0.6536 -0.3762
 2670poe     o214750   6.576   1.868   1.046  0.2079 -0.3828 -0.2738
 2670poe    c2314751   6.645   1.752   1.004  0.4208 -0.5299  0.4665
 2670poe    c2314752   6.695   1.768   0.859 -0.1820 -0.1290  0.3020
 2670poe     o214753   6.591   1.794   0.767  0.0726 -0.4410 -0.0755
 2670poe    c2314754   6.658   1.842   0.653  0.1809  0.3628  0.3216
 2670poe    c2314755   6.561   1.822   0.534  0.4817  0.1313  0.1143
 2670poe     o214756   6.443   1.899   0.539 -0.0741 -0.6691 -0.5471
 2670poe    c2314757   6.353   1.867   0.435 -0.7156  0.2559 -0.2951
 2670poe    c2314758   6.390   1.856   0.286 -0.0646 -0.2418 -0.1071
 2670poe     o214759   6.447   1.966   0.218 -0.0900 -0.0808  0.1315
 2670poe    c3114760   6.353   2.064   0.179 -0.1366  0.0875  0.6582
 2671poe    c3114761   1.540   4.890   5.932  0.1049 -0.2235 -0.8152
 2671poe     o214762   1.542   4.978   6.042  0.2798 -0.0725 -0.9389
 2671poe    c2314763   1.653   5.064   6.029  0.3411 -0.0699 -0.3870
 2671poe    c2314764   1.666   5.180   6.129  0.7236 -0.2372 -0.2392
 2671poe     o214765   1.705   5.160   6.263  0.0930  0.0427 -0.0141
 2671poe    c2314766   1.666   5.273   6.339  0.0119  0.2927 -0.4215
 2671poe    c2314767   1.700   5.238   6.485 -0.6309  0.1424 -0.3081
 2671poe     o214768   1.622   5.123   6.512  0.1335 -0.4204 -0.4661
 2671poe    c2314769   1.614   5.103   6.651 -0.2553  0.4779 -0.3506
 2671poe    c2314770   1.510   4.989   6.659 -0.5210  0.7348 -0.1032
 2671poe     o214771   1.548   4.895   6.561 -0.0001  0.0714  0.7073
 2671poe    c3114772   1.504   4.768   6.602 -0.5993 -0.0520 -0.2636
 2672poe    c3114773   4.263   3.511   5.542  0.2396  0.3295  0.5646
 2672poe     o214774   4.156   3.432   5.588  0.3923 -0.3251 -0.1738
 2672poe    c2314775   4.030   3.462   5.532  0.4211 -0.2223 -0.1821
 2672poe    c2314776   3.907   3.376   5.563  0.0934 -0.0262 -0.9084
 2672poe     o214777   3.780   3.438   5.564  0.0193 -0.1794  0.4299
 2672poe    c2314778   3.689   3.343   5.616  0.0418 -0.2750  0.2945
 2672poe    c2314779   3.550   3.394   5.576 -0.0449 -0.4167  0.4127
 2672poe     o214780   3.511   3.356   5.445 -0.2717  0.0086  0.3545
 2672poe    c2314781   3.401   3.433   5.402  0.1836  0.4222 -0.0801
 2672poe    c2314782   3.374   3.377   5.262 -0.3111 -0.0125  0.1871
 2672poe     o214783   3.344   3.240   5.242  0.1117 -0.1026  0.1489
 2672poe    c3114784   3.214   3.205   5.286  0.1799  0.1444  0.5575
 2673poe    c3114785   3.460   5.933   2.709  0.8170 -0.2564  0.0225
 2673poe     o214786   3.512   5.842   2.803 -0.0646 -0.0169  0.7587
 2673poe    c2314787   3.637   5.794   2.759 -0.4794 -0.6006  0.2028
 2673poe    c2314788   3.710   5.710   2.866  0.4369 -0.2029 -0.0962
 2673poe     o214789   3.643   5.597   2.918 -0.3934  0.1201 -0.4384
 2673poe    c2314790   3.715   5.536   3.023 -0.2483  0.1273 -0.5330
 2673poe    c2314791   3.641   5.408   3.066  0.0502 -0.1343 -0.7968
 2673poe     o214792   3.507   5.450   3.052  0.0415  0.0555 -0.1601
 2673poe    c2314793   3.414   5.381   3.133  0.2826  0.0625  0.1256
 2673poe    c2314794   3.272   5.402   3.078  0.3958 -0.1159 -0.2376
 2673poe     o214795   3.241   5.537   3.104  0.1160 -0.1902 -0.1813
 2673poe    c3114796   3.107   5.577   3.091  0.3152  0.5433 -0.0197
 2674poe    c3114797   6.929   4.445   4.699 -0.5370 -0.2887 -0.7230
 2674poe     o214798   7.047   4.371   4.680 -0.2148  0.1952 -0.6126
 2674poe    c2314799   7.092   4.293   4.788 -0.6819  0.6868 -0.0582
 2674poe    c2314800   7.119   4.149   4.742  0.5150  0.8302  0.1713
 2674poe     o214801   7.178   4.177   4.617 -0.3766  0.0519 -0.4384
 2674poe    c2314802   7.246   4.065   4.565 -0.7309 -0.0725 -0.6367
 2674poe    c2314803   7.370   4.111   4.486 -0.1201 -0.3076  0.1732
 2674poe     o214804   7.316   4.208   4.399 -0.4093 -0.2631  0.3978
 2674poe    c2314805   7.414   4.232   4.300 -0.2182 -0.1106  0.6228
 2674poe    c2314806   7.369   4.349   4.211  0.2740 -0.1030  0.3796
 2674poe     o214807   7.386   4.479   4.262  0.3653  0.0704 -0.0839
 2674poe    c3114808   7.352   4.578   4.168  0.2892 -0.0079 -0.1398
 2675poe    c3114809   1.588   2.887   0.419  0.1241 -0.3760 -0.4030
 2675poe     o214810   1.484   2.814   0.358 -0.7370 -0.0720  0.6665
 2675poe    c2314811   1.478   2.683   0.409 -0.6139 -0.3600 -0.0399
 2675poe    c2314812   1.349   2.611   0.363 -0.5351 -0.4982 -0.0451
 2675poe     o214813   1.333   2.608   0.223 -0.0961  0.0280 -0.1089
 2675poe    c2314814   1.228   2.518   0.199 -0.2907  0.2286 -0.0123
 2675poe    c2314815   1.226   2.448   0.062 -0.3038 -0.4087  0.3097
 2675poe     o214816   1.338   2.379   0.011 -0.3385  0.0711 -0.4290
 2675poe    c2314817   1.449   2.455  -0.032 -0.2171  0.1886  0.0951
 2675poe    c2314818   1.445   2.478  -0.184 -0.4293  0.3590  0.1258
 2675poe     o214819   1.339   2.569  -0.206 -0.2366  0.4678 -0.3494
 2675poe    c3114820   1.282   2.573  -0.335 -0.5553  0.2324 -0.2167
 2676poe    c3114821   5.805   6.641   2.159  0.6320 -0.6394  0.5065
 2676poe     o214822   5.853   6.595   2.034  0.0855  0.1864 -0.0192
 2676poe    c2314823   5.914   6.690   1.949 -0.0937  0.0480 -0.3032
 2676poe    c2314824   5.821   6.754   1.845 -0.1332  0.3084 -0.1101
 2676poe     o214825   5.725   6.834   1.910 -0.0735  0.4130 -0.1512
 2676poe    c2314826   5.590   6.820   1.874 -0.0793  0.1544 -0.0287
 2676poe    c2314827   5.555   6.877   1.735 -0.2939  0.3928  0.1218
 2676poe     o214828   5.535   6.772   1.644 -0.7649  0.7574 -0.1980
 2676poe    c2314829   5.509   6.805   1.509 -0.0139  0.4530 -0.4249
 2676poe    c2314830   5.478   6.686   1.417 -0.4001 -0.4282  0.8291
 2676poe     o214831   5.573   6.585   1.440  0.7760  0.5537  0.3766
 2676poe    c3114832   5.541   6.463   1.377 -0.2528  1.0602 -0.0884
 2677poe    c3114833   1.951   5.632   4.272  0.3368 -0.5595  0.2528
 2677poe     o214834   1.980   5.770   4.267 -0.5384 -0.3772  0.0998
 2677poe    c2314835   1.901   5.829   4.166  0.4131  0.6519 -0.0656
 2677poe    c2314836   1.846   5.962   4.222 -0.3863  0.2345  0.1588
 2677poe     o214837   1.952   6.038   4.274 -0.6220  0.4550  0.3164
 2677poe    c2314838   1.918   6.128   4.377 -1.3471  0.1996  0.2988
 2677poe    c2314839   1.915   6.050   4.510 -0.1912 -0.4981 -0.0752
 2677poe     o214840   2.042   5.989   4.502  0.0522 -0.0506  0.3963
 2677poe    c2314841   2.097   5.921   4.612  0.2562 -0.5772 -0.0301
 2677poe    c2314842   2.241   5.889   4.567  0.4487  1.0501 -0.6368
 2677poe     o214843   2.238   5.843   4.433 -0.0656 -0.0558 -0.2571
 2677poe    c3114844   2.364   5.782   4.413  0.0738  0.0802  0.1909
 2678poe    c3114845   4.624   3.524   1.002  0.1171  0.5375 -0.2020
 2678poe     o214846   4.515   3.570   1.080  0.0120  0.4141 -0.2759
 2678poe    c2314847   4.444   3.460   1.131  0.4618  0.1747 -0.1595
 2678poe    c2314848   4.300   3.498   1.167  0.1634 -1.2492  0.2192
 2678poe     o214849   4.300   3.601   1.263 -0.7724 -0.4237 -0.6342
 2678poe    c2314850   4.170   3.613   1.316 -0.4907  0.5507 -0.1335
 2678poe    c2314851   4.179   3.676   1.456  0.1941  0.0009  0.0776
 2678poe     o214852   4.222   3.810   1.449 -0.1160  0.0835 -0.2966
 2678poe    c2314853   4.210   3.858   1.582  0.1974 -0.2864 -0.1346
 2678poe    c2314854   4.247   4.007   1.593 -0.1331 -0.2511  0.5538
 2678poe     o214855   4.387   4.022   1.606 -0.2588  0.7459  0.8060
 2678poe    c3114856   4.449   3.962   1.717  0.1671 -0.6415 -0.1672
 2679poe    c3114857   0.743   5.441   2.483 -0.0757 -0.0162 -0.2119
 2679poe     o214858   0.774   5.312   2.533  0.1239  0.3113  0.5240
 2679poe    c2314859   0.646   5.273   2.579 -0.0565 -0.0816 -0.2883
 2679poe    c2314860   0.637   5.135   2.647 -0.2952  0.2903  0.4456
 2679poe     o214861   0.504   5.107   2.685 -0.4164 -0.1774 -0.3045
 2679poe    c2314862   0.486   4.968   2.690 -0.3167 -0.1844 -0.1064
 2679poe    c2314863   0.345   4.927   2.736 -0.2841 -0.3584 -0.1591
 2679poe     o214864   0.241   4.945   2.641 -0.2527 -0.7014 -0.2584
 2679poe    c2314865   0.118   4.893   2.686  0.0457 -1.0192  0.2051
 2679poe    c2314866   0.016   4.851   2.579  0.1343 -0.5017 -0.0828
 2679poe     o214867   0.076   4.754   2.497  0.0237 -0.5783 -0.0740
 2679poe    c3114868   0.117   4.625   2.536  0.1657 -0.2858  0.7596
 2680poe    c3114869   3.413   6.210   1.188  0.5215 -0.8042  1.0812
 2680poe     o214870   3.407   6.303   1.294 -0.4996 -0.2601  0.5556
 2680poe    c2314871   3.535   6.356   1.320 -0.4698 -0.1735  0.2298
 2680poe    c2314872   3.524   6.464   1.428  0.1937  0.2176 -0.0878
 2680poe     o214873   3.450   6.581   1.401 -1.1475 -0.5364  0.2517
 2680poe    c2314874   3.476   6.691   1.485 -0.2891 -0.2515 -0.3775
 2680poe    c2314875   3.345   6.739   1.549 -0.0611 -0.1414  0.0143
 2680poe     o214876   3.241   6.767   1.457 -0.1026 -0.5552 -0.0646
 2680poe    c2314877   3.130   6.826   1.520  0.1235 -0.3232  0.1203
 2680poe    c2314878   3.014   6.822   1.418  0.3524  0.4460 -0.1725
 2680poe     o214879   3.032   6.707   1.337 -0.1971  0.2072  0.0449
 2680poe    c3114880   2.920   6.682   1.255 -0.2236 -0.4730  0.2870
 2681poe    c3114881   0.742   5.855   3.941  0.6130  0.2514  0.1069
 2681poe     o214882   0.695   5.978   3.891 -0.0323  0.0219  0.1381
 2681poe    c2314883   0.774   5.999   3.776  0.4599  0.0932  0.4862
 2681poe    c2314884   0.753   6.131   3.698  0.1388  0.0222  0.4542
 2681poe     o214885   0.643   6.119   3.610  0.1523  0.7842  0.3278
 2681poe    c2314886   0.622   6.239   3.540 -0.1850  0.4971 -0.0674
 2681poe    c2314887   0.485   6.228   3.471 -0.2358  0.1896  0.0803
 2681poe     o214888   0.381   6.220   3.565 -0.4432 -0.2037 -0.1781
 2681poe    c2314889   0.273   6.171   3.489 -0.4621  0.0987 -0.3512
 2681poe    c2314890   0.161   6.103   3.571 -0.0239  0.0506  0.2149
 2681poe     o214891   0.198   5.971   3.604 -0.4255 -0.3301 -0.8114
 2681poe    c3114892   0.081   5.893   3.600 -0.5439 -0.1763 -0.4765
 2682poe    c3114893   7.198   2.090   2.360 -0.2377 -0.1501 -0.4124
 2682poe     o214894   7.299   2.045   2.272  0.0836 -0.6728  0.2101
 2682poe    c2314895   7.287   2.114   2.149  0.2378 -0.4713  0.3077
 2682poe    c2314896   7.364   2.037   2.040  0.0193 -0.1059 -0.1081
 2682poe     o214897   7.309   1.911   2.008 -0.8661  0.2027  0.1638
 2682poe    c2314898   7.265   1.904   1.874 -0.4867 -0.3705  0.0660
 2682poe    c2314899   7.199   1.766   1.869 -0.4515 -0.3507 -1.2554
 2682poe     o214900   7.065   1.779   1.913 -0.0116 -0.0598  0.0381
 2682poe    c2314901   7.021   1.652   1.954 -0.2950 -0.3541 -1.1277
 2682poe    c2314902   6.879   1.670   2.011  0.2604  0.0341  0.1670
 2682poe     o214903   6.876   1.755   2.124 -0.5528  0.1921  0.0313
 2682poe    c3114904   6.866   1.892   2.094  0.4539  0.1482 -0.5498
 2683poe    c3114905   0.397   2.083   2.305  0.1037 -0.1997  0.2217
 2683poe     o214906   0.514   2.006   2.290  0.3454  0.1383  0.3550
 2683poe    c2314907   0.496   1.866   2.280  0.1221  0.1861  0.0729
 2683poe    c2314908   0.613   1.775   2.239 -0.0532  0.1305 -0.3068
 2683poe     o214909   0.618   1.808   2.102 -0.2467  0.0619 -0.3302
 2683poe    c2314910   0.634   1.696   2.018 -0.4829 -0.2315  0.0128
 2683poe    c2314911   0.675   1.747   1.879  0.5097 -0.8956  0.0489
 2683poe     o214912   0.802   1.807   1.894  0.2271 -0.4928  0.8981
 2683poe    c2314913   0.859   1.869   1.781 -0.4453 -0.6139  0.4883
 2683poe    c2314914   0.927   1.770   1.684 -0.5835  0.3114 -0.5709
 2683poe     o214915   0.835   1.718   1.591 -0.8109  0.3555 -0.3721
 2683poe    c3114916   0.865   1.587   1.549  0.6007  0.2853  0.7804
 2684poe    c3114917   6.508   5.518   5.498  0.2133  0.1715 -0.2386
 2684poe     o214918   6.647   5.493   5.489  0.1879 -0.1193  0.1323
 2684poe    c2314919   6.708   5.603   5.425 -0.1860 -0.2589 -0.4700
 2684poe    c2314920   6.861   5.587   5.414 -0.1663 -0.2391 -0.2266
 2684poe     o214921   6.927   5.604   5.537  0.3758 -0.1478 -0.5274
 2684poe    c2314922   7.061   5.644   5.526  0.3569 -0.0368 -0.3628
 2684poe    c2314923   7.143   5.591   5.645 -0.4555 -0.5629 -0.0323
 2684poe     o214924   7.120   5.455   5.674 -0.0015 -0.6994 -0.3070
 2684poe    c2314925   7.212   5.409   5.770  0.4709 -0.5349 -0.6719
 2684poe    c2314926   7.218   5.255   5.774 -0.6735 -0.5717  0.1590
 2684poe     o214927   7.305   5.203   5.873 -0.4084  0.0255  0.2410
 2684poe    c3114928   7.325   5.065   5.858 -0.1102  0.1245 -0.3022
 2685poe    c3114929   0.365   4.269   5.963  0.2198 -0.1865 -0.5013
 2685poe     o214930   0.332   4.395   6.017  0.1341 -0.4901  0.1668
 2685poe    c2314931   0.394   4.443   6.134  0.3391  0.0341 -0.1582
 2685poe    c2314932   0.335   4.584   6.154  0.9632  0.3692 -0.6401
 2685poe     o214933   0.383   4.685   6.068  0.4829  0.4045 -0.8688
 2685poe    c2314934   0.306   4.803   6.067 -0.8169 -0.4210 -0.2470
 2685poe    c2314935   0.385   4.906   5.985  0.2988 -0.5315  0.6684
 2685poe     o214936   0.448   5.008   6.059  0.2320  0.0214 -0.0201
 2685poe    c2314937   0.492   5.120   5.985  0.3484 -0.3469 -0.5115
 2685poe    c2314938   0.563   5.224   6.074  0.3237 -0.6428 -0.1415
 2685poe     o214939   0.696   5.191   6.107  0.3293 -0.6797 -0.2002
 2685poe    c3114940   0.753   5.292   6.188  0.4324 -0.5523 -0.4296
 2686poe    c3114941   2.045   5.835   5.856 -0.4728  0.0828 -0.3543
 2686poe     o214942   1.912   5.827   5.809 -0.3951 -0.3691 -0.4990
 2686poe    c2314943   1.874   5.693   5.786 -0.2237 -0.4854 -0.1073
 2686poe    c2314944   1.723   5.663   5.790 -0.3600  0.1850 -0.1666
 2686poe     o214945   1.671   5.695   5.917  0.2562 -0.4581  0.2537
 2686poe    c2314946   1.532   5.671   5.921  0.2003 -0.0619  1.0242
 2686poe    c2314947   1.456   5.800   5.957 -0.1658 -0.0539  0.2549
 2686poe     o214948   1.516   5.861   6.069  0.3239 -0.0844  0.0126
 2686poe    c2314949   1.421   5.942   6.134  0.2471 -0.0418 -0.1535
 2686poe    c2314950   1.482   6.026   6.247 -0.1366  0.4252 -0.2879
 2686poe     o214951   1.610   6.066   6.202  0.2097  0.0827  0.3682
 2686poe    c3114952   1.662   6.148   6.303 -0.3961  0.0033  0.7491
 2687poe    c3114953   3.284   4.014   6.856 -0.0554  0.5145 -0.7492
 2687poe     o214954   3.356   4.046   6.973 -0.3499  0.1594 -0.4647
 2687poe    c2314955   3.394   4.181   6.989 -0.3124  0.0558  0.3719
 2687poe    c2314956   3.508   4.192   7.092  0.3230 -0.1116 -0.3034
 2687poe     o214957   3.477   4.115   7.206  0.8618  0.0312 -0.0552
 2687poe    c2314958   3.411   4.179   7.312 -0.5494 -0.5745 -0.5313
 2687poe    c2314959   3.384   4.069   7.417 -0.2228  0.2223  0.4094
 2687poe     o214960   3.292   3.966   7.392  0.0946  0.0687 -0.1404
 2687poe    c2314961   3.269   3.902   7.516 -0.1378  0.5437  0.0624
 2687poe    c2314962   3.194   3.768   7.505  0.0957  0.4067  0.1380
 2687poe     o214963   3.248   3.709   7.389 -0.4191 -0.0536  0.1284
 2687poe    c3114964   3.203   3.575   7.386 -0.2167 -0.1134 -0.2409
 2688poe    c3114965   1.144   3.436   0.278 -0.1418 -0.2330 -0.4060
 2688poe     o214966   1.064   3.344   0.207 -0.3800 -0.5764  0.2913
 2688poe    c2314967   0.954   3.403   0.141 -0.4486 -0.5187  0.4581
 2688poe    c2314968   0.855   3.316   0.062 -0.2612 -0.0864 -0.2536
 2688poe     o214969   0.769   3.239   0.143 -0.3202  0.0430 -0.1929
 2688poe    c2314970   0.665   3.177   0.071  0.0821  0.1548 -0.8772
 2688poe    c2314971   0.613   3.049   0.140  0.3076  0.4683 -0.1146
 2688poe     o214972   0.706   2.951   0.179 -0.0975  0.3034  0.4530
 2688poe    c2314973   0.752   2.870   0.073  0.3937 -0.1147  0.9834
 2688poe    c2314974   0.819   2.742   0.127  0.5739 -0.4299  0.0174
 2688poe     o214975   0.728   2.640   0.161 -0.0496 -0.2556 -1.0769
 2688poe    c3114976   0.800   2.519   0.166  0.3927  0.0589  0.5553
 2689poe    c3114977   1.239   4.692   2.907 -0.1803  0.6352 -0.1894
 2689poe     o214978   1.348   4.736   2.986  0.3796  0.5633 -0.9168
 2689poe    c2314979   1.334   4.874   3.009 -0.5522  0.2946  0.2331
 2689poe    c2314980   1.468   4.917   3.070 -0.5790  0.9174 -0.1376
 2689poe     o214981   1.578   4.894   2.985 -0.1299  0.0013  0.6681
 2689poe    c2314982   1.630   5.015   2.934  0.0562 -0.2443  0.2627
 2689poe    c2314983   1.774   5.003   2.879 -0.0258 -1.1979  0.2501
 2689poe     o214984   1.884   5.002   2.967  0.4386 -0.4214 -0.3127
 2689poe    c2314985   1.918   5.122   3.031 -0.3746 -0.3450 -0.0210
 2689poe    c2314986   2.016   5.113   3.150  0.2857 -0.2016 -0.5478
 2689poe     o214987   2.155   5.110   3.128  0.3559  0.2922 -0.1911
 2689poe    c3114988   2.209   5.231   3.080 -0.5408  0.8013  0.0656
 2690poe    c3114989   4.511   1.005   0.334  0.7201 -0.0267  0.5529
 2690poe     o214990   4.501   0.902   0.429 -0.0049 -0.6914 -0.2290
 2690poe    c2314991   4.411   0.807   0.377 -0.1118 -0.5842 -0.2409
 2690poe    c2314992   4.390   0.677   0.457  0.2218 -0.1971  0.4795
 2690poe     o214993   4.291   0.699   0.555  0.0813  0.1668  0.2564
 2690poe    c2314994   4.254   0.586   0.630 -0.4228  0.2330  0.1107
 2690poe    c2314995   4.172   0.619   0.756 -0.3686 -0.2197  0.2655
 2690poe     o214996   4.040   0.643   0.715 -0.3688 -0.2519  0.2474
 2690poe    c2314997   3.936   0.641   0.811 -0.6525 -0.7838 -0.0642
 2690poe    c2314998   3.804   0.699   0.757 -0.5702 -0.1742  0.3763
 2690poe     o214999   3.688   0.619   0.741 -0.4541 -0.2445 -0.1251
 2690poe    c3115000   3.589   0.686   0.666 -0.1556  0.5065  0.1347
 2691poe    c3115001   6.104   6.879   2.786  0.6310  0.1885 -0.4089
 2691poe     o215002   6.205   6.905   2.880 -0.0975  0.2732  0.3671
 2691poe    c2315003   6.173   6.868   3.012  0.0752  0.1741  0.3821
 2691poe    c2315004   6.115   6.984   3.095 -0.3463  0.1502  0.1264
 2691poe     o215005   6.215   7.084   3.099 -0.2053  0.0187 -0.0970
 2691poe    c2315006   6.191   7.207   3.165 -0.3271  0.1838 -0.4463
 2691poe    c2315007   6.165   7.324   3.068  0.0010  0.5596 -0.0853
 2691poe     o215008   6.286   7.361   3.008  0.1144 -0.1491 -0.3088
 2691poe    c2315009   6.289   7.484   2.939  0.1061  0.0557  0.0542
 2691poe    c2315010   6.318   7.616   3.014  0.3339  0.2403 -0.3584
 2691poe     o215011   6.207   7.649   3.093  0.9525  0.0141  0.6140
 2691poe    c3115012   6.240   7.722   3.210  0.6055  1.1587  0.0129
 2692poe    c3115013   3.818   2.067   4.011 -0.1297  1.2525 -0.1409
 2692poe     o215014   3.934   2.096   3.936  0.1607 -0.5064 -0.4368
 2692poe    c2315015   4.021   2.184   4.003 -0.1528 -0.4729 -0.0651
 2692poe    c2315016   4.068   2.295   3.906 -0.2417 -0.3644  0.0165
 2692poe     o215017   3.968   2.343   3.819 -0.1025 -0.1251 -0.0110
 2692poe    c2315018   4.036   2.425   3.727  0.1504 -0.4728 -0.1388
 2692poe    c2315019   3.939   2.523   3.659  0.2816 -0.0426  0.2813
 2692poe     o215020   3.849   2.449   3.580  0.4930  0.2094 -0.2039
 2692poe    c2315021   3.767   2.525   3.494 -0.1232 -0.5369 -0.2852
 2692poe    c2315022   3.695   2.402   3.434  0.2462 -0.6746 -0.4463
 2692poe     o215023   3.639   2.315   3.529 -0.3162  0.1363 -0.0219
 2692poe    c3115024   3.584   2.206   3.458 -0.3909 -0.0377  0.3030
 2693poe    c3115025   7.053   6.074   5.634 -0.9644  0.1653  0.2770
 2693poe     o215026   7.022   6.136   5.511  0.0448  0.1265 -0.0030
 2693poe    c2315027   6.908   6.073   5.459  0.1866 -0.4413  0.3532
 2693poe    c2315028   6.891   6.115   5.312  0.7106  0.2595  0.4904
 2693poe     o215029   7.003   6.093   5.228  0.0796 -0.2127 -0.2356
 2693poe    c2315030   6.989   6.174   5.113  0.2593  0.3182  0.1140
 2693poe    c2315031   7.112   6.167   5.020  0.2483  0.2998  0.1008
 2693poe     o215032   7.224   6.186   5.102  0.3891 -0.2386  0.0349
 2693poe    c2315033   7.334   6.232   5.027  0.2332 -0.2706 -0.2144
 2693poe    c2315034   7.466   6.223   5.106  0.3725 -0.2056 -0.4390
 2693poe     o215035   7.457   6.311   5.216  0.2271  0.2516 -0.8118
 2693poe    c3115036   7.584   6.307   5.278 -0.2454  0.0415  0.1690
 2694poe    c3115037   2.034   2.070   7.070  0.3244 -0.3791  0.1293
 2694poe     o215038   2.144   2.001   7.015  0.0394 -0.5787 -0.1980
 2694poe    c2315039   2.203   1.926   7.118  0.6150  0.4820  0.2663
 2694poe    c2315040   2.282   1.820   7.040 -0.6679 -0.0742 -0.3018
 2694poe     o215041   2.340   1.897   6.936 -0.2625  0.0926  0.0474
 2694poe    c2315042   2.410   1.821   6.840  0.0701  0.5783 -0.0976
 2694poe    c2315043   2.476   1.904   6.728  0.3532  0.1286 -0.2683
 2694poe     o215044   2.366   1.969   6.668  0.2800  0.3308  0.0788
 2694poe    c2315045   2.402   2.006   6.537 -0.2708 -0.7848 -0.4067
 2694poe    c2315046   2.308   2.104   6.466 -0.1269 -0.4518 -0.1401
 2694poe     o215047   2.279   2.209   6.556 -0.4983 -0.6860  0.0120
 2694poe    c3115048   2.300   2.331   6.490 -0.8594 -0.6341 -0.0089
 2695poe    c3115049   3.488   1.766   4.469 -0.1409  0.1960 -0.4265
 2695poe     o215050   3.482   1.860   4.575  0.4142 -0.2479  0.0008
 2695poe    c2315051   3.546   1.837   4.698 -0.1727 -0.0086  0.3524
 2695poe    c2315052   3.576   1.973   4.764  0.7518  0.1512 -0.3675
 2695poe     o215053   3.462   2.051   4.734  0.7419  0.1487 -0.3361
 2695poe    c2315054   3.465   2.181   4.789  0.6232  0.2542 -0.5759
 2695poe    c2315055   3.334   2.254   4.755  0.2672 -0.1099 -0.0065
 2695poe     o215056   3.309   2.268   4.617 -0.1281  0.0139  0.0776
 2695poe    c2315057   3.192   2.337   4.581 -0.3007 -0.0252  0.5632
 2695poe    c2315058   3.172   2.318   4.430  0.2056 -0.0733  0.5033
 2695poe     o215059   3.123   2.192   4.388  0.7083 -0.1195  0.0355
 2695poe    c3115060   3.122   2.188   4.247  0.5479  0.6059  0.0070
 2696poe    c3115061   1.109   1.056   5.076  0.2309  0.5116  0.1996
 2696poe     o215062   1.236   1.006   5.111  0.1298  0.4995  0.5567
 2696poe    c2315063   1.273   1.019   5.246  0.0273 -0.0049  0.6376
 2696poe    c2315064   1.404   0.948   5.285  0.0019 -0.6589 -0.4374
 2696poe     o215065   1.385   0.808   5.280 -0.9250 -0.5507 -0.0457
 2696poe    c2315066   1.391   0.736   5.159  0.4857 -0.5889  0.0338
 2696poe    c2315067   1.362   0.587   5.187 -0.2073 -0.3150  0.8239
 2696poe     o215068   1.234   0.554   5.139 -0.2113  0.4561  0.2963
 2696poe    c2315069   1.212   0.415   5.137 -0.0009  0.4254  0.0189
 2696poe    c2315070   1.066   0.368   5.138  0.2363 -0.3347  0.0636
 2696poe     o215071   1.005   0.417   5.256  0.4489  0.2974 -0.0861
 2696poe    c3115072   0.865   0.419   5.245  0.3248  0.4544  1.3231
 2697poe    c3115073   3.078   7.072   2.293  0.2462  0.2531  0.3877
 2697poe     o215074   3.177   7.114   2.202 -0.0674  0.3909  0.1078
 2697poe    c2315075   3.203   7.029   2.092 -0.6764  0.1702  0.1328
 2697poe    c2315076   3.100   7.022   1.978 -0.7296 -0.0087  0.1918
 2697poe     o215077   2.993   6.940   2.021 -0.0499 -1.0140  0.0120
 2697poe    c2315078   2.900   6.922   1.917 -0.6897  1.0878  0.1618
 2697poe    c2315079   2.842   6.782   1.888  0.0326  0.9647 -0.7494
 2697poe     o215080   2.730   6.762   1.971  0.0750 -0.4248 -0.9966
 2697poe    c2315081   2.659   6.647   1.933 -0.5715 -0.0723 -0.8713
 2697poe    c2315082   2.528   6.634   2.013 -0.1199 -0.5523 -0.2049
 2697poe     o215083   2.414   6.713   1.988 -0.0091 -0.3137  0.0491
 2697poe    c3115084   2.336   6.642   1.896 -0.3035 -0.2891  0.2764
 2698poe    c3115085   6.067   0.103   2.616 -0.5573 -0.2991 -0.4868
 2698poe     o215086   6.181   0.067   2.541 -0.3202  0.5790 -0.5588
 2698poe    c2315087   6.266   0.175   2.510  0.1475  0.4177  0.1401
 2698poe    c2315088   6.397   0.119   2.452  0.0810  0.5233 -0.1131
 2698poe     o215089   6.491   0.086   2.552  0.5904  0.5362 -0.5792
 2698poe    c2315090   6.609   0.017   2.519  0.4714 -0.3494  0.7601
 2698poe    c2315091   6.589  -0.134   2.499 -0.0513 -0.1323 -0.4452
 2698poe     o215092   6.542  -0.207   2.610  0.7812 -0.0071 -0.0039
 2698poe    c2315093   6.587  -0.341   2.610  0.4757 -0.1100  0.0377
 2698poe    c2315094   6.599  -0.405   2.749  0.2697  0.4585  0.3204
 2698poe     o215095   6.470  -0.431   2.801  0.0533 -0.3511 -0.5901
 2698poe    c3115096   6.473  -0.547   2.881 -0.0021 -0.2756 -0.4795
 2699poe    c3115097   5.026   2.884   5.435 -0.2229 -0.3869  0.3140
 2699poe     o215098   4.908   2.959   5.411  0.0499  0.1049  0.5021
 2699poe    c2315099   4.821   2.945   5.521 -0.5456 -0.3200 -0.0181
 2699poe    c2315100   4.795   3.082   5.586  0.5715  0.0227 -0.2645
 2699poe     o215101   4.753   3.163   5.479 -0.5883 -0.5306 -0.2458
 2699poe    c2315102   4.719   3.297   5.505  0.2070 -0.3131 -0.2991
 2699poe    c2315103   4.636   3.341   5.383 -0.1603 -0.1904 -0.0088
 2699poe     o215104   4.705   3.300   5.266  0.3353  0.0247  0.2043
 2699poe    c2315105   4.635   3.360   5.160 -0.5669  0.3628  0.9764
 2699poe    c2315106   4.709   3.331   5.028 -0.1446 -0.1742  1.3281
 2699poe     o215107   4.700   3.194   4.997  0.2431 -0.0038  0.4340
 2699poe    c3115108   4.723   3.172   4.860  0.3004 -0.3044  0.4895
 2700poe    c3115109   2.585   2.499   0.513 -0.0200 -0.0748 -0.3183
 2700poe     o215110   2.492   2.529   0.615 -0.1720  0.4799 -0.6155
 2700poe    c2315111   2.426   2.411   0.654 -0.3886  0.6520 -0.4642
 2700poe    c2315112   2.328   2.425   0.772  0.1772 -0.3864  0.1368
 2700poe     o215113   2.403   2.424   0.891  0.2053  0.2738  0.1278
 2700poe    c2315114   2.331   2.364   0.996 -0.6094 -0.2212 -0.7026
 2700poe    c2315115   2.421   2.350   1.120 -0.8665 -0.0540 -0.4946
 2700poe     o215116   2.498   2.453   1.178 -0.5799 -0.2396 -0.5442
 2700poe    c2315117   2.581   2.423   1.288 -0.4318  0.6133 -0.4227
 2700poe    c2315118   2.684   2.537   1.301  0.1991  0.0316 -0.2877
 2700poe     o215119   2.764   2.553   1.186  0.3702 -0.0558 -0.1821
 2700poe    c3115120   2.894   2.585   1.228  0.1462  0.5664  0.0496
 2701lim     li15121   0.189   4.236   2.761 -0.1247  0.1377 -0.3242
 2702lim     li15122   6.858   5.043   4.600 -0.0405  0.1016 -0.2149
 2703lim     li15123   0.372   0.265   2.020 -0.8734 -0.2317 -0.4710
 2704lim     li15124   5.452   3.684   0.247  1.0136 -0.4592  0.0649
 2705lim     li15125   5.901   4.598   1.268 -0.1972 -0.6994  1.9615
 2706lim     li15126   4.890   7.267   1.568  0.5466 -0.3697  0.0276
 2707lim     li15127   2.078   1.093   3.442  0.1008  0.0677 -0.1580
 2708lim     li15128   6.023   2.769   2.001  1.3828 -0.2406 -0.6649
 2709lim     li15129   4.306   3.284   1.929  0.3282 -0.0070  0.5990
 2710lim     li15130   7.032   3.501   5.501 -0.1611  0.1089  0.2452
 2711lim     li15131   6.850   2.645   2.747 -0.9238 -0.0818 -0.0167
 2712lim     li15132   4.234   0.205   5.900  1.0845 -0.1559 -0.0909
 2713lim     li15133   4.061   5.279   1.598  0.4976 -0.3309 -1.2446
 2714lim     li15134   2.278   3.229   3.129 -1.0502  0.3194 -0.1180
 2715lim     li15135   5.081   2.106   0.088 -0.0145  0.1008 -0.9214
 2716lim     li15136   2.345   0.928   7.065  0.3778 -0.0927  0.8953
 2717lim     li15137   5.181   2.216   6.828 -0.0174 -0.9127  0.2375
 2718lim     li15138   4.637   2.418   5.154 -1.9042 -0.5077 -0.0622
 2719lim     li15139   4.705   6.538   2.403  0.6208  0.0442  0.3061
 2720lim     li15140   4.802   2.395   4.616 -0.9645  1.2773  0.3737
 2721lim     li15141   2.121   5.986   0.243  0.9681  0.4704  0.6448
 2722lim     li15142   5.676   6.299   5.521 -0.2982  0.8128 -0.0379
 2723lim     li15143   1.491   5.153   3.801 -0.7846  0.6892 -1.4346
 2724lim     li15144   1.660   4.017   2.148 -0.3253 -1.0110 -0.3718
 2725lim     li15145   1.778   1.276   2.763 -0.2722 -0.0993 -0.8638
 2726lim     li15146   6.474   5.674   4.518  0.1847 -1.1449 -0.4847
 2727lim     li15147   1.015   6.417   4.499  0.6749  0.0063 -0.1407
 2728lim     li15148   0.622   3.508   5.210 -0.1878 -0.8757 -0.4090
 2729lim     li15149   0.585   5.399   3.813  0.7094  0.1551  0.5508
 2730lim     li15150   1.526   6.596   2.909 -1.7144 -0.9510 -0.2498
 2731lim     li15151   7.191   4.477   3.653 -0.2500 -0.6234 -0.1716
 2732lim     li15152   2.261   3.873   2.818 -2.1180  0.6868  0.7718
 2733lim     li15153   6.371   3.303   4.380  0.4569 -0.3990 -0.7818
 2734lim     li15154   6.118   3.152   6.168 -0.0974 -0.1717 -0.0472
 2735lim     li15155   5.254   0.024   5.769  0.4712 -1.0181 -0.0074
 2736lim     li15156   6.397   6.114   0.404 -0.7529 -1.2119 -0.7948
 2737lim     li15157   2.867   5.000   5.019  0.6358 -0.0999  0.8100
 2738lim     li15158   2.520   5.920   2.991 -0.8528 -0.6434 -0.9348
 2739lim     li15159   6.518   5.121   7.053  0.5322 -0.2097 -0.4561
 2740lim     li15160   5.503   1.245   4.912  0.5601  0.5319 -0.4968
 2741lim     li15161   2.892   0.274   1.410  0.4503  0.2979 -0.1538
 2742lim     li15162   5.960   0.569   0.463  0.3592  0.7435  0.7885
 2743lim     li15163   0.881   5.761   0.125 -0.0664  1.1762 -0.6231
 2744lim     li15164   3.465   0.352   2.130 -0.3601 -0.5773 -0.3302
 2745lim     li15165   0.095   2.386   0.747 -0.2999 -0.4777 -1.1276
 2746lim     li15166   1.549   4.622   7.073  0.1028 -0.5857  0.1099
 2747lim     li15167   3.378   3.767   2.267  0.1395  0.4022  0.1091
 2748lim     li15168   0.683   6.332   0.657  0.7378  0.1497 -0.1760
 2749lim     li15169   1.703   4.630   1.043  0.9616  0.7511  0.1303
 2750lim     li15170   4.479   5.654   2.861 -1.2041 -0.2612  1.0368
 2751lim     li15171   0.641   3.807   4.468  1.0871 -0.4807  0.4779
 2752lim     li15172   6.165   1.091   7.017 -0.1158  0.8873  0.4084
 2753lim     li15173   3.972   1.952   5.604  0.5795 -0.1122 -0.3426
 2754lim     li15174   0.721   3.754   2.178  0.9885 -0.0848 -0.3310
 2755lim     li15175   5.823   0.396   1.309  1.0561  0.7583  0.5984
 2756lim     li15176   4.093   5.663   0.355  0.5002  0.1373  0.3838
 2757lim     li15177   4.319   5.070   5.858 -1.6013 -0.5482  1.6153
 2758lim     li15178   5.495   2.685   5.369 -0.4515  0.9726  1.4096
 2759lim     li15179   5.272   1.697   2.922 -0.6772  0.1287  0.4613
 2760lim     li15180   4.569   1.680   6.681  0.1593 -0.2849  0.4326
 2761lim     li15181   1.636   6.180   3.758 -0.0035  0.3759  1.2291
 2762lim     li15182   7.256   2.426   4.124  0.7282  0.9228  0.4532
 2763lim     li15183   6.628   1.282   4.941 -0.0046 -0.7218  0.2985
 2764lim     li15184   5.003   5.056   1.832  1.1326  0.3296  0.8334
 2765lim     li15185   0.386   2.184   3.481  0.4419 -0.3564  1.2380
 2766lim     li15186   6.307   5.164   0.987 -0.4056  0.6794  0.1368
 2767lim     li15187   1.425   2.526   3.324 -0.1626 -0.0081  0.5630
 2768lim     li15188   2.249   2.797   6.008  0.9781  0.3469  0.7999
 2769lim     li15189   4.159   4.855   7.124 -0.7819  1.1065  0.3285
 2770lim     li15190   2.159   0.109   4.184  0.0381 -0.6749 -0.2495
 2771lim     li15191   6.936   0.716   6.706 -0.4445  0.5747 -0.4625
 2772lim     li15192   4.720   2.822   4.301  0.9357  0.6758  0.9008
 2773lim     li15193   5.131   5.129   5.744 -0.4974  0.3184 -0.4998
 2774lim     li15194   1.345   6.355   1.829  0.8939  0.1312 -0.1718
 2775lim     li15195   4.923   1.906   0.899  1.2231  1.2404 -0.4686
 2776lim     li15196   0.560   7.247   0.633 -1.3488 -0.8467  0.2751
 2777lim     li15197   1.419   0.252   6.147  0.0701 -0.4141  0.7412
 2778lim     li15198   1.840   4.224   3.835  0.6787  1.0995 -0.6927
 2779lim     li15199   3.214   0.945   1.062  0.8899  0.4227  0.7703
 2780lim     li15200   1.201   1.581   4.976 -1.3445 -0.3492  0.6266
 2781lim     li15201   2.101   0.533   4.839 -0.8996 -0.1811  0.4096
 2782lim     li15202   0.665   3.222   6.029  0.8359 -0.6018 -0.6699
 2783lim     li15203   3.279   3.103   4.854  0.8077 -0.4094 -0.8076
 2784lim     li15204   2.229   1.994   6.842 -0.5580 -1.1422 -0.0697
 2785lim     li15205   4.348   0.213   4.698  0.6924 -0.4376 -0.0927
 2786lim     li15206   2.135   6.645   1.108 -0.3922  0.4431 -0.5302
 2787lim     li15207   4.859   3.886   3.284 -0.2392  0.6367 -1.0299
 2788lim     li15208   2.571   2.620   3.859 -0.4946 -0.5655 -0.7080
 2789lim     li15209   6.867   5.495   6.153 -0.0437 -0.4184 -0.7499
 2790lim     li15210   4.485   5.791   3.789 -0.9039 -0.1430  0.4049
 2791lim     li15211   1.674   5.929   6.074 -0.6438  0.2493  1.2792
 2792lim     li15212   4.676   1.639   4.464  0.0789  0.0480  0.4784
 2793lim     li15213   2.262   3.662   7.130  0.5374 -0.3794 -0.2435
 2794lim     li15214   1.869   4.177   6.673  0.0341 -0.4075  0.3606
 2795lim     li15215   6.915   3.892   2.536  0.6335 -0.0332 -0.1886
 2796lim     li15216   6.159   4.213   4.821 -0.4087 -0.3225 -1.0662
 2797lim     li15217   0.937   4.244   3.598  0.5075  0.1348  0.3247
 2798lim     li15218   2.941   4.920   4.264  0.9292  1.5960  0.5354
 2799lim     li15219   0.354   4.893   0.706 -0.1259  0.8825 -0.3390
 2800lim     li15220   2.082   4.615   0.258  1.7244  0.2254  0.2178
 2801lim     li15221   6.626   2.409   6.900 -1.3309  0.3690  0.4168
 2802lim     li15222   3.462   5.394   6.443  1.0643 -0.2255 -0.7491
 2803lim     li15223   5.990   0.476   5.257 -0.1411  0.2098  1.1668
 2804lim     li15224   6.739   6.692   4.105 -1.0240  0.8429  0.8042
 2805lim     li15225   0.219   6.229   6.094  0.1676  1.0400 -0.3474
 2806lim     li15226   4.770   3.861   2.384 -1.0548  0.3785 -0.6728
 2807lim     li15227   2.841   5.292   6.236 -0.6701  0.1345  1.3251
 2808lim     li15228   1.380   3.937   0.527 -0.8274  0.7337 -0.2808
 2809lim     li15229   3.268   6.657   3.911  1.3301 -0.4394 -0.1833
 2810lim     li15230   0.444   1.502   2.757 -0.9176 -0.3691  0.3474
 2811lim     li15231   2.294   7.173   6.706  0.5495  1.1622 -1.0840
 2812lim     li15232   2.904   6.641   4.707  0.1308 -1.7972 -0.0423
 2813lim     li15233   2.034   1.725   6.264  0.0444  0.4622  0.4641
 2814lim     li15234   4.160   1.802   2.943  0.0897 -0.6103  0.0212
 2815lim     li15235   2.104   5.934   4.326  0.0999  1.2195 -0.0273
 2816lim     li15236   3.463   5.586   2.940 -0.4608  0.5580 -0.5356
 2817lim     li15237   0.228   5.735   0.088 -0.0292 -0.0731 -0.9717
 2818lim     li15238   4.647   0.466   2.129 -0.2875  0.4774 -0.6388
 2819lim     li15239   1.408   5.261   0.707  0.6791  0.2703 -0.2329
 2820lim     li15240   4.217   4.985   4.390 -0.2613 -0.6503  0.2105
 2821lim     li15241   6.439   6.304   6.819 -0.9360  0.0294 -0.7042
 2822lim     li15242   4.845   0.142   3.961 -0.7067  0.2328  0.0175
 2823lim     li15243   3.209   7.198   0.124  0.2199  0.2903 -0.6611
 2824lim     li15244   7.256   3.136   2.449 -1.1126  0.5012 -0.9152
 2825lim     li15245   3.007   4.999   7.202 -0.3174 -0.7059  0.8889
 2826lim     li15246   4.644   1.033   6.070 -0.9846  0.2742  0.1259
 2827lim     li15247   5.126   3.726   6.131  1.3946 -1.1726  0.2343
 2828lim     li15248   5.836   6.147   2.518 -0.3383  0.1683  0.3104
 2829lim     li15249   3.447   6.740   6.940 -0.4648 -0.2846 -0.4995
 2830lim     li15250   3.187   6.637   1.327 -0.6111 -0.0312 -0.0850
 2831lim     li15251   3.531   1.512   4.142 -0.3367 -0.5589 -0.5361
 2832lim     li15252   6.429   1.789   3.394  0.2755  0.6045 -0.1936
 2833lim     li15253   5.354   3.354   3.009  0.1243  0.3287  1.2451
 2834lim     li15254   6.488   3.830   3.772 -0.1542 -0.0256  0.1548
 2835lim     li15255   0.494   2.453   4.789  0.5652 -0.5249 -0.0224
 2836lim     li15256   1.666   1.135   1.369  1.1560  0.1923 -0.2945
 2837lim     li15257   2.739   1.447   2.473  0.2432 -0.0102  0.4783
 2838lim     li15258   5.975   5.090   4.025  0.7532 -0.0515 -0.7911
 2839lim     li15259   2.476   6.872   2.310 -0.2609  0.0479  0.6186
 2840lim     li15260   5.986   3.726   5.375  0.4286 -0.1196 -1.1111
 2841lim     li15261   0.041   0.924   6.416  0.8270  0.7578 -0.1588
 2842lim     li15262   2.115   5.862   2.739 -0.0061  0.4200  0.5037
 2843lim     li15263   7.198   2.098   5.890 -0.8398  0.4087  0.4748
 2844lim     li15264   3.447   6.958   5.956 -0.4875 -0.5130 -1.2740
 2845lim     li15265   3.527   6.655   2.795 -0.3757 -0.2770  0.8389
 2846lim     li15266   2.204   0.624   1.126 -0.7984  1.4018  0.4384
 2847lim     li15267   5.127   2.527   1.928 -0.2932 -0.0013 -0.1039
 2848lim     li15268   0.925   2.008   2.561 -1.0946  1.9436 -0.3090
 2849lim     li15269   1.064   5.386   5.048  0.5102 -0.5156  0.2225
 2850lim     li15270   7.104   1.995   1.289 -0.1300 -0.6095 -0.1761
 2851lim     li15271   2.275   2.597   2.410 -0.1321  0.1104 -0.1436
 2852lim     li15272   5.938   4.843   6.432 -0.0880  0.7717 -0.8312
 2853lim     li15273   3.097   3.372   6.015 -0.9577 -0.0822 -0.9626
 2854lim     li15274   3.236   2.587   2.736 -1.1789 -0.1016  0.0812
 2855lim     li15275   1.651   3.477   5.895 -0.6404 -0.5182 -0.2914
 2856lim     li15276   3.055   5.100   2.263 -0.1233  0.2437  0.3449
 2857lim     li15277   4.639   6.832   5.694  0.0269  0.2777 -0.3613
 2858lim     li15278   7.263   6.503   3.040  1.0918  0.0949  0.1545
 2859lim     li15279   5.477   6.293   3.610  0.9287  0.4054  0.6932
 2860lim     li15280   7.053   7.224   1.904  0.3262 -0.0177  0.0406
 2861lim     li15281   4.541   3.934   6.823  0.5273  0.5527 -2.1415
 2862lim     li15282   4.842   2.901   1.624 -0.3774  0.2466 -1.2575
 2863lim     li15283   2.503   6.021   5.171 -0.8878 -0.3029  0.1856
 2864lim     li15284   3.203   6.300   3.192  0.6137 -0.0947  0.4104
 2865lim     li15285   4.234   4.501   3.767 -0.5408  0.4390  0.3702
 2866lim     li15286   1.408   1.254   0.109  1.0612 -0.0654  0.7163
 2867lim     li15287   0.577   6.424   4.363 -0.4587  1.2640  1.2701
 2868lim     li15288   0.962   3.703   6.909 -0.0860  1.0428 -0.2575
 2869lim     li15289   2.182   2.402   3.014 -0.0315  0.3796 -0.0277
 2870lim     li15290   6.038   1.709   6.067  1.0635 -0.5851 -0.3366
 2871lim     li15291   5.786   1.049   3.688  0.6256  0.0074  0.0491
 2872lim     li15292   0.735   4.209   0.983 -0.1278  0.0854 -0.9965
 2873lim     li15293   5.383   1.043   3.943  0.6033  0.0633  1.0276
 2874lim     li15294   1.827   1.076   4.094 -1.6812  0.9710 -0.0708
 2875lim     li15295   3.007   1.176   6.877 -0.5087  1.2842  0.5798
 2876lim     li15296   0.109   0.936   1.466  0.3565 -1.1107 -0.6648
 2877lim     li15297   5.763   1.214   5.335 -0.3244  0.6430 -0.4238
 2878lim     li15298   2.633   1.108   5.891 -0.7213 -1.0673 -0.7547
 2879lim     li15299   6.307   0.115   6.791  0.1852  1.8159  0.5545
 2880lim     li15300   0.893   6.143   5.524 -0.3917 -1.0333 -0.9999
 2881lim     li15301   4.462   0.580   6.990 -0.9537  0.0269 -0.1839
 2882lim     li15302   5.627   5.953   6.501  0.1632 -0.6346  0.4623
 2883lim     li15303   6.656   6.776   4.910  0.7701 -1.0919  0.6609
 2884lim     li15304   7.129   6.063   0.247 -1.3948 -0.1453  0.6664
 2885lim     li15305   0.498   1.010   3.306  1.0383  0.3300 -1.0324
 2886lim     li15306   6.878   7.250   0.333  0.1922 -0.5180 -0.2194
 2887lim     li15307   1.113   5.776   6.692 -0.0675 -0.5345 -0.8589
 2888lim     li15308   7.181   5.842   1.686  0.0273  0.4562 -0.8611
 2889lim     li15309   2.423   6.790   4.582  0.8707  0.0468  0.6286
 2890lim     li15310   7.151   2.809   5.641 -0.5551 -0.0456 -0.5224
 2891lim     li15311   5.739   6.876   4.849  0.6669  0.7020 -1.0488
 2892lim     li15312   6.129   6.099   1.079 -0.1642 -0.2809  0.1902
 2893lim     li15313   1.453   4.589   3.018 -0.2376 -0.3761 -0.4930
 2894lim     li15314   1.182   0.180   2.697 -0.8594  0.0159 -0.2440
 2895lim     li15315   3.052   0.042   6.215  0.7190  0.7762  0.2792
 2896lim     li15316   6.728   6.283   1.438 -0.0917  0.0041  0.3622
 2897lim     li15317   3.293   2.529   6.021 -0.4291  0.3974  0.1773
 2898lim     li15318   3.753   1.101   6.468  0.4820 -0.8524 -0.8822
 2899lim     li15319   6.422   2.385   5.612  0.8955 -0.4532  0.0525
 2900lim     li15320   0.732   3.138   3.471 -0.2003  0.3577 -0.4471
 2901lim     li15321   0.913   5.113   1.987  0.2307  0.2981  1.2517
 2902lim     li15322   5.703   6.274   0.330 -0.6497 -0.3850 -0.2492
 2903lim     li15323   4.739   3.058   0.412 -0.5089 -0.1131  0.1484
 2904lim     li15324   1.451   1.575   2.164 -0.4034 -0.5368  0.1472
 2905lim     li15325   3.131   1.667   5.597 -0.0947 -0.6884 -1.0829
 2906lim     li15326   6.972   0.531   3.202 -0.6188  0.2548 -0.9169
 2907lim     li15327   3.999   3.573   2.571  0.1582  0.9415  0.6535
 2908lim     li15328   5.319   2.965   6.534 -0.8761  0.2606 -0.3474
 2909lim     li15329   3.018   0.737   4.898 -0.9206 -0.6461 -0.4390
 2910lim     li15330   6.570   6.884   0.830 -0.0073 -1.0072 -0.3298
 2911lim     li15331   1.240   2.861   6.526 -0.5810  0.8736  0.8026
 2912lim     li15332   2.549   3.727   6.013  0.3106  0.0255  0.7440
 2913lim     li15333   5.993   4.315   7.199  0.5146 -0.8514  0.1121
 2914lim     li15334   5.553   2.114   3.921 -0.3210 -0.2569  1.8507
 2915lim     li15335   3.047   6.164   0.046  0.4975 -0.7878 -1.5847
 2916lim     li15336   2.084   2.933   0.618 -0.8455  0.3936 -0.6091
 2917lim     li15337   2.350   4.550   1.000 -0.0023  0.0408  0.8430
 2918lim     li15338   1.250   4.672   4.463 -0.3603 -0.6704  0.6449
 2919lim     li15339   3.773   5.485   3.762 -0.6115 -0.7139  0.2687
 2920lim     li15340   1.530   7.166   5.038 -1.0936  0.7185 -0.8801
 2921lim     li15341   6.753   6.776   6.870  0.3233 -0.4481  0.9154
 2922lim     li15342   5.607   2.885   4.588  0.2105 -0.5644 -1.0013
 2923lim     li15343   3.658   5.408   4.928  0.0961 -0.2826  0.6717
 2924lim     li15344   7.230   1.170   4.171 -0.1133  0.0024  1.0006
 2925lim     li15345   0.247   6.846   6.562  0.5171  0.4504  0.1176
 2926lim     li15346   2.908   0.536   3.465 -0.2438  0.6534 -0.0573
 2927lim     li15347   3.500   3.248   2.960 -1.0927  0.6094 -0.5615
 2928lim     li15348   2.864   2.671   5.759  0.0698  0.3705  0.5283
 2929lim     li15349   5.707   4.636   3.908  0.4852  1.0602  0.1305
 2930lim     li15350   0.238   0.780   2.541 -0.1087  0.7706  0.5628
 2931lim     li15351   2.559   3.732   0.538  0.2134 -0.2461 -0.1227
 2932lim     li15352   3.415   2.882   1.196  1.0668 -0.0932 -0.1048
 2933lim     li15353   3.398   2.029   4.560  0.3731  0.0557 -0.5282
 2934lim     li15354   1.762   2.353   1.487  0.4517 -1.0447  0.6572
 2935lim     li15355   5.603   6.442   1.752 -0.0900 -0.2584  0.4652
 2936lim     li15356   2.198   5.079   4.104  0.9277 -0.0080  1.2204
 2937lim     li15357   7.079   1.910   4.889  0.4163  0.9858 -0.1749
 2938lim     li15358   4.818   6.542   1.273 -0.1421 -0.0378  0.3600
 2939lim     li15359   3.539   5.864   7.080  0.1671  0.0919 -0.4678
 2940lim     li15360   2.491   0.842   1.985  0.1791 -0.0728 -0.9601
 2941lim     li15361   7.155   4.330   4.536 -0.0989  0.6622  0.0422
 2942lim     li15362   5.397   3.617   1.027 -0.5566  0.1749 -0.3023
 2943lim     li15363   3.566   4.570   3.079  1.9302 -0.6816 -0.1143
 2944lim     li15364   3.052   4.695   5.678 -0.4910 -1.5459  0.6998
 2945lim     li15365   0.459   1.580   5.559 -1.1368  1.2109  0.0461
 2946lim     li15366   4.321   7.110   0.724  0.2119 -0.1704  0.2060
 2947lim     li15367   6.046   3.358   2.241  0.0214 -0.2205 -0.2983
 2948lim     li15368   3.806   6.570   0.501  0.4621  0.2723 -0.5078
 2949lim     li15369   0.182   1.316   5.888  1.0729  0.3867 -0.3170
 2950lim     li15370   3.867   2.116   6.606 -0.7324  0.9752  0.4412
 2951lim     li15371   2.976   5.888   5.337  0.7646  0.0233  0.5122
 2952lim     li15372   6.512   4.132   4.261  0.6754  0.1545  0.3690
 2953lim     li15373   2.540   2.772   0.883  0.0800 -1.1186 -1.3346
 2954lim     li15374   4.070   1.145   1.877  0.3086 -0.7830 -0.5332
 2955lim     li15375   5.126   4.861   0.919  0.2346  1.1891 -0.9650
 2956lim     li15376   5.921   6.461   4.303  1.1072  1.0038 -0.1879
 2957lim     li15377   1.532   4.085   5.320  0.5868  2.3413 -0.2475
 2958lim     li15378   1.242   0.138   3.760  0.2355 -0.8745 -0.5944
 2959lim     li15379   4.561   6.022   1.785 -1.0781 -0.5481 -0.1403
 2960lim     li15380   1.464   1.993   0.109  0.3788 -0.7520  0.3327
 2961lim     li15381   4.103   6.702   4.984 -0.8588 -0.3827  0.5838
 2962lim     li15382   4.018   1.764   0.527  0.3646 -0.2722 -0.2091
 2963lim     li15383   7.167   3.245   3.650 -0.2023 -0.2400  1.1712
 2964lim     li15384   2.530   7.174   3.168  0.2562  0.1232 -0.1240
 2965lim     li15385   5.382   7.253   6.221 -0.5277  0.3345 -1.2485
 2966lim     li15386   4.157   6.346   3.455  0.1125  0.6516  0.0859
 2967lim     li15387   0.244   7.160   4.113  0.9580  0.8544  1.5577
 2968lim     li15388   0.484   5.565   1.461 -0.0332 -0.0994 -0.5602
 2969lim     li15389   4.072   2.299   1.431 -0.8932  0.1231  0.4149
 2970lim     li15390   6.100   5.856   5.747 -0.6332 -0.1846  1.1953
 2971lim     li15391   6.484   1.043   0.673 -0.3845 -0.2413  1.0402
 2972lim     li15392   4.266   2.509   0.729  0.1153  0.5689 -0.0551
 2973lim     li15393   6.720   6.056   3.597  0.2751 -0.8472  0.1317
 2974lim     li15394   7.023   5.036   6.777 -0.1324  0.9849 -0.2484
 2975lim     li15395   5.112   7.109   7.012 -0.3430 -0.4505 -0.1071
 2976lim     li15396   6.680   3.989   0.451  0.3792  0.0279 -1.1234
 2977lim     li15397   6.641   1.616   7.114  0.5663 -0.0886 -0.9359
 2978lim     li15398   5.423   6.970   2.561  0.9843  0.1105 -1.1377
 2979lim     li15399   2.853   6.513   5.950  1.2034  0.8576  0.0052
 2980lim     li15400   1.099   2.014   5.353  1.2191  1.0280  0.4095
 2981lim     li15401   2.815   4.081   1.976  0.1265  0.5311 -0.4105
 2982lim     li15402   6.860   4.338   1.830 -1.1028 -0.2625  0.4976
 2983lim     li15403   3.750   0.415   4.426  1.1215 -0.2123 -0.6188
 2984lim     li15404   0.070   0.507   0.880  1.1931 -0.2997 -0.4231
 2985lim     li15405   6.505   4.220   6.391  0.5134  0.8474  0.5722
 2986lim     li15406   1.895   0.887   0.076  0.7262  0.4497  0.7821
 2987lim     li15407   2.711   3.078   7.163  0.6097  0.4931 -0.2375
 2988lim     li15408   3.829   2.383   4.915  0.2141  0.9592  0.2529
 2989lim     li15409   6.664   1.545   5.665  1.2854 -0.0770  0.2727
 2990lim     li15410   3.728   0.680   5.449 -0.1388  0.4109  0.3352
 2991lim     li15411   2.951   5.791   3.964 -0.5982 -0.3219 -0.2639
 2992lim     li15412   2.515   5.955   1.410  1.0106 -0.5455 -0.4250
 2993lim     li15413   5.385   0.575   1.912 -0.0739  0.0428  0.7744
 2994lim     li15414   5.733   5.646   1.943  0.2336 -0.5594  0.4476
 2995lim     li15415   0.349   4.274   3.298 -0.0162 -1.5120  1.2647
 2996lim     li15416   1.452   0.926   2.792 -1.3790 -0.2610 -1.1021
 2997lim     li15417   4.300   2.191   2.054 -0.4088  0.8032 -0.0345
 2998lim     li15418   6.790   7.213   4.635 -1.6758  0.2993 -0.3794
 2999lim     li15419   6.355   2.953   0.389  0.2007  0.5459  0.3590
 3000lim     li15420   0.474   7.246   5.257 -0.6888  0.5484  1.0153
 3001lim     li15421   4.277   0.674   3.741  0.2087  0.3895  0.2892
 3002lim     li15422   3.449   2.939   3.755 -0.5174 -0.2689 -0.5387
 3003lim     li15423   5.918   5.635   4.826 -0.0911  0.0933 -0.2841
 3004lim     li15424   2.867   2.023   1.084  0.5009 -1.8769 -0.1557
 3005lim     li15425   0.931   6.834   7.069  0.1557 -0.5887 -0.4160
 3006lim     li15426   0.035   6.167   2.265 -1.9569 -0.0525  0.4834
 3007lim     li15427   0.601   1.811   1.058 -0.1115  0.7559 -0.2373
 3008lim     li15428   2.780   3.520   1.241 -0.9374 -1.4528 -0.4992
 3009lim     li15429   1.006   5.116   2.785  0.0414  0.0749 -0.6624
 3010lim     li15430   6.373   2.051   0.811 -0.0095  0.1323  0.1620
 3011lim     li15431   0.030   3.359   4.248 -0.6282 -0.4372  0.4075
 3012lim     li15432   6.528   5.327   3.469  0.2861 -0.0294  0.4280
 3013lim     li15433   1.538   3.618   1.386 -0.8272  0.2532 -1.2668
 3014lim     li15434   0.957   4.983   5.905  0.8748 -1.1238  0.0688
 3015lim     li15435   3.554   3.228   0.733 -0.7653 -0.2850 -1.7344
 3016lim     li15436   1.478   4.543   1.670 -0.5556 -0.5594  0.5300
 3017lim     li15437   2.205   1.652   5.155  1.0257  0.7467 -0.1530
 3018lim     li15438   4.808   1.317   2.066 -0.3809 -1.2023  0.6752
 3019lim     li15439   6.117   5.173   2.734 -0.0717  1.2339  0.8005
 3020lim     li15440   5.833   7.007   0.289 -1.1953 -0.1403  0.1994
 3021lim     li15441   0.314   3.864   0.613 -0.1802  0.4391  0.0122
 3022lim     li15442   4.076   6.190   4.535  0.6397 -1.2399 -0.6042
 3023lim     li15443   3.274   3.843   7.255 -1.4328  0.6597  0.4401
 3024lim     li15444   6.360   6.967   2.824 -1.5342 -1.0235  0.3499
 3025lim     li15445   2.745   7.116   0.796  0.6848 -0.1049  1.2549
 3026lim     li15446   0.811   2.777   2.907 -0.2404 -0.5019  0.0807
 3027lim     li15447   5.655   2.765   2.916  0.6087 -0.0277 -1.1499
 3028lim     li15448   5.421   0.980   6.112  0.7933 -0.6733 -0.1012
 3029lim     li15449   6.949   3.051   0.381 -1.4216  0.2179  0.5149
 3030lim     li15450   4.451   7.204   1.913 -0.2800  0.3727 -0.1881
 3031lim     li15451   1.338   1.802   0.919  1.2309  0.3452  0.4222
 3032lim     li15452   4.843   5.977   6.613  0.6429 -0.8321  0.0955
 3033lim     li15453   1.518   6.143   5.577  1.4158 -0.5317  1.3642
 3034lim     li15454   3.036   1.709   6.447 -0.4725  0.5783  0.6071
 3035lim     li15455   0.947   0.850   0.851 -1.1469  1.1848 -0.3831
 3036lim     li15456   1.464   3.265   2.396 -0.0053  0.4763 -0.3835
 3037lim     li15457   6.940   0.238   5.979 -0.2744  0.2433 -0.4518
 3038lim     li15458   1.660   0.998   5.607  0.0861 -0.8873  1.5559
 3039lim     li15459   5.740   0.376   3.156 -0.5632  0.6687 -0.0835
 3040lim     li15460   6.604   4.874   2.096  0.4710  0.5089  0.4435
 3041lim     li15461   4.673   3.539   4.221  0.5535  0.3245 -0.6063
 3042lim     li15462   3.784   5.606   0.970  0.2847 -0.3445  0.5214
 3043lim     li15463   7.160   6.140   5.298 -0.0660  0.7241  0.3358
 3044lim     li15464   4.878   5.155   6.560 -0.5889  0.5251  0.5574
 3045lim     li15465   2.485   5.045   3.313 -0.4552 -0.5003  1.1834
 3046lim     li15466   5.092   4.773   2.910  0.0519 -0.0480 -0.1322
 3047lim     li15467   0.470   4.896   6.912 -1.1940  0.1658 -0.3085
 3048lim     li15468   1.216   3.895   6.474  0.2448 -0.4742 -1.3246
 3049lim     li15469   3.051   3.574   4.058  0.6475 -0.2833 -0.1338
 3050lim     li15470   5.666   1.116   2.620 -0.9113  0.0145 -0.7539
 3051lim     li15471   0.374   1.246   0.531  1.6821  0.5748  0.4932
 3052lim     li15472   2.642   5.527   2.065 -0.2200  0.5783 -1.0368
 3053lim     li15473   2.367   0.184   5.392  0.9722 -0.5217  1.1939
 3054lim     li15474   5.477   6.875   0.906  1.0180  0.8649 -0.4648
 3055lim     li15475   5.831   4.008   2.415  0.1344 -0.1644 -0.3643
 3056lim     li15476   3.288   1.208   4.879 -0.3089  0.1590  1.1201
 3057lim     li15477   0.368   2.483   6.962  0.6225  0.5611  0.2844
 3058lim     li15478   5.893   7.063   3.492  0.5347 -0.5716 -1.3163
 3059lim     li15479   1.210   1.709   6.485 -0.1663 -0.1909 -0.1002
 3060lim     li15480   6.101   2.714   3.481  0.2564 -0.4992 -0.2089
 3061lim     li15481   6.315   6.725   5.852  0.3891  0.4546  0.0979
 3062lim     li15482   2.800   3.031   2.183  0.8362  0.6549 -0.4652
 3063lim     li15483   4.743   6.082   4.469 -0.6851 -0.0783  0.0405
 3064lim     li15484   2.086   2.381   4.938 -0.5547 -0.6693  0.9904
 3065lim     li15485   1.513   3.477   4.586 -0.5249  0.4794 -0.4021
 3066lim     li15486   3.623   1.131   3.289  0.8200  1.5856  1.3899
 3067lim     li15487   0.457   1.772   7.165  0.6035 -1.3953 -0.3281
 3068lim     li15488   7.097   4.320   5.314 -0.8619 -0.0496 -1.0312
 3069lim     li15489   2.182   0.072   2.696  0.5116 -1.2852 -0.1263
 3070lim     li15490   4.056   0.062   3.069  0.0980 -0.6987 -0.6266
 3071lim     li15491   1.065   0.386   5.737 -0.1828  0.6079 -0.3797
 3072lim     li15492   0.857   3.143   0.469  0.6941  0.2725  0.3311
 3073lim     li15493   1.968   6.704   0.142  0.4366  0.3354  0.2869
 3074lim     li15494   1.464   2.362   5.791  0.3834  0.9829 -1.1045
 3075lim     li15495   0.880   7.204   1.114 -1.6100  0.1499 -1.3350
 3076lim     li15496   6.730   5.331   5.533  0.3896 -0.6178 -0.5226
 3077lim     li15497   5.286   0.201   4.497 -0.1374 -0.2818  0.2145
 3078lim     li15498   1.687   6.802   6.151 -0.4310  0.8526 -0.7036
 3079lim     li15499   4.012   6.799   3.953  0.8070 -0.4845  0.7343
 3080lim     li15500   6.889   7.088   3.089 -0.9960  0.0535  0.3193
 3081lim     li15501   7.240   5.352   5.299  0.3532 -0.8631  0.4162
 3082lim     li15502   4.674   1.017   5.367 -0.1823 -0.4916  0.3078
 3083lim     li15503   6.830   5.766   2.688 -0.0383  0.0966 -1.3985
 3084lim     li15504   5.192   2.050   6.070  0.0085 -0.2310 -1.1620
 3085lim     li15505   3.754   2.324   3.673  0.3387 -0.6211 -0.5833
 3086lim     li15506   6.987   3.598   1.470 -0.3150  0.1858  0.9355
 3087lim     li15507   0.576   2.158   1.975 -0.4179  0.6692  1.1641
 3088lim     li15508   6.787   1.573   2.432 -0.0554 -0.4377  0.3238
 3089lim     li15509   0.403   6.093   3.923 -0.8144 -0.0285  0.4660
 3090lim     li15510   5.958   1.160   1.494 -0.6740  0.9582 -0.8669
 3091lim     li15511   4.084   5.966   5.593  0.3189  0.0042 -0.6545
 3092lim     li15512   5.543   3.470   3.619  0.8711 -0.4803 -0.4419
 3093lim     li15513   1.152   2.762   5.279 -0.0345 -0.3505 -0.5326
 3094lim     li15514   2.440   4.460   4.609  1.3892 -0.5063  0.0833
 3095lim     li15515   6.491   0.538   3.998  0.1943  0.3836 -0.0211
 3096lim     li15516   5.175   1.125   7.147  0.2057  0.5189  0.1693
 3097lim     li15517   7.041   2.853   1.661 -0.5793  0.3389 -0.5402
 3098lim     li15518   0.488   0.728   6.968 -1.3725 -0.8048  0.5624
 3099lim     li15519   6.432   6.699   2.066 -0.5096  0.1953  0.0473
 3100lim     li15520   3.780   2.837   6.791  0.3255  0.4695 -0.1024
 3101lim     li15521   6.484   2.873   4.923 -0.4850  1.2427 -0.4256
 3102lim     li15522   7.125   2.035   3.112 -0.1719  2.0351  0.2103
 3103lim     li15523   5.318   5.221   3.336 -0.2646 -0.3402 -0.3030
 3104lim     li15524   1.749   0.924   6.623 -0.0314  0.2881  1.1385
 3105lim     li15525   5.737   6.918   6.602 -0.4627 -1.0256 -1.2428
 3106lim     li15526   3.787   4.895   0.356 -0.0929  0.1566 -0.3488
 3107lim     li15527   4.730   5.969   0.427  0.1155  0.4846 -0.4832
 3108lim     li15528   4.474   1.356   4.877  0.3494  0.0182 -0.0562
 3109lim     li15529   2.061   1.783   0.567  0.6360  1.1407  0.0497
 3110lim     li15530   5.707   5.867   3.336 -0.1811 -0.7148 -0.7550
 3111lim     li15531   2.172   3.471   5.060  0.6604  0.1888 -0.1510
 3112lim     li15532   2.666   5.338   0.704 -1.0380 -0.9782 -0.6369
 3113lim     li15533   4.104   3.009   6.201 -0.2071 -0.2408 -0.6703
 3114lim     li15534   5.173   4.671   7.013 -0.8727 -0.1287  0.1166
 3115lim     li15535   2.723   4.237   6.529 -0.2625  0.6248 -1.5551
 3116lim     li15536   4.392   3.914   1.117 -1.4946 -0.2258  1.1287
 3117lim     li15537   2.995   2.268   1.900 -0.6157  1.2524 -0.1869
 3118lim     li15538   5.828   1.935   1.499  0.4518  1.6841  0.5463
 3119lim     li15539   5.115   1.215   1.253 -1.0633  0.2708 -0.4607
 3120lim     li15540   0.791   1.160   1.728  1.1015  0.0056  0.0859
 3121lim     li15541   1.387   0.586   1.596 -0.2926 -0.3441  0.1625
 3122lim     li15542   7.065   4.112   6.258  0.2661 -0.2090  1.3613
 3123lim     li15543   5.377   5.325   4.884  0.0043 -0.0815  0.8479
 3124lim     li15544   5.295   4.251   1.830  0.1497  0.5417 -1.3098
 3125lim     li15545   6.160   0.568   6.346 -1.3307 -0.9591 -0.0008
 3126lim     li15546   1.047   0.848   4.733 -0.2923  0.1272  0.4227
 3127lim     li15547   0.069   3.514   6.394  0.7051 -0.4025 -0.4543
 3128lim     li15548   6.714   1.866   3.973 -0.6232 -0.6405  0.1240
 3129lim     li15549   1.371   2.375   4.315 -0.8258 -0.6133 -0.2053
 3130lim     li15550   3.187   6.018   1.953 -0.9537  1.6363 -1.7789
 3131lim     li15551   6.267   4.313   3.218 -0.6074  0.3073 -0.6954
 3132lim     li15552   6.037   1.954   2.264  0.2205  0.8970  0.5704
 3133lim     li15553   4.406   6.525   6.671 -0.5390 -0.1159 -1.0952
 3134lim     li15554   1.524   0.134   1.976  0.4023 -0.2458 -0.0244
 3135lim     li15555   4.078   4.555   6.398 -0.8145 -0.6016  0.2845
 3136lim     li15556   3.478   4.305   3.500  0.5776 -0.1845  0.7366
 3137lim     li15557   2.974   1.474   0.034  0.6364  0.7299  0.4445
 3138lim     li15558   2.795   0.566   6.160  1.2700  0.8524  0.1078
 3139lim     li15559   0.832   1.579   3.966 -0.4243  0.0859  0.0195
 3140lim     li15560   7.207   6.828   1.243 -0.3488 -1.1078  0.5588
 3141lim     li15561   1.203   6.106   2.710 -0.2664  0.4130  0.0616
 3142lim     li15562   0.587   4.226   6.935  0.5717  1.2127 -0.3526
 3143lim     li15563   1.241   6.542   3.394  0.0644 -0.6420  1.2068
 3144lim     li15564   4.814   3.145   5.311 -0.6924 -0.7192 -1.0886
 3145lim     li15565   1.265   0.297   0.046 -0.6206  0.0621 -0.0468
 3146lim     li15566   4.629   4.134   0.231  0.3717  0.2001 -0.1387
 3147lim     li15567   3.829   6.347   2.207  0.8283  0.7707 -0.4018
 3148lim     li15568   0.685   2.446   6.200  0.5254 -0.6656 -0.0764
 3149lim     li15569   3.639   6.259   6.231  0.6415  0.4646  0.3749
 3150lim     li15570   4.209   3.210   3.546 -0.0308  0.8191 -0.8082
 3151lim     li15571   3.566   0.688   4.080 -0.5349 -0.9287 -0.3212
 3152lim     li15572   2.895   1.347   0.986  0.4905  0.0222 -0.5284
 3153lim     li15573   2.444   3.811   3.944 -0.5050 -0.4238 -0.2911
 3154lim     li15574   0.114   1.167   5.074  0.6386  0.2004  0.4918
 3155lim     li15575   4.668   0.380   2.869 -1.0816  0.2468  1.3187
 3156lim     li15576   3.662   0.207   1.090  0.1327 -0.8713 -0.3424
 3157lim     li15577   7.267   5.296   3.167  0.3399  0.3045  0.0881
 3158lim     li15578   5.969   3.864   1.193 -1.3756  0.4789  0.0777
 3159lim     li15579   5.635   5.729   7.037 -0.3708 -0.0960 -0.6977
 3160lim     li15580   3.671   3.323   6.287  0.0233  0.7264 -0.7136
 3161lim     li15581   3.385   1.447   1.977  0.0388 -0.1674 -1.0003
 3162lim     li15582   4.718   2.672   3.024  0.9757  0.2138 -0.3176
 3163lim     li15583   2.347   4.501   2.960 -1.0666 -0.9723  0.3750
 3164lim     li15584   4.568   7.097   0.033 -0.5322  0.0154  0.7686
 3165lim     li15585   3.508   3.834   4.307 -0.4340 -1.5798 -0.3008
 3166lim     li15586   3.610   4.287   5.230  0.5364 -1.0745 -0.6149
 3167lim     li15587   5.937   3.351   7.267 -0.1975 -1.1289 -0.3405
 3168lim     li15588   2.894   1.570   3.299 -0.8156 -0.2684 -0.4414
 3169lim     li15589   4.919   2.009   2.214 -0.6914 -0.7620  0.1357
 3170lim     li15590   0.431   5.273   4.651  0.2148  0.0844  0.6681
 3171lim     li15591   0.754   2.885   1.975  0.4252  0.0034 -1.2961
 3172lim     li15592   1.753   2.732   2.193  0.0848 -0.1201  0.3392
 3173lim     li15593   1.425   5.372   1.600 -0.1191  0.1120  0.1817
 3174lim     li15594   4.925   5.860   0.963  0.0576 -0.2406 -0.7272
 3175lim     li15595   2.986   7.112   4.974 -0.2833  1.0034  0.1155
 3176lim     li15596   4.188   2.654   5.622 -1.5772  0.6823 -0.0873
 3177lim     li15597   7.124   5.931   4.473  0.3455  0.0802 -0.3271
 3178lim     li15598   2.027   6.635   5.052 -1.1788  0.0739 -0.6880
 3179lim     li15599   2.853   0.560   4.025  1.7752 -1.0435 -0.6640
 3180lim     li15600   0.900   6.624   1.786 -0.3326  0.2874 -1.1933
 3181lim     li15601   0.665   4.340   5.587  0.1326 -0.0924  0.1026
 3182lim     li15602   3.974   4.640   2.640 -0.0918 -0.4345  1.2860
 3183lim     li15603   5.892   2.836   1.407  1.1937  0.0779  0.8802
 3184lim     li15604   2.216   5.313   6.640 -0.4025 -0.2791 -0.1003
 3185lim     li15605   3.483   2.491   0.288 -0.7717  0.8736 -0.9341
 3186lim     li15606   2.288   1.591   1.917 -0.5460  0.4803  0.0074
 3187lim     li15607   4.124   1.290   2.707  0.3585 -0.0527  0.0079
 3188lim     li15608   6.067   2.232   6.760 -0.7849 -0.4753  0.4926
 3189lim     li15609   2.073   4.934   2.327  0.4679 -0.1723 -0.4861
 3190lim     li15610   5.478   4.367   5.871  0.7081  0.7186  0.2927
 3191lim     li15611   5.847   2.231   0.452 -0.3860  0.5098  0.5233
 3192lim     li15612   0.810   0.659   6.363  0.7857 -0.4075 -1.3169
 3193lim     li15613   4.689   4.576   4.695 -0.1472 -0.4375 -0.1467
 3194lim     li15614   1.522   3.204   4.026 -1.1651  0.6222 -1.9739
 3195lim     li15615   0.933   1.601   4.607 -1.4374  0.0327 -0.0968
 3196lim     li15616   4.815   1.937   3.741 -1.7363 -1.1233  1.5536
 3197lim     li15617   2.083   2.304   3.963  0.9171 -0.2015 -0.6037
 3198lim     li15618   2.097   0.357   0.527 -0.2685  0.1213 -0.2683
 3199lim     li15619   6.906   0.617   5.197  0.4988 -0.1039 -0.1577
 3200lim     li15620   3.328   4.631   1.373  0.0202  0.3134 -1.0103
 3201lim     li15621   3.434   2.105   2.597  0.3230  0.2593 -0.9314
 3202lim     li15622   0.865   3.606   3.305 -0.6454 -0.7055 -0.6965
 3203lim     li15623   5.372   4.115   4.346  0.3849 -0.6340  0.9891
 3204lim     li15624   3.802   3.666   5.193 -0.6409 -0.4836  0.2107
 3205lim     li15625   2.688   3.254   4.811  0.6545 -0.3069  0.2967
 3206lim     li15626   4.440   3.225   7.197 -0.1080  0.5942 -0.2502
 3207lim     li15627   6.159   4.697   0.394 -0.7402 -0.4377  0.0159
 3208lim     li15628   2.378   6.334   3.652 -0.7025 -1.3094 -0.5099
 3209lim     li15629   3.880   1.726   1.309 -0.3958  0.7868 -0.2034
 3210lim     li15630   1.592   4.977   6.419 -1.0878 -1.0606 -0.1791
 3211lim     li15631   3.037   2.226   5.227  0.1491 -0.3601 -0.6058
 3212lim     li15632   6.911   4.814   0.648 -0.4616 -0.8194  0.2427
 3213lim     li15633   6.382   3.625   6.919 -0.5768  0.1315 -0.6393
 3214lim     li15634   5.885   1.938   4.739  0.0791 -0.7446 -1.3173
 3215lim     li15635   0.807   3.108   1.277  0.0343 -1.2943  0.8349
 3216lim     li15636   1.260   1.919   3.322  1.1347  0.1356 -0.1177
 3217lim     li15637   4.257   4.875   5.124  0.3925  0.5341 -1.1131
 3218lim     li15638   4.575   0.888   0.614  0.2117  0.2497  0.1811
 3219lim     li15639   5.162   3.730   5.117  0.2133  0.0134  0.5758
 3220lim     li15640   6.559   0.770   2.569 -0.4541  0.5719 -0.5962
 3221lim     li15641   1.423   6.672   0.891  1.1380 -0.5401 -1.2089
 3222lim     li15642   3.864   0.793   0.309  0.2889  0.0774 -0.1967
 3223lim     li15643   3.581   2.957   1.936 -0.1379  0.6566  0.0476
 3224lim     li15644   4.367   4.010   6.074  0.9421 -0.8687  0.0001
 3225lim     li15645   1.707   4.967   5.240 -0.0498 -0.3353 -0.8360
 3226lim     li15646   3.899   4.246   1.403 -0.5200  0.5127 -0.6360
 3227lim     li15647   4.106   6.696   1.150 -0.6106 -1.0348  0.8569
 3228lim     li15648   6.193   0.626   1.981  0.0973  1.2201  0.9630
 3229lim     li15649   5.763   4.739   5.415 -0.9690  0.0694  0.6015
 3230lim     li15650   3.724   0.491   7.079  0.1331 -0.0570 -0.3481
 3231lim     li15651   4.819   6.752   4.161  0.0817  0.1330 -0.3609
 3232lim     li15652   3.430   0.169   3.340 -0.0401  0.0003 -0.1365
 3233lim     li15653   1.713   5.593   1.121  0.3419  0.3911 -0.4223
 3234lim     li15654   1.726   2.911   7.153 -0.0516  0.2395  0.4109
 3235lim     li15655   5.354   4.981   0.415  0.2256  0.0395  0.2574
 3236lim     li15656   0.349   4.899   2.286  0.0384 -0.5031  0.0901
 3237lim     li15657   4.785   5.926   5.393  0.0395 -0.5397  0.4981
 3238lim     li15658   1.313   2.745   0.993 -0.2189  0.2344 -0.7901
 3239lim     li15659   7.080   3.307   6.979  0.8020  0.4559  1.4190
 3240lim     li15660   4.916   4.192   1.400  0.7653  0.2874 -0.3274
 3241ntf    cn115661   0.241   2.939   0.998  0.3101 -0.0381 -0.1015
 3241ntf    sn215662   0.401   3.006   0.943  0.3358  0.2186  0.2786
 3241ntf    nn315663   0.476   2.869   0.926 -0.4338 -0.1889  0.1208
 3241ntf    sn215664   0.490   2.794   0.789  0.3408 -0.1012  0.1484
 3241ntf    cn115665   0.586   2.650   0.845 -0.1520 -0.4057  0.2094
 3241ntf    fn415666   0.169   2.885   0.902  0.0481  0.1398 -0.0058
 3241ntf    fn415667   0.249   2.846   1.092  0.0138  0.0510  0.0109
 3241ntf    fn415668   0.173   3.037   1.056 -0.3530 -0.4211 -0.2261
 3241ntf    on515669   0.380   3.082   0.822 -0.0920 -0.1603  0.1109
 3241ntf    on515670   0.442   3.076   1.062  0.8574  0.1136  0.1636
 3241ntf    on515671   0.568   2.847   0.679 -0.0429  0.3393  0.0828
 3241ntf    on515672   0.366   2.728   0.757  0.1880  0.1790  0.1565
 3241ntf    fn415673   0.551   2.612   0.967 -0.0337  0.0205  0.3814
 3241ntf    fn415674   0.585   2.544   0.767  0.9272 -0.1817 -0.1208
 3241ntf    fn415675   0.713   2.677   0.871 -0.1330  0.0293 -0.3267
 3242ntf    cn115676   6.401   0.321   3.651  0.2709  0.3839  0.4588
 3242ntf    sn215677   6.221   0.311   3.631  0.3663 -0.2403 -0.1217
 3242ntf    nn315678   6.178   0.282   3.779 -0.0560 -0.0024 -0.1951
 3242ntf    sn215679   6.063   0.191   3.836  0.2371 -0.0259  0.3710
 3242ntf    cn115680   5.996   0.308   3.958 -0.3763  0.3299 -0.3018
 3242ntf    fn415681   6.468   0.323   3.537  0.2299 -0.0848  0.4236
 3242ntf    fn415682   6.434   0.428   3.721 -0.3092  0.8660  0.0063
 3242ntf    fn415683   6.442   0.219   3.724  0.3561  0.0251 -0.0819
 3242ntf    on515684   6.186   0.443   3.585 -0.3082 -0.3455  0.0684
 3242ntf    on515685   6.208   0.200   3.540 -0.3029 -0.0206 -0.3025
 3242ntf    on515686   6.104   0.083   3.922  0.7211 -0.3715 -0.2859
 3242ntf    on515687   5.951   0.167   3.748  0.1210 -0.1917  0.5625
 3242ntf    fn415688   5.950   0.412   3.890 -0.5710  0.3714 -0.1095
 3242ntf    fn415689   5.893   0.263   4.028  0.1638  0.2158  0.4263
 3242ntf    fn415690   6.091   0.352   4.038 -0.0306 -0.2931 -0.3616
 3243ntf    cn115691   4.624   0.545   0.027  0.2054  0.3291  0.0319
 3243ntf    sn215692   4.768   0.453  -0.033  0.0060 -0.0801  0.1778
 3243ntf    nn315693   4.817   0.557  -0.140 -0.3893  0.1542  0.2253
 3243ntf    sn215694   4.945   0.648  -0.131 -0.2214 -0.0098 -0.4633
 3243ntf    cn115695   5.085   0.535  -0.158 -0.0025  0.1218  0.1153
 3243ntf    fn415696   4.640   0.674  -0.001 -0.7556  0.5494  0.4469
 3243ntf    fn415697   4.517   0.512  -0.043  0.3961 -0.2778  0.0240
 3243ntf    fn415698   4.596   0.517   0.153  0.3314  0.4908  0.0958
 3243ntf    on515699   4.848   0.437   0.086  0.0920 -0.4374  0.0715
 3243ntf    on515700   4.706   0.337  -0.092 -0.2288 -0.0374  0.3407
 3243ntf    on515701   4.967   0.709  -0.003 -0.2004  0.2160 -0.5736
 3243ntf    on515702   4.958   0.746  -0.237 -0.4262 -0.0159 -0.4953
 3243ntf    fn415703   5.101   0.445  -0.062  0.0919 -0.1040 -0.1102
 3243ntf    fn415704   5.055   0.469  -0.269  0.5655 -0.1176  0.1039
 3243ntf    fn415705   5.198   0.598  -0.185  0.1050 -0.1477 -0.0624
 3244ntf    cn115706   2.619   1.367   2.845 -0.2316 -0.5190 -0.0341
 3244ntf    sn215707   2.528   1.315   2.697  0.0230  0.0894 -0.4064
 3244ntf    nn315708   2.380   1.356   2.729  0.1947 -0.0366  0.5654
 3244ntf    sn215709   2.323   1.502   2.739 -0.1962 -0.1766  0.3680
 3244ntf    cn115710   2.229   1.510   2.583 -0.0218  0.0018  0.2715
 3244ntf    fn415711   2.750   1.346   2.837 -0.0597  0.1847  0.7222
 3244ntf    fn415712   2.598   1.495   2.871 -0.2928 -0.4120 -0.5942
 3244ntf    fn415713   2.576   1.298   2.950  0.1165 -0.2389  0.2967
 3244ntf    on515714   2.591   1.385   2.588  0.1516  0.4881 -0.0772
 3244ntf    on515715   2.551   1.173   2.709 -0.1361  0.0774 -0.2483
 3244ntf    on515716   2.422   1.607   2.740 -0.1537 -0.1954 -0.7030
 3244ntf    on515717   2.215   1.504   2.834 -0.2520  0.7726  0.3004
 3244ntf    fn415718   2.135   1.603   2.586  0.3162  0.3534  0.1151
 3244ntf    fn415719   2.305   1.529   2.476 -0.2873  0.4478  0.1599
 3244ntf    fn415720   2.157   1.400   2.566 -0.3060  0.1906  0.2440
 3245ntf    cn115721   3.429   0.950   7.205  0.0057 -0.0482 -0.1277
 3245ntf    sn215722   3.390   0.928   7.381  0.0131  0.0646 -0.1113
 3245ntf    nn315723   3.360   0.774   7.384 -0.1620  0.1014  0.0576
 3245ntf    sn215724   3.465   0.657   7.393 -0.2707 -0.0146 -0.1735
 3245ntf    cn115725   3.460   0.601   7.566  0.0342 -0.0915 -0.1896
 3245ntf    fn415726   3.336   0.899   7.127 -0.0897 -0.0442 -0.0181
 3245ntf    fn415727   3.432   1.080   7.179  0.1570 -0.0565 -0.1488
 3245ntf    fn415728   3.544   0.897   7.168  0.2198  0.1937  0.1830
 3245ntf    on515729   3.508   0.966   7.455  0.0043 -0.2653  0.0776
 3245ntf    on515730   3.271   1.004   7.411  0.2399  0.0685  0.8100
 3245ntf    on515731   3.601   0.698   7.369 -0.3049 -0.0582 -0.4403
 3245ntf    on515732   3.429   0.533   7.328 -0.3765 -0.0499 -0.0490
 3245ntf    fn415733   3.490   0.693   7.658  0.3868  0.1141 -0.5063
 3245ntf    fn415734   3.340   0.551   7.589 -0.0325 -0.0155 -0.3758
 3245ntf    fn415735   3.549   0.504   7.580  0.2272  0.1588  0.3909
 3246ntf    cn115736   6.360   3.563   0.744  0.1022  0.2204  0.0031
 3246ntf    sn215737   6.237   3.488   0.855  0.3751 -0.0093  0.1503
 3246ntf    nn315738   6.284   3.340   0.878  0.2410 -0.1221 -0.2778
 3246ntf    sn215739   6.241   3.213   0.797 -0.3039 -0.0825 -0.0569
 3246ntf    cn115740   6.107   3.153   0.904 -0.1200 -0.4224 -0.0180
 3246ntf    fn415741   6.476   3.585   0.803  0.0405 -0.3291  0.3337
 3246ntf    fn415742   6.385   3.474   0.649  0.3239 -0.1372  0.3968
 3246ntf    fn415743   6.320   3.671   0.678  0.2796 -0.1786 -0.7685
 3246ntf    on515744   6.241   3.558   0.981 -0.3286  0.4527 -0.0820
 3246ntf    on515745   6.121   3.513   0.773  0.6291  0.1304 -0.1726
 3246ntf    on515746   6.354   3.123   0.804 -0.5595 -0.4002  0.0133
 3246ntf    on515747   6.179   3.222   0.667 -0.0030  0.1789 -0.1838
 3246ntf    fn415748   6.147   3.119   1.026  0.1019 -0.3773 -0.0776
 3246ntf    fn415749   6.008   3.239   0.916  0.6783  0.4720  0.2385
 3246ntf    fn415750   6.054   3.047   0.846  0.3990 -0.5434 -0.2737
 3247ntf    cn115751   6.931   6.371   6.278 -0.0312  0.1509  0.1980
 3247ntf    sn215752   7.080   6.430   6.364 -0.0093  0.3966 -0.0072
 3247ntf    nn315753   7.020   6.550   6.446 -0.1563  0.3379 -0.0280
 3247ntf    sn215754   7.051   6.704   6.434  0.2679  0.2447 -0.1391
 3247ntf    cn115755   6.933   6.767   6.311  0.3071  0.5265 -0.0325
 3247ntf    fn415756   6.830   6.346   6.359 -0.2706 -0.2773 -0.2239
 3247ntf    fn415757   6.883   6.453   6.186  0.8769  0.0322 -0.4034
 3247ntf    fn415758   6.962   6.258   6.216  0.3043  0.0294  0.5805
 3247ntf    on515759   7.117   6.328   6.459 -0.7175  0.6688  0.5732
 3247ntf    on515760   7.169   6.473   6.259 -0.3749  0.1504 -0.4197
 3247ntf    on515761   7.183   6.743   6.392  0.2685  0.0898 -0.2855
 3247ntf    on515762   7.008   6.774   6.552  0.6302 -0.1281  0.2190
 3247ntf    fn415763   6.810   6.745   6.355  0.5788 -0.1562  0.4084
 3247ntf    fn415764   6.948   6.896   6.288  0.5421  0.4223 -0.4735
 3247ntf    fn415765   6.948   6.701   6.197 -0.3687 -0.6017  0.5040
 3248ntf    cn115766   0.499   3.441   3.842  0.0916  0.2262  0.0293
 3248ntf    sn215767   0.402   3.287   3.846  0.1092  0.2163  0.0623
 3248ntf    nn315768   0.518   3.186   3.816 -0.6774 -0.6175 -0.2209
 3248ntf    sn215769   0.594   3.088   3.913 -0.2487 -0.0512  0.0189
 3248ntf    cn115770   0.505   2.933   3.881 -0.1533 -0.1120  0.0481
 3248ntf    fn415771   0.590   3.434   3.937  0.5733  0.1819 -0.4350
 3248ntf    fn415772   0.567   3.452   3.729  0.2694 -0.5204  0.0581
 3248ntf    fn415773   0.435   3.553   3.872  0.7713  0.6115  0.0592
 3248ntf    on515774   0.346   3.281   3.979 -0.0010  0.1498  0.0129
 3248ntf    on515775   0.313   3.293   3.733  0.2983  0.3360 -0.0810
 3248ntf    on515776   0.576   3.115   4.053 -0.2724 -0.1526  0.0348
 3248ntf    on515777   0.727   3.071   3.859 -0.1552  0.4902  0.0742
 3248ntf    fn415778   0.400   2.913   3.960  0.5034 -0.2505  0.9062
 3248ntf    fn415779   0.469   2.925   3.754 -0.1405 -0.4553  0.0662
 3248ntf    fn415780   0.589   2.833   3.903  0.5053  0.3148 -0.4613
 3249ntf    cn115781   1.162   7.079   3.227 -0.0595 -0.0474 -0.0978
 3249ntf    sn215782   1.296   7.037   3.343  0.0593  0.1763 -0.1548
 3249ntf    nn315783   1.421   7.037   3.247 -0.0127 -0.2882 -0.2515
 3249ntf    sn215784   1.531   6.932   3.208  0.2804 -0.1032  0.0746
 3249ntf    cn115785   1.661   6.979   3.327  0.1964 -0.3326  0.2591
 3249ntf    fn415786   1.187   7.199   3.180  0.2455 -0.1812 -0.2786
 3249ntf    fn415787   1.143   6.988   3.132  0.6200 -0.2752 -0.0225
 3249ntf    fn415788   1.048   7.088   3.295 -0.2325 -0.4691 -0.3224
 3249ntf    on515789   1.301   7.151   3.430 -0.1921 -0.1161  0.2460
 3249ntf    on515790   1.263   6.908   3.397 -0.1365 -0.0081 -0.6991
 3249ntf    on515791   1.585   6.955   3.077 -0.1710  0.1367 -0.0712
 3249ntf    on515792   1.495   6.796   3.239 -0.2101 -0.0101 -0.0740
 3249ntf    fn415793   1.634   6.951   3.453  0.0620  0.2204  0.3560
 3249ntf    fn415794   1.769   6.910   3.296  0.2221 -0.2117  0.0766
 3249ntf    fn415795   1.710   7.102   3.326  0.1153 -0.2969 -0.5044
 3250ntf    cn115796   3.687   0.565   3.663 -0.3939 -0.5836 -0.3491
 3250ntf    sn215797   3.763   0.646   3.807 -0.9891 -0.1859 -0.2529
 3250ntf    nn315798   3.827   0.775   3.745 -0.2531 -0.2254  0.4016
 3250ntf    sn215799   3.797   0.928   3.768  0.3106 -0.0287 -0.1404
 3250ntf    cn115800   3.963   0.992   3.731  0.4432 -0.1889  0.1744
 3250ntf    fn415801   3.641   0.443   3.685 -0.0186 -0.6984 -0.1861
 3250ntf    fn415802   3.582   0.635   3.622 -0.3243 -0.4349 -0.2772
 3250ntf    fn415803   3.775   0.558   3.565 -0.4389 -0.4059 -0.4031
 3250ntf    on515804   3.650   0.668   3.894 -0.8022  0.5028 -0.1779
 3250ntf    on515805   3.872   0.561   3.847 -0.1136  0.6358 -0.8512
 3250ntf    on515806   3.774   0.960   3.907  0.2506 -0.1886 -0.1133
 3250ntf    on515807   3.698   0.975   3.675  0.4625 -0.6618 -0.6279
 3250ntf    fn415808   3.962   1.123   3.715 -0.0268 -0.2836 -0.6311
 3250ntf    fn415809   4.041   0.962   3.834 -0.0549 -0.5736  0.4439
 3250ntf    fn415810   4.018   0.939   3.623  0.5908  0.0654  0.1251
 3251ntf    cn115811   4.700   1.588   5.155 -0.3044  0.0415  0.1213
 3251ntf    sn215812   4.596   1.733   5.193 -0.0534  0.2260  0.1084
 3251ntf    nn315813   4.631   1.833   5.077 -0.6705  0.2973 -0.0179
 3251ntf    sn215814   4.545   1.841   4.946  0.0114 -0.3898 -0.5143
 3251ntf    cn115815   4.415   1.952   5.008  0.6386 -0.0980  0.2969
 3251ntf    fn415816   4.700   1.561   5.026 -0.2129 -0.3804  0.2095
 3251ntf    fn415817   4.822   1.616   5.196 -0.2880  0.0985  0.0335
 3251ntf    fn415818   4.664   1.480   5.223  0.0414 -0.0954  0.0877
 3251ntf    on515819   4.460   1.689   5.210  0.0140 -0.0899 -0.1614
 3251ntf    on515820   4.652   1.770   5.320 -0.0124  0.9259 -0.1128
 3251ntf    on515821   4.479   1.725   4.892  0.3562 -0.5726 -0.5498
 3251ntf    on515822   4.609   1.926   4.848 -0.4888 -0.5982 -1.0292
 3251ntf    fn415823   4.314   1.963   4.923  0.3584 -0.4921  0.5735
 3251ntf    fn415824   4.353   1.920   5.121 -0.1513 -0.9122 -0.3569
 3251ntf    fn415825   4.469   2.070   5.030  0.0589  0.0901  0.7182
 3252ntf    cn115826   7.039   1.865   0.476  0.0447  0.5641  0.1356
 3252ntf    sn215827   7.103   1.739   0.590 -0.0731  0.3081 -0.0799
 3252ntf    nn315828   6.987   1.635   0.602  0.1906 -0.0198 -0.3319
 3252ntf    sn215829   6.945   1.519   0.505 -0.3969  0.2473 -0.4030
 3252ntf    cn115830   7.043   1.387   0.582 -0.4186  0.4134 -0.0878
 3252ntf    fn415831   6.918   1.899   0.517 -0.3210  0.3035 -0.6954
 3252ntf    fn415832   7.109   1.977   0.481 -0.0478  0.6466 -0.3789
 3252ntf    fn415833   7.015   1.825   0.352  0.4141 -0.1634  0.2933
 3252ntf    on515834   7.227   1.699   0.528 -0.0896 -0.2438  0.2406
 3252ntf    on515835   7.117   1.818   0.710  0.3287 -0.1367  0.1734
 3252ntf    on515836   7.001   1.527   0.372 -0.5657  0.3500 -0.4686
 3252ntf    on515837   6.809   1.472   0.516 -0.4681  0.3259 -0.9072
 3252ntf    fn415838   7.170   1.396   0.544 -0.2412  0.1986  0.4488
 3252ntf    fn415839   7.043   1.394   0.714  0.2548  0.0927 -0.0643
 3252ntf    fn415840   6.998   1.266   0.553  0.1566  0.1565  0.0590
 3253ntf    cn115841   4.188   3.263   5.015 -0.3235  0.4067  0.0507
 3253ntf    sn215842   4.187   3.266   5.197  0.6168  0.4853  0.0625
 3253ntf    nn315843   4.198   3.110   5.216  0.4821  0.4601 -0.0675
 3253ntf    sn215844   4.318   3.015   5.249  0.0266 -0.0784  0.0510
 3253ntf    cn115845   4.370   2.990   5.077 -0.3430  0.1324 -0.0920
 3253ntf    fn415846   4.197   3.387   4.968  0.0370  0.3703  0.0212
 3253ntf    fn415847   4.289   3.204   4.953  0.1979  0.8752  0.4398
 3253ntf    fn415848   4.086   3.200   4.959  0.0240  0.3726 -0.5541
 3253ntf    on515849   4.314   3.329   5.224  0.9001 -0.1471  0.2188
 3253ntf    on515850   4.063   3.332   5.229  0.0885 -0.3314 -0.2549
 3253ntf    on515851   4.275   2.887   5.300  0.8010 -0.4895 -0.3138
 3253ntf    on515852   4.433   3.072   5.316 -0.2122  0.0818  0.3281
 3253ntf    fn415853   4.414   2.865   5.065  0.3420  0.3600  0.0219
 3253ntf    fn415854   4.272   3.010   4.990 -0.0857 -0.1553 -0.4521
 3253ntf    fn415855   4.465   3.076   5.044 -0.5405  0.2911 -0.2497
 3254ntf    cn115856   6.377   5.330   1.512  0.1322  0.2943 -0.3423
 3254ntf    sn215857   6.468   5.301   1.666  0.1144  0.0553 -0.3765
 3254ntf    nn315858   6.376   5.190   1.728  0.3930  0.0535  0.0399
 3254ntf    sn215859   6.360   5.146   1.878 -0.0535 -0.0895 -0.0482
 3254ntf    cn115860   6.240   5.268   1.939  0.1433  0.0336  0.0930
 3254ntf    fn415861   6.248   5.356   1.525  0.0308 -0.3706  0.0385
 3254ntf    fn415862   6.437   5.422   1.438  0.7253  0.1218 -0.0770
 3254ntf    fn415863   6.368   5.220   1.439 -0.0358  0.1976 -0.1788
 3254ntf    on515864   6.594   5.250   1.618  0.6577  0.7371  0.2997
 3254ntf    on515865   6.449   5.430   1.727 -0.5177 -0.2362  0.0622
 3254ntf    on515866   6.476   5.166   1.961 -0.1204 -0.1948  0.0711
 3254ntf    on515867   6.292   5.021   1.904  0.2477 -0.2254  0.0917
 3254ntf    fn415868   6.269   5.395   1.918  0.0393 -0.0693 -0.6979
 3254ntf    fn415869   6.128   5.257   1.870  0.0046  0.0073  0.3226
 3254ntf    fn415870   6.205   5.251   2.066 -0.3899 -0.0879 -0.0687
 3255ntf    cn115871   0.841   1.404   2.226 -0.3496 -0.2528  0.1617
 3255ntf    sn215872   0.927   1.476   2.369  0.0845 -0.5187  0.0353
 3255ntf    nn315873   0.954   1.357   2.467 -0.1440 -0.7954 -0.2343
 3255ntf    sn215874   1.063   1.346   2.580 -0.2863  0.4260  0.0356
 3255ntf    cn115875   0.989   1.230   2.700  0.6669 -0.1838  0.0440
 3255ntf    fn415876   0.731   1.345   2.269 -0.6925  0.2569 -0.0072
 3255ntf    fn415877   0.803   1.508   2.153  0.5884  0.0695  0.1144
 3255ntf    fn415878   0.912   1.319   2.153 -0.2798  0.3237 -0.4600
 3255ntf    on515879   1.048   1.533   2.316  0.3355  0.0112  1.1614
 3255ntf    on515880   0.830   1.562   2.432 -0.5128 -0.6877 -0.6348
 3255ntf    on515881   1.075   1.468   2.656 -0.6157  0.2223  0.4167
 3255ntf    on515882   1.180   1.271   2.540 -0.6667  0.0713 -0.4186
 3255ntf    fn415883   1.079   1.183   2.785  0.5164 -0.5967 -0.0237
 3255ntf    fn415884   0.899   1.292   2.774  0.2387 -0.0835 -0.5544
 3255ntf    fn415885   0.920   1.132   2.645 -0.5773  0.8185 -0.2215
 3256ntf    cn115886   0.098   4.780   5.153 -0.2250 -0.0895 -0.2253
 3256ntf    sn215887  -0.042   4.846   5.247 -0.0622 -0.1588  0.0665
 3256ntf    nn315888  -0.026   4.787   5.392 -0.5621 -0.0029  0.1870
 3256ntf    sn215889  -0.006   4.869   5.524  0.0303  0.0930  0.0380
 3256ntf    cn115890   0.145   4.795   5.596 -0.0553 -0.1287 -0.0090
 3256ntf    fn415891   0.087   4.648   5.156  0.1686 -0.1197 -0.0536
 3256ntf    fn415892   0.105   4.831   5.030 -0.4507  1.0366  0.2142
 3256ntf    fn415893   0.213   4.800   5.215 -0.4968  0.3447  0.1359
 3256ntf    on515894  -0.042   4.989   5.225  0.1066 -0.1438  0.1676
 3256ntf    on515895  -0.153   4.784   5.178 -0.1973  0.1136  0.0366
 3256ntf    on515896  -0.121   4.857   5.610 -0.4243  1.5990 -0.3293
 3256ntf    on515897   0.030   5.008   5.509  0.2775  0.0523  0.2329
 3256ntf    fn415898   0.192   4.871   5.693  0.4134 -0.1195 -0.2409
 3256ntf    fn415899   0.107   4.686   5.660  0.0145  0.4459  1.0277
 3256ntf    fn415900   0.246   4.766   5.516 -0.3652 -0.0819 -0.4241
 3257ntf    cn115901   2.485   3.211   3.964 -0.1966  0.0171 -0.2598
 3257ntf    sn215902   2.548   3.216   3.793  0.0119 -0.2467 -0.1912
 3257ntf    nn315903   2.702   3.238   3.807 -0.0792  0.1494  0.1892
 3257ntf    sn215904   2.821   3.137   3.827 -0.1677  0.0314  0.1115
 3257ntf    cn115905   2.869   3.100   3.655 -0.4537  0.1249  0.0093
 3257ntf    fn415906   2.540   3.103   4.018  0.0135  0.2909  0.0773
 3257ntf    fn415907   2.528   3.316   4.032 -0.0358 -0.2779  0.0953
 3257ntf    fn415908   2.355   3.185   3.969 -0.1338 -0.1689  0.4762
 3257ntf    on515909   2.506   3.090   3.736  0.4340 -0.2873 -0.4167
 3257ntf    on515910   2.479   3.327   3.733  0.1839 -0.0465 -0.0195
 3257ntf    on515911   2.783   3.012   3.888  0.2945 -0.4594 -0.5789
 3257ntf    on515912   2.934   3.201   3.889 -0.0965  0.3643 -0.3527
 3257ntf    fn415913   2.987   3.042   3.638 -0.8000 -0.4717 -0.3888
 3257ntf    fn415914   2.787   3.010   3.604 -0.1044  0.0755 -0.4676
 3257ntf    fn415915   2.860   3.201   3.570 -0.4918 -0.0515 -0.1963
 3258ntf    cn115916   1.549   1.036   0.663  0.0788  0.3018 -0.3169
 3258ntf    sn215917   1.679   1.018   0.790  0.0019  0.3967 -0.2250
 3258ntf    nn315918   1.716   0.868   0.760 -0.1984  0.2618  0.1904
 3258ntf    sn215919   1.816   0.775   0.836  0.1391  0.2171 -0.3035
 3258ntf    cn115920   1.702   0.646   0.897  0.7121 -0.0548  0.2070
 3258ntf    fn415921   1.495   0.915   0.659  0.0039  0.3051  0.4487
 3258ntf    fn415922   1.455   1.123   0.696 -0.2144  0.1073 -0.6394
 3258ntf    fn415923   1.590   1.056   0.539  0.1467 -0.3701 -0.4094
 3258ntf    on515924   1.781   1.111   0.751  0.5078  0.1037  0.3875
 3258ntf    on515925   1.619   1.037   0.920  0.3216 -0.4622  0.0549
 3258ntf    on515926   1.874   0.836   0.953  0.6669  0.4956 -0.7051
 3258ntf    on515927   1.912   0.705   0.754 -0.1092 -0.5082  0.0143
 3258ntf    fn415928   1.624   0.604   0.799  0.5336  0.3687  0.1656
 3258ntf    fn415929   1.764   0.543   0.951  0.3466 -0.0968  0.5483
 3258ntf    fn415930   1.627   0.702   0.990  0.2684 -0.4410  0.0838
 3259ntf    cn115931   3.726   5.786   4.410 -0.3109 -0.3529 -0.2858
 3259ntf    sn215932   3.758   5.904   4.276 -0.0408  0.0092  0.0911
 3259ntf    nn315933   3.736   6.044   4.343 -0.2271  0.0315 -0.0188
 3259ntf    sn215934   3.605   6.117   4.390 -0.2607  0.1392 -0.2768
 3259ntf    cn115935   3.572   6.225   4.248 -0.6165  0.1691 -0.1724
 3259ntf    fn415936   3.818   5.781   4.506 -0.0303  0.0010 -0.5320
 3259ntf    fn415937   3.623   5.818   4.487  0.4284 -0.8290  0.9445
 3259ntf    fn415938   3.697   5.663   4.374 -0.0734 -0.5444  0.1645
 3259ntf    on515939   3.895   5.881   4.236 -0.0944 -0.6321  0.2691
 3259ntf    on515940   3.663   5.867   4.174  0.0017  0.2778 -0.0476
 3259ntf    on515941   3.627   6.214   4.495  0.4518 -0.1044 -0.1966
 3259ntf    on515942   3.484   6.040   4.397  0.1559 -0.4964 -0.0121
 3259ntf    fn415943   3.682   6.282   4.201 -0.1304 -0.5410  0.1067
 3259ntf    fn415944   3.530   6.151   4.147  0.0492 -0.5837  0.0939
 3259ntf    fn415945   3.477   6.316   4.263 -0.6289  0.1210  0.0456
 3260ntf    cn115946   1.004   6.919   0.729 -0.1743  0.0101 -0.0310
 3260ntf    sn215947   0.889   6.807   0.643  0.3759 -0.3153 -0.3510
 3260ntf    nn315948   0.877   6.871   0.500 -0.0131  0.4925  0.0375
 3260ntf    sn215949   0.964   6.853   0.370  0.2483  0.1892  0.2519
 3260ntf    cn115950   0.875   6.714   0.294  0.2658  0.2698  0.0859
 3260ntf    fn415951   1.120   6.944   0.670 -0.2544 -0.0706 -0.2249
 3260ntf    fn415952   0.961   7.042   0.750 -0.3369 -0.0717  0.1118
 3260ntf    fn415953   1.040   6.864   0.844  0.0186  0.1644 -0.0173
 3260ntf    on515954   0.956   6.680   0.642  0.1209 -0.4508 -0.2664
 3260ntf    on515955   0.764   6.828   0.712  0.5205  0.0379 -0.1922
 3260ntf    on515956   1.102   6.815   0.381  0.1478 -0.2071  0.1547
 3260ntf    on515957   0.934   6.956   0.273  0.2805 -0.1533 -0.1221
 3260ntf    fn415958   0.942   6.663   0.192  0.1998  0.4459 -0.0467
 3260ntf    fn415959   0.834   6.625   0.382 -0.5828  0.2376 -0.3329
 3260ntf    fn415960   0.760   6.740   0.233  0.0944  0.2660  0.4074
 3261ntf    cn115961   0.611   2.066   5.009 -0.4045 -0.0942 -0.5886
 3261ntf    sn215962   0.638   2.016   4.836  0.5024 -0.5273 -0.3306
 3261ntf    nn315963   0.731   2.133   4.787  0.5663 -0.1307  0.7073
 3261ntf    sn215964   0.885   2.127   4.760  0.5043  0.1485  0.2902
 3261ntf    cn115965   0.946   2.203   4.914  0.1442  0.9204  0.0594
 3261ntf    fn415966   0.660   1.980   5.097  0.6419  0.2101 -0.8627
 3261ntf    fn415967   0.652   2.187   5.043 -0.1139 -0.1853 -0.6128
 3261ntf    fn415968   0.483   2.071   5.043 -0.2884  0.1555 -0.1858
 3261ntf    on515969   0.686   1.882   4.856  1.0517 -0.2041  0.5954
 3261ntf    on515970   0.505   2.032   4.782  0.3876 -0.1438  0.0550
 3261ntf    on515971   0.921   2.228   4.663  0.0698 -0.1179 -0.1474
 3261ntf    on515972   0.955   2.001   4.755 -0.2938 -0.2662 -0.5132
 3261ntf    fn415973   1.078   2.204   4.924  0.1290 -0.2697  0.5593
 3261ntf    fn415974   0.918   2.332   4.922 -0.3752  0.8257 -0.2231
 3261ntf    fn415975   0.901   2.137   5.019  0.1905  0.4522 -0.2105
 3262ntf    cn115976   5.834   0.602   1.804 -0.3794  0.0697 -0.0674
 3262ntf    sn215977   5.811   0.756   1.710  0.2162  0.4947  0.4714
 3262ntf    nn315978   5.730   0.839   1.815  0.1481  0.3605  0.5252
 3262ntf    sn215979   5.574   0.860   1.823  0.1119  0.5114 -0.4674
 3262ntf    cn115980   5.557   0.950   1.980  0.0441  0.3081 -0.3579
 3262ntf    fn415981   5.862   0.495   1.731  0.4184 -0.0273  0.3691
 3262ntf    fn415982   5.937   0.609   1.886  0.0362 -0.4323 -0.5427
 3262ntf    fn415983   5.729   0.577   1.880 -0.2294 -0.5409 -0.0569
 3262ntf    on515984   5.945   0.804   1.689  0.3698 -0.1450 -0.0478
 3262ntf    on515985   5.742   0.718   1.589  0.6896  0.2457  0.2763
 3262ntf    on515986   5.500   0.742   1.860  0.7832  0.3565  0.4202
 3262ntf    on515987   5.517   0.945   1.721  0.2013 -0.0387 -0.9807
 3262ntf    fn415988   5.478   0.878   2.057  0.3856 -0.2974 -0.5672
 3262ntf    fn415989   5.670   0.967   2.047 -0.1141 -0.2386  0.0595
 3262ntf    fn415990   5.508   1.072   1.965 -0.3861  0.1776 -0.0503
 3263ntf    cn115991   1.599   2.362   0.633 -0.5697 -0.4294  0.2869
 3263ntf    sn215992   1.752   2.328   0.724 -0.3434 -0.0846  0.0403
 3263ntf    nn315993   1.696   2.327   0.871  0.1243 -0.4232  0.2180
 3263ntf    sn215994   1.738   2.408   0.999 -0.1238 -0.6257  0.4274
 3263ntf    cn115995   1.724   2.281   1.128 -0.0479 -0.2431  0.8150
 3263ntf    fn415996   1.559   2.488   0.643  0.6643 -0.0519  0.6230
 3263ntf    fn415997   1.608   2.335   0.503 -0.3099 -0.2587  0.2684
 3263ntf    fn415998   1.504   2.282   0.678 -0.6864 -0.0631  0.6968
 3263ntf    on515999   1.787   2.195   0.679  0.0315  0.1406 -0.3305
 3263ntf    on516000   1.839   2.432   0.677  0.1843 -0.5348  0.0064
 3263ntf    on516001   1.635   2.500   1.039  0.3556  0.2256 -0.2715
 3263ntf    on516002   1.876   2.448   1.006 -0.3165  0.0182  0.5910
 3263ntf    fn416003   1.606   2.222   1.141  0.3588 -1.2081  0.2221
 3263ntf    fn416004   1.805   2.177   1.110  0.2195  0.1328 -0.2082
 3263ntf    fn416005   1.753   2.333   1.246  0.4941  0.2309  0.4743
 3264ntf    cn116006   3.376   6.122   0.768  0.0705  0.1258 -0.2074
 3264ntf    sn216007   3.556   6.115   0.739  0.0379 -0.0764 -0.3658
 3264ntf    nn316008   3.558   6.026   0.610 -0.3445  0.1829 -0.5564
 3264ntf    sn216009   3.598   5.876   0.586 -0.4444  0.0527  0.0639
 3264ntf    cn116010   3.509   5.846   0.430 -0.1134  0.0126 -0.1171
 3264ntf    fn416011   3.305   6.144   0.658 -0.1687 -0.1729 -0.1124
 3264ntf    fn416012   3.340   6.000   0.803  0.7775 -0.0137  0.0642
 3264ntf    fn416013   3.338   6.211   0.858  0.2991 -0.0879  0.1014
 3264ntf    on516014   3.586   6.253   0.707  0.0263  0.1039  0.3788
 3264ntf    on516015   3.611   6.057   0.859 -0.3308  0.0947 -0.1085
 3264ntf    on516016   3.533   5.782   0.674 -0.0125 -0.3350 -0.0302
 3264ntf    on516017   3.733   5.849   0.544 -0.3639 -0.0358  0.3775
 3264ntf    fn416018   3.381   5.824   0.454 -0.1871  0.4811 -0.0888
 3264ntf    fn416019   3.513   5.941   0.338  0.9287  0.1184  0.0274
 3264ntf    fn416020   3.549   5.734   0.371 -0.0127 -0.1544  0.2591
 3265ntf    cn116021   2.928   1.862   2.216 -0.4547  0.0562 -0.4609
 3265ntf    sn216022   2.980   1.698   2.158  0.1299  0.0959 -0.0643
 3265ntf    nn316023   2.914   1.685   2.016 -0.0436  0.0481  0.0202
 3265ntf    sn216024   2.790   1.601   1.969 -0.0757 -0.0021  0.1941
 3265ntf    cn116025   2.828   1.605   1.791 -0.1891  0.1675  0.1725
 3265ntf    fn416026   2.948   1.944   2.114 -0.0073  0.2698 -0.2071
 3265ntf    fn416027   2.798   1.856   2.241 -0.3262 -0.3477  0.1451
 3265ntf    fn416028   2.981   1.907   2.329 -0.7466 -0.0230 -0.2909
 3265ntf    on516029   3.122   1.718   2.161  0.0816  0.4181  0.0512
 3265ntf    on516030   2.923   1.611   2.258 -0.0787  0.2038 -0.0885
 3265ntf    on516031   2.662   1.667   1.981  0.0660  0.2424  0.3708
 3265ntf    on516032   2.794   1.464   2.013  0.0746  0.0246  0.2634
 3265ntf    fn416033   2.870   1.724   1.752 -0.4247  0.0592 -0.4189
 3265ntf    fn416034   2.929   1.523   1.766 -0.5043 -0.3291  0.5184
 3265ntf    fn416035   2.730   1.562   1.713  0.2553 -0.7006  0.0760
 3266ntf    cn116036   2.172   4.813   6.178 -0.1126  0.0037  0.0096
 3266ntf    sn216037   2.091   4.973   6.209 -0.1565  0.0527 -0.3494
 3266ntf    nn316038   2.152   5.059   6.093 -0.3054 -0.0416 -0.4988
 3266ntf    sn216039   2.195   5.210   6.094 -0.0461 -0.1122  0.1220
 3266ntf    cn116040   2.104   5.243   5.940  0.0255 -0.1372  0.0744
 3266ntf    fn416041   2.143   4.755   6.063  0.4056 -0.1459 -0.0485
 3266ntf    fn416042   2.304   4.824   6.175 -0.0774 -0.4464 -0.2499
 3266ntf    fn416043   2.143   4.729   6.276 -0.0604  0.4165  0.3846
 3266ntf    on516044   1.952   4.937   6.194 -0.2473  0.3081 -0.1301
 3266ntf    on516045   2.127   5.005   6.345  0.0775 -0.1051 -0.3740
 3266ntf    on516046   2.337   5.228   6.077 -0.0911  0.3767  0.2590
 3266ntf    on516047   2.140   5.291   6.199 -0.2684  0.1505 -0.1921
 3266ntf    fn416048   2.152   5.173   5.839 -0.3708 -0.3628  0.0381
 3266ntf    fn416049   1.977   5.207   5.947  0.1800 -0.7309 -0.1695
 3266ntf    fn416050   2.104   5.372   5.909  0.2012 -0.1687 -0.0563
 3267ntf    cn116051   0.345   1.557   3.632 -0.2152  0.3352  0.2169
 3267ntf    sn216052   0.240   1.458   3.522 -0.2224  0.0372  0.4891
 3267ntf    nn316053   0.128   1.415   3.623 -0.5032 -0.1214  0.1133
 3267ntf    sn216054  -0.006   1.480   3.672 -0.4555  0.0827 -0.0241
 3267ntf    cn116055  -0.111   1.375   3.567 -0.1911  0.0621 -0.2699
 3267ntf    fn416056   0.423   1.639   3.563  0.4540 -0.3783  0.1083
 3267ntf    fn416057   0.267   1.624   3.714 -0.1873  0.7274 -0.0747
 3267ntf    fn416058   0.419   1.480   3.711 -0.3578  0.6669  0.6790
 3267ntf    on516059   0.182   1.549   3.426  0.2332 -0.3356 -0.1466
 3267ntf    on516060   0.320   1.343   3.486  0.5556  0.6978  0.0611
 3267ntf    on516061  -0.046   1.614   3.635 -0.4329  0.2037  0.3895
 3267ntf    on516062  -0.044   1.429   3.801  0.8818  0.5984  0.5865
 3267ntf    fn416063  -0.104   1.245   3.591 -0.0731  0.0904 -0.1466
 3267ntf    fn416064  -0.238   1.404   3.593 -0.2274  0.1458 -0.5419
 3267ntf    fn416065  -0.083   1.389   3.439  0.2548  0.0402 -0.1746
 3268ntf    cn116066   6.232   5.590   6.962 -0.0235  0.2002 -0.1132
 3268ntf    sn216067   6.164   5.748   7.021 -0.2698 -0.0551  0.2899
 3268ntf    nn316068   6.049   5.692   7.112 -0.2578 -0.4698  0.0538
 3268ntf    sn216069   5.986   5.770   7.233 -0.1241 -0.2962  0.0115
 3268ntf    cn116070   5.947   5.925   7.146 -0.2022 -0.4453 -0.2203
 3268ntf    fn416071   6.333   5.582   6.876 -0.3782 -0.2319 -0.4955
 3268ntf    fn416072   6.273   5.520   7.066  0.0807  0.3218 -0.0722
 3268ntf    fn416073   6.137   5.514   6.909 -0.8140  0.3654  1.0319
 3268ntf    on516074   6.268   5.823   7.088 -0.3365 -0.2694  0.6345
 3268ntf    on516075   6.105   5.806   6.903  0.3135  0.1720  0.1026
 3268ntf    on516076   6.072   5.814   7.340 -0.3170  0.2771 -0.0626
 3268ntf    on516077   5.855   5.721   7.266 -0.4681  0.0046 -0.8746
 3268ntf    fn416078   5.867   6.011   7.208  0.4671 -0.0890  0.1543
 3268ntf    fn416079   6.055   5.991   7.108 -0.1771 -0.1856  0.2873
 3268ntf    fn416080   5.877   5.913   7.035 -0.4756  0.2423 -0.1283
 3269ntf    cn116081   0.724   1.152   1.005 -0.2825 -0.2607 -0.0243
 3269ntf    sn216082   0.820   1.292   0.940 -0.3906 -0.1690  0.0118
 3269ntf    nn316083   0.953   1.256   1.017 -0.3891 -0.5524 -0.1662
 3269ntf    sn216084   1.069   1.156   0.984  0.0279 -0.1399  0.0436
 3269ntf    cn116085   1.175   1.260   0.879  0.0286 -0.0502  0.1329
 3269ntf    fn416086   0.605   1.165   0.948  0.0754  0.5504 -0.5950
 3269ntf    fn416087   0.773   1.032   0.983  0.1528 -0.0433 -0.2471
 3269ntf    fn416088   0.699   1.160   1.135 -0.0704 -0.4800  0.0299
 3269ntf    on516089   0.826   1.281   0.797  0.0382 -0.0342  0.0175
 3269ntf    on516090   0.753   1.410   0.990 -0.5467 -0.2667  0.0338
 3269ntf    on516091   1.021   1.046   0.905 -0.2050  0.2147 -0.3167
 3269ntf    on516092   1.157   1.125   1.094  0.3540  1.3943  0.2504
 3269ntf    fn416093   1.234   1.355   0.950 -0.2899 -0.3088  0.7562
 3269ntf    fn416094   1.269   1.195   0.812 -0.5804 -0.4303 -0.3619
 3269ntf    fn416095   1.106   1.331   0.791  0.3888  0.2985  0.1281
 3270ntf    cn116096   5.932   4.218   6.607 -0.0219 -0.0478  0.3627
 3270ntf    sn216097   5.909   4.390   6.661 -0.0517  0.1555 -0.2960
 3270ntf    nn316098   6.058   4.437   6.645  0.1596 -0.6470 -0.7626
 3270ntf    sn216099   6.185   4.412   6.734 -0.2673  0.1731  0.0948
 3270ntf    cn116100   6.197   4.570   6.823  0.4615 -0.0555  0.4132
 3270ntf    fn416101   5.942   4.131   6.707  0.5626 -0.6350 -0.1977
 3270ntf    fn416102   5.825   4.182   6.539  0.1113  0.7604 -0.2849
 3270ntf    fn416103   6.036   4.200   6.527 -0.0457  0.1574  0.2856
 3270ntf    on516104   5.813   4.454   6.575 -0.1341  0.8233  0.2900
 3270ntf    on516105   5.872   4.377   6.800  0.6468  0.6110 -0.0583
 3270ntf    on516106   6.306   4.403   6.657 -0.0983  0.0379  0.3728
 3270ntf    on516107   6.175   4.315   6.841 -0.2577  0.4550  0.3533
 3270ntf    fn416108   6.301   4.575   6.904  0.7620 -0.3588  0.0489
 3270ntf    fn416109   6.210   4.669   6.737 -0.6713 -0.2985 -0.0551
 3270ntf    fn416110   6.090   4.600   6.896  0.2009 -0.1686  0.0797
 3271ntf    cn116111   1.455   5.197   2.403 -0.1194  0.1068 -0.0499
 3271ntf    sn216112   1.357   5.054   2.347 -0.0422  0.1694 -0.3457
 3271ntf    nn316113   1.441   4.939   2.413 -0.6693 -0.4718 -0.6448
 3271ntf    sn216114   1.419   4.863   2.548  0.2500  0.1119 -0.1529
 3271ntf    cn116115   1.282   4.752   2.504  0.1773  0.1672 -0.0667
 3271ntf    fn416116   1.455   5.200   2.535  0.1114  0.0268 -0.0477
 3271ntf    fn416117   1.584   5.190   2.376 -0.1031  0.5958 -0.0980
 3271ntf    fn416118   1.410   5.311   2.354 -0.3277 -0.0202 -0.1579
 3271ntf    on516119   1.225   5.066   2.403 -0.0268  0.7569 -0.4340
 3271ntf    on516120   1.362   5.056   2.203 -0.4642  0.3144 -0.3607
 3271ntf    on516121   1.361   4.954   2.644  0.1706 -0.0416 -0.0547
 3271ntf    on516122   1.524   4.772   2.587 -0.2627 -0.2519  0.4031
 3271ntf    fn416123   1.164   4.809   2.482 -0.2190 -0.6133 -0.0104
 3271ntf    fn416124   1.313   4.683   2.396  0.5520  0.2000  0.0197
 3271ntf    fn416125   1.257   4.663   2.599 -0.7231  0.1129 -0.3389
 3272ntf    cn116126   6.392   3.115   3.205  0.3489 -0.0011 -0.1176
 3272ntf    sn216127   6.457   2.953   3.155  0.1380 -0.1431  0.0691
 3272ntf    nn316128   6.388   2.945   3.015  0.4397 -0.1779 -0.0782
 3272ntf    sn216129   6.435   3.000   2.875  0.1702 -0.0377 -0.1149
 3272ntf    cn116130   6.287   3.090   2.820  0.0548 -0.1758 -0.0349
 3272ntf    fn416131   6.261   3.113   3.221  0.3962 -0.1179  0.2493
 3272ntf    fn416132   6.441   3.158   3.320  0.3471  0.1228 -0.1631
 3272ntf    fn416133   6.413   3.208   3.113  0.1158 -0.0785 -0.2498
 3272ntf    on516134   6.599   2.975   3.149  0.0881  0.0793 -0.2944
 3272ntf    on516135   6.414   2.853   3.250  0.3490 -0.5666 -0.2811
 3272ntf    on516136   6.445   2.898   2.773  1.0417 -0.5482  0.4654
 3272ntf    on516137   6.540   3.098   2.880  0.5372 -0.3954 -0.6362
 3272ntf    fn416138   6.174   3.026   2.843  0.0103 -0.2927 -0.5677
 3272ntf    fn416139   6.285   3.205   2.886  0.1497 -0.3297  0.2335
 3272ntf    fn416140   6.294   3.128   2.693 -0.2505  0.0490  0.0123
 3273ntf    cn116141   0.765   5.971   1.160 -0.6121 -0.8568 -0.3736
 3273ntf    sn216142   0.621   6.016   1.263 -0.0610  0.3504 -0.1088
 3273ntf    nn316143   0.547   6.096   1.150  0.6549  0.0695 -0.7862
 3273ntf    sn216144   0.407   6.054   1.094  0.0301  0.3161  0.5509
 3273ntf    cn116145   0.342   6.198   1.004 -0.1256  0.2624  0.5785
 3273ntf    fn416146   0.839   5.883   1.225  0.0559 -0.0495 -0.0228
 3273ntf    fn416147   0.727   5.924   1.043 -0.2867 -0.4984 -0.6268
 3273ntf    fn416148   0.845   6.074   1.136 -0.0937 -1.1853 -0.0780
 3273ntf    on516149   0.546   5.896   1.294  0.3810 -0.1501 -0.9445
 3273ntf    on516150   0.674   6.085   1.378 -0.2795 -0.5056  0.5207
 3273ntf    on516151   0.303   6.022   1.188 -0.6381 -0.8035 -0.5378
 3273ntf    on516152   0.417   5.960   0.985  0.2606  0.6352  0.2940
 3273ntf    fn416153   0.352   6.305   1.082  0.4071  0.1547  0.6617
 3273ntf    fn416154   0.408   6.235   0.896  0.2399 -0.3878  0.5790
 3273ntf    fn416155   0.214   6.193   0.968  0.0626  0.1018 -0.0720
 3274ntf    cn116156   2.589   7.019   0.095  0.0376  0.1230 -0.0415
 3274ntf    sn216157   2.416   7.051   0.051  0.0492 -0.0204 -0.1923
 3274ntf    nn316158   2.383   7.185   0.126 -0.1767 -0.1463 -0.0683
 3274ntf    sn216159   2.243   7.234   0.177  0.0002  0.0522  0.2299
 3274ntf    cn116160   2.210   7.346   0.038  0.2830 -0.1473  0.0018
 3274ntf    fn416161   2.606   6.958   0.211  0.2093 -0.3911 -0.3319
 3274ntf    fn416162   2.654   6.934   0.016 -0.4183  0.0289 -0.3184
 3274ntf    fn416163   2.660   7.130   0.103 -0.1868  0.2216  0.6467
 3274ntf    on516164   2.434   7.063  -0.092 -0.5671 -0.0245 -0.2744
 3274ntf    on516165   2.344   6.931   0.086 -0.0578  0.0801 -0.0661
 3274ntf    on516166   2.245   7.322   0.291  0.1333 -0.3879  0.5717
 3274ntf    on516167   2.141   7.133   0.167  0.5208 -0.4339 -0.1987
 3274ntf    fn416168   2.183   7.276  -0.071 -0.6378 -0.0499  0.1623
 3274ntf    fn416169   2.102   7.420   0.054  0.4125  0.2255 -0.7788
 3274ntf    fn416170   2.311   7.429   0.013  0.1222 -0.0396 -0.3001
 3275ntf    cn116171   2.536   1.851   0.745  0.5750 -0.2784 -0.0440
 3275ntf    sn216172   2.579   1.709   0.639  0.5372  0.0503 -0.5046
 3275ntf    nn316173   2.652   1.769   0.514  1.0234  0.7165  0.0911
 3275ntf    sn216174   2.589   1.798   0.374 -0.0540  0.3505  0.4924
 3275ntf    cn116175   2.580   1.628   0.309  0.4488  0.4622  0.1286
 3275ntf    fn416176   2.644   1.920   0.779  0.1012  0.5525 -0.1963
 3275ntf    fn416177   2.447   1.927   0.685  0.0890 -1.1163 -0.3941
 3275ntf    fn416178   2.476   1.812   0.856  0.1074  0.0286 -0.1884
 3275ntf    on516179   2.675   1.644   0.724  0.4553  0.4226 -0.1215
 3275ntf    on516180   2.452   1.641   0.628  0.1814  0.5560  0.3302
 3275ntf    on516181   2.680   1.863   0.283  0.4149 -0.3047  0.4881
 3275ntf    on516182   2.453   1.847   0.381 -0.2339 -0.0995  0.2177
 3275ntf    fn416183   2.587   1.638   0.177 -0.2913 -0.5927  0.0031
 3275ntf    fn416184   2.680   1.556   0.355  0.1440 -0.1801 -0.2057
 3275ntf    fn416185   2.468   1.564   0.335  0.5307  0.0433 -0.5156
 3276ntf    cn116186   5.493   3.224   5.267 -0.4737 -0.3977 -0.6100
 3276ntf    sn216187   5.353   3.222   5.382  0.2253  0.3473  0.2745
 3276ntf    nn316188   5.249   3.268   5.273 -0.0349 -0.3157  0.2364
 3276ntf    sn216189   5.145   3.178   5.198 -0.3542  0.0755  0.2069
 3276ntf    cn116190   5.131   3.273   5.044 -0.1463 -0.2222  0.0033
 3276ntf    fn416191   5.519   3.347   5.223 -0.8718 -0.1518 -0.1698
 3276ntf    fn416192   5.606   3.198   5.330 -0.8281  0.8334  0.5730
 3276ntf    fn416193   5.481   3.142   5.164 -0.3488 -0.1914 -0.7931
 3276ntf    on516194   5.349   3.082   5.415  0.9897  0.1893 -0.2864
 3276ntf    on516195   5.383   3.327   5.476  0.7639  0.1993  0.2701
 3276ntf    on516196   5.016   3.190   5.262 -0.3765  0.4072  0.1007
 3276ntf    on516197   5.197   3.057   5.140 -0.3584  0.2306 -0.1220
 3276ntf    fn416198   5.235   3.270   4.962  0.4832  0.4660  0.7642
 3276ntf    fn416199   5.023   3.243   4.974 -0.3068  0.1554  0.0855
 3276ntf    fn416200   5.118   3.399   5.081 -0.3825 -0.3322  0.3017
 3277ntf    cn116201   4.923   6.974   0.524 -0.3483  0.0830  0.1241
 3277ntf    sn216202   4.831   7.087   0.416 -0.2996  0.1122  0.1126
 3277ntf    nn316203   4.861   7.223   0.488 -0.0001  0.0333  0.1410
 3277ntf    sn216204   4.989   7.314   0.492  0.0885 -0.0809 -0.1436
 3277ntf    cn116205   5.009   7.321   0.672 -0.4391  0.2083 -0.0943
 3277ntf    fn416206   5.052   6.993   0.541 -0.3343 -0.0373  0.1571
 3277ntf    fn416207   4.873   6.971   0.647 -0.4402  0.5748  0.0978
 3277ntf    fn416208   4.913   6.845   0.496  0.1127  0.0231  0.2343
 3277ntf    on516209   4.891   7.081   0.285  0.0660  0.5636  0.2563
 3277ntf    on516210   4.691   7.057   0.427 -0.1792 -0.3798  0.3020
 3277ntf    on516211   4.969   7.454   0.462 -0.2487 -0.1860 -0.4168
 3277ntf    on516212   5.111   7.247   0.452 -0.1989 -0.7640  0.1101
 3277ntf    fn416213   5.012   7.201   0.729 -0.2720 -0.0379 -0.6139
 3277ntf    fn416214   5.122   7.380   0.705 -0.4530  0.4454 -0.4664
 3277ntf    fn416215   4.914   7.386   0.737 -0.2939  0.0154  0.3139
 3278ntf    cn116216   4.498   2.336   3.072  0.1240  0.2395  0.0720
 3278ntf    sn216217   4.484   2.478   3.185 -0.0525  0.1856  0.1191
 3278ntf    nn316218   4.513   2.407   3.322 -0.0513 -0.2275 -0.0944
 3278ntf    sn216219   4.551   2.453   3.467 -0.3365 -0.5774  0.0938
 3278ntf    cn116220   4.387   2.442   3.544 -0.3312  0.3208  0.2505
 3278ntf    fn416221   4.395   2.254   3.085  0.6513 -0.3260  0.7916
 3278ntf    fn416222   4.508   2.359   2.943 -0.6823 -0.5549 -0.1427
 3278ntf    fn416223   4.591   2.250   3.110  0.0107  0.1299  0.1015
 3278ntf    on516224   4.593   2.560   3.138  0.4356 -0.5226  0.0071
 3278ntf    on516225   4.348   2.517   3.155 -0.0619  0.1296  0.0876
 3278ntf    on516226   4.579   2.594   3.481  0.0399 -0.5603 -0.7404
 3278ntf    on516227   4.630   2.359   3.542  0.3095  0.0063  0.1552
 3278ntf    fn416228   4.399   2.483   3.670 -0.8083  0.1140  0.3639
 3278ntf    fn416229   4.294   2.520   3.493 -0.8334 -0.3402  0.1397
 3278ntf    fn416230   4.326   2.325   3.547 -0.2929  0.2945  0.0426
 3279ntf    cn116231   3.761   6.602   6.480 -0.4407 -0.0712  0.1143
 3279ntf    sn216232   3.745   6.429   6.533  0.1111 -0.1202  0.1325
 3279ntf    nn316233   3.894   6.408   6.576  0.1755  0.3578  0.1436
 3279ntf    sn216234   3.942   6.347   6.713 -0.1013 -0.1780  0.0040
 3279ntf    cn116235   3.931   6.491   6.823 -0.2069 -0.2813  0.1299
 3279ntf    fn416236   3.804   6.677   6.579 -0.0602  0.4411 -0.4294
 3279ntf    fn416237   3.857   6.605   6.389  0.1157  0.3745  0.7100
 3279ntf    fn416238   3.653   6.657   6.427 -0.4748  0.2682  0.5307
 3279ntf    on516239   3.646   6.426   6.638 -0.4245 -1.0815 -0.3866
 3279ntf    on516240   3.712   6.372   6.404 -0.1143 -0.3783  0.3022
 3279ntf    on516241   4.082   6.316   6.705  0.0454  0.4598  0.0753
 3279ntf    on516242   3.850   6.252   6.771  0.1781 -0.0975  0.5810
 3279ntf    fn416243   3.809   6.542   6.833 -0.1657 -0.1477 -0.0366
 3279ntf    fn416244   3.974   6.462   6.945 -0.2692 -0.1971  0.1715
 3279ntf    fn416245   4.008   6.589   6.777 -0.1421 -0.2277  0.3450
 3280ntf    cn116246   0.782   2.118   6.919 -0.0500  0.1610  0.3690
 3280ntf    sn216247   0.764   2.232   7.059 -0.1036  0.2315  0.3052
 3280ntf    nn316248   0.905   2.214   7.125  0.1261 -0.1725 -0.2893
 3280ntf    sn216249   0.931   2.099   7.228  0.5122  0.0859 -0.0936
 3280ntf    cn116250   0.901   2.187   7.384 -0.2509  0.1483 -0.2745
 3280ntf    fn416251   0.901   2.107   6.863  0.1092  0.8044  0.5701
 3280ntf    fn416252   0.750   1.997   6.962 -0.4351  0.1527  0.0624
 3280ntf    fn416253   0.687   2.145   6.831  0.1880  0.2637  0.1438
 3280ntf    on516254   0.756   2.366   7.006  0.1442 -0.1656 -0.7405
 3280ntf    on516255   0.639   2.197   7.122  0.1162 -0.4377  0.3720
 3280ntf    on516256   1.074   2.085   7.243  0.4301 -0.3740  0.2970
 3280ntf    on516257   0.840   1.987   7.225  0.5394  0.0663 -0.1677
 3280ntf    fn416258   0.932   2.109   7.486 -0.2812  0.0165 -0.3669
 3280ntf    fn416259   0.976   2.296   7.392 -0.3046  0.1633  0.0540
 3280ntf    fn416260   0.775   2.223   7.404  0.0674  1.0868  0.0979
 3281ntf    cn116261   1.009   3.640   0.819  0.0531  0.1697 -0.0530
 3281ntf    sn216262   0.976   3.596   0.646 -0.4040 -0.0489  0.0873
 3281ntf    nn316263   0.865   3.698   0.601  0.2146  0.5602 -0.0869
 3281ntf    sn216264   0.762   3.680   0.484  0.2259 -0.4498  0.0439
 3281ntf    cn116265   0.853   3.706   0.330 -0.3384  0.2718 -0.1731
 3281ntf    fn416266   0.898   3.631   0.891  0.0982 -0.1308 -0.0221
 3281ntf    fn416267   1.083   3.546   0.875  0.1079  0.2237 -0.0338
 3281ntf    fn416268   1.062   3.759   0.845  0.1913  0.1284 -0.1469
 3281ntf    on516269   1.099   3.612   0.573  0.0658  1.0386  1.0814
 3281ntf    on516270   0.929   3.460   0.653  0.3317 -0.2926  0.4104
 3281ntf    on516271   0.660   3.782   0.487  0.4052 -0.2789  0.3772
 3281ntf    on516272   0.711   3.546   0.468  0.3079 -0.4696 -0.0519
 3281ntf    fn416273   0.971   3.646   0.330 -0.4678  0.0163  0.1994
 3281ntf    fn416274   0.784   3.690   0.218 -0.2562 -0.1145 -0.1682
 3281ntf    fn416275   0.891   3.833   0.318 -0.2997  0.2950  0.1939
 3282ntf    cn116276   4.248   6.813   3.171 -0.1249 -0.0495  0.2457
 3282ntf    sn216277   4.300   6.939   3.291 -0.2429  0.2372 -0.0022
 3282ntf    nn316278   4.455   6.914   3.300 -0.2917 -0.0864 -0.0512
 3282ntf    sn216279   4.554   6.967   3.190  0.0695 -0.3166  0.1607
 3282ntf    cn116280   4.590   7.118   3.285 -0.0695 -0.0308 -0.2404
 3282ntf    fn416281   4.292   6.835   3.048  0.2653  0.5204  0.4833
 3282ntf    fn416282   4.303   6.699   3.210 -0.7399 -0.6026 -0.4715
 3282ntf    fn416283   4.117   6.807   3.155 -0.1176 -0.2001  0.2465
 3282ntf    on516284   4.257   7.063   3.232 -0.4932  0.0281 -0.2615
 3282ntf    on516285   4.234   6.905   3.415  0.1052  0.0915  0.1463
 3282ntf    on516286   4.507   7.016   3.063 -0.6934 -0.1397  0.5062
 3282ntf    on516287   4.681   6.899   3.195  0.3812  0.2647  0.2752
 3282ntf    fn416288   4.611   7.099   3.414  0.9339 -0.3989 -0.4503
 3282ntf    fn416289   4.695   7.185   3.241 -0.2869  0.3818 -0.1325
 3282ntf    fn416290   4.501   7.216   3.278 -0.0621 -0.0011  0.0889
 3283ntf    cn116291   4.256   7.164   4.015 -0.0343  0.2867  0.0382
 3283ntf    sn216292   4.380   7.166   3.881 -0.2415  0.2102 -0.1552
 3283ntf    nn316293   4.336   7.290   3.796 -0.3327  0.1888 -0.1400
 3283ntf    sn216294   4.411   7.427   3.775 -0.0617  0.0327 -0.1927
 3283ntf    cn116295   4.298   7.490   3.647  0.1462 -0.1133 -0.4497
 3283ntf    fn416296   4.190   7.278   4.028  0.2180  0.4505 -0.0998
 3283ntf    fn416297   4.162   7.072   4.004 -0.2556  0.4319  0.6892
 3283ntf    fn416298   4.312   7.150   4.134  0.0953  0.5823  0.0141
 3283ntf    on516299   4.510   7.167   3.943 -0.2841 -0.2410 -0.0577
 3283ntf    on516300   4.351   7.050   3.801 -0.6309  0.1597  0.0547
 3283ntf    on516301   4.537   7.418   3.705  0.1520 -0.4693  0.2535
 3283ntf    on516302   4.391   7.524   3.879 -0.0676 -0.6223  0.4245
 3283ntf    fn416303   4.168   7.484   3.675  0.3702 -0.3636  0.5653
 3283ntf    fn416304   4.317   7.618   3.619 -0.2997  0.2270  0.7490
 3283ntf    fn416305   4.321   7.430   3.531 -0.4838 -0.0349 -0.6184
 3284ntf    cn116306   1.308   3.160   3.552 -0.0972  0.0704  0.1647
 3284ntf    sn216307   1.244   2.995   3.513 -0.0777  0.0266  0.3207
 3284ntf    nn316308   1.283   2.986   3.361 -0.1933 -0.0082  0.2929
 3284ntf    sn216309   1.203   3.042   3.239 -0.2598  0.2683  0.4610
 3284ntf    cn116310   1.315   3.163   3.163 -0.1663 -0.4216 -0.5287
 3284ntf    fn416311   1.217   3.252   3.519 -0.0199  0.1534  0.1820
 3284ntf    fn416312   1.330   3.185   3.680  0.0801  0.2565  0.0980
 3284ntf    fn416313   1.423   3.183   3.491 -0.0968 -0.1854  0.0711
 3284ntf    on516314   1.321   2.908   3.599  0.1592 -0.2187 -0.1372
 3284ntf    on516315   1.102   3.000   3.540 -0.2840  0.2904 -0.7765
 3284ntf    on516316   1.093   3.125   3.281 -0.5952  0.0270  0.0724
 3284ntf    on516317   1.191   2.944   3.133  0.4543 -0.3331  0.9286
 3284ntf    fn416318   1.445   3.137   3.170 -0.2293 -0.4799  0.5684
 3284ntf    fn416319   1.296   3.202   3.038  0.1520  0.0857 -0.4244
 3284ntf    fn416320   1.304   3.264   3.248  0.3101 -0.4263 -0.4556
 3285ntf    cn116321   6.007   1.853   5.295  0.2568 -0.0557  0.2263
 3285ntf    sn216322   6.158   1.758   5.330  0.4021  0.0871 -0.0106
 3285ntf    nn316323   6.240   1.807   5.206  0.5031  0.1886  0.0958
 3285ntf    sn216324   6.294   1.731   5.079 -0.2244 -0.2570  0.0476
 3285ntf    cn116325   6.453   1.818   5.064 -0.1896 -0.2909  0.2186
 3285ntf    fn416326   6.018   1.985   5.309  0.0147  0.0034 -0.1200
 3285ntf    fn416327   5.941   1.829   5.183  0.7206  0.2572 -0.1219
 3285ntf    fn416328   5.924   1.823   5.393  0.0056 -0.0286  0.0211
 3285ntf    on516329   6.200   1.817   5.454  0.5485  0.4485 -0.2309
 3285ntf    on516330   6.125   1.617   5.322  0.5357  0.1006 -0.8947
 3285ntf    on516331   6.239   1.779   4.954 -0.9097 -0.6412  0.2018
 3285ntf    on516332   6.343   1.596   5.085  0.0925 -0.1747 -0.5511
 3285ntf    fn416333   6.530   1.778   4.964 -0.8727 -0.1026 -0.3895
 3285ntf    fn416334   6.435   1.948   5.042  0.2957 -0.0970  0.9231
 3285ntf    fn416335   6.529   1.823   5.172  0.1706 -0.1000 -0.0378
 3286ntf    cn116336   6.496   4.281   5.286  0.0982 -0.5162  0.3429
 3286ntf    sn216337   6.594   4.306   5.135 -0.2045  0.1100  0.2485
 3286ntf    nn316338   6.544   4.450   5.095 -0.4224 -0.0567 -0.0834
 3286ntf    sn216339   6.637   4.573   5.065 -0.1153 -0.1871  0.3157
 3286ntf    cn116340   6.602   4.669   5.216  0.3626  0.4330  0.0351
 3286ntf    fn416341   6.522   4.155   5.319 -0.9431 -0.7000  0.5006
 3286ntf    fn416342   6.536   4.349   5.392  0.2182  0.2933 -0.2106
 3286ntf    fn416343   6.365   4.297   5.271  0.1785 -0.2590 -0.1203
 3286ntf    on516344   6.734   4.289   5.167 -0.2271  0.4065  0.5187
 3286ntf    on516345   6.541   4.210   5.042  0.3448 -0.0133  0.0568
 3286ntf    on516346   6.581   4.667   4.971  1.0725  0.3515  0.1386
 3286ntf    on516347   6.780   4.556   5.062 -0.0728  0.1993  0.0762
 3286ntf    fn416348   6.474   4.690   5.243  0.2907 -0.2279  0.2224
 3286ntf    fn416349   6.651   4.606   5.322  0.4658  0.0730 -0.2264
 3286ntf    fn416350   6.658   4.789   5.220  0.7645  0.2730 -0.6237
 3287ntf    cn116351   5.930   3.809   0.109 -0.2506  0.0736 -0.2311
 3287ntf    sn216352   6.030   3.804  -0.043  0.0570  0.0099 -0.0274
 3287ntf    nn316353   5.930   3.749  -0.150  0.0950  0.1961 -0.1606
 3287ntf    sn216354   5.781   3.798  -0.156  0.0317 -0.0212 -0.3837
 3287ntf    cn116355   5.772   3.833  -0.334 -0.1334  0.4906 -0.2765
 3287ntf    fn416356   6.013   3.793   0.211 -0.1948 -1.0567 -0.4382
 3287ntf    fn416357   5.853   3.913   0.135 -0.7878 -0.3717 -0.0211
 3287ntf    fn416358   5.854   3.701   0.118 -0.2774  0.1027 -0.1104
 3287ntf    on516359   6.080   3.937  -0.072 -0.1444  0.1243  0.1465
 3287ntf    on516360   6.135   3.708  -0.017  0.6526  0.5429 -0.4221
 3287ntf    on516361   5.754   3.925  -0.093 -0.6390 -0.1300 -0.4379
 3287ntf    on516362   5.677   3.700  -0.132  0.3851 -0.2588  0.1992
 3287ntf    fn416363   5.861   3.925  -0.367  0.0587  0.4823  0.2120
 3287ntf    fn416364   5.788   3.723  -0.406  0.6836 -0.6234  1.5360
 3287ntf    fn416365   5.651   3.873  -0.369 -0.4264  0.0679  0.2397
 3288ntf    cn116366   7.150   4.615   6.413 -0.4778  0.1057 -0.2268
 3288ntf    sn216367   7.161   4.468   6.519 -0.2096  0.1365 -0.2116
 3288ntf    nn316368   7.216   4.525   6.655 -0.3293 -0.1753 -0.0312
 3288ntf    sn216369   7.121   4.571   6.771  0.0765  0.0486  0.2151
 3288ntf    cn116370   7.101   4.410   6.855  0.1410  0.1983  0.5171
 3288ntf    fn416371   7.041   4.688   6.423 -0.6125 -0.1251  0.0078
 3288ntf    fn416372   7.241   4.708   6.439 -0.4716  0.2732 -0.8352
 3288ntf    fn416373   7.162   4.593   6.283  0.2053  0.2578 -0.1931
 3288ntf    on516374   7.026   4.418   6.520 -0.1900  0.0814 -0.2807
 3288ntf    on516375   7.248   4.373   6.453 -0.5417 -0.6061  0.3939
 3288ntf    on516376   6.990   4.615   6.730 -0.1070 -0.6044  0.0785
 3288ntf    on516377   7.182   4.660   6.866 -0.3458  0.1598  0.3847
 3288ntf    fn416378   7.215   4.352   6.888 -0.1789 -0.5735  0.2652
 3288ntf    fn416379   7.032   4.412   6.968 -0.0181  0.4390  0.4176
 3288ntf    fn416380   7.054   4.312   6.781 -0.6391  0.3556  0.8002
 3289ntf    cn116381   5.392   3.703   5.706 -0.1137 -0.1014 -0.7739
 3289ntf    sn216382   5.464   3.870   5.707  0.0229 -0.1620 -0.0561
 3289ntf    nn316383   5.605   3.836   5.768  0.0391 -0.7401 -0.4055
 3289ntf    sn216384   5.726   3.932   5.796 -0.2651 -0.4615 -0.0396
 3289ntf    cn116385   5.785   3.861   5.953  0.0874 -0.0792  0.0024
 3289ntf    fn416386   5.411   3.663   5.831 -0.8183  1.2925 -0.2042
 3289ntf    fn416387   5.262   3.699   5.684 -0.3659  0.0687  0.6413
 3289ntf    fn416388   5.454   3.617   5.626 -0.2243 -0.3740 -0.5676
 3289ntf    on516389   5.475   3.919   5.572  0.2024 -0.3177 -0.0996
 3289ntf    on516390   5.384   3.943   5.802 -0.2240 -0.6198  0.0900
 3289ntf    on516391   5.682   4.063   5.838  0.1356 -0.4374  0.3130
 3289ntf    on516392   5.831   3.929   5.698  0.0207  0.1600  0.2436
 3289ntf    fn416393   5.880   3.935   6.008  0.0672  0.3222 -0.4923
 3289ntf    fn416394   5.694   3.863   6.049  0.1889 -0.4135  0.1080
 3289ntf    fn416395   5.833   3.738   5.943 -0.2140 -0.1938 -0.0244
 3290ntf    cn116396   2.163   6.892   6.459 -0.4906  0.0137  0.1167
 3290ntf    sn216397   2.185   6.999   6.314  0.2494 -0.2454  0.0359
 3290ntf    nn316398   2.259   6.905   6.212 -0.0768 -0.2839 -0.1637
 3290ntf    sn216399   2.412   6.870   6.217  0.0282  0.1985  0.0693
 3290ntf    cn116400   2.406   6.689   6.213 -0.0010  0.1987  0.0882
 3290ntf    fn416401   2.128   6.769   6.426  0.1737 -0.1501  0.0047
 3290ntf    fn416402   2.275   6.877   6.529 -0.4157  0.6652  0.1480
 3290ntf    fn416403   2.075   6.938   6.547 -0.3470 -0.2163  0.3825
 3290ntf    on516404   2.050   7.020   6.271 -0.0393  0.0501  1.0491
 3290ntf    on516405   2.258   7.117   6.354 -0.4717  0.2401 -0.0619
 3290ntf    on516406   2.473   6.900   6.344  0.2688 -0.2660  0.0640
 3290ntf    on516407   2.493   6.906   6.103  0.6230 -0.3999  0.3007
 3290ntf    fn416408   2.527   6.636   6.214 -0.2522 -0.3928 -0.1848
 3290ntf    fn416409   2.335   6.639   6.313 -0.1249  0.3390  0.0703
 3290ntf    fn416410   2.349   6.659   6.097  0.1873 -0.1083  0.0745
 3291ntf    cn116411   3.758   1.509   5.938  0.1593  0.3771 -0.1760
 3291ntf    sn216412   3.916   1.545   5.856  0.4054  0.0331  0.1425
 3291ntf    nn316413   3.988   1.641   5.958 -0.1759  0.6612 -0.0349
 3291ntf    sn216414   4.082   1.595   6.075  0.0641 -0.0909 -0.5163
 3291ntf    cn116415   4.240   1.598   5.984  0.3534 -0.0239 -0.0095
 3291ntf    fn416416   3.779   1.428   6.041  0.1927 -0.1176 -0.5680
 3291ntf    fn416417   3.686   1.610   5.983  0.0784  0.1241  0.2673
 3291ntf    fn416418   3.684   1.445   5.849 -0.0554  0.3394  0.0292
 3291ntf    on516419   3.976   1.416   5.833  0.7525  0.1611  0.3201
 3291ntf    on516420   3.877   1.619   5.739  0.0339 -0.2123  0.1092
 3291ntf    on516421   4.076   1.456   6.112 -0.1182 -0.0439 -0.3671
 3291ntf    on516422   4.095   1.697   6.176  0.0488 -0.8236  0.2336
 3291ntf    fn416423   4.255   1.713   5.920 -0.1800 -0.1252 -0.3225
 3291ntf    fn416424   4.344   1.596   6.066  0.4005 -0.4254 -0.0813
 3291ntf    fn416425   4.249   1.500   5.896 -0.2049 -0.3333  0.2711
 3292ntf    cn116426   0.138   0.173   0.242 -0.4791  0.1971  0.0108
 3292ntf    sn216427   0.080   0.060   0.372 -0.0989 -0.1411 -0.1102
 3292ntf    nn316428   0.061  -0.077   0.299 -0.6293  0.2704 -0.7586
 3292ntf    sn216429   0.145  -0.210   0.296 -0.1675  0.5410 -0.0660
 3292ntf    cn116430   0.214  -0.201   0.128  0.0016 -0.3604 -0.0488
 3292ntf    fn416431   0.186   0.288   0.285 -0.3874  0.3380 -0.4563
 3292ntf    fn416432   0.234   0.118   0.169 -0.6284 -0.1202  0.0509
 3292ntf    fn416433   0.040   0.193   0.155 -0.4210 -0.1846 -0.1443
 3292ntf    on516434   0.188   0.066   0.468 -0.2833  0.7116  0.0542
 3292ntf    on516435  -0.049   0.109   0.415 -0.0601 -0.3621  0.2623
 3292ntf    on516436   0.058  -0.324   0.293 -0.0179  0.4314 -0.3155
 3292ntf    on516437   0.268  -0.216   0.371 -0.1528  0.1438 -0.1226
 3292ntf    fn416438   0.289  -0.093   0.110  0.0524 -0.3451  0.2469
 3292ntf    fn416439   0.304  -0.295   0.104 -0.0608 -0.2995 -0.5374
 3292ntf    fn416440   0.127  -0.195   0.029  0.0622 -0.1764 -0.0911
 3293ntf    cn116441   0.579   0.460   3.099 -0.1521 -0.3651 -0.1409
 3293ntf    sn216442   0.582   0.592   2.974 -0.3932  0.2194  0.4636
 3293ntf    nn316443   0.699   0.554   2.876 -0.5768 -0.0891  0.3626
 3293ntf    sn216444   0.710   0.500   2.730 -0.3200  0.3548  0.2136
 3293ntf    cn116445   0.740   0.652   2.635  0.2102  0.1635  0.0718
 3293ntf    fn416446   0.690   0.453   3.171  0.1681 -0.2160 -0.6197
 3293ntf    fn416447   0.479   0.481   3.184 -0.0633 -0.4647 -0.0127
 3293ntf    fn416448   0.566   0.339   3.047  0.3884 -0.3278 -0.3717
 3293ntf    on516449   0.449   0.588   2.918 -0.1809  0.0357 -0.0324
 3293ntf    on516450   0.614   0.708   3.054  0.9005 -0.0818  0.4078
 3293ntf    on516451   0.590   0.443   2.674 -0.2533  0.2968  0.1285
 3293ntf    on516452   0.833   0.427   2.712 -0.7246 -0.1702 -0.5340
 3293ntf    fn416453   0.866   0.693   2.642  0.1829  0.3755 -0.6573
 3293ntf    fn416454   0.715   0.632   2.507  0.0154 -0.5715  0.2185
 3293ntf    fn416455   0.666   0.755   2.673  0.2137  0.1037  0.2440
 3294ntf    cn116456   6.485   4.611   4.235  0.1881 -0.5824  0.1129
 3294ntf    sn216457   6.655   4.611   4.299  0.1232 -0.1997  0.2880
 3294ntf    nn316458   6.743   4.620   4.169 -0.2998 -1.1091 -0.0766
 3294ntf    sn216459   6.883   4.552   4.155  0.1189 -0.2253 -0.2403
 3294ntf    cn116460   6.972   4.631   4.292  0.5864 -0.1555 -0.5803
 3294ntf    fn416461   6.493   4.666   4.115  0.4576 -0.3935  0.2175
 3294ntf    fn416462   6.438   4.489   4.212  0.0729 -0.5316  0.0758
 3294ntf    fn416463   6.396   4.677   4.308 -0.0510 -0.8871  0.1011
 3294ntf    on516464   6.671   4.733   4.374  0.1333 -0.0531  0.0491
 3294ntf    on516465   6.664   4.483   4.366  0.2785  0.0747  0.7945
 3294ntf    on516466   6.955   4.589   4.035 -0.0255  0.1536 -0.2124
 3294ntf    on516467   6.887   4.411   4.181  0.1409 -0.2967 -0.6159
 3294ntf    fn416468   6.919   4.618   4.413  0.9334  0.2716 -0.3780
 3294ntf    fn416469   7.093   4.580   4.310  0.5167 -0.3306 -0.6037
 3294ntf    fn416470   6.998   4.759   4.276  0.1694  0.0029 -0.0384
 3295ntf    cn116471   4.714   4.556   2.073 -0.0026  0.1349  0.1077
 3295ntf    sn216472   4.804   4.681   2.170  0.2074 -0.1492  0.2810
 3295ntf    nn316473   4.938   4.602   2.191 -0.0076 -0.5781  0.0577
 3295ntf    sn216474   5.046   4.563   2.083 -0.1487  0.0942 -0.3310
 3295ntf    cn116475   5.200   4.634   2.148 -0.1830 -0.0425 -0.1000
 3295ntf    fn416476   4.781   4.518   1.965 -0.2255 -0.4441  0.1701
 3295ntf    fn416477   4.688   4.446   2.142 -0.3667 -0.3461 -0.7779
 3295ntf    fn416478   4.593   4.602   2.044 -0.1567  0.0841  0.6721
 3295ntf    on516479   4.810   4.802   2.092  0.0075 -0.2233  0.1487
 3295ntf    on516480   4.734   4.687   2.296 -0.4297 -0.3980 -0.0530
 3295ntf    on516481   5.042   4.632   1.956 -0.4323  0.1530 -0.2913
 3295ntf    on516482   5.070   4.422   2.074  0.3939  0.1372  0.3012
 3295ntf    fn416483   5.206   4.761   2.187 -0.4143 -0.1511  0.2965
 3295ntf    fn416484   5.252   4.564   2.248 -0.1040 -0.0559 -0.1506
 3295ntf    fn416485   5.287   4.612   2.050 -0.5137 -0.3044 -0.3385
 3296ntf    cn116486   6.657   6.878   0.165 -0.2785 -0.0075  0.1816
 3296ntf    sn216487   6.723   6.711   0.138  0.1573  0.2063 -0.0881
 3296ntf    nn316488   6.627   6.664   0.024  0.2482  0.4751 -0.2761
 3296ntf    sn216489   6.517   6.552   0.022  0.4480  0.2790 -0.3963
 3296ntf    cn116490   6.358   6.626  -0.028  0.2582  0.2398  0.1397
 3296ntf    fn416491   6.527   6.872   0.189 -0.2043 -0.0802  0.5718
 3296ntf    fn416492   6.711   6.930   0.275  0.1321  0.2605 -0.1422
 3296ntf    fn416493   6.686   6.958   0.064  0.3193 -0.1868  0.2074
 3296ntf    on516494   6.854   6.734   0.083  0.2675  0.5645  0.3141
 3296ntf    on516495   6.716   6.642   0.265 -0.7367  0.3794 -0.0351
 3296ntf    on516496   6.492   6.482   0.145  0.7260 -0.2479 -0.6379
 3296ntf    on516497   6.526   6.462  -0.090  0.2821  0.1220 -0.2850
 3296ntf    fn416498   6.270   6.534  -0.064  0.0086  0.3712  0.4091
 3296ntf    fn416499   6.301   6.684   0.076 -0.5549 -0.3749  0.0506
 3296ntf    fn416500   6.363   6.711  -0.129 -0.7065  0.4489  0.2642
 3297ntf    cn116501   5.648   5.827   0.524 -0.6839 -0.1045 -0.3024
 3297ntf    sn216502   5.718   5.672   0.590 -0.0269  0.2465 -0.1692
 3297ntf    nn316503   5.828   5.725   0.690 -0.2941 -0.0521  0.2865
 3297ntf    sn216504   5.980   5.746   0.660 -0.3199 -0.2958 -0.0258
 3297ntf    cn116505   6.049   5.590   0.722 -0.1696 -0.1100  0.2783
 3297ntf    fn416506   5.598   5.904   0.618  0.4039  0.1871  0.0553
 3297ntf    fn416507   5.745   5.894   0.465 -0.0102 -0.8958 -0.1241
 3297ntf    fn416508   5.554   5.804   0.434 -0.4095 -0.6585 -0.4573
 3297ntf    on516509   5.606   5.617   0.663  0.2222  0.2917  0.2535
 3297ntf    on516510   5.770   5.605   0.474 -0.2053 -0.8032  0.3498
 3297ntf    on516511   6.047   5.851   0.734 -0.1373 -0.1933 -0.3335
 3297ntf    on516512   6.022   5.739   0.522 -0.0370  0.2814  0.0247
 3297ntf    fn416513   6.018   5.579   0.850  0.7099  0.5104  0.5551
 3297ntf    fn416514   6.004   5.481   0.661 -0.5066  0.0310  0.2748
 3297ntf    fn416515   6.180   5.591   0.705 -0.1825  0.3637  0.1901
 3298ntf    cn116516   6.674   4.985   2.935 -0.0559 -0.2084 -0.3351
 3298ntf    sn216517   6.823   5.087   2.956 -0.1952 -0.0719  0.0050
 3298ntf    nn316518   6.830   5.164   2.819  0.6089  0.2594  0.2298
 3298ntf    sn216519   6.936   5.267   2.764  0.5908  0.2246  0.1304
 3298ntf    cn116520   6.946   5.215   2.590 -0.3349 -0.4038  0.2569
 3298ntf    fn416521   6.643   4.895   3.027 -0.3093 -0.3077 -0.5169
 3298ntf    fn416522   6.570   5.066   2.920  0.0783  0.0293 -0.0123
 3298ntf    fn416523   6.674   4.924   2.818 -0.2219 -0.1569 -0.3630
 3298ntf    on516524   6.791   5.172   3.068  0.1655 -0.0823  0.1144
 3298ntf    on516525   6.926   4.987   2.966  0.5154  0.6376 -0.0420
 3298ntf    on516526   7.067   5.262   2.824  0.6612 -0.0547 -0.0477
 3298ntf    on516527   6.876   5.398   2.769  0.1512  0.0307  0.0225
 3298ntf    fn416528   6.822   5.205   2.545 -0.4418 -0.0019  0.4563
 3298ntf    fn416529   7.004   5.307   2.514 -0.2847 -1.1667 -0.6447
 3298ntf    fn416530   7.007   5.100   2.569 -0.6151 -0.4384 -0.3984
 3299ntf    cn116531   5.601   1.460   1.261  0.0663 -0.4118 -0.2314
 3299ntf    sn216532   5.460   1.558   1.202  0.3269  0.2085  0.1673
 3299ntf    nn316533   5.434   1.647   1.329  0.0174 -0.2568  0.4345
 3299ntf    sn216534   5.342   1.619   1.453 -0.2549  0.1283  0.3207
 3299ntf    cn116535   5.207   1.724   1.391 -0.1939 -0.0479 -0.1136
 3299ntf    fn416536   5.669   1.383   1.177  0.7361  0.1705 -0.2270
 3299ntf    fn416537   5.693   1.548   1.295 -0.2700  0.1673 -0.8037
 3299ntf    fn416538   5.581   1.377   1.363 -0.5421  0.2575  0.2059
 3299ntf    on516539   5.502   1.635   1.089 -0.2269 -0.1355 -0.2811
 3299ntf    on516540   5.354   1.465   1.173  0.6376 -0.0301 -0.2052
 3299ntf    on516541   5.384   1.693   1.570  0.7542 -0.2355  0.1970
 3299ntf    on516542   5.283   1.488   1.465  0.1925 -0.1632 -0.6105
 3299ntf    fn416543   5.116   1.730   1.487  0.0529  0.6540  0.0843
 3299ntf    fn416544   5.251   1.847   1.367 -0.1340 -0.0800 -0.1694
 3299ntf    fn416545   5.149   1.681   1.280  0.0036 -0.4053 -0.0809
 3300ntf    cn116546   2.876   1.965   4.012  0.5172 -0.4989  0.0453
 3300ntf    sn216547   2.917   1.945   3.836  0.1977  0.4177 -0.1395
 3300ntf    nn316548   3.069   1.981   3.851  0.3560  0.0207 -0.7615
 3300ntf    sn216549   3.126   2.125   3.829  0.4452  0.1483  0.2691
 3300ntf    cn116550   3.132   2.115   3.648 -0.0065 -1.0513  0.3118
 3300ntf    fn416551   2.931   2.072   4.068 -0.1338  0.0043 -0.2619
 3300ntf    fn416552   2.750   1.959   4.051  0.4222 -0.1416 -0.2028
 3300ntf    fn416553   2.933   1.867   4.079  0.4621 -0.0629  0.7434
 3300ntf    on516554   2.896   1.803   3.822  0.3543  0.4115 -0.3148
 3300ntf    on516555   2.829   2.031   3.761 -0.0822  0.0960 -0.1851
 3300ntf    on516556   3.264   2.136   3.868  0.4596  0.8415  0.0442
 3300ntf    on516557   3.037   2.234   3.864  0.2163 -0.0225  0.2200
 3300ntf    fn416558   3.182   2.229   3.603 -0.1635 -1.0066  0.2484
 3300ntf    fn416559   3.205   2.018   3.596  0.3387 -0.3002 -0.6370
 3300ntf    fn416560   3.011   2.113   3.595 -0.2305  0.4665  0.7008
 3301ntf    cn116561   6.598   3.038   7.150 -0.1295 -0.3443  0.2084
 3301ntf    sn216562   6.699   3.115   7.280 -0.1553 -0.0084  0.0310
 3301ntf    nn316563   6.643   3.261   7.282 -0.5578 -0.1605  0.0643
 3301ntf    sn216564   6.551   3.336   7.386 -0.3145  0.1050  0.0903
 3301ntf    cn116565   6.670   3.426   7.490 -0.2584  0.5905 -0.3896
 3301ntf    fn416566   6.569   2.909   7.161 -1.0713 -0.2045 -0.4829
 3301ntf    fn416567   6.481   3.100   7.157 -0.1237 -0.3293  0.1710
 3301ntf    fn416568   6.654   3.058   7.032  0.1686 -0.1925  0.3738
 3301ntf    on516569   6.664   3.040   7.398 -0.0042  0.7099  0.5366
 3301ntf    on516570   6.836   3.119   7.236  0.0141  1.1839  0.6303
 3301ntf    on516571   6.466   3.256   7.470  0.3714 -0.5253  0.1972
 3301ntf    on516572   6.485   3.449   7.327 -0.2042  0.1205 -0.0036
 3301ntf    fn416573   6.763   3.481   7.413  0.6912 -0.5975 -0.1336
 3301ntf    fn416574   6.620   3.509   7.579 -0.2664 -0.2281  0.3826
 3301ntf    fn416575   6.740   3.345   7.568 -0.3474  0.5381 -0.3649
 3302ntf    cn116576   2.687   3.265   5.846 -0.2727 -0.2474 -0.1041
 3302ntf    sn216577   2.696   3.115   5.947 -0.0306  0.0186  0.2715
 3302ntf    nn316578   2.740   3.181   6.083  0.3334 -0.0145  0.1700
 3302ntf    sn216579   2.664   3.208   6.217  0.3506  0.5231  0.0724
 3302ntf    cn116580   2.748   3.084   6.320  0.3902  0.3786 -0.1327
 3302ntf    fn416581   2.586   3.334   5.897 -0.2641 -0.1875 -0.1679
 3302ntf    fn416582   2.796   3.340   5.851 -0.1731 -0.3851 -0.2174
 3302ntf    fn416583   2.656   3.255   5.718 -0.4074 -0.4799 -0.0529
 3302ntf    on516584   2.569   3.052   5.924  0.0697  0.1750 -0.7415
 3302ntf    on516585   2.808   3.044   5.891  0.0331 -0.0012  0.4220
 3302ntf    on516586   2.524   3.173   6.222  0.4171  0.3050  0.4315
 3302ntf    on516587   2.708   3.332   6.276 -0.0152  0.5125  0.3689
 3302ntf    fn416588   2.701   3.092   6.444  0.4667 -0.5364 -0.0403
 3302ntf    fn416589   2.728   2.958   6.284  0.0334  0.3540  0.1458
 3302ntf    fn416590   2.877   3.111   6.329  0.4567  0.1039 -0.2538
 3303ntf    cn116591   2.720   5.664   4.967  0.1192 -0.0473 -0.1664
 3303ntf    sn216592   2.803   5.559   5.090  0.2135  0.2217  0.0001
 3303ntf    nn316593   2.953   5.581   5.050  0.1750  0.1079 -0.2073
 3303ntf    sn216594   3.037   5.477   4.968 -0.0103 -0.1400 -0.0818
 3303ntf    cn116595   3.161   5.596   4.909 -0.4070  0.3912  0.1516
 3303ntf    fn416596   2.738   5.625   4.842  0.7224  0.4098 -0.2254
 3303ntf    fn416597   2.590   5.668   4.991  0.2103 -0.3799  0.4061
 3303ntf    fn416598   2.764   5.788   4.976  0.2167 -0.0690 -0.3310
 3303ntf    on516599   2.775   5.626   5.215 -0.2630  0.2299 -0.1094
 3303ntf    on516600   2.749   5.428   5.064 -0.0488  0.3375 -0.0386
 3303ntf    on516601   2.967   5.434   4.850  0.4040 -0.7583 -0.1058
 3303ntf    on516602   3.107   5.381   5.050  0.2957  0.1793  0.0341
 3303ntf    fn416603   3.183   5.689   5.001  0.1168  0.5965 -0.1770
 3303ntf    fn416604   3.273   5.531   4.882 -0.4886  0.2071  0.2570
 3303ntf    fn416605   3.127   5.648   4.792 -0.0805  0.4141  0.0666
 3304ntf    cn116606   5.092   5.689   6.263 -0.2902  0.0795  0.4148
 3304ntf    sn216607   5.126   5.530   6.345 -0.0298  0.1576  0.4578
 3304ntf    nn316608   5.188   5.448   6.226 -0.0783  0.0058  0.5368
 3304ntf    sn216609   5.329   5.383   6.205 -0.2368 -0.1959  0.0880
 3304ntf    cn116610   5.392   5.459   6.052 -0.1548 -0.4860 -0.0242
 3304ntf    fn416611   5.041   5.682   6.141  0.5204 -0.6552  0.1062
 3304ntf    fn416612   5.009   5.768   6.329 -0.4008 -0.0196  0.3950
 3304ntf    fn416613   5.202   5.759   6.240  0.1463 -0.6128  0.3666
 3304ntf    on516614   5.220   5.574   6.446  0.9767 -0.6559 -0.1007
 3304ntf    on516615   4.997   5.479   6.383  0.0711 -0.0232  0.5607
 3304ntf    on516616   5.324   5.244   6.169 -0.1310 -0.1717 -0.0220
 3304ntf    on516617   5.438   5.418   6.293 -0.0465 -0.5648  0.0012
 3304ntf    fn416618   5.348   5.397   5.944  0.1591 -0.5311 -0.1279
 3304ntf    fn416619   5.352   5.585   6.043  0.4262 -0.3106 -0.1931
 3304ntf    fn416620   5.523   5.453   6.033 -0.1386 -0.0050 -0.0953
 3305ntf    cn116621   4.777   5.108   2.675 -0.0491 -0.1735 -0.4750
 3305ntf    sn216622   4.792   5.200   2.831 -0.3223 -0.2822 -0.3847
 3305ntf    nn316623   4.716   5.099   2.924  0.2401 -0.2819  0.0790
 3305ntf    sn216624   4.753   5.044   3.067 -0.1465 -0.2055  0.2097
 3305ntf    cn116625   4.675   5.176   3.166  0.1088 -0.1812  0.3772
 3305ntf    fn416626   4.852   5.166   2.583 -0.0389  0.0239 -0.3446
 3305ntf    fn416627   4.826   4.986   2.694  0.0907 -0.0426  0.0425
 3305ntf    fn416628   4.654   5.099   2.627 -0.1139  0.0557 -0.3498
 3305ntf    on516629   4.935   5.211   2.847 -0.3463 -0.6414  0.1155
 3305ntf    on516630   4.718   5.321   2.806  0.0102 -0.1096 -0.5361
 3305ntf    on516631   4.891   5.065   3.103 -0.0358 -0.6055  0.0236
 3305ntf    on516632   4.692   4.920   3.109 -0.5318 -0.3725 -0.8044
 3305ntf    fn416633   4.718   5.166   3.291  0.0515  0.1312  0.4203
 3305ntf    fn416634   4.695   5.300   3.125 -0.4860 -0.2455 -0.1241
 3305ntf    fn416635   4.545   5.156   3.155  0.1755 -0.3131 -0.1978
 3306ntf    cn116636   1.967   3.948   0.658  0.1946  0.2561 -0.5891
 3306ntf    sn216637   2.147   3.970   0.667  0.2077 -0.1577  0.2899
 3306ntf    nn316638   2.171   3.955   0.821  1.1990 -0.1179  0.1466
 3306ntf    sn216639   2.199   4.064   0.931  0.0323  0.0601  0.2825
 3306ntf    cn116640   2.346   3.989   1.007 -0.1911 -0.3882  0.2797
 3306ntf    fn416641   1.931   3.969   0.532  0.0587  0.6146 -0.4914
 3306ntf    fn416642   1.916   3.832   0.696  0.4616  0.2657 -0.1896
 3306ntf    fn416643   1.893   4.036   0.724  0.0923 -0.0957 -0.2309
 3306ntf    on516644   2.196   3.870   0.576 -0.2860 -0.9069  0.8330
 3306ntf    on516645   2.166   4.105   0.619  0.0504 -0.2457 -0.0186
 3306ntf    on516646   2.102   4.067   1.037 -0.0497  0.1362  0.2060
 3306ntf    on516647   2.236   4.198   0.893 -0.9013  0.2244 -0.0853
 3306ntf    fn416648   2.447   3.990   0.921 -0.5352  0.3502 -0.1336
 3306ntf    fn416649   2.395   4.042   1.118  0.0191  0.7669 -0.3436
 3306ntf    fn416650   2.335   3.861   1.037 -0.3278 -0.4730 -0.1183
 3307ntf    cn116651   5.312   6.225   2.842 -0.1494  0.4624 -0.0238
 3307ntf    sn216652   5.484   6.175   2.813 -0.2540  0.0659  0.0376
 3307ntf    nn316653   5.550   6.218   2.948  0.0708 -0.5192  0.0675
 3307ntf    sn216654   5.673   6.314   2.966 -0.2242 -0.1835  0.3047
 3307ntf    cn116655   5.775   6.226   3.088  0.3959  0.1316  0.0217
 3307ntf    fn416656   5.294   6.354   2.867 -0.8716  0.3688 -0.0233
 3307ntf    fn416657   5.229   6.200   2.742 -0.1730 -0.2983  0.1822
 3307ntf    fn416658   5.267   6.163   2.950  0.5983  0.2812  0.1831
 3307ntf    on516659   5.474   6.032   2.796  0.2302  0.0223  0.1220
 3307ntf    on516660   5.519   6.246   2.692  0.4405  0.0074  0.2031
 3307ntf    on516661   5.631   6.433   3.036 -0.0012 -0.2797  0.6037
 3307ntf    on516662   5.765   6.334   2.857  0.8033 -1.0289  1.0045
 3307ntf    fn416663   5.700   6.172   3.183 -0.2856 -0.2748 -0.7280
 3307ntf    fn416664   5.841   6.123   3.037 -0.0907 -0.0615 -0.2323
 3307ntf    fn416665   5.867   6.306   3.138  0.4418  0.1376 -0.0720
 3308ntf    cn116666   3.929   3.113   4.126  0.3465  0.1324 -0.0044
 3308ntf    sn216667   3.937   2.974   4.009 -0.3014 -0.0437  0.1529
 3308ntf    nn316668   4.066   2.907   4.070 -0.3542 -0.3511 -0.0741
 3308ntf    sn216669   4.155   2.789   4.018 -0.0687 -0.3340  0.3766
 3308ntf    cn116670   4.098   2.646   4.116 -0.2941 -0.4071  0.1402
 3308ntf    fn416671   3.817   3.181   4.108 -0.0838 -0.7760 -0.8400
 3308ntf    fn416672   3.933   3.083   4.255  0.4548 -0.7483 -0.2087
 3308ntf    fn416673   4.024   3.204   4.109 -0.0318  0.4303 -0.5534
 3308ntf    on516674   3.813   2.905   4.028 -0.4889  0.3259  0.2880
 3308ntf    on516675   3.957   3.041   3.883  0.1409 -0.2927  0.0878
 3308ntf    on516676   4.296   2.803   4.044 -0.2400  0.1455  1.0812
 3308ntf    on516677   4.115   2.748   3.886  0.5076  1.1891 -0.2868
 3308ntf    fn416678   4.159   2.533   4.085  0.1015 -0.1369 -0.0837
 3308ntf    fn416679   4.121   2.664   4.245 -0.1773 -0.1964  0.0906
 3308ntf    fn416680   3.972   2.613   4.092 -0.2541 -0.3171 -0.1974
 3309ntf    cn116681   0.479   4.490   3.932 -0.1706  0.5984 -0.0248
 3309ntf    sn216682   0.528   4.418   3.772 -0.2143  0.1403  0.1687
 3309ntf    nn316683   0.505   4.265   3.802  0.2530  0.0243 -0.0626
 3309ntf    sn216684   0.393   4.179   3.734 -0.0842  0.2888  0.1577
 3309ntf    cn116685   0.340   4.092   3.884 -0.0819 -0.2660 -0.1614
 3309ntf    fn416686   0.561   4.452   4.028  0.1824  0.3518 -0.4212
 3309ntf    fn416687   0.499   4.621   3.938  0.5608  0.4731  0.4432
 3309ntf    fn416688   0.356   4.460   3.969  0.1278 -0.0448  0.4491
 3309ntf    on516689   0.442   4.476   3.672 -0.1565  0.2819  0.2011
 3309ntf    on516690   0.667   4.448   3.753 -0.1779  0.0290  0.2592
 3309ntf    on516691   0.451   4.072   3.657 -0.2453  0.1201  0.2702
 3309ntf    on516692   0.271   4.247   3.697 -0.2661 -0.2694 -0.2855
 3309ntf    fn416693   0.232   4.020   3.860 -0.4694  0.2714 -0.0418
 3309ntf    fn416694   0.439   4.023   3.938  0.2781  0.2212 -0.1930
 3309ntf    fn416695   0.309   4.182   3.976 -0.5887 -0.3944 -0.2053
 3310ntf    cn116696   5.120   0.948   0.640 -0.2863 -0.1766  0.6991
 3310ntf    sn216697   5.144   1.127   0.664 -0.3033 -0.0217 -0.3973
 3310ntf    nn316698   5.226   1.177   0.540  0.1182  0.7887  0.1984
 3310ntf    sn216699   5.381   1.185   0.516  0.1547  0.0455  0.1570
 3310ntf    cn116700   5.389   1.353   0.447  0.3478 -0.1834 -0.3867
 3310ntf    fn416701   5.060   0.922   0.525  0.6428  0.5477  0.0258
 3310ntf    fn416702   5.235   0.884   0.645  0.2103  0.6544  0.2318
 3310ntf    fn416703   5.044   0.892   0.732 -0.2957 -0.1788  0.6899
 3310ntf    on516704   5.007   1.170   0.650 -0.2873  0.1159 -0.1249
 3310ntf    on516705   5.201   1.153   0.793  0.4024 -0.5612 -0.5949
 3310ntf    on516706   5.426   1.107   0.403  0.4383  0.3441  0.0599
 3310ntf    on516707   5.461   1.195   0.636 -0.1551  0.0783  0.3624
 3310ntf    fn416708   5.378   1.353   0.316  0.1037 -0.1747 -0.3668
 3310ntf    fn416709   5.282   1.417   0.492 -0.3885 -1.0439 -0.8817
 3310ntf    fn416710   5.494   1.424   0.483  0.4162 -0.6051  0.2727
 3311ntf    cn116711   1.578   6.819   2.337 -0.2523  0.8398  0.1282
 3311ntf    sn216712   1.609   6.799   2.515  0.3841  0.2628 -0.0450
 3311ntf    nn316713   1.531   6.922   2.572 -0.4813 -0.3718  0.1727
 3311ntf    sn216714   1.583   7.070   2.583 -0.3515 -0.3684 -0.4811
 3311ntf    cn116715   1.595   7.077   2.764 -0.3995  0.0030 -0.4919
 3311ntf    fn416716   1.681   6.766   2.273 -0.4774  0.3908  0.1347
 3311ntf    fn416717   1.470   6.759   2.291  0.5229 -0.1747 -0.4048
 3311ntf    fn416718   1.559   6.943   2.296 -0.2115  0.7583 -0.1364
 3311ntf    on516719   1.536   6.678   2.545  0.2993  0.3545  0.1172
 3311ntf    on516720   1.751   6.787   2.538  0.4013  0.4233 -0.0711
 3311ntf    on516721   1.483   7.172   2.562 -0.7863 -0.6451  0.2585
 3311ntf    on516722   1.716   7.091   2.530 -0.1529 -0.8672 -0.1859
 3311ntf    fn416723   1.475   7.099   2.816 -0.0942 -0.3996  0.3899
 3311ntf    fn416724   1.656   6.974   2.820 -0.0440  0.2842 -0.3605
 3311ntf    fn416725   1.677   7.175   2.800 -0.1908 -0.2887 -0.1726
 3312ntf    cn116726   1.332   3.420   5.174  0.1181 -0.4536  0.3954
 3312ntf    sn216727   1.191   3.384   5.282 -0.1574  0.1604  0.2446
 3312ntf    nn316728   1.267   3.353   5.416  0.0707 -0.1667  0.0390
 3312ntf    sn216729   1.291   3.435   5.547  0.2537 -0.3200  0.1014
 3312ntf    cn116730   1.133   3.436   5.637  0.3320  0.3395  0.2413
 3312ntf    fn416731   1.280   3.457   5.058 -0.0116 -0.8560  0.3262
 3312ntf    fn416732   1.417   3.511   5.218  0.2166 -0.2928 -0.1241
 3312ntf    fn416733   1.403   3.313   5.143  0.1215 -0.4210  0.2869
 3312ntf    on516734   1.117   3.508   5.292 -0.2108  0.1574 -0.1069
 3312ntf    on516735   1.121   3.275   5.220  0.1362  0.1583 -0.0813
 3312ntf    on516736   1.328   3.574   5.533  0.1658 -0.2539  0.5051
 3312ntf    on516737   1.380   3.362   5.634  0.3483 -0.4726 -0.1224
 3312ntf    fn416738   1.136   3.497   5.754 -0.0277  0.2712  0.2878
 3312ntf    fn416739   1.032   3.477   5.562  0.0996 -0.7197 -0.0426
 3312ntf    fn416740   1.106   3.313   5.678  0.0280  0.2652 -0.1760
 3313ntf    cn116741   6.177   6.418   2.837  0.3411  0.1304  0.0585
 3313ntf    sn216742   6.186   6.350   2.668 -0.1205 -0.3139  0.2103
 3313ntf    nn316743   6.243   6.476   2.595  0.0220 -0.6053 -0.1846
 3313ntf    sn216744   6.281   6.491   2.444 -0.0486 -0.0130 -0.1480
 3313ntf    cn116745   6.137   6.578   2.374 -0.1010 -0.2242 -0.3030
 3313ntf    fn416746   6.125   6.328   2.919  0.8410 -0.3118 -0.1002
 3313ntf    fn416747   6.292   6.450   2.893  0.3395 -0.1591  0.2300
 3313ntf    fn416748   6.098   6.523   2.845  0.4267  0.1728  0.3572
 3313ntf    on516749   6.281   6.242   2.672  0.5995  0.2822 -0.4463
 3313ntf    on516750   6.049   6.318   2.634 -0.1734 -0.3230  0.4249
 3313ntf    on516751   6.278   6.371   2.364  0.3055 -0.0508 -0.1072
 3313ntf    on516752   6.389   6.584   2.421  0.5339 -0.7309 -0.3672
 3313ntf    fn416753   6.142   6.605   2.245  0.3169 -0.6070 -0.3710
 3313ntf    fn416754   6.033   6.500   2.398 -0.3065  0.1473  0.0208
 3313ntf    fn416755   6.116   6.692   2.437  0.2350 -0.2081 -0.2169
 3314ntf    cn116756   0.908   3.817   5.984  0.2966  0.0628 -0.0804
 3314ntf    sn216757   0.940   3.700   6.119 -0.0434  0.0300 -0.0270
 3314ntf    nn316758   0.895   3.784   6.244  0.7139 -0.3026  0.4781
 3314ntf    sn216759   0.760   3.782   6.324  0.0047 -0.0342 -0.6734
 3314ntf    cn116760   0.655   3.888   6.221  0.1032  0.1633 -0.5710
 3314ntf    fn416761   0.976   3.778   5.878  0.1260 -0.1840 -0.0999
 3314ntf    fn416762   0.778   3.819   5.958  0.2801  0.3592  0.0169
 3314ntf    fn416763   0.941   3.943   6.011 -0.1323  0.0010  0.7779
 3314ntf    on516764   0.866   3.580   6.087  0.6665 -0.4676  0.1789
 3314ntf    on516765   1.083   3.687   6.124 -0.1050 -0.3922  0.7504
 3314ntf    on516766   0.762   3.859   6.446 -0.1494 -0.3862 -0.4460
 3314ntf    on516767   0.693   3.654   6.331 -0.5835  0.2799 -0.4587
 3314ntf    fn416768   0.618   3.821   6.113 -0.0830  0.5362 -0.7405
 3314ntf    fn416769   0.544   3.930   6.280  0.5320  0.0143  0.3621
 3314ntf    fn416770   0.720   3.993   6.174  0.6966 -0.1513 -0.4536
 3315ntf    cn116771   4.555   2.314   6.508  0.1594 -0.2286 -0.4207
 3315ntf    sn216772   4.396   2.343   6.426 -0.1481  0.1509  0.3063
 3315ntf    nn316773   4.434   2.274   6.291 -0.5507  0.1406  0.1949
 3315ntf    sn216774   4.393   2.131   6.240 -0.2562  0.2005 -0.2142
 3315ntf    cn116775   4.462   2.154   6.073  0.5080 -0.0676  0.0570
 3315ntf    fn416776   4.659   2.353   6.436  0.8135  0.1794  0.7148
 3315ntf    fn416777   4.563   2.371   6.627  0.0673  0.1290 -0.5832
 3315ntf    fn416778   4.573   2.184   6.529  0.0505 -0.3164 -0.8555
 3315ntf    on516779   4.299   2.280   6.512 -0.6528  0.8862  0.2867
 3315ntf    on516780   4.390   2.487   6.430  0.0242  0.1909 -0.6531
 3315ntf    on516781   4.253   2.105   6.224 -0.2171  0.1727 -0.5198
 3315ntf    on516782   4.480   2.027   6.290 -0.0100  0.3755 -0.2734
 3315ntf    fn416783   4.594   2.162   6.067  0.5314 -0.1616  0.4510
 3315ntf    fn416784   4.424   2.067   5.981 -0.1162  0.2940 -0.0348
 3315ntf    fn416785   4.418   2.263   6.012  0.5410 -0.2983 -0.3830
 3316ntf    cn116786   5.902   2.943   5.086 -0.3460 -0.0595 -0.2239
 3316ntf    sn216787   5.947   2.767   5.092  0.3179  0.1136 -0.0622
 3316ntf    nn316788   5.916   2.726   4.944 -0.3519 -0.0094  0.1094
 3316ntf    sn216789   6.018   2.703   4.827  0.1901  0.5088  0.4725
 3316ntf    cn116790   6.013   2.523   4.808 -0.3253  0.5894 -0.2220
 3316ntf    fn416791   5.893   3.005   5.203  0.5026  0.3423 -0.3603
 3316ntf    fn416792   5.993   3.006   5.012 -0.3476  0.1422 -0.0556
 3316ntf    fn416793   5.784   2.960   5.029 -0.2631 -0.2127 -0.4429
 3316ntf    on516794   6.084   2.773   5.136  0.2116 -0.6010  0.3708
 3316ntf    on516795   5.848   2.712   5.181  0.5713 -0.0086  0.1441
 3316ntf    on516796   6.158   2.735   4.842  0.2784  0.2870  0.1358
 3316ntf    on516797   5.965   2.754   4.702 -0.0971 -0.1793  0.3107
 3316ntf    fn416798   6.092   2.489   4.707 -0.2550 -1.1117  0.3720
 3316ntf    fn416799   6.054   2.454   4.914 -0.7239  0.3515 -0.2210
 3316ntf    fn416800   5.896   2.467   4.780 -0.4654  0.8661 -0.1896
 3317ntf    cn116801   6.787   6.738   3.460 -0.1129 -0.1484 -0.0727
 3317ntf    sn216802   6.693   6.709   3.307  0.0052  0.3191 -0.2368
 3317ntf    nn316803   6.546   6.728   3.358 -0.0763 -0.0418 -0.3346
 3317ntf    sn216804   6.456   6.856   3.359 -0.1772 -0.1141  0.1737
 3317ntf    cn116805   6.449   6.912   3.532  0.1097  0.0314  0.1384
 3317ntf    fn416806   6.738   6.667   3.560 -0.2700  0.3055  0.1761
 3317ntf    fn416807   6.912   6.698   3.450 -0.0393  0.0746 -0.0495
 3317ntf    fn416808   6.791   6.864   3.501  0.0046 -0.3339  0.4999
 3317ntf    on516809   6.741   6.800   3.206 -0.1309  0.3925 -0.2358
 3317ntf    on516810   6.720   6.569   3.284  0.4280  0.2755  0.4841
 3317ntf    on516811   6.318   6.819   3.335 -0.1792 -0.1063  0.1747
 3317ntf    on516812   6.501   6.969   3.281  0.0363 -0.0120  0.4465
 3317ntf    fn416813   6.386   7.028   3.540 -0.5344 -0.3362  0.4604
 3317ntf    fn416814   6.387   6.823   3.608 -0.3046 -0.2020 -0.4652
 3317ntf    fn416815   6.569   6.924   3.586  0.2795  0.0074 -0.2246
 3318ntf    cn116816   4.541   4.413   2.845 -0.2624 -0.1823  0.1348
 3318ntf    sn216817   4.393   4.307   2.858 -0.2875 -0.1906 -0.2087
 3318ntf    nn316818   4.465   4.185   2.927  0.0483 -0.0034 -0.2209
 3318ntf    sn216819   4.404   4.085   3.032  0.0398 -0.2665 -0.4722
 3318ntf    cn116820   4.422   3.933   2.934  0.2007 -0.3302 -0.3450
 3318ntf    fn416821   4.569   4.439   2.719 -0.0114 -0.0232  0.2241
 3318ntf    fn416822   4.535   4.524   2.917  0.5477 -0.2214  0.2733
 3318ntf    fn416823   4.642   4.354   2.908  0.1264  0.6849  0.3256
 3318ntf    on516824   4.305   4.388   2.939 -0.0972  0.6113 -0.7961
 3318ntf    on516825   4.354   4.293   2.720 -0.1670  0.3732 -0.3030
 3318ntf    on516826   4.263   4.085   3.060  0.0552  0.3327 -0.3685
 3318ntf    on516827   4.499   4.063   3.138 -0.4013 -0.2623 -0.0727
 3318ntf    fn416828   4.548   3.914   2.900  0.1901 -0.0174 -0.5662
 3318ntf    fn416829   4.367   3.829   2.995  0.4911 -0.4276 -0.2510
 3318ntf    fn416830   4.362   3.945   2.817 -0.0969 -0.4098 -0.2027
 3319ntf    cn116831   1.178   1.396   3.126 -0.2094  0.0306  0.0903
 3319ntf    sn216832   1.299   1.529   3.099 -0.2262  0.0559  0.1391
 3319ntf    nn316833   1.343   1.544   3.249 -0.3456 -0.3454  0.2176
 3319ntf    sn216834   1.458   1.461   3.315 -0.2976 -0.2665  0.2334
 3319ntf    cn116835   1.601   1.562   3.263 -0.3055 -0.2335  0.2758
 3319ntf    fn416836   1.114   1.419   3.239  0.0396  0.2856  0.1795
 3319ntf    fn416837   1.074   1.415   3.046 -0.0698 -0.0133 -0.1038
 3319ntf    fn416838   1.226   1.273   3.127  0.2181  0.1963  0.3155
 3319ntf    on516839   1.395   1.474   3.006 -0.6046 -0.1793 -0.1181
 3319ntf    on516840   1.228   1.649   3.063  0.6437  0.3760 -0.5552
 3319ntf    on516841   1.490   1.330   3.264  0.2479 -0.1112  0.1718
 3319ntf    on516842   1.478   1.481   3.456 -0.3604  0.5091  0.1353
 3319ntf    fn416843   1.600   1.682   3.318 -0.3084 -0.1788  0.1570
 3319ntf    fn416844   1.714   1.510   3.308  0.0344 -0.3081 -0.6552
 3319ntf    fn416845   1.625   1.564   3.133  0.2336 -0.3266  0.3728
 3320ntf    cn116846   5.779   3.348   4.814 -0.1033 -0.0793  0.0098
 3320ntf    sn216847   5.921   3.402   4.715  0.1259 -0.2404  0.2513
 3320ntf    nn316848   5.864   3.404   4.569 -0.0178  0.4116  0.3111
 3320ntf    sn216849   5.891   3.497   4.446 -0.0511  0.2685  0.1951
 3320ntf    cn116850   5.760   3.622   4.466 -0.0369  0.2283  0.5296
 3320ntf    fn416851   5.814   3.361   4.941  0.6105 -0.5695 -0.1315
 3320ntf    fn416852   5.667   3.418   4.801  0.2436  0.3972 -0.4716
 3320ntf    fn416853   5.745   3.222   4.795  0.2890 -0.2388  0.3585
 3320ntf    on516854   5.934   3.538   4.762 -0.0875  0.0444 -0.4907
 3320ntf    on516855   6.030   3.312   4.744  0.2100 -0.2351 -0.0479
 3320ntf    on516856   5.850   3.425   4.328 -0.4787  0.5609  0.1650
 3320ntf    on516857   6.018   3.566   4.448  0.1181 -0.0533  0.7463
 3320ntf    fn416858   5.646   3.556   4.473  0.0409  0.0409  0.0478
 3320ntf    fn416859   5.768   3.695   4.576  0.4832  0.3981  0.3840
 3320ntf    fn416860   5.750   3.713   4.372  0.0939 -0.3674 -0.0686
 3321ntf    cn116861   3.297   1.022   2.561 -0.4328 -0.2889  0.5926
 3321ntf    sn216862   3.402   1.163   2.606 -0.5298 -0.0962  0.2170
 3321ntf    nn316863   3.464   1.126   2.745 -0.0575 -0.1864 -0.0168
 3321ntf    sn216864   3.612   1.080   2.771 -0.0441 -0.2162 -0.1423
 3321ntf    cn116865   3.636   0.937   2.661 -0.2946 -0.1405 -0.2942
 3321ntf    fn416866   3.200   1.005   2.648 -0.5568 -0.2900  0.4538
 3321ntf    fn416867   3.232   1.044   2.448  0.6945 -0.2673 -0.0774
 3321ntf    fn416868   3.367   0.910   2.548  0.2125  0.1207  0.5008
 3321ntf    on516869   3.496   1.176   2.497  0.0355  0.6347  0.7786
 3321ntf    on516870   3.310   1.274   2.609 -0.1362  0.2479 -0.2281
 3321ntf    on516871   3.617   1.029   2.906 -0.4357  0.4261  0.1145
 3321ntf    on516872   3.715   1.175   2.738 -0.3984  0.2331  0.0364
 3321ntf    fn416873   3.559   0.832   2.684  0.4641 -0.6254  0.0387
 3321ntf    fn416874   3.622   0.954   2.530  0.1904 -0.2824 -0.3642
 3321ntf    fn416875   3.756   0.882   2.659 -0.2130  0.0269 -0.0967
 3322ntf    cn116876   1.596   0.621   2.244 -0.0549 -0.1027 -0.7605
 3322ntf    sn216877   1.440   0.708   2.279 -0.0659 -0.3216 -0.2603
 3322ntf    nn316878   1.340   0.587   2.265  0.1642 -0.5189 -0.2154
 3322ntf    sn216879   1.208   0.558   2.345 -0.1623  0.4577 -0.3889
 3322ntf    cn116880   1.091   0.593   2.210 -0.1880  0.5958 -0.3319
 3322ntf    fn416881   1.603   0.548   2.354 -0.0412 -0.2055 -0.8303
 3322ntf    fn416882   1.600   0.542   2.139  0.5171 -0.0122 -0.8113
 3322ntf    fn416883   1.699   0.704   2.250 -0.2070  0.0197  0.5865
 3322ntf    on516884   1.458   0.757   2.413  0.7267  0.3619 -0.6131
 3322ntf    on516885   1.434   0.795   2.165  0.2165 -0.5547 -0.4544
 3322ntf    on516886   1.165   0.647   2.450 -0.6098  0.4246 -0.5406
 3322ntf    on516887   1.187   0.418   2.367 -0.1153  0.5153  0.0299
 3322ntf    fn416888   1.066   0.484   2.138  0.4328  0.4164 -0.2840
 3322ntf    fn416889   0.970   0.630   2.251 -0.2339  0.3476 -0.2368
 3322ntf    fn416890   1.134   0.684   2.125 -0.0602  0.3475 -0.5326
 3323ntf    cn116891   4.912   5.548   7.045 -0.2229 -0.1879  0.0924
 3323ntf    sn216892   4.975   5.421   6.931 -0.3732 -0.1080 -0.0798
 3323ntf    nn316893   5.112   5.378   6.995 -0.1440  0.6466 -0.0514
 3323ntf    sn216894   5.254   5.355   6.933 -0.3108 -0.1109 -0.1677
 3323ntf    cn116895   5.330   5.275   7.077 -0.0689 -0.0586 -0.2653
 3323ntf    fn416896   4.930   5.520   7.173 -0.1110  0.5513  0.2409
 3323ntf    fn416897   4.984   5.658   7.026  0.1881 -0.5063 -0.2342
 3323ntf    fn416898   4.785   5.578   7.024 -0.1628 -0.2310 -0.3612
 3323ntf    on516899   4.873   5.320   6.939 -0.0956 -0.3969 -0.1836
 3323ntf    on516900   4.977   5.479   6.798  1.2904  0.7874  0.3021
 3323ntf    on516901   5.333   5.473   6.904  0.4808 -0.6113 -0.0690
 3323ntf    on516902   5.246   5.252   6.832 -0.9966 -0.8286  0.6092
 3323ntf    fn416903   5.321   5.351   7.184  0.3645 -0.6292  0.1811
 3323ntf    fn416904   5.271   5.159   7.101  0.2581 -0.2705 -0.4619
 3323ntf    fn416905   5.456   5.247   7.046 -0.0729 -0.4292  0.0476
 3324ntf    cn116906   4.852   2.108   2.790 -0.1494  0.1957 -0.0585
 3324ntf    sn216907   4.951   2.023   2.664  0.3143  0.2433  0.2740
 3324ntf    nn316908   5.027   2.136   2.586 -0.1523  0.2176 -0.2180
 3324ntf    sn216909   5.173   2.193   2.587  0.0114 -0.2130  0.3006
 3324ntf    cn116910   5.161   2.373   2.568  0.0673 -0.2713 -0.3099
 3324ntf    fn416911   4.919   2.210   2.840  0.6161 -0.2475 -0.1711
 3324ntf    fn416912   4.739   2.160   2.744 -0.0656 -0.3600 -0.9070
 3324ntf    fn416913   4.820   2.031   2.893 -0.4888  0.6645  0.1902
 3324ntf    on516914   5.036   1.933   2.739 -0.3967 -0.6185  0.0653
 3324ntf    on516915   4.855   1.961   2.577  0.5485 -0.2574  0.3657
 3324ntf    on516916   5.238   2.155   2.464  0.0763 -0.0854  0.2957
 3324ntf    on516917   5.250   2.180   2.708  0.5353  0.4830  0.0486
 3324ntf    fn416918   5.257   2.427   2.495 -0.1659 -0.1309 -0.5184
 3324ntf    fn416919   5.048   2.409   2.508 -0.2568  0.3637  0.6528
 3324ntf    fn416920   5.159   2.437   2.684  0.4918  0.0678 -0.4881
 3325ntf    cn116921   4.688   3.658   5.646 -0.4209  0.1496 -0.1937
 3325ntf    sn216922   4.629   3.829   5.635  0.2165  0.3651 -0.2946
 3325ntf    nn316923   4.766   3.904   5.623  0.4364  0.0040 -0.0478
 3325ntf    sn216924   4.844   3.953   5.496  0.2330  0.0071 -0.1710
 3325ntf    cn116925   4.787   4.124   5.471  0.3611  0.0850  0.0686
 3325ntf    fn416926   4.723   3.625   5.769 -0.2444  0.1490 -0.2440
 3325ntf    fn416927   4.591   3.574   5.613  0.1981 -0.5734 -0.2012
 3325ntf    fn416928   4.797   3.635   5.575 -0.1903  0.2591  0.1237
 3325ntf    on516929   4.540   3.829   5.521  0.4740 -0.0911 -0.4985
 3325ntf    on516930   4.568   3.848   5.764  0.8544  0.5314 -0.0158
 3325ntf    on516931   4.817   3.893   5.367 -0.0726  0.0459 -0.1252
 3325ntf    on516932   4.984   3.975   5.521  0.3205  0.0407 -0.6751
 3325ntf    fn416933   4.859   4.189   5.382 -0.0419 -0.1132 -0.4061
 3325ntf    fn416934   4.665   4.134   5.421  0.6824  0.0003 -0.7407
 3325ntf    fn416935   4.786   4.186   5.588  0.7650  0.5248 -0.1604
 3326ntf    cn116936   6.233   2.373   1.747  0.4044  0.2132 -0.3733
 3326ntf    sn216937   6.184   2.236   1.637  0.0821 -0.1490  0.2184
 3326ntf    nn316938   6.321   2.228   1.562 -0.1952  0.5373 -0.3731
 3326ntf    sn216939   6.355   2.205   1.410  0.2167 -0.0466 -0.1957
 3326ntf    cn116940   6.399   2.375   1.363  0.2540  0.0068  0.0297
 3326ntf    fn416941   6.340   2.337   1.816  0.5185  0.7206 -0.2830
 3326ntf    fn416942   6.260   2.485   1.682  0.3201  0.2407 -0.3607
 3326ntf    fn416943   6.146   2.410   1.840  1.1961 -0.4106  0.6342
 3326ntf    on516944   6.166   2.124   1.726  0.4982 -0.1336  0.3252
 3326ntf    on516945   6.074   2.290   1.561 -0.3573 -0.3945  0.6707
 3326ntf    on516946   6.244   2.179   1.322  0.3200  0.2757 -0.4216
 3326ntf    on516947   6.476   2.129   1.390  0.5747  0.5860 -0.4358
 3326ntf    fn416948   6.508   2.425   1.419  0.4757 -0.1236 -0.2872
 3326ntf    fn416949   6.410   2.388   1.232  0.2415 -0.8493 -0.0669
 3326ntf    fn416950   6.302   2.454   1.406 -0.2692  0.0341 -1.1770
 3327ntf    cn116951   5.901   3.902   5.002  0.6255 -0.3232 -0.4073
 3327ntf    sn216952   5.862   4.072   4.948  0.4166 -0.1429  0.3044
 3327ntf    nn316953   5.828   4.127   5.091 -0.4140 -0.0914  0.0958
 3327ntf    sn216954   5.919   4.202   5.195 -0.1348 -0.2063 -0.0652
 3327ntf    cn116955   5.806   4.336   5.242  0.1350  0.0645 -0.1838
 3327ntf    fn416956   5.878   3.804   4.917 -0.0488 -0.4651 -0.0672
 3327ntf    fn416957   6.030   3.894   5.030  0.4780  0.4954  0.5758
 3327ntf    fn416958   5.839   3.871   5.115  0.0828  0.1322 -0.5697
 3327ntf    on516959   5.983   4.120   4.887  0.3993 -0.0494  0.3433
 3327ntf    on516960   5.748   4.057   4.861  0.8072  0.5872 -0.3381
 3327ntf    on516961   6.033   4.281   5.153 -0.0897 -0.3805 -0.2732
 3327ntf    on516962   5.932   4.130   5.319  0.8282  0.0555 -0.0045
 3327ntf    fn416963   5.841   4.410   5.347 -0.4399  0.7155 -0.4438
 3327ntf    fn416964   5.785   4.424   5.145 -0.4626  0.2181  0.0837
 3327ntf    fn416965   5.689   4.279   5.262  0.3508 -0.3927 -0.2091
 3328ntf    cn116966   4.089   3.895   7.150  0.1337  0.2692 -0.3092
 3328ntf    sn216967   4.264   3.849   7.145  0.0084 -0.2359 -0.0742
 3328ntf    nn316968   4.255   3.732   7.250 -0.0356 -0.4800 -0.3469
 3328ntf    sn216969   4.341   3.712   7.380  0.3743  0.3049 -0.4899
 3328ntf    cn116970   4.229   3.766   7.513  0.1133 -0.2461 -0.4840
 3328ntf    fn416971   4.064   3.987   7.058  0.1065  0.5667 -0.0101
 3328ntf    fn416972   4.004   3.798   7.121  0.2314  0.1325 -0.1365
 3328ntf    fn416973   4.049   3.935   7.270 -0.0426 -0.3622 -0.1535
 3328ntf    on516974   4.270   3.798   7.010 -0.3332 -0.3617 -0.0441
 3328ntf    on516975   4.340   3.964   7.187 -0.2297 -0.1599  0.1503
 3328ntf    on516976   4.453   3.800   7.402  0.2243  0.3605  0.0668
 3328ntf    on516977   4.363   3.573   7.412 -0.0498  0.3697  0.1009
 3328ntf    fn416978   4.127   3.688   7.546 -0.2563  0.5194  0.2252
 3328ntf    fn416979   4.290   3.786   7.629 -0.5711  0.2267 -0.1996
 3328ntf    fn416980   4.171   3.877   7.471 -0.2479 -0.1775  0.1773
 3329ntf    cn116981   4.206   5.641   5.041  0.1334  0.2540  0.6534
 3329ntf    sn216982   4.037   5.678   5.099 -0.0453 -0.0609  0.3343
 3329ntf    nn316983   3.999   5.814   5.029  0.4948 -0.1515 -0.1489
 3329ntf    sn216984   3.858   5.859   4.979  0.2758 -0.3978  0.2414
 3329ntf    cn116985   3.865   5.800   4.807  0.1738  0.4839 -0.0729
 3329ntf    fn416986   4.248   5.524   5.084 -0.2121 -0.0421  0.1852
 3329ntf    fn416987   4.215   5.648   4.909 -0.4875 -0.0097  0.5916
 3329ntf    fn416988   4.298   5.730   5.075  0.2481  0.6288 -0.5645
 3329ntf    on516989   3.963   5.561   5.060 -0.2220  0.3591 -0.6218
 3329ntf    on516990   4.055   5.689   5.242  0.1999 -0.3981  0.3315
 3329ntf    on516991   3.841   5.999   4.949  0.2220 -0.5521 -0.4507
 3329ntf    on516992   3.747   5.785   5.034 -0.1173 -0.0765 -0.1128
 3329ntf    fn416993   3.780   5.872   4.736 -0.4149 -0.3178 -0.1947
 3329ntf    fn416994   3.984   5.812   4.752  0.2513 -0.3098 -0.1009
 3329ntf    fn416995   3.832   5.672   4.801  0.3776  0.4145  0.2515
 3330ntf    cn116996   1.561   2.791   5.644 -0.2247 -0.0485  0.0951
 3330ntf    sn216997   1.433   2.680   5.709 -0.3199 -0.1042 -0.1871
 3330ntf    nn316998   1.369   2.773   5.819  0.1477 -0.0393  0.0322
 3330ntf    sn216999   1.354   2.741   5.972 -0.2489  0.0465  0.0141
 3330ntf    cn117000   1.502   2.827   6.036 -0.1807  0.2163 -0.3699
 3330ntf    fn417001   1.645   2.817   5.743 -0.1200 -0.0806  0.0144
 3330ntf    fn417002   1.645   2.740   5.555 -0.0498  0.1512  0.1446
 3330ntf    fn417003   1.520   2.911   5.608 -0.1567  0.0738  0.4247
 3330ntf    on517004   1.334   2.658   5.606 -0.5062  0.0675 -0.0468
 3330ntf    on517005   1.501   2.564   5.760 -0.3493 -0.0632 -0.0539
 3330ntf    on517006   1.377   2.605   6.013  0.2640  0.3560  0.7962
 3330ntf    on517007   1.240   2.809   6.027 -0.0126  0.1969  0.3218
 3330ntf    fn417008   1.614   2.770   5.995  0.0451  0.3405  0.0740
 3330ntf    fn417009   1.518   2.953   5.999  0.1363  0.1226 -0.5503
 3330ntf    fn417010   1.509   2.830   6.168 -0.2277  0.2082 -0.3677
 3331ntf    cn117011   6.045   2.829   7.137  0.0506 -0.2302 -0.0370
 3331ntf    sn217012   6.094   2.805   7.311 -0.1057  0.0297  0.0429
 3331ntf    nn317013   6.079   2.651   7.334  0.2586 -0.0343 -0.1311
 3331ntf    sn217014   5.944   2.585   7.378  0.2349 -0.0292 -0.1979
 3331ntf    cn117015   5.961   2.602   7.558 -0.5322  0.5897 -0.1748
 3331ntf    fn417016   6.126   2.764   7.055  0.2273  0.1651 -0.1780
 3331ntf    fn417017   5.925   2.784   7.103 -0.2365  0.2268  0.3580
 3331ntf    fn417018   6.057   2.955   7.098 -0.8621  0.0611  0.5943
 3331ntf    on517019   6.233   2.842   7.296 -0.1657  0.0454 -0.5225
 3331ntf    on517020   6.007   2.894   7.383 -0.1254 -0.3927  0.5409
 3331ntf    on517021   5.950   2.442   7.359 -0.8039 -0.0834 -0.2151
 3331ntf    on517022   5.822   2.655   7.343  0.0233  0.0366  0.6521
 3331ntf    fn417023   5.865   2.671   7.616 -0.6105  0.1104  0.2765
 3331ntf    fn417024   5.952   2.480   7.609 -0.1724  0.9063  0.6574
 3331ntf    fn417025   6.082   2.642   7.592 -0.2404 -0.1209 -0.3488
 3332ntf    cn117026   5.188   6.438   4.811 -0.4986 -0.3650  0.1744
 3332ntf    sn217027   5.066   6.572   4.831  0.0263  0.0783  0.4243
 3332ntf    nn317028   5.160   6.682   4.892  0.2488  0.0205  0.1898
 3332ntf    sn217029   5.250   6.785   4.816 -0.1259  0.0394 -0.2315
 3332ntf    cn117030   5.156   6.941   4.806 -0.0053  0.1493  0.3210
 3332ntf    fn417031   5.235   6.396   4.927  0.1833 -0.3243 -0.0848
 3332ntf    fn417032   5.139   6.334   4.745  0.4892 -0.4145 -0.4856
 3332ntf    fn417033   5.297   6.479   4.750 -0.5631  0.3084  0.4990
 3332ntf    on517034   5.025   6.602   4.696  0.5891 -0.6434  0.0845
 3332ntf    on517035   4.973   6.509   4.921  0.1823 -0.7398  0.0227
 3332ntf    on517036   5.277   6.757   4.677  0.0706  0.0786 -0.2020
 3332ntf    on517037   5.362   6.837   4.892 -0.1779 -0.3417  0.1062
 3332ntf    fn417038   5.162   6.992   4.928 -0.0220 -0.0413  0.4021
 3332ntf    fn417039   5.221   7.021   4.723  0.3019 -0.4095  0.0102
 3332ntf    fn417040   5.029   6.925   4.776  0.0342  0.2644  0.0941
 3333ntf    cn117041   1.165   4.880   1.211 -0.1985 -0.5833  0.1981
 3333ntf    sn217042   1.304   4.941   1.312 -0.1004 -0.1402 -0.1988
 3333ntf    nn317043   1.315   5.084   1.249  0.0775 -0.1936 -0.2888
 3333ntf    sn217044   1.441   5.152   1.186  0.3298 -0.3793  0.0129
 3333ntf    cn117045   1.570   5.131   1.312  0.3060  0.3634  0.1625
 3333ntf    fn417046   1.192   4.860   1.083 -0.0158  0.2121  0.1077
 3333ntf    fn417047   1.131   4.759   1.254 -0.2979 -0.5608  0.1811
 3333ntf    fn417048   1.064   4.964   1.222  0.3650  0.1401 -0.1047
 3333ntf    on517049   1.252   4.949   1.447  0.0063 -0.7107 -0.1200
 3333ntf    on517050   1.405   4.843   1.283  0.5561  0.2460  0.7333
 3333ntf    on517051   1.425   5.294   1.167 -0.1687 -0.4695 -0.2414
 3333ntf    on517052   1.494   5.075   1.075  0.0999  0.4761 -0.7052
 3333ntf    fn417053   1.687   5.177   1.271  0.0935 -0.0213 -0.9110
 3333ntf    fn417054   1.545   5.200   1.422 -0.2574  0.2143  0.1294
 3333ntf    fn417055   1.589   5.008   1.357  0.3837  0.4192  0.2858
 3334ntf    cn117056   3.544   5.706   2.339 -0.0301 -0.0033  0.0402
 3334ntf    sn217057   3.382   5.787   2.352  0.0474  0.1555  0.0132
 3334ntf    nn317058   3.313   5.703   2.464  0.1961 -0.1511 -0.1237
 3334ntf    sn217059   3.160   5.699   2.498  0.2556  0.2268  0.1994
 3334ntf    cn117060   3.116   5.538   2.426  0.5072  0.3342 -0.2016
 3334ntf    fn417061   3.535   5.602   2.257 -0.5815 -0.2604  0.4189
 3334ntf    fn417062   3.640   5.781   2.288 -0.3953  0.5660  0.1906
 3334ntf    fn417063   3.600   5.657   2.449  0.5431  0.1148 -0.1938
 3334ntf    on517064   3.432   5.919   2.384 -0.0384  0.3001 -0.4426
 3334ntf    on517065   3.338   5.763   2.217 -0.0562 -0.0832  0.0891
 3334ntf    on517066   3.075   5.790   2.425  0.7798  0.0837 -0.6065
 3334ntf    on517067   3.130   5.693   2.639  0.4921  0.1557  0.2460
 3334ntf    fn417068   3.155   5.440   2.506 -0.1198  0.2398  0.0015
 3334ntf    fn417069   2.987   5.516   2.406  0.5522  0.1025 -0.2445
 3334ntf    fn417070   3.174   5.516   2.310  0.5302  0.2915 -0.1819
 3335ntf    cn117071   1.708   5.626   5.193  0.1381  0.1747 -0.0539
 3335ntf    sn217072   1.738   5.525   5.340 -0.2753  0.1452  0.0103
 3335ntf    nn317073   1.596   5.544   5.405 -0.3755  0.0586 -0.1824
 3335ntf    sn217074   1.479   5.441   5.421 -0.3221 -0.0101 -0.2357
 3335ntf    cn117075   1.417   5.481   5.587  0.1790 -0.4238  0.0537
 3335ntf    fn417076   1.592   5.598   5.135  0.0980 -0.1429  0.1804
 3335ntf    fn417077   1.716   5.753   5.229  0.0705  0.1217  0.1473
 3335ntf    fn417078   1.804   5.598   5.106  0.0733 -0.0817 -0.0436
 3335ntf    on517079   1.763   5.398   5.277 -0.3193  0.4982 -0.7192
 3335ntf    on517080   1.851   5.588   5.403 -0.1953 -0.7928  0.8370
 3335ntf    on517081   1.525   5.309   5.456 -0.1596  0.2329  0.4886
 3335ntf    on517082   1.367   5.463   5.333 -0.6952 -0.2364  0.1789
 3335ntf    fn417083   1.298   5.429   5.607 -0.2736  0.2732 -0.7487
 3335ntf    fn417084   1.499   5.431   5.679  0.2998  0.1972  0.2905
 3335ntf    fn417085   1.407   5.612   5.606  0.2258 -0.4512  0.2665
 3336ntf    cn117086   3.036   4.486   5.046  0.1254  0.1969  0.0270
 3336ntf    sn217087   3.203   4.518   4.982  0.1806  0.3119  0.2289
 3336ntf    nn317088   3.201   4.471   4.832 -0.4440  0.4593  0.1884
 3336ntf    sn217089   3.202   4.552   4.697 -0.0577 -0.2092 -0.2112
 3336ntf    cn117090   3.144   4.424   4.582 -0.3306 -0.3818  0.1147
 3336ntf    fn417091   3.008   4.360   5.073  0.2392  0.1803  0.0677
 3336ntf    fn417092   3.008   4.548   5.160 -0.3612 -0.5784  0.3414
 3336ntf    fn417093   2.942   4.526   4.962 -0.0105 -0.1953 -0.0082
 3336ntf    on517094   3.212   4.660   5.001 -0.3685  0.3769  0.0193
 3336ntf    on517095   3.276   4.424   5.064 -0.0336 -0.0514  0.0054
 3336ntf    on517096   3.336   4.572   4.647  0.0346  0.3085  0.2347
 3336ntf    on517097   3.097   4.650   4.691 -0.6367 -0.8154 -0.1801
 3336ntf    fn417098   3.225   4.321   4.594  0.4190  0.0746 -0.8827
 3336ntf    fn417099   3.020   4.389   4.612 -0.3644 -0.5026 -0.1576
 3336ntf    fn417100   3.151   4.463   4.455 -0.2514  0.0357  0.2441
 3337ntf    cn117101   7.001   6.290   4.243  0.1170  0.5546 -0.7458
 3337ntf    sn217102   7.121   6.154   4.224 -0.1278  0.1977  0.1903
 3337ntf    nn317103   7.038   6.059   4.131  0.4618  0.1481 -0.2911
 3337ntf    sn217104   7.040   6.057   3.974  0.4684 -0.1593 -0.2878
 3337ntf    cn117105   7.156   5.928   3.919  0.5613 -0.2039  0.0112
 3337ntf    fn417106   6.924   6.270   4.349  1.0229  0.5011 -0.0869
 3337ntf    fn417107   7.059   6.407   4.259  0.5538  0.1429  0.8555
 3337ntf    fn417108   6.910   6.295   4.147 -0.2688 -0.1698 -0.4298
 3337ntf    on517109   7.241   6.222   4.183  0.0285 -0.0288  0.2755
 3337ntf    on517110   7.133   6.090   4.352 -0.9314 -0.1630  0.0963
 3337ntf    on517111   7.084   6.173   3.900  0.4886 -0.3717 -0.6124
 3337ntf    on517112   6.914   6.015   3.919  0.2690 -0.5027  0.4246
 3337ntf    fn417113   7.149   5.825   4.003 -0.0735  0.0032  0.2143
 3337ntf    fn417114   7.129   5.893   3.794  0.2055 -0.6266  0.2030
 3337ntf    fn417115   7.285   5.960   3.924  0.4134  0.3407  0.4435
 3338ntf    cn117116   3.779   5.038   0.807  0.1813 -0.1088  0.1846
 3338ntf    sn217117   3.654   5.135   0.719 -0.0643 -0.3249  0.2949
 3338ntf    nn317118   3.553   5.018   0.693 -0.5415  0.2307 -0.4213
 3338ntf    sn217119   3.537   4.912   0.578  0.5881 -0.2250 -0.1714
 3338ntf    cn117120   3.427   5.005   0.468  0.1714  0.0906  0.5004
 3338ntf    fn417121   3.894   5.093   0.844 -0.0275  0.2555  0.2998
 3338ntf    fn417122   3.725   4.967   0.905  0.1509 -0.7165 -0.2673
 3338ntf    fn417123   3.825   4.944   0.727 -0.5462 -0.1712 -0.1663
 3338ntf    on517124   3.621   5.234   0.818 -0.0074 -0.1109  0.1029
 3338ntf    on517125   3.707   5.194   0.598 -0.5126 -0.1023  0.2019
 3338ntf    on517126   3.459   4.795   0.611 -0.2460  0.2492 -0.4487
 3338ntf    on517127   3.659   4.885   0.506  0.5784 -0.8527  0.0357
 3338ntf    fn417128   3.371   4.938   0.369  0.0714 -0.1317  0.7076
 3338ntf    fn417129   3.332   5.066   0.536  0.1840  0.2604  0.3676
 3338ntf    fn417130   3.494   5.103   0.408 -0.4605  0.0796 -0.2410
 3339ntf    cn117131   2.125   3.668   6.526  0.4183 -0.1545  0.4092
 3339ntf    sn217132   2.246   3.672   6.391  0.0557  0.1221  0.0886
 3339ntf    nn317133   2.357   3.575   6.448  0.2372  0.4539  0.3016
 3339ntf    sn217134   2.500   3.618   6.497  0.4197  0.0932  0.0849
 3339ntf    cn117135   2.554   3.468   6.585 -0.2266 -0.1598  0.0585
 3339ntf    fn417136   2.182   3.716   6.635  0.2327 -1.0631  0.9168
 3339ntf    fn417137   2.019   3.746   6.515  0.1785 -0.5755 -0.2796
 3339ntf    fn417138   2.081   3.545   6.546  0.3066 -0.1277  0.3285
 3339ntf    on517139   2.183   3.614   6.275  0.3957 -0.4204  0.1677
 3339ntf    on517140   2.286   3.810   6.382 -0.3727  0.2347 -0.0701
 3339ntf    on517141   2.494   3.719   6.599  0.1390 -0.0236  0.1873
 3339ntf    on517142   2.591   3.631   6.386  0.6893  0.6036  0.3641
 3339ntf    fn417143   2.657   3.487   6.666  0.0193 -0.2835 -0.2226
 3339ntf    fn417144   2.454   3.406   6.645  0.0797 -0.5663  0.1515
 3339ntf    fn417145   2.606   3.387   6.495  0.0363  0.1353 -0.0574
 3340ntf    cn117146   3.911   2.497   2.731 -0.0443  0.2502 -0.0429
 3340ntf    sn217147   3.885   2.329   2.667 -0.2168  0.3064 -0.1195
 3340ntf    nn317148   4.028   2.300   2.609 -0.4390 -0.4427 -0.2919
 3340ntf    sn217149   4.140   2.195   2.642 -0.1822 -0.0357  0.1386
 3340ntf    cn117150   4.258   2.313   2.713  0.0086  0.0814 -0.3692
 3340ntf    fn417151   3.818   2.580   2.687 -0.4368 -0.0946  0.1387
 3340ntf    fn417152   3.907   2.495   2.864 -0.4264  0.2053 -0.0546
 3340ntf    fn417153   4.028   2.544   2.690  0.2512 -0.2759  0.1901
 3340ntf    on517154   3.819   2.256   2.772 -0.3826  0.1547 -0.3272
 3340ntf    on517155   3.797   2.360   2.557 -0.0089 -0.1458 -0.4149
 3340ntf    on517156   4.198   2.145   2.520  0.5373 -0.1038  0.5059
 3340ntf    on517157   4.114   2.105   2.752 -0.4161  0.3613  0.4114
 3340ntf    fn417158   4.259   2.421   2.636  0.0566  0.2098 -0.1890
 3340ntf    fn417159   4.221   2.348   2.835  0.4005 -0.3832 -0.1099
 3340ntf    fn417160   4.383   2.269   2.717  0.0476  0.1916 -0.3819
 3341ntf    cn117161   6.714   5.764   6.892 -0.1426 -0.2563  0.5637
 3341ntf    sn217162   6.778   5.861   7.032 -0.0106  0.1387  0.2289
 3341ntf    nn317163   6.842   5.980   6.952  0.3857 -0.3800 -0.2354
 3341ntf    sn217164   6.949   6.084   7.003 -0.1061 -0.0523  0.1488
 3341ntf    cn117165   7.100   6.036   6.913 -0.2031  0.3609 -0.2346
 3341ntf    fn417166   6.658   5.651   6.934 -0.6277 -0.3662 -0.3421
 3341ntf    fn417167   6.626   5.837   6.825  0.2396  0.0764  0.4244
 3341ntf    fn417168   6.810   5.739   6.805 -0.3244 -0.3267  0.3825
 3341ntf    on517169   6.657   5.896   7.103 -0.3474 -0.7974  0.1307
 3341ntf    on517170   6.872   5.767   7.086  0.0995  0.0088 -0.1825
 3341ntf    on517171   6.969   6.067   7.145 -0.5026 -0.0694  0.2034
 3341ntf    on517172   6.924   6.219   6.960 -0.0928  0.0617  0.5003
 3341ntf    fn417173   7.195   6.128   6.915 -0.0722  0.2371 -0.5678
 3341ntf    fn417174   7.152   5.919   6.947  0.0064  0.4828 -0.1372
 3341ntf    fn417175   7.073   6.022   6.784  0.3111 -0.2959 -0.2774
 3342ntf    cn117176   2.572   1.504   6.412  0.1675  0.1499 -0.4129
 3342ntf    sn217177   2.456   1.595   6.305 -0.0974 -0.0397 -0.2869
 3342ntf    nn317178   2.572   1.664   6.225  0.0721 -0.4434 -0.3937
 3342ntf    sn217179   2.628   1.631   6.082  0.0510  0.4856 -0.6232
 3342ntf    cn117180   2.622   1.785   5.985 -0.1110  0.6416 -0.3684
 3342ntf    fn417181   2.638   1.579   6.498  0.3585  0.0675 -0.4880
 3342ntf    fn417182   2.509   1.409   6.479 -0.3532  0.5320 -0.3505
 3342ntf    fn417183   2.667   1.453   6.335  0.6477  0.3641  0.0332
 3342ntf    on517184   2.379   1.486   6.250 -0.4493 -0.2322  0.5698
 3342ntf    on517185   2.391   1.697   6.383 -0.0232 -0.0723 -0.1823
 3342ntf    on517186   2.546   1.543   6.003 -0.8314  0.6161  0.1259
 3342ntf    on517187   2.769   1.604   6.090 -0.1971 -0.7225 -0.0831
 3342ntf    fn417188   2.666   1.883   6.061 -0.2152  0.3130  0.1236
 3342ntf    fn417189   2.704   1.764   5.883  0.0976  0.0234 -0.0842
 3342ntf    fn417190   2.502   1.805   5.932 -0.2236  0.3416 -0.2300
 3343ntf    cn117191   3.036   0.799   6.399  0.2079  0.0289  0.2300
 3343ntf    sn217192   2.987   0.913   6.532  0.2829 -0.0018  0.2844
 3343ntf    nn317193   3.113   0.909   6.625  0.0571 -0.5214  0.5703
 3343ntf    sn217194   3.209   1.023   6.674  0.0590 -0.1682 -0.2519
 3343ntf    cn117195   3.305   0.937   6.802 -0.1003 -0.3615 -0.2626
 3343ntf    fn417196   2.997   0.676   6.428 -0.1086  0.2192  0.6211
 3343ntf    fn417197   2.972   0.832   6.288  0.6815 -0.4370 -0.1852
 3343ntf    fn417198   3.166   0.792   6.374  0.1664 -0.1120  0.0507
 3343ntf    on517199   2.966   1.046   6.479  0.2975  0.1185  0.5790
 3343ntf    on517200   2.873   0.854   6.597  0.2374 -0.3557 -0.1077
 3343ntf    on517201   3.138   1.126   6.745  0.7916  0.3113 -0.1983
 3343ntf    on517202   3.310   1.053   6.574  0.1289 -0.5926 -0.3119
 3343ntf    fn417203   3.288   0.981   6.926  0.0598  0.2545 -0.4585
 3343ntf    fn417204   3.277   0.808   6.806 -0.4672 -0.2810 -0.2119
 3343ntf    fn417205   3.436   0.934   6.785  0.0174  0.0520  0.5145
 3344ntf    cn117206   4.249   4.090   2.226  0.0194  0.2216 -0.2589
 3344ntf    sn217207   4.372   4.037   2.103  0.1589 -0.4662  0.1704
 3344ntf    nn317208   4.479   3.958   2.187  0.0706 -0.1385  0.6030
 3344ntf    sn217209   4.553   3.822   2.161  0.0337 -0.0808  0.1886
 3344ntf    cn117210   4.475   3.721   2.290 -0.6689  0.5826  0.2860
 3344ntf    fn417211   4.134   4.137   2.180 -0.2368  0.2432  0.3811
 3344ntf    fn417212   4.212   3.988   2.301 -0.3075  0.3204 -0.2842
 3344ntf    fn417213   4.310   4.177   2.305  0.4152 -0.0907 -0.2173
 3344ntf    on517214   4.288   3.966   2.010 -0.0960  0.0405  0.0097
 3344ntf    on517215   4.420   4.170   2.074 -0.4462 -0.2851 -0.0070
 3344ntf    on517216   4.691   3.836   2.198  0.2321  0.3499 -0.6722
 3344ntf    on517217   4.525   3.759   2.034  0.7215 -0.2416  0.1142
 3344ntf    fn417218   4.350   3.701   2.252 -0.4342  0.1681 -0.2722
 3344ntf    fn417219   4.527   3.600   2.302 -0.4368  0.6281 -0.2479
 3344ntf    fn417220   4.462   3.780   2.408 -0.0159  0.5086  0.3986
 3345ntf    cn117221   5.014   3.429   4.699  0.1150  0.1491 -0.2672
 3345ntf    sn217222   4.896   3.564   4.666 -0.2987 -0.1294  0.0704
 3345ntf    nn317223   4.989   3.675   4.608 -0.0765 -0.1272  0.4235
 3345ntf    sn217224   5.081   3.783   4.676 -0.1301  0.2243 -0.0528
 3345ntf    cn117225   4.969   3.925   4.698 -0.6976 -0.1820 -0.2958
 3345ntf    fn417226   5.095   3.464   4.798  0.2616 -0.0561 -0.3161
 3345ntf    fn417227   4.957   3.319   4.745 -0.2916  0.6234  0.3927
 3345ntf    fn417228   5.090   3.404   4.594  0.0919  0.3186 -0.3245
 3345ntf    on517229   4.806   3.508   4.568 -0.4502  0.2863 -0.0270
 3345ntf    on517230   4.841   3.586   4.798 -0.0947 -0.5896  0.2341
 3345ntf    on517231   5.178   3.824   4.578  0.4014 -0.2302  0.2789
 3345ntf    on517232   5.127   3.744   4.807  0.0143 -0.1578 -0.2156
 3345ntf    fn417233   5.044   4.025   4.739  0.0232 -0.5857 -0.6129
 3345ntf    fn417234   4.921   3.962   4.580  0.0478  0.3306 -0.4440
 3345ntf    fn417235   4.861   3.898   4.769 -0.9133 -0.5734 -0.7657
 3346ntf    cn117236   5.488   2.666   3.762 -0.3132  0.3439  0.0396
 3346ntf    sn217237   5.519   2.510   3.675 -0.0980  0.2493  0.2811
 3346ntf    nn317238   5.502   2.562   3.528 -0.2987 -0.0779  0.1860
 3346ntf    sn217239   5.391   2.548   3.417 -0.1558  0.1885  0.0058
 3346ntf    cn117240   5.418   2.382   3.348 -0.2094  0.1581  0.0578
 3346ntf    fn417241   5.373   2.723   3.730 -0.3700  0.4332  0.4010
 3346ntf    fn417242   5.480   2.646   3.893  0.0166 -0.5346 -0.0694
 3346ntf    fn417243   5.585   2.754   3.741  0.4657 -0.3939  0.4969
 3346ntf    on517244   5.654   2.478   3.713  0.0352 -0.1590 -0.5091
 3346ntf    on517245   5.418   2.423   3.731 -0.4474 -0.1674 -0.9601
 3346ntf    on517246   5.414   2.638   3.307 -0.5056 -0.3625 -0.5234
 3346ntf    on517247   5.256   2.546   3.469 -0.6395 -0.4683 -1.2397
 3346ntf    fn417248   5.540   2.366   3.301 -0.4137 -0.0402 -0.4189
 3346ntf    fn417249   5.405   2.280   3.430 -0.7230  0.3234  0.1844
 3346ntf    fn417250   5.337   2.364   3.244  0.1817 -0.3688 -0.1599
 3347ntf    cn117251   7.058   4.266   0.867  0.0677 -0.0634 -0.1302
 3347ntf    sn217252   7.216   4.328   0.933  0.2235 -0.2473 -0.3298
 3347ntf    nn317253   7.210   4.304   1.088 -0.4153 -1.3139 -0.5092
 3347ntf    sn217254   7.324   4.248   1.180  0.1225  0.0290 -0.3404
 3347ntf    cn117255   7.280   4.333   1.335 -0.0976 -0.3419 -0.1996
 3347ntf    fn417256   7.040   4.137   0.887  0.0904  0.0075  0.3650
 3347ntf    fn417257   6.957   4.327   0.927 -0.1159 -0.2206 -0.2796
 3347ntf    fn417258   7.044   4.286   0.737  0.4209  0.1573 -0.1348
 3347ntf    on517259   7.317   4.246   0.871  0.0614 -0.1583 -0.7165
 3347ntf    on517260   7.209   4.467   0.894 -0.0278 -0.1671 -0.0034
 3347ntf    on517261   7.457   4.296   1.152 -0.0650  0.7698  0.0212
 3347ntf    on517262   7.308   4.107   1.205  0.5919 -0.1147 -0.8161
 3347ntf    fn417263   7.293   4.464   1.328 -0.3879 -0.2917  0.1448
 3347ntf    fn417264   7.159   4.307   1.382 -0.0835 -0.0303  0.0081
 3347ntf    fn417265   7.366   4.299   1.430 -0.2293 -0.0873  0.0111
 3348ntf    cn117266   5.980   5.117   7.252  0.3087 -0.2542  0.7982
 3348ntf    sn217267   5.869   4.975   7.227  0.1905 -0.0897  0.3626
 3348ntf    nn317268   5.899   4.952   7.075 -0.5175  0.0658  0.1980
 3348ntf    sn217269   5.823   4.930   6.939 -0.0017 -0.2387 -0.0451
 3348ntf    cn117270   5.779   5.101   6.895 -0.0103 -0.2423 -0.0520
 3348ntf    fn417271   5.936   5.224   7.187  0.1755 -0.2959  0.8213
 3348ntf    fn417272   5.983   5.170   7.373 -0.5212  0.1499  0.6439
 3348ntf    fn417273   6.107   5.102   7.216  0.0403 -0.1088 -0.2420
 3348ntf    on517274   5.917   4.868   7.312 -0.2159 -0.5029  0.0739
 3348ntf    on517275   5.738   5.025   7.259  0.1523 -0.1112  0.2374
 3348ntf    on517276   5.701   4.855   6.960  0.0162 -0.1410  0.4185
 3348ntf    on517277   5.913   4.897   6.832  0.8740  0.2896  0.5205
 3348ntf    fn417278   5.882   5.172   6.853  0.1602 -0.4962 -0.0656
 3348ntf    fn417279   5.682   5.106   6.806 -0.0480 -0.3175 -0.0153
 3348ntf    fn417280   5.733   5.164   7.002  0.0635 -0.5063  0.1367
 3349ntf    cn117281   1.291   5.341   3.139  0.2153  0.0671 -0.3481
 3349ntf    sn217282   1.434   5.389   3.038  0.2540  0.1732 -0.2423
 3349ntf    nn317283   1.546   5.317   3.121 -0.0794 -0.0236  0.0353
 3349ntf    sn217284   1.642   5.373   3.232  0.0204 -0.1079 -0.0085
 3349ntf    cn117285   1.664   5.224   3.334 -0.2137 -0.0478  0.1306
 3349ntf    fn417286   1.191   5.427   3.132 -0.0201 -0.1002  0.8609
 3349ntf    fn417287   1.246   5.221   3.105  0.0194 -0.0456  0.3024
 3349ntf    fn417288   1.317   5.335   3.268 -0.0258 -0.6079 -0.3262
 3349ntf    on517289   1.394   5.328   2.914 -0.4220  0.2678 -0.0706
 3349ntf    on517290   1.440   5.533   3.035 -0.2858  0.1966 -0.1350
 3349ntf    on517291   1.579   5.471   3.317  0.2000 -0.0203  0.0245
 3349ntf    on517292   1.769   5.402   3.169 -0.0721  0.1310 -0.0847
 3349ntf    fn417293   1.545   5.183   3.375 -0.3283 -0.0783 -0.2288
 3349ntf    fn417294   1.698   5.128   3.249 -0.1346  0.5925 -0.5730
 3349ntf    fn417295   1.749   5.234   3.434  0.0408 -0.3878 -0.0492
 3350ntf    cn117296   3.606   0.143   6.885  0.4270  0.1218  0.2618
 3350ntf    sn217297   3.449   0.196   6.809  0.2675 -0.3481  0.2625
 3350ntf    nn317298   3.359   0.112   6.906 -0.4339  0.6240  0.4671
 3350ntf    sn217299   3.217   0.051   6.877 -0.1045  0.1059 -0.0798
 3350ntf    cn117300   3.114   0.151   6.989 -0.2737 -0.0156 -0.1266
 3350ntf    fn417301   3.715   0.163   6.814  1.0566 -0.0489  1.1606
 3350ntf    fn417302   3.615   0.223   6.991  0.3584  0.6495 -0.1265
 3350ntf    fn417303   3.607   0.019   6.929  0.5402  0.2148  0.5255
 3350ntf    on517304   3.453   0.337   6.840 -0.7287 -0.1825 -0.3127
 3350ntf    on517305   3.465   0.147   6.675  0.1721  0.2037  0.0491
 3350ntf    on517306   3.201  -0.082   6.930  0.3795  0.2408  0.4217
 3350ntf    on517307   3.153   0.076   6.750  0.9225 -0.1347 -0.6504
 3350ntf    fn417308   2.989   0.108   6.991 -0.3374  0.1566 -0.4468
 3350ntf    fn417309   3.149   0.143   7.116 -0.1103  0.2909 -0.1519
 3350ntf    fn417310   3.115   0.280   6.961 -0.2036 -0.0291 -0.1866
 3351ntf    cn117311   4.004   6.128   1.683  0.4088  0.0647  0.0990
 3351ntf    sn217312   4.042   6.034   1.531  0.0867  0.0765  0.0110
 3351ntf    nn317313   3.922   5.934   1.528  0.5996 -0.5306 -0.3651
 3351ntf    sn217314   3.896   5.801   1.608 -0.2241 -0.0177  0.2465
 3351ntf    cn117315   3.796   5.715   1.483  0.2703  0.0021 -0.1694
 3351ntf    fn417316   4.096   6.218   1.710  0.3134  0.2518 -0.1962
 3351ntf    fn417317   3.893   6.199   1.671 -0.0368 -0.6687 -0.2498
 3351ntf    fn417318   3.991   6.048   1.787  0.2279  0.0372  0.0554
 3351ntf    on517319   4.033   6.132   1.425  0.1729 -0.8839 -0.8923
 3351ntf    on517320   4.171   5.973   1.545  0.2051  0.1881 -0.5633
 3351ntf    on517321   3.811   5.815   1.723 -0.2291  0.6674  0.1631
 3351ntf    on517322   4.007   5.708   1.619 -0.1619  0.1073  0.6955
 3351ntf    fn417323   3.694   5.783   1.432 -0.1595  0.2820  1.0167
 3351ntf    fn417324   3.870   5.682   1.379 -0.0988  0.0420 -0.4468
 3351ntf    fn417325   3.740   5.606   1.532  0.7333 -0.4161 -0.5633
 3352ntf    cn117326   2.644   6.511   2.935  0.2824 -0.1515 -0.4126
 3352ntf    sn217327   2.802   6.495   3.023  0.1017  0.1583 -0.0326
 3352ntf    nn317328   2.886   6.448   2.900 -0.2200  0.1495 -0.2495
 3352ntf    sn217329   2.990   6.330   2.894 -0.1335  0.2136 -0.0311
 3352ntf    cn117330   3.115   6.410   2.789 -0.0587  0.1563  0.0143
 3352ntf    fn417331   2.608   6.399   2.874 -0.0204 -0.4182  0.2462
 3352ntf    fn417332   2.550   6.527   3.026  0.3158 -0.2121 -0.3676
 3352ntf    fn417333   2.633   6.611   2.849 -0.3700  0.0443 -0.1097
 3352ntf    on517334   2.842   6.625   3.071 -0.2335  0.2418  0.0199
 3352ntf    on517335   2.776   6.385   3.113 -0.4263  0.4588  0.1877
 3352ntf    on517336   2.944   6.226   2.804  0.2477 -0.5949  0.6965
 3352ntf    on517337   3.063   6.289   3.011 -0.5660 -0.3121  0.0631
 3352ntf    fn417338   3.146   6.526   2.843 -0.3667  0.3900 -0.3120
 3352ntf    fn417339   3.233   6.353   2.775 -0.1979 -0.0832 -0.1920
 3352ntf    fn417340   3.070   6.443   2.669 -0.0494 -0.2165 -0.0949
 3353ntf    cn117341   3.816   5.102   2.380 -0.2372 -0.0692  0.4946
 3353ntf    sn217342   3.765   5.099   2.554 -0.4988 -0.0636  0.4181
 3353ntf    nn317343   3.899   5.158   2.610 -0.1757 -0.1992 -0.2084
 3353ntf    sn217344   3.943   5.163   2.761  0.1417 -0.2805 -0.2958
 3353ntf    cn117345   3.955   5.344   2.781  0.1061 -0.3725  0.5961
 3353ntf    fn417346   3.936   5.045   2.370 -0.0336  0.4397 -0.0255
 3353ntf    fn417347   3.739   5.031   2.299  0.6876 -0.2281 -0.2741
 3353ntf    fn417348   3.832   5.215   2.313  0.0907 -0.2816  0.2135
 3353ntf    on517349   3.658   5.196   2.558 -0.2335  0.2398  0.1990
 3353ntf    on517350   3.748   4.958   2.577  0.1369 -0.1290  0.5205
 3353ntf    on517351   4.073   5.116   2.801  0.4817  0.4197 -0.5491
 3353ntf    on517352   3.832   5.123   2.843  0.3288 -0.3088 -0.0570
 3353ntf    fn417353   4.008   5.374   2.898  0.2215  0.2283  0.3929
 3353ntf    fn417354   4.024   5.407   2.687 -0.4628 -0.5426  0.0552
 3353ntf    fn417355   3.838   5.404   2.773  0.3251  0.0293  0.3351
 3354ntf    cn117356   3.505   2.651   3.188 -0.1860 -0.0125  0.0560
 3354ntf    sn217357   3.394   2.780   3.251  0.0911  0.2345  0.0408
 3354ntf    nn317358   3.257   2.713   3.214  0.3734 -0.2890 -0.0617
 3354ntf    sn217359   3.173   2.630   3.317  0.1693 -0.0309 -0.0193
 3354ntf    cn117360   3.087   2.763   3.407  0.2900 -0.1546  0.2819
 3354ntf    fn417361   3.472   2.533   3.238 -0.4317  0.1698  0.3239
 3354ntf    fn417362   3.483   2.636   3.058 -0.8291  0.6409  0.0801
 3354ntf    fn417363   3.635   2.667   3.209 -0.1732 -0.1642  0.0926
 3354ntf    on517364   3.424   2.800   3.391  0.4118  0.0206  0.0028
 3354ntf    on517365   3.420   2.891   3.162 -1.2314  0.5491  0.0248
 3354ntf    on517366   3.251   2.581   3.429  0.3681  0.3018 -0.0075
 3354ntf    on517367   3.062   2.561   3.258  0.0221 -0.1812  0.4258
 3354ntf    fn417368   3.171   2.835   3.479  0.0673  0.0803  0.3081
 3354ntf    fn417369   3.019   2.854   3.339 -0.4319 -0.3624  0.7099
 3354ntf    fn417370   3.004   2.714   3.497 -0.3422 -0.2092 -0.3211
 3355ntf    cn117371   6.580   0.855   1.113  0.1606  0.1610 -0.0920
 3355ntf    sn217372   6.663   0.956   1.239  0.1694  0.3092 -0.2165
 3355ntf    nn317373   6.528   1.025   1.281  0.5673  0.5154  0.7533
 3355ntf    sn217374   6.487   1.174   1.249 -0.1828  0.1802  0.1261
 3355ntf    cn117375   6.601   1.277   1.346 -0.2638  0.3446  0.0476
 3355ntf    fn417376   6.479   0.790   1.168 -0.1914  0.1630 -0.7269
 3355ntf    fn417377   6.529   0.944   1.030  0.0717  0.2073  0.0130
 3355ntf    fn417378   6.653   0.767   1.047  0.1650  0.2683 -0.2311
 3355ntf    on517379   6.702   0.864   1.343  0.0337  0.5793  0.0757
 3355ntf    on517380   6.767   1.031   1.174  0.0216  0.5079 -0.2257
 3355ntf    on517381   6.359   1.205   1.310 -0.3815  0.0817 -0.2379
 3355ntf    on517382   6.510   1.216   1.114 -0.3479  0.7298  0.2654
 3355ntf    fn417383   6.566   1.404   1.343 -0.2641  0.3532  0.3685
 3355ntf    fn417384   6.605   1.240   1.473  0.4353  0.3185  0.0268
 3355ntf    fn417385   6.728   1.274   1.306 -0.0774  0.1973  0.6370
 3356ntf    cn117386   1.727   1.008   2.002  0.2846 -0.1147  0.3879
 3356ntf    sn217387   1.744   1.053   1.827  0.2394 -0.2068  0.3597
 3356ntf    nn317388   1.726   1.208   1.837  0.0342 -0.2506  0.6711
 3356ntf    sn217389   1.837   1.318   1.851 -0.0409 -0.0817 -0.0142
 3356ntf    cn117390   1.730   1.464   1.871  0.0324 -0.0610  0.2305
 3356ntf    fn417391   1.622   1.054   2.069  0.1970  0.2554  0.0026
 3356ntf    fn417392   1.708   0.878   2.021  0.1742 -0.1730 -0.1098
 3356ntf    fn417393   1.834   1.042   2.071  0.2168 -0.0942  0.4845
 3356ntf    on517394   1.873   0.998   1.791  0.2857  0.1157  0.0237
 3356ntf    on517395   1.626   0.992   1.771  0.4994  0.0575 -0.5004
 3356ntf    on517396   1.913   1.352   1.733 -0.0219  0.0112  0.0243
 3356ntf    on517397   1.914   1.316   1.973 -0.5845 -0.2670  0.3257
 3356ntf    fn417398   1.641   1.471   1.774 -0.1461 -0.0312  0.3969
 3356ntf    fn417399   1.662   1.459   1.984 -0.6296  0.1096 -0.1550
 3356ntf    fn417400   1.799   1.576   1.860 -0.1179 -0.0342 -0.4819
 3357ntf    cn117401   6.277   6.224   1.620 -0.2688  0.1071  0.0731
 3357ntf    sn217402   6.373   6.073   1.652 -0.0017  0.2147 -0.2104
 3357ntf    nn317403   6.251   5.995   1.713  0.4767 -0.3222  0.0682
 3357ntf    sn217404   6.170   5.876   1.649 -0.1511  0.2444 -0.1984
 3357ntf    cn117405   6.264   5.730   1.703 -0.1703  0.3354  0.0802
 3357ntf    fn417406   6.258   6.298   1.727 -0.2185  0.3291 -0.0707
 3357ntf    fn417407   6.324   6.310   1.531 -0.6832  0.6218  0.3463
 3357ntf    fn417408   6.153   6.216   1.574 -0.1694  0.2493 -0.2215
 3357ntf    on517409   6.423   6.030   1.524  0.4340 -0.4865  0.1879
 3357ntf    on517410   6.469   6.119   1.749  0.0033  0.3930 -0.3007
 3357ntf    on517411   6.161   5.873   1.505  0.0397 -0.0037 -0.2056
 3357ntf    on517412   6.046   5.859   1.721  0.0104 -0.1567 -0.0125
 3357ntf    fn417413   6.385   5.729   1.649 -0.0393  0.0948  0.3790
 3357ntf    fn417414   6.285   5.734   1.833 -0.2601  0.1983  0.0992
 3357ntf    fn417415   6.197   5.621   1.670  0.3629  0.1692 -0.4740
 3358ntf    cn117416   0.506   5.101   3.340  0.5727  0.0644 -0.5229
 3358ntf    sn217417   0.466   5.026   3.179  0.1460  0.2019 -0.4840
 3358ntf    nn317418   0.429   4.878   3.216  0.5786  0.0617 -0.6101
 3358ntf    sn217419   0.359   4.757   3.144  0.0391  0.0021  0.0089
 3358ntf    cn117420   0.500   4.684   3.056  0.0485  0.1933 -0.1356
 3358ntf    fn417421   0.587   5.031   3.418 -0.3534 -0.1307  0.2904
 3358ntf    fn417422   0.555   5.223   3.344  0.8827 -0.0681 -0.1590
 3358ntf    fn417423   0.391   5.106   3.405  0.6179 -0.3530 -0.4046
 3358ntf    on517424   0.354   5.104   3.134 -0.1800  0.1891  0.2932
 3358ntf    on517425   0.586   5.043   3.100  0.5503  0.3467  0.1476
 3358ntf    on517426   0.266   4.798   3.042 -0.0477 -0.3678 -0.0609
 3358ntf    on517427   0.325   4.644   3.227 -0.3526 -0.0019 -0.1559
 3358ntf    fn417428   0.459   4.575   2.992  0.8524 -0.2208  0.0417
 3358ntf    fn417429   0.546   4.775   2.971  0.3255  0.2672  0.0908
 3358ntf    fn417430   0.593   4.637   3.138 -0.3187 -0.1266  0.0996
 3359ntf    cn117431   5.812   5.204   5.260 -0.0871 -0.1260 -0.1545
 3359ntf    sn217432   5.693   5.242   5.392  0.2594 -0.1878  0.1761
 3359ntf    nn317433   5.695   5.398   5.400  0.1700 -0.1388 -0.6819
 3359ntf    sn217434   5.630   5.489   5.290 -0.3817  0.0558 -0.1991
 3359ntf    cn117435   5.711   5.647   5.331 -0.2131 -0.0304 -0.2013
 3359ntf    fn417436   5.840   5.076   5.243  0.7700  0.0363 -0.0386
 3359ntf    fn417437   5.765   5.241   5.142 -0.5035  0.1142  0.0833
 3359ntf    fn417438   5.926   5.271   5.260  0.0048 -0.2810 -0.1531
 3359ntf    on517439   5.573   5.175   5.350  0.0867  0.2839 -0.0823
 3359ntf    on517440   5.761   5.178   5.503 -0.2072 -0.0382  0.5502
 3359ntf    on517441   5.494   5.533   5.310 -0.1170  0.6256  0.3855
 3359ntf    on517442   5.668   5.476   5.152  0.0053  0.2341 -0.1096
 3359ntf    fn417443   5.682   5.672   5.458 -0.1953 -0.4304 -0.1140
 3359ntf    fn417444   5.842   5.650   5.319 -0.2057 -0.0650 -0.1386
 3359ntf    fn417445   5.658   5.740   5.254 -0.9150 -0.0653  0.2238
 3360ntf    cn117446   0.048   3.868   4.012 -0.7296  0.1197 -0.3848
 3360ntf    sn217447  -0.008   3.750   4.139 -0.1042  0.1514 -0.0763
 3360ntf    nn317448  -0.068   3.842   4.252 -0.0113  0.7805 -0.5339
 3360ntf    sn217449  -0.213   3.900   4.254 -0.5164 -0.4609  0.0489
 3360ntf    cn117450  -0.288   3.801   4.386 -0.3596 -0.4199  0.1690
 3360ntf    fn417451   0.139   3.956   4.051 -0.4683 -0.1566 -0.3669
 3360ntf    fn417452   0.104   3.806   3.909 -0.4546  0.2130 -0.2926
 3360ntf    fn417453  -0.061   3.932   3.976 -0.4112  0.3861 -0.8720
 3360ntf    on517454  -0.100   3.668   4.065  0.0729 -0.0874 -0.0335
 3360ntf    on517455   0.119   3.687   4.167 -0.0666  0.0001 -0.5825
 3360ntf    on517456  -0.300   3.864   4.145  0.3084 -0.0449 -0.7590
 3360ntf    on517457  -0.203   4.038   4.293 -0.1249 -0.3883 -0.2998
 3360ntf    fn417458  -0.211   3.790   4.493  0.0191  0.3161 -0.0239
 3360ntf    fn417459  -0.408   3.837   4.429 -0.2122 -0.2045  0.3994
 3360ntf    fn417460  -0.306   3.675   4.350  0.2320 -0.4605  0.0056
 3361ntf    cn117461   0.641   5.610   4.361 -0.4692 -0.8567  0.5684
 3361ntf    sn217462   0.510   5.546   4.252 -0.1846 -0.2562 -0.1317
 3361ntf    nn317463   0.384   5.633   4.286  0.1099  0.1508 -0.0676
 3361ntf    sn217464   0.351   5.783   4.254 -0.1310  0.0079 -0.5060
 3361ntf    cn117465   0.229   5.754   4.123 -0.2446  0.1379 -0.4309
 3361ntf    fn417466   0.620   5.598   4.491  0.1558 -0.1054  0.7493
 3361ntf    fn417467   0.755   5.546   4.343  0.2627  0.6821 -0.4917
 3361ntf    fn417468   0.672   5.738   4.345 -0.3300 -0.8555  0.8370
 3361ntf    on517469   0.570   5.579   4.125  0.6717 -0.2000  0.2741
 3361ntf    on517470   0.497   5.409   4.295 -0.2414 -0.2488 -0.1247
 3361ntf    on517471   0.460   5.852   4.190 -0.3692  0.7889 -0.0858
 3361ntf    on517472   0.297   5.851   4.370  0.0855 -0.1930 -0.2862
 3361ntf    fn417473   0.283   5.718   4.007  0.6222 -0.2610  0.0866
 3361ntf    fn417474   0.137   5.664   4.154 -0.0889  0.0526 -0.2135
 3361ntf    fn417475   0.167   5.867   4.093 -0.0334  0.3136 -0.2058
 3362ntf    cn117476   5.056   0.880   2.423  0.0628  0.0332 -0.1419
 3362ntf    sn217477   5.122   0.741   2.326 -0.3213 -0.2309 -0.0311
 3362ntf    nn317478   5.145   0.639   2.444  0.4531  0.1651  0.1722
 3362ntf    sn217479   5.242   0.517   2.461  0.3170  0.0465  0.0976
 3362ntf    cn117480   5.344   0.552   2.607  0.2009  0.4540  0.0816
 3362ntf    fn417481   5.023   0.982   2.346  0.4753  0.3756  0.1335
 3362ntf    fn417482   4.951   0.833   2.490  0.4654 -0.2069  0.3297
 3362ntf    fn417483   5.137   0.922   2.519  0.0607  0.3146 -0.2647
 3362ntf    on517484   5.007   0.707   2.247 -0.2857 -0.3030 -0.0516
 3362ntf    on517485   5.235   0.804   2.261 -0.7023  0.5002  0.0029
 3362ntf    on517486   5.333   0.488   2.353  0.2652  0.0086  0.0638
 3362ntf    on517487   5.165   0.401   2.499 -0.3252  0.3399 -0.2843
 3362ntf    fn417488   5.401   0.439   2.644 -0.1703  0.1108 -0.3720
 3362ntf    fn417489   5.443   0.634   2.578  0.4972 -0.0615 -0.3925
 3362ntf    fn417490   5.284   0.600   2.715 -0.0563  0.1880  0.0606
 3363ntf    cn117491   0.119   0.752   0.626 -0.2971 -0.1056  0.0208
 3363ntf    sn217492   0.019   0.802   0.769 -0.1052  0.0276  0.1088
 3363ntf    nn317493   0.072   0.949   0.781  0.2801 -0.0896 -0.1547
 3363ntf    sn217494   0.087   1.033   0.912 -0.1366  0.0743 -0.2103
 3363ntf    cn117495  -0.068   1.128   0.919 -0.0403  0.2184 -0.0129
 3363ntf    fn417496   0.090   0.629   0.588 -0.2677 -0.1896  0.2667
 3363ntf    fn417497   0.110   0.843   0.530 -0.1718  0.0618  0.1676
 3363ntf    fn417498   0.248   0.755   0.656 -0.2172 -0.0903 -0.3147
 3363ntf    on517499  -0.118   0.789   0.726 -0.0619 -0.2328  0.0483
 3363ntf    on517500   0.068   0.713   0.872  0.0422  0.1413  0.1362
 3363ntf    on517501   0.190   1.132   0.892 -0.1471  0.0460 -0.4085
 3363ntf    on517502   0.087   0.964   1.038 -0.4059  0.5343  0.0457
 3363ntf    fn417503  -0.106   1.168   1.039 -0.3339  0.1069 -0.0688
 3363ntf    fn417504  -0.059   1.239   0.846 -0.1874  0.4271  0.2854
 3363ntf    fn417505  -0.173   1.060   0.877  0.3525 -0.6121  0.3429
 3364ntf    cn117506   1.942   4.721   6.913 -0.0257  0.3315 -0.1663
 3364ntf    sn217507   1.979   4.792   7.076  0.0888  0.3038 -0.1799
 3364ntf    nn317508   2.129   4.829   7.050  0.2425  0.0520  0.3452
 3364ntf    sn217509   2.212   4.950   6.994  0.4855 -0.3085 -0.0846
 3364ntf    cn117510   2.374   4.870   6.981  0.4106 -0.4789  0.0323
 3364ntf    fn417511   2.011   4.613   6.880  0.3426  0.5631 -0.1681
 3364ntf    fn417512   1.816   4.685   6.894  0.0579  0.0721 -0.2280
 3364ntf    fn417513   1.966   4.801   6.810 -0.1284 -0.1822 -0.5895
 3364ntf    on517514   1.891   4.907   7.079 -0.8468 -0.4066  0.0570
 3364ntf    on517515   1.945   4.693   7.175  0.6364  0.1513 -0.1398
 3364ntf    on517516   2.237   5.055   7.091  0.1767  0.1711 -0.5196
 3364ntf    on517517   2.175   4.993   6.862 -0.4923  0.1944  0.3383
 3364ntf    fn417518   2.409   4.825   7.101 -0.5048 -0.3755  0.3457
 3364ntf    fn417519   2.371   4.772   6.892  0.4131  0.3470 -0.8859
 3364ntf    fn417520   2.465   4.960   6.946 -0.2292 -0.0481 -0.5408
 3365ntf    cn117521   0.893   4.770   5.300  0.0750  0.2841 -0.2129
 3365ntf    sn217522   1.035   4.739   5.410 -0.1542  0.0436  0.0195
 3365ntf    nn317523   1.154   4.713   5.311 -0.0449  0.6620 -0.0194
 3365ntf    sn217524   1.306   4.738   5.344 -0.0340  0.2766  0.2411
 3365ntf    cn117525   1.334   4.687   5.516 -0.0885  0.0803  0.1909
 3365ntf    fn417526   0.872   4.656   5.238  1.0235  0.0068 -0.0392
 3365ntf    fn417527   0.785   4.811   5.366  0.0995 -0.1283  0.0832
 3365ntf    fn417528   0.935   4.856   5.210  0.4619  0.1121 -0.1974
 3365ntf    on517529   1.033   4.856   5.494  0.8192  0.2118 -0.1789
 3365ntf    on517530   1.000   4.619   5.481 -0.4278 -0.1249 -0.3973
 3365ntf    on517531   1.335   4.879   5.353  0.2572  0.1918  0.6807
 3365ntf    on517532   1.396   4.655   5.269 -0.5195 -0.0463  0.0097
 3365ntf    fn417533   1.292   4.777   5.603 -0.2433 -0.1777  0.3857
 3365ntf    fn417534   1.260   4.582   5.547  0.3384 -0.3034 -0.0639
 3365ntf    fn417535   1.458   4.657   5.551 -0.1396  0.4415  0.6876
 3366ntf    cn117536   2.377   0.807   0.523  0.3041  0.2946  0.2247
 3366ntf    sn217537   2.237   0.923   0.524  0.0776  0.0257 -0.2811
 3366ntf    nn317538   2.219   0.932   0.679 -0.0350  0.4396 -0.3161
 3366ntf    sn217539   2.300   1.011   0.789  0.1394 -0.0433 -0.0919
 3366ntf    cn117540   2.186   1.150   0.820  0.1943  0.0294 -0.2157
 3366ntf    fn417541   2.448   0.821   0.413 -0.2301  0.6380 -0.0805
 3366ntf    fn417542   2.456   0.835   0.626  0.2397  0.4269  0.2391
 3366ntf    fn417543   2.343   0.681   0.542  0.4066  0.1913 -0.2653
 3366ntf    on517544   2.292   1.034   0.450  0.3957  0.2062  0.2257
 3366ntf    on517545   2.132   0.848   0.458 -0.1943  0.4178 -0.2983
 3366ntf    on517546   2.425   1.060   0.737  0.3930 -0.3514  0.2290
 3366ntf    on517547   2.294   0.930   0.907  0.0012  0.2177  0.0819
 3366ntf    fn417548   2.068   1.114   0.865  0.1608  0.3584 -0.0442
 3366ntf    fn417549   2.231   1.246   0.899  0.5978 -0.6056  0.3334
 3366ntf    fn417550   2.174   1.209   0.702  0.0902 -0.2923 -0.3667
 3367ntf    cn117551   4.238   6.828   0.073  0.1918 -0.1597 -0.3376
 3367ntf    sn217552   4.220   6.816   0.254 -0.1766  0.3726 -0.3371
 3367ntf    nn317553   4.325   6.702   0.275 -0.8356 -0.2394 -0.3166
 3367ntf    sn217554   4.311   6.556   0.331 -0.0292 -0.1464  0.1436
 3367ntf    cn117555   4.383   6.456   0.197  0.1511 -0.1461  0.2396
 3367ntf    fn417556   4.287   6.717   0.023  0.5406 -0.1323 -0.0635
 3367ntf    fn417557   4.122   6.834   0.009  0.1544  0.5153 -0.2219
 3367ntf    fn417558   4.295   6.937   0.024 -0.2426 -0.0099 -0.5124
 3367ntf    on517559   4.263   6.947   0.295 -0.1551  0.2187  0.1290
 3367ntf    on517560   4.079   6.788   0.273 -0.1421 -0.0239 -0.6448
 3367ntf    on517561   4.175   6.513   0.346 -0.0931  0.0700  0.1836
 3367ntf    on517562   4.394   6.536   0.447  0.4320  0.5432 -0.0612
 3367ntf    fn417563   4.368   6.325   0.205 -0.2577 -0.1276 -0.2056
 3367ntf    fn417564   4.341   6.501   0.080  0.8295 -0.1157  0.0033
 3367ntf    fn417565   4.515   6.471   0.190  0.1559  0.0186  0.6702
 3368ntf    cn117566   3.862   1.971   0.899 -0.2041 -0.3157  0.0297
 3368ntf    sn217567   3.798   2.113   0.993 -0.3597 -0.1677 -0.2959
 3368ntf    nn317568   3.883   2.230   0.932 -0.1711 -0.0083  0.2617
 3368ntf    sn217569   3.841   2.364   0.862 -0.2095 -0.1529  0.0080
 3368ntf    cn117570   3.894   2.334   0.690  0.2828  0.1959  0.0977
 3368ntf    fn417571   3.805   1.858   0.936 -0.2784 -0.1726  0.3586
 3368ntf    fn417572   3.824   1.995   0.774 -0.9186 -0.0852  0.2861
 3368ntf    fn417573   3.994   1.961   0.909 -0.1804  0.0358  0.0778
 3368ntf    on517574   3.655   2.106   0.981 -0.4681  0.6386  0.4478
 3368ntf    on517575   3.840   2.090   1.129  0.3045 -0.5394 -0.5555
 3368ntf    on517576   3.908   2.486   0.900  0.2928 -0.1929 -0.7245
 3368ntf    on517577   3.698   2.376   0.843 -0.2986  0.1868  0.8570
 3368ntf    fn417578   3.821   2.236   0.640  0.4267 -0.0068  0.2848
 3368ntf    fn417579   3.884   2.442   0.614  0.8470 -0.0407 -0.3176
 3368ntf    fn417580   4.015   2.284   0.674  0.0752 -0.3655  0.2505
 3369ntf    cn117581   4.948   5.430   4.197  0.1922 -0.1005  0.4739
 3369ntf    sn217582   4.954   5.276   4.101  0.1780  0.2852 -0.1486
 3369ntf    nn317583   4.806   5.224   4.099  0.3324 -0.1645 -0.1955
 3369ntf    sn217584   4.733   5.118   4.189  0.2598 -0.0016 -0.0617
 3369ntf    cn117585   4.712   4.980   4.073 -0.0724  0.0786 -0.0981
 3369ntf    fn417586   5.062   5.476   4.246  0.2149  0.0192  0.3081
 3369ntf    fn417587   4.891   5.534   4.138 -0.1916 -0.5148  0.1101
 3369ntf    fn417588   4.869   5.407   4.301 -0.1349  0.4835  0.3578
 3369ntf    on517589   4.996   5.310   3.967 -0.0549 -0.2716 -0.3645
 3369ntf    on517590   5.039   5.200   4.190  0.0464  0.4905  0.1511
 3369ntf    on517591   4.598   5.151   4.226  0.0720 -0.2516 -0.5139
 3369ntf    on517592   4.808   5.076   4.304 -0.8585 -0.8910  0.3606
 3369ntf    fn417593   4.634   4.886   4.124 -0.4306  0.6801  0.4725
 3369ntf    fn417594   4.650   5.011   3.960 -0.1489  0.4543  0.0450
 3369ntf    fn417595   4.832   4.932   4.045 -0.1244 -0.4672  0.5917
 3370ntf    cn117596   2.574   6.444   5.062 -0.1900 -0.3352 -0.0360
 3370ntf    sn217597   2.550   6.547   5.209  0.4403 -0.4809  0.1727
 3370ntf    nn317598   2.481   6.675   5.152  0.3127 -0.4567  0.3806
 3370ntf    sn217599   2.556   6.804   5.102 -0.1987 -0.2882  0.0395
 3370ntf    cn117600   2.517   6.923   5.234  0.1438 -0.1785  0.0420
 3370ntf    fn417601   2.657   6.510   4.983  0.0468 -0.0305  0.4594
 3370ntf    fn417602   2.636   6.330   5.092 -0.4728 -0.4447  0.1293
 3370ntf    fn417603   2.469   6.413   4.989 -0.2770  0.0865 -0.0859
 3370ntf    on517604   2.454   6.465   5.279  0.3282  0.4160  1.1101
 3370ntf    on517605   2.680   6.561   5.270  0.6169  0.0299 -0.3128
 3370ntf    on517606   2.485   6.859   4.989 -0.4337 -0.0340  0.3103
 3370ntf    on517607   2.700   6.804   5.095 -0.1950  0.3652  0.0721
 3370ntf    fn417608   2.389   6.940   5.260  0.1214 -0.0465 -0.1536
 3370ntf    fn417609   2.576   6.883   5.346  0.8446 -0.3848 -0.3892
 3370ntf    fn417610   2.567   7.041   5.202 -0.3716  0.0942  0.2397
 3371ntf    cn117611   6.109   1.261   5.597  0.3288 -0.2581  0.3607
 3371ntf    sn217612   6.065   1.139   5.470 -0.1865  0.0758  0.2140
 3371ntf    nn317613   6.007   1.025   5.562 -0.3305 -0.0982 -0.0890
 3371ntf    sn217614   6.011   0.869   5.547 -0.4672 -0.1227  0.1176
 3371ntf    cn117615   6.165   0.843   5.641 -0.5626 -0.2583  0.2359
 3371ntf    fn417616   6.217   1.223   5.664  0.4082 -0.2916  0.2134
 3371ntf    fn417617   6.146   1.372   5.534 -0.1767 -0.2322  0.1054
 3371ntf    fn417618   6.016   1.298   5.684  0.1391 -0.3032  0.1792
 3371ntf    on517619   5.960   1.202   5.394 -0.2078 -0.0268  0.1581
 3371ntf    on517620   6.193   1.125   5.406 -0.2376  0.2731  0.0683
 3371ntf    on517621   6.055   0.820   5.419  0.9614  0.6523  0.2927
 3371ntf    on517622   5.913   0.797   5.624 -0.6010 -0.1512 -0.0801
 3371ntf    fn417623   6.201   0.716   5.648  0.0229 -0.1394 -0.5457
 3371ntf    fn417624   6.266   0.904   5.581 -0.0995 -0.8800  0.3811
 3371ntf    fn417625   6.156   0.880   5.768 -0.2007 -0.0209  0.1914
 3372ntf    cn117626   6.787   2.735   1.074  0.1036  0.1383 -0.8351
 3372ntf    sn217627   6.892   2.587   1.055  0.0702  0.0162 -0.1006
 3372ntf    nn317628   7.006   2.638   1.150  0.5265  0.4597 -0.8754
 3372ntf    sn217629   7.147   2.572   1.172 -0.0403 -0.3940  0.2692
 3372ntf    cn117630   7.254   2.699   1.100  0.0196 -0.4684  0.2263
 3372ntf    fn417631   6.866   2.841   1.066  0.1783  0.1914  0.3940
 3372ntf    fn417632   6.694   2.747   0.982 -0.9998 -0.0405  0.2328
 3372ntf    fn417633   6.726   2.737   1.191  0.4512  0.0407 -0.6494
 3372ntf    on517634   6.816   2.483   1.120  0.5081 -0.2986 -0.0884
 3372ntf    on517635   6.924   2.580   0.915  0.1932 -0.0316 -0.0709
 3372ntf    on517636   7.173   2.449   1.102 -0.3733 -0.6142  0.5263
 3372ntf    on517637   7.184   2.569   1.312  0.4403  0.1285  0.1552
 3372ntf    fn417638   7.380   2.659   1.100 -0.0138 -0.5800 -0.1174
 3372ntf    fn417639   7.225   2.714   0.971  0.1760 -0.0655  0.2351
 3372ntf    fn417640   7.251   2.823   1.147 -0.1602 -0.2845 -0.2542
 3373ntf    cn117641   2.728   6.725   6.712  0.6807 -0.0775  0.1161
 3373ntf    sn217642   2.744   6.605   6.848  0.0601  0.0562  0.3082
 3373ntf    nn317643   2.739   6.706   6.968 -0.1818  0.4796 -0.0569
 3373ntf    sn217644   2.802   6.675   7.108  0.0537  0.3003 -0.2037
 3373ntf    cn117645   2.649   6.660   7.205  0.1249  0.1811 -0.1079
 3373ntf    fn417646   2.836   6.801   6.704  0.0733  0.8004  0.1077
 3373ntf    fn417647   2.719   6.674   6.590  0.2478  0.0022  0.1120
 3373ntf    fn417648   2.624   6.806   6.722  0.8495  0.1060  0.4045
 3373ntf    on517649   2.626   6.523   6.836 -0.0741  0.2213  0.4897
 3373ntf    on517650   2.875   6.550   6.823  0.1030  0.0555  0.5322
 3373ntf    on517651   2.872   6.788   7.163  0.3569 -0.0614  0.1600
 3373ntf    on517652   2.868   6.548   7.130 -0.1706  0.1835 -0.2030
 3373ntf    fn417653   2.674   6.672   7.334  0.2836 -0.1392 -0.1090
 3373ntf    fn417654   2.575   6.764   7.167 -0.1675  0.0406  0.0804
 3373ntf    fn417655   2.579   6.549   7.188 -0.2624  0.4073 -0.0022
 3374ntf    cn117656   4.804   1.304   2.697  0.0464 -0.0737  0.0366
 3374ntf    sn217657   4.778   1.484   2.687 -0.3132 -0.1196  0.1271
 3374ntf    nn317658   4.751   1.492   2.532  0.0909 -0.0070  0.0607
 3374ntf    sn217659   4.654   1.585   2.450 -0.0213 -0.2283 -0.0587
 3374ntf    cn117660   4.496   1.499   2.473 -0.4189  0.5314  0.0833
 3374ntf    fn417661   4.901   1.259   2.620  0.1895 -0.1023  0.2307
 3374ntf    fn417662   4.831   1.266   2.821 -0.7001  0.0347  0.2378
 3374ntf    fn417663   4.698   1.233   2.662  0.1448 -0.2933  0.1800
 3374ntf    on517664   4.664   1.506   2.773 -0.2338  0.1966  0.1519
 3374ntf    on517665   4.909   1.534   2.721 -0.2460 -0.2194  0.0172
 3374ntf    on517666   4.669   1.577   2.307 -0.1795  0.0244 -0.0904
 3374ntf    on517667   4.635   1.718   2.502  0.0040 -0.1091 -0.3533
 3374ntf    fn417668   4.429   1.521   2.585 -0.6433  0.6576 -0.0750
 3374ntf    fn417669   4.412   1.529   2.375 -0.6771  0.0666  0.1583
 3374ntf    fn417670   4.513   1.368   2.471  0.3042  0.6259 -0.0767
 3375ntf    cn117671   2.600   0.386   5.854  0.0204  0.1539 -0.2084
 3375ntf    sn217672   2.551   0.213   5.878  0.2827  0.1078 -0.0118
 3375ntf    nn317673   2.652   0.148   5.777  0.0160  0.5681 -0.5758
 3375ntf    sn217674   2.762   0.036   5.782 -0.4856  0.0942 -0.0377
 3375ntf    cn117675   2.875   0.127   5.672  0.0690 -0.3637  0.1457
 3375ntf    fn417676   2.724   0.413   5.890  0.1531  0.7100 -1.0575
 3375ntf    fn417677   2.583   0.429   5.730 -0.6749 -0.0290 -0.1832
 3375ntf    fn417678   2.518   0.461   5.926 -0.1911 -0.4857  0.2162
 3375ntf    on517679   2.569   0.208   6.021  0.3524  0.4933 -0.0053
 3375ntf    on517680   2.418   0.208   5.824  0.3178 -0.5860 -0.0522
 3375ntf    on517681   2.730  -0.088   5.715 -0.4534  0.2439 -0.3325
 3375ntf    on517682   2.841   0.025   5.901  0.2360  0.0036 -0.5183
 3375ntf    fn417683   2.858   0.090   5.546  0.1476 -0.4927  0.1736
 3375ntf    fn417684   2.869   0.259   5.681  0.8734 -0.2511 -0.8486
 3375ntf    fn417685   3.003   0.098   5.688  0.2303  0.0744 -0.3312
 3376ntf    cn117686   0.304   5.832   2.971  0.5121  0.4086 -0.1041
 3376ntf    sn217687   0.227   5.983   3.036 -0.2148 -0.0428  0.0895
 3376ntf    nn317688   0.076   5.962   2.996 -0.2294  0.6266 -0.2374
 3376ntf    sn217689  -0.037   5.928   3.099  0.0669 -0.3009 -0.2011
 3376ntf    cn117690  -0.087   6.091   3.163  0.1671 -0.1532 -0.4976
 3376ntf    fn417691   0.301   5.816   2.840  0.1707  0.5331 -0.1103
 3376ntf    fn417692   0.431   5.832   3.008  0.2699 -0.1406  0.7568
 3376ntf    fn417693   0.257   5.724   3.031  0.8261  0.0613 -0.4698
 3376ntf    on517694   0.247   5.978   3.178 -0.2096  0.1009  0.0944
 3376ntf    on517695   0.279   6.100   2.969  0.0302 -0.5374 -0.5984
 3376ntf    on517696   0.007   5.860   3.218  0.0756  0.8245  0.4565
 3376ntf    on517697  -0.155   5.873   3.037  0.0018 -0.0644 -0.2887
 3376ntf    fn417698  -0.143   6.168   3.071 -0.0226 -0.0185 -0.2712
 3376ntf    fn417699  -0.178   6.081   3.259 -0.6585  0.2153 -1.2336
 3376ntf    fn417700   0.022   6.154   3.203 -0.2602  0.2630  0.0368
 3377ntf    cn117701   1.500   2.862   2.903  0.4880  0.0665 -0.0441
 3377ntf    sn217702   1.644   2.926   2.811  0.4325  0.2372 -0.0124
 3377ntf    nn317703   1.752   2.937   2.925  0.1200 -0.0187  0.3109
 3377ntf    sn217704   1.881   2.853   2.954  0.2002  0.0985  0.2928
 3377ntf    cn117705   1.851   2.782   3.119  0.1451 -0.3544  0.0889
 3377ntf    fn417706   1.388   2.912   2.853  0.2375 -0.2360  0.2100
 3377ntf    fn417707   1.494   2.730   2.903 -0.1272  0.0923  0.1481
 3377ntf    fn417708   1.500   2.875   3.035  0.3271  0.0643 -0.0446
 3377ntf    on517709   1.667   2.823   2.714  0.2116 -0.1952  0.3883
 3377ntf    on517710   1.603   3.053   2.758  0.1307  0.2257  0.1876
 3377ntf    on517711   2.001   2.931   2.968 -0.0407  0.5532 -0.1591
 3377ntf    on517712   1.898   2.733   2.875 -0.1579 -0.5485  1.1745
 3377ntf    fn417713   1.840   2.867   3.219  0.1747  0.2886 -0.4493
 3377ntf    fn417714   1.737   2.716   3.133 -0.2013  0.1806 -0.1976
 3377ntf    fn417715   1.945   2.695   3.154 -0.2020 -0.6037  0.4036
 3378ntf    cn117716   2.674   5.370   2.732 -0.5509  0.0868 -0.0118
 3378ntf    sn217717   2.545   5.263   2.663 -0.1500 -0.5204  0.1663
 3378ntf    nn317718   2.416   5.348   2.694  0.2089  0.0826  0.0198
 3378ntf    sn217719   2.291   5.395   2.613  0.0182 -0.0723  0.2235
 3378ntf    cn117720   2.183   5.423   2.757 -0.2146  0.1805  0.0020
 3378ntf    fn417721   2.789   5.304   2.730 -0.4437  0.2679  0.1572
 3378ntf    fn417722   2.687   5.478   2.656 -0.3297  0.1988  0.1839
 3378ntf    fn417723   2.644   5.409   2.854 -0.1501 -0.0577  0.1378
 3378ntf    on517724   2.583   5.242   2.525 -0.7844  0.0911 -0.1135
 3378ntf    on517725   2.549   5.147   2.749  1.2843 -0.3291  0.3713
 3378ntf    on517726   2.208   5.306   2.535 -0.0379  0.1444  0.0343
 3378ntf    on517727   2.316   5.528   2.563 -0.3174 -0.1523 -0.1673
 3378ntf    fn417728   2.058   5.433   2.715 -0.0745  0.1471 -0.4249
 3378ntf    fn417729   2.183   5.319   2.838  0.2569 -0.1034 -0.3541
 3378ntf    fn417730   2.211   5.524   2.837 -0.2216  0.4633 -0.3491
 3379ntf    cn117731   1.386   6.431   7.037 -0.3108  0.1292 -0.1604
 3379ntf    sn217732   1.481   6.380   6.890  0.0657  0.2184  0.0504
 3379ntf    nn317733   1.427   6.490   6.792  0.3262  0.1738 -0.1406
 3379ntf    sn217734   1.337   6.460   6.667  0.1008 -0.0985  0.0860
 3379ntf    cn117735   1.451   6.393   6.543  0.3365  0.2938  0.0894
 3379ntf    fn417736   1.418   6.375   7.153 -0.8876  0.2570  0.0649
 3379ntf    fn417737   1.412   6.559   7.056  0.2031  0.0442 -0.2694
 3379ntf    fn417738   1.257   6.409   7.016 -0.3182 -0.4926  0.4969
 3379ntf    on517739   1.617   6.403   6.931  0.2703  0.3622 -0.7001
 3379ntf    on517740   1.434   6.246   6.869  0.6454  0.0201  0.0146
 3379ntf    on517741   1.284   6.581   6.609  0.1677 -0.2782 -0.3582
 3379ntf    on517742   1.237   6.357   6.679 -0.1873  0.1582 -0.0681
 3379ntf    fn417743   1.463   6.262   6.554  0.0482  0.2663  0.0756
 3379ntf    fn417744   1.414   6.419   6.419 -0.8503 -0.2274  0.3291
 3379ntf    fn417745   1.574   6.443   6.553  0.3175  0.4594 -0.4531
 3380ntf    cn117746   2.729   0.314   2.648 -0.2203  0.0014 -0.2397
 3380ntf    sn217747   2.686   0.148   2.586  0.2443 -0.0658 -0.3898
 3380ntf    nn317748   2.639   0.193   2.443  0.2042  0.1091 -0.3217
 3380ntf    sn217749   2.550   0.109   2.346 -0.1706  0.2629 -0.1130
 3380ntf    cn117750   2.673   0.048   2.226  0.3253 -0.0890  0.5682
 3380ntf    fn417751   2.629   0.376   2.707  0.0378 -0.0467  0.2454
 3380ntf    fn417752   2.819   0.295   2.742  0.6096  1.0397 -0.8115
 3380ntf    fn417753   2.787   0.389   2.555 -0.1422 -0.3628 -0.4917
 3380ntf    on517754   2.806   0.070   2.601  0.1888 -0.1858 -0.5767
 3380ntf    on517755   2.573   0.105   2.665  0.1700 -0.3770 -0.6605
 3380ntf    on517756   2.454   0.186   2.270 -0.5033  0.0697  0.1103
 3380ntf    on517757   2.502  -0.017   2.397  0.1870  0.3378  0.4175
 3380ntf    fn417758   2.784   0.005   2.283  0.2899  0.2410  0.8936
 3380ntf    fn417759   2.626  -0.049   2.150 -0.1560  0.2016  0.4852
 3380ntf    fn417760   2.708   0.147   2.145 -0.1772  0.1671  0.6567
 3381ntf    cn117761   0.249   1.251   2.118  0.2695  0.4061  0.3136
 3381ntf    sn217762   0.291   1.097   2.031  0.1029  0.4761  0.1074
 3381ntf    nn317763   0.352   1.019   2.153  0.1394  0.8130  0.3043
 3381ntf    sn217764   0.504   0.988   2.178  0.0260  0.0598  0.0691
 3381ntf    cn117765   0.524   1.116   2.306  0.0540  0.2516 -0.1263
 3381ntf    fn417766   0.166   1.324   2.046  0.4630  0.0380 -0.2876
 3381ntf    fn417767   0.196   1.252   2.240  0.3454 -0.2043  0.3550
 3381ntf    fn417768   0.358   1.323   2.130  0.0689  0.7730 -0.0564
 3381ntf    on517769   0.159   1.055   1.993  0.0582  0.4625  0.2748
 3381ntf    on517770   0.382   1.130   1.925 -0.0431  0.4985 -0.0111
 3381ntf    on517771   0.607   1.028   2.085  0.3545 -0.3075  0.2700
 3381ntf    on517772   0.532   0.867   2.251 -0.2415 -0.4981 -0.7446
 3381ntf    fn417773   0.511   1.236   2.253  0.6635  0.3020 -0.1699
 3381ntf    fn417774   0.431   1.102   2.398 -0.4235 -0.1589 -0.6606
 3381ntf    fn417775   0.644   1.116   2.361 -0.1467  0.2910  0.3168
 3382ntf    cn117776   2.125   5.150   0.486 -0.4222 -0.2840  0.0308
 3382ntf    sn217777   1.993   5.032   0.527 -0.2855 -0.4172  0.0896
 3382ntf    nn317778   1.934   5.107   0.652 -0.1726 -0.3130  0.0816
 3382ntf    sn217779   1.911   5.068   0.802 -0.1696 -0.1626  0.1211
 3382ntf    cn117780   2.076   5.112   0.866 -0.5102  0.7152  0.4103
 3382ntf    fn417781   2.215   5.106   0.399 -0.1085  0.4662 -0.0367
 3382ntf    fn417782   2.069   5.259   0.436 -0.3313 -0.1178  0.2906
 3382ntf    fn417783   2.192   5.187   0.594  0.0722 -0.9048 -0.0577
 3382ntf    on517784   1.906   5.032   0.413  0.0158  0.5880 -0.1492
 3382ntf    on517785   2.062   4.910   0.560 -0.3516 -0.6081 -0.4853
 3382ntf    on517786   1.891   4.928   0.832  0.4758 -0.1505  0.6281
 3382ntf    on517787   1.823   5.156   0.875 -0.3300 -0.4397  0.2631
 3382ntf    fn417788   2.116   5.222   0.805  0.2329 -0.0286 -0.4787
 3382ntf    fn417789   2.080   5.134   0.996  0.2371 -0.1431  0.5391
 3382ntf    fn417790   2.165   5.020   0.834 -0.6840  0.5339  0.4442
 3383ntf    cn117791   3.938   2.770   4.442  0.2804  0.1222 -0.1151
 3383ntf    sn217792   3.917   2.821   4.615  0.0667 -0.1855 -0.0500
 3383ntf    nn317793   3.761   2.838   4.611  0.0839 -0.0552 -0.1753
 3383ntf    sn217794   3.651   2.729   4.639 -0.1645  0.2519  0.0555
 3383ntf    cn117795   3.560   2.726   4.482  0.1273 -0.3291 -0.1048
 3383ntf    fn417796   3.946   2.639   4.427 -0.1711  0.0651  0.1639
 3383ntf    fn417797   3.835   2.802   4.366  0.0922 -0.3986 -0.0853
 3383ntf    fn417798   4.043   2.820   4.378 -0.0684  0.2970 -0.5592
 3383ntf    on517799   3.971   2.716   4.698 -0.4541 -0.6960 -0.3506
 3383ntf    on517800   3.968   2.955   4.624 -0.2466 -0.0824  0.1759
 3383ntf    on517801   3.547   2.770   4.730  0.0537 -0.2036  0.5155
 3383ntf    on517802   3.696   2.592   4.651 -0.1020  0.1996 -0.7411
 3383ntf    fn417803   3.639   2.693   4.381 -0.3656 -0.6777 -0.3779
 3383ntf    fn417804   3.462   2.638   4.486 -0.1655 -0.0213 -0.4159
 3383ntf    fn417805   3.499   2.840   4.454  0.1686 -0.2114  0.2860
 3384ntf    cn117806   0.560   4.394   4.518  0.0931  0.2683  0.0877
 3384ntf    sn217807   0.576   4.351   4.694  0.0311 -0.2895 -0.0425
 3384ntf    nn317808   0.438   4.416   4.732  0.2470 -0.0505  0.3404
 3384ntf    sn217809   0.307   4.365   4.803 -0.0592  0.1547 -0.0757
 3384ntf    cn117810   0.298   4.493   4.932  0.5187  0.0827  0.0394
 3384ntf    fn417811   0.652   4.342   4.439  0.1413  0.7233 -0.1605
 3384ntf    fn417812   0.448   4.356   4.460  0.0424  0.1765  0.2458
 3384ntf    fn417813   0.583   4.523   4.498 -0.0806  0.2251 -0.4139
 3384ntf    on517814   0.572   4.207   4.696  0.4939 -0.3116 -0.5939
 3384ntf    on517815   0.695   4.418   4.742  0.3576 -0.1733 -0.9938
 3384ntf    on517816   0.308   4.245   4.882 -0.2491 -0.1718 -0.5650
 3384ntf    on517817   0.191   4.398   4.723  0.2781 -0.1843 -0.7169
 3384ntf    fn417818   0.277   4.610   4.874 -0.3955  0.3201  0.8241
 3384ntf    fn417819   0.200   4.460   5.015  0.4830  0.5007  0.1628
 3384ntf    fn417820   0.406   4.486   5.008  0.0313 -0.1768  0.7207
 3385ntf    cn117821   3.222   1.205   3.869 -0.2326  0.3303 -0.1560
 3385ntf    sn217822   3.205   1.139   4.038  0.0846  0.2131 -0.1688
 3385ntf    nn317823   3.305   1.019   4.040 -0.2574 -0.0868 -0.7485
 3385ntf    sn217824   3.280   0.872   4.091  0.0105 -0.0779 -0.5864
 3385ntf    cn117825   3.292   0.899   4.271  0.0414  0.3886 -0.6565
 3385ntf    fn417826   3.344   1.244   3.840  0.0789 -0.4558  0.0576
 3385ntf    fn417827   3.187   1.112   3.782  0.1709  0.1022 -0.0767
 3385ntf    fn417828   3.138   1.306   3.852 -0.0449  0.5277  0.0961
 3385ntf    on517829   3.250   1.252   4.115  0.2815 -0.0746  0.1412
 3385ntf    on517830   3.064   1.110   4.046  0.1790 -0.2198 -0.0722
 3385ntf    on517831   3.395   0.787   4.078  0.3825  0.2536  0.4526
 3385ntf    on517832   3.154   0.807   4.063 -0.1298 -0.0846  0.0314
 3385ntf    fn417833   3.338   0.788   4.326 -0.3529  0.3528 -0.3900
 3385ntf    fn417834   3.363   1.007   4.298  0.0824  0.0293  0.7640
 3385ntf    fn417835   3.172   0.930   4.318  0.3929 -0.3245  0.7540
 3386ntf    cn117836   2.338   1.380   0.034  0.1875  0.6128  0.1251
 3386ntf    sn217837   2.296   1.358  -0.142 -0.1737 -0.1089  0.2974
 3386ntf    nn317838   2.432   1.320  -0.209  0.4437  0.2805  1.3069
 3386ntf    sn217839   2.557   1.411  -0.238  0.2861  0.0666 -0.1108
 3386ntf    cn117840   2.514   1.454  -0.409 -0.0925 -0.4575 -0.1500
 3386ntf    fn417841   2.350   1.264   0.097  0.4168  0.3202 -0.4419
 3386ntf    fn417842   2.457   1.431   0.060  0.1818  0.3798  0.6162
 3386ntf    fn417843   2.252   1.451   0.105 -0.5218  0.0732 -0.1795
 3386ntf    on517844   2.205   1.246  -0.149 -0.4690  0.1542 -0.1648
 3386ntf    on517845   2.258   1.494  -0.174  0.4496  0.0903  0.3867
 3386ntf    on517846   2.685   1.347  -0.248 -0.0977 -0.7886  0.2946
 3386ntf    on517847   2.569   1.534  -0.164  0.1700  0.0430 -0.0522
 3386ntf    fn417848   2.553   1.367  -0.500 -0.5239 -0.5272 -0.2746
 3386ntf    fn417849   2.385   1.479  -0.430 -0.1774 -0.7757 -0.0054
 3386ntf    fn417850   2.576   1.567  -0.440  0.4102 -0.6017  0.3250
 3387ntf    cn117851   6.941   0.999   7.258 -0.2971  0.0987 -0.0762
 3387ntf    sn217852   6.971   0.905   7.105  0.0115  0.0483  0.0127
 3387ntf    nn317853   7.082   0.804   7.152 -0.0072  0.1338  0.2462
 3387ntf    sn217854   7.234   0.789   7.114  0.0278  0.0268  0.4300
 3387ntf    cn117855   7.259   0.609   7.113  0.0250  0.0282  0.0959
 3387ntf    fn417856   6.837   1.080   7.254 -0.2240  0.1666 -0.8543
 3387ntf    fn417857   6.929   0.915   7.360 -0.2872  0.1731 -0.0134
 3387ntf    fn417858   7.039   1.082   7.294 -0.0804 -0.0846 -0.2389
 3387ntf    on517859   6.840   0.848   7.085  0.1766 -0.1587 -0.4827
 3387ntf    on517860   7.012   0.990   6.997 -0.1069  0.0678 -0.0167
 3387ntf    on517861   7.326   0.819   7.221  0.3338  0.5971  0.0117
 3387ntf    on517862   7.274   0.822   6.980  0.1481 -0.6383  0.3035
 3387ntf    fn417863   7.188   0.561   7.013  0.1830  0.1284 -0.0647
 3387ntf    fn417864   7.381   0.558   7.111  0.0210  0.0380 -0.5321
 3387ntf    fn417865   7.208   0.559   7.225 -0.2918 -0.5560 -0.3058
 3388ntf    cn117866   7.063   5.541   4.017 -0.0098 -0.1573 -0.0288
 3388ntf    sn217867   6.987   5.379   3.984 -0.0734 -0.1064 -0.1338
 3388ntf    nn317868   7.112   5.284   3.980 -0.3031 -0.3903 -0.6135
 3388ntf    sn217869   7.171   5.218   3.850  0.0579 -0.1613 -0.5685
 3388ntf    cn117870   7.044   5.097   3.801  0.0264 -0.3976  0.0785
 3388ntf    fn417871   7.173   5.557   3.945 -0.3901  0.0791 -0.5603
 3388ntf    fn417872   6.988   5.649   3.998  0.7606  0.3154 -0.4409
 3388ntf    fn417873   7.107   5.533   4.141 -0.5676  0.3460  0.2097
 3388ntf    on517874   6.907   5.361   4.103 -0.3246 -0.0775 -0.2983
 3388ntf    on517875   6.910   5.401   3.865  0.5074  0.2107 -0.4552
 3388ntf    on517876   7.279   5.129   3.884  0.0338  0.0598  0.1180
 3388ntf    on517877   7.181   5.311   3.741  0.5551  0.3484 -0.0967
 3388ntf    fn417878   7.073   5.046   3.682  0.1749  0.5083 -0.2834
 3388ntf    fn417879   7.045   4.998   3.888 -0.4472 -0.0105  0.5356
 3388ntf    fn417880   6.923   5.149   3.797  0.2115  0.0127 -0.3866
 3389ntf    cn117881   3.657   6.473   5.556 -0.2013  0.4650  0.0475
 3389ntf    sn217882   3.496   6.553   5.579 -0.4913 -0.0823 -0.0675
 3389ntf    nn317883   3.407   6.424   5.593 -0.3661 -0.2274 -0.5752
 3389ntf    sn217884   3.352   6.350   5.720  0.3345 -0.1593 -0.2219
 3389ntf    cn117885   3.290   6.188   5.664  0.3080 -0.2511  0.0697
 3389ntf    fn417886   3.646   6.371   5.473  0.0700  0.5385 -0.0802
 3389ntf    fn417887   3.738   6.558   5.495  0.2111 -0.0224 -0.1008
 3389ntf    fn417888   3.714   6.436   5.670 -0.1360 -0.5395 -0.2979
 3389ntf    on517889   3.509   6.643   5.691 -0.0780 -0.3611  0.1072
 3389ntf    on517890   3.479   6.613   5.449 -0.0708  0.1706 -0.0086
 3389ntf    on517891   3.234   6.414   5.772  0.3034 -0.6414  0.3177
 3389ntf    on517892   3.457   6.300   5.805 -0.0807 -0.2382  0.2481
 3389ntf    fn417893   3.390   6.111   5.624  0.3517 -0.1714  0.0234
 3389ntf    fn417894   3.233   6.123   5.764  0.3318 -0.4667 -0.0572
 3389ntf    fn417895   3.198   6.192   5.568  0.3859  0.0759  0.0080
 3390ntf    cn117896   4.168   5.710   6.905  0.2415  0.2758 -0.3603
 3390ntf    sn217897   4.239   5.871   6.948 -0.0485  0.1764  0.5164
 3390ntf    nn317898   4.356   5.816   7.037  0.2760  0.1410  0.0702
 3390ntf    sn217899   4.367   5.796   7.192  0.3485 -0.4340 -0.0079
 3390ntf    cn117900   4.389   5.964   7.258  0.0960 -0.2860 -0.3026
 3390ntf    fn417901   4.065   5.718   6.822  0.0500 -0.8160 -0.2521
 3390ntf    fn417902   4.244   5.617   6.849 -0.6149 -0.7451  0.1277
 3390ntf    fn417903   4.106   5.650   7.006  0.3404  0.5127 -0.1587
 3390ntf    on517904   4.288   5.921   6.822  0.1041 -0.1831  0.4320
 3390ntf    on517905   4.139   5.945   7.022 -1.0138 -0.3258 -0.2592
 3390ntf    on517906   4.499   5.748   7.226  0.7749  0.9588  0.3711
 3390ntf    on517907   4.247   5.736   7.246  0.5067 -0.5574  0.2094
 3390ntf    fn417908   4.494   6.023   7.204  0.4787 -0.1863  0.5384
 3390ntf    fn417909   4.288   6.046   7.234  0.0212 -0.2702  0.0593
 3390ntf    fn417910   4.409   5.964   7.388 -0.2759  0.0950 -0.2430
 3391ntf    cn117911   4.781   2.639   7.084 -0.7415  0.1596 -0.3009
 3391ntf    sn217912   4.899   2.505   7.120 -0.5065  0.4002 -0.1775
 3391ntf    nn317913   5.035   2.585   7.120 -0.2218 -0.0769  0.3138
 3391ntf    sn217914   5.180   2.539   7.082 -0.1127  0.4375  0.0967
 3391ntf    cn117915   5.285   2.637   7.193  0.0602  0.2489  0.0992
 3391ntf    fn417916   4.706   2.667   7.189 -0.1652  0.2697  0.0894
 3391ntf    fn417917   4.843   2.748   7.041  0.2325 -0.2344  0.0752
 3391ntf    fn417918   4.708   2.608   6.978 -0.9055 -0.0191 -0.1355
 3391ntf    on517919   4.852   2.482   7.255 -0.0600 -0.2499 -0.1283
 3391ntf    on517920   4.874   2.401   7.024 -0.0248  0.0011  0.1235
 3391ntf    on517921   5.226   2.581   6.952 -0.2291 -0.5073 -0.2580
 3391ntf    on517922   5.211   2.404   7.123 -0.5433  0.5182  0.7047
 3391ntf    fn417923   5.412   2.600   7.197 -0.2373 -0.8204 -0.0609
 3391ntf    fn417924   5.285   2.768   7.178 -0.0584  0.2410  0.0294
 3391ntf    fn417925   5.236   2.612   7.313  0.1244  0.1391  0.1028
 3392ntf    cn117926   4.362   3.196   0.780  0.4645  0.3356  0.8432
 3392ntf    sn217927   4.367   3.309   0.638 -0.3880 -0.4176  0.2036
 3392ntf    nn317928   4.331   3.442   0.714 -0.1498  0.1809 -0.7072
 3392ntf    sn217929   4.197   3.523   0.709 -0.2662  0.0279 -0.1238
 3392ntf    cn117930   4.236   3.610   0.555 -0.0695 -0.1748 -0.1888
 3392ntf    fn417931   4.239   3.188   0.829  0.3100  0.1982  0.4365
 3392ntf    fn417932   4.395   3.075   0.738  0.2218  0.5263  0.0943
 3392ntf    fn417933   4.440   3.233   0.880  0.3576  0.5965  0.8297
 3392ntf    on517934   4.508   3.301   0.612 -0.3061  1.3663 -0.0299
 3392ntf    on517935   4.272   3.265   0.538 -0.2525  0.4442 -0.3107
 3392ntf    on517936   4.191   3.627   0.809 -0.0496 -0.0167 -0.0624
 3392ntf    on517937   4.078   3.446   0.682 -0.5677  0.4201  0.0874
 3392ntf    fn417938   4.249   3.527   0.452  0.7455  0.4403 -0.5917
 3392ntf    fn417939   4.136   3.693   0.531 -0.4310 -0.4407  0.3816
 3392ntf    fn417940   4.343   3.687   0.568 -0.0131 -0.3373  0.3234
 3393ntf    cn117941   3.248   3.807   4.958 -0.0614 -0.1427  0.3684
 3393ntf    sn217942   3.411   3.738   4.919 -0.0596  0.1315 -0.1135
 3393ntf    nn317943   3.412   3.707   4.765 -0.1258  0.3108 -0.1503
 3393ntf    sn217944   3.354   3.583   4.689  0.3805  0.0721 -0.1504
 3393ntf    cn117945   3.475   3.452   4.723  0.1130 -0.2043 -0.2549
 3393ntf    fn417946   3.211   3.783   5.083  0.0391  0.1940  0.4651
 3393ntf    fn417947   3.253   3.939   4.952 -0.0632 -0.1528  0.1296
 3393ntf    fn417948   3.150   3.765   4.879 -0.3453 -0.0294  0.6543
 3393ntf    on517949   3.507   3.837   4.960 -0.0527 -0.1217  0.4847
 3393ntf    on517950   3.420   3.620   5.001 -0.5799  0.4009  0.3355
 3393ntf    on517951   3.368   3.604   4.547  0.1562 -0.0424 -0.1900
 3393ntf    on517952   3.224   3.534   4.727  0.3377  0.1536 -0.1924
 3393ntf    fn417953   3.457   3.344   4.649  0.7618 -0.0328 -0.6745
 3393ntf    fn417954   3.600   3.485   4.693  0.0719 -0.0707 -0.2805
 3393ntf    fn417955   3.470   3.415   4.850 -0.1264 -0.5822 -0.3745
 3394ntf    cn117956   1.228   2.763   2.576 -0.1438  0.0690  0.1539
 3394ntf    sn217957   1.344   2.685   2.460 -0.0932  0.3260  0.0303
 3394ntf    nn317958   1.248   2.662   2.338  0.8989 -0.2694 -0.6525
 3394ntf    sn217959   1.206   2.759   2.222 -0.1932  0.0720  0.0108
 3394ntf    cn117960   1.168   2.638   2.092  0.3314 -0.3175  0.2191
 3394ntf    fn417961   1.157   2.862   2.525  0.4140  0.2631 -0.2610
 3394ntf    fn417962   1.135   2.680   2.621 -0.4281  0.4633  0.2998
 3394ntf    fn417963   1.281   2.818   2.684  0.3904  0.0593 -0.1025
 3394ntf    on517964   1.458   2.769   2.435  0.1528  0.1902  0.6756
 3394ntf    on517965   1.376   2.557   2.518  0.2771  0.4028 -0.0018
 3394ntf    on517966   1.297   2.857   2.167 -0.0811 -0.0046  0.0591
 3394ntf    on517967   1.075   2.814   2.246 -0.2055  0.0221  0.0568
 3394ntf    fn417968   1.115   2.690   1.982  0.4385 -0.2843  0.1826
 3394ntf    fn417969   1.278   2.568   2.065  0.5577  0.3642 -0.6722
 3394ntf    fn417970   1.078   2.550   2.131  0.0196  0.1024  0.4477
 3395ntf    cn117971   3.435   3.841   0.851  0.2683 -0.6466  0.0951
 3395ntf    sn217972   3.377   3.674   0.895 -0.2485 -0.3984  0.3586
 3395ntf    nn317973   3.285   3.638   0.774 -0.1366  0.0529  0.1375
 3395ntf    sn217974   3.129   3.632   0.756 -0.1446  0.0550  0.2079
 3395ntf    cn117975   3.103   3.733   0.607  0.0997 -0.0281  0.1087
 3395ntf    fn417976   3.341   3.928   0.822  0.3442 -0.5634  0.0983
 3395ntf    fn417977   3.500   3.892   0.955  0.5148 -0.2975 -0.2275
 3395ntf    fn417978   3.519   3.850   0.749  0.3480  0.0448  0.2178
 3395ntf    on517979   3.497   3.595   0.904 -0.0357 -0.1047  0.1216
 3395ntf    on517980   3.310   3.693   1.022  0.1839 -0.4328  0.5973
 3395ntf    on517981   3.042   3.689   0.856 -0.7720 -0.1377 -0.2274
 3395ntf    on517982   3.086   3.506   0.700 -0.4241  0.2774 -0.0810
 3395ntf    fn417983   3.193   3.708   0.513  0.1669  0.8369 -0.0660
 3395ntf    fn417984   2.980   3.722   0.562 -0.0466  0.1214  0.4705
 3395ntf    fn417985   3.110   3.863   0.631  0.2027 -0.0336  0.1115
 3396ntf    cn117986   3.841   2.856   0.510 -0.0723  0.3888 -0.4745
 3396ntf    sn217987   3.927   2.902   0.357 -0.0154  0.5580 -0.3916
 3396ntf    nn317988   3.863   3.042   0.325  0.2398  0.8029  0.1480
 3396ntf    sn217989   3.714   3.069   0.283 -0.0443 -0.0827  0.5449
 3396ntf    cn117990   3.754   3.163   0.132  0.3427  0.1184  0.7688
 3396ntf    fn417991   3.710   2.843   0.497 -0.0881  0.2045 -0.1445
 3396ntf    fn417992   3.882   2.739   0.556 -0.6276  0.3465 -0.0677
 3396ntf    fn417993   3.858   2.950   0.602 -0.5849 -0.3186  0.3582
 3396ntf    on517994   4.063   2.926   0.399 -0.0406  0.4917 -0.2695
 3396ntf    on517995   3.907   2.793   0.265  0.3128 -0.0875  0.2911
 3396ntf    on517996   3.641   3.172   0.352 -0.3925 -0.0970  0.2004
 3396ntf    on517997   3.634   2.965   0.224 -0.1278  0.1619  0.2258
 3396ntf    fn417998   3.818   3.277   0.149  0.5379  0.1086  0.1311
 3396ntf    fn417999   3.835   3.095   0.053  0.0057  0.6130 -0.0184
 3396ntf    fn418000   3.651   3.205   0.060 -0.0078 -0.8700  0.6770
 3397ntf    cn118001   1.269   6.085   0.996  0.2795  0.3146  0.3445
 3397ntf    sn218002   1.397   6.198   1.059  0.0198  0.6814  0.2156
 3397ntf    nn318003   1.524   6.151   0.980 -0.0969  0.3029  0.2482
 3397ntf    sn218004   1.677   6.169   1.015  0.0232  0.5304 -0.3792
 3397ntf    cn118005   1.736   6.246   0.862  0.1236  0.2320 -0.4920
 3397ntf    fn418006   1.256   6.085   0.864 -0.3776  0.2555  0.4091
 3397ntf    fn418007   1.304   5.959   1.019  0.7579  0.2790 -0.5171
 3397ntf    fn418008   1.158   6.111   1.062  0.2444  0.1986  0.3307
 3397ntf    on518009   1.335   6.324   1.026 -0.4920  0.3091 -0.2578
 3397ntf    on518010   1.403   6.153   1.196  0.2954 -0.0795 -0.0408
 3397ntf    on518011   1.748   6.044   1.008 -0.1242  0.4267 -0.0369
 3397ntf    on518012   1.720   6.270   1.109  0.3601  0.1341 -0.1029
 3397ntf    fn418013   1.692   6.370   0.850  0.5799  0.4947  0.4619
 3397ntf    fn418014   1.867   6.262   0.856  0.2129 -0.1712  0.2517
 3397ntf    fn418015   1.690   6.170   0.764  0.1757  0.0230 -0.3545
 3398ntf    cn118016   5.927   1.904   3.607 -0.2235  0.3032 -0.2577
 3398ntf    sn218017   6.078   1.860   3.697 -0.2686  0.0245 -0.3173
 3398ntf    nn318018   6.018   1.823   3.837 -0.3071  0.1116 -0.3107
 3398ntf    sn218019   6.076   1.830   3.983  0.0441  0.1488 -0.4504
 3398ntf    cn118020   6.001   1.990   4.027 -0.2429 -0.1430  0.1446
 3398ntf    fn418021   5.839   1.957   3.690  0.2354 -0.1401  0.5240
 3398ntf    fn418022   5.950   1.998   3.517  0.4994  0.1644 -0.2247
 3398ntf    fn418023   5.865   1.808   3.540 -0.4808 -0.0294  0.4461
 3398ntf    on518024   6.133   1.753   3.618 -0.0016 -0.0512 -0.0310
 3398ntf    on518025   6.147   1.986   3.706  0.5791 -0.3630 -1.1542
 3398ntf    on518026   6.218   1.846   3.997 -0.0888  0.4602  0.6432
 3398ntf    on518027   6.010   1.748   4.082 -0.3384  0.8227 -0.1341
 3398ntf    fn418028   6.082   2.087   3.985 -0.3581 -0.2060 -0.2307
 3398ntf    fn418029   5.881   2.000   3.972 -0.0169  0.4186 -0.2637
 3398ntf    fn418030   5.984   2.017   4.155  0.3019  0.2771  0.1324
 3399ntf    cn118031   6.834   6.635   2.577 -0.0457 -0.2070  0.2083
 3399ntf    sn218032   6.879   6.659   2.403 -0.1260 -0.0860  0.2048
 3399ntf    nn318033   6.856   6.815   2.398  0.2911 -0.0212  0.2692
 3399ntf    sn218034   6.928   6.923   2.311 -0.1016  0.0439  0.0216
 3399ntf    cn118035   7.035   7.006   2.433 -0.3761 -0.1199  0.3732
 3399ntf    fn418036   6.707   6.654   2.608 -0.0909  0.0080 -0.1152
 3399ntf    fn418037   6.855   6.513   2.625 -0.6566 -0.1058  0.7494
 3399ntf    fn418038   6.908   6.716   2.650  1.0579 -0.5841 -0.4694
 3399ntf    on518039   7.016   6.616   2.399 -0.0671  0.1503 -0.5706
 3399ntf    on518040   6.782   6.581   2.330  0.5391 -0.4216 -0.3288
 3399ntf    on518041   6.842   7.030   2.269  0.2312  0.4332  0.3157
 3399ntf    on518042   7.018   6.878   2.207  0.1965  0.5209  0.0689
 3399ntf    fn418043   6.973   7.068   2.532 -0.1282 -0.3795  0.6917
 3399ntf    fn418044   7.109   6.915   2.493 -0.0610 -0.1585 -0.0717
 3399ntf    fn418045   7.130   7.082   2.382 -0.3698 -0.4103 -0.0518
 3400ntf    cn118046   1.376   1.045   6.409  0.0242  0.2190 -0.5250
 3400ntf    sn218047   1.277   0.921   6.320  0.0490 -0.2234  0.0565
 3400ntf    nn318048   1.369   0.798   6.354  0.4936  0.1594  0.2513
 3400ntf    sn218049   1.322   0.661   6.415  0.0759  0.2855  0.2178
 3400ntf    cn118050   1.411   0.668   6.573  0.3957 -0.0893  0.0582
 3400ntf    fn418051   1.492   1.062   6.348  0.2186 -0.0229 -0.2289
 3400ntf    fn418052   1.326   1.167   6.404 -0.1642  0.1798  0.2205
 3400ntf    fn418053   1.397   1.006   6.534  0.1436  0.1521 -0.5663
 3400ntf    on518054   1.142   0.928   6.368 -0.0630  0.3964 -0.3450
 3400ntf    on518055   1.289   0.959   6.181  0.1053  0.1189  0.1540
 3400ntf    on518056   1.387   0.553   6.344 -0.9693 -0.4104  0.2944
 3400ntf    on518057   1.186   0.637   6.456  0.0722  0.0150  0.0494
 3400ntf    fn418058   1.538   0.633   6.568  0.3596 -0.2932  0.5126
 3400ntf    fn418059   1.412   0.790   6.624 -0.7048 -0.0025 -0.1053
 3400ntf    fn418060   1.359   0.582   6.659 -0.5556  0.0376 -0.3738
 3401ntf    cn118061   0.225   0.548   4.958 -0.5197  0.3144 -0.0083
 3401ntf    sn218062   0.322   0.642   5.079  0.3148 -0.3447 -0.1524
 3401ntf    nn318063   0.239   0.603   5.206 -0.1647  0.5845 -0.1650
 3401ntf    sn218064   0.161   0.688   5.313 -0.3941 -0.1572  0.2657
 3401ntf    cn118065   0.187   0.570   5.449 -0.2449 -0.0920  0.2926
 3401ntf    fn418066   0.272   0.542   4.834 -0.7187  0.1693 -0.0798
 3401ntf    fn418067   0.220   0.418   4.986  0.2228  0.2932  0.0471
 3401ntf    fn418068   0.099   0.586   4.940 -0.6501 -0.1096 -0.0034
 3401ntf    on518069   0.455   0.587   5.079  0.3814 -0.1879  0.2781
 3401ntf    on518070   0.305   0.780   5.040 -0.4287 -0.1832  0.7104
 3401ntf    on518071   0.017   0.684   5.301 -0.4004  0.7118  0.0183
 3401ntf    on518072   0.228   0.807   5.359 -0.2561 -0.3359  0.5294
 3401ntf    fn418073   0.314   0.566   5.486 -0.1793 -0.1569  0.0581
 3401ntf    fn418074   0.127   0.615   5.558 -0.1326  0.8611 -0.0237
 3401ntf    fn418075   0.138   0.450   5.428 -0.8846  0.0729  0.7896
 3402ntf    cn118076   6.259   4.420   2.561 -0.0336 -0.0882  0.2656
 3402ntf    sn218077   6.130   4.476   2.445  0.1120 -0.0828  0.1063
 3402ntf    nn318078   6.229   4.490   2.323 -0.0013  0.4218  0.0707
 3402ntf    sn218079   6.195   4.556   2.185 -0.1349  0.0695 -0.0667
 3402ntf    cn118080   6.103   4.420   2.108 -0.0203  0.0579 -0.1849
 3402ntf    fn418081   6.304   4.296   2.557  0.1475 -0.0091 -0.2377
 3402ntf    fn418082   6.372   4.489   2.555  0.0573 -0.1367  1.2510
 3402ntf    fn418083   6.219   4.450   2.683  0.1573  0.1273  0.2768
 3402ntf    on518084   6.042   4.362   2.450 -0.5314  0.4267  0.5604
 3402ntf    on518085   6.086   4.596   2.510 -0.2784 -0.1113 -0.1056
 3402ntf    on518086   6.314   4.584   2.108  0.1505 -0.2575  0.2522
 3402ntf    on518087   6.101   4.664   2.197 -0.1813 -0.0226  0.4227
 3402ntf    fn418088   5.982   4.405   2.159 -0.0155  0.5851 -0.0188
 3402ntf    fn418089   6.085   4.436   1.978 -0.1079  0.2101 -0.1541
 3402ntf    fn418090   6.165   4.307   2.139  0.0705  0.0557 -0.3741
 3403ntf    cn118091   7.207   6.421   4.627 -0.3651  0.3107 -0.0282
 3403ntf    sn218092   7.067   6.535   4.651 -0.4232  0.2044  0.1357
 3403ntf    nn318093   7.151   6.662   4.688 -0.0168 -0.1103  0.3058
 3403ntf    sn218094   7.221   6.766   4.593 -0.3109 -0.5059 -0.3491
 3403ntf    cn118095   7.391   6.703   4.605 -0.1301  0.0499  0.0775
 3403ntf    fn418096   7.183   6.296   4.662  0.5903  0.0763 -0.1768
 3403ntf    fn418097   7.247   6.416   4.501 -0.2405  0.0198  0.0232
 3403ntf    fn418098   7.307   6.462   4.702 -0.1031  0.0126 -0.2126
 3403ntf    on518099   6.990   6.550   4.531  0.1864  0.5905 -0.2120
 3403ntf    on518100   7.007   6.484   4.772 -0.5973 -0.1912 -0.1165
 3403ntf    on518101   7.222   6.899   4.648 -0.3152 -0.5899 -0.1443
 3403ntf    on518102   7.189   6.757   4.453 -0.7113  0.0343 -0.2966
 3403ntf    fn418103   7.447   6.699   4.724 -0.4592 -0.6624  0.2114
 3403ntf    fn418104   7.400   6.584   4.548 -0.6656 -0.0148  0.1224
 3403ntf    fn418105   7.476   6.783   4.543 -0.4363  0.3808  0.0816
 3404ntf    cn118106   4.468   4.792   1.163  0.5147  0.1221 -0.2310
 3404ntf    sn218107   4.542   4.731   1.318 -0.2932  0.1406  0.1667
 3404ntf    nn318108   4.452   4.605   1.346 -0.1867 -0.0035 -0.1359
 3404ntf    sn218109   4.493   4.487   1.440  0.4341  0.4762  0.2055
 3404ntf    cn118110   4.418   4.532   1.599  0.1505  0.0418  0.1943
 3404ntf    fn418111   4.504   4.915   1.131 -0.5616  0.5855  0.2965
 3404ntf    fn418112   4.495   4.719   1.056  0.6625 -0.3466  0.1185
 3404ntf    fn418113   4.337   4.791   1.177  0.5415  0.4280  0.0455
 3404ntf    on518114   4.680   4.708   1.283 -0.4314 -0.2811 -0.1014
 3404ntf    on518115   4.510   4.839   1.408 -0.5867  0.2195 -0.0310
 3404ntf    on518116   4.631   4.466   1.480  0.4313  0.6752  0.3192
 3404ntf    on518117   4.415   4.369   1.412 -0.0782  0.7891  0.2981
 3404ntf    fn418118   4.483   4.469   1.696 -0.0893 -0.6364 -0.0780
 3404ntf    fn418119   4.421   4.662   1.622  0.0794  0.0981 -0.1100
 3404ntf    fn418120   4.289   4.504   1.617 -0.0171  0.6936  0.0124
 3405ntf    cn118121   4.533   6.400   1.023 -0.0493 -0.2710 -0.1225
 3405ntf    sn218122   4.407   6.306   1.114 -0.1026  0.0361  0.1242
 3405ntf    nn318123   4.443   6.159   1.073 -0.2701  0.0779 -0.1820
 3405ntf    sn218124   4.356   6.054   0.995  0.1507 -0.2260 -0.2482
 3405ntf    cn118125   4.264   5.989   1.138 -0.3291  0.1236 -0.3966
 3405ntf    fn418126   4.657   6.365   1.050  0.0335  0.2549  0.1990
 3405ntf    fn418127   4.527   6.390   0.891  0.0884 -0.1271 -0.1405
 3405ntf    fn418128   4.517   6.530   1.045  0.0894 -0.0957 -0.9987
 3405ntf    on518129   4.433   6.335   1.253  0.3316 -0.0392  0.0592
 3405ntf    on518130   4.285   6.370   1.071 -0.2611 -0.9753 -0.9985
 3405ntf    on518131   4.439   5.949   0.941 -0.3565 -0.8000  0.0709
 3405ntf    on518132   4.256   6.115   0.912  0.0288 -0.3886 -0.2219
 3405ntf    fn418133   4.332   6.012   1.249 -0.1478 -0.1432 -0.4518
 3405ntf    fn418134   4.152   6.052   1.169 -0.3098  0.1535 -0.3890
 3405ntf    fn418135   4.237   5.860   1.126 -0.6817  0.1722 -0.1350
 3406ntf    cn118136   3.931   4.120   2.893  0.0583 -0.1750  0.2077
 3406ntf    sn218137   3.760   4.157   2.844  0.1805 -0.1050 -0.1652
 3406ntf    nn318138   3.788   4.136   2.691  0.4960  0.1432 -0.1420
 3406ntf    sn218139   3.763   4.235   2.571 -0.3155 -0.1705 -0.2326
 3406ntf    cn118140   3.932   4.270   2.516 -0.1815 -0.3596  0.0531
 3406ntf    fn418141   3.981   4.026   2.815 -0.5412 -0.5527  0.2747
 3406ntf    fn418142   4.010   4.225   2.877 -0.0958  0.0295  0.7522
 3406ntf    fn418143   3.934   4.070   3.016 -0.1782  0.6403  0.5514
 3406ntf    on518144   3.689   4.047   2.904 -0.0584  0.1986  0.1110
 3406ntf    on518145   3.733   4.290   2.892 -0.0647 -0.5558  0.9624
 3406ntf    on518146   3.706   4.359   2.618  0.7109  0.2558 -0.0950
 3406ntf    on518147   3.702   4.167   2.460 -0.4441  0.0020 -0.2685
 3406ntf    fn418148   4.000   4.345   2.601  0.1785 -0.1768 -0.3916
 3406ntf    fn418149   3.999   4.158   2.500 -0.3036 -0.4797  0.3787
 3406ntf    fn418150   3.934   4.335   2.401 -0.4683 -0.3320  0.0630
 3407ntf    cn118151   0.337   6.822   0.719  0.0390  0.1713 -0.0431
 3407ntf    sn218152   0.294   6.681   0.826  0.0385 -0.1596 -0.4749
 3407ntf    nn318153   0.182   6.605   0.745  0.3205 -0.2219 -0.8098
 3407ntf    sn218154   0.028   6.632   0.732  0.2885  0.0955  0.1428
 3407ntf    cn118155  -0.059   6.511   0.836 -0.7103  0.3516 -0.3867
 3407ntf    fn418156   0.347   6.773   0.596 -0.3921 -0.1589  0.0516
 3407ntf    fn418157   0.247   6.918   0.709  0.0717  0.1842 -0.2310
 3407ntf    fn418158   0.452   6.880   0.747 -0.1002  0.0377  0.8239
 3407ntf    on518159   0.413   6.601   0.831  0.6867  0.7988 -0.2225
 3407ntf    on518160   0.258   6.742   0.951 -0.4521 -0.2783 -0.5549
 3407ntf    on518161  -0.025   6.593   0.604 -0.6466 -0.4535  0.6874
 3407ntf    on518162   0.001   6.764   0.783  0.2440 -0.2472  1.0334
 3407ntf    fn418163  -0.180   6.561   0.855 -0.6999  0.1902  0.1154
 3407ntf    fn418164  -0.074   6.394   0.776  0.2199  0.3523 -0.6393
 3407ntf    fn418165  -0.007   6.491   0.956 -0.4867 -0.3941 -0.6017
 3408ntf    cn118166   0.091   4.879   0.092  0.0030 -0.0839 -0.1340
 3408ntf    sn218167   0.103   5.039   0.007 -0.1500  0.1743  0.3268
 3408ntf    nn318168  -0.030   5.091   0.071 -0.0581  0.8887 -0.0544
 3408ntf    sn218169  -0.171   5.083   0.001 -0.0005 -0.0745 -0.0682
 3408ntf    cn118170  -0.281   5.039   0.139 -0.0104 -0.2942 -0.1455
 3408ntf    fn418171   0.157   4.786   0.025 -0.7774 -0.5652 -0.2547
 3408ntf    fn418172   0.143   4.885   0.213  0.2184  0.9292 -0.2657
 3408ntf    fn418173  -0.033   4.832   0.103 -0.2197  0.3251 -0.8013
 3408ntf    on518174   0.227   5.082   0.067 -0.2894 -0.0264  0.7648
 3408ntf    on518175   0.111   5.009  -0.134 -0.2013 -0.4214  0.4463
 3408ntf    on518176  -0.201   4.971  -0.084 -0.5033 -0.1221  0.1730
 3408ntf    on518177  -0.214   5.214  -0.040  0.1116 -0.0395 -0.0769
 3408ntf    fn418178  -0.404   5.003   0.109 -0.1523  0.1926 -0.1566
 3408ntf    fn418179  -0.234   4.947   0.222 -0.7185 -0.3043  0.2462
 3408ntf    fn418180  -0.296   5.142   0.221  0.1061 -0.2617 -0.1630
 3409ntf    cn118181   4.727   4.511   7.201 -0.0124  0.0798  0.2842
 3409ntf    sn218182   4.661   4.600   7.057  0.4086  0.0582  0.0765
 3409ntf    nn318183   4.607   4.473   6.981 -0.2112  0.1224  0.4058
 3409ntf    sn218184   4.465   4.408   6.998  0.0146 -0.4825  0.0028
 3409ntf    cn118185   4.378   4.511   6.875  0.1095 -0.1517  0.2127
 3409ntf    fn418186   4.848   4.469   7.171 -0.0148  0.1346  0.1968
 3409ntf    fn418187   4.742   4.586   7.309  0.0729  0.1314  0.2367
 3409ntf    fn418188   4.656   4.406   7.240 -0.5838  0.4407  0.2291
 3409ntf    on518189   4.572   4.694   7.121 -0.3670 -0.0125 -0.8557
 3409ntf    on518190   4.777   4.658   6.995  0.4515 -0.2629 -0.1476
 3409ntf    on518191   4.386   4.460   7.107 -0.1328 -0.3500 -0.1654
 3409ntf    on518192   4.443   4.280   6.937  0.4326 -0.2565 -0.6286
 3409ntf    fn418193   4.393   4.640   6.902  0.0364 -0.2232  0.6090
 3409ntf    fn418194   4.409   4.489   6.749  0.8066  0.4526  0.2686
 3409ntf    fn418195   4.247   4.495   6.876  0.0352  0.4100 -0.0780
 3410ntf    cn118196   6.299   1.246   3.090 -0.3464  0.1531  0.5614
 3410ntf    sn218197   6.408   1.390   3.109  0.1412 -0.1591  0.1564
 3410ntf    nn318198   6.547   1.316   3.109  0.3863  0.2992 -0.4836
 3410ntf    sn218199   6.689   1.370   3.150  0.2368 -0.1015  0.5743
 3410ntf    cn118200   6.738   1.238   3.264 -0.3408 -0.0369  0.9056
 3410ntf    fn418201   6.194   1.272   3.015  0.0610  0.3524  0.0512
 3410ntf    fn418202   6.363   1.154   3.020  0.4067  1.1093 -0.0247
 3410ntf    fn418203   6.263   1.195   3.207 -0.0096  0.0682  0.6313
 3410ntf    on518204   6.376   1.471   2.994 -0.6755 -0.5396  0.1138
 3410ntf    on518205   6.369   1.441   3.238 -0.0956 -0.5357  0.2369
 3410ntf    on518206   6.679   1.490   3.231  0.3322 -0.2366  0.7875
 3410ntf    on518207   6.790   1.373   3.048 -0.2444  0.0481  0.0944
 3410ntf    fn418208   6.828   1.280   3.351 -0.1242  0.9851  0.2068
 3410ntf    fn418209   6.626   1.189   3.314 -0.6689 -0.4439 -0.1913
 3410ntf    fn418210   6.798   1.134   3.207  0.2513  0.4658  0.6070
 3411ntf    cn118211   0.034   2.604   2.241  0.1341 -0.1702  0.4656
 3411ntf    sn218212   0.202   2.580   2.175 -0.1433 -0.0023 -0.3088
 3411ntf    nn318213   0.286   2.581   2.308 -0.0725 -0.0031 -0.3535
 3411ntf    sn218214   0.424   2.513   2.336 -0.0033  0.1676 -0.2787
 3411ntf    cn118215   0.529   2.659   2.360 -0.2108  0.2563  0.0952
 3411ntf    fn418216   0.031   2.707   2.325  0.3747  0.1348  0.1024
 3411ntf    fn418217  -0.057   2.623   2.148  0.7951 -0.4499 -0.2500
 3411ntf    fn418218  -0.016   2.500   2.306 -0.2175 -0.1475  0.2323
 3411ntf    on518219   0.196   2.447   2.121  0.4709 -0.1584  0.0053
 3411ntf    on518220   0.232   2.692   2.089  0.1811  0.2787  0.1625
 3411ntf    on518221   0.496   2.446   2.230 -0.7068 -0.9894 -0.0423
 3411ntf    on518222   0.432   2.450   2.465 -0.7646 -0.1066 -0.3608
 3411ntf    fn418223   0.557   2.713   2.242  0.3738  0.1706  0.1891
 3411ntf    fn418224   0.485   2.758   2.436  0.7565 -0.1279  1.1860
 3411ntf    fn418225   0.648   2.621   2.404  0.0044  0.7557 -0.0471
 3412ntf    cn118226   4.558   1.910   0.184 -0.1601 -0.0544  0.0826
 3412ntf    sn218227   4.527   1.835   0.347 -0.0567 -0.0179  0.1187
 3412ntf    nn318228   4.640   1.728   0.366 -0.1686 -0.1966 -0.2307
 3412ntf    sn218229   4.787   1.753   0.414 -0.4079  0.0177  0.3930
 3412ntf    cn118230   4.859   1.629   0.302  0.3130  0.3177  0.5192
 3412ntf    fn418231   4.456   1.987   0.150 -0.3296 -0.2983  0.0295
 3412ntf    fn418232   4.666   1.984   0.169 -0.1182 -0.0356  0.4755
 3412ntf    fn418233   4.552   1.816   0.090 -0.1269 -0.2149  0.2389
 3412ntf    on518234   4.548   1.952   0.429 -0.3950 -0.0113  0.1984
 3412ntf    on518235   4.395   1.778   0.335  0.0870 -0.4867  0.7070
 3412ntf    on518236   4.813   1.701   0.546  0.6585  0.4689  0.3719
 3412ntf    on518237   4.851   1.872   0.364 -0.6757 -0.1580 -0.3741
 3412ntf    fn418238   4.991   1.630   0.293  0.2620 -0.0976 -0.3618
 3412ntf    fn418239   4.819   1.508   0.337 -0.0236  0.3422  0.2321
 3412ntf    fn418240   4.814   1.639   0.178 -0.1871  0.0818  0.6766
 3413ntf    cn118241   6.245   1.217   6.383  0.3688 -0.2978 -0.2484
 3413ntf    sn218242   6.150   1.066   6.419  0.5530 -0.3158  0.1736
 3413ntf    nn318243   6.019   1.126   6.357  0.3713  0.0669  0.9133
 3413ntf    sn218244   5.882   1.162   6.424  0.1253  0.2348  0.3297
 3413ntf    cn118245   5.877   1.342   6.395  0.1271  0.1676 -0.1019
 3413ntf    fn418246   6.375   1.211   6.408  0.4039 -0.6305 -0.5066
 3413ntf    fn418247   6.214   1.250   6.259 -0.7666 -0.6617 -0.0731
 3413ntf    fn418248   6.197   1.323   6.446 -0.0469 -0.5808 -0.0896
 3413ntf    on518249   6.219   0.967   6.340  0.2215 -0.2286 -0.2257
 3413ntf    on518250   6.163   1.064   6.562  0.1901 -0.5643  0.2032
 3413ntf    on518251   5.861   1.149   6.566  0.0454 -0.2770  0.2746
 3413ntf    on518252   5.777   1.120   6.334  0.1978  0.0558  0.3297
 3413ntf    fn418253   5.855   1.382   6.271 -0.3090 -0.1451 -0.1304
 3413ntf    fn418254   5.790   1.407   6.470  0.2447  0.0854  0.1069
 3413ntf    fn418255   5.994   1.395   6.428  0.4195 -0.6629  0.2327
 3414ntf    cn118256   5.048   2.996   6.998 -0.0295 -0.1846 -0.2944
 3414ntf    sn218257   5.015   3.143   6.896 -0.3609  0.0906  0.2039
 3414ntf    nn318258   4.861   3.127   6.868 -0.2422  0.3706 -0.6510
 3414ntf    sn218259   4.771   3.042   6.772  0.2092 -0.7037 -0.1403
 3414ntf    cn118260   4.765   3.169   6.642  0.0508 -0.4381  0.1240
 3414ntf    fn418261   4.985   3.007   7.113  0.1149 -0.8104 -0.1529
 3414ntf    fn418262   5.012   2.882   6.942  0.1825 -0.1929 -0.4183
 3414ntf    fn418263   5.176   2.984   7.031 -0.0790  0.1552  0.0321
 3414ntf    on518264   5.039   3.260   6.976 -0.3098  0.2620 -0.0574
 3414ntf    on518265   5.093   3.121   6.776  0.2064 -1.0559  0.7674
 3414ntf    on518266   4.633   3.034   6.814  0.2722  0.0133  0.2187
 3414ntf    on518267   4.833   2.922   6.721 -0.0710 -1.0031  0.2174
 3414ntf    fn418268   4.884   3.194   6.588  0.1243 -0.0873  0.4449
 3414ntf    fn418269   4.687   3.145   6.538 -0.1315 -0.3064  0.2322
 3414ntf    fn418270   4.724   3.287   6.685  0.3160 -0.1540 -0.3890
 3415ntf    cn118271   6.394   4.428   7.151  0.3247 -0.4415 -0.2530
 3415ntf    sn218272   6.348   4.500   7.311  0.0294 -0.1903 -0.4495
 3415ntf    nn318273   6.481   4.556   7.373 -0.1797  0.3848 -0.5110
 3415ntf    sn218274   6.554   4.540   7.511  0.1611  0.1782 -0.7147
 3415ntf    cn118275   6.721   4.542   7.440  0.3114  0.0178 -0.3678
 3415ntf    fn418276   6.474   4.323   7.151 -0.0642 -0.7422  0.1375
 3415ntf    fn418277   6.290   4.401   7.074  0.2223 -0.3703 -0.1406
 3415ntf    fn418278   6.465   4.516   7.082 -0.2947  0.2784  0.0158
 3415ntf    on518279   6.265   4.615   7.287 -0.6793 -0.4595  0.6140
 3415ntf    on518280   6.284   4.389   7.378 -0.1026  0.2574  0.1696
 3415ntf    on518281   6.546   4.412   7.577  0.0478  0.5655  0.0254
 3415ntf    on518282   6.557   4.654   7.599 -0.0546 -0.5782  0.2982
 3415ntf    fn418283   6.811   4.505   7.530  0.0459 -0.2401 -0.2071
 3415ntf    fn418284   6.725   4.458   7.338  0.3721 -0.1134 -0.2575
 3415ntf    fn418285   6.759   4.657   7.386  0.4557 -0.2161 -0.7675
 3416ntf    cn118286   1.735   6.724   1.597  0.0792  0.0812  0.5702
 3416ntf    sn218287   1.860   6.593   1.607 -0.2389 -0.2758 -0.0789
 3416ntf    nn318288   1.901   6.590   1.759  0.0819 -0.3535 -0.1664
 3416ntf    sn218289   1.818   6.516   1.869 -0.2037 -0.0602 -0.1815
 3416ntf    cn118290   1.895   6.351   1.873  0.7120  0.3702  0.2541
 3416ntf    fn418291   1.688   6.742   1.475 -0.0839 -0.0315  0.6155
 3416ntf    fn418292   1.634   6.708   1.681 -0.2660  0.4874  0.2383
 3416ntf    fn418293   1.793   6.840   1.623  0.0318  0.3471 -0.4761
 3416ntf    on518294   1.787   6.475   1.566 -0.8241  0.1281 -0.2152
 3416ntf    on518295   1.963   6.634   1.515 -0.5864 -0.0817 -0.3830
 3416ntf    on518296   1.680   6.488   1.839 -0.3977  0.4072  0.2594
 3416ntf    on518297   1.844   6.569   2.001  0.6448 -0.2737 -0.2519
 3416ntf    fn418298   2.005   6.337   1.800  0.4671  0.1530 -0.0784
 3416ntf    fn418299   1.927   6.315   1.996  0.1426  0.2575  0.3707
 3416ntf    fn418300   1.807   6.269   1.818  0.0347  1.0290  0.3439
 3417ntf    cn118301   2.538   0.099   4.708  0.0513  0.4490  0.1175
 3417ntf    sn218302   2.435   0.044   4.846  0.2752 -0.2743  0.0017
 3417ntf    nn318303   2.388  -0.101   4.807 -0.0648 -0.2911  0.4574
 3417ntf    sn218304   2.240  -0.149   4.791 -0.0526 -0.2404  0.1884
 3417ntf    cn118305   2.200  -0.156   4.968 -0.0987 -0.4224  0.1707
 3417ntf    fn418306   2.487   0.103   4.586 -0.2147  0.5362  0.2318
 3417ntf    fn418307   2.593   0.217   4.731 -0.3801  0.5439  0.6649
 3417ntf    fn418308   2.648   0.025   4.712  0.3757  0.8984 -0.2888
 3417ntf    on518309   2.524   0.025   4.958  0.6331  0.3864 -0.1693
 3417ntf    on518310   2.339   0.151   4.858  0.3849 -0.2124  0.3592
 3417ntf    on518311   2.237  -0.289   4.757  0.1457  0.0008 -0.8511
 3417ntf    on518312   2.149  -0.056   4.729  0.3444 -0.0239 -0.0654
 3417ntf    fn418313   2.071  -0.182   4.978 -0.2124  0.2447  0.5267
 3417ntf    fn418314   2.274  -0.246   5.031  0.3502 -0.4541 -0.3998
 3417ntf    fn418315   2.223  -0.043   5.032 -0.3840 -0.3651  0.1720
 3418ntf    cn118316   4.830   5.366   0.601  0.2017  0.1222  0.0137
 3418ntf    sn218317   4.774   5.443   0.446 -0.0178 -0.0295  0.0179
 3418ntf    nn318318   4.848   5.354   0.341  0.7246  0.3453  0.2155
 3418ntf    sn218319   4.880   5.409   0.197 -0.2520 -0.1637 -0.2045
 3418ntf    cn118320   4.813   5.268   0.103 -0.5973 -0.0739 -0.0957
 3418ntf    fn418321   4.962   5.363   0.613  0.1626 -0.0874  0.3827
 3418ntf    fn418322   4.776   5.428   0.704  0.4381  0.3714 -0.0090
 3418ntf    fn418323   4.786   5.243   0.617 -0.1773  0.2503 -0.0282
 3418ntf    on518324   4.631   5.423   0.456  0.0026 -0.1754  0.0158
 3418ntf    on518325   4.818   5.580   0.461 -0.1138  0.0313 -0.2591
 3418ntf    on518326   5.021   5.419   0.170 -0.2769 -0.0325 -0.2861
 3418ntf    on518327   4.804   5.519   0.144 -0.0122  0.3753  0.5625
 3418ntf    fn418328   4.812   5.283  -0.029  0.3500  0.2905 -0.0744
 3418ntf    fn418329   4.866   5.150   0.131 -0.1867  0.1410  0.0436
 3418ntf    fn418330   4.687   5.252   0.141 -0.5336 -0.0127  0.1398
 3419ntf    cn118331   1.592   0.168   7.066  0.0613 -0.1955  0.2279
 3419ntf    sn218332   1.426   0.219   7.011  0.1857  0.0669  0.0932
 3419ntf    nn318333   1.472   0.335   6.916  0.0815  0.0923  0.0742
 3419ntf    sn218334   1.490   0.490   6.933  0.3403  0.0679  0.0289
 3419ntf    cn118335   1.318   0.547   6.911  0.1216 -0.7607 -0.4828
 3419ntf    fn418336   1.588   0.039   7.097 -1.1690 -0.2017  0.1058
 3419ntf    fn418337   1.685   0.187   6.974 -0.3474 -0.3223 -0.2199
 3419ntf    fn418338   1.637   0.238   7.168 -0.0538 -0.3517  0.3857
 3419ntf    on518339   1.378   0.105   6.937 -0.2394  0.0788  0.3470
 3419ntf    on518340   1.351   0.245   7.131 -0.2989 -0.3185 -0.1198
 3419ntf    on518341   1.569   0.550   6.828  0.4397 -0.2530 -0.0800
 3419ntf    on518342   1.540   0.532   7.061  0.1981  0.1479  0.0588
 3419ntf    fn418343   1.305   0.669   6.863 -0.3272 -0.3115  0.7387
 3419ntf    fn418344   1.255   0.460   6.835 -0.4131 -0.1697 -0.7251
 3419ntf    fn418345   1.244   0.541   7.020  0.0329  0.0018 -0.4932
 3420ntf    cn118346   1.165   5.427   0.057 -0.0131  0.0337 -0.0537
 3420ntf    sn218347   1.165   5.415   0.238  0.5743 -0.0712 -0.0601
 3420ntf    nn318348   1.101   5.274   0.262 -0.0670  0.1967 -0.1804
 3420ntf    sn218349   0.957   5.215   0.244  0.0041 -0.0398  0.0262
 3420ntf    cn118350   0.921   5.178   0.418 -0.0114 -0.1076  0.0087
 3420ntf    fn418351   1.067   5.354   0.004 -0.1726  0.2647 -0.0775
 3420ntf    fn418352   1.141   5.550   0.016 -0.3651  0.1414  0.4645
 3420ntf    fn418353   1.278   5.389  -0.001 -0.1877  0.2376 -0.5375
 3420ntf    on518354   1.305   5.421   0.272  0.5400  0.7762 -0.0238
 3420ntf    on518355   1.077   5.523   0.276 -0.3733 -0.9169  0.1802
 3420ntf    on518356   0.959   5.086   0.179  0.3545  0.1697 -0.3825
 3420ntf    on518357   0.861   5.314   0.202 -0.3581 -0.2666  0.3173
 3420ntf    fn418358   0.952   5.278   0.499 -0.2983  0.6179 -0.7701
 3420ntf    fn418359   0.791   5.159   0.434 -0.0523  0.0829 -0.0906
 3420ntf    fn418360   0.991   5.074   0.462 -0.0638  0.0623  0.5048
 3421ntf    cn118361   2.908   3.180   4.306 -0.0440  0.1681 -0.1738
 3421ntf    sn218362   3.045   3.215   4.421 -0.3994 -0.0422  0.3175
 3421ntf    nn318363   3.145   3.099   4.384 -0.4588  0.0944 -0.2862
 3421ntf    sn218364   3.275   3.104   4.296 -0.2673 -0.2635 -0.0274
 3421ntf    cn118365   3.400   3.186   4.398 -0.2338  0.0691 -0.3334
 3421ntf    fn418366   2.951   3.179   4.181 -0.2322 -0.1016 -0.2359
 3421ntf    fn418367   2.855   3.062   4.330  0.5188  0.0006  0.2769
 3421ntf    fn418368   2.811   3.270   4.309 -0.1383  0.0531  0.2846
 3421ntf    on518369   3.095   3.344   4.379 -0.2449  0.1173  0.9833
 3421ntf    on518370   2.971   3.206   4.544 -1.0462 -0.1496 -0.0761
 3421ntf    on518371   3.270   3.195   4.184 -0.0946  0.1393  0.2942
 3421ntf    on518372   3.325   2.972   4.267 -0.5910 -0.3676 -0.1158
 3421ntf    fn418373   3.358   3.305   4.439  0.1566  0.2087 -0.3329
 3421ntf    fn418374   3.426   3.113   4.505 -0.5088  0.0568 -0.2740
 3421ntf    fn418375   3.514   3.206   4.334  0.1130 -0.2516  0.1747
 3422ntf    cn118376   5.090   3.053   1.226 -0.0342 -0.0892 -0.1140
 3422ntf    sn218377   5.112   3.038   1.046 -0.2575  0.0827 -0.1563
 3422ntf    nn318378   5.086   2.888   1.008  0.1974  0.1459 -0.7270
 3422ntf    sn218379   5.170   2.762   1.053 -0.1871  0.0811 -0.1795
 3422ntf    cn118380   5.053   2.682   1.166 -0.1799  0.0648 -0.1832
 3422ntf    fn418381   4.965   3.046   1.267  0.0954 -0.1262  0.2845
 3422ntf    fn418382   5.165   2.980   1.308  0.0735 -0.0530 -0.1789
 3422ntf    fn418383   5.121   3.177   1.263  0.3058 -0.3462  0.4763
 3422ntf    on518384   5.008   3.122   0.992  0.2876  0.7655 -0.1569
 3422ntf    on518385   5.247   3.085   1.026 -0.4039  0.2109 -0.8734
 3422ntf    on518386   5.284   2.788   1.137  0.1946 -0.8818 -0.3895
 3422ntf    on518387   5.191   2.668   0.946 -0.3038 -0.4677  0.2756
 3422ntf    fn418388   5.003   2.763   1.258 -0.1310  0.2850 -0.3507
 3422ntf    fn418389   4.952   2.639   1.091  0.0796 -0.3271 -0.3102
 3422ntf    fn418390   5.105   2.571   1.216  0.0281  0.2533  0.0149
 3423ntf    cn118391   3.873   0.170   0.082 -0.0396 -0.0922 -0.2756
 3423ntf    sn218392   3.867   0.351   0.081  0.2264 -0.0792  0.0786
 3423ntf    nn318393   3.803   0.372   0.223  0.2283  0.0533  0.0600
 3423ntf    sn218394   3.883   0.372   0.358  0.0137 -0.1111  0.1862
 3423ntf    cn118395   3.768   0.301   0.480  0.0850 -0.1081  0.2553
 3423ntf    fn418396   3.930   0.114   0.188  0.0761  0.1325 -0.2198
 3423ntf    fn418397   3.754   0.113   0.075 -0.1768  0.2978 -1.3155
 3423ntf    fn418398   3.934   0.113  -0.021 -0.2792 -0.2420 -0.3371
 3423ntf    on518399   4.003   0.395   0.060  0.0777  0.4004  0.0955
 3423ntf    on518400   3.773   0.372  -0.027 -0.1002 -0.3116  0.3142
 3423ntf    on518401   3.901   0.504   0.414  0.6221  0.3694 -1.1074
 3423ntf    on518402   3.991   0.276   0.361  0.1266  0.0102  0.0009
 3423ntf    fn418403   3.651   0.361   0.467  0.2897  0.2791  0.1907
 3423ntf    fn418404   3.745   0.172   0.459  0.1292 -0.1538  0.4799
 3423ntf    fn418405   3.802   0.312   0.607 -0.0916  0.2343  0.2737
 3424ntf    cn118406   0.697   0.753   5.872  0.2042  0.0012 -0.1967
 3424ntf    sn218407   0.691   0.906   5.971  0.0943 -0.1155 -0.0221
 3424ntf    nn318408   0.566   0.878   6.062 -0.2473 -0.3485 -0.5561
 3424ntf    sn218409   0.419   0.926   6.035 -0.2848 -0.0936  0.0714
 3424ntf    cn118410   0.433   1.098   6.091  0.2341 -0.1808  0.2197
 3424ntf    fn418411   0.787   0.751   5.775 -0.0221 -0.4194 -0.4002
 3424ntf    fn418412   0.703   0.640   5.940  0.6852  0.2825  0.2375
 3424ntf    fn418413   0.586   0.744   5.801 -0.0135 -0.0556  0.1488
 3424ntf    on518414   0.816   0.905   6.042  0.1333  0.9125 -0.0617
 3424ntf    on518415   0.672   1.015   5.878 -0.2906 -0.2801 -0.1401
 3424ntf    on518416   0.323   0.868   6.125 -0.2441  0.1958  0.3014
 3424ntf    on518417   0.378   0.940   5.897  0.1632  0.1288 -0.0420
 3424ntf    fn418418   0.317   1.153   6.060  0.3344 -0.3534 -0.4700
 3424ntf    fn418419   0.457   1.120   6.219  0.2663  1.0081  0.0189
 3424ntf    fn418420   0.514   1.172   6.018  0.1353 -0.1007  0.1916
 3425ntf    cn118421   0.525   6.654   5.347 -0.1845 -0.2319  0.2844
 3425ntf    sn218422   0.664   6.615   5.237 -0.1425  0.1141  0.2155
 3425ntf    nn318423   0.781   6.669   5.327  0.4484 -0.0886 -0.4238
 3425ntf    sn218424   0.835   6.816   5.336  0.5203 -0.1412  0.0192
 3425ntf    cn118425   0.975   6.816   5.220  0.4571 -0.3423 -0.0569
 3425ntf    fn418426   0.413   6.601   5.301  0.3110 -0.9382 -0.1336
 3425ntf    fn418427   0.543   6.611   5.471  0.1850 -0.3693  0.1847
 3425ntf    fn418428   0.505   6.784   5.360  0.1930 -0.1935  0.5090
 3425ntf    on518429   0.656   6.473   5.212 -0.4883  0.1831 -0.0673
 3425ntf    on518430   0.631   6.692   5.120  0.2981  0.2533  0.1813
 3425ntf    on518431   0.896   6.849   5.462 -0.0641  0.2446  0.2055
 3425ntf    on518432   0.750   6.920   5.281  0.4348 -0.3734 -0.2886
 3425ntf    fn418433   0.929   6.798   5.097  0.2907 -0.3361  0.0037
 3425ntf    fn418434   1.034   6.934   5.228 -0.6540  0.1925  0.4635
 3425ntf    fn418435   1.058   6.716   5.242  0.3579 -0.3903  0.1061
 3426ntf    cn118436   3.625   6.611   3.219 -0.1817  0.1751  0.1359
 3426ntf    sn218437   3.647   6.791   3.208 -0.0658  0.1337 -0.3384
 3426ntf    nn318438   3.650   6.824   3.361 -0.4606 -0.5215 -0.1826
 3426ntf    sn218439   3.588   6.952   3.428 -0.1692 -0.1333 -0.6424
 3426ntf    cn118440   3.652   6.946   3.598 -0.4725  0.2726 -0.5116
 3426ntf    fn418441   3.563   6.558   3.323 -0.3404 -0.0155 -0.0524
 3426ntf    fn418442   3.546   6.554   3.129 -0.2833  0.1511  0.2397
 3426ntf    fn418443   3.744   6.553   3.211  0.1142  0.7461  0.3562
 3426ntf    on518444   3.770   6.799   3.133 -0.0745 -0.8358 -0.4679
 3426ntf    on518445   3.529   6.839   3.142  0.0032  0.2903 -0.3490
 3426ntf    on518446   3.448   6.922   3.449  0.0120 -0.6397 -0.0985
 3426ntf    on518447   3.618   7.083   3.377 -0.2649  0.5032  0.8713
 3426ntf    fn418448   3.612   7.041   3.682  0.0425  0.2538 -0.2385
 3426ntf    fn418449   3.604   6.836   3.654  0.4810 -0.0510 -0.3172
 3426ntf    fn418450   3.783   6.934   3.609 -0.5353 -0.2988 -0.3192
 3427ntf    cn118451   4.933   4.190   6.977 -0.3674  0.1413 -0.1663
 3427ntf    sn218452   4.963   4.193   6.798  0.3427  0.2620 -0.0497
 3427ntf    nn318453   5.102   4.120   6.807 -0.0389 -0.4442  0.1136
 3427ntf    sn218454   5.152   3.983   6.747 -0.1231 -0.3781 -0.1091
 3427ntf    cn118455   5.326   3.978   6.800 -0.1364 -0.0367 -0.0282
 3427ntf    fn418456   4.926   4.071   7.035  0.1827  0.0765 -0.2277
 3427ntf    fn418457   5.019   4.270   7.039 -0.2999  0.0252 -0.1089
 3427ntf    fn418458   4.819   4.252   7.002 -0.1237  0.3957  0.3403
 3427ntf    on518459   4.856   4.118   6.737  0.0886 -0.1730  0.9177
 3427ntf    on518460   4.976   4.334   6.769  0.5224  0.1480 -0.5332
 3427ntf    on518461   5.157   3.991   6.603 -0.3621 -0.6437 -0.1319
 3427ntf    on518462   5.094   3.868   6.810 -0.2063 -0.1073  0.3174
 3427ntf    fn418463   5.381   3.859   6.780  0.2593  0.1962 -0.3431
 3427ntf    fn418464   5.393   4.071   6.734  1.0099 -0.1449  0.9434
 3427ntf    fn418465   5.340   4.001   6.930  1.3675  0.2257 -0.2137
 3428ntf    cn118466   3.654   6.266   0.032  0.0487  0.1830  0.0246
 3428ntf    sn218467   3.647   6.434   0.101 -0.2405  0.2138 -0.0785
 3428ntf    nn318468   3.552   6.410   0.224  0.1531  0.4178  0.2666
 3428ntf    sn218469   3.397   6.438   0.226  0.1025  0.1652 -0.0114
 3428ntf    cn118470   3.368   6.288   0.325 -0.2142  0.1502 -0.1283
 3428ntf    fn418471   3.532   6.229  -0.002  0.1080 -0.5937  0.6032
 3428ntf    fn418472   3.733   6.259  -0.074  0.1361 -0.3346  0.1209
 3428ntf    fn418473   3.696   6.173   0.117 -0.0654 -0.0405 -0.1626
 3428ntf    on518474   3.783   6.458   0.142 -0.3356 -0.1031  0.4336
 3428ntf    on518475   3.602   6.517  -0.008  0.2051  0.2271 -0.2526
 3428ntf    on518476   3.334   6.399   0.103 -0.1705  0.3869  0.0562
 3428ntf    on518477   3.343   6.546   0.305 -0.2719 -0.0150 -0.0228
 3428ntf    fn418478   3.370   6.180   0.248 -0.7647 -0.0846  0.1755
 3428ntf    fn418479   3.453   6.279   0.426 -0.1775 -0.2353 -0.1917
 3428ntf    fn418480   3.250   6.296   0.386 -0.0466  0.0733  0.2092
 3429ntf    cn118481   6.128   6.766   4.768 -0.0367 -0.0418  0.0878
 3429ntf    sn218482   6.204   6.813   4.610 -0.1582  0.2018  0.1020
 3429ntf    nn318483   6.146   6.959   4.602 -0.6950 -0.0060  0.1440
 3429ntf    sn218484   6.079   7.026   4.476 -0.1400  0.0802 -0.1091
 3429ntf    cn118485   6.097   7.196   4.538  0.5754  0.0004 -0.0845
 3429ntf    fn418486   5.997   6.749   4.764 -0.0701  0.1558  0.3028
 3429ntf    fn418487   6.172   6.650   4.813 -0.0361 -0.1526 -0.2023
 3429ntf    fn418488   6.149   6.857   4.862  0.4142 -0.4491  0.3898
 3429ntf    on518489   6.345   6.807   4.637 -0.1488 -0.2590 -0.0469
 3429ntf    on518490   6.153   6.724   4.508  0.0986  0.0828  0.0772
 3429ntf    on518491   5.937   7.001   4.480 -0.1547  0.2774  1.0665
 3429ntf    on518492   6.142   7.007   4.348 -0.8797 -0.3709 -0.4116
 3429ntf    fn418493   6.056   7.286   4.449 -0.1889 -0.0036  0.2532
 3429ntf    fn418494   6.028   7.216   4.649 -0.0298  0.6207 -0.5557
 3429ntf    fn418495   6.221   7.232   4.567  0.4822  0.2586 -0.0001
 3430ntf    cn118496   1.663   6.360   4.663 -0.3380 -0.0563 -0.0674
 3430ntf    sn218497   1.623   6.527   4.721 -0.0680  0.1192 -0.3753
 3430ntf    nn318498   1.641   6.597   4.582 -0.0670  0.2042 -0.3322
 3430ntf    sn218499   1.599   6.742   4.541  0.1875  0.2634 -0.3894
 3430ntf    cn118500   1.758   6.825   4.567  0.3716 -0.1075 -0.3283
 3430ntf    fn418501   1.782   6.354   4.605 -0.3267 -0.2842 -0.0219
 3430ntf    fn418502   1.666   6.270   4.760  0.2148  0.2915  0.2459
 3430ntf    fn418503   1.579   6.313   4.573  0.1886 -0.2724 -0.4574
 3430ntf    on518504   1.485   6.514   4.761  0.0509  0.5157  0.1825
 3430ntf    on518505   1.720   6.560   4.822 -0.1754 -1.0554  0.1267
 3430ntf    on518506   1.497   6.801   4.625  0.2202 -0.0177 -0.1554
 3430ntf    on518507   1.580   6.742   4.398 -0.1921 -0.2391 -0.3426
 3430ntf    fn418508   1.809   6.791   4.684 -0.4823 -0.4424 -0.0433
 3430ntf    fn418509   1.841   6.795   4.468  0.4653  0.1859 -0.3411
 3430ntf    fn418510   1.736   6.956   4.563  0.4161 -0.0884 -0.0201
 3431ntf    cn118511   5.082   2.493   5.744  0.0309  0.2724 -0.0004
 3431ntf    sn218512   5.241   2.569   5.700  0.2000 -0.1646 -0.1510
 3431ntf    nn318513   5.306   2.594   5.841 -0.4280  0.0575  0.1052
 3431ntf    sn218514   5.375   2.487   5.933 -0.2489 -0.2752 -0.4078
 3431ntf    cn118515   5.546   2.546   5.921 -0.3409  0.0254 -0.2574
 3431ntf    fn418516   5.028   2.447   5.632  0.6708  0.5201 -0.4122
 3431ntf    fn418517   5.089   2.388   5.824 -0.3233  0.5138  0.3558
 3431ntf    fn418518   4.991   2.572   5.799 -0.1138 -0.4008  0.7557
 3431ntf    on518519   5.308   2.474   5.615  0.3376 -0.1567 -0.0523
 3431ntf    on518520   5.206   2.699   5.649 -0.4522 -0.3792 -0.2610
 3431ntf    on518521   5.386   2.356   5.875 -0.3231 -0.3542 -0.2436
 3431ntf    on518522   5.347   2.501   6.074  0.1636 -0.0944 -0.3434
 3431ntf    fn418523   5.568   2.656   5.992  0.2157 -0.5763  0.5381
 3431ntf    fn418524   5.627   2.456   5.975  0.1071  0.3556 -0.3683
 3431ntf    fn418525   5.592   2.565   5.799 -0.0418 -0.0908 -0.1651
 3432ntf    cn118526   7.226   2.342   2.629 -0.5731 -0.0996  0.4384
 3432ntf    sn218527   7.299   2.389   2.789  0.4834 -0.1598 -0.0142
 3432ntf    nn318528   7.393   2.266   2.812  0.3802 -0.3161 -0.4210
 3432ntf    sn218529   7.498   2.245   2.926  0.1644  0.2022 -0.1232
 3432ntf    cn118530   7.631   2.360   2.879  0.2099  0.1606 -0.0964
 3432ntf    fn418531   7.124   2.418   2.591  0.2753  0.8221 -0.0624
 3432ntf    fn418532   7.309   2.352   2.526 -0.0754 -0.2176  0.8262
 3432ntf    fn418533   7.181   2.218   2.630 -0.1863 -0.2457  0.1467
 3432ntf    on518534   7.370   2.512   2.766  0.2565 -0.2244 -1.1594
 3432ntf    on518535   7.184   2.402   2.875  0.3903 -0.1038 -0.1456
 3432ntf    on518536   7.569   2.119   2.925  0.2547  0.2473  0.3564
 3432ntf    on518537   7.451   2.283   3.057  0.5741  0.3354 -0.0122
 3432ntf    fn418538   7.736   2.339   2.957  0.1922 -0.4019 -0.2181
 3432ntf    fn418539   7.667   2.345   2.753  0.4199 -0.1894  0.0015
 3432ntf    fn418540   7.597   2.486   2.899 -0.2166  0.1484 -0.7214
 3433ntf    cn118541   4.953   1.349   6.396  0.2834 -0.1836  0.3270
 3433ntf    sn218542   4.992   1.513   6.327 -0.0954 -0.1986  0.0753
 3433ntf    nn318543   5.008   1.467   6.178  0.5163 -0.3339  0.1799
 3433ntf    sn218544   5.122   1.519   6.084  0.0672  0.1857 -0.0808
 3433ntf    cn118545   5.029   1.555   5.931 -0.0047  0.3957  0.0123
 3433ntf    fn418546   4.886   1.347   6.510  0.4419 -0.1289  0.4209
 3433ntf    fn418547   4.880   1.285   6.306  0.1852 -0.0634  0.3230
 3433ntf    fn418548   5.053   1.263   6.410  0.7004  0.1490 -0.5099
 3433ntf    on518549   4.867   1.582   6.349 -0.1145 -0.0680 -0.4316
 3433ntf    on518550   5.113   1.547   6.397 -0.2499 -0.3119  0.4021
 3433ntf    on518551   5.216   1.413   6.055 -0.3893 -0.2419 -0.0192
 3433ntf    on518552   5.180   1.649   6.109 -0.2244  0.1973  0.5478
 3433ntf    fn418553   5.002   1.446   5.861 -0.2845  0.4773 -0.0080
 3433ntf    fn418554   4.917   1.621   5.952  0.0883  0.6839 -0.3901
 3433ntf    fn418555   5.096   1.623   5.839 -0.2801 -0.3813 -0.7719
 3434ntf    cn118556   6.519   0.892   6.618  0.1467  0.1361  0.3999
 3434ntf    sn218557   6.677   0.861   6.533 -0.2465  0.3331 -0.4109
 3434ntf    nn318558   6.716   1.009   6.497 -0.6686  0.4247 -0.4952
 3434ntf    sn218559   6.785   1.113   6.592  0.0179 -0.1583 -0.3467
 3434ntf    cn118560   6.810   1.253   6.478  0.3456  0.1999  0.1587
 3434ntf    fn418561   6.539   0.982   6.713 -0.0254  0.0409  0.5265
 3434ntf    fn418562   6.421   0.935   6.541  0.5024  0.4713  0.1321
 3434ntf    fn418563   6.474   0.784   6.680  0.3631 -0.1277  0.0963
 3434ntf    on518564   6.753   0.786   6.631 -0.1967  0.0115 -0.6948
 3434ntf    on518565   6.640   0.796   6.410  0.0707 -0.0113 -0.3270
 3434ntf    on518566   6.917   1.065   6.625  0.0269 -0.2551 -0.5208
 3434ntf    on518567   6.708   1.168   6.701  0.4018 -0.5316  0.1150
 3434ntf    fn418568   6.693   1.296   6.435  0.2506 -0.0463  0.1678
 3434ntf    fn418569   6.872   1.351   6.540  0.1767 -0.2084  0.9823
 3434ntf    fn418570   6.884   1.221   6.372  0.0839  0.5267 -0.1224
 3435ntf    cn118571   3.481   3.946   1.508  0.0342 -0.2018 -0.0304
 3435ntf    sn218572   3.455   4.122   1.546 -0.4154 -0.2619 -0.0580
 3435ntf    nn318573   3.451   4.180   1.400  0.1173 -0.2672 -0.0770
 3435ntf    sn218574   3.327   4.203   1.305  0.1671 -0.1234 -0.1070
 3435ntf    cn118575   3.406   4.195   1.141  0.7377  0.2548  0.1446
 3435ntf    fn418576   3.420   3.909   1.396  0.4173 -0.1585 -0.2562
 3435ntf    fn418577   3.608   3.909   1.499  0.0189 -0.2441 -0.0670
 3435ntf    fn418578   3.420   3.866   1.593 -0.1396 -0.4072 -0.3452
 3435ntf    on518579   3.333   4.132   1.622 -0.1760  0.3719  0.2538
 3435ntf    on518580   3.583   4.159   1.600 -0.4348 -0.5071  0.1551
 3435ntf    on518581   3.267   4.334   1.298 -0.0379 -0.2062  0.0870
 3435ntf    on518582   3.244   4.086   1.290  0.4564 -0.3629  0.1369
 3435ntf    fn418583   3.493   4.294   1.133  0.2951  0.6859  0.5789
 3435ntf    fn418584   3.461   4.079   1.109 -0.5459 -0.3871  0.1748
 3435ntf    fn418585   3.318   4.232   1.049  0.5706 -0.4804  0.0049
 3436ntf    cn118586   4.971   6.576   0.200  0.3321 -0.3110  0.1684
 3436ntf    sn218587   5.069   6.589   0.048 -0.1520  0.2583 -0.1010
 3436ntf    nn318588   5.001   6.468  -0.026  0.5563 -0.0602 -0.2415
 3436ntf    sn218589   4.928   6.459  -0.164 -0.2926 -0.2678  0.2178
 3436ntf    cn118590   5.068   6.472  -0.279 -0.6570 -0.3369 -0.2376
 3436ntf    fn418591   4.994   6.463   0.264 -0.4339 -0.1930  0.6774
 3436ntf    fn418592   4.990   6.678   0.282 -0.5002  0.0322 -0.0467
 3436ntf    fn418593   4.841   6.582   0.173  0.3657  0.0612  0.0844
 3436ntf    on518594   5.052   6.721  -0.008 -0.3364  0.1679 -0.2601
 3436ntf    on518595   5.197   6.547   0.099  0.0132 -0.1664 -0.8462
 3436ntf    on518596   4.830   6.562  -0.194  0.3379  0.3221  0.1542
 3436ntf    on518597   4.871   6.329  -0.188 -0.3166 -0.1194 -0.5665
 3436ntf    fn418598   5.018   6.469  -0.401 -0.5868 -0.1431 -0.2711
 3436ntf    fn418599   5.128   6.590  -0.276 -0.4681 -0.4084 -1.0447
 3436ntf    fn418600   5.156   6.374  -0.276 -0.3643 -0.0661  0.1322
 3437ntf    cn118601   1.304   3.335   7.001  0.3912 -0.3192  0.4899
 3437ntf    sn218602   1.157   3.247   7.062  0.1297  0.0272  0.3637
 3437ntf    nn318603   1.172   3.106   6.995  0.1536  0.3727 -0.3696
 3437ntf    sn218604   1.095   3.052   6.869 -0.4381 -0.1349  0.2014
 3437ntf    cn118605   0.972   2.946   6.951 -0.3178  0.0257  0.5907
 3437ntf    fn418606   1.360   3.427   7.080  0.4874  0.0178  0.0343
 3437ntf    fn418607   1.400   3.253   6.961 -0.3907 -0.6588 -0.7416
 3437ntf    fn418608   1.268   3.410   6.898  0.2103 -0.6968  0.2790
 3437ntf    on518609   1.188   3.231   7.202  0.3205 -0.5905  0.2565
 3437ntf    on518610   1.042   3.329   7.031  0.2700  0.1835  0.2525
 3437ntf    on518611   1.176   2.959   6.794  0.6829  0.7307  0.3073
 3437ntf    on518612   1.007   3.139   6.795 -0.2562 -0.3183 -0.2330
 3437ntf    fn418613   0.881   2.906   6.864  0.4966  0.0835 -0.3066
 3437ntf    fn418614   1.029   2.840   7.005  0.2546 -0.0680 -0.1881
 3437ntf    fn418615   0.910   3.009   7.050  0.2894  0.6864  0.5584
 3438ntf    cn118616   5.014   2.986   3.682  0.4548  0.0421 -0.6468
 3438ntf    sn218617   4.904   3.109   3.604 -0.2388  0.0495  0.3211
 3438ntf    nn318618   4.889   3.220   3.714  0.2156  0.6221 -0.1882
 3438ntf    sn218619   4.781   3.331   3.740 -0.0838  0.2836  0.0203
 3438ntf    cn118620   4.889   3.470   3.695  0.4052 -0.1597 -0.1865
 3438ntf    fn418621   5.107   3.047   3.754 -0.3086  0.5469 -0.0634
 3438ntf    fn418622   4.948   2.911   3.769  0.4150  0.5589 -0.2184
 3438ntf    fn418623   5.069   2.911   3.589 -0.2497 -0.6458 -0.5216
 3438ntf    on518624   4.982   3.158   3.494 -0.0136 -0.3922  0.2797
 3438ntf    on518625   4.783   3.032   3.588 -0.4810  0.2871  0.9616
 3438ntf    on518626   4.758   3.352   3.881 -0.4355 -0.8561  0.1444
 3438ntf    on518627   4.671   3.340   3.647 -0.3116  0.1232  0.2730
 3438ntf    fn418628   4.829   3.585   3.720  0.1709 -0.2041 -0.5318
 3438ntf    fn418629   5.002   3.478   3.763  0.2420  0.5117  0.0073
 3438ntf    fn418630   4.928   3.485   3.570 -0.3822  0.0059 -0.4185
 3439ntf    cn118631   1.286   6.986   5.783  0.2691  0.3686  0.1533
 3439ntf    sn218632   1.379   7.108   5.881  0.0266  0.4769  0.2501
 3439ntf    nn318633   1.490   7.162   5.784  0.1767 -0.3659 -0.0565
 3439ntf    sn218634   1.470   7.275   5.677 -0.5667 -0.0031  0.4598
 3439ntf    cn118635   1.641   7.334   5.667 -0.4937 -0.2568  0.2136
 3439ntf    fn418636   1.237   7.032   5.669 -0.2344 -0.0465  0.1978
 3439ntf    fn418637   1.359   6.879   5.759  0.6376  0.7265 -0.3284
 3439ntf    fn418638   1.182   6.943   5.853 -0.0073  0.0796 -0.4307
 3439ntf    on518639   1.284   7.201   5.936 -0.6168 -0.2547  0.3901
 3439ntf    on518640   1.442   7.022   5.979  0.0168  0.0082 -0.1537
 3439ntf    on518641   1.396   7.393   5.716  0.0573  0.7913 -0.7028
 3439ntf    on518642   1.449   7.235   5.540  0.2608  0.3297  0.2331
 3439ntf    fn418643   1.648   7.425   5.571  0.1143  0.0002  0.4962
 3439ntf    fn418644   1.688   7.384   5.780 -0.2314 -0.6845  0.2987
 3439ntf    fn418645   1.718   7.231   5.634  0.1669  0.1188  0.5523
 3440ntf    cn118646   2.788   1.243   5.358 -0.0343  0.2265  0.3747
 3440ntf    sn218647   2.934   1.202   5.459  0.1988  0.3150  0.0724
 3440ntf    nn318648   2.972   1.066   5.390  0.6626  0.4093  0.1406
 3440ntf    sn218649   3.065   1.049   5.265  0.4584 -0.0451  0.0490
 3440ntf    cn118650   3.232   1.028   5.334  0.4542 -0.0252  0.0661
 3440ntf    fn418651   2.676   1.195   5.410 -0.7020  0.6748 -0.6291
 3440ntf    fn418652   2.759   1.372   5.359 -0.9184  0.0497 -0.5739
 3440ntf    fn418653   2.796   1.189   5.237 -0.2000 -0.1470  0.5261
 3440ntf    on518654   3.029   1.311   5.455  0.1708  0.3315 -0.1967
 3440ntf    on518655   2.876   1.176   5.588 -0.0205 -0.2318 -0.1349
 3440ntf    on518656   3.083   1.162   5.177  0.7141  0.1806  0.3880
 3440ntf    on518657   3.037   0.919   5.208 -0.5061  0.3668 -0.4557
 3440ntf    fn418658   3.276   1.139   5.391 -0.1053 -0.3030  1.0743
 3440ntf    fn418659   3.216   0.940   5.432 -0.2163 -0.2946 -0.2743
 3440ntf    fn418660   3.310   0.976   5.241  0.0364 -0.3424 -0.1156
 3441ntf    cn118661   6.283   0.611   0.977 -0.1774 -0.5805  0.1072
 3441ntf    sn218662   6.141   0.668   0.879  0.0790  0.1832  0.1661
 3441ntf    nn318663   6.126   0.812   0.938 -0.3813  0.0709  0.3303
 3441ntf    sn218664   6.054   0.940   0.880 -0.0394  0.3163  0.4458
 3441ntf    cn118665   5.914   0.965   0.993 -0.1916  0.0640  0.3133
 3441ntf    fn418666   6.327   0.489   0.952  0.4990 -0.2711 -0.2593
 3441ntf    fn418667   6.385   0.694   0.960 -0.3948 -0.3776 -0.2241
 3441ntf    fn418668   6.253   0.624   1.105 -0.3175 -1.0458  0.1235
 3441ntf    on518669   6.173   0.651   0.739  0.0793  0.1455  0.1706
 3441ntf    on518670   6.033   0.586   0.930 -0.1940  0.2570 -0.2858
 3441ntf    on518671   6.002   0.919   0.747 -0.8133 -0.7616  0.8992
 3441ntf    on518672   6.139   1.054   0.904  0.0612  0.2447  0.4324
 3441ntf    fn418673   5.944   1.011   1.113 -0.4102 -0.3938  0.5447
 3441ntf    fn418674   5.844   1.059   0.931  0.4642 -0.1138 -0.7145
 3441ntf    fn418675   5.832   0.862   1.003  0.3453 -0.3964  0.0030
 3442ntf    cn118676   3.149   4.606   2.056 -0.0692  0.0131  0.2966
 3442ntf    sn218677   3.007   4.501   2.012  0.3155 -0.3921  0.0224
 3442ntf    nn318678   2.901   4.609   1.970  0.5460 -0.3765 -0.5296
 3442ntf    sn218679   2.837   4.630   1.828 -0.0692 -0.2518 -0.2348
 3442ntf    cn118680   2.685   4.703   1.897  0.3373  0.2704  0.1139
 3442ntf    fn418681   3.159   4.721   1.991  0.4357  0.0626  0.4574
 3442ntf    fn418682   3.137   4.636   2.184  0.1858 -0.2679  0.3865
 3442ntf    fn418683   3.261   4.544   2.024 -0.2278 -0.2723  0.2987
 3442ntf    on518684   3.055   4.410   1.911  0.3955 -0.4051  0.0722
 3442ntf    on518685   2.971   4.440   2.137  0.2561 -0.7679 -0.1772
 3442ntf    on518686   2.796   4.508   1.764  0.3069 -0.3807 -0.2289
 3442ntf    on518687   2.891   4.739   1.751 -0.0695  0.0365  0.1674
 3442ntf    fn418688   2.608   4.740   1.796  0.4234  0.0455 -0.0345
 3442ntf    fn418689   2.613   4.617   1.967 -0.0653  0.2326 -0.3433
 3442ntf    fn418690   2.696   4.811   1.974  0.0300  0.0085  0.5311
 3443ntf    cn118691   4.046   6.628   4.328  0.1597 -0.2620 -0.0749
 3443ntf    sn218692   3.930   6.748   4.399  0.6041  0.0091  0.1969
 3443ntf    nn318693   3.873   6.654   4.511 -0.2732 -0.0727 -0.3093
 3443ntf    sn218694   3.747   6.663   4.604 -0.0074  0.1109  0.0373
 3443ntf    cn118695   3.620   6.588   4.497  0.0930 -0.3935  0.2683
 3443ntf    fn418696   4.107   6.675   4.220  0.0543  0.1493  0.0459
 3443ntf    fn418697   4.145   6.601   4.411 -0.2843 -0.3674  0.4280
 3443ntf    fn418698   4.000   6.508   4.295 -0.1236 -0.2697  0.3479
 3443ntf    on518699   4.019   6.855   4.437  0.1904  0.3164  0.3173
 3443ntf    on518700   3.838   6.770   4.290  1.1419 -0.4423 -0.3499
 3443ntf    on518701   3.707   6.800   4.624  0.0919  0.0700  0.5121
 3443ntf    on518702   3.751   6.577   4.719  0.1321  0.0722  0.0020
 3443ntf    fn418703   3.501   6.642   4.516  0.1928 -0.0967  0.0717
 3443ntf    fn418704   3.648   6.616   4.370 -0.1060 -0.3139  0.2420
 3443ntf    fn418705   3.605   6.457   4.501 -0.7135 -0.3037  0.2822
 3444ntf    cn118706   3.240   4.611   6.287 -0.1671  0.3779  0.0815
 3444ntf    sn218707   3.109   4.490   6.249  0.2253  0.0160 -0.1325
 3444ntf    nn318708   3.014   4.586   6.169  0.0545 -0.4603 -0.5070
 3444ntf    sn218709   2.860   4.589   6.140 -0.0253  0.1673 -0.0477
 3444ntf    cn118710   2.816   4.727   6.249 -0.0501 -0.3392  0.5941
 3444ntf    fn418711   3.207   4.703   6.375  0.3374  0.1215  0.5460
 3444ntf    fn418712   3.344   4.549   6.340 -0.1238  0.5719  0.2239
 3444ntf    fn418713   3.280   4.676   6.179  0.3440  0.2481  0.1885
 3444ntf    on518714   3.173   4.388   6.169 -0.4941 -0.3072 -0.2988
 3444ntf    on518715   3.057   4.454   6.379  0.4536  0.3191  0.0453
 3444ntf    on518716   2.783   4.483   6.201 -0.0847 -0.0872 -0.5654
 3444ntf    on518717   2.816   4.644   6.015 -0.1688  0.1304 -0.0135
 3444ntf    fn418718   2.860   4.847   6.213 -0.1811 -0.4696  0.0040
 3444ntf    fn418719   2.686   4.749   6.255  0.0157  0.2814 -0.1296
 3444ntf    fn418720   2.852   4.713   6.376 -0.0502 -0.1514  0.6160
 3445ntf    cn118721   1.302   5.357   6.399  0.2980 -0.1439 -0.3956
 3445ntf    sn218722   1.128   5.384   6.355  0.1667 -0.2583  0.0440
 3445ntf    nn318723   1.149   5.432   6.207 -0.3562  0.1892  0.1105
 3445ntf    sn218724   1.179   5.575   6.149  0.3873 -0.0144 -0.0043
 3445ntf    cn118725   1.013   5.645   6.166  0.2796 -0.3677  0.4182
 3445ntf    fn418726   1.376   5.466   6.398  0.1482 -0.0342  0.1362
 3445ntf    fn418727   1.302   5.298   6.518  0.4671 -0.2617 -0.4547
 3445ntf    fn418728   1.349   5.265   6.317  0.3986 -0.5187  0.0760
 3445ntf    on518729   1.069   5.253   6.367 -0.0535 -0.0922  0.8007
 3445ntf    on518730   1.073   5.478   6.450 -0.6689 -0.4534 -0.2412
 3445ntf    on518731   1.194   5.585   6.006  0.2535  0.4646  0.0146
 3445ntf    on518732   1.271   5.655   6.226 -0.1655 -0.1444  0.8017
 3445ntf    fn418733   1.006   5.767   6.116 -0.7329 -0.4113  0.4212
 3445ntf    fn418734   0.921   5.566   6.111 -0.1088  0.1726  0.2877
 3445ntf    fn418735   0.985   5.662   6.294 -0.3052 -0.1808  0.2698
 3446ntf    cn118736   5.106   1.213   4.453  0.1440 -0.3150 -0.4149
 3446ntf    sn218737   5.223   1.279   4.331  0.2907 -0.0073 -0.1071
 3446ntf    nn318738   5.265   1.418   4.391 -0.4018  0.0685  0.2087
 3446ntf    sn218739   5.411   1.473   4.408 -0.2604 -0.2950  0.1840
 3446ntf    cn118740   5.382   1.640   4.341 -0.3349 -0.2035  0.4409
 3446ntf    fn418741   5.041   1.102   4.419  0.3876 -0.6083  0.0662
 3446ntf    fn418742   5.171   1.178   4.562 -0.5000  0.5514  0.2604
 3446ntf    fn418743   5.011   1.300   4.482  0.4258 -0.1120 -0.0982
 3446ntf    on518744   5.326   1.178   4.330  0.2709 -0.0256 -0.5282
 3446ntf    on518745   5.134   1.293   4.218  0.3294 -1.0674 -0.2812
 3446ntf    on518746   5.516   1.423   4.324 -0.3331 -0.2242  0.0508
 3446ntf    on518747   5.450   1.496   4.545  0.4803 -0.4662  0.0048
 3446ntf    fn418748   5.350   1.650   4.213  0.0805  0.3854  0.3820
 3446ntf    fn418749   5.284   1.703   4.403 -0.5966  0.2048 -0.3737
 3446ntf    fn418750   5.487   1.717   4.359 -0.2345 -0.2392  0.0182
 3447ntf    cn118751   4.413   3.426   6.477 -0.0201 -0.1756 -0.0773
 3447ntf    sn218752   4.248   3.361   6.516 -0.1380  0.1890  0.0327
 3447ntf    nn318753   4.184   3.475   6.602 -0.8685 -0.1786 -0.0164
 3447ntf    sn218754   4.161   3.625   6.560 -0.3277 -0.0193  0.2514
 3447ntf    cn118755   4.021   3.665   6.669 -0.3728 -0.1539  0.2420
 3447ntf    fn418756   4.485   3.482   6.574  0.0194 -0.4102  0.0324
 3447ntf    fn418757   4.495   3.337   6.423  0.3073  0.0008  0.1251
 3447ntf    fn418758   4.395   3.521   6.388 -0.1785 -0.1177  0.0162
 3447ntf    on518759   4.183   3.345   6.388  0.5163  0.1482 -0.2965
 3447ntf    on518760   4.288   3.250   6.599  0.7837  0.4919  0.0092
 3447ntf    on518761   4.094   3.641   6.433 -0.0290 -0.4278  0.0400
 3447ntf    on518762   4.263   3.719   6.600 -0.6062  0.4187 -0.0610
 3447ntf    fn418763   4.057   3.632   6.792 -0.5049 -0.1556  0.2805
 3447ntf    fn418764   3.987   3.792   6.679 -0.3918 -0.1396  0.0022
 3447ntf    fn418765   3.906   3.605   6.643 -0.3282 -0.0016 -0.3074
 3448ntf    cn118766   1.926   0.371   6.815  0.2370 -0.1558 -0.4577
 3448ntf    sn218767   2.085   0.283   6.811  0.2207 -0.1979 -0.1722
 3448ntf    nn318768   2.178   0.409   6.825 -0.1102 -0.0068  0.3571
 3448ntf    sn218769   2.285   0.470   6.727 -0.3737 -0.1988 -0.0573
 3448ntf    cn118770   2.436   0.427   6.818 -0.3314  0.0389 -0.0132
 3448ntf    fn418771   1.842   0.310   6.896 -0.0522 -0.3111 -0.8694
 3448ntf    fn418772   1.943   0.497   6.853 -0.3738 -0.1493 -0.1965
 3448ntf    fn418773   1.861   0.381   6.700 -0.1679  0.0832 -0.2098
 3448ntf    on518774   2.075   0.202   6.930 -0.8175 -0.1708 -0.2377
 3448ntf    on518775   2.088   0.216   6.683  0.0632 -0.5737  0.0194
 3448ntf    on518776   2.278   0.614   6.739 -0.0066 -0.1451 -0.4463
 3448ntf    on518777   2.300   0.414   6.595  0.7377  0.1348 -0.0879
 3448ntf    fn418778   2.443   0.493   6.933 -0.4052  0.0207  0.0013
 3448ntf    fn418779   2.452   0.300   6.855  0.0799  0.1488  0.2006
 3448ntf    fn418780   2.547   0.459   6.754 -0.4013  0.2848 -0.0097
 3449ntf    cn118781   1.653   0.948   4.717  0.0302  0.2847  0.5723
 3449ntf    sn218782   1.545   1.065   4.629 -0.1216 -0.1675  0.1533
 3449ntf    nn318783   1.572   1.195   4.712 -0.2030 -0.2721  0.3441
 3449ntf    sn218784   1.476   1.299   4.781  0.2534  0.4462 -0.0858
 3449ntf    cn118785   1.498   1.276   4.960  0.4246 -0.1067 -0.1766
 3449ntf    fn418786   1.633   0.962   4.847  0.0057 -0.0738  0.6098
 3449ntf    fn418787   1.626   0.821   4.692  0.0912  0.4195 -0.2068
 3449ntf    fn418788   1.783   0.960   4.702  0.0296 -0.2545  0.0860
 3449ntf    on518789   1.604   1.066   4.498  0.4512 -0.2043  0.4094
 3449ntf    on518790   1.413   1.007   4.640 -0.1178 -0.2017  0.0268
 3449ntf    on518791   1.335   1.278   4.760  0.3499  0.2203 -0.5165
 3449ntf    on518792   1.535   1.427   4.753  0.1892  0.4755 -0.0874
 3449ntf    fn418793   1.500   1.147   4.992 -0.6592  0.0795  0.6651
 3449ntf    fn418794   1.610   1.329   5.006  0.2678  0.4771 -0.4582
 3449ntf    fn418795   1.394   1.325   5.025 -0.0270 -0.6118 -0.5003
 3450ntf    cn118796   2.797   4.389   0.433 -0.0016  0.2919 -0.1182
 3450ntf    sn218797   2.837   4.562   0.470  0.0677  0.3124 -0.2912
 3450ntf    nn318798   2.698   4.623   0.510 -0.0156  0.1954 -0.4036
 3450ntf    sn218799   2.635   4.641   0.652  0.1088 -0.0678 -0.3135
 3450ntf    cn118800   2.680   4.815   0.681 -0.1930 -0.0911  0.3191
 3450ntf    fn418801   2.900   4.312   0.403 -0.2016 -0.0019 -0.0516
 3450ntf    fn418802   2.728   4.328   0.528  0.3717  0.2340  0.1207
 3450ntf    fn418803   2.722   4.383   0.325  0.0434  0.5696 -0.1652
 3450ntf    on518804   2.940   4.546   0.570  0.0613 -0.0113 -0.3376
 3450ntf    on518805   2.881   4.607   0.340  0.1806  0.1262 -0.3169
 3450ntf    on518806   2.685   4.565   0.763  0.1019 -0.0624 -0.3067
 3450ntf    on518807   2.491   4.649   0.644  0.1528 -0.0671 -1.2236
 3450ntf    fn418808   2.608   4.882   0.592 -0.3035  0.1031  0.5541
 3450ntf    fn418809   2.633   4.853   0.799 -0.7811 -0.5443  0.2388
 3450ntf    fn418810   2.808   4.844   0.663 -0.0537 -0.3913  0.8199
 3451ntf    cn118811   5.397   3.002   2.218 -0.4449 -0.2674  0.0429
 3451ntf    sn218812   5.364   2.977   2.040  0.2717  0.1616 -0.1548
 3451ntf    nn318813   5.269   3.100   2.018 -0.0362 -0.0065  0.2155
 3451ntf    sn218814   5.115   3.103   1.987  0.0258  0.5735 -0.0644
 3451ntf    cn118815   5.059   3.128   2.158  0.0491  0.1248  0.0116
 3451ntf    fn418816   5.287   3.028   2.286 -0.3672  0.4529 -0.0906
 3451ntf    fn418817   5.461   2.900   2.271 -0.4350 -0.0347  0.4849
 3451ntf    fn418818   5.473   3.109   2.234 -0.7345 -0.0370 -0.1075
 3451ntf    on518819   5.494   2.996   1.980 -0.0253 -0.0779 -0.8703
 3451ntf    on518820   5.305   2.846   2.031 -0.2747  0.3775  0.2098
 3451ntf    on518821   5.052   2.975   1.964  0.2699  0.4371  0.0227
 3451ntf    on518822   5.071   3.218   1.913 -0.2744  0.5385  0.0608
 3451ntf    fn418823   4.932   3.165   2.158  0.1281  0.4053 -0.2541
 3451ntf    fn418824   5.069   3.019   2.232 -0.3884  0.4467  0.5527
 3451ntf    fn418825   5.129   3.225   2.215 -0.0895  0.2779 -0.0746
 3452ntf    cn118826   4.356   1.565   1.080  0.0514  0.1165  0.0048
 3452ntf    sn218827   4.477   1.675   1.159  0.2027 -0.0493  0.0043
 3452ntf    nn318828   4.512   1.582   1.280  0.3630  0.1863  0.1396
 3452ntf    sn218829   4.457   1.571   1.426  0.4317  0.0816  0.1581
 3452ntf    cn118830   4.569   1.685   1.514  0.2523  0.3119  0.0886
 3452ntf    fn418831   4.296   1.612   0.972 -0.2287 -0.9835 -0.3308
 3452ntf    fn418832   4.392   1.440   1.054 -0.1356 -0.0092  0.3428
 3452ntf    fn418833   4.262   1.547   1.172  0.2534 -0.5880  0.0781
 3452ntf    on518834   4.585   1.682   1.063  0.1247 -0.0348 -0.0824
 3452ntf    on518835   4.402   1.797   1.178  0.0422 -0.2471  0.6649
 3452ntf    on518836   4.477   1.444   1.490  0.0958  0.2745  0.6662
 3452ntf    on518837   4.327   1.632   1.447  0.2723 -0.0994 -0.2930
 3452ntf    fn418838   4.693   1.655   1.480  0.2940  0.2885  0.2603
 3452ntf    fn418839   4.547   1.811   1.482 -0.6564  0.2350  0.3787
 3452ntf    fn418840   4.564   1.670   1.645  0.1160 -0.0963  0.0395
 3453ntf    cn118841   2.983   6.453   6.539 -0.5738 -0.0490 -0.3655
 3453ntf    sn218842   3.063   6.371   6.398 -0.2598  0.0764 -0.2603
 3453ntf    nn318843   3.099   6.498   6.312  0.2992 -0.1318 -0.3390
 3453ntf    sn218844   3.240   6.554   6.271  0.4195 -0.0487  0.1787
 3453ntf    cn118845   3.310   6.602   6.432  0.1127 -0.1566  0.3435
 3453ntf    fn418846   2.924   6.562   6.494 -0.0034  0.3113 -0.2592
 3453ntf    fn418847   2.892   6.373   6.591 -0.1661 -0.3369 -0.0882
 3453ntf    fn418848   3.074   6.493   6.627 -0.2975 -0.3790 -0.4997
 3453ntf    on518849   3.179   6.307   6.454 -0.1769  0.4594  0.0166
 3453ntf    on518850   2.956   6.289   6.348  0.2273 -0.6364 -0.1518
 3453ntf    on518851   3.225   6.681   6.203 -0.8148 -0.3152 -0.0781
 3453ntf    on518852   3.333   6.464   6.208  0.0828 -0.5051  0.3303
 3453ntf    fn418853   3.219   6.670   6.501  0.2772  0.3915  0.0316
 3453ntf    fn418854   3.359   6.504   6.506  0.5598 -0.3017 -0.1434
 3453ntf    fn418855   3.403   6.695   6.422 -0.3362  0.2537 -0.1133
 3454ntf    cn118856   3.134   3.943   3.716 -0.4444 -0.0442 -0.2275
 3454ntf    sn218857   3.204   3.791   3.643 -0.1016 -0.0099  0.0255
 3454ntf    nn318858   3.266   3.725   3.771  0.1658 -0.1225 -0.1612
 3454ntf    sn218859   3.399   3.760   3.846 -0.1481 -0.1024  0.3942
 3454ntf    cn118860   3.502   3.615   3.804 -0.3970 -0.1109 -0.1987
 3454ntf    fn418861   3.025   3.915   3.785 -0.1946 -0.9630 -0.1869
 3454ntf    fn418862   3.219   4.008   3.794 -0.1953 -0.3270 -0.2584
 3454ntf    fn418863   3.103   4.026   3.618 -0.7174  0.0009 -0.1043
 3454ntf    on518864   3.091   3.724   3.583 -0.4280 -0.0192  0.6344
 3454ntf    on518865   3.294   3.848   3.546 -0.3571  0.9575  0.3378
 3454ntf    on518866   3.379   3.752   3.989 -0.2544 -0.4696  0.3609
 3454ntf    on518867   3.478   3.868   3.792 -0.0496 -0.3718 -0.0066
 3454ntf    fn418868   3.524   3.628   3.674 -0.2751  0.3082 -0.1409
 3454ntf    fn418869   3.619   3.613   3.865 -0.5196 -0.4846  0.0241
 3454ntf    fn418870   3.446   3.496   3.818 -0.4182 -0.1316 -0.4657
 3455ntf    cn118871   1.953   5.616   3.613  0.4461 -0.3218  0.1458
 3455ntf    sn218872   1.975   5.715   3.764  0.0350  0.2007 -0.1341
 3455ntf    nn318873   2.131   5.723   3.749  0.1374 -0.5265  0.4474
 3455ntf    sn218874   2.219   5.810   3.846 -0.0654  0.1953 -0.0053
 3455ntf    cn118875   2.269   5.944   3.733  0.2674 -0.1536 -0.2745
 3455ntf    fn418876   1.971   5.487   3.636 -0.3238 -0.3148  0.8138
 3455ntf    fn418877   1.827   5.614   3.575  0.2864  0.2374  0.6371
 3455ntf    fn418878   2.024   5.661   3.511  0.2343 -0.0580  0.1151
 3455ntf    on518879   1.899   5.833   3.730  0.0539  0.2149 -0.1269
 3455ntf    on518880   1.925   5.627   3.867 -1.1140  0.1744 -0.6931
 3455ntf    on518881   2.348   5.749   3.870  0.0552  0.4528  0.0032
 3455ntf    on518882   2.155   5.880   3.955 -0.2652  0.3933 -0.2486
 3455ntf    fn418883   2.285   5.902   3.609 -0.1454 -0.5522 -0.1938
 3455ntf    fn418884   2.182   6.043   3.734  0.1102 -0.2921  0.5493
 3455ntf    fn418885   2.386   5.991   3.772 -0.1647  0.5216  0.2311
 3456ntf    cn118886   4.130   7.134   2.418 -0.0163 -0.5110  0.7162
 3456ntf    sn218887   4.307   7.168   2.394 -0.2364  0.2228  0.0769
 3456ntf    nn318888   4.361   7.245   2.520 -0.2989  0.1514  0.1477
 3456ntf    sn218889   4.469   7.359   2.527 -0.1071 -0.0308  0.1789
 3456ntf    cn118890   4.383   7.514   2.566  0.3070  0.2473 -0.0115
 3456ntf    fn418891   4.059   7.244   2.396  0.5889 -0.2822 -0.1255
 3456ntf    fn418892   4.084   7.036   2.343  0.4747  0.4552 -0.9065
 3456ntf    fn418893   4.107   7.103   2.545  0.4226  0.2247  0.9880
 3456ntf    on518894   4.358   7.034   2.374 -0.2974  0.0145  1.2514
 3456ntf    on518895   4.299   7.240   2.270  0.2145  0.0245 -0.0697
 3456ntf    on518896   4.529   7.390   2.399  0.1823  0.4558  0.4303
 3456ntf    on518897   4.560   7.354   2.638  0.1142  0.2542  0.0114
 3456ntf    fn418898   4.454   7.625   2.564  0.2390  0.2858 -0.5307
 3456ntf    fn418899   4.283   7.528   2.480  0.5165  0.1312 -0.2756
 3456ntf    fn418900   4.341   7.503   2.690  0.1156 -0.2475 -0.1175
 3457ntf    cn118901   3.721   3.225   2.335 -0.0717  0.0579  0.0941
 3457ntf    sn218902   3.546   3.263   2.368 -0.2299 -0.1171 -0.5178
 3457ntf    nn318903   3.531   3.199   2.511 -0.0670 -0.0867 -0.4868
 3457ntf    sn218904   3.581   3.253   2.650 -0.1585 -0.4358 -0.3162
 3457ntf    cn118905   3.692   3.115   2.690  0.0778 -0.0362  0.4174
 3457ntf    fn418906   3.799   3.289   2.420 -0.1960  0.2029  0.1008
 3457ntf    fn418907   3.756   3.098   2.348 -0.1105  0.0680  0.3017
 3457ntf    fn418908   3.752   3.263   2.212  0.0538  0.4423  0.2445
 3457ntf    on518909   3.550   3.407   2.361  0.6198 -0.1441 -0.6574
 3457ntf    on518910   3.475   3.189   2.267  0.1451 -0.7829 -0.3013
 3457ntf    on518911   3.481   3.259   2.754  0.1921  0.0681 -0.0063
 3457ntf    on518912   3.673   3.363   2.644 -0.2423 -0.3306  0.3441
 3457ntf    fn418913   3.625   3.021   2.755 -0.1118  0.1735  0.5291
 3457ntf    fn418914   3.746   3.070   2.578 -0.2836  0.3027  0.1007
 3457ntf    fn418915   3.795   3.139   2.769  0.3145 -0.0400  0.1118
 3458ntf    cn118916   7.057   2.405   3.638 -0.3313  0.3920  0.0702
 3458ntf    sn218917   7.220   2.372   3.566 -0.2843  0.0866  0.3150
 3458ntf    nn318918   7.216   2.467   3.441  0.0522 -0.0845  0.1716
 3458ntf    sn218919   7.318   2.580   3.403  0.1016 -0.1442  0.1263
 3458ntf    cn118920   7.221   2.671   3.279  0.5329 -0.2898 -0.3163
 3458ntf    fn418921   7.061   2.529   3.686  0.2344  0.5106 -0.2850
 3458ntf    fn418922   6.958   2.404   3.550 -0.3918  0.6475  0.1316
 3458ntf    fn418923   7.021   2.326   3.738 -0.1464  0.5449  0.2592
 3458ntf    on518924   7.312   2.397   3.674  0.3002  0.3307 -0.2357
 3458ntf    on518925   7.203   2.233   3.530  0.1715  0.3097 -0.8204
 3458ntf    on518926   7.441   2.538   3.340  0.1274  0.3860 -0.1771
 3458ntf    on518927   7.334   2.684   3.502 -0.4737 -0.0013  0.0734
 3458ntf    fn418928   7.194   2.597   3.172 -0.7140 -0.0374 -0.1889
 3458ntf    fn418929   7.102   2.700   3.329  0.6981 -0.2124  0.0337
 3458ntf    fn418930   7.269   2.789   3.244 -0.0458  0.1363  0.3037
 3459ntf    cn118931   2.744   4.451   3.985  0.5980  0.1984 -0.0609
 3459ntf    sn218932   2.868   4.419   4.113  0.2073  0.4671  0.3868
 3459ntf    nn318933   2.887   4.265   4.090 -0.4326  0.4370  0.0350
 3459ntf    sn218934   2.847   4.130   4.159 -0.1185  0.1904 -0.2595
 3459ntf    cn118935   2.993   4.127   4.267 -0.3096 -0.0593 -0.0045
 3459ntf    fn418936   2.713   4.580   3.981 -0.9249 -0.1531 -0.1541
 3459ntf    fn418937   2.783   4.398   3.870 -0.2611 -0.4000 -0.0898
 3459ntf    fn418938   2.630   4.391   4.016  0.8530 -0.2252  0.0528
 3459ntf    on518939   2.979   4.497   4.065  1.0301 -0.7816  0.2047
 3459ntf    on518940   2.803   4.467   4.233 -0.0851 -0.0156  0.4244
 3459ntf    on518941   2.869   4.014   4.076  0.3327  0.0227  0.0936
 3459ntf    on518942   2.736   4.133   4.251 -0.1051 -0.1183 -0.2299
 3459ntf    fn418943   2.972   4.181   4.386  0.1768  0.4278 -0.1331
 3459ntf    fn418944   3.040   4.006   4.288  0.5248  0.1883 -0.4051
 3459ntf    fn418945   3.088   4.210   4.225 -0.4775  0.0022 -0.2629
 3460ntf    cn118946   2.837   5.820   1.742 -0.0567 -0.3098  0.2784
 3460ntf    sn218947   2.857   5.682   1.625 -0.1518 -0.0240 -0.0767
 3460ntf    nn318948   3.011   5.683   1.595 -0.1029  0.4039  0.1715
 3460ntf    sn218949   3.128   5.627   1.683 -0.3964 -0.3120  0.1090
 3460ntf    cn118950   3.157   5.469   1.597 -0.0961 -0.2757  0.1414
 3460ntf    fn418951   2.844   5.935   1.677 -0.3110 -0.5152 -0.1091
 3460ntf    fn418952   2.716   5.811   1.793  0.1677  0.0116  0.8845
 3460ntf    fn418953   2.927   5.826   1.839  0.1865  0.0752  0.0364
 3460ntf    on518954   2.821   5.561   1.695  0.6401 -0.3625 -0.2440
 3460ntf    on518955   2.770   5.718   1.516 -0.0565  0.0168 -0.1396
 3460ntf    on518956   3.096   5.590   1.819 -0.6294  0.4061  0.2504
 3460ntf    on518957   3.252   5.689   1.644  0.0474 -0.7829  0.7636
 3460ntf    fn418958   3.043   5.406   1.575 -0.5184  0.4664  0.1544
 3460ntf    fn418959   3.222   5.475   1.482  0.2597 -0.0962  0.3514
 3460ntf    fn418960   3.226   5.387   1.673 -0.3644 -0.6609 -0.0287
 3461ntf    cn118961   1.616   1.375   0.574 -0.1942 -0.3373 -0.2632
 3461ntf    sn218962   1.582   1.530   0.485  0.0317  0.0710  0.3527
 3461ntf    nn318963   1.434   1.509   0.438  0.1066  0.0356  0.1270
 3461ntf    sn218964   1.314   1.605   0.472 -0.0735 -0.0277 -0.3229
 3461ntf    cn118965   1.182   1.506   0.396 -0.3037 -0.0599  0.1182
 3461ntf    fn418966   1.743   1.350   0.602 -0.1723 -0.3007 -0.3298
 3461ntf    fn418967   1.549   1.360   0.687 -0.3869 -0.5058 -0.3977
 3461ntf    fn418968   1.584   1.266   0.507  0.3847 -0.7279  0.0839
 3461ntf    on518969   1.610   1.628   0.586 -0.4109  0.0219  0.5231
 3461ntf    on518970   1.667   1.504   0.371 -0.5645  0.9413 -0.2994
 3461ntf    on518971   1.333   1.719   0.385 -0.6184 -0.1736 -0.6378
 3461ntf    on518972   1.269   1.630   0.607  0.6651 -0.3117 -0.0150
 3461ntf    fn418973   1.063   1.535   0.446 -0.3144 -0.0337  0.0780
 3461ntf    fn418974   1.152   1.525   0.269 -0.4967 -0.8758  0.0363
 3461ntf    fn418975   1.197   1.377   0.419  0.0134 -0.0395  0.0257
 3462ntf    cn118976   2.561   6.037   0.875 -0.1261  0.2066  0.2563
 3462ntf    sn218977   2.595   5.903   0.993  0.1078  0.0557  0.0170
 3462ntf    nn318978   2.457   5.890   1.067  0.2572 -0.0878  0.2700
 3462ntf    sn218979   2.330   5.812   1.019  0.2199  0.1627 -0.0434
 3462ntf    cn118980   2.363   5.646   1.086  0.0519  0.0298 -0.2869
 3462ntf    fn418981   2.484   5.996   0.776 -0.3735  0.4804  0.3325
 3462ntf    fn418982   2.499   6.144   0.923 -0.5561  0.0009  0.1708
 3462ntf    fn418983   2.672   6.082   0.819 -0.4946  0.8351  0.0107
 3462ntf    on518984   2.624   5.786   0.913  0.2958  0.1209 -0.0104
 3462ntf    on518985   2.697   5.943   1.086 -0.1314  0.6290  0.0401
 3462ntf    on518986   2.314   5.780   0.879  0.1406  0.0354 -0.0053
 3462ntf    on518987   2.207   5.841   1.090 -0.1505 -0.8339 -0.2563
 3462ntf    fn418988   2.377   5.655   1.217 -0.4919  0.0433 -0.2289
 3462ntf    fn418989   2.277   5.547   1.070  0.3267 -0.2406 -0.1003
 3462ntf    fn418990   2.480   5.606   1.040  0.1706  0.4323 -0.3418
 3463ntf    cn118991   6.518   2.085   6.299  0.2980 -0.1980  0.1531
 3463ntf    sn218992   6.374   1.987   6.245  0.2541  0.1118 -0.2985
 3463ntf    nn318993   6.377   1.865   6.344 -0.3321  0.2931 -0.0523
 3463ntf    sn218994   6.326   1.840   6.490  0.0209  0.5268  0.1124
 3463ntf    cn118995   6.369   1.664   6.504  0.0599  0.5381  0.1337
 3463ntf    fn418996   6.507   2.103   6.429 -0.7009  0.2602  0.0156
 3463ntf    fn418997   6.630   2.018   6.281  0.3150  0.0157 -0.5794
 3463ntf    fn418998   6.533   2.201   6.237 -0.0026 -0.1111  0.2424
 3463ntf    on518999   6.263   2.079   6.257 -0.3923 -0.6610 -0.2341
 3463ntf    on519000   6.410   1.953   6.110 -0.5858  0.0116 -0.5032
 3463ntf    on519001   6.182   1.845   6.499 -0.0575 -0.4898 -0.4246
 3463ntf    on519002   6.409   1.894   6.594  0.5691  0.4527 -0.2831
 3463ntf    fn419003   6.497   1.639   6.482 -0.0828 -0.0956 -0.0066
 3463ntf    fn419004   6.342   1.619   6.626 -0.3567 -0.6380 -0.3769
 3463ntf    fn419005   6.310   1.587   6.414  0.2984  0.4046  0.0895
 3464ntf    cn119006   1.429   0.875   3.730  0.2110 -0.5724 -0.1438
 3464ntf    sn219007   1.461   0.840   3.554  0.3369 -0.0128 -0.2364
 3464ntf    nn319008   1.325   0.897   3.501  0.2127  0.2398  0.3439
 3464ntf    sn219009   1.304   1.037   3.434  0.1681  0.2043  0.2828
 3464ntf    cn119010   1.122   1.041   3.432  0.1665 -0.0145 -0.0591
 3464ntf    fn419011   1.331   0.809   3.790 -0.1851  0.5657  0.4899
 3464ntf    fn419012   1.538   0.859   3.802  0.1185  0.4782  0.2522
 3464ntf    fn419013   1.393   1.000   3.757 -0.0085 -0.6313 -0.1601
 3464ntf    on519014   1.585   0.904   3.519  0.5074 -0.0706  0.2565
 3464ntf    on519015   1.460   0.696   3.561  0.0270  0.0165  0.4977
 3464ntf    on519016   1.343   1.048   3.296  0.1514 -0.2662  0.2411
 3464ntf    on519017   1.324   1.154   3.517  0.9977  0.5726 -0.4248
 3464ntf    fn419018   1.077   0.951   3.347  0.1773  0.3234 -0.4276
 3464ntf    fn419019   1.064   1.012   3.547  0.6141 -0.1702  0.1315
 3464ntf    fn419020   1.077   1.161   3.398 -0.0724 -0.1498 -0.2252
 3465ntf    cn119021   2.562   4.974   1.343 -0.2757 -0.4787 -0.5029
 3465ntf    sn219022   2.431   5.095   1.378  0.2049 -0.0721 -0.0944
 3465ntf    nn319023   2.327   4.998   1.444 -0.1738  0.2718 -0.1779
 3465ntf    sn219024   2.296   4.965   1.595  0.1454  0.0125 -0.1686
 3465ntf    cn119025   2.339   4.789   1.609  0.2848  0.0105 -0.5948
 3465ntf    fn419026   2.539   4.903   1.234  0.3491 -0.3355 -0.7314
 3465ntf    fn419027   2.677   5.038   1.329  0.0558 -1.0795 -0.5598
 3465ntf    fn419028   2.586   4.893   1.445 -0.0053  0.2638  0.0326
 3465ntf    on519029   2.504   5.182   1.466  0.1166 -0.0425 -0.0499
 3465ntf    on519030   2.394   5.145   1.247  0.0463 -0.1287 -0.0719
 3465ntf    on519031   2.154   4.958   1.618  0.2327  0.2414  0.4494
 3465ntf    on519032   2.373   5.043   1.689  0.1831  0.0989 -0.2710
 3465ntf    fn419033   2.233   4.722   1.566 -0.3597  0.4312  0.3123
 3465ntf    fn419034   2.443   4.760   1.532  0.6547  0.6784 -0.3521
 3465ntf    fn419035   2.372   4.757   1.733 -0.2099  0.5114 -0.3306
 3466ntf    cn119036   6.260   5.805   3.886  0.3635  0.2365 -0.3229
 3466ntf    sn219037   6.368   5.706   3.779  0.1645 -0.0990 -0.2180
 3466ntf    nn319038   6.291   5.713   3.642 -0.0376  0.1527 -0.0930
 3466ntf    sn219039   6.344   5.765   3.504 -0.3937  0.2559 -0.1906
 3466ntf    cn119040   6.263   5.650   3.388  0.1561 -0.5689  0.2312
 3466ntf    fn419041   6.302   5.834   4.008 -0.2168 -0.6039  0.0920
 3466ntf    fn419042   6.232   5.919   3.827 -0.2412  0.2055 -0.1091
 3466ntf    fn419043   6.144   5.745   3.908  0.4636 -0.0621 -0.5952
 3466ntf    on519044   6.497   5.770   3.785  0.2412 -0.3147  0.5874
 3466ntf    on519045   6.373   5.574   3.837  0.4976  0.2714  0.6114
 3466ntf    on519046   6.482   5.742   3.468 -0.2458 -0.0568  0.5541
 3466ntf    on519047   6.301   5.898   3.471 -0.3114  0.4882  0.6364
 3466ntf    fn419048   6.299   5.524   3.408  0.2269 -0.6030 -0.1045
 3466ntf    fn419049   6.130   5.654   3.383  0.1840  0.4349  0.0791
 3466ntf    fn419050   6.301   5.681   3.265 -0.1787 -0.2439  0.2060
 3467ntf    cn119051   3.519   2.937   5.808  0.0289  0.1319 -0.0339
 3467ntf    sn219052   3.350   2.987   5.854  0.0273  0.1370 -0.0468
 3467ntf    nn319053   3.344   2.989   6.011 -0.6541 -0.0362 -0.0669
 3467ntf    sn219054   3.297   2.871   6.103 -0.0901 -0.1302  0.1031
 3467ntf    cn119055   3.129   2.929   6.139 -0.0629 -0.0890  0.1633
 3467ntf    fn419056   3.598   3.042   5.826  0.0318  0.0492  0.4569
 3467ntf    fn419057   3.554   2.824   5.866 -0.4230 -0.0890 -0.1894
 3467ntf    fn419058   3.528   2.905   5.680 -0.3810 -0.5914  0.1146
 3467ntf    on519059   3.348   3.123   5.807  0.5386  0.3101  0.4201
 3467ntf    on519060   3.254   2.895   5.797 -0.1680  0.3031  0.0141
 3467ntf    on519061   3.378   2.872   6.222  0.1454 -0.4315 -0.0529
 3467ntf    on519062   3.286   2.739   6.048 -0.6017 -0.2533  0.4967
 3467ntf    fn419063   3.065   2.846   6.220  0.6035 -0.3953  0.3836
 3467ntf    fn419064   3.138   3.046   6.202 -0.1583 -0.4611  0.8837
 3467ntf    fn419065   3.055   2.950   6.031  0.1554 -0.1580  0.0003
 3468ntf    cn119066   0.536   3.480   1.589 -0.1214 -0.5497 -0.0001
 3468ntf    sn219067   0.412   3.373   1.509 -0.5136  0.2604 -0.4918
 3468ntf    nn319068   0.344   3.330   1.643 -0.2932  0.1430 -0.4165
 3468ntf    sn219069   0.192   3.303   1.674 -0.1063 -0.1505  0.2663
 3468ntf    cn119070   0.196   3.195   1.820 -0.1072  0.0592  0.4219
 3468ntf    fn419071   0.615   3.428   1.681  0.3566  1.0733  0.5439
 3468ntf    fn419072   0.618   3.521   1.495 -0.4210 -0.2526 -0.1352
 3468ntf    fn419073   0.474   3.580   1.649  0.9118  0.1427 -0.0643
 3468ntf    on519074   0.339   3.467   1.427 -0.3849  0.8611  0.0767
 3468ntf    on519075   0.492   3.269   1.447  0.4192  0.3954  0.4459
 3468ntf    on519076   0.131   3.221   1.573 -0.1327  0.3915 -0.1622
 3468ntf    on519077   0.130   3.423   1.726  0.1399  0.1595 -0.1471
 3468ntf    fn419078   0.079   3.157   1.868 -0.2584  0.8200  0.6831
 3468ntf    fn419079   0.259   3.084   1.788  0.0198  0.4038 -0.5416
 3468ntf    fn419080   0.275   3.238   1.918  0.4993 -0.3402  0.1089
 3469ntf    cn119081   3.520   0.528   6.127 -0.4750 -0.3456  0.3889
 3469ntf    sn219082   3.502   0.372   6.036 -0.2475 -0.1447 -0.0039
 3469ntf    nn319083   3.429   0.429   5.909 -0.0340  0.0107 -0.0579
 3469ntf    sn219084   3.482   0.430   5.762  0.3920 -0.1350  0.0918
 3469ntf    cn119085   3.446   0.257   5.720  0.1293 -0.0426 -0.0677
 3469ntf    fn419086   3.407   0.597   6.125 -0.1555  0.1704 -0.3545
 3469ntf    fn419087   3.561   0.515   6.252  0.5754  0.3405  0.1289
 3469ntf    fn419088   3.612   0.606   6.074 -0.1187 -0.6244  0.5936
 3469ntf    on519089   3.633   0.317   6.011  0.2956  0.8000  0.7000
 3469ntf    on519090   3.413   0.297   6.121 -0.2243 -0.4262 -0.2258
 3469ntf    on519091   3.622   0.455   5.737  0.2168  0.8706  0.0530
 3469ntf    on519092   3.387   0.504   5.682  0.0851 -0.7481 -0.1198
 3469ntf    fn419093   3.406   0.192   5.828  0.4527 -0.0219  0.0661
 3469ntf    fn419094   3.352   0.231   5.631  0.1576 -0.1411 -0.0694
 3469ntf    fn419095   3.554   0.192   5.680  0.5347  0.5826 -0.0104
 3470ntf    cn119096   4.550   7.028   1.372 -0.2509  0.2430  0.5928
 3470ntf    sn219097   4.575   7.118   1.217  0.3200  0.0243  0.5571
 3470ntf    nn319098   4.702   7.047   1.158  0.2141  0.4619 -0.2234
 3470ntf    sn219099   4.704   6.909   1.083 -0.1572  0.1804  0.2798
 3470ntf    cn119100   4.679   6.965   0.912 -0.2795 -0.5585  0.0513
 3470ntf    fn419101   4.509   6.904   1.351  0.6520 -0.0433  0.4593
 3470ntf    fn419102   4.662   7.005   1.439 -0.2246 -0.4108  0.3337
 3470ntf    fn419103   4.461   7.091   1.448 -0.3274  0.9553 -0.0838
 3470ntf    on519104   4.450   7.102   1.148  0.5406  0.0476  0.1464
 3470ntf    on519105   4.601   7.256   1.250 -0.6002  0.3634 -0.0971
 3470ntf    on519106   4.595   6.817   1.105  0.3891 -0.4175  0.5025
 3470ntf    on519107   4.839   6.859   1.086 -0.1162  0.1772 -1.0075
 3470ntf    fn419108   4.733   7.082   0.881 -0.2681 -0.6242 -0.1804
 3470ntf    fn419109   4.723   6.879   0.821 -0.0938  0.1432 -0.5287
 3470ntf    fn419110   4.551   6.986   0.888 -0.0484  0.7782 -0.1049
 3471ntf    cn119111   3.516   4.135   6.050 -0.0535  0.3905  0.3525
 3471ntf    sn219112   3.607   4.165   5.895 -0.0838 -0.6429  0.1245
 3471ntf    nn319113   3.726   4.244   5.960 -0.3210 -0.0709 -0.1234
 3471ntf    sn219114   3.847   4.309   5.884 -0.0938 -0.1427  0.1751
 3471ntf    cn119115   3.987   4.197   5.919  0.0682  0.0492  0.1430
 3471ntf    fn419116   3.578   4.043   6.122 -0.2733 -0.1784 -0.1804
 3471ntf    fn419117   3.502   4.238   6.132 -0.0059 -0.0583  0.9277
 3471ntf    fn419118   3.391   4.096   6.030  0.1539 -0.0416 -0.1242
 3471ntf    on519119   3.636   4.031   5.852 -0.7506 -0.8464  0.2913
 3471ntf    on519120   3.514   4.253   5.828 -0.0689 -0.3627  0.4670
 3471ntf    on519121   3.876   4.436   5.946  0.4141 -0.0237 -0.2963
 3471ntf    on519122   3.829   4.303   5.741  0.1920 -0.7637  0.1615
 3471ntf    fn419123   4.094   4.238   5.854 -0.0664  0.4245  0.1540
 3471ntf    fn419124   4.020   4.193   6.046  0.2590  0.4778  0.1078
 3471ntf    fn419125   3.965   4.071   5.885 -0.6636  0.1113  0.3687
 3472ntf    cn119126   2.367   2.025   1.401 -0.2266 -0.2990  0.0480
 3472ntf    sn219127   2.312   1.941   1.250 -0.0573 -0.0883 -0.1294
 3472ntf    nn319128   2.181   1.880   1.311  0.3450 -0.6015  0.2234
 3472ntf    sn219129   2.078   1.769   1.271 -0.1508 -0.0655 -0.0052
 3472ntf    cn119130   2.137   1.640   1.385  0.2637 -0.1462 -0.3106
 3472ntf    fn419131   2.423   1.939   1.485 -0.3101 -0.0702  0.3427
 3472ntf    fn419132   2.450   2.127   1.393  0.2485 -0.7189 -0.4732
 3472ntf    fn419133   2.254   2.074   1.451 -0.0691  0.0918  0.0236
 3472ntf    on519134   2.302   2.044   1.148  0.1948 -0.1076 -0.1739
 3472ntf    on519135   2.414   1.841   1.237 -0.0545 -0.1145  0.1046
 3472ntf    on519136   2.101   1.707   1.143  0.4535 -0.3373  0.2323
 3472ntf    on519137   1.941   1.803   1.303 -0.2284 -0.3790  0.0019
 3472ntf    fn419138   2.101   1.669   1.508  0.2492 -0.3485 -0.2661
 3472ntf    fn419139   2.092   1.519   1.356  0.1049 -0.1180 -0.1801
 3472ntf    fn419140   2.269   1.639   1.380  0.2814  0.4983  0.0489
 3473ntf    cn119141   3.757   0.036   5.272  0.4228 -0.4798  0.1343
 3473ntf    sn219142   3.740   0.053   5.092  0.1093 -0.0922  0.1996
 3473ntf    nn319143   3.593   0.108   5.101 -0.0222 -0.3550 -0.2981
 3473ntf    sn219144   3.553   0.252   5.149  0.1938 -0.4492  0.1653
 3473ntf    cn119145   3.450   0.279   5.001  0.0679 -0.4194  0.2590
 3473ntf    fn419146   3.870  -0.023   5.309  0.4857 -0.2552  0.3052
 3473ntf    fn419147   3.739   0.147   5.342 -0.1050 -0.1874 -0.4512
 3473ntf    fn419148   3.662  -0.045   5.316 -0.4640  0.3102 -0.2838
 3473ntf    on519149   3.847   0.142   5.057 -0.2225  0.3036  0.1844
 3473ntf    on519150   3.739  -0.082   5.040 -0.3762  0.1913 -0.5591
 3473ntf    on519151   3.647   0.362   5.148 -0.6477  0.2812 -0.6061
 3473ntf    on519152   3.465   0.244   5.263 -0.4658  0.4409 -0.2701
 3473ntf    fn419153   3.518   0.244   4.893 -0.0637 -0.9641  0.3473
 3473ntf    fn419154   3.339   0.207   4.998 -0.0641 -0.2199  0.3444
 3473ntf    fn419155   3.424   0.408   4.991  0.6038 -0.3461 -0.2887
 3474ntf    cn119156   5.606   1.442   2.039  0.4490  0.2204  0.1550
 3474ntf    sn219157   5.741   1.564   2.052  0.4100  0.2658  0.1299
 3474ntf    nn319158   5.860   1.463   2.061 -0.0540 -0.3493 -0.4846
 3474ntf    sn219159   5.928   1.419   2.196 -0.3558  0.3235 -0.1067
 3474ntf    cn119160   6.043   1.290   2.137 -0.5714  0.1198 -0.0837
 3474ntf    fn419161   5.602   1.352   2.135 -0.4319  0.0422 -0.0439
 3474ntf    fn419162   5.490   1.505   2.045  0.0409 -0.5355  0.3613
 3474ntf    fn419163   5.615   1.376   1.925  0.6779 -0.0850  0.3490
 3474ntf    on519164   5.739   1.623   1.920 -0.2087  0.0345  0.0282
 3474ntf    on519165   5.703   1.647   2.164 -0.0900 -0.5636  0.5871
 3474ntf    on519166   5.831   1.345   2.272 -0.0131  0.0310  0.0463
 3474ntf    on519167   6.019   1.508   2.262 -0.4822  0.0310  0.4675
 3474ntf    fn419168   6.121   1.348   2.048  0.0974 -0.3691  0.1785
 3474ntf    fn419169   6.102   1.231   2.239 -0.3413  0.2728 -0.1281
 3474ntf    fn419170   5.993   1.193   2.063 -0.7714  0.0199  0.1781
 3475ntf    cn119171   6.786   1.562   6.250  0.0911 -0.5670 -0.3039
 3475ntf    sn219172   6.854   1.577   6.083  0.1983  0.1591 -0.1984
 3475ntf    nn319173   7.001   1.626   6.109  0.1216 -0.0586  0.6705
 3475ntf    sn219174   7.059   1.770   6.128  0.0713  0.0947 -0.2804
 3475ntf    cn119175   7.143   1.754   6.288 -1.0135 -0.0152  0.2888
 3475ntf    fn419176   6.779   1.680   6.309 -0.3431 -0.5358 -0.4104
 3475ntf    fn419177   6.662   1.516   6.256 -0.2895  0.4983  0.2705
 3475ntf    fn419178   6.854   1.481   6.330 -0.0218 -0.4946 -0.1338
 3475ntf    on519179   6.857   1.447   6.020 -0.4096  0.2509 -0.4272
 3475ntf    on519180   6.771   1.669   6.010 -0.3855 -0.1651  0.0496
 3475ntf    on519181   6.972   1.883   6.149 -0.9258 -0.7810  0.4217
 3475ntf    on519182   7.179   1.798   6.052 -0.1844  0.8860 -0.3969
 3475ntf    fn419183   7.250   1.677   6.289 -0.6150  0.5041 -0.6565
 3475ntf    fn419184   7.173   1.874   6.336 -0.1200 -0.0686 -0.1109
 3475ntf    fn419185   7.069   1.702   6.385 -0.9508 -0.0793  0.3023
 3476ntf    cn119186   4.340   0.300   1.104  0.2997  0.1152 -0.0075
 3476ntf    sn219187   4.206   0.230   1.205  0.0651 -0.1429 -0.4968
 3476ntf    nn319188   4.102   0.347   1.183  0.4246  0.3321  0.3081
 3476ntf    sn219189   4.017   0.432   1.283  0.0282  0.0271  0.2311
 3476ntf    cn119190   4.127   0.575   1.304 -0.0933  0.1872 -0.2221
 3476ntf    fn419191   4.456   0.235   1.109 -0.0045 -0.4109  0.3298
 3476ntf    fn419192   4.317   0.293   0.974  0.0778 -0.1627  0.0463
 3476ntf    fn419193   4.365   0.428   1.126 -0.2583  0.2670 -0.2423
 3476ntf    on519194   4.177   0.104   1.142 -0.1548 -0.3822  0.0813
 3476ntf    on519195   4.274   0.225   1.331 -0.2130  0.3667 -0.3236
 3476ntf    on519196   3.990   0.381   1.416 -0.9351 -0.4391 -0.1322
 3476ntf    on519197   3.903   0.484   1.212 -0.1645 -0.2103  0.3629
 3476ntf    fn419198   4.085   0.670   1.387 -0.0055 -0.3806  0.4750
 3476ntf    fn419199   4.244   0.542   1.355 -0.4131 -0.2937  0.2142
 3476ntf    fn419200   4.147   0.641   1.191 -0.2932 -0.2574 -0.5211
 3477ntf    cn119201   3.578   7.092   0.749 -0.1830  0.5396  0.2179
 3477ntf    sn219202   3.697   7.053   0.881  0.0343 -0.0799 -0.1607
 3477ntf    nn319203   3.604   6.983   0.985 -0.1110  0.1969 -0.1047
 3477ntf    sn219204   3.545   7.041   1.119  0.2894  0.3094  0.0231
 3477ntf    cn119205   3.692   7.007   1.222 -0.0143 -0.3639  0.2405
 3477ntf    fn419206   3.468   7.142   0.804 -0.3093 -0.0427  0.4975
 3477ntf    fn419207   3.618   7.189   0.668  0.0682  0.4540  0.2393
 3477ntf    fn419208   3.537   6.986   0.682 -0.2952  0.5176  0.3198
 3477ntf    on519209   3.791   6.957   0.827  0.4845  0.0851  0.3241
 3477ntf    on519210   3.749   7.185   0.907  0.2868 -0.2872  0.4119
 3477ntf    on519211   3.439   6.959   1.173  0.1768  0.6440  0.3092
 3477ntf    on519212   3.522   7.183   1.122 -0.3091  0.2241 -0.4611
 3477ntf    fn419213   3.700   6.882   1.265  0.0542 -0.3486  0.2719
 3477ntf    fn419214   3.808   7.034   1.166  0.2012 -0.3889  0.6740
 3477ntf    fn419215   3.694   7.074   1.336  0.4759  0.3376 -0.1706
 3478ntf    cn119216   3.717   6.014   3.243  0.2618 -0.1651  0.2681
 3478ntf    sn219217   3.717   6.195   3.264  0.2522 -0.1573  0.2026
 3478ntf    nn319218   3.793   6.233   3.131 -0.1891 -0.0517 -0.0193
 3478ntf    sn219219   3.742   6.265   2.986 -0.3380 -0.1566  0.0097
 3478ntf    cn119220   3.830   6.146   2.880 -0.0922  0.0034  0.0332
 3478ntf    fn419221   3.838   5.960   3.233  0.4272  0.3213 -0.4493
 3478ntf    fn419222   3.652   5.942   3.333  0.0749  0.6905  0.8264
 3478ntf    fn419223   3.652   5.988   3.131  0.4088 -0.0435  0.1527
 3478ntf    on519224   3.583   6.246   3.263  0.1674 -0.3765  0.4510
 3478ntf    on519225   3.797   6.202   3.384  0.4807 -0.2832  0.0599
 3478ntf    on519226   3.781   6.391   2.928  0.5523 -0.4163  0.0171
 3478ntf    on519227   3.603   6.233   2.963 -0.3138 -0.4217  0.2286
 3478ntf    fn419228   3.789   6.021   2.893 -0.8421  0.2827  0.4096
 3478ntf    fn419229   3.818   6.177   2.752  0.0404  0.5754  0.1586
 3478ntf    fn419230   3.961   6.137   2.891 -0.1403 -0.2962  0.3477
 3479ntf    cn119231   0.368   1.766   6.424 -0.2757 -0.0410 -0.1608
 3479ntf    sn219232   0.464   1.768   6.270 -0.0496  0.2009 -0.0181
 3479ntf    nn319233   0.551   1.639   6.294 -0.3355 -0.0383 -0.2530
 3479ntf    sn219234   0.525   1.486   6.275 -0.0915 -0.1109 -0.0016
 3479ntf    cn119235   0.651   1.429   6.157 -0.0208 -0.2159  0.1235
 3479ntf    fn419236   0.269   1.853   6.423 -0.0800  0.1795 -0.3136
 3479ntf    fn419237   0.313   1.648   6.448  0.2661 -0.1369  0.6716
 3479ntf    fn419238   0.438   1.792   6.533 -0.2698 -0.3266 -0.0952
 3479ntf    on519239   0.364   1.779   6.166  0.3813 -0.1352 -0.4740
 3479ntf    on519240   0.547   1.884   6.289  0.1854  0.1443 -0.6668
 3479ntf    on519241   0.398   1.447   6.218 -0.0425 -0.5270  0.1672
 3479ntf    on519242   0.560   1.412   6.394 -0.4316  0.1584  0.2704
 3479ntf    fn419243   0.775   1.447   6.199 -0.1388  0.3011  0.2682
 3479ntf    fn419244   0.641   1.299   6.139  0.2804 -0.1555 -0.5069
 3479ntf    fn419245   0.635   1.480   6.036  0.0912  0.2382  0.2969
 3480ntf    cn119246   5.271   3.982   2.845  0.1412  0.0111 -0.2398
 3480ntf    sn219247   5.408   3.865   2.822  0.4492  0.2898  0.1510
 3480ntf    nn319248   5.463   3.863   2.969  0.1423  0.0131  0.2631
 3480ntf    sn219249   5.394   3.795   3.093 -0.1018  0.0530  0.1501
 3480ntf    cn119250   5.442   3.915   3.221 -0.2547  0.3162 -0.0389
 3480ntf    fn419251   5.245   4.047   2.733 -0.0342  0.0690 -0.1654
 3480ntf    fn419252   5.158   3.916   2.864  0.1435  0.1951  0.4641
 3480ntf    fn419253   5.295   4.067   2.944  0.2134 -0.3216  0.0340
 3480ntf    on519254   5.346   3.738   2.793 -0.0852  0.4328  0.6562
 3480ntf    on519255   5.500   3.917   2.724  0.9246 -0.6233  0.0959
 3480ntf    on519256   5.458   3.678   3.147 -0.4908 -0.2093  0.0474
 3480ntf    on519257   5.250   3.803   3.095 -0.0958 -0.0105  1.0045
 3480ntf    fn419258   5.387   3.884   3.337  0.2751  0.1605  0.1719
 3480ntf    fn419259   5.573   3.919   3.235 -0.3111  0.4021  0.4619
 3480ntf    fn419260   5.390   4.035   3.196  0.9664  0.7757 -0.4433
 3481ntf    cn119261   1.461   5.616   2.195  0.1921  0.1095 -0.3227
 3481ntf    sn219262   1.518   5.520   2.051  0.1140 -0.2652 -0.1035
 3481ntf    nn319263   1.665   5.574   2.043 -0.0511  0.1891 -0.1110
 3481ntf    sn219264   1.769   5.565   1.926  0.2227 -0.1241  0.1532
 3481ntf    cn119265   1.720   5.709   1.827 -0.2154 -0.4631 -0.1264
 3481ntf    fn419266   1.543   5.601   2.298 -0.4519 -0.4894  0.1060
 3481ntf    fn419267   1.448   5.743   2.159 -0.6930  0.0612 -0.1957
 3481ntf    fn419268   1.347   5.574   2.246  0.0934  0.5304 -0.1921
 3481ntf    on519269   1.519   5.383   2.097 -0.0657 -0.1072  0.3848
 3481ntf    on519270   1.427   5.562   1.948 -0.0766  0.2593  0.2757
 3481ntf    on519271   1.767   5.449   1.841 -0.7214 -0.4988  0.6758
 3481ntf    on519272   1.898   5.593   1.984  0.3189 -0.5998  0.1777
 3481ntf    fn419273   1.597   5.704   1.779 -0.1568  0.6030 -0.4107
 3481ntf    fn419274   1.741   5.819   1.898  0.1405 -0.4589 -0.2364
 3481ntf    fn419275   1.802   5.722   1.724  0.1669  0.5906  0.2979
 3482ntf    cn119276   6.732   1.059   3.606  0.1414 -0.1630 -0.5007
 3482ntf    sn219277   6.682   0.895   3.544 -0.2309 -0.1394 -0.2711
 3482ntf    nn319278   6.545   0.925   3.474 -0.2367 -0.1066 -0.2465
 3482ntf    sn219279   6.404   0.916   3.542 -0.0512 -0.2328  0.1213
 3482ntf    cn119280   6.319   0.828   3.408 -0.2053 -0.0127  0.0740
 3482ntf    fn419281   6.733   1.156   3.516  0.3071  0.0977 -0.2195
 3482ntf    fn419282   6.646   1.100   3.698  0.2115 -0.2767 -0.3838
 3482ntf    fn419283   6.853   1.059   3.658  0.0650 -1.1717 -0.2897
 3482ntf    on519284   6.782   0.882   3.441 -0.0804 -0.2166 -0.1160
 3482ntf    on519285   6.685   0.804   3.656  0.0990 -0.2328 -0.3549
 3482ntf    on519286   6.345   1.046   3.563  0.0433 -0.1259 -0.2620
 3482ntf    on519287   6.387   0.815   3.644 -0.5319 -0.3361 -0.0594
 3482ntf    fn419288   6.379   0.714   3.377 -0.2044 -0.1124  0.4368
 3482ntf    fn419289   6.193   0.796   3.433 -0.1365  0.0546  0.5234
 3482ntf    fn419290   6.322   0.901   3.298  0.0242 -0.0512  0.0552
 3483ntf    cn119291   5.746   4.136   3.699  0.4816 -0.5727 -0.0675
 3483ntf    sn219292   5.880   4.258   3.693 -0.0613  0.0220 -0.2169
 3483ntf    nn319293   5.901   4.280   3.539  0.0319  0.0064 -0.2065
 3483ntf    sn219294   5.813   4.368   3.443 -0.2857  0.3740  0.4154
 3483ntf    cn119295   5.763   4.234   3.331  0.2232  0.3945  0.1609
 3483ntf    fn419296   5.726   4.092   3.822  0.5657  0.1922  0.2247
 3483ntf    fn419297   5.632   4.183   3.649  0.6193 -0.2438 -0.0681
 3483ntf    fn419298   5.773   4.029   3.626  1.0294 -0.3578 -0.1780
 3483ntf    on519299   5.838   4.370   3.774 -0.5342 -0.6524  0.4847
 3483ntf    on519300   5.995   4.186   3.741 -0.0102  0.2541  0.0140
 3483ntf    on519301   5.894   4.457   3.363 -0.2295 -0.4337 -0.4409
 3483ntf    on519302   5.692   4.424   3.499 -0.7257 -0.6957  0.5610
 3483ntf    fn419303   5.706   4.287   3.224 -0.4430 -0.1461  0.2447
 3483ntf    fn419304   5.868   4.165   3.288 -0.1335 -0.1271  0.1148
 3483ntf    fn419305   5.672   4.155   3.385 -0.0182  0.3003 -0.3779
 3484ntf    cn119306   4.872   0.458   6.710 -0.0070  0.0044 -0.2212
 3484ntf    sn219307   4.848   0.366   6.555  0.0189 -0.0403 -0.1980
 3484ntf    nn319308   4.834   0.487   6.456 -0.3545  0.3683  0.3469
 3484ntf    sn219309   4.725   0.543   6.358 -0.3209  0.1871  0.2062
 3484ntf    cn119310   4.762   0.441   6.212 -0.4538  0.3386  0.0654
 3484ntf    fn419311   4.872   0.377   6.814  0.5236 -0.0095 -0.2296
 3484ntf    fn419312   4.987   0.523   6.717  0.1643 -0.3044 -0.1541
 3484ntf    fn419313   4.766   0.533   6.738 -0.0803 -0.4097  0.6214
 3484ntf    on519314   4.969   0.290   6.538  0.0717 -0.0690  0.3064
 3484ntf    on519315   4.723   0.296   6.573  0.0298 -0.2511 -0.8977
 3484ntf    on519316   4.750   0.676   6.308  0.4368 -0.0853 -0.1554
 3484ntf    on519317   4.590   0.503   6.388 -0.3451  0.1133 -0.0029
 3484ntf    fn419318   4.890   0.434   6.182 -0.4166  0.0600  0.2869
 3484ntf    fn419319   4.724   0.315   6.227  0.3254  0.1052  0.0919
 3484ntf    fn419320   4.713   0.487   6.098  0.3439  0.3065 -0.2925
 3485ntf    cn119321   7.068   3.446   2.039  0.0576  0.0520  0.0030
 3485ntf    sn219322   6.914   3.357   2.002  0.0727  0.0823 -0.1367
 3485ntf    nn319323   6.958   3.215   1.950 -0.6543 -0.1176 -0.2187
 3485ntf    sn219324   6.955   3.170   1.800 -0.2263 -0.0057 -0.2607
 3485ntf    cn119325   6.776   3.166   1.767 -0.2831  0.2577  0.0134
 3485ntf    fn419326   7.044   3.576   2.046 -0.0461  0.0275  0.1004
 3485ntf    fn419327   7.115   3.420   2.159 -0.3433  0.1500  0.1819
 3485ntf    fn419328   7.161   3.424   1.948 -0.0707 -0.0885 -0.0953
 3485ntf    on519329   6.853   3.355   2.133 -0.0049 -0.9775 -0.1800
 3485ntf    on519330   6.848   3.443   1.907 -0.6438 -0.1243  0.1632
 3485ntf    on519331   7.001   3.035   1.778  0.2145  0.0085  0.5460
 3485ntf    on519332   7.009   3.264   1.704  0.3054  0.4063  0.4364
 3485ntf    fn419333   6.738   3.207   1.648  0.0115  0.5622  0.0221
 3485ntf    fn419334   6.742   3.038   1.777  0.5206  0.0313 -0.0008
 3485ntf    fn419335   6.703   3.234   1.854 -0.2000 -0.3246  0.5526
 3486ntf    cn119336   3.662   4.943   7.004  0.0219  0.1231 -0.5345
 3486ntf    sn219337   3.700   5.098   7.092 -0.2307 -0.0479 -0.1250
 3486ntf    nn319338   3.555   5.133   7.143 -0.1322  0.0570  0.0845
 3486ntf    sn219339   3.498   5.141   7.288  0.0531 -0.4097  0.1864
 3486ntf    cn119340   3.435   5.312   7.292  0.2370 -0.3294 -0.3599
 3486ntf    fn419341   3.586   4.957   6.897  0.1017 -0.2451 -0.6385
 3486ntf    fn419342   3.766   4.874   6.959  0.2858 -0.3196  0.7114
 3486ntf    fn419343   3.590   4.856   7.072 -0.5260  0.9921  0.0163
 3486ntf    on519344   3.791   5.050   7.194 -0.5109 -0.3388 -0.0064
 3486ntf    on519345   3.752   5.189   6.994 -0.4049  0.1375 -0.0473
 3486ntf    on519346   3.587   5.143   7.402  0.3637  0.3861 -0.0643
 3486ntf    on519347   3.375   5.068   7.305 -0.3770  0.4019  0.6713
 3486ntf    fn419348   3.531   5.383   7.234  0.5331 -0.3887  0.0492
 3486ntf    fn419349   3.327   5.329   7.218 -0.3104 -0.7991  0.3162
 3486ntf    fn419350   3.415   5.362   7.413  0.0786 -0.6096 -0.2692
 3487ntf    cn119351   4.914   5.983   5.888  0.1078  0.2840  0.1922
 3487ntf    sn219352   4.908   6.080   6.042 -0.1769  0.1692  0.2536
 3487ntf    nn319353   4.756   6.118   6.049 -0.2698 -0.1230 -0.1662
 3487ntf    sn219354   4.689   6.251   5.999  0.1987  0.3029  0.3258
 3487ntf    cn119355   4.516   6.201   5.972  0.2699  0.3515 -0.2479
 3487ntf    fn419356   4.818   6.013   5.802 -0.5760 -0.2956  0.7342
 3487ntf    fn419357   5.032   5.992   5.829 -0.3624  0.0168 -0.8120
 3487ntf    fn419358   4.877   5.858   5.910 -0.0481  0.3905  0.5515
 3487ntf    on519359   4.942   5.987   6.148  0.1538  0.1623  0.1434
 3487ntf    on519360   5.008   6.181   6.016 -0.4717  0.3397 -0.2324
 3487ntf    on519361   4.731   6.292   5.867  0.8129 -0.0014  0.4214
 3487ntf    on519362   4.679   6.355   6.097  0.3892  0.0194  0.6465
 3487ntf    fn419363   4.458   6.161   6.084 -0.0787  0.0876 -0.5202
 3487ntf    fn419364   4.449   6.299   5.914  0.9576  0.9412 -0.0557
 3487ntf    fn419365   4.508   6.101   5.886 -0.0791  0.3029 -0.1575
 3488ntf    cn119366   2.970   0.783   2.824  0.2141  0.2603  0.3203
 3488ntf    sn219367   3.000   0.784   3.004  0.5117  0.0596  0.2732
 3488ntf    nn319368   2.974   0.936   3.033 -0.5647 -0.0888  0.1620
 3488ntf    sn219369   2.890   1.014   3.140 -0.1012  0.1924  0.3291
 3488ntf    cn119370   2.753   1.074   3.035  0.1566 -0.0420 -0.1430
 3488ntf    fn419371   3.006   0.900   2.774  0.8594  0.3133  0.9005
 3488ntf    fn419372   3.027   0.679   2.766 -0.3036 -0.0157  0.2969
 3488ntf    fn419373   2.840   0.773   2.801  0.2856  0.4742 -0.1816
 3488ntf    on519374   2.899   0.694   3.053 -0.3545  0.8265 -0.0621
 3488ntf    on519375   3.137   0.742   3.008  0.6611  0.4651 -0.2988
 3488ntf    on519376   2.955   1.135   3.183  0.0897  0.2110 -0.0085
 3488ntf    on519377   2.824   0.924   3.231  0.0101  0.5693  0.7892
 3488ntf    fn419378   2.795   1.150   2.935  0.3607  0.3878  0.2653
 3488ntf    fn419379   2.691   0.975   2.973  0.3301 -0.0925 -0.2373
 3488ntf    fn419380   2.657   1.133   3.105  0.0931 -0.1792 -0.1145
 3489ntf    cn119381   6.157   5.587   4.222  0.2099  0.1801  0.1453
 3489ntf    sn219382   6.195   5.666   4.382 -0.0299  0.2185  0.1833
 3489ntf    nn319383   6.174   5.815   4.338  0.0384  0.0401 -0.4690
 3489ntf    sn219384   6.068   5.927   4.368  0.0802  0.0129 -0.2196
 3489ntf    cn119385   5.955   5.943   4.226  0.2174  0.5099 -0.2747
 3489ntf    fn419386   6.029   5.593   4.188  0.1133 -0.3482  0.4184
 3489ntf    fn419387   6.242   5.631   4.130 -0.1940 -0.0078 -0.3206
 3489ntf    fn419388   6.190   5.459   4.224  0.5946  0.2696 -0.2813
 3489ntf    on519389   6.106   5.605   4.477  0.1580  0.0848  0.2732
 3489ntf    on519390   6.335   5.640   4.400  0.0841  0.5871 -0.1527
 3489ntf    on519391   6.128   6.058   4.376 -0.1613  0.1093  0.0484
 3489ntf    on519392   5.980   5.895   4.478  0.4958  0.9516  0.4000
 3489ntf    fn419393   5.870   6.043   4.234 -0.3613  0.0333 -0.4233
 3489ntf    fn419394   6.021   5.979   4.117  0.2829  0.0478 -0.3920
 3489ntf    fn419395   5.890   5.831   4.199 -0.0435  0.4007  0.7476
 3490ntf    cn119396   1.767   0.576   5.860 -0.3731 -0.5269  0.3299
 3490ntf    sn219397   1.662   0.571   5.711 -0.3045  0.1738  0.2544
 3490ntf    nn319398   1.746   0.503   5.598  0.0175  0.4535  0.3240
 3490ntf    sn219399   1.742   0.538   5.445  0.5321 -0.0967  0.1828
 3490ntf    cn119400   1.879   0.435   5.382  0.3133 -0.0802 -0.3235
 3490ntf    fn419401   1.853   0.476   5.858 -0.3549 -0.5024 -1.0443
 3490ntf    fn419402   1.850   0.679   5.848 -0.3930 -0.5580 -0.1181
 3490ntf    fn419403   1.714   0.584   5.980 -0.2082 -0.5080  0.4021
 3490ntf    on519404   1.548   0.495   5.755  0.0564 -0.4080  0.1957
 3490ntf    on519405   1.644   0.711   5.682  0.9299  0.1969 -0.4450
 3490ntf    on519406   1.777   0.669   5.397  0.0287 -0.1126 -0.2402
 3490ntf    on519407   1.629   0.469   5.387 -0.0812  0.4100  0.7636
 3490ntf    fn419408   1.837   0.310   5.373  0.0851 -0.0030 -0.3435
 3490ntf    fn419409   1.922   0.473   5.262  0.6411 -0.4786 -0.3313
 3490ntf    fn419410   1.984   0.449   5.461  0.2807  0.2661 -0.3365
 3491ntf    cn119411   1.844   4.919   4.612  0.3625  0.6139  0.5832
 3491ntf    sn219412   1.844   4.743   4.658 -0.2398  0.4176 -0.1471
 3491ntf    nn319413   1.887   4.683   4.519 -0.1774  0.2765 -0.0677
 3491ntf    sn219414   1.796   4.613   4.412 -0.1258  0.0769  0.0189
 3491ntf    cn119415   1.816   4.433   4.429  0.0218  0.0260 -0.6950
 3491ntf    fn419416   1.967   4.966   4.595  0.4707  0.1203 -0.0544
 3491ntf    fn419417   1.784   4.948   4.498  0.9422  0.0558  0.1242
 3491ntf    fn419418   1.794   4.993   4.709 -0.2742  0.0657  0.6816
 3491ntf    on519419   1.942   4.722   4.762  0.1606 -0.1647 -0.6305
 3491ntf    on519420   1.705   4.732   4.696 -0.3705  0.2405 -0.6698
 3491ntf    on519421   1.849   4.628   4.279  0.2634 -0.8749  0.0619
 3491ntf    on519422   1.654   4.635   4.426 -0.0313  0.2979  0.6706
 3491ntf    fn419423   1.918   4.387   4.358  0.3524  0.1720 -0.3229
 3491ntf    fn419424   1.831   4.393   4.554 -0.6716  0.5498 -0.4410
 3491ntf    fn419425   1.708   4.368   4.390 -0.2676 -0.1931  0.4384
 3492ntf    cn119426   1.128   1.710   5.832  0.2429  0.3364 -0.5227
 3492ntf    sn219427   1.287   1.658   5.761  0.2380 -0.2340 -0.1261
 3492ntf    nn319428   1.396   1.695   5.868  0.5855 -0.7236 -0.3065
 3492ntf    sn219429   1.501   1.812   5.873 -0.1106 -0.1123  0.3712
 3492ntf    cn119430   1.623   1.754   5.751 -0.0326 -0.0124  0.4012
 3492ntf    fn419431   1.028   1.673   5.755  0.2139 -0.2316 -0.2204
 3492ntf    fn419432   1.110   1.667   5.956  0.2636  0.3946 -0.4992
 3492ntf    fn419433   1.126   1.842   5.829  0.5045  0.3575  0.0732
 3492ntf    on519434   1.276   1.515   5.747 -0.5439 -0.2275  0.4095
 3492ntf    on519435   1.290   1.734   5.638 -0.2162 -0.2086 -0.1225
 3492ntf    on519436   1.573   1.828   5.997  0.3603  0.3659  0.0379
 3492ntf    on519437   1.437   1.929   5.820 -0.1144 -0.2175  0.1440
 3492ntf    fn419438   1.664   1.630   5.774 -0.0097 -0.0104  0.3704
 3492ntf    fn419439   1.586   1.748   5.624  0.4516 -0.4985  0.2744
 3492ntf    fn419440   1.729   1.832   5.758  0.1494 -0.2670  0.5182
 3493ntf    cn119441   0.846   2.413   6.623 -0.2303 -0.2006 -0.0314
 3493ntf    sn219442   0.912   2.438   6.455 -0.1490 -0.1510  0.0078
 3493ntf    nn319443   1.000   2.308   6.456  0.1913  0.0774  0.1438
 3493ntf    sn219444   1.070   2.233   6.338 -0.1335  0.1023 -0.0648
 3493ntf    cn119445   0.933   2.130   6.278 -0.0989 -0.0934  0.1904
 3493ntf    fn419446   0.783   2.298   6.642 -0.3623 -0.2015 -0.4598
 3493ntf    fn419447   0.937   2.424   6.718 -0.5514  0.0293  0.2502
 3493ntf    fn419448   0.762   2.505   6.665  0.3970  0.3481  0.0443
 3493ntf    on519449   0.793   2.426   6.376 -0.1246  0.2967 -0.0982
 3493ntf    on519450   0.983   2.564   6.458  0.1416 -0.3169  0.2245
 3493ntf    on519451   1.180   2.149   6.377 -0.5817 -0.7045 -0.5055
 3493ntf    on519452   1.094   2.320   6.225  0.1366  0.5664  0.3499
 3493ntf    fn419453   0.966   2.051   6.177 -0.6332 -0.5869  0.3912
 3493ntf    fn419454   0.885   2.051   6.373 -0.7848  0.3902  0.2569
 3493ntf    fn419455   0.832   2.209   6.247 -0.1716 -0.3188 -0.1557
 3494ntf    cn119456   0.177   2.319   1.538  0.4132 -0.1296  0.1231
 3494ntf    sn219457   0.297   2.182   1.532  0.1826 -0.3295  0.0138
 3494ntf    nn319458   0.427   2.263   1.494 -0.2474  0.4945  0.2701
 3494ntf    sn219459   0.576   2.219   1.511 -0.2506  0.2969 -0.1849
 3494ntf    cn119460   0.631   2.228   1.338 -0.2863  0.2745 -0.1974
 3494ntf    fn419461   0.066   2.275   1.594  0.3417 -0.0596  0.0358
 3494ntf    fn419462   0.212   2.423   1.611 -0.5844  0.6185 -0.4423
 3494ntf    fn419463   0.139   2.364   1.419  0.1051 -0.5184  0.0712
 3494ntf    on519464   0.294   2.110   1.657  0.6317  0.0959  0.2755
 3494ntf    on519465   0.256   2.114   1.412 -0.7718 -0.0861  0.1973
 3494ntf    on519466   0.592   2.079   1.540 -0.2253  0.3210 -0.0817
 3494ntf    on519467   0.667   2.313   1.572  0.1746 -0.2041 -0.0423
 3494ntf    fn419468   0.581   2.134   1.259 -0.9311  0.3388  0.1229
 3494ntf    fn419469   0.604   2.342   1.276 -0.3916  0.0995 -0.4773
 3494ntf    fn419470   0.761   2.215   1.319 -0.2583  0.0005  0.1646
 3495ntf    cn119471   3.472   2.303   1.218  0.5430 -0.3039  0.1860
 3495ntf    sn219472   3.359   2.428   1.286  0.3001 -0.4471  0.0466
 3495ntf    nn319473   3.302   2.349   1.409  0.4567 -0.5301  0.0652
 3495ntf    sn219474   3.168   2.268   1.422  0.0253  0.1773  0.0845
 3495ntf    cn119475   3.234   2.106   1.472  0.1923  0.1301 -0.2815
 3495ntf    fn419476   3.400   2.223   1.141 -0.2055  0.0852  0.4625
 3495ntf    fn419477   3.564   2.359   1.142  0.1324  0.3108  0.1316
 3495ntf    fn419478   3.524   2.219   1.306  0.3120 -0.2653  0.3619
 3495ntf    on519479   3.441   2.536   1.336 -0.1661 -0.0505 -0.0305
 3495ntf    on519480   3.266   2.450   1.177  0.0516  0.3147  0.4038
 3495ntf    on519481   3.101   2.232   1.300  0.6048  0.2368 -0.2568
 3495ntf    on519482   3.085   2.312   1.531 -0.1095 -0.3803  0.2107
 3495ntf    fn419483   3.151   2.011   1.512  0.4662  0.1528  0.3717
 3495ntf    fn419484   3.299   2.044   1.375  0.5285  0.2387 -0.1281
 3495ntf    fn419485   3.318   2.112   1.575  0.0402  0.6913 -0.1872
 3496ntf    cn119486   2.034   4.311   5.844  0.1489  0.2168 -0.0680
 3496ntf    sn219487   2.012   4.131   5.851  0.0330  0.2430  0.3081
 3496ntf    nn319488   1.864   4.105   5.809 -0.0549  0.3136  0.5702
 3496ntf    sn219489   1.779   3.979   5.849  0.0629  0.1594  0.3361
 3496ntf    cn119490   1.717   3.956   5.680  0.1799 -0.0157  0.3173
 3496ntf    fn419491   1.995   4.359   5.727 -0.1781 -0.4063 -0.2189
 3496ntf    fn419492   1.970   4.366   5.947  0.0959 -0.1121  0.0751
 3496ntf    fn419493   2.157   4.354   5.867  0.5707 -0.5542 -0.8519
 3496ntf    on519494   2.110   4.080   5.758 -0.1220  0.2848  0.1222
 3496ntf    on519495   2.040   4.093   5.987 -0.2828 -0.7944  0.0912
 3496ntf    on519496   1.653   4.003   5.916 -0.0646  0.4725 -0.0130
 3496ntf    on519497   1.845   3.853   5.873 -0.1092 -0.0220 -0.1240
 3496ntf    fn419498   1.651   4.062   5.635  0.1675 -0.1419  0.0306
 3496ntf    fn419499   1.817   3.936   5.596  0.3238 -0.0095  0.4862
 3496ntf    fn419500   1.628   3.860   5.664  0.1500 -0.0327  0.5821
 3497ntf    cn119501   4.386   0.617   5.854 -0.0883  0.2523  0.3592
 3497ntf    sn219502   4.442   0.565   5.689 -0.0748  0.3660  0.3280
 3497ntf    nn319503   4.310   0.504   5.630  0.0646  0.2271  0.1583
 3497ntf    sn219504   4.185   0.586   5.581 -0.1249 -0.1436  0.0165
 3497ntf    cn119505   4.230   0.625   5.410  0.2725  0.1954  0.1951
 3497ntf    fn419506   4.348   0.744   5.852 -0.2240  0.2090  0.0176
 3497ntf    fn419507   4.280   0.546   5.888  0.2064 -0.3733 -0.0007
 3497ntf    fn419508   4.475   0.595   5.949  0.1058 -0.5733 -0.0049
 3497ntf    on519509   4.494   0.687   5.631  0.6906 -0.0027  0.2152
 3497ntf    on519510   4.535   0.462   5.726 -0.1236  0.0725 -0.3438
 3497ntf    on519511   4.173   0.715   5.645  0.0577 -0.2263  0.2217
 3497ntf    on519512   4.070   0.499   5.587  0.1488 -0.4881  0.3296
 3497ntf    fn419513   4.357   0.660   5.399  0.3334 -0.0714  0.0217
 3497ntf    fn419514   4.207   0.525   5.327  0.6129  0.3411 -0.0795
 3497ntf    fn419515   4.153   0.716   5.352 -0.4011 -0.4859  0.0064
 3498ntf    cn119516   1.383   6.098   4.161  0.5282  0.1735 -0.2821
 3498ntf    sn219517   1.432   5.925   4.132  0.2979  0.1434 -0.4950
 3498ntf    nn319518   1.294   5.852   4.120  0.1965  0.2251  0.0975
 3498ntf    sn219519   1.229   5.786   3.993  0.3193 -0.0824  0.1931
 3498ntf    cn119520   1.149   5.642   4.069  0.3097 -0.2900 -0.2069
 3498ntf    fn419521   1.477   6.190   4.141  0.8165  0.0915  0.6165
 3498ntf    fn419522   1.277   6.130   4.089 -0.2969 -0.6208  0.5625
 3498ntf    fn419523   1.351   6.119   4.288  0.0476  0.7408 -0.4940
 3498ntf    on519524   1.509   5.933   4.010  0.1348 -0.3093 -0.6268
 3498ntf    on519525   1.495   5.894   4.258 -0.7274  0.1949  0.0449
 3498ntf    on519526   1.312   5.723   3.893  0.1956 -0.0730  0.0852
 3498ntf    on519527   1.113   5.860   3.951  0.1201 -0.1043  0.7069
 3498ntf    fn419528   1.051   5.679   4.149  0.5458 -0.6608  0.2611
 3498ntf    fn419529   1.097   5.562   3.977 -0.6770  0.1286 -0.0166
 3498ntf    fn419530   1.234   5.573   4.144  0.3362 -0.0493 -0.0167
 3499ntf    cn119531   2.635   6.370   2.299 -0.3033 -0.1680 -0.0340
 3499ntf    sn219532   2.524   6.253   2.215 -0.0561 -0.4185 -0.0112
 3499ntf    nn319533   2.395   6.271   2.303  0.1514  0.4017  0.1364
 3499ntf    sn219534   2.267   6.180   2.306  0.2160  0.2986 -0.1515
 3499ntf    cn119535   2.127   6.295   2.290  0.0309  0.0458 -0.3390
 3499ntf    fn419536   2.648   6.346   2.428  0.2461 -0.2081 -0.0952
 3499ntf    fn419537   2.759   6.381   2.254 -0.1587  0.5607  0.5115
 3499ntf    fn419538   2.593   6.496   2.295  0.4046  0.0935  0.5503
 3499ntf    on519539   2.510   6.315   2.085 -1.0952 -0.1601  0.2205
 3499ntf    on519540   2.581   6.122   2.235 -0.1525 -0.2827  1.2309
 3499ntf    on519541   2.252   6.106   2.429 -0.0463 -0.0316 -0.3821
 3499ntf    on519542   2.259   6.096   2.189  0.1837  0.4847 -0.2832
 3499ntf    fn419543   2.010   6.234   2.277 -0.1999  0.2591  0.6595
 3499ntf    fn419544   2.133   6.381   2.390 -0.6819 -0.4454  0.1330
 3499ntf    fn419545   2.148   6.366   2.180  0.0304  0.4390 -0.0842
 3500ntf    cn119546   5.585   0.056   2.885  0.1780  0.4068  0.4525
 3500ntf    sn219547   5.610  -0.086   2.996  0.0905  0.1775  0.1785
 3500ntf    nn319548   5.472  -0.096   3.071  0.2190  0.0899  0.4034
 3500ntf    sn219549   5.332  -0.102   3.001  0.3975  0.5214 -0.0007
 3500ntf    cn119550   5.279  -0.276   3.010  0.1647  0.5843 -0.1376
 3500ntf    fn419551   5.560   0.022   2.760  0.1884 -0.7647  0.7563
 3500ntf    fn419552   5.495   0.142   2.932  0.0201  0.1513  0.6225
 3500ntf    fn419553   5.697   0.126   2.883  0.3206  0.1931  0.8116
 3500ntf    on519554   5.649  -0.193   2.907  0.6350 -0.2275  0.8893
 3500ntf    on519555   5.711  -0.049   3.092  0.3354  0.4016 -0.1643
 3500ntf    on519556   5.331  -0.070   2.861  0.5014 -0.2567 -0.1879
 3500ntf    on519557   5.235  -0.032   3.082 -0.0422 -0.0246 -0.0464
 3500ntf    fn419558   5.187  -0.310   2.922 -0.0675  0.4607  0.1520
 3500ntf    fn419559   5.382  -0.354   2.982  0.1874  0.3549  0.5465
 3500ntf    fn419560   5.236  -0.325   3.126  0.3571  0.1321 -0.2544
 3501ntf    cn119561   0.110   2.889   6.245  0.1624  0.2763 -0.0116
 3501ntf    sn219562   0.181   2.951   6.400 -0.3868 -0.0535  0.3746
 3501ntf    nn319563   0.295   2.844   6.414  0.2096  0.5694  0.3043
 3501ntf    sn219564   0.312   2.725   6.515 -0.1325  0.1446 -0.1346
 3501ntf    cn119565   0.466   2.784   6.591  0.0902  0.0953 -0.5454
 3501ntf    fn419566   0.181   2.923   6.138  0.2513 -0.4474 -0.1954
 3501ntf    fn419567   0.105   2.756   6.242  0.0603  0.2669  0.4599
 3501ntf    fn419568  -0.017   2.923   6.230 -0.0030 -0.2389  0.1807
 3501ntf    on519569   0.229   3.081   6.362 -0.6199 -0.1532 -0.2641
 3501ntf    on519570   0.077   2.949   6.500  0.0630  0.3175  0.8533
 3501ntf    on519571   0.353   2.607   6.443  0.0805 -0.0341  0.2769
 3501ntf    on519572   0.220   2.708   6.625  0.1157  0.1217  0.0709
 3501ntf    fn419573   0.570   2.769   6.510  0.6644 -0.1309  0.2067
 3501ntf    fn419574   0.463   2.912   6.624  0.2435 -0.0677  0.1162
 3501ntf    fn419575   0.493   2.713   6.700 -0.5418  0.4100 -0.1790
 3502ntf    cn119576   0.938   7.262   6.466  0.1900  0.4767  0.0020
 3502ntf    sn219577   0.924   7.399   6.347 -0.0885  0.1406 -0.3553
 3502ntf    nn319578   0.809   7.343   6.255  0.2124 -0.4226 -0.3957
 3502ntf    sn219579   0.671   7.412   6.227  0.2715 -0.0466  0.2068
 3502ntf    cn119580   0.578   7.291   6.127  0.2486  0.0581  0.1002
 3502ntf    fn419581   0.967   7.152   6.398 -0.3384  0.0445  0.4673
 3502ntf    fn419582   1.040   7.273   6.550  0.1904 -0.1691  0.0960
 3502ntf    fn419583   0.830   7.248   6.541  0.0367  0.5770 -0.1981
 3502ntf    on519584   0.891   7.508   6.436 -0.0105 -0.1217 -0.0028
 3502ntf    on519585   1.050   7.408   6.278  0.3451 -0.5046  0.3396
 3502ntf    on519586   0.694   7.527   6.143 -0.0155  0.0316  0.2334
 3502ntf    on519587   0.578   7.432   6.335  0.0654 -0.2895  0.0760
 3502ntf    fn419588   0.471   7.339   6.066  0.1840  0.3020  0.3983
 3502ntf    fn419589   0.645   7.238   6.026  0.1744 -0.1173  0.1418
 3502ntf    fn419590   0.526   7.188   6.191  0.2251 -0.1318 -0.2241
 3503ntf    cn119591   4.564   5.323   1.224  0.5328 -0.2053 -0.1521
 3503ntf    sn219592   4.414   5.424   1.241  0.6701 -0.0782  0.3445
 3503ntf    nn319593   4.303   5.320   1.205  0.3671  0.3440  0.0481
 3503ntf    sn219594   4.227   5.308   1.068  0.2250 -0.0014  0.1561
 3503ntf    cn119595   4.263   5.136   1.020  0.0925  0.0308 -0.0598
 3503ntf    fn419596   4.671   5.386   1.269  0.3129 -0.0568  0.1636
 3503ntf    fn419597   4.554   5.214   1.299 -0.2192  0.0343  0.1028
 3503ntf    fn419598   4.584   5.282   1.100 -0.1033 -0.2076 -0.2569
 3503ntf    on519599   4.413   5.455   1.381 -0.0436  0.9040  0.1352
 3503ntf    on519600   4.437   5.534   1.149  0.5209  0.1218  0.5467
 3503ntf    on519601   4.266   5.385   0.953  0.0591  0.5600  0.4690
 3503ntf    on519602   4.086   5.301   1.101  0.0730 -0.0207 -0.4799
 3503ntf    fn419603   4.193   5.104   0.912  0.0270 -0.5461  0.1542
 3503ntf    fn419604   4.391   5.113   0.999 -0.0018 -0.5853  0.0271
 3503ntf    fn419605   4.228   5.045   1.110  0.2036 -0.3360 -0.3870
 3504ntf    cn119606   5.193   0.417   5.377  0.3852  0.0517 -0.1428
 3504ntf    sn219607   5.120   0.375   5.216 -0.1936  0.3735  0.0340
 3504ntf    nn319608   5.173   0.487   5.120  0.4296 -0.1773 -0.2675
 3504ntf    sn219609   5.108   0.617   5.061 -0.0585 -0.4051 -0.2391
 3504ntf    cn119610   5.079   0.560   4.891 -0.2387  0.1875 -0.4097
 3504ntf    fn419611   5.324   0.426   5.360  0.2796  0.1060 -0.9676
 3504ntf    fn419612   5.164   0.540   5.416 -0.2970 -0.0113 -0.4298
 3504ntf    fn419613   5.166   0.333   5.476  0.2507  0.2923  0.0266
 3504ntf    on519614   5.186   0.250   5.191 -0.9549  0.1454 -0.8896
 3504ntf    on519615   4.981   0.362   5.254 -0.1197 -0.1875  0.1235
 3504ntf    on519616   5.204   0.723   5.038 -0.3385 -0.0957  0.0086
 3504ntf    on519617   4.979   0.653   5.113  0.1241 -0.1885  0.0654
 3504ntf    fn419618   5.167   0.582   4.794  0.4052  0.8019  0.3001
 3504ntf    fn419619   5.054   0.431   4.904 -0.0876  0.2002  0.0331
 3504ntf    fn419620   4.967   0.617   4.848 -0.2464  0.3281 -0.2050
 3505ntf    cn119621   6.903   1.079   1.990  0.0368 -0.4609  0.3538
 3505ntf    sn219622   6.831   1.237   1.934  0.0488 -0.4729  0.3044
 3505ntf    nn319623   6.679   1.197   1.935 -0.0768 -0.0377 -0.3637
 3505ntf    sn219624   6.570   1.223   2.045  0.2418 -0.1660 -0.0121
 3505ntf    cn119625   6.457   1.330   1.950  0.1871 -0.1275  0.0959
 3505ntf    fn419626   6.904   1.070   2.122  0.4146  0.2436  0.4069
 3505ntf    fn419627   6.843   0.974   1.937 -0.0981  0.0527 -0.5501
 3505ntf    fn419628   7.027   1.063   1.946 -0.0589 -0.2638  0.0073
 3505ntf    on519629   6.886   1.332   2.027  0.4193 -0.0484 -0.3432
 3505ntf    on519630   6.884   1.239   1.800 -0.2857  0.1561  0.1802
 3505ntf    on519631   6.607   1.297   2.163 -0.1616 -0.2091  0.1442
 3505ntf    on519632   6.498   1.100   2.063 -0.2364  0.2249  0.8033
 3505ntf    fn419633   6.416   1.268   1.841 -0.9084 -0.2742  0.5769
 3505ntf    fn419634   6.347   1.367   2.013  0.1836  0.3898 -0.2022
 3505ntf    fn419635   6.513   1.444   1.912 -0.5922  0.2402  0.0358
 3506ntf    cn119636   6.613   5.370   0.497  0.1984  0.5415  0.2734
 3506ntf    sn219637   6.564   5.195   0.498  0.1886  0.5437  0.1167
 3506ntf    nn319638   6.453   5.189   0.387  0.1380  0.2301  0.1833
 3506ntf    sn219639   6.298   5.208   0.400  0.1345  0.4222 -0.0934
 3506ntf    cn119640   6.253   5.290   0.245 -0.3108  0.3190 -0.0201
 3506ntf    fn419641   6.666   5.402   0.380 -0.3067  0.0223 -0.1003
 3506ntf    fn419642   6.509   5.452   0.507  0.1046  0.5691 -0.8380
 3506ntf    fn419643   6.706   5.398   0.588  0.2923  0.5780  0.1661
 3506ntf    on519644   6.692   5.149   0.448 -0.1762  0.0850 -0.4081
 3506ntf    on519645   6.530   5.171   0.636  0.2277  0.1285  0.0557
 3506ntf    on519646   6.268   5.311   0.496 -0.0622 -0.1183  0.4350
 3506ntf    on519647   6.234   5.079   0.388 -0.0190  0.5584 -0.7718
 3506ntf    fn419648   6.272   5.228   0.129 -0.5828  0.2215 -0.0138
 3506ntf    fn419649   6.127   5.331   0.244 -0.3275  0.2720  0.0710
 3506ntf    fn419650   6.332   5.395   0.231 -0.0735  0.1199 -0.1858
 3507ntf    cn119651   1.938   7.046   0.461 -0.2061  0.0298 -0.5249
 3507ntf    sn219652   1.804   6.936   0.519 -0.0124  0.1342  0.1266
 3507ntf    nn319653   1.884   6.801   0.513 -0.5277 -0.1901  0.4915
 3507ntf    sn219654   1.838   6.663   0.454 -0.1564 -0.1630  0.1297
 3507ntf    cn119655   1.903   6.531   0.561  0.4298  0.1382  0.1472
 3507ntf    fn419656   2.010   7.000   0.360  0.2982  0.2755 -0.2814
 3507ntf    fn419657   1.905   7.166   0.418  0.0993  0.0588 -0.6796
 3507ntf    fn419658   2.029   7.064   0.556 -0.4019 -0.3257 -0.2652
 3507ntf    on519659   1.787   6.960   0.660  0.7350 -0.3258  0.3033
 3507ntf    on519660   1.690   6.950   0.432  0.2465 -0.4288 -0.3112
 3507ntf    on519661   1.904   6.644   0.327 -0.3348  0.2030 -0.0184
 3507ntf    on519662   1.695   6.642   0.450 -0.1025 -0.5840  0.3273
 3507ntf    fn419663   1.858   6.411   0.528  0.3993  0.2473 -0.2108
 3507ntf    fn419664   2.035   6.522   0.557  0.4120 -0.2309  0.3510
 3507ntf    fn419665   1.888   6.548   0.692 -0.0702  0.8242  0.0067
 3508ntf    cn119666   1.336   6.025   0.414  0.2417  0.2744 -0.1367
 3508ntf    sn219667   1.204   6.021   0.289  0.2351  0.1059 -0.1247
 3508ntf    nn319668   1.135   6.158   0.321 -0.0387 -0.0868  0.1269
 3508ntf    sn219669   1.059   6.248   0.217  0.1422 -0.1936 -0.0976
 3508ntf    cn119670   1.196   6.352   0.158  0.1924 -0.2940 -0.1572
 3508ntf    fn419671   1.411   6.133   0.401  0.3356  0.3098  0.6761
 3508ntf    fn419672   1.289   6.038   0.537 -0.4123  0.2435 -0.3786
 3508ntf    fn419673   1.421   5.923   0.415  0.3482  0.3662  0.2848
 3508ntf    on519674   1.270   6.017   0.161 -0.2228  0.0580 -0.3631
 3508ntf    on519675   1.121   5.906   0.320  0.4074 -0.0660 -0.2979
 3508ntf    on519676   0.957   6.336   0.268 -0.8408 -0.7707 -1.0326
 3508ntf    on519677   1.009   6.181   0.099 -0.2985 -0.1542  0.0647
 3508ntf    fn419678   1.234   6.424   0.262 -0.2708  0.0130 -0.1995
 3508ntf    fn419679   1.305   6.278   0.141  0.3687  0.0074 -0.3477
 3508ntf    fn419680   1.186   6.429   0.051 -0.1335 -0.3085 -0.1384
 3509ntf    cn119681   5.980   0.579   4.675  0.0025  0.1192  0.2155
 3509ntf    sn219682   6.108   0.463   4.730  0.1803  0.4451  0.5015
 3509ntf    nn319683   6.235   0.555   4.737 -0.0940  0.8935 -0.3625
 3509ntf    sn219684   6.281   0.644   4.858  0.0297  0.2179  0.0911
 3509ntf    cn119685   6.401   0.752   4.775  0.0138  0.1182 -0.0634
 3509ntf    fn419686   5.868   0.517   4.643  0.3401 -0.3228 -0.1132
 3509ntf    fn419687   5.956   0.673   4.765  0.2571  0.7640 -0.3794
 3509ntf    fn419688   6.009   0.652   4.568 -0.3306  0.3915  0.3081
 3509ntf    on519689   6.059   0.424   4.860 -0.1633  0.1896  0.2977
 3509ntf    on519690   6.118   0.363   4.626  0.4962  0.4917  0.4855
 3509ntf    on519691   6.374   0.573   4.942  0.2682 -0.2288 -0.5413
 3509ntf    on519692   6.192   0.744   4.911  0.0987  0.3649 -0.0704
 3509ntf    fn419693   6.350   0.837   4.687 -0.2009  0.0959  0.0401
 3509ntf    fn419694   6.471   0.817   4.867  0.0915 -0.0120 -0.0301
 3509ntf    fn419695   6.490   0.686   4.702  0.1489  0.1282  0.0908
 3510ntf    cn119696   0.352   3.416   7.214 -0.2853  0.5402  0.1776
 3510ntf    sn219697   0.298   3.379   7.044  0.4044  0.1382  0.0441
 3510ntf    nn319698   0.431   3.333   6.973  0.0686 -0.3895 -0.2424
 3510ntf    sn219699   0.517   3.418   6.874  0.0423 -0.0867 -0.0060
 3510ntf    cn119700   0.677   3.331   6.867 -0.0543 -0.2587 -0.0894
 3510ntf    fn419701   0.467   3.481   7.225 -0.4849  0.9386 -0.0483
 3510ntf    fn419702   0.266   3.481   7.290  0.0968  0.2725  0.8426
 3510ntf    fn419703   0.373   3.300   7.274  0.8160  0.5770 -0.1024
 3510ntf    on519704   0.207   3.270   7.067  0.6272 -0.2381 -0.8203
 3510ntf    on519705   0.246   3.505   6.997  0.1053  0.1463  0.3982
 3510ntf    on519706   0.562   3.546   6.924 -0.1278 -0.3273  0.7639
 3510ntf    on519707   0.472   3.404   6.738 -0.2837 -0.2398  0.1177
 3510ntf    fn419708   0.654   3.203   6.846 -0.3207 -0.2397  0.0775
 3510ntf    fn419709   0.766   3.361   6.774 -0.6138 -0.0458 -0.5654
 3510ntf    fn419710   0.734   3.337   6.986 -0.6717 -0.1389  0.2073
 3511ntf    cn119711   5.765   2.474   2.348 -0.0333 -0.1093  0.3791
 3511ntf    sn219712   5.760   2.651   2.387  0.2499 -0.0444  0.1195
 3511ntf    nn319713   5.851   2.670   2.514 -0.2442  0.7956  0.3558
 3511ntf    sn219714   5.988   2.743   2.537  0.2032  0.0863 -0.0381
 3511ntf    cn119715   6.091   2.614   2.614  0.4673  0.3733  0.0929
 3511ntf    fn419716   5.883   2.423   2.376 -0.1732 -0.4196  0.4110
 3511ntf    fn419717   5.689   2.405   2.432  0.1130  0.0986  0.6793
 3511ntf    fn419718   5.739   2.442   2.222  0.3080 -0.0216  0.2875
 3511ntf    on519719   5.812   2.708   2.265  0.0553  0.2625  0.1785
 3511ntf    on519720   5.621   2.669   2.420  0.1566 -0.0874 -0.2486
 3511ntf    on519721   5.983   2.840   2.643 -0.4848  0.0150 -0.0003
 3511ntf    on519722   6.064   2.792   2.425  0.3855  0.5586  0.2906
 3511ntf    fn419723   6.213   2.650   2.649  0.7707 -0.5690  0.0247
 3511ntf    fn419724   6.028   2.567   2.720  0.1583  0.5819  0.0047
 3511ntf    fn419725   6.100   2.505   2.540 -0.3192  0.2636  0.1509
 3512ntf    cn119726   0.852   3.006   4.406  0.1876  0.8048  0.0767
 3512ntf    sn219727   0.830   3.024   4.586 -0.1376  0.1839  0.1000
 3512ntf    nn319728   0.976   3.002   4.640 -0.1174 -0.1278 -0.0784
 3512ntf    sn219729   1.065   3.090   4.734 -0.1974 -0.1215 -0.0089
 3512ntf    cn119730   1.159   2.958   4.816  0.2397  0.0596 -0.2134
 3512ntf    fn419731   0.883   2.880   4.384  0.1558  0.7408  0.3865
 3512ntf    fn419732   0.745   3.030   4.332  0.0643 -0.2973 -0.1139
 3512ntf    fn419733   0.950   3.081   4.357  0.4099  0.0241 -0.6877
 3512ntf    on519734   0.784   3.159   4.604 -0.1584  0.1524  0.2825
 3512ntf    on519735   0.740   2.915   4.616 -0.2551  0.2563  0.0103
 3512ntf    on519736   0.999   3.147   4.849 -0.0550 -0.0038  0.0152
 3512ntf    on519737   1.167   3.168   4.670  0.2110 -0.0698  0.6881
 3512ntf    fn419738   1.083   2.863   4.869  0.1340  0.4875  0.4184
 3512ntf    fn419739   1.253   2.898   4.746  0.0060 -0.0259 -0.4533
 3512ntf    fn419740   1.238   3.009   4.909 -0.2301  0.0191  0.2157
 3513ntf    cn119741   0.105   3.993   2.067 -0.0882 -0.1734 -0.4054
 3513ntf    sn219742   0.088   3.822   2.007  0.3385 -0.3405 -0.0511
 3513ntf    nn319743   0.101   3.743   2.142  0.1499 -0.1569  0.0746
 3513ntf    sn219744   0.226   3.678   2.212  0.0351 -0.2391  0.2032
 3513ntf    cn119745   0.204   3.505   2.159  0.2438 -0.0733 -0.4274
 3513ntf    fn419746   0.121   4.081   1.970 -0.2517  0.0693 -0.2164
 3513ntf    fn419747  -0.008   4.032   2.124 -0.0361 -0.1113 -0.3442
 3513ntf    fn419748   0.195   4.018   2.160 -0.7425 -0.0138  0.2004
 3513ntf    on519749  -0.045   3.822   1.952  0.2232  0.4336  0.2105
 3513ntf    on519750   0.189   3.810   1.904 -0.0323  0.0765 -0.4681
 3513ntf    on519751   0.207   3.676   2.355 -0.4509  0.1245  0.1470
 3513ntf    on519752   0.356   3.722   2.168 -0.2369  0.4744  0.1067
 3513ntf    fn419753   0.099   3.443   2.210  0.1241  0.2341 -0.2984
 3513ntf    fn419754   0.195   3.496   2.027  0.0143 -0.1126 -0.4088
 3513ntf    fn419755   0.313   3.443   2.200  0.1726  0.2996  0.3432
 3514ntf    cn119756   0.192   1.483   1.148  0.0187  0.0358 -0.6754
 3514ntf    sn219757   0.289   1.519   1.297  0.0122 -0.0607 -0.6475
 3514ntf    nn319758   0.168   1.519   1.396  0.8258  0.6249  0.3747
 3514ntf    sn219759   0.126   1.615   1.513 -0.0639  0.1160  0.4813
 3514ntf    cn119760   0.089   1.500   1.649  0.4630 -0.4971  0.1151
 3514ntf    fn419761   0.107   1.580   1.117  0.1482  0.3250 -0.1421
 3514ntf    fn419762   0.279   1.461   1.051  0.4154 -0.3021 -0.2510
 3514ntf    fn419763   0.120   1.372   1.158 -0.1789  0.2278  0.0909
 3514ntf    on519764   0.373   1.402   1.302  0.4622  0.2809 -0.0770
 3514ntf    on519765   0.352   1.647   1.277 -0.4346  0.2531 -0.0634
 3514ntf    on519766  -0.002   1.674   1.484  0.0547  0.1020 -0.0831
 3514ntf    on519767   0.228   1.707   1.556  0.8403 -0.7131  0.1309
 3514ntf    fn419768  -0.015   1.422   1.626  0.0294 -0.1135  0.7177
 3514ntf    fn419769   0.195   1.425   1.671  0.6046 -0.2956  0.1201
 3514ntf    fn419770   0.061   1.567   1.760  0.0473 -0.7132  0.1451
 3515ntf    cn119771   5.534   0.000   5.282  0.0001 -0.0735  1.1064
 3515ntf    sn219772   5.572  -0.158   5.363  0.2590 -0.5613  0.0495
 3515ntf    nn319773   5.719  -0.124   5.405  0.1742 -0.2022  0.0563
 3515ntf    sn219774   5.786  -0.097   5.544  0.1334 -0.0486  0.0466
 3515ntf    cn119775   5.878   0.055   5.505 -0.2629  0.1654 -0.0616
 3515ntf    fn419776   5.631   0.035   5.199 -0.0392 -0.8383  0.7327
 3515ntf    fn419777   5.420   0.017   5.217  0.7061  0.6126  0.0276
 3515ntf    fn419778   5.538   0.091   5.379  0.8212  0.5323  0.5106
 3515ntf    on519779   5.467  -0.164   5.463  0.0200  0.4341 -0.1322
 3515ntf    on519780   5.565  -0.244   5.247 -0.0545  0.2879 -0.5720
 3515ntf    on519781   5.887  -0.197   5.570  0.3120  0.1318  0.0493
 3515ntf    on519782   5.702  -0.058   5.654 -0.5893 -0.3668 -0.3897
 3515ntf    fn419783   5.943   0.053   5.390  0.3359 -0.4382  0.2790
 3515ntf    fn419784   5.804   0.164   5.495  0.6127  0.7527 -0.2222
 3515ntf    fn419785   5.974   0.081   5.592 -0.3702 -0.0111  0.1102
 3516ntf    cn119786   7.248   3.608   4.958  0.0324 -0.1100  0.2966
 3516ntf    sn219787   7.159   3.733   4.860  0.0683 -0.4621 -0.1887
 3516ntf    nn319788   7.122   3.835   4.974 -0.1633 -0.1419 -0.5463
 3516ntf    sn219789   7.008   3.814   5.079  0.3284  0.1502  0.0526
 3516ntf    cn119790   6.865   3.887   4.994  0.2139 -0.3326 -0.1742
 3516ntf    fn419791   7.158   3.524   5.007 -0.3862  0.2751  0.2007
 3516ntf    fn419792   7.320   3.529   4.881 -0.5648  0.2068 -0.6077
 3516ntf    fn419793   7.331   3.664   5.045  0.3467  0.3700 -0.3022
 3516ntf    on519794   7.254   3.784   4.764  0.0604 -0.3297 -0.1268
 3516ntf    on519795   7.047   3.662   4.803  0.1247  0.1083 -1.0394
 3516ntf    on519796   7.028   3.913   5.182  0.2682 -0.3620  0.5622
 3516ntf    on519797   6.988   3.681   5.129 -0.4089  0.1878 -0.1306
 3516ntf    fn419798   6.751   3.844   5.047  0.1654  0.1200  0.0995
 3516ntf    fn419799   6.861   4.019   5.009 -0.2569 -0.4319  0.6233
 3516ntf    fn419800   6.863   3.866   4.863 -0.4888  0.0563 -0.2360
 3517ntf    cn119801   3.634   2.559   2.260  0.1722 -0.1385  0.6497
 3517ntf    sn219802   3.501   2.624   2.367  0.0110  0.2009  0.2459
 3517ntf    nn319803   3.377   2.551   2.305 -0.0420  0.5939 -0.1170
 3517ntf    sn219804   3.293   2.573   2.174 -0.1819 -0.0205 -0.1347
 3517ntf    cn119805   3.174   2.701   2.224 -0.1710 -0.1954  0.3418
 3517ntf    fn419806   3.650   2.639   2.157 -0.3634 -0.4897  0.2857
 3517ntf    fn419807   3.751   2.548   2.320  0.6702  0.6814 -0.1502
 3517ntf    fn419808   3.593   2.442   2.214  0.5765 -0.2539  0.5858
 3517ntf    on519809   3.532   2.559   2.492 -0.5414 -0.1360  0.2132
 3517ntf    on519810   3.508   2.767   2.356  0.4003  0.2013  0.4825
 3517ntf    on519811   3.210   2.458   2.145  0.7488 -0.5984 -0.5493
 3517ntf    on519812   3.370   2.633   2.068 -0.2650  0.2511 -0.0435
 3517ntf    fn419813   3.240   2.810   2.259  0.3569 -0.3801 -0.0803
 3517ntf    fn419814   3.092   2.721   2.122  0.1658  0.0165  0.1146
 3517ntf    fn419815   3.093   2.670   2.324 -0.1456 -0.4783  0.2757
 3518ntf    cn119816   5.040   2.889   4.806 -0.6028  0.1146 -0.0910
 3518ntf    sn219817   4.961   2.771   4.919  0.0502 -0.0067  0.2390
 3518ntf    nn319818   5.072   2.664   4.948 -0.2001 -0.3224  0.0437
 3518ntf    sn219819   5.090   2.518   4.893 -0.0354 -0.2385 -0.1236
 3518ntf    cn119820   5.236   2.472   4.990  0.1459 -0.0212 -0.2910
 3518ntf    fn419821   4.966   2.999   4.798 -0.5464  0.1353 -0.3252
 3518ntf    fn419822   5.160   2.923   4.848 -0.6388  0.1641 -0.0272
 3518ntf    fn419823   5.058   2.842   4.683  0.0400  0.2273 -0.0407
 3518ntf    on519824   4.937   2.844   5.041 -0.3302  0.5929 -0.1923
 3518ntf    on519825   4.849   2.728   4.839  0.5024 -0.6414 -0.0636
 3518ntf    on519826   5.141   2.511   4.758  0.2793 -0.0160 -0.0175
 3518ntf    on519827   4.977   2.436   4.929 -0.6326  0.5738 -0.1248
 3518ntf    fn419828   5.264   2.344   4.968  0.9448  0.0245  0.4136
 3518ntf    fn419829   5.340   2.542   4.947  0.0396  0.3991  0.1333
 3518ntf    fn419830   5.237   2.499   5.120 -0.0686 -0.0129 -0.2904
 3519ntf    cn119831   2.317   0.808   1.503 -0.2807  0.0502 -0.1410
 3519ntf    sn219832   2.224   0.657   1.544 -0.1735  0.0259  0.0117
 3519ntf    nn319833   2.333   0.577   1.624  0.2186  0.1855 -0.3634
 3519ntf    sn219834   2.416   0.452   1.577  0.0636  0.0057 -0.1563
 3519ntf    cn119835   2.340   0.323   1.681 -0.2201  0.1394 -0.1966
 3519ntf    fn419836   2.372   0.862   1.610  0.0909 -0.0591 -0.2757
 3519ntf    fn419837   2.411   0.777   1.415  0.0460 -0.1669  0.2877
 3519ntf    fn419838   2.245   0.900   1.441 -0.1343  0.1787 -0.1201
 3519ntf    on519839   2.126   0.712   1.636 -0.2878  0.0684 -0.1356
 3519ntf    on519840   2.169   0.605   1.421 -0.9609 -0.4623  0.5590
 3519ntf    on519841   2.555   0.457   1.614 -0.0549 -0.1120  0.3206
 3519ntf    on519842   2.396   0.409   1.441 -0.4387  0.7031 -0.3067
 3519ntf    fn419843   2.214   0.301   1.649 -0.1730 -0.5354  0.0779
 3519ntf    fn419844   2.409   0.211   1.669 -0.2530  0.0242  0.6057
 3519ntf    fn419845   2.336   0.352   1.810 -0.6183 -0.2074 -0.1302
 3520ntf    cn119846   5.812   1.655   0.010 -0.0037 -0.5584  0.2710
 3520ntf    sn219847   5.956   1.686  -0.096 -0.0383 -0.1969  0.3260
 3520ntf    nn319848   6.061   1.599  -0.017  0.6755  0.0961 -0.2823
 3520ntf    sn219849   6.121   1.627   0.125 -0.0699 -0.1014  0.0762
 3520ntf    cn119850   6.052   1.480   0.208  0.3166 -0.3699 -0.0762
 3520ntf    fn419851   5.701   1.707  -0.041  0.2263 -0.2867  0.0446
 3520ntf    fn419852   5.790   1.525   0.022 -0.2808 -0.5678 -0.2601
 3520ntf    fn419853   5.821   1.705   0.132  0.6208 -0.1716  0.0697
 3520ntf    on519854   5.904   1.628  -0.218 -0.2695  0.2243  0.2252
 3520ntf    on519855   5.975   1.829  -0.102  0.5334 -0.2595  0.6066
 3520ntf    on519856   6.076   1.734   0.210  0.2485  0.1645 -0.0887
 3520ntf    on519857   6.261   1.594   0.114  0.0900  0.7489 -0.4896
 3520ntf    fn419858   6.124   1.373   0.178  0.5674 -0.1705 -0.1976
 3520ntf    fn419859   6.047   1.491   0.339  0.1362 -0.0554 -0.1081
 3520ntf    fn419860   5.929   1.444   0.176  0.3546 -0.6503  0.0940
 3521ntf    cn119861   6.216   6.792   6.759  0.1061 -0.0329  0.2798
 3521ntf    sn219862   6.250   6.940   6.859 -0.1469  0.0669  0.2190
 3521ntf    nn319863   6.180   6.901   6.994 -0.2675 -0.4114  0.0193
 3521ntf    sn219864   6.036   6.947   7.038 -0.2739 -0.3096 -0.1062
 3521ntf    cn119865   6.051   7.125   7.072  0.0852 -0.3943  0.2006
 3521ntf    fn419866   6.279   6.781   6.643 -0.5075  0.2758 -0.0889
 3521ntf    fn419867   6.263   6.696   6.837  0.7165  0.2809  0.3045
 3521ntf    fn419868   6.087   6.766   6.750 -0.0319  0.6828  0.1476
 3521ntf    on519869   6.392   6.928   6.881 -0.2922 -0.7813  0.7445
 3521ntf    on519870   6.184   7.046   6.786 -0.3624  0.1025  0.4635
 3521ntf    on519871   5.992   6.888   7.162  0.2791  0.0935  0.2864
 3521ntf    on519872   5.941   6.941   6.930 -0.0832 -0.2359 -0.2795
 3521ntf    fn419873   6.175   7.150   7.110  0.2679 -0.2974 -0.4442
 3521ntf    fn419874   6.016   7.200   6.968  0.5077 -0.2317  0.1733
 3521ntf    fn419875   5.966   7.154   7.169  0.8857  0.6344  0.6055
 3522ntf    cn119876   6.237   7.008   1.599 -0.3165 -0.1140 -0.0688
 3522ntf    sn219877   6.142   6.859   1.640 -0.1287 -0.0408  0.6398
 3522ntf    nn319878   6.170   6.763   1.519 -0.1040  0.1154  0.5213
 3522ntf    sn219879   6.066   6.673   1.445  0.3592  0.1471 -0.1793
 3522ntf    cn119880   6.014   6.792   1.318 -0.4486  0.2134  0.2072
 3522ntf    fn419881   6.368   6.998   1.610 -0.3053  0.3688  0.3109
 3522ntf    fn419882   6.216   7.047   1.474 -0.8347  0.7922  0.2849
 3522ntf    fn419883   6.196   7.108   1.676 -0.3911 -0.3850  0.2428
 3522ntf    on519884   6.199   6.809   1.763  0.2582 -0.1267  0.4292
 3522ntf    on519885   6.010   6.915   1.656 -0.2648 -0.0735 -0.2980
 3522ntf    on519886   5.954   6.635   1.527 -0.1803 -0.4056 -1.1426
 3522ntf    on519887   6.126   6.574   1.358 -0.4629 -0.5478  0.0211
 3522ntf    fn419888   6.118   6.812   1.238 -0.1113  0.1702  0.6364
 3522ntf    fn419889   5.919   6.737   1.243 -0.0478  0.4919 -0.5227
 3522ntf    fn419890   5.987   6.910   1.371  0.0931  0.3847  0.1037
 3523ntf    cn119891   1.937   3.239   6.804 -0.1562 -0.5503 -0.0100
 3523ntf    sn219892   1.871   3.142   6.664 -0.0168 -0.1581 -0.3499
 3523ntf    nn319893   1.915   3.223   6.537  0.4085  0.2449  0.0484
 3523ntf    sn219894   1.846   3.201   6.398  0.2893 -0.0767  0.1587
 3523ntf    cn119895   1.719   3.331   6.401  0.2125 -0.1535  0.2667
 3523ntf    fn419896   1.906   3.365   6.781 -0.0859 -0.4576  0.4027
 3523ntf    fn419897   1.879   3.210   6.919  0.7664  0.7822  0.8139
 3523ntf    fn419898   2.068   3.222   6.814 -0.0923  0.4714  0.9435
 3523ntf    on519899   1.945   3.019   6.673  0.3715  0.0724 -0.3403
 3523ntf    on519900   1.730   3.138   6.694  0.1171  0.2992  0.3746
 3523ntf    on519901   1.770   3.080   6.380  0.5687 -0.1336 -0.6668
 3523ntf    on519902   1.935   3.243   6.293 -0.3106  0.0350 -0.3156
 3523ntf    fn419903   1.615   3.310   6.479  0.3532 -0.4545  0.3743
 3523ntf    fn419904   1.771   3.448   6.433  0.5424 -0.0959 -0.4581
 3523ntf    fn419905   1.665   3.341   6.280  0.1011 -0.0693  0.3228
 3524ntf    cn119906   6.492   2.540   4.473  0.0652  0.2312  0.8356
 3524ntf    sn219907   6.649   2.492   4.552  0.2536  0.0927  0.3822
 3524ntf    nn319908   6.622   2.338   4.549 -0.7301  0.2602  0.2588
 3524ntf    sn219909   6.595   2.241   4.670  0.1767 -0.3650 -0.0339
 3524ntf    cn119910   6.424   2.288   4.708  0.3085 -0.1111  0.2415
 3524ntf    fn419911   6.479   2.484   4.354  0.4229  0.3397  0.7436
 3524ntf    fn419912   6.384   2.512   4.543 -0.2277 -0.3596  0.1571
 3524ntf    fn419913   6.498   2.671   4.457 -0.2821  0.1700  0.1865
 3524ntf    on519914   6.753   2.526   4.459 -0.1209  0.2584  0.0221
 3524ntf    on519915   6.634   2.563   4.677  0.1357 -0.2020  0.5350
 3524ntf    on519916   6.678   2.265   4.785 -0.2521 -0.7352  0.3562
 3524ntf    on519917   6.597   2.105   4.621 -0.0344 -0.4197  0.1132
 3524ntf    fn419918   6.343   2.292   4.604  0.0131 -0.1020  0.4695
 3524ntf    fn419919   6.360   2.216   4.799 -0.1439 -0.2970 -0.2164
 3524ntf    fn419920   6.418   2.410   4.758  0.7277  0.3051 -0.7019
 3525ntf    cn119921   2.086   3.655   2.356 -0.3886  0.3338 -0.0373
 3525ntf    sn219922   2.216   3.541   2.412 -0.3160  0.1871 -0.4980
 3525ntf    nn319923   2.320   3.527   2.296 -0.2950 -0.1471 -0.4402
 3525ntf    sn219924   2.389   3.634   2.204  0.0074 -0.0475 -0.0990
 3525ntf    cn119925   2.315   3.594   2.043 -0.3006  0.0754  0.0116
 3525ntf    fn419926   2.048   3.619   2.235 -0.2255  0.6456 -0.1842
 3525ntf    fn419927   1.970   3.664   2.419 -0.2514  0.5870  0.1809
 3525ntf    fn419928   2.119   3.783   2.353  0.5411  0.1181  0.6746
 3525ntf    on519929   2.276   3.593   2.532  0.3074 -0.6186 -0.4568
 3525ntf    on519930   2.144   3.417   2.430  0.5044 -0.2264 -0.0151
 3525ntf    on519931   2.530   3.606   2.186  0.1521  0.5185  0.1249
 3525ntf    on519932   2.353   3.771   2.229  0.1474  0.0118 -0.2141
 3525ntf    fn419933   2.403   3.621   1.948  0.0823  0.2447  0.4097
 3525ntf    fn419934   2.282   3.466   2.029 -0.0603 -0.0450  0.5174
 3525ntf    fn419935   2.209   3.670   2.020 -0.0424  0.2248 -0.6983
 3526ntf    cn119936   6.418   5.985   5.280  0.3940 -0.4823  0.1885
 3526ntf    sn219937   6.318   5.843   5.226  0.1134 -0.2542  0.1032
 3526ntf    nn319938   6.186   5.906   5.170  0.0614 -0.3294  0.1425
 3526ntf    sn219939   6.048   5.933   5.238  0.0644  0.0221  0.0107
 3526ntf    cn119940   5.999   6.078   5.139  0.2163 -0.0304 -0.1413
 3526ntf    fn419941   6.363   6.039   5.387 -0.5961 -0.8446 -0.1327
 3526ntf    fn419942   6.544   5.962   5.313  0.4216 -0.3770  0.1572
 3526ntf    fn419943   6.425   6.075   5.183  0.0888 -0.3868  0.2538
 3526ntf    on519944   6.403   5.795   5.119 -0.1348 -0.0330 -0.1962
 3526ntf    on519945   6.308   5.767   5.348 -0.0489 -0.4792 -0.0503
 3526ntf    on519946   6.048   5.968   5.378  0.0690 -0.1038  0.0423
 3526ntf    on519947   5.948   5.837   5.199 -0.5834  0.6480  0.0999
 3526ntf    fn419948   6.088   6.176   5.132  0.1705  0.0033 -0.2460
 3526ntf    fn419949   5.976   6.046   5.013  0.5525 -0.3780 -0.1158
 3526ntf    fn419950   5.890   6.133   5.190 -0.0700 -0.6262 -0.0986
 3527ntf    cn119951   1.476   0.135   0.946 -0.3919  0.1593 -0.2629
 3527ntf    sn219952   1.526   0.132   1.121 -0.0558 -0.4084 -0.3666
 3527ntf    nn319953   1.677   0.168   1.101 -0.3437  0.6445 -0.7052
 3527ntf    sn219954   1.760   0.257   1.201 -0.1559  0.3747 -0.6210
 3527ntf    cn119955   1.869   0.141   1.289 -0.5057  0.2957 -0.2891
 3527ntf    fn419956   1.509   0.247   0.885  0.3798  0.0476 -0.0555
 3527ntf    fn419957   1.535   0.034   0.884 -0.2818 -0.2629  0.5065
 3527ntf    fn419958   1.345   0.125   0.924 -0.3192 -0.3303 -0.4877
 3527ntf    on519959   1.448   0.234   1.187  0.1370 -0.6149  0.1867
 3527ntf    on519960   1.496  -0.003   1.162  0.3824 -0.4008 -0.0214
 3527ntf    on519961   1.692   0.339   1.298  0.2896 -0.3650  0.3393
 3527ntf    on519962   1.859   0.327   1.124  0.4813  0.1547 -0.0095
 3527ntf    fn419963   1.961   0.203   1.361 -0.3089  0.1913 -0.4516
 3527ntf    fn419964   1.800   0.064   1.372  0.4454 -0.0166  0.2265
 3527ntf    fn419965   1.932   0.053   1.213  0.0766 -0.2025  0.7366
 3528ntf    cn119966   4.750   4.426   0.777  0.1242 -0.0352  0.3960
 3528ntf    sn219967   4.924   4.398   0.733  0.0518  0.0678  0.0485
 3528ntf    nn319968   4.937   4.513   0.626 -0.3250  0.1582  0.0971
 3528ntf    sn219969   5.034   4.530   0.504 -0.2213  0.1396  0.1758
 3528ntf    cn119970   4.911   4.503   0.373  0.3071  0.2074 -0.3443
 3528ntf    fn419971   4.709   4.328   0.856 -0.9872  0.1588  0.0792
 3528ntf    fn419972   4.729   4.540   0.841 -0.2973  0.0954  0.0316
 3528ntf    fn419973   4.668   4.433   0.674  0.4225  0.1662  0.1710
 3528ntf    on519974   4.996   4.426   0.855  0.0439 -0.2608  0.1296
 3528ntf    on519975   4.925   4.261   0.688  0.2075 -0.1163  0.6007
 3528ntf    on519976   5.133   4.428   0.477 -0.2099  0.1727  0.0889
 3528ntf    on519977   5.078   4.666   0.481 -0.1588  0.0077 -0.5235
 3528ntf    fn419978   4.809   4.587   0.387  0.2596  0.0879  0.0431
 3528ntf    fn419979   4.974   4.524   0.259  0.6993 -0.2203 -0.2102
 3528ntf    fn419980   4.873   4.376   0.364 -0.3179  0.3357  0.3869
 3529ntf    cn119981   5.514   6.881   3.837  0.3003  0.3906  0.3276
 3529ntf    sn219982   5.332   6.885   3.834  0.3061  0.3089 -0.2235
 3529ntf    nn319983   5.307   7.018   3.756  0.0444  0.0734 -0.5435
 3529ntf    sn219984   5.177   7.107   3.758  0.0662  0.0913  0.0799
 3529ntf    cn119985   5.125   7.112   3.584 -0.9155 -0.0111  0.3636
 3529ntf    fn419986   5.561   6.843   3.720 -0.4340 -0.4880  0.3062
 3529ntf    fn419987   5.547   7.008   3.854  0.5196  0.3808 -0.0289
 3529ntf    fn419988   5.577   6.810   3.929  0.4802  0.4313  0.2361
 3529ntf    on519989   5.294   6.777   3.746  0.2136 -0.4279  0.7021
 3529ntf    on519990   5.293   6.881   3.973 -0.3406 -0.1111 -0.4095
 3529ntf    on519991   5.209   7.243   3.793 -0.2530  0.3287 -0.5525
 3529ntf    on519992   5.065   7.046   3.826 -0.0659  0.5839  0.3068
 3529ntf    fn419993   5.068   7.230   3.572 -1.0288 -0.2041 -1.1352
 3529ntf    fn419994   5.223   7.110   3.495 -0.7771 -0.1315  0.5176
 3529ntf    fn419995   5.043   7.015   3.546 -0.1204 -0.3842 -0.4498
 3530ntf    cn119996   0.571   1.166   4.379 -0.1596 -0.5108  0.3820
 3530ntf    sn219997   0.564   1.348   4.382  0.0699 -0.4858 -0.2710
 3530ntf    nn319998   0.423   1.379   4.321 -0.1053  0.0129  0.3686
 3530ntf    sn219999   0.387   1.429   4.176  0.4140 -0.1778  0.1716
 3530ntf    cn120000   0.358   1.607   4.203  0.1686 -0.1348 -0.3745
 3530ntf    fn420001   0.690   1.110   4.363  0.5942  0.9593  0.6023
 3530ntf    fn420002   0.526   1.102   4.485 -0.5194 -0.2931  0.3617
 3530ntf    fn420003   0.499   1.123   4.277  0.2004  0.0426 -0.1194
 3530ntf    on520004   0.573   1.373   4.524  0.5968  0.6924 -0.5027
 3530ntf    on520005   0.679   1.372   4.299 -0.0117  0.8459 -0.0289
 3530ntf    on520006   0.259   1.380   4.133  0.1793  0.6023 -0.0377
 3530ntf    on520007   0.496   1.417   4.083  0.2179  0.3690 -0.1299
 3530ntf    fn420008   0.311   1.672   4.097 -0.3067 -0.4350 -0.3535
 3530ntf    fn420009   0.265   1.616   4.297  0.4867  0.2495 -0.0939
 3530ntf    fn420010   0.457   1.680   4.249  0.4451 -0.4209 -0.5102
 3531ntf    cn120011   3.417   5.464   5.313 -0.4648 -0.2556  0.0954
 3531ntf    sn220012   3.339   5.470   5.477 -0.5782  0.2956  0.0261
 3531ntf    nn320013   3.372   5.327   5.535 -0.6963  0.0913 -0.4113
 3531ntf    sn220014   3.280   5.259   5.643 -0.2465  0.0315 -0.0651
 3531ntf    cn120015   3.360   5.289   5.804  0.2050 -0.4545 -0.1972
 3531ntf    fn420016   3.367   5.546   5.222  0.0993  0.0877  0.0918
 3531ntf    fn420017   3.547   5.489   5.316 -0.6003  0.5117 -0.1079
 3531ntf    fn420018   3.399   5.340   5.273 -0.3985 -0.3829  0.4524
 3531ntf    on520019   3.414   5.566   5.554 -0.2981 -0.3621  0.5904
 3531ntf    on520020   3.200   5.496   5.454 -0.4947  0.4602 -0.2874
 3531ntf    on520021   3.297   5.116   5.634  0.2914  0.0526  0.5523
 3531ntf    on520022   3.146   5.304   5.671 -0.2340 -0.1019  0.2063
 3531ntf    fn420023   3.431   5.398   5.822 -0.1375 -0.2468 -0.0941
 3531ntf    fn420024   3.267   5.285   5.898 -0.0197 -0.2460 -0.4103
 3531ntf    fn420025   3.450   5.196   5.833  0.0336 -0.6485 -0.2814
 3532ntf    cn120026   3.829   5.058   6.227  0.2295 -0.0583 -0.2838
 3532ntf    sn220027   3.791   5.023   6.402  0.3448 -0.0453 -0.2555
 3532ntf    nn320028   3.837   5.162   6.458  0.1086  0.0954 -0.4081
 3532ntf    sn220029   3.985   5.208   6.484 -0.0178  0.3416 -0.1218
 3532ntf    cn120030   3.972   5.233   6.664  0.1512 -0.3875 -0.0056
 3532ntf    fn420031   3.772   5.175   6.201  0.3769  0.0921  0.0567
 3532ntf    fn420032   3.959   5.068   6.205  0.2506 -0.2862 -0.2607
 3532ntf    fn420033   3.776   4.974   6.140  0.0741 -0.1044 -0.1456
 3532ntf    on520034   3.647   5.020   6.394  0.3488  0.2108 -0.4205
 3532ntf    on520035   3.871   4.906   6.429  0.2900 -0.2302 -0.8614
 3532ntf    on520036   4.003   5.343   6.435 -0.1029  0.1572 -0.6643
 3532ntf    on520037   4.092   5.113   6.473 -0.0515  0.2078  0.6480
 3532ntf    fn420038   3.946   5.121   6.729 -0.4075 -0.6634 -0.6996
 3532ntf    fn420039   4.078   5.291   6.720 -0.5866  1.0627 -0.0565
 3532ntf    fn420040   3.865   5.307   6.685  0.1802 -0.3991  0.1892
 3533ntf    cn120041   5.104   0.528   3.959 -0.0201  0.1082  0.3312
 3533ntf    sn220042   5.028   0.523   4.124  0.0674 -0.5415  0.3567
 3533ntf    nn320043   5.148   0.478   4.215  0.5946 -0.3656 -0.2379
 3533ntf    sn220044   5.262   0.572   4.270  0.0278  0.0196  0.3084
 3533ntf    cn120045   5.208   0.607   4.440 -0.1930  0.2806  0.1847
 3533ntf    fn420046   5.006   0.549   3.872  0.0104 -0.0562  0.2555
 3533ntf    fn420047   5.198   0.619   3.939  0.1328 -0.1621 -0.2235
 3533ntf    fn420048   5.165   0.415   3.926 -0.0780  0.1674  0.0143
 3533ntf    on520049   4.967   0.653   4.140 -0.4413 -0.7320 -0.0201
 3533ntf    on520050   4.932   0.417   4.116 -0.6515  0.1571 -0.5207
 3533ntf    on520051   5.262   0.707   4.221 -0.2726 -0.1322 -0.1182
 3533ntf    on520052   5.387   0.503   4.291  0.2884  0.4919  0.2986
 3533ntf    fn420053   5.115   0.700   4.456 -0.0796  0.4399 -0.0700
 3533ntf    fn420054   5.161   0.498   4.498  0.4716 -0.6310 -0.9331
 3533ntf    fn420055   5.311   0.651   4.510 -0.1044  0.6771 -0.1909
 3534ntf    cn120056   2.814   4.684   3.711 -0.1118 -0.4790  0.4779
 3534ntf    sn220057   2.707   4.627   3.575 -0.0596  0.0705  0.2018
 3534ntf    nn320058   2.589   4.566   3.658 -0.0618  0.1164  0.2332
 3534ntf    sn220059   2.452   4.631   3.697 -0.1478  0.1836 -0.1758
 3534ntf    cn120060   2.343   4.555   3.573 -0.2715  0.4491 -0.2304
 3534ntf    fn420061   2.866   4.587   3.784  0.5956  0.1364  0.8108
 3534ntf    fn420062   2.917   4.758   3.672 -0.5892  0.1969  0.4711
 3534ntf    fn420063   2.745   4.762   3.793  0.3966  0.7556 -0.2301
 3534ntf    on520064   2.676   4.746   3.500  0.1600 -0.3178 -0.5108
 3534ntf    on520065   2.790   4.527   3.512 -0.9165 -0.2134 -0.4981
 3534ntf    on520066   2.443   4.773   3.673  0.1593  0.2346  0.0055
 3534ntf    on520067   2.404   4.591   3.827 -0.0857 -0.3953 -0.3263
 3534ntf    fn420068   2.348   4.423   3.568 -0.3854  0.4135  0.4747
 3534ntf    fn420069   2.220   4.602   3.591 -0.5100 -0.2655  0.0515
 3534ntf    fn420070   2.392   4.594   3.457 -0.0854  0.3757 -0.1760
 3535ntf    cn120071   1.850   1.352   6.036  0.3464 -0.1742  0.0427
 3535ntf    sn220072   1.809   1.293   6.203 -0.2696  0.1981  0.0276
 3535ntf    nn320073   1.952   1.317   6.263 -0.1633 -0.0123 -0.1369
 3535ntf    sn220074   2.033   1.220   6.356 -0.0224 -0.3014 -0.5581
 3535ntf    cn120075   2.174   1.173   6.252  0.4069 -0.1810 -0.0325
 3535ntf    fn420076   1.960   1.297   5.987  0.3364 -0.6774  0.5795
 3535ntf    fn420077   1.758   1.339   5.940  0.4373 -0.6886  0.0233
 3535ntf    fn420078   1.884   1.479   6.027  0.2361 -0.1686 -0.3300
 3535ntf    on520079   1.709   1.387   6.246 -0.2538  0.5951 -0.7687
 3535ntf    on520080   1.767   1.156   6.184  1.0850 -0.2546  0.1688
 3535ntf    on520081   1.960   1.101   6.394  0.4763 -0.2586  0.5783
 3535ntf    on520082   2.089   1.295   6.465  0.3685  0.0469 -0.9976
 3535ntf    fn420083   2.167   1.220   6.128 -0.8446  0.6088  0.3136
 3535ntf    fn420084   2.290   1.203   6.309  0.1063  0.5860  0.1926
 3535ntf    fn420085   2.175   1.042   6.236  0.3276 -0.2658  0.6145
 3536ntf    cn120086   6.294   3.737   6.414 -0.0883 -0.2571  0.0972
 3536ntf    sn220087   6.470   3.720   6.371 -0.0994 -0.0159 -0.0428
 3536ntf    nn320088   6.489   3.866   6.315 -0.1029  0.0738  0.1901
 3536ntf    sn220089   6.594   3.935   6.222 -0.0282  0.0400  0.2483
 3536ntf    cn120090   6.516   3.894   6.063  0.4639 -0.5531  0.1589
 3536ntf    fn420091   6.239   3.631   6.472  0.4893 -0.1730  0.8051
 3536ntf    fn420092   6.266   3.834   6.499 -0.2375 -0.0488 -0.1872
 3536ntf    fn420093   6.216   3.756   6.309  0.1888 -0.2629 -0.1118
 3536ntf    on520094   6.524   3.708   6.504 -0.1572 -0.4525 -0.0575
 3536ntf    on520095   6.470   3.611   6.276 -0.1612  0.3789 -0.5019
 3536ntf    on520096   6.728   3.882   6.222  0.2323  0.6653  1.1738
 3536ntf    on520097   6.572   4.077   6.238  0.0399  0.0351  0.3807
 3536ntf    fn420098   6.580   3.955   5.964  0.0094 -0.5776 -0.1546
 3536ntf    fn420099   6.505   3.764   6.037  0.4450 -0.4703 -0.2625
 3536ntf    fn420100   6.389   3.928   6.051  0.4816 -0.5532 -0.0273
 3537ntf    cn120101   5.385   3.614   4.353  0.0092  0.2531  0.0060
 3537ntf    sn220102   5.240   3.589   4.246 -0.0372 -0.1702  0.1659
 3537ntf    nn320103   5.301   3.603   4.102  0.3013  0.0911  0.3327
 3537ntf    sn220104   5.305   3.725   4.003  0.0991  0.0151  0.2295
 3537ntf    cn120105   5.197   3.663   3.870  0.1838  0.1498  0.0980
 3537ntf    fn420106   5.434   3.737   4.352  0.6018  0.0238  0.4671
 3537ntf    fn420107   5.352   3.588   4.478  0.5023  0.5519  0.2000
 3537ntf    fn420108   5.487   3.537   4.319  0.2193  0.3820  0.3447
 3537ntf    on520109   5.192   3.460   4.288  0.3401 -0.1078  0.7875
 3537ntf    on520110   5.171   3.707   4.292 -0.0870 -0.3818  0.6326
 3537ntf    on520111   5.433   3.748   3.939 -0.1104  0.2942 -0.0933
 3537ntf    on520112   5.238   3.845   4.044  0.1234  0.2621 -0.4428
 3537ntf    fn420113   5.177   3.749   3.771 -0.2411 -0.0030  0.0526
 3537ntf    fn420114   5.241   3.550   3.818 -0.2318 -0.0686  0.2218
 3537ntf    fn420115   5.077   3.636   3.916  0.0939  0.1588 -0.1303
 3538ntf    cn120116   6.943   1.618   6.708  0.3667  0.3109 -0.2612
 3538ntf    sn220117   7.026   1.718   6.836  0.0212  0.1859  0.0630
 3538ntf    nn320118   7.014   1.867   6.789  0.2605  0.1935  0.0247
 3538ntf    sn220119   7.034   1.999   6.871  0.1933  0.0243  0.3142
 3538ntf    cn120120   7.185   2.056   6.788 -0.0316 -0.1511 -0.2142
 3538ntf    fn420121   7.005   1.626   6.591  0.6728  0.3744 -0.0967
 3538ntf    fn420122   6.943   1.490   6.741  0.2760  0.2253 -0.5919
 3538ntf    fn420123   6.815   1.638   6.683  0.1310  0.0541  0.7082
 3538ntf    on520124   6.953   1.700   6.959  0.2411  0.6061  0.2554
 3538ntf    on520125   7.162   1.671   6.818 -0.0266 -0.1469  0.5569
 3538ntf    on520126   7.077   1.978   7.007  0.7669 -0.4091  0.0664
 3538ntf    on520127   6.941   2.109   6.856  0.5724  0.4203  0.7908
 3538ntf    fn420128   7.172   2.076   6.658  0.0998 -0.3362 -0.2559
 3538ntf    fn420129   7.233   2.174   6.825 -0.4878 -0.1331  0.3339
 3538ntf    fn420130   7.284   1.969   6.797 -0.5166 -0.6578  0.3018
 3539ntf    cn120131   4.316   6.694   1.562  0.2017 -0.1120 -0.0003
 3539ntf    sn220132   4.309   6.732   1.740 -0.0820 -0.3044  0.0297
 3539ntf    nn320133   4.171   6.807   1.740  0.3438  0.4965 -0.3739
 3539ntf    sn220134   4.130   6.958   1.738 -0.6616  0.2427  0.1878
 3539ntf    cn120135   3.957   6.936   1.685 -0.4134 -0.0355 -0.5144
 3539ntf    fn420136   4.213   6.615   1.538  0.1786 -0.2177  0.4291
 3539ntf    fn420137   4.305   6.796   1.478  0.9756 -0.0534 -0.0354
 3539ntf    fn420138   4.430   6.632   1.537  0.3002  0.0253  0.1015
 3539ntf    on520139   4.308   6.608   1.814  0.0152 -0.5004 -0.2946
 3539ntf    on520140   4.425   6.815   1.757 -0.3706 -0.0692  0.8911
 3539ntf    on520141   4.203   7.044   1.647 -0.7222  0.2537  0.1491
 3539ntf    on520142   4.104   7.010   1.870 -0.1128  0.3122  0.2692
 3539ntf    fn420143   3.877   7.041   1.700 -0.7773 -0.4549  0.5779
 3539ntf    fn420144   3.943   6.909   1.556 -0.2922  0.1178 -0.5606
 3539ntf    fn420145   3.900   6.828   1.736 -0.3402  0.5333  0.8084
 3540ntf    cn120146   6.419   0.331   1.659  0.0996 -0.1761  0.2218
 3540ntf    sn220147   6.467   0.289   1.829 -0.1168  0.2330  0.3840
 3540ntf    nn320148   6.334   0.216   1.870 -0.2856  0.3720  0.0839
 3540ntf    sn220149   6.206   0.277   1.938 -0.5558  0.4592 -0.4966
 3540ntf    cn120150   6.071   0.188   1.855 -0.4925 -0.1553  0.0530
 3540ntf    fn420151   6.375   0.455   1.647 -0.4028 -0.3375  0.3551
 3540ntf    fn420152   6.520   0.319   1.574  0.4093  0.0977  0.5477
 3540ntf    fn420153   6.322   0.252   1.617  0.6140 -0.3713 -0.6244
 3540ntf    on520154   6.579   0.203   1.801  0.0774  0.7452 -0.4377
 3540ntf    on520155   6.502   0.418   1.883  0.3025  0.4462 -0.3858
 3540ntf    on520156   6.187   0.418   1.914 -0.3673  0.6644  0.5245
 3540ntf    on520157   6.203   0.237   2.077  0.7386  1.2248 -0.2340
 3540ntf    fn420158   6.091   0.065   1.812  0.6894  0.0183  0.0743
 3540ntf    fn420159   5.962   0.192   1.931 -0.1675 -0.1081  0.5221
 3540ntf    fn420160   6.048   0.256   1.744 -0.7773  0.3607  0.4201
 3541ntf    cn120161   3.522   3.605   1.670 -0.0196  0.0286 -0.1920
 3541ntf    sn220162   3.529   3.635   1.849 -0.0493  0.3843 -0.2501
 3541ntf    nn320163   3.683   3.655   1.872  0.0508 -0.2672 -0.3393
 3541ntf    sn220164   3.797   3.547   1.886  0.2786  0.0136 -0.0247
 3541ntf    cn120165   3.810   3.528   2.066 -0.2559  0.1828  0.0358
 3541ntf    fn420166   3.573   3.701   1.596  0.1824 -0.1019 -0.2240
 3541ntf    fn420167   3.586   3.492   1.646  0.4865  0.2404  0.1543
 3541ntf    fn420168   3.403   3.588   1.615 -0.2724 -1.0610  0.6449
 3541ntf    on520169   3.465   3.759   1.886 -0.4710  0.0932  0.0183
 3541ntf    on520170   3.467   3.521   1.913  0.5528  0.2422  0.0867
 3541ntf    on520171   3.925   3.606   1.857  0.2753  0.1004  0.1370
 3541ntf    on520172   3.769   3.420   1.825  0.3668  0.0711 -0.1849
 3541ntf    fn420173   3.695   3.496   2.123 -0.3460 -0.0858 -0.2970
 3541ntf    fn420174   3.903   3.438   2.094 -0.2818  0.0913 -0.1752
 3541ntf    fn420175   3.849   3.640   2.126 -0.3239  0.0502  0.3287
 3542ntf    cn120176   5.776   0.435   7.105  0.0054  0.1778  0.0423
 3542ntf    sn220177   5.893   0.557   7.171  0.1451 -0.0440  0.2051
 3542ntf    nn320178   5.819   0.694   7.155 -0.0786 -0.1568  0.2719
 3542ntf    sn220179   5.843   0.815   7.058 -0.2524 -0.0760  0.3277
 3542ntf    cn120180   5.717   0.778   6.933  0.1101  0.3177 -0.1598
 3542ntf    fn420181   5.835   0.320   7.075  0.3737  0.2378  0.5347
 3542ntf    fn420182   5.682   0.416   7.197 -0.0028  0.2339  0.0451
 3542ntf    fn420183   5.711   0.469   6.995  0.3692 -0.0937 -0.2577
 3542ntf    on520184   5.912   0.506   7.305 -0.2062 -0.1396  0.2187
 3542ntf    on520185   6.013   0.537   7.093  0.4744 -0.2984  0.7711
 3542ntf    on520186   5.971   0.826   6.992 -0.6858 -0.0125 -0.5225
 3542ntf    on520187   5.793   0.932   7.126  0.3898  0.5111 -0.1891
 3542ntf    fn420188   5.592   0.761   6.973  0.2091 -0.3179 -0.1079
 3542ntf    fn420189   5.702   0.868   6.837 -0.2790  0.6791  0.2403
 3542ntf    fn420190   5.743   0.667   6.865  0.4141  0.0673  0.3592
 3543ntf    cn120191   5.406   0.555   6.505 -0.3687 -0.1868 -0.3657
 3543ntf    sn220192   5.472   0.431   6.391 -0.0161 -0.3340 -0.0051
 3543ntf    nn320193   5.559   0.341   6.487  0.1006  0.3530  0.5353
 3543ntf    sn220194   5.699   0.275   6.463 -0.1768 -0.1910  0.3933
 3543ntf    cn120195   5.769   0.285   6.631  0.4410  0.2730  0.1128
 3543ntf    fn420196   5.341   0.651   6.442 -0.2321  0.0432 -0.1606
 3543ntf    fn420197   5.317   0.505   6.588 -0.3614 -0.2719 -0.4094
 3543ntf    fn420198   5.497   0.623   6.574 -0.5101 -0.3051 -0.0628
 3543ntf    on520199   5.354   0.368   6.336 -0.0854 -0.0148 -0.2224
 3543ntf    on520200   5.545   0.511   6.296  0.0525 -0.2690  0.1030
 3543ntf    on520201   5.794   0.349   6.384 -0.5800  0.2987  0.3576
 3543ntf    on520202   5.675   0.138   6.425  0.1532 -0.2311  0.3288
 3543ntf    fn420203   5.709   0.381   6.698 -0.2679 -0.0196 -0.0867
 3543ntf    fn420204   5.760   0.173   6.701  1.2159  0.2245  0.1383
 3543ntf    fn420205   5.898   0.314   6.636  0.4621  0.1682  0.1861
 3544ntf    cn120206   2.903   3.844   2.754  0.1203  0.2872 -0.5490
 3544ntf    sn220207   2.769   3.860   2.632 -0.3843 -0.3607 -0.0838
 3544ntf    nn320208   2.769   4.016   2.619 -0.0285 -0.3333  0.2286
 3544ntf    sn220209   2.681   4.129   2.684  0.1221 -0.0953  0.0180
 3544ntf    cn120210   2.822   4.215   2.758  0.1997  0.0434 -0.2913
 3544ntf    fn420211   2.883   3.893   2.875 -0.1888 -0.6140 -0.2230
 3544ntf    fn420212   2.940   3.719   2.780  0.4711  0.5360  0.1678
 3544ntf    fn420213   3.015   3.901   2.714  0.0352  0.8436 -0.0094
 3544ntf    on520214   2.825   3.792   2.518 -0.3336 -0.0540 -0.2399
 3544ntf    on520215   2.646   3.802   2.682 -0.5737  0.2170  0.1294
 3544ntf    on520216   2.609   4.088   2.802  0.5154 -0.6414  0.0719
 3544ntf    on520217   2.614   4.221   2.595 -0.2685 -0.0704  0.3322
 3544ntf    fn420218   2.923   4.226   2.673  0.3772 -0.5317 -0.1577
 3544ntf    fn420219   2.789   4.336   2.800 -0.0515 -0.0394 -0.2496
 3544ntf    fn420220   2.870   4.146   2.860 -0.1998  0.2335  0.0290
 3545ntf    cn120221   4.723   3.263   5.956 -0.0937  0.2048 -0.1725
 3545ntf    sn220222   4.565   3.173   5.959 -0.0224  0.0848 -0.0180
 3545ntf    nn320223   4.616   3.052   5.873  0.0983  0.1689 -0.0664
 3545ntf    sn220224   4.543   2.913   5.872  0.1495  0.1350  0.4892
 3545ntf    cn120225   4.692   2.814   5.902 -0.1237 -0.3722  0.1850
 3545ntf    fn420226   4.710   3.386   6.004  0.8443  0.1139  0.3415
 3545ntf    fn420227   4.823   3.199   6.016 -0.0659  0.0926 -0.3374
 3545ntf    fn420228   4.758   3.285   5.830 -0.4522 -0.0412 -0.3176
 3545ntf    on520229   4.544   3.146   6.099  0.2198  0.0264  0.0081
 3545ntf    on520230   4.471   3.263   5.899  0.8384  0.6951 -0.4770
 3545ntf    on520231   4.510   2.865   5.740 -0.0358 -0.1839  0.6517
 3545ntf    on520232   4.452   2.889   5.981 -0.0787 -0.1685  0.2359
 3545ntf    fn420233   4.786   2.825   5.809  0.0437 -0.7536  0.3057
 3545ntf    fn420234   4.756   2.849   6.012  0.0182 -0.5703  0.1675
 3545ntf    fn420235   4.661   2.685   5.909  0.1355 -0.4608 -0.2513
 3546ntf    cn120236   2.662   2.159   2.446 -0.0394 -0.2991  0.0635
 3546ntf    sn220237   2.725   2.241   2.296  0.0458 -0.0309  0.2462
 3546ntf    nn320238   2.835   2.336   2.356  0.2029 -0.3533  0.4739
 3546ntf    sn220239   2.819   2.474   2.428 -0.1854 -0.1983  0.0948
 3546ntf    cn120240   2.833   2.583   2.283  0.6515 -0.0706  0.2688
 3546ntf    fn420241   2.652   2.248   2.543 -0.4146 -0.2735  0.0045
 3546ntf    fn420242   2.543   2.102   2.434  0.1667 -0.6761 -0.1867
 3546ntf    fn420243   2.732   2.061   2.500 -0.1592  0.0209  0.8113
 3546ntf    on520244   2.782   2.140   2.211  0.1625  0.5106 -0.3194
 3546ntf    on520245   2.605   2.301   2.244 -0.0324 -0.6120 -0.2490
 3546ntf    on520246   2.940   2.512   2.498 -0.5903 -0.0072  0.7068
 3546ntf    on520247   2.691   2.512   2.484 -0.2536 -0.2299 -0.0409
 3546ntf    fn420248   2.735   2.567   2.196  0.5536  0.4059  0.2881
 3546ntf    fn420249   2.820   2.708   2.324 -0.7501 -0.4194  0.9560
 3546ntf    fn420250   2.950   2.567   2.222  0.2768 -0.5086 -0.3423
 3547ntf    cn120251   1.354   5.808   5.154  0.2112  0.3872  0.3137
 3547ntf    sn220252   1.191   5.886   5.133 -0.0440 -0.2498 -0.0892
 3547ntf    nn320253   1.226   5.950   4.994 -0.2466 -0.1520 -0.0951
 3547ntf    sn220254   1.163   6.079   4.930 -0.1465 -0.1441 -0.1785
 3547ntf    cn120255   1.305   6.192   4.935 -0.1672 -0.1348  0.2274
 3547ntf    fn420256   1.366   5.748   5.271 -0.6505 -0.5897 -0.0774
 3547ntf    fn420257   1.385   5.710   5.071  0.3116  0.4251  0.3050
 3547ntf    fn420258   1.451   5.898   5.139  0.1180  0.4038 -0.2316
 3547ntf    on520259   1.090   5.783   5.126 -0.1248 -0.1795  0.0459
 3547ntf    on520260   1.185   5.980   5.242  0.7378  0.1257 -0.3594
 3547ntf    on520261   1.065   6.156   5.002  0.1294  0.4113 -0.3894
 3547ntf    on520262   1.144   6.073   4.787 -0.4097 -0.5544 -0.1282
 3547ntf    fn420263   1.420   6.134   4.902 -0.2245 -0.1995  0.1440
 3547ntf    fn420264   1.290   6.305   4.869 -0.7218 -0.3927 -0.0934
 3547ntf    fn420265   1.320   6.227   5.062  0.0012  0.3368  0.0808
 3548ntf    cn120266   5.405   0.185   2.236 -0.2790  0.4478 -0.0213
 3548ntf    sn220267   5.265   0.081   2.185 -0.0135  0.0959 -0.0335
 3548ntf    nn320268   5.326   0.006   2.062  0.0328  0.0479  0.0184
 3548ntf    sn220269   5.328   0.058   1.913 -0.3267  0.3403  0.1140
 3548ntf    cn120270   5.446  -0.048   1.824  0.1877  1.0820 -0.0964
 3548ntf    fn420271   5.415   0.284   2.149 -0.2133  0.6925  0.2621
 3548ntf    fn420272   5.407   0.237   2.358  0.0864 -0.1947  0.2489
 3548ntf    fn420273   5.520   0.121   2.229 -0.4315  0.2060 -0.3510
 3548ntf    on520274   5.236  -0.008   2.295 -0.4240  0.1513 -0.0962
 3548ntf    on520275   5.164   0.180   2.153 -0.3134 -0.5250 -1.0429
 3548ntf    on520276   5.397   0.184   1.897  0.4425  0.0161  0.7828
 3548ntf    on520277   5.200   0.023   1.856 -0.2945 -0.4935  0.5431
 3548ntf    fn420278   5.433  -0.062   1.693  0.2759 -0.0423  0.0058
 3548ntf    fn420279   5.573  -0.031   1.856  0.3855  0.0799 -0.3292
 3548ntf    fn420280   5.420  -0.167   1.875 -1.0908  0.7990 -1.3517
 3549ntf    cn120281   6.688   0.455   0.601 -0.1925 -0.0130  0.0235
 3549ntf    sn220282   6.642   0.400   0.434 -0.2545  0.5251 -0.1381
 3549ntf    nn320283   6.552   0.521   0.391 -0.0898  0.7804  0.2311
 3549ntf    sn220284   6.473   0.544   0.258 -0.0445  0.0869  0.0826
 3549ntf    cn120285   6.548   0.705   0.218  0.1330  0.1731  0.7462
 3549ntf    fn420286   6.776   0.373   0.656 -0.3407 -0.0017  0.2796
 3549ntf    fn420287   6.751   0.571   0.608 -0.4070  0.0876  0.3501
 3549ntf    fn420288   6.587   0.468   0.686 -0.0969  0.3839  0.0796
 3549ntf    on520289   6.763   0.395   0.355 -0.2852 -0.1917 -0.1447
 3549ntf    on520290   6.579   0.273   0.457  0.3328  0.2366 -0.1053
 3549ntf    on520291   6.334   0.571   0.287 -0.2435 -0.7024 -0.1127
 3549ntf    on520292   6.514   0.469   0.141  0.2008  0.3579 -0.0071
 3549ntf    fn420293   6.483   0.790   0.140 -0.3181 -0.7771  0.0508
 3549ntf    fn420294   6.565   0.777   0.327 -0.2305  0.4790  0.5989
 3549ntf    fn420295   6.671   0.695   0.168  0.0865  0.3148  0.6009
 3550ntf    cn120296   3.595   4.478   6.647 -0.2861  0.1503  0.2902
 3550ntf    sn220297   3.697   4.512   6.793  0.0763  0.1806  0.0309
 3550ntf    nn320298   3.719   4.367   6.850 -0.0737 -0.1498 -0.7359
 3550ntf    sn220299   3.833   4.270   6.803  0.2988 -0.0457 -0.0638
 3550ntf    cn120300   3.742   4.112   6.799 -0.2725  0.2706  0.2873
 3550ntf    fn420301   3.496   4.390   6.654 -0.0594 -0.1541 -0.2207
 3550ntf    fn420302   3.540   4.589   6.600 -0.6310 -0.1966 -0.1399
 3550ntf    fn420303   3.674   4.431   6.552 -0.2266 -0.3895  0.6015
 3550ntf    on520304   3.817   4.576   6.744  0.3455 -0.0103  0.4381
 3550ntf    on520305   3.597   4.582   6.870 -0.4922 -0.6450  0.0478
 3550ntf    on520306   3.931   4.245   6.906 -0.5907 -0.1871  0.7650
 3550ntf    on520307   3.881   4.271   6.667  0.3413  0.2621 -0.0480
 3550ntf    fn420308   3.723   4.067   6.922 -0.0144 -0.2567  0.1349
 3550ntf    fn420309   3.622   4.111   6.743 -0.3124  0.4516  0.3682
 3550ntf    fn420310   3.816   4.025   6.733 -0.6413  0.0976  0.1010
 3551ntf    cn120311   2.576   2.452   5.245  0.5153 -0.2925  0.0001
 3551ntf    sn220312   2.569   2.305   5.352 -0.1858 -0.0311  0.3189
 3551ntf    nn320313   2.444   2.231   5.292 -0.5885  0.7189  0.2167
 3551ntf    sn220314   2.295   2.235   5.340 -0.5830 -0.1469  0.3196
 3551ntf    cn120315   2.299   2.087   5.446 -0.5617 -0.2932  0.1146
 3551ntf    fn420316   2.642   2.429   5.133 -0.2639 -0.2833 -0.4671
 3551ntf    fn420317   2.454   2.491   5.211  0.4305 -0.3849  0.1995
 3551ntf    fn420318   2.633   2.557   5.303  0.3014 -0.0571 -0.2102
 3551ntf    on520319   2.685   2.224   5.324  0.1380  0.2892  0.7211
 3551ntf    on520320   2.563   2.373   5.479 -0.1441  0.0581  0.2733
 3551ntf    on520321   2.195   2.211   5.239 -0.0089 -0.2070 -0.2369
 3551ntf    on520322   2.265   2.339   5.436 -0.1081 -0.0563  0.3697
 3551ntf    fn420323   2.329   1.974   5.383 -0.3152 -0.2688  0.1871
 3551ntf    fn420324   2.383   2.095   5.548 -0.3241  0.4175 -0.1349
 3551ntf    fn420325   2.186   2.052   5.505 -0.3030 -0.5659  0.4501
 3552ntf    cn120326   2.852   3.696   4.533  0.1971  0.0709  0.4461
 3552ntf    sn220327   2.715   3.608   4.450  0.2389  0.1641  0.2779
 3552ntf    nn320328   2.641   3.734   4.392  0.1280 -0.1633 -0.2904
 3552ntf    sn220329   2.488   3.764   4.404  0.1292 -0.3359  0.1750
 3552ntf    cn120330   2.411   3.613   4.337 -0.4724 -0.0899  0.2999
 3552ntf    fn420331   2.942   3.754   4.455  0.2010  0.3360  0.6498
 3552ntf    fn420332   2.799   3.784   4.616 -0.3319  0.0197  0.1682
 3552ntf    fn420333   2.925   3.621   4.613  0.5938 -0.6284 -0.5496
 3552ntf    on520334   2.780   3.532   4.346 -0.7484 -0.0970 -0.1589
 3552ntf    on520335   2.658   3.533   4.559 -0.5623  0.3284 -0.0279
 3552ntf    on520336   2.455   3.870   4.312 -0.2255 -0.3627  0.2675
 3552ntf    on520337   2.430   3.770   4.536 -0.1785  0.0746  0.0260
 3552ntf    fn420338   2.424   3.502   4.408  0.2288 -0.2355 -0.0438
 3552ntf    fn420339   2.281   3.632   4.326 -0.4304  0.1466  0.2019
 3552ntf    fn420340   2.462   3.574   4.222  0.3509  0.1553  0.5707
 3553ntf    cn120341   1.132   4.506   6.152  0.3587 -0.1353 -0.0526
 3553ntf    sn220342   1.275   4.617   6.130  0.0429  0.2500 -0.1750
 3553ntf    nn320343   1.395   4.516   6.131  0.1674  0.3939 -0.4291
 3553ntf    sn220344   1.529   4.517   6.213 -0.0557 -0.1945 -0.0494
 3553ntf    cn120345   1.652   4.467   6.088 -0.1498  0.2025 -0.3032
 3553ntf    fn420346   1.020   4.570   6.125  0.4533  0.1446  0.2161
 3553ntf    fn420347   1.139   4.395   6.079 -0.1335 -0.0411 -0.2495
 3553ntf    fn420348   1.127   4.469   6.278 -0.4217 -0.2368 -0.1073
 3553ntf    on520349   1.257   4.671   5.998 -0.5376 -0.2669 -0.3155
 3553ntf    on520350   1.262   4.700   6.247 -0.5031  0.3351 -0.2928
 3553ntf    on520351   1.539   4.406   6.304  0.4919 -0.3099 -0.2479
 3553ntf    on520352   1.586   4.640   6.263 -0.2691  0.0562 -0.4152
 3553ntf    fn420353   1.769   4.515   6.127 -0.2511  0.1017  0.1347
 3553ntf    fn420354   1.672   4.336   6.078 -0.4283  0.1274  0.0932
 3553ntf    fn420355   1.619   4.523   5.973 -0.5399  0.4305 -0.0824
 3554ntf    cn120356   2.790   6.686   3.580  0.1712 -0.1481 -0.5096
 3554ntf    sn220357   2.842   6.513   3.564 -0.1120 -0.3020  0.1713
 3554ntf    nn320358   2.913   6.507   3.704 -0.1011 -0.2232  0.1695
 3554ntf    sn220359   2.877   6.431   3.837 -0.1193  0.0746  0.3340
 3554ntf    cn120360   2.965   6.276   3.800 -0.1963  0.1814 -0.3070
 3554ntf    fn420361   2.888   6.774   3.568  0.0418  0.1898  0.7392
 3554ntf    fn420362   2.695   6.730   3.500 -0.2624 -0.3851 -0.1320
 3554ntf    fn420363   2.741   6.704   3.702 -0.3118 -0.3222 -0.6745
 3554ntf    on520364   2.716   6.445   3.549  0.0352 -0.5371 -0.0142
 3554ntf    on520365   2.937   6.512   3.455 -0.3637 -0.2906 -0.0499
 3554ntf    on520366   2.741   6.395   3.869 -0.1991  0.1118  0.0448
 3554ntf    on520367   2.969   6.486   3.934  0.4738 -0.3760  0.0340
 3554ntf    fn420368   3.087   6.299   3.754  0.1145  0.0593  0.4487
 3554ntf    fn420369   2.984   6.199   3.905 -0.2129  0.2786 -0.2316
 3554ntf    fn420370   2.903   6.216   3.700 -0.5761  0.2338 -0.1065
 3555ntf    cn120371   5.014   5.932   3.929  0.3447  0.3411 -0.4710
 3555ntf    sn220372   5.176   5.992   3.986  0.2363  0.0951  0.1023
 3555ntf    nn320373   5.115   6.036   4.124  0.4353  0.3804  0.1004
 3555ntf    sn220374   5.173   5.991   4.263 -0.4003 -0.2308  0.2596
 3555ntf    cn120375   5.105   5.824   4.285 -0.0996 -0.3450  0.3231
 3555ntf    fn420376   5.019   5.836   3.838 -0.1704 -0.0638 -0.0784
 3555ntf    fn420377   4.957   5.871   4.032  0.6427 -0.0189 -0.5152
 3555ntf    fn420378   4.935   6.028   3.885  0.1626  0.3120 -0.2084
 3555ntf    on520379   5.261   5.876   3.975  0.3952  0.2314 -0.1084
 3555ntf    on520380   5.201   6.100   3.893 -0.7567  0.0098 -0.2799
 3555ntf    on520381   5.099   6.060   4.365 -0.3580 -0.1884  0.2616
 3555ntf    on520382   5.316   5.974   4.267 -0.2771  0.8257  0.7067
 3555ntf    fn420383   5.180   5.763   4.376 -0.1976 -0.1777  0.5165
 3555ntf    fn420384   4.981   5.811   4.330 -0.2171 -0.5587 -0.0655
 3555ntf    fn420385   5.111   5.751   4.175 -0.2591 -0.4092  0.3578
 3556ntf    cn120386   1.513   7.246   4.589  0.1440  0.3897  0.0117
 3556ntf    sn220387   1.599   7.324   4.729  0.2972 -0.2260  0.2651
 3556ntf    nn320388   1.496   7.439   4.762  0.4292 -0.0440  0.0443
 3556ntf    sn220389   1.516   7.593   4.742  0.0581  0.0094  0.0900
 3556ntf    cn120390   1.423   7.651   4.887 -0.3254  0.1876 -0.2233
 3556ntf    fn420391   1.484   7.334   4.495  0.3369  0.2169 -0.2116
 3556ntf    fn420392   1.591   7.160   4.526 -0.3092 -0.0027 -0.0169
 3556ntf    fn420393   1.407   7.176   4.626  0.5272 -0.0884  0.2219
 3556ntf    on520394   1.595   7.223   4.832  0.5721 -0.1660  0.3360
 3556ntf    on520395   1.728   7.354   4.672 -0.0284  0.1953 -0.2583
 3556ntf    on520396   1.439   7.634   4.627  0.1139 -0.1194  0.0065
 3556ntf    on520397   1.652   7.635   4.762  0.2560 -0.4678 -0.2310
 3556ntf    fn420398   1.296   7.618   4.892 -0.4894  0.8208 -0.0526
 3556ntf    fn420399   1.473   7.607   5.001 -0.3408  0.1245 -0.2406
 3556ntf    fn420400   1.418   7.783   4.891 -0.2131  0.1701  0.8120
 3557ntf    cn120401   4.702   5.213   5.273  0.3990 -0.0343 -0.3564
 3557ntf    sn220402   4.641   5.205   5.444  0.0916  0.2758 -0.4516
 3557ntf    nn320403   4.655   5.358   5.474 -0.4429  0.1897  0.2639
 3557ntf    sn220404   4.546   5.445   5.546 -0.5437  0.2745  0.0089
 3557ntf    cn120405   4.654   5.527   5.668 -0.0453 -0.0345 -0.2223
 3557ntf    fn420406   4.623   5.275   5.187  0.0751  0.1095  0.0411
 3557ntf    fn420407   4.821   5.271   5.267  0.3523  0.0272 -0.7208
 3557ntf    fn420408   4.705   5.090   5.224  1.1791 -0.6170  1.0678
 3557ntf    on520409   4.512   5.143   5.427  0.3700 -0.4159 -0.0996
 3557ntf    on520410   4.750   5.136   5.508 -0.4402 -0.1054  0.0555
 3557ntf    on520411   4.448   5.387   5.634 -0.3780  0.4700  0.3250
 3557ntf    on520412   4.501   5.548   5.455 -0.2588  0.3829 -0.0130
 3557ntf    fn420413   4.748   5.606   5.619 -0.2622  0.5110  0.2373
 3557ntf    fn420414   4.578   5.603   5.745 -0.3773 -0.2113 -0.3740
 3557ntf    fn420415   4.729   5.444   5.738  0.1271 -0.1725 -0.5702
 3558ntf    cn120416   5.736   1.819   6.362 -0.3745 -0.0850  0.4147
 3558ntf    sn220417   5.612   1.950   6.342 -0.1823  0.0235 -0.0750
 3558ntf    nn320418   5.706   2.068   6.300  0.2238 -0.2374  0.0948
 3558ntf    sn220419   5.745   2.122   6.157 -0.1405 -0.2273 -0.0012
 3558ntf    cn120420   5.740   2.302   6.179 -0.1964 -0.2497  0.1745
 3558ntf    fn420421   5.818   1.848   6.462 -0.0411 -0.4329  0.2450
 3558ntf    fn420422   5.688   1.697   6.384  0.5723 -0.5470 -0.0176
 3558ntf    fn420423   5.805   1.817   6.250 -0.0536 -0.5923  0.6145
 3558ntf    on520424   5.521   1.897   6.243  0.3097  0.0487 -0.5442
 3558ntf    on520425   5.571   1.961   6.480  1.0739  0.2256  0.2973
 3558ntf    on520426   5.654   2.100   6.047  0.3619 -0.1698 -0.4331
 3558ntf    on520427   5.882   2.099   6.119 -0.1924 -0.6036  0.0362
 3558ntf    fn420428   5.617   2.352   6.177  0.0125  0.2772  0.3225
 3558ntf    fn420429   5.793   2.348   6.290 -0.0549 -0.8840  0.3706
 3558ntf    fn420430   5.805   2.369   6.086 -0.0717 -0.3559  0.1858
 3559ntf    cn120431   0.854   4.976   4.804  0.3137 -0.3215  0.5442
 3559ntf    sn220432   0.983   5.045   4.695 -0.2237  0.1994  0.2306
 3559ntf    nn320433   0.918   5.044   4.553  0.5258  0.2064 -0.1145
 3559ntf    sn220434   0.860   5.164   4.470  0.2160  0.0595 -0.1131
 3559ntf    cn120435   0.989   5.221   4.354  0.6285 -0.0604  0.2814
 3559ntf    fn420436   0.896   4.937   4.923 -0.3661 -0.1286  0.8510
 3559ntf    fn420437   0.755   5.064   4.814  1.0039  0.5159  0.2041
 3559ntf    fn420438   0.791   4.873   4.751 -0.2668  0.2468  0.1004
 3559ntf    on520439   1.014   5.172   4.757  0.1095  0.3330 -0.2091
 3559ntf    on520440   1.091   4.952   4.716 -0.0029  0.5065  0.4714
 3559ntf    on520441   0.821   5.290   4.529  0.9021  0.0474  0.3849
 3559ntf    on520442   0.757   5.120   4.380 -0.0746  0.1492  0.1745
 3559ntf    fn420443   1.097   5.249   4.425  0.4908 -0.3402  0.6026
 3559ntf    fn420444   1.023   5.135   4.261  0.5534 -0.1383  0.3258
 3559ntf    fn420445   0.937   5.324   4.288 -0.1536 -0.3140  0.4944
 3560ntf    cn120446   3.828   7.033   5.572  0.2174 -0.1120  0.1947
 3560ntf    sn220447   3.926   6.917   5.672  0.3239  0.2152  0.4757
 3560ntf    nn320448   4.050   7.007   5.706  0.1779  0.4424  0.4140
 3560ntf    sn220449   4.187   6.948   5.756 -0.1159 -0.6371 -0.0087
 3560ntf    cn120450   4.132   6.828   5.881  0.5501 -0.4943  0.4280
 3560ntf    fn420451   3.904   7.083   5.477  0.1242  0.2781  0.3222
 3560ntf    fn420452   3.729   6.969   5.512  0.1965  0.2921 -0.2077
 3560ntf    fn420453   3.780   7.125   5.655 -0.0221  0.3579 -0.4527
 3560ntf    on520454   3.847   6.881   5.787 -0.0798 -0.8182 -0.1097
 3560ntf    on520455   3.957   6.810   5.580 -1.4709  0.1386 -0.0776
 3560ntf    on520456   4.265   7.037   5.839  0.0319 -0.0895 -0.7279
 3560ntf    on520457   4.266   6.861   5.672 -0.3094 -0.5232 -0.3083
 3560ntf    fn420458   4.233   6.779   5.952  0.7897 -0.4016  0.1551
 3560ntf    fn420459   4.044   6.883   5.963  0.8251 -0.1190  0.4744
 3560ntf    fn420460   4.062   6.728   5.831  0.3994 -0.0010 -0.3745
 3561ntf    cn120461   5.934   6.351   6.734  0.1678 -0.0866 -0.0492
 3561ntf    sn220462   5.756   6.384   6.727  0.1729 -0.1047 -0.2611
 3561ntf    nn320463   5.704   6.344   6.869 -0.6810  0.3189 -0.4432
 3561ntf    sn220464   5.637   6.210   6.916 -0.2277  0.1791 -0.1913
 3561ntf    cn120465   5.461   6.250   6.895 -0.1712  0.3024 -0.4386
 3561ntf    fn420466   5.977   6.240   6.676  0.4478  0.3947 -0.7841
 3561ntf    fn420467   5.993   6.447   6.665 -0.3925  0.2779 -0.0260
 3561ntf    fn420468   5.961   6.353   6.863  0.0906 -0.2484 -0.0311
 3561ntf    on520469   5.748   6.526   6.701 -0.3093 -0.0836 -0.0186
 3561ntf    on520470   5.703   6.304   6.619  0.2080 -1.0920  0.4395
 3561ntf    on520471   5.643   6.187   7.058 -0.4944 -0.1673 -0.2356
 3561ntf    on520472   5.663   6.093   6.835 -0.0744 -0.2828  0.5172
 3561ntf    fn420473   5.383   6.147   6.922  0.4110  0.1287  0.6734
 3561ntf    fn420474   5.414   6.338   6.981  0.3745 -0.0934  0.2828
 3561ntf    fn420475   5.432   6.308   6.780 -0.2405  1.0505 -0.0481
 3562ntf    cn120476   0.773   0.279   1.512 -0.1270  0.4196 -0.2435
 3562ntf    sn220477   0.837   0.396   1.389  0.2366  0.3771 -0.0938
 3562ntf    nn320478   0.712   0.487   1.362 -0.2325 -0.0371  0.6252
 3562ntf    sn220479   0.609   0.458   1.247 -0.1465 -0.2050  0.5893
 3562ntf    cn120480   0.698   0.553   1.120 -0.0817 -0.5179  0.4002
 3562ntf    fn420481   0.866   0.193   1.551 -0.3474  0.1997 -0.1952
 3562ntf    fn420482   0.736   0.338   1.625  0.1500  0.0372  0.0490
 3562ntf    fn420483   0.666   0.212   1.472  0.0361  0.3266 -0.5210
 3562ntf    on520484   0.941   0.473   1.452  0.6913  0.3229 -0.7664
 3562ntf    on520485   0.880   0.305   1.286  0.0810  0.1303  0.0573
 3562ntf    on520486   0.489   0.538   1.252  0.1648  0.3363 -0.3664
 3562ntf    on520487   0.584   0.323   1.204 -0.1079  0.0997 -0.4251
 3562ntf    fn420488   0.702   0.681   1.153 -0.3982 -0.5283  0.4819
 3562ntf    fn420489   0.823   0.515   1.100  0.2366  0.8518 -0.2923
 3562ntf    fn420490   0.635   0.548   1.004  0.2559  0.0327  0.1897
 3563ntf    cn120491   6.609   2.954   2.025 -0.2350 -0.7887 -0.5868
 3563ntf    sn220492   6.518   2.859   2.151  0.0450  0.0019  0.2163
 3563ntf    nn320493   6.540   2.711   2.104  0.1275  0.0339  0.1515
 3563ntf    sn220494   6.487   2.626   1.983 -0.0411 -0.0905  0.3116
 3563ntf    cn120495   6.623   2.592   1.867 -0.1008  0.2985  0.1251
 3563ntf    fn420496   6.563   2.947   1.901 -0.5847 -0.2769 -0.4862
 3563ntf    fn420497   6.614   3.080   2.065 -0.4374 -0.7993 -0.5301
 3563ntf    fn420498   6.734   2.908   2.025 -0.1353 -0.5143 -0.3206
 3563ntf    on520499   6.586   2.887   2.275 -0.0428 -0.0450  0.2744
 3563ntf    on520500   6.380   2.899   2.140 -0.0839 -0.3082  0.6840
 3563ntf    on520501   6.397   2.699   1.897  0.0332 -0.0343  0.2813
 3563ntf    on520502   6.443   2.498   2.034 -0.1353 -0.1709  0.0284
 3563ntf    fn420503   6.686   2.705   1.843  0.4333 -0.0699 -0.2029
 3563ntf    fn420504   6.719   2.521   1.923 -0.4437 -0.1448  0.1595
 3563ntf    fn420505   6.592   2.528   1.756  0.8707 -0.3993  0.2484
 3564ntf    cn120506   1.999   2.248   2.052  0.0700 -0.1957  0.0419
 3564ntf    sn220507   2.082   2.361   1.937 -0.0129 -0.1263  0.0500
 3564ntf    nn320508   2.191   2.271   1.869 -0.1237 -0.4552  0.3060
 3564ntf    sn220509   2.347   2.280   1.883 -0.1165 -0.1452  0.0562
 3564ntf    cn120510   2.376   2.358   1.722 -0.0717 -0.4166 -0.0691
 3564ntf    fn420511   1.941   2.327   2.141  0.0862  0.0325 -0.1495
 3564ntf    fn420512   1.907   2.174   1.993 -0.0807  0.1088 -0.1039
 3564ntf    fn420513   2.081   2.169   2.120  0.0637  0.1131  0.4147
 3564ntf    on520514   1.975   2.406   1.851 -0.0793  0.2145  0.3139
 3564ntf    on520515   2.135   2.460   2.026 -0.2476  0.8826 -0.9027
 3564ntf    on520516   2.415   2.153   1.875  1.2247  0.5807 -0.3466
 3564ntf    on520517   2.401   2.377   1.975  0.4417 -0.4035  0.0081
 3564ntf    fn420518   2.503   2.361   1.684 -0.0020 -0.7746  0.1364
 3564ntf    fn420519   2.305   2.300   1.627 -0.0739  0.1331 -0.4091
 3564ntf    fn420520   2.344   2.487   1.719 -0.1328 -0.4408 -0.5418
 3565ntf    cn120521   1.206   2.268   1.905 -0.5999  0.1025 -0.2934
 3565ntf    sn220522   1.105   2.202   1.769  0.0399 -0.3855 -0.5372
 3565ntf    nn320523   1.128   2.307   1.655  0.0197  0.2922  0.0779
 3565ntf    sn220524   1.203   2.297   1.517 -0.3028 -0.1164 -0.0707
 3565ntf    cn120525   1.060   2.294   1.405 -0.0787  0.1693 -0.3664
 3565ntf    fn420526   1.329   2.297   1.865 -0.2852  0.0971  0.6525
 3565ntf    fn420527   1.150   2.383   1.939  0.4342  0.3914  0.4691
 3565ntf    fn420528   1.211   2.188   2.010 -0.4226  0.5046  0.0084
 3565ntf    on520529   1.156   2.068   1.755  0.1090 -0.4260  0.0871
 3565ntf    on520530   0.971   2.213   1.822  0.0591 -0.0676 -0.5579
 3565ntf    on520531   1.279   2.179   1.487  0.2529  0.3351 -0.4598
 3565ntf    on520532   1.275   2.419   1.490  0.1733 -0.3464  0.1589
 3565ntf    fn420533   1.094   2.311   1.278  0.2216  0.6770 -0.2184
 3565ntf    fn420534   0.988   2.184   1.423 -0.0912  0.2429  0.0422
 3565ntf    fn420535   0.990   2.402   1.434  0.2370  0.3702 -0.3493
 3566ntf    cn120536   2.091   2.474   7.178  0.1110 -0.4963 -0.4470
 3566ntf    sn220537   1.964   2.526   7.297  0.4990  0.1251 -0.2996
 3566ntf    nn320538   1.949   2.397   7.384 -0.1807 -0.0332 -0.6400
 3566ntf    sn220539   1.821   2.309   7.408 -0.0106  0.0337  0.5895
 3566ntf    cn120540   1.710   2.412   7.509  0.2341  0.5118  0.3748
 3566ntf    fn420541   2.199   2.417   7.228 -0.1826 -1.0481 -0.4278
 3566ntf    fn420542   2.051   2.385   7.089  0.2299 -0.1423 -0.8605
 3566ntf    fn420543   2.126   2.575   7.100 -0.0393  0.0203  0.1539
 3566ntf    on520544   2.029   2.643   7.349 -0.3626  0.3429  0.3070
 3566ntf    on520545   1.848   2.560   7.217 -0.0686 -0.0183  0.4520
 3566ntf    on520546   1.838   2.193   7.492 -0.1606 -0.3636  0.0694
 3566ntf    on520547   1.736   2.288   7.294  0.3910  0.1980  0.2572
 3566ntf    fn420548   1.771   2.485   7.601  0.1123  0.4743  0.4857
 3566ntf    fn420549   1.646   2.508   7.445 -0.2214  0.2383  0.4176
 3566ntf    fn420550   1.614   2.343   7.568 -0.1477  0.3464 -0.4290
 3567ntf    cn120551   5.016   3.711   1.752  0.2629 -0.3113 -0.0319
 3567ntf    sn220552   5.012   3.817   1.605  0.1278  0.2083  0.3447
 3567ntf    nn320553   4.954   3.710   1.506  0.2650  0.5138 -0.0689
 3567ntf    sn220554   4.818   3.694   1.430  0.3088 -0.1415 -0.0141
 3567ntf    cn120555   4.745   3.535   1.479  0.1656 -0.0962 -0.0796
 3567ntf    fn420556   5.093   3.607   1.726  0.8083  0.1180 -0.1466
 3567ntf    fn420557   5.069   3.780   1.851 -0.2352  0.1134 -0.0600
 3567ntf    fn420558   4.892   3.675   1.783  0.3272 -0.0991  0.4864
 3567ntf    on520559   4.918   3.920   1.642 -0.1730 -0.1292  0.5266
 3567ntf    on520560   5.148   3.859   1.581  0.0718  0.2007 -0.0008
 3567ntf    on520561   4.843   3.667   1.291 -0.3151 -0.5780 -0.0471
 3567ntf    on520562   4.718   3.796   1.453  0.4092  0.0555 -0.4431
 3567ntf    fn420563   4.616   3.520   1.451  0.1091 -0.0055  0.1295
 3567ntf    fn420564   4.807   3.431   1.426  0.2102 -0.0356 -0.1474
 3567ntf    fn420565   4.755   3.515   1.609  0.4083 -0.2384 -0.1192
 3568ntf    cn120566   6.185   4.788   4.556 -0.3252  0.1172 -0.4525
 3568ntf    sn220567   6.134   4.962   4.576  0.0127  0.2027 -0.3217
 3568ntf    nn320568   6.277   5.019   4.607  0.2663 -0.1762 -0.7790
 3568ntf    sn220569   6.312   5.172   4.605  0.1382 -0.1335  0.1494
 3568ntf    cn120570   6.373   5.189   4.435  0.3307 -0.1143  0.2192
 3568ntf    fn420571   6.244   4.781   4.437  1.0647 -0.1869  0.2409
 3568ntf    fn420572   6.282   4.758   4.640  0.3468  0.6229 -1.0332
 3568ntf    fn420573   6.083   4.704   4.562  0.3736 -0.6787  0.4661
 3568ntf    on520574   6.074   5.000   4.450 -0.2833  0.0175 -0.2376
 3568ntf    on520575   6.043   4.954   4.688 -0.0927 -0.2499 -0.4359
 3568ntf    on520576   6.432   5.213   4.674  0.6893  0.3415 -1.0726
 3568ntf    on520577   6.194   5.255   4.614  0.2437  0.0739 -0.3574
 3568ntf    fn420578   6.398   5.314   4.400 -0.5047 -0.0066 -0.0344
 3568ntf    fn420579   6.487   5.126   4.414  0.3639 -0.0001  0.0511
 3568ntf    fn420580   6.284   5.141   4.349 -0.6803  0.4264  0.9401
 3569ntf    cn120581   4.787   2.164   1.452  0.1225 -0.0430 -0.5903
 3569ntf    sn220582   4.703   2.324   1.474  0.1640 -0.0908 -0.0605
 3569ntf    nn320583   4.671   2.332   1.627 -0.0869 -0.0254 -0.1154
 3569ntf    sn220584   4.538   2.354   1.708  0.1234  0.2777  0.1486
 3569ntf    cn120585   4.521   2.535   1.707 -0.0188  0.2626 -0.1132
 3569ntf    fn420586   4.867   2.162   1.347  0.4596 -0.1682 -0.3329
 3569ntf    fn420587   4.881   2.148   1.545 -0.5059  0.7861  0.2069
 3569ntf    fn420588   4.702   2.064   1.459  0.4520 -0.2871 -0.0089
 3569ntf    on520589   4.809   2.412   1.434  0.1239  0.1042  0.2540
 3569ntf    on520590   4.586   2.302   1.392  0.4452  0.3819 -0.5904
 3569ntf    on520591   4.549   2.332   1.850  0.6705 -0.0429  0.0593
 3569ntf    on520592   4.417   2.302   1.651  0.5061  0.3033 -0.6975
 3569ntf    fn420593   4.406   2.570   1.762 -0.0414  0.2206 -0.1325
 3569ntf    fn420594   4.618   2.593   1.775  0.2255 -0.2348 -0.0380
 3569ntf    fn420595   4.532   2.586   1.585 -0.0098 -0.6063 -0.4790
 3570ntf    cn120596   4.908   6.127   3.586 -0.2178  0.0848  0.2273
 3570ntf    sn220597   4.908   6.179   3.412 -0.2563  0.0721  0.2231
 3570ntf    nn320598   4.952   6.327   3.438 -0.2893  0.1801 -0.3100
 3570ntf    sn220599   4.948   6.457   3.350  0.2557  0.2200 -0.2814
 3570ntf    cn120600   5.015   6.397   3.192  0.2826 -0.2817 -0.0806
 3570ntf    fn420601   5.024   6.142   3.649 -0.6076  0.4357  0.8657
 3570ntf    fn420602   4.809   6.189   3.647 -0.6427 -0.0621 -0.3036
 3570ntf    fn420603   4.881   5.998   3.585  1.0776 -0.2017  0.2371
 3570ntf    on520604   5.002   6.100   3.336  0.1803  0.5011  0.3133
 3570ntf    on520605   4.770   6.163   3.374  0.0628 -0.3393 -0.8008
 3570ntf    on520606   5.045   6.553   3.395  0.5346  0.0239 -0.4655
 3570ntf    on520607   4.817   6.507   3.315  0.2258  0.2457 -0.1358
 3570ntf    fn420608   4.926   6.325   3.125  0.4411 -0.4694 -0.0908
 3570ntf    fn420609   5.037   6.497   3.109 -0.2788  0.0808  0.2007
 3570ntf    fn420610   5.123   6.323   3.210  0.2245 -0.5147 -0.6669
 3571ntf    cn120611   7.078   7.242   6.520  0.4028  0.3437  0.0506
 3571ntf    sn220612   7.118   7.419   6.510  0.2524  0.3751 -0.0022
 3571ntf    nn320613   7.118   7.449   6.664  0.3555 -0.9168  0.2582
 3571ntf    sn220614   7.191   7.566   6.740 -0.0884 -0.3899 -0.1219
 3571ntf    cn120615   7.366   7.516   6.737  0.2330  0.7003  0.2537
 3571ntf    fn420616   7.174   7.170   6.574  0.3303 -0.1400 -0.4566
 3571ntf    fn420617   6.966   7.208   6.582 -0.0451 -0.4483 -1.1730
 3571ntf    fn420618   7.074   7.185   6.401  0.0120  0.0658  0.1924
 3571ntf    on520619   7.247   7.416   6.445  0.0820 -0.0086 -0.3292
 3571ntf    on520620   7.012   7.479   6.432  0.2669  0.4683  0.0505
 3571ntf    on520621   7.163   7.571   6.881  0.3742 -0.2280 -0.0361
 3571ntf    on520622   7.192   7.690   6.667 -0.1058 -0.3058  0.0225
 3571ntf    fn420623   7.420   7.533   6.617 -0.0671  0.7591  0.1235
 3571ntf    fn420624   7.436   7.599   6.812  0.1570  0.7901  0.2271
 3571ntf    fn420625   7.393   7.395   6.783  0.3344  0.4680 -0.4053
 3572ntf    cn120626   6.347   4.276   0.896  0.0889  0.1598  0.4022
 3572ntf    sn220627   6.168   4.255   0.877  0.0997  0.4565 -0.0396
 3572ntf    nn320628   6.160   4.108   0.823 -0.3539  0.7385 -0.7671
 3572ntf    sn220629   6.073   4.042   0.710 -0.5219 -0.1893 -0.1106
 3572ntf    cn120630   6.178   3.898   0.671  0.1168  0.2121  0.1012
 3572ntf    fn420631   6.374   4.379   0.975 -0.8040  0.4167  0.3860
 3572ntf    fn420632   6.397   4.167   0.953 -0.1724 -0.0907  0.1520
 3572ntf    fn420633   6.418   4.305   0.788 -0.2489 -0.4162  0.0156
 3572ntf    on520634   6.111   4.258   1.009  0.2230  0.3242  0.0165
 3572ntf    on520635   6.131   4.361   0.787 -0.5726  0.2705  0.0094
 3572ntf    on520636   6.072   4.125   0.592 -0.5710  0.4029  0.2999
 3572ntf    on520637   5.947   3.991   0.757 -0.5107 -0.2732 -0.1728
 3572ntf    fn420638   6.226   3.843   0.781 -0.0986 -0.2097 -0.0116
 3572ntf    fn420639   6.120   3.795   0.611  0.0380  0.1195  0.3341
 3572ntf    fn420640   6.280   3.935   0.595 -0.0588  0.3810 -0.0557
 3573ntf    cn120641   2.825   1.859   5.057 -0.0437  0.3758  0.1126
 3573ntf    sn220642   2.971   1.920   4.969  0.0071  0.0189 -0.0542
 3573ntf    nn320643   3.017   1.794   4.888  0.4557  0.1505 -0.0109
 3573ntf    sn220644   3.035   1.767   4.734 -0.1146  0.1763 -0.0871
 3573ntf    cn120645   2.893   1.660   4.695 -0.1019  0.1415 -0.0389
 3573ntf    fn420646   2.847   1.761   5.144  0.1311  0.3212  0.0065
 3573ntf    fn420647   2.766   1.958   5.121  0.0501  0.8975 -0.6053
 3573ntf    fn420648   2.741   1.814   4.966  0.2898 -0.6002  0.2703
 3573ntf    on520649   2.924   2.032   4.891  0.7871  0.3276 -0.0880
 3573ntf    on520650   3.066   1.958   5.071 -0.4429  0.1708  0.3116
 3573ntf    on520651   3.150   1.683   4.706 -0.0352  0.1516  0.3043
 3573ntf    on520652   3.021   1.878   4.644  0.0591  0.2316 -0.0469
 3573ntf    fn420653   2.894   1.614   4.571 -0.5851 -0.3329  0.1285
 3573ntf    fn420654   2.869   1.550   4.763 -0.4716  0.1310 -0.1838
 3573ntf    fn420655   2.786   1.738   4.704 -0.6215 -0.5312 -0.3358
 3574ntf    cn120656   2.545   2.548   4.842 -0.1974  0.0224  0.4890
 3574ntf    sn220657   2.722   2.580   4.818 -0.2682  0.0636  0.0067
 3574ntf    nn320658   2.723   2.581   4.661  0.0673  0.1647  0.0088
 3574ntf    sn220659   2.764   2.707   4.577  0.3028  0.0873  0.0058
 3574ntf    cn120660   2.918   2.640   4.508  0.2883  0.1977 -0.1338
 3574ntf    fn420661   2.478   2.639   4.773  0.2218 -0.1897 -0.2109
 3574ntf    fn420662   2.504   2.430   4.797  0.2240  0.0178  0.1113
 3574ntf    fn420663   2.501   2.562   4.966 -0.3535  0.4743  0.3854
 3574ntf    on520664   2.739   2.706   4.887 -0.1061  0.2246 -0.3248
 3574ntf    on520665   2.793   2.469   4.876  0.3912  0.5124  0.0685
 3574ntf    on520666   2.799   2.831   4.642  0.5652 -0.0306  0.0904
 3574ntf    on520667   2.675   2.719   4.464  0.2858 -0.5050 -0.0477
 3574ntf    fn420668   2.894   2.512   4.486 -0.3036  0.2624  0.1285
 3574ntf    fn420669   2.952   2.706   4.398  0.1093  0.2342 -0.1669
 3574ntf    fn420670   3.015   2.650   4.598  0.0339 -0.1813  0.1841
 3575ntf    cn120671   6.821   1.705   4.500 -0.1944 -0.2155  0.3804
 3575ntf    sn220672   6.973   1.729   4.403 -0.2259 -0.0501  0.3730
 3575ntf    nn320673   7.046   1.606   4.469  0.2154 -0.0777 -0.1598
 3575ntf    sn220674   7.157   1.595   4.579  0.1001 -0.1277 -0.0474
 3575ntf    cn120675   7.296   1.571   4.464  0.0892 -0.6765  0.0545
 3575ntf    fn420676   6.848   1.739   4.625  0.0622  0.1485  0.2246
 3575ntf    fn420677   6.716   1.780   4.470  0.0596  0.3248  0.8423
 3575ntf    fn420678   6.777   1.580   4.500  0.1183 -0.3338 -0.6892
 3575ntf    on520679   6.939   1.708   4.265 -0.7003 -0.0400  0.4842
 3575ntf    on520680   7.013   1.865   4.429 -0.3455  0.2343 -0.8735
 3575ntf    on520681   7.167   1.482   4.668 -0.0212 -0.0761  0.0316
 3575ntf    on520682   7.185   1.724   4.639  0.0859 -0.2965  0.3222
 3575ntf    fn420683   7.259   1.498   4.360 -0.2783  0.2780 -0.4960
 3575ntf    fn420684   7.336   1.684   4.410 -0.1771 -0.2865  0.6572
 3575ntf    fn420685   7.403   1.510   4.513 -0.0754 -0.4374  0.7172
 3576ntf    cn120686   2.423   1.247   4.373  0.0834 -0.2430 -0.0805
 3576ntf    sn220687   2.320   1.338   4.254  0.0377 -0.0709  0.0908
 3576ntf    nn320688   2.416   1.337   4.129 -0.0640 -0.3307  0.0139
 3576ntf    sn220689   2.390   1.408   3.992 -0.0771  0.0746  0.2279
 3576ntf    cn120690   2.346   1.256   3.904 -0.4040  0.0538  0.4234
 3576ntf    fn420691   2.386   1.252   4.500  0.0947  0.0805 -0.0912
 3576ntf    fn420692   2.418   1.118   4.341 -0.2053 -0.1439 -0.4509
 3576ntf    fn420693   2.550   1.277   4.351  0.1638 -0.7122 -0.2790
 3576ntf    on520694   2.198   1.262   4.245 -0.3483  0.4533  0.8405
 3576ntf    on520695   2.310   1.466   4.318 -0.3568  0.0828 -0.2740
 3576ntf    on520696   2.510   1.459   3.932 -0.4600  0.9908  0.2203
 3576ntf    on520697   2.271   1.488   3.974 -0.1330 -0.1919 -0.5809
 3576ntf    fn420698   2.451   1.196   3.851 -0.0408  0.3634  0.7855
 3576ntf    fn420699   2.281   1.174   3.985 -0.6561  0.5932  0.7697
 3576ntf    fn420700   2.264   1.283   3.804 -0.1408  0.2747  0.2662
 3577ntf    cn120701   5.764   0.018   0.784 -0.0742 -0.0917 -0.2924
 3577ntf    sn220702   5.895  -0.107   0.801  0.1590  0.1954  0.0221
 3577ntf    nn320703   6.024  -0.019   0.809  0.1894  0.1870 -0.3672
 3577ntf    sn220704   6.169  -0.059   0.855 -0.0393  0.0451  0.2483
 3577ntf    cn120705   6.248   0.003   0.703 -0.5108 -0.4660 -0.2133
 3577ntf    fn420706   5.762   0.105   0.883 -0.0893 -0.2091 -0.1899
 3577ntf    fn420707   5.777   0.096   0.678 -0.3699  0.7406  0.2751
 3577ntf    fn420708   5.642  -0.034   0.774 -0.3177  0.3224  0.4957
 3577ntf    on520709   5.850  -0.182   0.916  0.1483 -0.1052 -0.1763
 3577ntf    on520710   5.885  -0.169   0.671  0.6172  0.4854 -0.1527
 3577ntf    on520711   6.207  -0.198   0.863 -0.4141 -0.0967 -0.3126
 3577ntf    on520712   6.225   0.025   0.958  0.6329  0.4003 -0.3916
 3577ntf    fn420713   6.278   0.132   0.713 -0.2296 -0.4788 -0.8204
 3577ntf    fn420714   6.366  -0.051   0.679 -0.3495 -0.0253 -0.4303
 3577ntf    fn420715   6.162  -0.010   0.604 -0.6418 -0.1780 -0.1382
 3578ntf    cn120716   4.062   0.163   6.833 -0.1201  0.2048 -0.0806
 3578ntf    sn220717   4.101   0.156   6.656  0.3305 -0.4404  0.0434
 3578ntf    nn320718   4.021   0.031   6.605 -0.3028  0.1785 -0.4917
 3578ntf    sn220719   4.034  -0.119   6.648 -0.0201  0.4325  0.3246
 3578ntf    cn120720   4.108  -0.197   6.501 -0.1747  0.4639  0.2296
 3578ntf    fn420721   3.932   0.145   6.850 -0.1331  0.2952 -0.0841
 3578ntf    fn420722   4.124   0.070   6.903 -0.3361  0.1297  0.0109
 3578ntf    fn420723   4.088   0.286   6.876  0.6597 -0.0657  0.2402
 3578ntf    on520724   4.053   0.288   6.624 -0.1749 -0.4554  0.7324
 3578ntf    on520725   4.243   0.138   6.639  0.5245  1.0827 -0.0709
 3578ntf    on520726   3.900  -0.173   6.644  0.1193  0.1205 -0.3163
 3578ntf    on520727   4.124  -0.159   6.753 -0.0650 -0.3491  0.0730
 3578ntf    fn420728   4.164  -0.312   6.535 -0.0713  0.5322  0.2881
 3578ntf    fn420729   4.025  -0.224   6.402  0.4252  0.2921 -0.2318
 3578ntf    fn420730   4.203  -0.127   6.442  0.2213 -0.1593  0.1174
 3579ntf    cn120731   2.932   2.198   7.154 -0.0900 -0.0836  0.2242
 3579ntf    sn220732   2.858   2.149   6.996 -0.3524 -0.0960  0.3502
 3579ntf    nn320733   2.756   2.264   6.967 -0.0532  0.1432  0.2410
 3579ntf    sn220734   2.742   2.352   6.838  0.2529 -0.3572 -0.1363
 3579ntf    cn120735   2.857   2.485   6.883 -0.2207 -0.0916  0.3001
 3579ntf    fn420736   2.840   2.220   7.247  0.0620  0.4929  0.2421
 3579ntf    fn420737   3.013   2.103   7.200  0.3134  0.0594 -0.1838
 3579ntf    fn420738   2.998   2.312   7.140 -0.2809  0.0032  0.0325
 3579ntf    on520739   2.972   2.134   6.908 -0.4067 -1.2728  0.4557
 3579ntf    on520740   2.792   2.026   7.035  0.2218 -0.5032  0.0565
 3579ntf    on520741   2.618   2.426   6.837  0.1503 -0.5240  0.2463
 3579ntf    on520742   2.794   2.298   6.715  0.1239  0.7144 -0.6754
 3579ntf    fn420743   2.970   2.422   6.915 -0.2282 -0.3976 -0.2661
 3579ntf    fn420744   2.880   2.572   6.787  0.1879 -0.3443  0.1644
 3579ntf    fn420745   2.809   2.553   6.986  0.1317  0.3119  0.2017
 3580ntf    cn120746   1.630   2.155   2.492  0.0344 -0.3228  0.5774
 3580ntf    sn220747   1.655   1.976   2.519 -0.0984 -0.3371  0.6055
 3580ntf    nn320748   1.598   1.952   2.663  0.2361 -0.0977  0.7781
 3580ntf    sn220749   1.453   1.912   2.708 -0.1011 -0.0681 -0.2770
 3580ntf    cn120750   1.447   1.940   2.887  0.6308 -0.1239 -0.2440
 3580ntf    fn420751   1.502   2.187   2.509  0.1161  0.2309  0.1664
 3580ntf    fn420752   1.704   2.219   2.581  0.3804  0.1110 -0.0181
 3580ntf    fn420753   1.650   2.206   2.372  0.0666  0.2521  0.8228
 3580ntf    on520754   1.583   1.902   2.418 -0.2852  0.4944  0.1106
 3580ntf    on520755   1.798   1.970   2.513 -0.1191 -0.2447 -0.0962
 3580ntf    on520756   1.430   1.771   2.688  0.1436 -0.0062 -1.0417
 3580ntf    on520757   1.359   2.014   2.667 -0.3642 -0.0846  0.2814
 3580ntf    fn420758   1.481   2.066   2.913  0.6218 -0.2266  0.2751
 3580ntf    fn420759   1.324   1.920   2.930  0.7379 -0.5265 -0.1279
 3580ntf    fn420760   1.522   1.856   2.956  0.1188 -0.5634 -0.2215
 3581ntf    cn120761   2.881   5.892   6.694 -0.1911 -0.4386  0.0249
 3581ntf    sn220762   3.047   5.835   6.740 -0.0731 -0.0469  0.0952
 3581ntf    nn320763   3.024   5.682   6.769 -0.0895 -0.1482 -0.4454
 3581ntf    sn220764   3.038   5.609   6.907  0.5277  0.2676 -0.2816
 3581ntf    cn120765   2.989   5.444   6.847 -0.0775  0.2720  0.1854
 3581ntf    fn420766   2.873   6.020   6.661  0.2383 -0.4120  0.0172
 3581ntf    fn420767   2.838   5.822   6.591  0.2073 -0.0480 -0.4076
 3581ntf    fn420768   2.791   5.879   6.790 -0.1284  0.1434  0.1678
 3581ntf    on520769   3.125   5.864   6.622 -0.2085  0.0504  0.0288
 3581ntf    on520770   3.081   5.913   6.857  0.2224 -0.1937  0.1100
 3581ntf    on520771   2.937   5.633   7.007  0.4274  0.3668 -0.4060
 3581ntf    on520772   3.174   5.585   6.948  0.5560  0.1715 -0.4310
 3581ntf    fn420773   3.078   5.398   6.761 -0.4480 -0.5402  0.2271
 3581ntf    fn420774   2.989   5.362   6.950 -0.5140  0.1734  0.1092
 3581ntf    fn420775   2.868   5.443   6.793  0.1477 -0.6268 -0.3212
 3582ntf    cn120776   2.845   3.602   7.117  0.1458 -0.2360 -0.1948
 3582ntf    sn220777   2.804   3.703   7.263  0.3109 -0.2326 -0.1505
 3582ntf    nn320778   2.836   3.841   7.195  0.2594 -0.2946 -0.3027
 3582ntf    sn220779   2.949   3.946   7.222  0.0592 -0.1441 -0.0371
 3582ntf    cn120780   2.920   4.060   7.083 -0.2031 -0.2224 -0.0461
 3582ntf    fn420781   2.931   3.502   7.125 -0.1824 -0.5520 -0.5598
 3582ntf    fn420782   2.738   3.540   7.069  0.2009 -0.2593 -0.2880
 3582ntf    fn420783   2.894   3.682   7.023 -0.0823  0.2656  0.1124
 3582ntf    on520784   2.664   3.674   7.275  0.2470  0.0649 -0.1882
 3582ntf    on520785   2.885   3.646   7.368  0.7056  0.5267 -0.0383
 3582ntf    on520786   3.081   3.891   7.208  0.3472  0.5180  0.0333
 3582ntf    on520787   2.927   4.024   7.341 -0.0340  0.4173 -0.4150
 3582ntf    fn420788   3.012   4.154   7.077 -0.1672 -0.2212  0.4950
 3582ntf    fn420789   2.937   3.995   6.969 -0.2737 -0.0103 -0.1775
 3582ntf    fn420790   2.798   4.112   7.079 -0.1035 -0.0278 -0.6889
 3583ntf    cn120791   5.337   2.199   5.261 -0.1729  0.0117 -0.1266
 3583ntf    sn220792   5.239   2.074   5.349 -0.0809  0.2471  0.3153
 3583ntf    nn320793   5.337   1.953   5.330 -0.2939  0.0774  0.2817
 3583ntf    sn220794   5.444   1.891   5.427 -0.2325 -0.0321  0.1435
 3583ntf    cn120795   5.351   1.777   5.534  0.0100 -0.4940 -0.1312
 3583ntf    fn420796   5.281   2.317   5.245  0.0353  0.2698  0.9733
 3583ntf    fn420797   5.460   2.218   5.307  0.0471  0.2596 -0.7990
 3583ntf    fn420798   5.359   2.152   5.139  0.8275  0.2995 -0.0628
 3583ntf    on520799   5.228   2.133   5.480  0.1383  0.1448  0.3802
 3583ntf    on520800   5.119   2.055   5.270 -0.0501 -0.0150  0.3285
 3583ntf    on520801   5.514   1.981   5.515 -0.1096  0.2611 -0.2535
 3583ntf    on520802   5.524   1.789   5.364  0.5456  0.5399  0.1914
 3583ntf    fn420803   5.309   1.666   5.476  0.0534 -0.2714 -0.5892
 3583ntf    fn420804   5.424   1.736   5.636  0.1235  0.3680  0.1491
 3583ntf    fn420805   5.245   1.838   5.585  0.4393  0.5070 -0.4000
 3584ntf    cn120806   6.026   4.984   5.859  0.0144 -0.3015  0.2747
 3584ntf    sn220807   5.927   4.847   5.925 -0.0566 -0.4165 -0.0685
 3584ntf    nn320808   5.814   4.923   6.004  0.1560 -0.2587  0.0826
 3584ntf    sn220809   5.674   4.959   5.943  0.1872 -0.0349  0.1400
 3584ntf    cn120810   5.672   5.139   5.967  0.5752  0.0110 -0.1586
 3584ntf    fn420811   6.095   5.051   5.949  0.1328  0.0907 -0.1040
 3584ntf    fn420812   6.111   4.940   5.768  0.0251  0.5598 -0.1417
 3584ntf    fn420813   5.949   5.069   5.793  0.3138 -0.3245 -0.1051
 3584ntf    on520814   5.876   4.769   5.814  0.4226 -0.5257 -0.2121
 3584ntf    on520815   6.011   4.776   6.018  0.2084  0.2173  0.1729
 3584ntf    on520816   5.564   4.916   6.026 -0.0877  0.2987 -0.0511
 3584ntf    on520817   5.654   4.942   5.801 -0.8183  0.7850  0.1772
 3584ntf    fn420818   5.659   5.173   6.094 -0.1226 -0.0779 -0.1991
 3584ntf    fn420819   5.785   5.203   5.943 -0.0284  1.1202 -0.1203
 3584ntf    fn420820   5.581   5.197   5.890  0.3039 -0.1857  0.0143
 3585ntf    cn120821   2.693   2.907   2.881  0.1267 -0.3087 -0.1343
 3585ntf    sn220822   2.547   2.914   2.772  0.0340 -0.0937  0.0044
 3585ntf    nn320823   2.590   3.048   2.703 -0.2537 -0.0695 -0.1280
 3585ntf    sn220824   2.573   3.197   2.748  0.0717 -0.2054  0.4504
 3585ntf    cn120825   2.419   3.231   2.658  0.1224 -0.2019  0.3643
 3585ntf    fn420826   2.686   3.003   2.971 -0.4955 -0.3743 -0.1062
 3585ntf    fn420827   2.715   2.792   2.943  0.2140 -0.5860 -0.6690
 3585ntf    fn420828   2.797   2.937   2.805  0.4043 -0.1716  0.2971
 3585ntf    on520829   2.551   2.791   2.698  0.2025  0.0897 -0.2935
 3585ntf    on520830   2.443   2.927   2.871 -0.0071  0.1482 -0.0692
 3585ntf    on520831   2.679   3.283   2.701 -0.4409 -0.0900 -0.5173
 3585ntf    on520832   2.525   3.221   2.882 -0.2609 -0.7180  0.4228
 3585ntf    fn420833   2.382   3.357   2.679  0.7179 -0.0053  0.2383
 3585ntf    fn420834   2.440   3.228   2.528 -0.0177  0.0532  0.3335
 3585ntf    fn420835   2.311   3.158   2.683 -0.4062  0.3797 -0.1865
 3586ntf    cn120836   6.367   6.595   0.456 -0.1546  0.0446  0.3910
 3586ntf    sn220837   6.273   6.534   0.599 -0.2749 -0.3909  0.1239
 3586ntf    nn320838   6.135   6.564   0.530 -0.1308 -0.5981 -0.2564
 3586ntf    sn220839   6.001   6.591   0.607  0.0790  0.0348 -0.1153
 3586ntf    cn120840   5.980   6.772   0.605  0.5511  0.0864 -0.5323
 3586ntf    fn420841   6.341   6.721   0.425 -0.6019 -0.2603 -0.4999
 3586ntf    fn420842   6.498   6.577   0.465 -0.2284 -0.4370  0.5060
 3586ntf    fn420843   6.332   6.526   0.349 -0.1410 -0.0432  0.4430
 3586ntf    on520844   6.304   6.393   0.601  0.2263 -0.3042 -0.8265
 3586ntf    on520845   6.320   6.625   0.699 -1.0615  0.1338  0.0296
 3586ntf    on520846   6.003   6.558   0.747  0.1852  0.2971 -0.0540
 3586ntf    on520847   5.885   6.545   0.535 -0.4528  0.1909  0.6251
 3586ntf    fn420848   6.075   6.832   0.675  0.0745  0.4950 -0.2349
 3586ntf    fn420849   5.983   6.822   0.482  0.0223  0.3233 -0.4500
 3586ntf    fn420850   5.863   6.810   0.653  0.5618  0.2242 -0.6149
 3587ntf    cn120851   0.920   0.005   4.968  0.0598  0.0777  0.0186
 3587ntf    sn220852   0.868   0.123   4.839  0.2415 -0.0919 -0.2101
 3587ntf    nn320853   0.969   0.099   4.721  0.2800 -0.3788 -0.1207
 3587ntf    sn220854   0.941   0.132   4.570  0.2268  0.0127 -0.0276
 3587ntf    cn120855   1.088   0.229   4.523  0.1269  0.3317  0.3153
 3587ntf    fn420856   0.834   0.002   5.069  0.2131 -0.1839  0.1404
 3587ntf    fn420857   0.943  -0.116   4.920  0.2942  0.2618 -0.3335
 3587ntf    fn420858   1.034   0.039   5.025  0.1811  0.0741 -0.2240
 3587ntf    on520859   0.736   0.073   4.812  0.2553 -0.2242 -0.0370
 3587ntf    on520860   0.889   0.246   4.911  0.2433 -0.1298 -0.1460
 3587ntf    on520861   0.821   0.207   4.544  0.0347 -0.1424  0.4012
 3587ntf    on520862   0.968   0.019   4.484  0.8361  0.2964 -0.2165
 3587ntf    fn420863   1.101   0.340   4.594 -0.4382  0.3327  0.4274
 3587ntf    fn420864   1.198   0.161   4.552  0.1794  0.2489 -0.0754
 3587ntf    fn420865   1.084   0.253   4.393 -0.3378  0.1403  0.2931
 3588ntf    cn120866   0.431   7.168   2.892  0.6446  0.2562  0.0401
 3588ntf    sn220867   0.598   7.196   2.824  0.3467  0.1056 -0.7704
 3588ntf    nn320868   0.578   7.124   2.686  0.0598  0.0832 -0.7177
 3588ntf    sn220869   0.594   6.971   2.651  0.3478 -0.0259 -0.1212
 3588ntf    cn120870   0.431   6.945   2.576  0.2782 -0.0529  0.0384
 3588ntf    fn420871   0.405   7.240   2.999 -0.5497  0.0714 -0.1170
 3588ntf    fn420872   0.329   7.188   2.810  0.4373 -0.5283  0.1038
 3588ntf    fn420873   0.413   7.040   2.917 -0.1557  0.3289 -0.1228
 3588ntf    on520874   0.623   7.338   2.813 -0.0110  0.1872 -0.5315
 3588ntf    on520875   0.679   7.131   2.925 -0.4095  0.0993 -0.1559
 3588ntf    on520876   0.602   6.881   2.764  0.3391  0.6277  0.4129
 3588ntf    on520877   0.678   6.953   2.536  0.6946 -0.5593  0.2125
 3588ntf    fn420878   0.431   6.833   2.505  0.0564  0.0571 -0.1359
 3588ntf    fn420879   0.337   6.933   2.668 -0.2710 -0.4760 -0.5679
 3588ntf    fn420880   0.392   7.041   2.494 -0.5939 -0.0215  0.4719
 3589ntf    cn120881   0.078   4.902   1.485  0.2239 -0.4729 -0.2236
 3589ntf    sn220882   0.124   4.934   1.658 -0.0517 -0.2967 -0.1827
 3589ntf    nn320883   0.279   4.941   1.639 -0.0257 -0.3436  0.0114
 3589ntf    sn220884   0.376   5.063   1.616 -0.4939  0.0816  0.2887
 3589ntf    cn120885   0.470   5.002   1.474  0.1776 -0.0028  0.7642
 3589ntf    fn420886  -0.040   4.843   1.481  0.1518 -0.3403 -0.0946
 3589ntf    fn420887   0.080   5.013   1.413 -0.2527 -0.3266 -0.0233
 3589ntf    fn420888   0.153   4.810   1.427 -0.4206 -1.1770  0.0363
 3589ntf    on520889   0.057   5.061   1.675 -0.1849 -0.3467 -0.3357
 3589ntf    on520890   0.073   4.814   1.720  0.2018 -0.2611  0.0957
 3589ntf    on520891   0.477   5.068   1.719  0.6393  0.5960 -0.8278
 3589ntf    on520892   0.311   5.182   1.567 -0.0272 -0.0038 -0.5353
 3589ntf    fn420893   0.557   5.088   1.422 -0.2501 -0.0452 -0.0488
 3589ntf    fn420894   0.541   4.892   1.497  0.1007 -0.1256  0.4204
 3589ntf    fn420895   0.395   4.959   1.373 -0.2106  0.0450  1.0308
 3590ntf    cn120896   0.855   4.811   3.708 -0.1108 -0.1776  0.3840
 3590ntf    sn220897   1.027   4.801   3.649 -0.1954  0.4150  0.0225
 3590ntf    nn320898   1.019   4.897   3.526 -0.6482 -0.2348 -0.4685
 3590ntf    sn220899   1.132   4.980   3.453 -0.5872  0.1666  0.0771
 3590ntf    cn120900   1.076   5.150   3.484 -0.1600  0.2757  0.2627
 3590ntf    fn420901   0.823   4.717   3.795  0.0968 -0.3851  0.2376
 3590ntf    fn420902   0.833   4.931   3.761 -0.2272  0.2632 -0.6364
 3590ntf    fn420903   0.774   4.792   3.605  0.6809 -0.3756 -0.2099
 3590ntf    on520904   1.097   4.853   3.763 -0.4416  0.2626  0.2453
 3590ntf    on520905   1.045   4.662   3.614  0.2616  0.5008 -0.0833
 3590ntf    on520906   1.120   4.971   3.310 -0.2913  0.2196  0.0491
 3590ntf    on520907   1.261   4.975   3.517 -0.7813 -0.4229  0.4370
 3590ntf    fn420908   0.955   5.180   3.440 -0.1499  0.4050  0.3216
 3590ntf    fn420909   1.080   5.169   3.615 -0.4728 -0.4609  0.3870
 3590ntf    fn420910   1.154   5.237   3.422 -0.0028 -0.3873 -0.4776
 3591ntf    cn120911   1.863   1.900   3.386  0.1242 -0.2440  0.3498
 3591ntf    sn220912   1.790   2.061   3.430 -0.4028 -0.4536  0.2530
 3591ntf    nn320913   1.806   2.048   3.586 -0.2862 -0.6372  0.2272
 3591ntf    sn220914   1.704   2.050   3.705 -0.1602  0.1373  0.3283
 3591ntf    cn120915   1.696   1.877   3.760  0.3080 -0.1420 -0.4721
 3591ntf    fn420916   1.902   1.892   3.260 -0.1958 -0.1711  0.2436
 3591ntf    fn420917   1.972   1.875   3.456  0.1004 -0.3805  0.3384
 3591ntf    fn420918   1.789   1.792   3.405 -0.0244 -0.1911  0.0720
 3591ntf    on520919   1.880   2.152   3.363 -0.4684 -0.6846 -0.1497
 3591ntf    on520920   1.654   2.057   3.383 -0.1921  0.8220 -0.5004
 3591ntf    on520921   1.566   2.074   3.674 -0.1354 -0.0664  0.0590
 3591ntf    on520922   1.750   2.122   3.822 -0.7487  0.6132  0.2701
 3591ntf    fn420923   1.631   1.798   3.676 -0.1522 -0.0205 -0.2281
 3591ntf    fn420924   1.816   1.823   3.772  0.2316 -0.1368  0.3646
 3591ntf    fn420925   1.631   1.859   3.874  1.0697 -0.2217 -0.0445
 3592ntf    cn120926   1.176   3.755   2.777  0.0406  0.4064  0.3749
 3592ntf    sn220927   1.306   3.784   2.654 -0.0662  0.1054  0.1902
 3592ntf    nn320928   1.433   3.804   2.744  0.0805  0.3946 -0.0781
 3592ntf    sn220929   1.563   3.716   2.756 -0.3092 -0.1571  0.1478
 3592ntf    cn120930   1.543   3.654   2.925  0.5638 -0.5521  0.1130
 3592ntf    fn420931   1.211   3.649   2.847  0.3269  0.2718  0.0305
 3592ntf    fn420932   1.162   3.843   2.875  0.1029  0.0777  0.6803
 3592ntf    fn420933   1.057   3.739   2.720  0.4891 -0.0902 -0.4418
 3592ntf    on520934   1.303   3.670   2.565 -1.0601  0.1444  0.1605
 3592ntf    on520935   1.275   3.910   2.591 -0.0043  0.0894  0.1272
 3592ntf    on520936   1.677   3.802   2.775 -0.3439 -0.0488 -0.1196
 3592ntf    on520937   1.577   3.606   2.664  0.3356 -0.2192  0.3165
 3592ntf    fn420938   1.454   3.556   2.936  0.2767 -0.4001 -0.7442
 3592ntf    fn420939   1.659   3.607   2.967  0.5224 -0.1057  0.7378
 3592ntf    fn420940   1.524   3.757   3.006  0.5928 -0.1920 -0.3366
 3593ntf    cn120941   1.088   0.305   0.646 -0.0768  0.2524 -0.0563
 3593ntf    sn220942   0.920   0.235   0.646  0.0660 -0.0936  0.0103
 3593ntf    nn320943   0.845   0.328   0.543 -0.2648  0.0592  0.3895
 3593ntf    sn220944   0.722   0.421   0.571 -0.2862  0.1718 -0.0716
 3593ntf    cn120945   0.687   0.495   0.409 -0.4980  0.2059 -0.0109
 3593ntf    fn420946   1.138   0.304   0.524  0.1308  0.9812  0.0133
 3593ntf    fn420947   1.081   0.426   0.700  0.1163  0.2954 -0.1255
 3593ntf    fn420948   1.168   0.238   0.727 -0.1574  0.0238 -0.1675
 3593ntf    on520949   0.955   0.106   0.593  0.4153 -0.0813  0.2060
 3593ntf    on520950   0.882   0.241   0.785  0.2627 -0.6564  0.0870
 3593ntf    on520951   0.762   0.535   0.651  0.3113  0.1155 -0.2897
 3593ntf    on520952   0.595   0.356   0.592 -0.4164  0.4324 -0.0357
 3593ntf    fn420953   0.562   0.518   0.372 -0.5056  0.0372 -0.0926
 3593ntf    fn420954   0.766   0.597   0.380 -0.2375  0.0024 -0.0194
 3593ntf    fn420955   0.716   0.399   0.322 -1.0880 -0.6195  0.6917
 3594ntf    cn120956   3.173   6.606   1.891 -0.1899 -0.0797 -0.0724
 3594ntf    sn220957   3.330   6.522   1.929 -0.1975 -0.2076 -0.3184
 3594ntf    nn320958   3.433   6.639   1.911 -0.1093 -0.2352  0.0034
 3594ntf    sn220959   3.499   6.724   2.025 -0.1181 -0.1090 -0.0862
 3594ntf    cn120960   3.526   6.874   1.926 -0.1030  0.1079  0.2440
 3594ntf    fn420961   3.175   6.734   1.926 -0.5466 -0.0350 -0.2073
 3594ntf    fn420962   3.152   6.612   1.760  0.2786 -0.1515 -0.1517
 3594ntf    fn420963   3.067   6.548   1.944  0.2186 -0.4819  0.3068
 3594ntf    on520964   3.316   6.460   2.059  0.6053  0.1401 -0.0604
 3594ntf    on520965   3.350   6.432   1.818 -0.3807 -0.1631 -0.3884
 3594ntf    on520966   3.627   6.675   2.070  0.0180  0.1817 -0.1537
 3594ntf    on520967   3.402   6.755   2.127  0.1379 -0.3370  0.2277
 3594ntf    fn420968   3.600   6.952   2.003 -0.2834  0.6967 -0.1763
 3594ntf    fn420969   3.606   6.854   1.822 -0.4491 -0.4607  0.0805
 3594ntf    fn420970   3.421   6.943   1.886 -0.1384  0.0576  0.2496
 3595ntf    cn120971   2.062   1.102   5.333  0.6293 -0.0844 -0.0560
 3595ntf    sn220972   2.116   1.172   5.492  0.3901 -0.0280  0.0006
 3595ntf    nn320973   2.070   1.320   5.467  0.1765  0.0568  0.8504
 3595ntf    sn220974   1.939   1.393   5.512 -0.4101 -0.2257 -0.3501
 3595ntf    cn120975   1.989   1.487   5.660 -0.5557  0.0728 -0.4905
 3595ntf    fn420976   2.092   1.173   5.225 -0.3200  0.2593 -0.1071
 3595ntf    fn420977   2.094   0.976   5.313 -0.1814 -0.2852 -0.1046
 3595ntf    fn420978   1.930   1.098   5.331  0.6510 -0.8105 -0.1523
 3595ntf    on520979   2.031   1.089   5.575  0.2427 -0.6956 -0.8034
 3595ntf    on520980   2.258   1.152   5.496  0.3577 -0.2744 -0.0451
 3595ntf    on520981   1.833   1.308   5.560 -0.5686 -0.2111 -0.6739
 3595ntf    on520982   1.908   1.492   5.412 -0.0330  0.0277 -0.2179
 3595ntf    fn420983   1.887   1.508   5.742  0.2115  0.0598  0.4853
 3595ntf    fn420984   2.085   1.423   5.724 -0.2440  0.6405 -0.3924
 3595ntf    fn420985   2.031   1.610   5.637 -0.4317  0.2263  0.5093
 3596ntf    cn120986   5.342   4.444   1.365  0.2117  0.3688 -0.5123
 3596ntf    sn220987   5.428   4.353   1.232  0.3396 -0.1490 -0.0805
 3596ntf    nn320988   5.550   4.284   1.301  0.1936 -0.0823  0.2486
 3596ntf    sn220989   5.625   4.150   1.265 -0.3635 -0.4185  0.3327
 3596ntf    cn120990   5.581   4.052   1.412 -0.0153 -0.2115  0.5782
 3596ntf    fn420991   5.250   4.521   1.310 -0.1013  0.1578 -0.2861
 3596ntf    fn420992   5.287   4.351   1.441 -0.1906  0.2553 -0.9361
 3596ntf    fn420993   5.416   4.526   1.437  0.6575  0.0140 -0.5596
 3596ntf    on520994   5.322   4.265   1.189 -0.4094  0.7092 -0.0266
 3596ntf    on520995   5.468   4.459   1.142  0.6910 -0.6110 -0.4681
 3596ntf    on520996   5.768   4.166   1.272 -0.3408 -0.1236 -0.7327
 3596ntf    on520997   5.579   4.071   1.154 -0.2549  0.1919 -0.1501
 3596ntf    fn420998   5.451   4.069   1.430  0.0257 -0.0464  0.7096
 3596ntf    fn420999   5.604   3.923   1.394  0.0271 -0.0906 -0.3105
 3596ntf    fn421000   5.638   4.099   1.521 -0.3024 -0.8666  1.0162
 3597ntf    cn121001   6.965   6.678   1.890 -0.1892 -0.1672 -0.1657
 3597ntf    sn221002   6.903   6.528   1.808  0.1191 -0.2857 -0.1851
 3597ntf    nn321003   7.029   6.448   1.759 -0.0432 -0.5628 -0.1530
 3597ntf    sn221004   7.122   6.472   1.634  0.0095 -0.0709 -0.0228
 3597ntf    cn121005   7.279   6.401   1.691  0.3133  0.5761 -0.0562
 3597ntf    fn421006   6.864   6.747   1.941 -0.0844  0.1768 -0.4227
 3597ntf    fn421007   7.036   6.642   1.996  0.0568  0.6756 -0.0334
 3597ntf    fn421008   7.039   6.760   1.817 -0.0608  0.0383  0.1932
 3597ntf    on521009   6.844   6.458   1.919  0.8101 -0.2846  0.1894
 3597ntf    on521010   6.816   6.579   1.705  0.0004  0.1877  0.1492
 3597ntf    on521011   7.147   6.611   1.606  0.0771 -0.0445  0.1621
 3597ntf    on521012   7.096   6.386   1.521  0.1796 -0.4448  0.2179
 3597ntf    fn421013   7.341   6.473   1.785  0.8053 -0.2149  0.2352
 3597ntf    fn421014   7.259   6.285   1.751  0.5991  0.6730  0.2339
 3597ntf    fn421015   7.370   6.383   1.597  0.1912 -0.2759 -0.0210
 3598ntf    cn121016   0.756   5.532   1.026  0.1196  0.0580 -0.0042
 3598ntf    sn221017   0.817   5.399   1.134  0.1225  0.0736  0.0128
 3598ntf    nn321018   0.962   5.448   1.169  0.2030 -0.5864  0.6258
 3598ntf    sn221019   1.025   5.526   1.290  0.2403  0.0904  0.1745
 3598ntf    cn121020   1.120   5.660   1.212  0.1629  0.2151  0.2922
 3598ntf    fn421021   0.633   5.510   0.983 -0.0709  0.1995  0.4639
 3598ntf    fn421022   0.754   5.651   1.083 -0.4440 -0.1255  0.3710
 3598ntf    fn421023   0.835   5.551   0.921 -0.0011  0.0369 -0.0992
 3598ntf    on521024   0.716   5.402   1.237 -0.0726 -0.0036 -0.1751
 3598ntf    on521025   0.815   5.285   1.045 -0.4669  0.2887 -0.2572
 3598ntf    on521026   1.123   5.449   1.363  0.2502  0.4670  0.5620
 3598ntf    on521027   0.938   5.601   1.377  0.6782  0.5383  0.2358
 3598ntf    fn421028   1.046   5.733   1.130  0.3541 -0.0398 -0.1138
 3598ntf    fn421029   1.192   5.734   1.294  0.1328 -0.0067  0.5207
 3598ntf    fn421030   1.216   5.610   1.135  0.3616  0.2435  0.5190
 3599ntf    cn121031   5.062   2.328   0.678  0.6521 -0.1472 -0.4001
 3599ntf    sn221032   5.075   2.258   0.511  0.1337 -0.6702 -0.2246
 3599ntf    nn321033   5.175   2.141   0.539  0.5211 -0.1905  0.4193
 3599ntf    sn221034   5.273   2.079   0.433 -0.0712  0.0855 -0.2975
 3599ntf    cn121035   5.248   1.901   0.464  0.1563  0.0870 -0.0999
 3599ntf    fn421036   5.179   2.339   0.740  0.1860  0.5293  0.3863
 3599ntf    fn421037   5.013   2.451   0.677  0.2411 -0.3027  0.0980
 3599ntf    fn421038   4.986   2.256   0.759  0.5888  0.3683  0.0073
 3599ntf    on521039   4.943   2.209   0.480 -0.4200  0.2958  0.5293
 3599ntf    on521040   5.131   2.360   0.425 -0.0121 -0.3110  0.1037
 3599ntf    on521041   5.413   2.097   0.463 -0.0686 -0.5957  0.1291
 3599ntf    on521042   5.236   2.090   0.294 -0.0931  0.5195 -0.2576
 3599ntf    fn421043   5.289   1.875   0.587  0.6795 -0.1193 -0.3150
 3599ntf    fn421044   5.122   1.861   0.458  0.3333 -0.5087  0.1016
 3599ntf    fn421045   5.313   1.826   0.377  0.1928 -0.0423  0.0390
 3600ntf    cn121046   6.242   0.948   4.460  0.2046 -0.2178  0.2336
 3600ntf    sn221047   6.216   1.115   4.526 -0.2437  0.0844 -0.6860
 3600ntf    nn321048   6.290   1.191   4.411  0.1234 -0.0472 -0.5388
 3600ntf    sn221049   6.423   1.274   4.420  0.1049 -0.0673 -0.0895
 3600ntf    cn121050   6.537   1.159   4.339  0.1409 -0.0229 -0.1014
 3600ntf    fn421051   6.207   0.953   4.332  0.2458  0.7948  0.2528
 3600ntf    fn421052   6.366   0.903   4.472  0.1444 -0.3764  0.2597
 3600ntf    fn421053   6.158   0.865   4.520 -0.2089  0.1203  0.1328
 3600ntf    on521054   6.075   1.144   4.528 -0.1718  0.4779 -1.1115
 3600ntf    on521055   6.285   1.112   4.653  0.1576  0.6498 -0.8879
 3600ntf    on521056   6.485   1.294   4.549 -0.1280  0.2487 -0.0246
 3600ntf    on521057   6.427   1.383   4.326  0.2694 -0.1240 -0.1480
 3600ntf    fn421058   6.531   1.037   4.391  0.0574 -0.0006 -0.0600
 3600ntf    fn421059   6.511   1.142   4.211 -0.2135  0.2347 -0.0620
 3600ntf    fn421060   6.663   1.200   4.346  0.1905 -0.1912  0.0136
 3601ntf    cn121061   2.599   0.625   4.767  0.0771  0.0620 -0.1380
 3601ntf    sn221062   2.536   0.790   4.725 -0.0976  0.1085  0.3017
 3601ntf    nn321063   2.572   0.883   4.846 -0.6250  0.9294 -0.1613
 3601ntf    sn221064   2.532   0.861   4.996 -0.0060  0.1544 -0.0999
 3601ntf    cn121065   2.450   1.018   5.038 -0.3796 -0.0322 -0.1347
 3601ntf    fn421066   2.722   0.644   4.810 -0.2044  0.7914  0.3672
 3601ntf    fn421067   2.523   0.565   4.858 -0.2121 -0.1560 -0.5192
 3601ntf    fn421068   2.606   0.539   4.666  0.6574 -0.3545  0.2523
 3601ntf    on521069   2.614   0.827   4.610 -0.4801  0.3130  0.1049
 3601ntf    on521070   2.395   0.771   4.700 -0.0312  0.1123 -0.0868
 3601ntf    on521071   2.649   0.862   5.080  0.0081 -0.1865 -0.1159
 3601ntf    on521072   2.429   0.765   5.026 -0.0896 -0.0247 -0.9314
 3601ntf    fn421073   2.533   1.121   5.038 -0.2688 -0.1087  1.0496
 3601ntf    fn421074   2.353   1.039   4.950  0.1092 -0.2758 -0.7301
 3601ntf    fn421075   2.399   1.004   5.160 -0.0549 -0.0946 -0.0067
 3602ntf    cn121076   6.890   3.869   3.280  0.1032  0.3089  0.7180
 3602ntf    sn221077   7.025   3.986   3.251  0.2891 -0.0591  0.0740
 3602ntf    nn321078   6.994   4.034   3.105 -0.0087  0.0849  0.1843
 3602ntf    sn221079   7.077   4.143   3.028 -0.0018 -0.1389 -0.1267
 3602ntf    cn121080   6.967   4.286   3.048 -0.1136 -0.2606  0.1387
 3602ntf    fn421081   6.890   3.833   3.408 -0.1848  0.2389  0.6998
 3602ntf    fn421082   6.772   3.927   3.265  0.0491 -0.0183 -0.1949
 3602ntf    fn421083   6.906   3.771   3.193  0.3814  0.6297  0.4081
 3602ntf    on521084   7.007   4.087   3.353 -0.3634  0.0621 -0.1595
 3602ntf    on521085   7.148   3.911   3.247  0.8233  0.8243 -0.4449
 3602ntf    on521086   7.095   4.112   2.889 -0.7987 -0.8573 -0.0754
 3602ntf    on521087   7.200   4.184   3.092 -0.0114 -0.6473  0.2230
 3602ntf    fn421088   6.966   4.323   3.175  0.2682  0.2115  0.0109
 3602ntf    fn421089   7.013   4.387   2.976 -1.0510 -0.1712 -0.3392
 3602ntf    fn421090   6.845   4.269   3.001 -0.3535 -0.0886  0.6943
 3603ntf    cn121091   7.066   1.411   5.255  0.0376 -0.1923 -0.0259
 3603ntf    sn221092   7.106   1.354   5.423 -0.1664 -0.1400  0.0414
 3603ntf    nn321093   7.000   1.240   5.441 -0.1075 -0.3235 -0.7686
 3603ntf    sn221094   7.011   1.090   5.485  0.6185 -0.0133  0.1473
 3603ntf    cn121095   7.018   1.104   5.666  0.5061  0.1670  0.1376
 3603ntf    fn421096   6.938   1.443   5.240 -0.1482 -0.8132  0.1920
 3603ntf    fn421097   7.132   1.516   5.209  0.1820 -0.1336  0.3098
 3603ntf    fn421098   7.087   1.319   5.163  0.6786  0.1116 -0.1881
 3603ntf    on521099   7.244   1.312   5.418 -0.0407  0.2247  0.3873
 3603ntf    on521100   7.063   1.463   5.508 -0.2914 -0.2518  0.1208
 3603ntf    on521101   7.136   1.024   5.455  0.4930 -0.2721  0.1837
 3603ntf    on521102   6.887   1.017   5.468  0.4528  0.1381  0.6996
 3603ntf    fn421103   6.924   1.187   5.708 -0.0081 -0.0212 -0.6236
 3603ntf    fn421104   7.010   0.985   5.723  0.3470  0.0610 -0.1000
 3603ntf    fn421105   7.134   1.157   5.702  0.4327  0.2789  0.2110
 3604ntf    cn121106   4.294   6.298   5.428 -0.3396  0.3713  0.3667
 3604ntf    sn221107   4.348   6.362   5.267 -0.0781 -0.0653  0.2775
 3604ntf    nn321108   4.334   6.228   5.186 -0.0308  0.1787 -0.1408
 3604ntf    sn221109   4.231   6.167   5.085 -0.1204 -0.0832  0.1092
 3604ntf    cn121110   4.320   6.018   5.031  0.4451  0.2158  0.2048
 3604ntf    fn421111   4.376   6.201   5.466  0.1047  0.2922 -0.7559
 3604ntf    fn421112   4.293   6.383   5.529 -0.5002  0.6739  0.1109
 3604ntf    fn421113   4.174   6.244   5.414 -0.0562 -0.0836 -0.3758
 3604ntf    on521114   4.250   6.461   5.230  0.0543 -0.0940 -0.1525
 3604ntf    on521115   4.484   6.402   5.294  0.0593 -0.1970 -0.1935
 3604ntf    on521116   4.206   6.245   4.967  0.6410 -0.0498 -0.0342
 3604ntf    on521117   4.122   6.120   5.167 -0.5698 -0.1188 -0.5016
 3604ntf    fn421118   4.242   5.942   4.954  0.5181  0.2839  0.0651
 3604ntf    fn421119   4.430   6.036   4.960  0.3803 -0.0763  0.0261
 3604ntf    fn421120   4.355   5.946   5.136  0.8929  0.2635  0.0866
 3605ntf    cn121121   1.913   4.737   3.377 -0.2300  0.0218 -0.5016
 3605ntf    sn221122   1.805   4.731   3.523  0.2000  0.1864 -0.1752
 3605ntf    nn321123   1.894   4.819   3.618  0.1959 -0.4200  0.3990
 3605ntf    sn221124   1.866   4.838   3.772 -0.1283  0.2996  0.2603
 3605ntf    cn121125   1.936   4.686   3.843  0.1338  0.2436 -0.1110
 3605ntf    fn421126   1.880   4.649   3.284  0.6270 -0.5621 -0.2672
 3605ntf    fn421127   1.922   4.860   3.328 -0.3294  0.2733  0.0985
 3605ntf    fn421128   2.035   4.693   3.404 -0.3930 -0.3729 -0.4062
 3605ntf    on521129   1.687   4.799   3.476  0.2914  0.2145 -0.3655
 3605ntf    on521130   1.793   4.592   3.560 -0.5841  0.3256  0.1102
 3605ntf    on521131   1.726   4.832   3.803 -0.2929 -0.2924 -0.5434
 3605ntf    on521132   1.938   4.949   3.828  0.6220  0.1621 -0.4085
 3605ntf    fn421133   2.056   4.653   3.797  0.2509  0.6977 -0.1353
 3605ntf    fn421134   1.935   4.681   3.975  0.2877  0.0960 -0.1144
 3605ntf    fn421135   1.863   4.584   3.801 -0.3042  0.4152  0.2338
 3606ntf    cn121136   6.026   2.949   3.975 -0.4234 -0.3284 -0.4563
 3606ntf    sn221137   5.912   2.900   4.107 -0.0319 -0.1847 -0.0646
 3606ntf    nn321138   5.991   2.798   4.196 -0.1282 -0.2452 -0.0489
 3606ntf    sn221139   5.955   2.645   4.207 -0.0141 -0.2562  0.1672
 3606ntf    cn121140   6.083   2.581   4.319 -0.0383  0.0356  0.3637
 3606ntf    fn421141   5.970   3.031   3.887  0.6606  0.5855 -0.3213
 3606ntf    fn421142   6.130   3.021   4.014 -0.9178 -0.0444  0.3629
 3606ntf    fn421143   6.074   2.852   3.899  0.7203  0.3045 -0.5738
 3606ntf    on521144   5.901   3.026   4.178  0.8842 -0.4084  0.4889
 3606ntf    on521145   5.791   2.858   4.041 -0.0381 -0.0036 -0.1687
 3606ntf    on521146   5.988   2.569   4.089 -0.5395 -0.0364 -0.1221
 3606ntf    on521147   5.830   2.613   4.271 -0.2024 -0.0819 -0.1169
 3606ntf    fn421148   6.205   2.614   4.280 -0.1766  0.4001  0.2388
 3606ntf    fn421149   6.075   2.615   4.447 -0.2418  0.1893  0.3088
 3606ntf    fn421150   6.079   2.449   4.330 -0.0009  0.0516  0.5857
 3607ntf    cn121151   6.610   3.153   3.755  0.0780 -0.2686 -0.1866
 3607ntf    sn221152   6.681   3.202   3.915  0.0183 -0.1027 -0.2108
 3607ntf    nn321153   6.739   3.067   3.971  0.1440  0.1206  0.2040
 3607ntf    sn221154   6.884   3.020   4.007  0.3066  0.1975 -0.3409
 3607ntf    cn121155   6.856   2.959   4.176  0.2263  0.1234 -0.3814
 3607ntf    fn421156   6.673   3.048   3.706  0.2268 -0.1996 -0.1418
 3607ntf    fn421157   6.484   3.112   3.745  0.1961 -0.4504 -1.0108
 3607ntf    fn421158   6.617   3.248   3.663  0.1120 -0.0969 -0.0096
 3607ntf    on521159   6.773   3.308   3.877  0.0196 -0.3465 -0.9073
 3607ntf    on521160   6.569   3.245   3.994 -0.1638 -0.2338 -0.4001
 3607ntf    on521161   6.982   3.125   4.022  0.4897  0.0864 -0.7420
 3607ntf    on521162   6.917   2.907   3.923 -0.0199 -0.1981  0.0591
 3607ntf    fn421163   6.966   2.910   4.232 -0.2225 -0.2814  0.1520
 3607ntf    fn421164   6.818   3.054   4.259 -0.3794 -0.3098 -0.1547
 3607ntf    fn421165   6.756   2.873   4.182  0.6907 -0.3904  0.0320
 3608ntf    cn121166   6.583   3.484   5.130 -0.5912  0.3949 -0.2026
 3608ntf    sn221167   6.454   3.368   5.077  0.0707 -0.4327 -0.0216
 3608ntf    nn321168   6.418   3.322   5.223 -0.5378  0.2785  0.0552
 3608ntf    sn221169   6.432   3.184   5.295 -0.3794  0.1439 -0.2300
 3608ntf    cn121170   6.258   3.168   5.348 -0.2000  0.2163  0.3945
 3608ntf    fn421171   6.564   3.559   5.237 -0.7073 -0.0600  0.0926
 3608ntf    fn421172   6.696   3.418   5.153 -0.8201  0.1617  0.2551
 3608ntf    fn421173   6.621   3.565   5.032  0.4945  0.0938 -0.0464
 3608ntf    on521174   6.357   3.454   5.014 -0.2603 -0.2625  0.7123
 3608ntf    on521175   6.510   3.269   4.988 -0.1973 -0.3604 -0.2730
 3608ntf    on521176   6.497   3.189   5.424 -0.9451  0.8625  0.0364
 3608ntf    on521177   6.453   3.064   5.218 -0.4282  0.2096 -0.3441
 3608ntf    fn421178   6.174   3.141   5.249 -0.2534  0.2797  0.4230
 3608ntf    fn421179   6.237   3.070   5.435 -0.4982  0.1252  0.2231
 3608ntf    fn421180   6.215   3.277   5.408 -0.4337  0.2985  0.0784
 3609ntf    cn121181   2.169   6.486   2.779  0.1507 -0.3349 -0.0873
 3609ntf    sn221182   2.029   6.452   2.890  0.0748  0.3571  0.0368
 3609ntf    nn321183   2.102   6.446   3.029 -0.0820  0.0876  0.1085
 3609ntf    sn221184   2.044   6.491   3.167  0.0941  0.0953  0.1799
 3609ntf    cn121185   2.179   6.595   3.230  0.2612  0.3755 -0.6289
 3609ntf    fn421186   2.137   6.511   2.653  0.0623 -0.4295 -0.0839
 3609ntf    fn421187   2.228   6.593   2.830 -0.6445  0.0162  0.1214
 3609ntf    fn421188   2.252   6.384   2.768 -0.0819 -0.5310 -0.0307
 3609ntf    on521189   1.928   6.551   2.862 -0.2243  0.1428  0.3461
 3609ntf    on521190   1.997   6.317   2.851 -0.3388  0.3383  0.4296
 3609ntf    on521191   2.036   6.378   3.257 -0.7270  0.0497  0.0607
 3609ntf    on521192   1.923   6.570   3.170  0.0890  0.0828  0.3015
 3609ntf    fn421193   2.300   6.541   3.239  0.1476  0.2249  0.0958
 3609ntf    fn421194   2.188   6.706   3.159  0.7162  0.7785  0.0457
 3609ntf    fn421195   2.158   6.636   3.354  0.9148 -0.1114 -0.3510
 3610ntf    cn121196   3.862   3.493   3.220  0.2638  0.1850  0.0491
 3610ntf    sn221197   3.963   3.395   3.105 -0.1384 -0.3198  0.1237
 3610ntf    nn321198   3.907   3.250   3.130 -0.7487 -0.1105 -0.0221
 3610ntf    sn221199   3.956   3.145   3.236  0.0554 -0.1402 -0.4133
 3610ntf    cn121200   4.095   3.076   3.141  0.3385 -0.2990  0.1108
 3610ntf    fn421201   3.856   3.623   3.197  0.4073  0.1916  0.0497
 3610ntf    fn421202   3.735   3.455   3.221  0.3036  0.0537  0.1189
 3610ntf    fn421203   3.904   3.475   3.344 -0.0884 -0.4413  0.0827
 3610ntf    on521204   3.941   3.453   2.975 -0.6034 -0.6150  0.0691
 3610ntf    on521205   4.101   3.409   3.147  0.0627 -0.4875 -0.4656
 3610ntf    on521206   3.863   3.038   3.262 -0.4425  0.3054 -0.3316
 3610ntf    on521207   4.020   3.197   3.354 -0.0389 -0.4064 -0.2442
 3610ntf    fn421208   4.056   3.037   3.020  0.0578  0.2311  0.0237
 3610ntf    fn421209   4.185   3.169   3.114  0.3479 -0.2531  0.2997
 3610ntf    fn421210   4.161   2.983   3.207  0.1560  0.1161  0.8877
 3611ntf    cn121211   6.702   4.782   3.791  0.4341 -0.6849 -0.0539
 3611ntf    sn221212   6.566   4.715   3.690  0.0729  0.0355 -0.0544
 3611ntf    nn321213   6.652   4.628   3.591  0.2376  0.6629 -0.4667
 3611ntf    sn221214   6.597   4.538   3.475 -0.0986 -0.0093  0.1995
 3611ntf    cn121215   6.608   4.656   3.337  0.2242 -0.3766 -0.0933
 3611ntf    fn421216   6.781   4.865   3.725  0.1151  0.0110  0.4265
 3611ntf    fn421217   6.665   4.837   3.905  0.1248 -0.2341 -0.3692
 3611ntf    fn421218   6.780   4.684   3.833  0.2430 -0.9092 -0.2200
 3611ntf    on521219   6.483   4.642   3.783  0.3094  0.4328  0.4733
 3611ntf    on521220   6.505   4.828   3.626 -0.0974 -0.3617 -0.5990
 3611ntf    on521221   6.457   4.502   3.478 -0.1764  0.2536 -0.2150
 3611ntf    on521222   6.683   4.428   3.438 -0.8911 -0.2519 -0.9712
 3611ntf    fn421223   6.568   4.595   3.227  0.0409  0.4361 -0.4906
 3611ntf    fn421224   6.533   4.763   3.364  0.3585 -0.4857  0.7527
 3611ntf    fn421225   6.728   4.708   3.315  0.2234 -0.1121  0.4966
 3612ntf    cn121226   3.306   1.748   3.031  0.1696 -0.2601 -0.2381
 3612ntf    sn221227   3.168   1.738   2.912 -0.2117 -0.4724  0.2206
 3612ntf    nn321228   3.095   1.871   2.951  0.0093 -0.3900  0.3581
 3612ntf    sn221229   2.954   1.927   2.909  0.3093  0.0508 -0.0732
 3612ntf    cn121230   2.924   2.054   3.036 -0.1362 -0.1491  0.0208
 3612ntf    fn421231   3.276   1.795   3.150  0.5448 -0.2861 -0.1301
 3612ntf    fn421232   3.373   1.634   3.046  0.2445 -0.1757  0.0576
 3612ntf    fn421233   3.389   1.838   2.982 -0.0322  0.0998  0.0845
 3612ntf    on521234   3.234   1.729   2.784 -0.0880  0.3653  0.2216
 3612ntf    on521235   3.105   1.616   2.955 -0.2035 -0.5735 -0.0512
 3612ntf    on521236   2.850   1.828   2.915  0.4165 -0.0705 -0.2146
 3612ntf    on521237   2.973   2.001   2.787 -0.1132  0.4667  0.1097
 3612ntf    fn421238   2.830   2.140   3.001 -0.4464 -0.2746  0.5233
 3612ntf    fn421239   2.892   2.009   3.156  0.0666 -0.3161  0.0138
 3612ntf    fn421240   3.033   2.126   3.055 -0.3491  0.0303  0.5842
 3613ntf    cn121241   0.474   3.119   2.444  0.1799  0.2746 -0.1585
 3613ntf    sn221242   0.603   3.239   2.489  0.3883 -0.0168  0.0259
 3613ntf    nn321243   0.582   3.224   2.644  0.1494 -0.1690 -0.0208
 3613ntf    sn221244   0.466   3.273   2.737  0.2540 -0.2620  0.1585
 3613ntf    cn121245   0.574   3.385   2.831  0.2181  0.0947 -0.2245
 3613ntf    fn421246   0.477   3.105   2.313  0.0508  0.0716 -0.1398
 3613ntf    fn421247   0.487   3.002   2.504  0.3367  0.3343 -0.0767
 3613ntf    fn421248   0.351   3.157   2.476  0.1685  0.0690  0.0446
 3613ntf    on521249   0.723   3.169   2.450  0.2832  0.1701 -0.6397
 3613ntf    on521250   0.575   3.364   2.422 -0.2486 -0.2453 -0.1423
 3613ntf    on521251   0.431   3.171   2.833  0.1449 -0.2176  0.1661
 3613ntf    on521252   0.360   3.353   2.681  0.3209  0.1381  0.5937
 3613ntf    fn421253   0.498   3.466   2.904  0.1373 -0.1562 -0.0293
 3613ntf    fn421254   0.649   3.327   2.923 -0.1368  0.2113  0.1427
 3613ntf    fn421255   0.643   3.471   2.758  0.2164  0.5276  0.2720
 3614ntf    cn121256   5.568   5.231   2.753 -0.3813  0.4179  0.1656
 3614ntf    sn221257   5.480   5.105   2.850  0.2091 -0.4375 -0.4008
 3614ntf    nn321258   5.530   4.964   2.803  0.6008 -0.3771 -0.1708
 3614ntf    sn221259   5.640   4.869   2.863  0.2197 -0.6160  0.1521
 3614ntf    cn121260   5.587   4.713   2.785 -0.2779 -0.1678 -0.4202
 3614ntf    fn421261   5.696   5.222   2.784 -0.5367 -0.5737  0.5506
 3614ntf    fn421262   5.556   5.221   2.621 -0.1785  0.0928  0.1715
 3614ntf    fn421263   5.532   5.357   2.774 -0.3784  0.5129 -0.3839
 3614ntf    on521264   5.507   5.143   2.986  0.2718  0.2705 -0.6051
 3614ntf    on521265   5.343   5.132   2.812  0.2862 -0.2858 -0.5722
 3614ntf    on521266   5.630   4.854   3.006  0.6029 -0.3173  0.2118
 3614ntf    on521267   5.769   4.894   2.804  0.0272 -0.2915 -0.1340
 3614ntf    fn421268   5.654   4.602   2.809 -0.0776  0.1018  0.3148
 3614ntf    fn421269   5.465   4.677   2.820 -0.2334  0.0764  0.0029
 3614ntf    fn421270   5.585   4.736   2.655 -0.5964  0.3781 -0.3240
 3615ntf    cn121271   2.019   2.871   5.058  0.0441  0.3572 -0.1709
 3615ntf    sn221272   1.999   2.928   5.229 -0.1136  0.0618 -0.0905
 3615ntf    nn321273   1.859   2.999   5.216 -0.1219 -0.0333 -0.5254
 3615ntf    sn221274   1.817   3.147   5.246  0.2363 -0.0442  0.0303
 3615ntf    cn121275   1.796   3.121   5.425  0.0124 -0.0593  0.0014
 3615ntf    fn421276   2.143   2.826   5.043  0.2069  0.5875  0.4867
 3615ntf    fn421277   1.933   2.779   5.018  0.0142  0.3384 -0.0606
 3615ntf    fn421278   2.013   2.964   4.963 -0.0397  0.1586 -0.3593
 3615ntf    on521279   1.990   2.801   5.297 -0.5602  0.2835  0.2745
 3615ntf    on521280   2.108   3.019   5.251 -0.1490  0.0922 -0.0393
 3615ntf    on521281   1.682   3.178   5.208  0.2165  0.0031  0.1393
 3615ntf    on521282   1.921   3.244   5.221  0.3624 -0.2884 -0.4103
 3615ntf    fn421283   1.708   3.203   5.482 -0.4838 -0.9487  0.5428
 3615ntf    fn421284   1.760   2.996   5.451  0.1922 -0.1736 -0.2956
 3615ntf    fn421285   1.911   3.136   5.487  0.1964  0.0441 -0.3628
 3616ntf    cn121286   5.603   5.361   1.221  0.3435  0.2814  0.1845
 3616ntf    sn221287   5.488   5.480   1.296 -0.1090 -0.2264  0.2999
 3616ntf    nn321288   5.363   5.463   1.201  0.3943 -0.5528 -0.3105
 3616ntf    sn221289   5.244   5.361   1.215  0.2106 -0.2918  0.0336
 3616ntf    cn121290   5.135   5.460   1.322  0.6326  0.0599  0.1453
 3616ntf    fn421291   5.659   5.410   1.112 -0.7716  0.7917 -0.1721
 3616ntf    fn421292   5.696   5.326   1.308  0.3355 -0.5066 -0.1119
 3616ntf    fn421293   5.546   5.246   1.188 -0.0232  0.5724 -0.2083
 3616ntf    on521294   5.481   5.426   1.430  0.2168 -0.6324  0.1564
 3616ntf    on521295   5.554   5.605   1.271 -0.2058 -0.1349  0.5038
 3616ntf    on521296   5.259   5.246   1.301  0.1108  0.0476  0.5099
 3616ntf    on521297   5.175   5.344   1.090  0.4900 -0.1428 -0.1424
 3616ntf    fn421298   5.031   5.396   1.373 -0.0103  0.6498 -0.4061
 3616ntf    fn421299   5.190   5.508   1.432  0.1076 -0.5514  0.6800
 3616ntf    fn421300   5.081   5.567   1.266 -0.8256 -0.3571  0.6945
 3617ntf    cn121301   2.666   6.239   4.343  0.0169  0.0473 -0.0987
 3617ntf    sn221302   2.497   6.254   4.407  0.0870  0.0363  0.0912
 3617ntf    nn321303   2.501   6.143   4.518  0.3485 -0.1607 -0.1144
 3617ntf    sn221304   2.550   6.146   4.667  0.0174 -0.0764 -0.0065
 3617ntf    cn121305   2.699   6.043   4.653 -0.0885 -0.2647  0.2412
 3617ntf    fn421306   2.697   6.120   4.294 -0.3079 -0.0327 -0.1088
 3617ntf    fn421307   2.688   6.320   4.241  0.8089 -0.3450 -0.2501
 3617ntf    fn421308   2.749   6.281   4.437 -0.4544  0.0879  0.3022
 3617ntf    on521309   2.476   6.392   4.443  0.8674  0.2725 -0.3324
 3617ntf    on521310   2.413   6.219   4.294  1.0078 -0.1932 -0.5336
 3617ntf    on521311   2.461   6.070   4.752  0.2645 -0.0203  0.3053
 3617ntf    on521312   2.598   6.272   4.719 -0.0479  0.2763 -0.7906
 3617ntf    fn421313   2.671   5.917   4.624 -0.2471 -0.1359 -0.1765
 3617ntf    fn421314   2.783   6.092   4.563 -0.4930  0.2354  0.1340
 3617ntf    fn421315   2.767   6.035   4.766  0.0806 -0.5683  0.1181
 3618ntf    cn121316   5.289   6.267   1.134  0.6541 -0.2114 -0.2108
 3618ntf    sn221317   5.330   6.385   1.002 -0.0649  0.2806  0.0022
 3618ntf    nn321318   5.242   6.334   0.882 -0.2131  0.5015  0.0146
 3618ntf    sn221319   5.109   6.387   0.820 -0.1486  0.3107 -0.2872
 3618ntf    cn121320   5.174   6.526   0.723  0.1869  0.4202  0.0914
 3618ntf    fn421321   5.172   6.296   1.188  0.6260 -0.6034 -0.0594
 3618ntf    fn421322   5.288   6.138   1.104 -0.0666 -0.1924 -0.2900
 3618ntf    fn421323   5.372   6.282   1.236 -0.0421 -0.1242  0.3490
 3618ntf    on521324   5.295   6.511   1.064  0.3977  0.3016  0.2262
 3618ntf    on521325   5.472   6.363   0.994 -0.0029  0.5377  0.3494
 3618ntf    on521326   5.022   6.458   0.910  0.3518  0.4327  0.1041
 3618ntf    on521327   5.061   6.297   0.718  0.1552 -0.4402  0.2283
 3618ntf    fn421328   5.196   6.633   0.798 -0.4671  0.5670  0.0799
 3618ntf    fn421329   5.286   6.498   0.658 -0.1363 -0.6648 -0.0303
 3618ntf    fn421330   5.080   6.571   0.641  0.1721  0.3311  0.0600
 3619ntf    cn121331   1.756   2.280   6.765 -0.2392 -0.1187 -0.2793
 3619ntf    sn221332   1.891   2.256   6.645 -0.0622 -0.4382 -0.0160
 3619ntf    nn321333   1.828   2.306   6.510  0.4540  0.3689  0.0316
 3619ntf    sn221334   1.866   2.406   6.395  0.0898  0.4132 -0.0492
 3619ntf    cn121335   1.905   2.283   6.267 -0.1223 -0.3463  0.6042
 3619ntf    fn421336   1.647   2.213   6.731 -0.8232  0.5257  0.2956
 3619ntf    fn421337   1.778   2.253   6.892 -0.4035 -0.3430 -0.2979
 3619ntf    fn421338   1.712   2.405   6.765 -0.0071 -0.0375 -0.0400
 3619ntf    on521339   2.000   2.332   6.702 -0.1868 -0.1949 -0.0959
 3619ntf    on521340   1.910   2.114   6.654  0.8605 -0.3572 -0.5470
 3619ntf    on521341   1.978   2.493   6.420  0.3627  0.1679 -0.4038
 3619ntf    on521342   1.746   2.464   6.339  0.1757  0.2700 -0.3814
 3619ntf    fn421343   1.983   2.181   6.297  0.5737  0.0302  0.0948
 3619ntf    fn421344   1.806   2.229   6.197 -0.1370  0.1010  0.2740
 3619ntf    fn421345   1.964   2.349   6.169 -0.9651  0.6723  0.7610
 3620ntf    cn121346   6.242   5.689   2.424 -0.4080  0.2878 -0.0975
 3620ntf    sn221347   6.125   5.650   2.558 -0.2068 -0.2870 -0.0890
 3620ntf    nn321348   6.226   5.672   2.676 -0.2209  0.3169 -0.1852
 3620ntf    sn221349   6.214   5.761   2.804 -0.4560 -0.2776  0.2126
 3620ntf    cn121350   6.281   5.915   2.734 -0.4385 -0.3638  0.0376
 3620ntf    fn421351   6.179   5.736   2.318  0.0617  0.3057 -0.3697
 3620ntf    fn421352   6.320   5.789   2.463 -0.5966  0.4703 -0.1843
 3620ntf    fn421353   6.317   5.584   2.397 -0.0887  0.2351  0.9588
 3620ntf    on521354   6.022   5.750   2.542  0.0751  0.0190 -0.0040
 3620ntf    on521355   6.104   5.508   2.539 -0.6384 -0.1416 -0.7458
 3620ntf    on521356   6.309   5.712   2.901 -0.4977 -0.0253  0.3818
 3620ntf    on521357   6.082   5.797   2.848 -0.5871 -0.2035 -0.2343
 3620ntf    fn421358   6.383   5.904   2.650 -0.0920  0.0244  0.3997
 3620ntf    fn421359   6.184   5.981   2.673  0.3676  0.0755 -0.7858
 3620ntf    fn421360   6.326   5.995   2.830 -0.1711  0.3071 -0.6327
 3621ntf    cn121361   3.903   1.409   6.978  0.2271 -0.2363 -0.1810
 3621ntf    sn221362   4.039   1.425   6.859  0.2333 -0.1169 -0.1577
 3621ntf    nn321363   4.008   1.570   6.807  0.7714 -0.1026 -0.4408
 3621ntf    sn221364   3.898   1.622   6.708 -0.0030 -0.5985  0.1543
 3621ntf    cn121365   3.995   1.618   6.555 -0.0160  0.1707  0.1228
 3621ntf    fn421366   3.901   1.287   7.030  0.0937 -0.1102  0.1117
 3621ntf    fn421367   3.913   1.491   7.081 -0.4089 -0.4509  0.0601
 3621ntf    fn421368   3.788   1.439   6.919  0.2719  0.6366  0.1694
 3621ntf    on521369   4.159   1.423   6.940  0.1242 -0.0765  0.0058
 3621ntf    on521370   4.025   1.319   6.763  0.2552  0.3315 -0.6619
 3621ntf    on521371   3.858   1.760   6.723  0.2790 -0.4942 -0.0432
 3621ntf    on521372   3.791   1.531   6.676 -0.1005 -0.2292 -0.5771
 3621ntf    fn421373   4.040   1.502   6.509  0.1231  0.4160 -0.3721
 3621ntf    fn421374   3.935   1.668   6.448 -0.0636  0.8872  0.4782
 3621ntf    fn421375   4.102   1.696   6.563 -0.4701  0.8093  0.0947
 3622ntf    cn121376   0.450   6.508   1.726 -0.2932  0.2666  0.1634
 3622ntf    sn221377   0.544   6.657   1.771  0.1131 -0.0146  0.2551
 3622ntf    nn321378   0.560   6.709   1.623  0.1413 -0.0317  0.2523
 3622ntf    sn221379   0.690   6.769   1.559 -0.0232 -0.0432 -0.0908
 3622ntf    cn121380   0.692   6.940   1.620  0.1214  0.0604 -0.3837
 3622ntf    fn421381   0.338   6.544   1.666 -0.2948 -0.1785 -0.0990
 3622ntf    fn421382   0.509   6.429   1.638  0.0360  0.7625 -0.0631
 3622ntf    fn421383   0.418   6.432   1.830 -0.1372  0.1229  0.1076
 3622ntf    on521384   0.445   6.719   1.855  1.0503 -0.1262  1.4774
 3622ntf    on521385   0.672   6.625   1.829  0.1919 -0.6885 -0.2758
 3622ntf    on521386   0.672   6.789   1.417 -0.0997 -0.3610 -0.1273
 3622ntf    on521387   0.812   6.702   1.598 -0.2237 -0.1592  0.3410
 3622ntf    fn421388   0.587   7.012   1.585  0.4819  0.7411 -0.0934
 3622ntf    fn421389   0.704   6.941   1.752  0.4348 -0.1074 -0.4088
 3622ntf    fn421390   0.790   7.014   1.570  0.4627  0.0893  0.3263
 3623ntf    cn121391   6.617   7.114   6.285  0.0067  0.4781  0.5126
 3623ntf    sn221392   6.519   7.267   6.277 -0.1246  0.3703 -0.0474
 3623ntf    nn321393   6.405   7.227   6.176 -0.2632  0.4274  0.0851
 3623ntf    sn221394   6.269   7.155   6.202 -0.1544  0.2592  0.1929
 3623ntf    cn121395   6.171   7.248   6.081  0.1433  0.4541  0.1018
 3623ntf    fn421396   6.736   7.131   6.339  0.8210 -0.0244 -1.0487
 3623ntf    fn421397   6.561   7.022   6.361  0.9148 -0.0310  0.5828
 3623ntf    fn421398   6.641   7.043   6.175  0.6707  0.3621  0.7281
 3623ntf    on521399   6.482   7.285   6.416 -0.0380 -0.2462  0.0591
 3623ntf    on521400   6.602   7.361   6.207 -0.0211 -0.0236 -0.4592
 3623ntf    on521401   6.209   7.180   6.331  0.1365  0.3767  0.3064
 3623ntf    on521402   6.273   7.016   6.164 -0.0457  0.2864  0.1061
 3623ntf    fn421403   6.215   7.238   5.957 -0.0945 -0.4471  0.0865
 3623ntf    fn421404   6.044   7.212   6.077  0.3995 -0.4741  0.1606
 3623ntf    fn421405   6.178   7.375   6.117  0.0237  0.3109  0.6346
 3624ntf    cn121406   6.778   3.587   7.118 -0.0640  0.2757  0.0405
 3624ntf    sn221407   6.908   3.601   6.991 -0.1999  0.2501 -0.1028
 3624ntf    nn321408   6.964   3.744   7.024 -0.5276  0.1803  0.7944
 3624ntf    sn221409   7.071   3.776   7.134 -0.1401 -0.0367  0.4842
 3624ntf    cn121410   7.231   3.758   7.049 -0.1454 -0.1203  0.4921
 3624ntf    fn421411   6.687   3.683   7.107 -0.1904  0.2280  0.6596
 3624ntf    fn421412   6.706   3.478   7.100  0.1658  0.1395 -0.0612
 3624ntf    fn421413   6.829   3.581   7.239  0.0931 -0.3985 -0.0568
 3624ntf    on521414   6.996   3.489   7.011  0.0671  0.4157 -0.3609
 3624ntf    on521415   6.838   3.605   6.865 -0.1737 -0.0535 -0.1288
 3624ntf    on521416   7.082   3.686   7.246  0.0662  0.1497  0.6142
 3624ntf    on521417   7.057   3.916   7.169 -0.4433  0.0813 -0.0957
 3624ntf    fn421418   7.231   3.641   6.988  0.0219  0.4434 -0.6168
 3624ntf    fn421419   7.256   3.842   6.950  0.2041 -0.6105  0.1604
 3624ntf    fn421420   7.329   3.753   7.137  0.3796 -0.1170 -0.0876
 3625ntf    cn121421   3.600   0.751   4.949  0.1588  0.3358 -0.2438
 3625ntf    sn221422   3.519   0.685   4.800  0.0789  0.1275 -0.1092
 3625ntf    nn321423   3.607   0.753   4.689  0.1733  0.0749 -0.0666
 3625ntf    sn221424   3.588   0.885   4.607 -0.0880  0.1286  0.0780
 3625ntf    cn121425   3.710   0.996   4.683  0.7570 -0.7273 -0.0104
 3625ntf    fn421426   3.559   0.876   4.956 -0.1296  0.2118  0.3894
 3625ntf    fn421427   3.569   0.682   5.058  0.4262  0.8772  0.1817
 3625ntf    fn421428   3.732   0.756   4.939  0.1253 -0.0163 -0.9344
 3625ntf    on521429   3.550   0.545   4.815 -0.5863 -0.0642 -0.4801
 3625ntf    on521430   3.379   0.719   4.813  0.1653  0.1590  0.8046
 3625ntf    on521431   3.460   0.950   4.614 -0.1448  0.0352 -0.0942
 3625ntf    on521432   3.637   0.874   4.471 -0.4006  0.0118 -0.0246
 3625ntf    fn421433   3.799   0.934   4.759  0.5314 -0.1077  0.7753
 3625ntf    fn421434   3.778   1.073   4.600  0.4462  0.2172  0.5959
 3625ntf    fn421435   3.643   1.074   4.767 -0.0971  0.0189 -1.3543
 3626ntf    cn121436   1.748   3.729   3.342  0.2682 -0.6847  0.0984
 3626ntf    sn221437   1.885   3.809   3.430  0.1352 -0.0577 -0.2518
 3626ntf    nn321438   1.995   3.697   3.434  0.0663 -0.1199 -0.0860
 3626ntf    sn221439   2.118   3.686   3.531 -0.0987  0.1454  0.1526
 3626ntf    cn121440   2.066   3.552   3.643  0.0739 -0.0453  0.0057
 3626ntf    fn421441   1.651   3.804   3.290  0.4506 -0.4125  0.1471
 3626ntf    fn421442   1.782   3.646   3.245  0.3756 -0.7152  0.1629
 3626ntf    fn421443   1.683   3.649   3.424 -0.0011 -0.8980 -0.3195
 3626ntf    on521444   1.913   3.926   3.351  0.2994  0.1703  0.1379
 3626ntf    on521445   1.831   3.837   3.561  0.6935 -0.8534  0.1613
 3626ntf    on521446   2.155   3.795   3.618 -0.3657  0.0305  0.4138
 3626ntf    on521447   2.229   3.624   3.465 -0.4278 -0.0994 -0.1766
 3626ntf    fn421448   2.168   3.491   3.701  0.1362 -0.0249 -0.0827
 3626ntf    fn421449   1.986   3.583   3.744 -0.1352  0.0893 -0.1981
 3626ntf    fn421450   1.998   3.458   3.580  0.0830  0.7201 -1.1839
 3627ntf    cn121451   4.383   5.543   4.620 -0.2402 -0.4146  0.1259
 3627ntf    sn221452   4.315   5.513   4.454  0.1224 -0.1319 -0.0751
 3627ntf    nn321453   4.160   5.533   4.472  0.1858  0.0052  0.3077
 3627ntf    sn221454   4.050   5.429   4.513 -0.0213  0.0056 -0.2530
 3627ntf    cn121455   3.996   5.386   4.344 -0.1703  0.2037 -0.2560
 3627ntf    fn421456   4.383   5.672   4.645 -0.1339 -0.4736  0.4371
 3627ntf    fn421457   4.321   5.482   4.719  0.1634  0.7744  1.1266
 3627ntf    fn421458   4.511   5.514   4.637 -0.0891  0.4852  0.5694
 3627ntf    on521459   4.384   5.609   4.371  0.5773 -0.6009 -0.2427
 3627ntf    on521460   4.345   5.375   4.424  0.0965 -0.1581  0.0228
 3627ntf    on521461   3.939   5.497   4.575  0.0118 -0.2053  0.0356
 3627ntf    on521462   4.092   5.306   4.575 -0.1277  0.1405  0.0852
 3627ntf    fn421463   3.880   5.324   4.356 -0.2852  0.4074 -0.3152
 3627ntf    fn421464   3.979   5.492   4.267  0.7039  0.3700 -0.2285
 3627ntf    fn421465   4.072   5.305   4.272 -0.1265  0.7203 -0.7910
 3628ntf    cn121466   6.344   6.136   3.957  0.5440 -0.2789  0.1790
 3628ntf    sn221467   6.390   6.308   3.989 -0.0256 -0.0823 -0.0421
 3628ntf    nn321468   6.349   6.387   3.859 -0.1791  0.1785  0.1630
 3628ntf    sn221469   6.232   6.489   3.836 -0.2592  0.1409  0.3924
 3628ntf    cn121470   6.271   6.640   3.929  0.4391  0.3590 -0.2413
 3628ntf    fn421471   6.375   6.052   4.055  0.0569 -0.0335  0.5477
 3628ntf    fn421472   6.213   6.123   3.939  0.5697  0.1832 -0.3260
 3628ntf    fn421473   6.405   6.087   3.851 -0.5354 -0.5437 -0.3367
 3628ntf    on521474   6.311   6.333   4.107 -0.3943 -0.2123 -0.2619
 3628ntf    on521475   6.533   6.313   4.006  0.0511 -0.8130 -0.4421
 3628ntf    on521476   6.107   6.439   3.885 -0.5363 -0.1437 -0.5803
 3628ntf    on521477   6.225   6.537   3.700  0.1660  0.0562  0.3387
 3628ntf    fn421478   6.187   6.736   3.894 -0.2756 -0.2355 -0.1646
 3628ntf    fn421479   6.245   6.623   4.058 -0.2128 -0.3686 -0.4638
 3628ntf    fn421480   6.398   6.674   3.914  0.6692 -0.6012 -0.5474
 3629ntf    cn121481   0.035   5.508   2.439  0.2656 -0.2489  0.2134
 3629ntf    sn221482   0.032   5.684   2.486  0.4941 -0.2776  0.3378
 3629ntf    nn321483   0.182   5.712   2.522  0.3464  0.0794  0.6747
 3629ntf    sn221484   0.295   5.763   2.426 -0.1023  0.0562  0.1267
 3629ntf    cn121485   0.403   5.858   2.538 -0.3139  0.7897 -0.2886
 3629ntf    fn421486   0.121   5.491   2.339 -0.0510  0.5293 -0.2065
 3629ntf    fn421487   0.058   5.424   2.538  0.1369 -0.4166  0.1011
 3629ntf    fn421488  -0.082   5.478   2.386  0.4448  0.2688 -0.4974
 3629ntf    on521489  -0.017   5.748   2.366  0.2785 -0.6348  0.2322
 3629ntf    on521490  -0.054   5.695   2.601 -0.1785 -0.2711 -0.1543
 3629ntf    on521491   0.249   5.859   2.330  0.2800 -0.2693 -0.3870
 3629ntf    on521492   0.378   5.655   2.377 -0.1268  0.2294 -0.2985
 3629ntf    fn421493   0.340   5.945   2.615 -0.1799  0.4539  0.2031
 3629ntf    fn421494   0.467   5.783   2.626 -0.4868  0.8303 -0.1267
 3629ntf    fn421495   0.488   5.932   2.469  0.4554 -0.1022 -0.3093
 3630ntf    cn121496   5.768   3.433   6.758 -0.1114  0.0177 -0.0812
 3630ntf    sn221497   5.753   3.262   6.697  0.2149 -0.1160  0.2025
 3630ntf    nn321498   5.897   3.203   6.712  0.2650 -0.0193  0.1008
 3630ntf    sn221499   5.961   3.101   6.813  0.1200 -0.1686  0.0426
 3630ntf    cn121500   6.117   3.057   6.729  0.4847  0.8736  0.1612
 3630ntf    fn421501   5.803   3.427   6.885  0.1411 -0.2230 -0.1590
 3630ntf    fn421502   5.850   3.517   6.697 -0.3264  0.0552 -0.3216
 3630ntf    fn421503   5.653   3.496   6.757  0.3363  0.8451  0.0575
 3630ntf    on521504   5.655   3.202   6.784 -0.6985  0.0482 -0.6797
 3630ntf    on521505   5.710   3.277   6.560  0.3494  0.5421  0.2287
 3630ntf    on521506   5.896   2.972   6.815 -0.4498  0.1154 -0.0448
 3630ntf    on521507   6.006   3.153   6.940  0.0391  0.1898 -0.0740
 3630ntf    fn421508   6.182   2.967   6.801 -0.1020  0.3815  0.0790
 3630ntf    fn421509   6.092   3.006   6.610 -0.5374 -0.0424  0.7435
 3630ntf    fn421510   6.201   3.157   6.713  1.2392  0.3637  0.8442
 3631ntf    cn121511   2.727   7.198   3.869 -0.2932  0.1052  0.0984
 3631ntf    sn221512   2.708   7.320   3.736  0.1466 -0.2211 -0.2673
 3631ntf    nn321513   2.840   7.305   3.654 -0.0067 -0.5571 -0.4550
 3631ntf    sn221514   2.869   7.327   3.501 -0.3025  0.0246 -0.4302
 3631ntf    cn121515   2.863   7.155   3.441  0.2298 -0.0409 -0.3000
 3631ntf    fn421516   2.611   7.170   3.927 -0.1110 -0.8326  0.0258
 3631ntf    fn421517   2.767   7.075   3.838 -0.2027  0.0925  0.2631
 3631ntf    fn421518   2.809   7.244   3.962 -0.2715 -0.2797  0.2752
 3631ntf    on521519   2.588   7.270   3.673  0.3973 -0.3299 -0.6623
 3631ntf    on521520   2.703   7.447   3.804  0.5004 -0.1379 -0.3984
 3631ntf    on521521   3.000   7.379   3.474 -0.0679 -0.1768  0.3013
 3631ntf    on521522   2.764   7.395   3.430 -0.4533  0.6243  0.3582
 3631ntf    fn421523   2.749   7.094   3.470  0.1627  0.1378 -0.1906
 3631ntf    fn421524   2.881   7.154   3.310 -0.6638  0.7858 -0.4441
 3631ntf    fn421525   2.959   7.085   3.499  0.0382 -0.1576 -0.1210
 3632ntf    cn121526   0.712   5.764   2.789  0.2405 -0.1773  0.3124
 3632ntf    sn221527   0.747   5.936   2.836 -0.1049 -0.0639  0.1610
 3632ntf    nn321528   0.740   5.927   2.993  0.6481  0.5101  0.2374
 3632ntf    sn221529   0.860   5.902   3.091  0.5844  0.1312  0.2190
 3632ntf    cn121530   0.790   5.996   3.230 -0.1508  0.0782 -0.1057
 3632ntf    fn421531   0.791   5.672   2.841  0.2777 -0.1556  0.2949
 3632ntf    fn421532   0.595   5.714   2.826  0.0013  0.3404  0.2722
 3632ntf    fn421533   0.725   5.735   2.661 -0.4627 -0.1841  0.2384
 3632ntf    on521534   0.877   5.962   2.778  0.0795  0.8329  0.9505
 3632ntf    on521535   0.642   6.013   2.775  0.0646  0.0007 -0.0499
 3632ntf    on521536   0.977   5.981   3.065  0.9661 -0.6592 -0.5398
 3632ntf    on521537   0.867   5.764   3.132 -0.2402  0.0584  0.1461
 3632ntf    fn421538   0.779   6.124   3.197  0.2593  0.1448  0.0001
 3632ntf    fn421539   0.671   5.951   3.263 -0.2825 -0.2454 -0.9873
 3632ntf    fn421540   0.865   5.991   3.339  0.0017  0.5450 -0.1868
 3633ntf    cn121541   3.551   7.206   2.940  0.2243 -0.0918  0.2055
 3633ntf    sn221542   3.385   7.167   2.876  0.1832  0.1426  0.1683
 3633ntf    nn321543   3.407   7.017   2.836 -0.5376 -0.0448  0.4715
 3633ntf    sn221544   3.430   6.958   2.692 -0.0914  0.1344  0.4675
 3633ntf    cn121545   3.260   6.917   2.642  0.0895 -0.3416  0.2421
 3633ntf    fn421546   3.571   7.337   2.943 -0.1768 -0.0292  0.2832
 3633ntf    fn421547   3.566   7.176   3.068 -0.3219 -0.1992  0.2481
 3633ntf    fn421548   3.650   7.158   2.868  0.3561  0.7147 -0.1679
 3633ntf    on521549   3.310   7.188   2.997  0.4601  0.5127  0.2813
 3633ntf    on521550   3.355   7.265   2.774 -0.2312  0.4234  0.5602
 3633ntf    on521551   3.479   6.823   2.698  0.8140  0.4517  0.3024
 3633ntf    on521552   3.483   7.049   2.594  0.1961  0.2479  0.7257
 3633ntf    fn421553   3.171   7.012   2.616 -0.0901 -0.4514  0.4505
 3633ntf    fn421554   3.273   6.843   2.533 -0.2038 -0.0642  0.0188
 3633ntf    fn421555   3.196   6.838   2.727  0.3202 -0.0165  0.7206
 3634ntf    cn121556   3.677   4.598   4.283 -0.0098  0.2246 -0.0029
 3634ntf    sn221557   3.616   4.743   4.192 -0.3655  0.3179  0.3826
 3634ntf    nn321558   3.669   4.845   4.300  0.3248  0.1953  0.1640
 3634ntf    sn221559   3.691   4.999   4.282 -0.0327  0.2330  0.0335
 3634ntf    cn121560   3.538   5.048   4.197 -0.2924 -0.4227  0.1142
 3634ntf    fn421561   3.808   4.588   4.265  0.0108  0.1593  0.1811
 3634ntf    fn421562   3.659   4.603   4.414 -0.0439 -0.1112  0.0069
 3634ntf    fn421563   3.617   4.490   4.236  0.5638 -0.4937  0.8693
 3634ntf    on521564   3.678   4.727   4.063  0.1419  0.7369  0.5759
 3634ntf    on521565   3.472   4.731   4.187 -0.2962 -0.4330  0.0630
 3634ntf    on521566   3.796   5.027   4.188  0.4944  0.1101  0.5809
 3634ntf    on521567   3.685   5.072   4.406 -0.0905 -0.0357  0.1904
 3634ntf    fn421568   3.547   5.008   4.072  0.1728 -0.3562  0.1249
 3634ntf    fn421569   3.423   5.005   4.246 -0.3968  0.1198  0.3628
 3634ntf    fn421570   3.524   5.180   4.193 -0.3970 -0.4105  0.7771
 3635ntf    cn121571   4.438   5.236   3.517 -0.0458  0.0916  0.2315
 3635ntf    sn221572   4.301   5.356   3.528 -0.0796  0.0993 -0.2536
 3635ntf    nn321573   4.213   5.305   3.409  0.1928  0.8048 -0.7616
 3635ntf    sn221574   4.069   5.243   3.403  0.2567  0.5887 -0.0826
 3635ntf    cn121575   4.029   5.258   3.227 -0.3212 -0.0188 -0.0073
 3635ntf    fn421576   4.503   5.263   3.405 -0.5493  0.1956 -0.0398
 3635ntf    fn421577   4.529   5.237   3.613  0.3312 -0.2356 -0.1209
 3635ntf    fn421578   4.392   5.114   3.494  0.9621 -0.4225  0.8717
 3635ntf    on521579   4.252   5.345   3.664 -0.5198 -0.0758 -0.4255
 3635ntf    on521580   4.370   5.476   3.490 -0.4894  0.4958  0.2354
 3635ntf    on521581   3.954   5.311   3.456 -0.1518 -0.0815 -0.0896
 3635ntf    on521582   4.065   5.102   3.436  0.3993  0.7039  0.4346
 3635ntf    fn421583   4.122   5.210   3.146 -0.2649  0.0507  0.0160
 3635ntf    fn421584   3.909   5.210   3.197 -0.0733 -0.3223 -0.5275
 3635ntf    fn421585   4.019   5.385   3.191  0.2675  0.0237 -0.0310
 3636ntf    cn121586   2.440   2.900   1.518  0.0333  0.0051  0.3497
 3636ntf    sn221587   2.308   2.935   1.398  0.0461 -0.2700  0.2535
 3636ntf    nn321588   2.255   3.076   1.442 -0.2945 -0.2109 -0.3428
 3636ntf    sn221589   2.154   3.116   1.555  0.1474 -0.2484  0.0637
 3636ntf    cn121590   2.255   3.215   1.670 -0.2126  0.0824  0.0985
 3636ntf    fn421591   2.532   2.994   1.508 -0.0978  0.1105  0.1218
 3636ntf    fn421592   2.399   2.904   1.644  0.1323 -0.0850  0.3847
 3636ntf    fn421593   2.502   2.785   1.499  0.1626  0.2294 -0.6094
 3636ntf    on521594   2.383   2.942   1.275 -0.3265  0.9691  0.0865
 3636ntf    on521595   2.218   2.824   1.416  0.0088 -0.2049  0.4718
 3636ntf    on521596   2.122   3.018   1.656  0.0331  0.0251  0.2974
 3636ntf    on521597   2.043   3.197   1.510 -0.4161 -0.8527  0.3569
 3636ntf    fn421598   2.337   3.142   1.745 -0.1635 -0.2429 -0.2708
 3636ntf    fn421599   2.334   3.300   1.608  0.3570 -0.1316  0.5178
 3636ntf    fn421600   2.181   3.282   1.757 -0.6629 -0.1277 -0.1209
 3637ntf    cn121601   0.181   2.170   5.356 -0.2614  0.0350 -0.0339
 3637ntf    sn221602   0.062   2.075   5.455 -0.2946  0.2426  0.1271
 3637ntf    nn321603   0.090   1.933   5.393 -0.2897  0.3938 -0.2186
 3637ntf    sn221604   0.018   1.796   5.421  0.0304  0.3145  0.2230
 3637ntf    cn121605  -0.001   1.790   5.601  0.5251  0.1447  0.2724
 3637ntf    fn421606   0.297   2.110   5.335 -0.4927 -0.1550 -0.8234
 3637ntf    fn421607   0.143   2.199   5.233  0.0022  0.2475 -0.0662
 3637ntf    fn421608   0.207   2.287   5.412 -0.2222  0.1226 -0.2351
 3637ntf    on521609   0.102   2.089   5.592  0.3720 -0.3835 -0.0001
 3637ntf    on521610  -0.066   2.125   5.409 -0.3437 -0.3378 -0.3811
 3637ntf    on521611   0.101   1.682   5.388 -0.3689  0.2430 -0.5559
 3637ntf    on521612  -0.116   1.786   5.368 -0.0961  0.1511  0.5751
 3637ntf    fn421613  -0.096   1.871   5.645  0.2176  0.1557 -0.4105
 3637ntf    fn421614  -0.023   1.668   5.646 -0.4912  0.0550 -0.4479
 3637ntf    fn421615   0.110   1.829   5.663  0.5287 -0.0994  0.4216
 3638ntf    cn121616   4.777   3.215   2.653  0.2144  0.1452 -0.0874
 3638ntf    sn221617   4.816   3.247   2.828  0.0492 -0.4424  0.0590
 3638ntf    nn321618   4.703   3.354   2.848  0.3212 -0.1119 -0.1527
 3638ntf    sn221619   4.694   3.454   2.968  0.1775 -0.1363 -0.1421
 3638ntf    cn121620   4.547   3.392   3.055  0.1049  0.0004 -0.1653
 3638ntf    fn421621   4.646   3.202   2.638  0.2315 -0.3740  0.1724
 3638ntf    fn421622   4.825   3.312   2.578 -0.0855  0.5164  0.1978
 3638ntf    fn421623   4.834   3.106   2.604 -0.5726 -0.4733  0.3426
 3638ntf    on521624   4.807   3.121   2.898  0.0847 -0.0221  0.8271
 3638ntf    on521625   4.945   3.308   2.809 -0.3785  0.4539  0.0034
 3638ntf    on521626   4.666   3.588   2.921 -0.1280 -0.1603 -0.0312
 3638ntf    on521627   4.799   3.443   3.067  0.1980  0.5024 -0.0861
 3638ntf    fn421628   4.514   3.467   3.159 -0.0661  0.7162 -0.7284
 3638ntf    fn421629   4.438   3.378   2.982  0.1630 -0.7062 -0.1304
 3638ntf    fn421630   4.582   3.274   3.106 -0.2421 -0.0233  0.0161
 3639ntf    cn121631   3.928   5.535   6.153  0.1652 -0.4948  0.0495
 3639ntf    sn221632   3.903   5.641   6.008  0.0624 -0.3503  0.1741
 3639ntf    nn321633   3.824   5.757   6.079  0.0447 -0.1501 -0.1705
 3639ntf    sn221634   3.679   5.809   6.052  0.0440 -0.1519 -0.1713
 3639ntf    cn121635   3.711   5.929   5.920  0.2761  0.0862  0.1004
 3639ntf    fn421636   3.990   5.427   6.107  0.1974 -0.3430 -0.2656
 3639ntf    fn421637   4.002   5.585   6.251 -0.5524 -0.2106  0.4527
 3639ntf    fn421638   3.817   5.494   6.212 -0.0550  0.0916  0.0396
 3639ntf    on521639   4.033   5.682   5.962 -0.2066 -0.1985 -0.4601
 3639ntf    on521640   3.829   5.566   5.910 -0.2222 -0.2072  0.2769
 3639ntf    on521641   3.639   5.892   6.163  0.4709 -0.2302  0.0402
 3639ntf    on521642   3.576   5.727   5.992 -0.3114  0.1000  0.0830
 3639ntf    fn421643   3.614   5.925   5.829  0.8355 -0.6503 -0.4818
 3639ntf    fn421644   3.725   6.055   5.959  0.6299  0.2001 -0.3743
 3639ntf    fn421645   3.814   5.885   5.849 -0.0996 -0.7923  0.0906
 3640ntf    cn121646   5.084   0.815   5.597 -0.3626  0.0129 -0.0148
 3640ntf    sn221647   5.204   0.937   5.661 -0.5462  0.0244  0.3077
 3640ntf    nn321648   5.154   1.060   5.578 -0.5140 -0.0914  0.1141
 3640ntf    sn221649   5.131   1.210   5.619 -0.3868 -0.1912  0.5573
 3640ntf    cn121650   5.199   1.301   5.477 -0.0269 -0.5674  0.4871
 3640ntf    fn421651   5.073   0.816   5.465  0.2005 -0.1043 -0.0674
 3640ntf    fn421652   5.119   0.692   5.630  0.0478  0.1390  0.0308
 3640ntf    fn421653   4.964   0.845   5.643 -0.1915 -0.1895  0.5655
 3640ntf    on521654   5.183   0.948   5.803 -0.7211 -0.0382  0.2870
 3640ntf    on521655   5.331   0.891   5.611 -0.4311  0.4743  0.1874
 3640ntf    on521656   5.220   1.258   5.721  0.8932 -0.6162 -0.3449
 3640ntf    on521657   4.993   1.252   5.618 -0.3920 -0.2150  0.2467
 3640ntf    fn421658   5.301   1.244   5.416 -0.0690 -0.1356  0.0049
 3640ntf    fn421659   5.104   1.311   5.386 -0.0494 -0.5334  0.5140
 3640ntf    fn421660   5.241   1.423   5.508 -0.0635 -0.4736  0.1657
 3641ntf    cn121661   6.810   0.227   4.259 -0.1479 -0.0073  0.2032
 3641ntf    sn221662   6.768   0.099   4.137  0.3180 -0.3693  0.4183
 3641ntf    nn321663   6.904   0.108   4.059  0.1892  0.1761  0.2466
 3641ntf    sn221664   6.983  -0.011   3.993 -0.1018  0.1181  0.0025
 3641ntf    cn121665   7.101   0.070   3.881  0.1269  0.0635  0.2055
 3641ntf    fn421666   6.888   0.177   4.352  0.0087 -0.0271  0.0619
 3641ntf    fn421667   6.870   0.332   4.205  0.3701 -0.2412  0.3159
 3641ntf    fn421668   6.702   0.275   4.319 -0.3818 -0.4090  0.1087
 3641ntf    on521669   6.748  -0.023   4.210  0.0879 -0.5038  0.1336
 3641ntf    on521670   6.663   0.167   4.065  0.7768  0.2071  0.2845
 3641ntf    on521671   6.895  -0.086   3.906 -1.1298  0.4453  0.7478
 3641ntf    on521672   7.067  -0.085   4.084 -0.4025  0.7700  0.8209
 3641ntf    fn421673   7.167  -0.022   3.813 -0.2465  0.0378 -0.1200
 3641ntf    fn421674   7.033   0.143   3.794  0.2994  0.2746  0.2456
 3641ntf    fn421675   7.194   0.140   3.944 -0.1308  0.5254  0.0813
 3642ntf    cn121676   1.900   6.735   3.885  0.1889 -0.1213  0.1974
 3642ntf    sn221677   2.046   6.677   3.792 -0.0428  0.0358 -0.2661
 3642ntf    nn321678   2.127   6.808   3.763  0.2717  0.0096  0.4621
 3642ntf    sn221679   2.229   6.835   3.647 -0.1393  0.0929  0.1185
 3642ntf    cn121680   2.135   6.923   3.518  0.3464  0.1553 -0.1967
 3642ntf    fn421681   1.865   6.646   3.977 -0.4569 -0.3537 -0.2689
 3642ntf    fn421682   1.924   6.855   3.936 -0.0193  0.1433 -0.3240
 3642ntf    fn421683   1.805   6.745   3.795 -0.2444 -0.2787  0.6343
 3642ntf    on521684   2.115   6.601   3.894 -0.4633  0.5747  0.4312
 3642ntf    on521685   1.987   6.601   3.685 -0.2453  0.0583 -0.1723
 3642ntf    on521686   2.259   6.716   3.572  0.2571  0.2692 -0.0061
 3642ntf    on521687   2.334   6.929   3.676 -0.2902  0.4698 -0.5115
 3642ntf    fn421688   2.005   6.900   3.522  0.4524 -0.3574  0.6179
 3642ntf    fn421689   2.149   7.052   3.543  0.1951  0.1656 -0.1607
 3642ntf    fn421690   2.177   6.904   3.394 -0.1364 -0.1735 -0.3109
 3643ntf    cn121691   1.625   4.293   2.701 -0.0473  0.0607  0.1607
 3643ntf    sn221692   1.784   4.292   2.612 -0.0272  0.1201  0.1961
 3643ntf    nn321693   1.838   4.436   2.642  0.4583 -0.0588  0.1943
 3643ntf    sn221694   1.874   4.547   2.536 -0.0568  0.0417  0.1214
 3643ntf    cn121695   1.896   4.681   2.657  0.1183  0.2952 -0.1903
 3643ntf    fn421696   1.547   4.391   2.658 -0.1068 -0.0968 -0.0982
 3643ntf    fn421697   1.555   4.184   2.673  0.0407  0.1458 -0.4049
 3643ntf    fn421698   1.631   4.294   2.833  1.0619  0.5099  0.1221
 3643ntf    on521699   1.860   4.183   2.667 -0.5052 -0.4410 -0.2349
 3643ntf    on521700   1.745   4.274   2.474  0.2408 -0.5096  0.2029
 3643ntf    on521701   1.759   4.596   2.464 -0.1758  0.4385  0.5744
 3643ntf    on521702   2.005   4.530   2.480  0.1027  0.2711  0.4184
 3643ntf    fn421703   1.941   4.631   2.771 -0.0621 -0.0860 -0.2864
 3643ntf    fn421704   1.974   4.781   2.620  0.4232  0.0821 -0.1274
 3643ntf    fn421705   1.778   4.728   2.694 -0.0465 -0.1935 -0.0918
 3644ntf    cn121706   0.358   5.240   6.789 -0.3995  0.1110 -0.0344
 3644ntf    sn221707   0.339   5.417   6.752  0.0057  0.0941 -0.3273
 3644ntf    nn321708   0.455   5.448   6.651  0.1477  0.1036 -0.1619
 3644ntf    sn221709   0.497   5.584   6.585  0.1302  0.0713 -0.2379
 3644ntf    cn121710   0.456   5.544   6.412  0.2797 -0.6466 -0.1091
 3644ntf    fn421711   0.481   5.200   6.816 -0.2679  0.5725  0.0474
 3644ntf    fn421712   0.288   5.192   6.891 -0.0774 -0.0623  0.1054
 3644ntf    fn421713   0.315   5.168   6.687 -0.3627  0.0144  0.0171
 3644ntf    on521714   0.204   5.425   6.701 -0.4122 -0.6810  0.6190
 3644ntf    on521715   0.362   5.481   6.879 -1.1323  0.1405 -0.1333
 3644ntf    on521716   0.640   5.594   6.569  0.0669  0.0457 -0.8411
 3644ntf    on521717   0.423   5.703   6.623  0.9003  0.2806  0.6460
 3644ntf    fn421718   0.477   5.418   6.379 -0.1532 -0.6510 -0.3733
 3644ntf    fn421719   0.326   5.563   6.394  0.3689 -0.3141 -0.4227
 3644ntf    fn421720   0.518   5.621   6.324 -0.5623 -0.5396 -0.6211
 3645ntf    cn121721   0.483   5.182   5.591  0.1555 -0.2597 -0.0239
 3645ntf    sn221722   0.468   5.300   5.455 -0.3746 -0.3463 -0.0435
 3645ntf    nn321723   0.523   5.204   5.343 -0.3849 -1.2266  0.6955
 3645ntf    sn221724   0.462   5.137   5.215 -0.3300 -0.0051  0.0110
 3645ntf    cn121725   0.445   4.964   5.268  0.0666 -0.0916 -0.1364
 3645ntf    fn421726   0.434   5.061   5.566  0.3199 -0.2171 -0.5498
 3645ntf    fn421727   0.608   5.161   5.630  0.3193 -0.0248 -0.4198
 3645ntf    fn421728   0.419   5.219   5.701  0.0655  0.1395 -0.2123
 3645ntf    on521729   0.328   5.335   5.448 -0.2974 -0.0822 -0.2940
 3645ntf    on521730   0.561   5.404   5.493 -0.1877 -0.3109 -0.5882
 3645ntf    on521731   0.556   5.120   5.107  0.2066  0.8078  0.3411
 3645ntf    on521732   0.328   5.173   5.176 -0.5186 -0.4642  0.2344
 3645ntf    fn421733   0.550   4.929   5.340  0.0889  0.3625  0.0546
 3645ntf    fn421734   0.339   4.952   5.347 -0.0674  0.0459 -0.2946
 3645ntf    fn421735   0.434   4.882   5.165 -0.1804 -0.2123 -0.0148
 3646ntf    cn121736   1.204   1.432   1.352 -0.1853 -0.2898  0.1285
 3646ntf    sn221737   1.376   1.489   1.338 -0.3017 -0.0329 -0.2603
 3646ntf    nn321738   1.396   1.529   1.489 -0.3834  0.3782 -0.3584
 3646ntf    sn221739   1.355   1.668   1.549 -0.3542  0.2123  0.0458
 3646ntf    cn121740   1.517   1.749   1.561 -0.0663 -0.3145 -0.2775
 3646ntf    fn421741   1.194   1.349   1.455  0.6322  0.4109  0.7857
 3646ntf    fn421742   1.123   1.533   1.377  0.1782  0.0741 -0.1536
 3646ntf    fn421743   1.165   1.372   1.241  0.4653 -0.0194 -0.2487
 3646ntf    on521744   1.441   1.367   1.299 -0.0303 -0.0056  0.0948
 3646ntf    on521745   1.380   1.599   1.245 -0.2680 -0.1889 -0.4440
 3646ntf    on521746   1.309   1.654   1.686 -0.1526  0.5720  0.1506
 3646ntf    on521747   1.268   1.753   1.471  0.2060  0.1300 -0.6773
 3646ntf    fn421748   1.566   1.742   1.683 -0.5705 -0.7325 -0.0954
 3646ntf    fn421749   1.612   1.701   1.483  0.3558 -0.1320  0.1197
 3646ntf    fn421750   1.523   1.880   1.545  0.1077 -0.2643  0.1912
 3647ntf    cn121751   6.376   0.338   5.805  0.3452 -0.1447  0.2147
 3647ntf    sn221752   6.507   0.457   5.763  0.2742 -0.2360 -0.2799
 3647ntf    nn321753   6.459   0.577   5.852  0.4315 -0.0787 -0.4056
 3647ntf    sn221754   6.537   0.692   5.925  0.0878  0.0853 -0.2954
 3647ntf    cn121755   6.444   0.837   5.866  0.1222  0.2793  0.1196
 3647ntf    fn421756   6.259   0.397   5.786  0.1579 -0.4722  0.3548
 3647ntf    fn421757   6.370   0.227   5.734 -0.3150  0.1839 -0.2577
 3647ntf    fn421758   6.383   0.298   5.931  0.0027 -0.1147  0.2446
 3647ntf    on521759   6.629   0.390   5.803  0.5955  0.8610  0.6365
 3647ntf    on521760   6.487   0.488   5.624  0.1411  0.1777 -0.1698
 3647ntf    on521761   6.671   0.708   5.875  0.4656 -0.5925  0.4780
 3647ntf    on521762   6.529   0.697   6.069  0.4000  0.1521 -0.2799
 3647ntf    fn421763   6.422   0.825   5.736 -0.3514 -0.1838  0.2368
 3647ntf    fn421764   6.329   0.849   5.930 -0.6031  0.1891 -1.1323
 3647ntf    fn421765   6.511   0.949   5.884  0.0876  0.3500 -0.1770
 3648ntf    cn121766   1.599   4.070   1.338 -0.0777  0.3265  0.2977
 3648ntf    sn221767   1.485   3.933   1.300  0.4589  0.0644 -0.4070
 3648ntf    nn321768   1.355   3.974   1.378  0.5575 -0.2870 -0.0554
 3648ntf    sn221769   1.206   3.956   1.331  0.5427 -0.1439 -0.0625
 3648ntf    cn121770   1.128   3.959   1.496 -0.1410 -0.1115 -0.3808
 3648ntf    fn421771   1.584   4.101   1.465 -0.8602 -0.0417  0.3017
 3648ntf    fn421772   1.728   4.041   1.323 -0.0941  0.1272  0.5326
 3648ntf    fn421773   1.580   4.185   1.276  0.0953  0.2297  0.0607
 3648ntf    on521774   1.477   3.933   1.156  0.0253  0.0818 -0.3839
 3648ntf    on521775   1.549   3.819   1.360 -0.2651  0.0907  0.4298
 3648ntf    on521776   1.181   3.823   1.282  0.4353 -0.5663  1.0942
 3648ntf    on521777   1.145   4.068   1.264  0.3414  0.3106  0.8582
 3648ntf    fn421778   1.138   3.849   1.568  0.1909  0.3825  0.3390
 3648ntf    fn421779   1.176   4.052   1.577  0.1625 -0.5136 -0.0945
 3648ntf    fn421780   1.001   3.995   1.496 -0.2467 -0.4858 -0.4650
 3649ntf    cn121781   4.055   4.627   4.789  0.0779 -0.0107  0.1669
 3649ntf    sn221782   4.044   4.595   4.610 -0.2096  0.1656  0.1505
 3649ntf    nn321783   3.990   4.448   4.609  0.2828 -0.0248  0.5623
 3649ntf    sn221784   4.035   4.329   4.517  0.1952  0.4430 -0.0920
 3649ntf    cn121785   3.867   4.282   4.466  0.2334 -0.0191  0.2012
 3649ntf    fn421786   4.140   4.544   4.846  0.1289  0.1721  0.3567
 3649ntf    fn421787   4.106   4.746   4.816  0.2376 -0.0600  0.0797
 3649ntf    fn421788   3.943   4.614   4.858 -0.3750  0.2979 -0.4942
 3649ntf    on521789   3.950   4.691   4.560 -0.3721 -0.2326 -0.3095
 3649ntf    on521790   4.179   4.604   4.560 -0.1008  0.1693  0.4439
 3649ntf    on521791   4.084   4.210   4.582 -0.7230 -0.1106 -0.3992
 3649ntf    on521792   4.096   4.368   4.392  0.3925  0.4729  0.0127
 3649ntf    fn421793   3.872   4.188   4.373 -0.4388 -0.0931  0.2351
 3649ntf    fn421794   3.788   4.230   4.558 -0.2356  0.1174 -0.1184
 3649ntf    fn421795   3.799   4.382   4.412  0.9945  0.3910 -0.0144
 3650ntf    cn121796   4.778   5.838   2.171 -0.4661  0.4108 -0.0987
 3650ntf    sn221797   4.958   5.864   2.165 -0.4192  0.1629  0.2178
 3650ntf    nn321798   4.978   5.960   2.288 -0.0370  0.4492 -0.0654
 3650ntf    sn221799   4.989   6.116   2.290  0.0254  0.4364  0.6027
 3650ntf    cn121800   5.170   6.134   2.279 -0.0114  0.5152  0.1002
 3650ntf    fn421801   4.738   5.739   2.093 -0.2352  0.3298 -0.1151
 3650ntf    fn421802   4.729   5.810   2.290 -0.1129 -0.0815 -0.0692
 3650ntf    fn421803   4.725   5.949   2.121 -0.1976  0.6104  0.0520
 3650ntf    on521804   5.007   5.732   2.195 -0.6079 -0.0065 -0.2101
 3650ntf    on521805   4.971   5.914   2.030  0.4821 -0.1320  0.1893
 3650ntf    on521806   4.957   6.168   2.421  1.0663  0.3959  0.8844
 3650ntf    on521807   4.930   6.190   2.181 -0.3889 -0.1982  0.3952
 3650ntf    fn421808   5.243   6.083   2.377  0.4201 -0.0322 -0.5020
 3650ntf    fn421809   5.216   6.058   2.181 -0.7762  0.2873 -0.0916
 3650ntf    fn421810   5.203   6.261   2.263  0.9496  0.1723 -0.7371
 3651ntf    cn121811   0.500   0.409   3.913  0.2208  0.0604 -0.0427
 3651ntf    sn221812   0.335   0.405   3.836  0.0830 -0.2178  0.2589
 3651ntf    nn321813   0.349   0.276   3.748  0.2251  0.0617 -0.1345
 3651ntf    sn221814   0.229   0.190   3.694  0.2692 -0.0284 -0.0889
 3651ntf    cn121815   0.308   0.110   3.552  0.3378  0.2034 -0.1817
 3651ntf    fn421816   0.513   0.299   3.985 -0.4531  0.2610  0.4034
 3651ntf    fn421817   0.601   0.408   3.828  0.2710  0.2755  0.0148
 3651ntf    fn421818   0.510   0.507   4.001  0.5133 -0.0401  0.0357
 3651ntf    on521819   0.250   0.400   3.952 -0.4926 -0.2182 -0.1618
 3651ntf    on521820   0.324   0.522   3.751 -0.1999 -0.1361  0.4077
 3651ntf    on521821   0.119   0.255   3.627  0.2883 -0.0669 -0.1582
 3651ntf    on521822   0.194   0.081   3.783  0.0267  0.5670  0.5547
 3651ntf    fn421823   0.375   0.198   3.480  0.7743 -0.0049 -0.0365
 3651ntf    fn421824   0.398   0.027   3.603 -0.0205 -0.0029  0.1150
 3651ntf    fn421825   0.226   0.044   3.471  0.4355  0.0929 -0.1918
 3652ntf    cn121826   4.680   2.818   2.295  0.0448  0.1794 -0.0508
 3652ntf    sn221827   4.628   2.741   2.139 -0.0492 -0.2351  0.1806
 3652ntf    nn321828   4.491   2.676   2.181  0.1087 -0.6925 -0.0024
 3652ntf    sn221829   4.341   2.718   2.163  0.3314  0.0858 -0.0884
 3652ntf    cn121830   4.309   2.760   2.337  0.2109 -0.2541 -0.0285
 3652ntf    fn421831   4.682   2.724   2.389  0.0793  0.2473  0.0161
 3652ntf    fn421832   4.799   2.874   2.284  0.0775  0.0272 -0.4920
 3652ntf    fn421833   4.601   2.915   2.338  0.2961  0.3532  0.0186
 3652ntf    on521834   4.631   2.859   2.055  0.2549 -0.3570  0.0176
 3652ntf    on521835   4.737   2.651   2.111  0.0326 -0.1573  0.2509
 3652ntf    on521836   4.263   2.601   2.133  0.2242  0.1138  0.0809
 3652ntf    on521837   4.318   2.833   2.079 -0.1192 -0.0711 -0.1815
 3652ntf    fn421838   4.345   2.664   2.420  0.5508 -0.1792 -0.0873
 3652ntf    fn421839   4.378   2.870   2.363  0.2484 -0.2831 -0.0069
 3652ntf    fn421840   4.182   2.790   2.358  0.3164  0.0124  0.2309
 3653ntf    cn121841   3.156   2.008   5.996 -0.1563 -0.0629 -0.1559
 3653ntf    sn221842   2.983   2.061   6.001 -0.0884  0.1553 -0.0873
 3653ntf    nn321843   2.934   2.011   5.861 -0.5085 -0.0212  0.1185
 3653ntf    sn221844   2.891   2.093   5.734 -0.2822  0.2712  0.2291
 3653ntf    cn121845   2.741   2.002   5.687 -0.0772  0.0176  0.0590
 3653ntf    fn421846   3.228   2.093   5.924 -0.7615  0.4108 -0.2106
 3653ntf    fn421847   3.220   2.001   6.112 -0.0609  0.4798 -0.1721
 3653ntf    fn421848   3.171   1.887   5.945  0.1706 -0.2535  0.3842
 3653ntf    on521849   2.930   1.984   6.111 -0.8616  0.2003 -0.4195
 3653ntf    on521850   2.992   2.202   6.031  0.3664  0.1795 -0.3401
 3653ntf    on521851   2.985   2.053   5.632 -0.2937  0.6266  0.0767
 3653ntf    on521852   2.849   2.231   5.743 -0.2680  0.3004 -0.1352
 3653ntf    fn421853   2.667   1.997   5.796 -0.0307 -0.2077  0.0808
 3653ntf    fn421854   2.672   2.055   5.588  0.2206 -0.1482 -0.2390
 3653ntf    fn421855   2.778   1.883   5.644  0.6613  0.4202 -0.4427
 3654ntf    cn121856   2.468   3.359   0.414 -0.6660 -0.2507  0.0921
 3654ntf    sn221857   2.298   3.368   0.348 -0.6485 -0.1833  0.0571
 3654ntf    nn321858   2.217   3.432   0.467 -0.0420  0.2342  0.2518
 3654ntf    sn221859   2.083   3.397   0.540  0.0428 -0.0706  0.2602
 3654ntf    cn121860   1.977   3.513   0.449 -0.0513 -0.5410 -0.2381
 3654ntf    fn421861   2.517   3.475   0.455 -0.1508 -0.3944 -0.1131
 3654ntf    fn421862   2.469   3.281   0.520  0.2448 -0.1290  0.1795
 3654ntf    fn421863   2.553   3.293   0.337 -0.1878  0.2525  0.1852
 3654ntf    on521864   2.309   3.460   0.238 -0.1998  0.1553  0.3800
 3654ntf    on521865   2.275   3.229   0.321  0.5540 -0.3290 -0.2828
 3654ntf    on521866   2.072   3.434   0.679 -0.8663  0.0887  0.1526
 3654ntf    on521867   2.032   3.267   0.502  0.4294 -0.0875 -0.2119
 3654ntf    fn421868   1.853   3.475   0.426 -0.4499  0.3822  0.3229
 3654ntf    fn421869   1.976   3.633   0.506 -0.1980 -0.8616  0.4487
 3654ntf    fn421870   2.024   3.533   0.327  0.0732 -0.3744 -0.1633
 3655ntf    cn121871   0.423   6.457   7.134  0.4583 -0.2907  0.1558
 3655ntf    sn221872   0.584   6.417   7.059  0.2234 -0.0594 -0.4834
 3655ntf    nn321873   0.585   6.475   6.913 -0.4189  0.7508 -0.1776
 3655ntf    sn221874   0.519   6.408   6.788  0.2790  0.3566 -0.3429
 3655ntf    cn121875   0.671   6.341   6.713  0.2758 -0.0113 -0.0216
 3655ntf    fn421876   0.378   6.580   7.111 -0.3872 -0.4742  0.7652
 3655ntf    fn421877   0.338   6.373   7.078  0.4695 -0.1894 -0.0151
 3655ntf    fn421878   0.411   6.428   7.262  0.4872  0.1706  0.2633
 3655ntf    on521879   0.667   6.500   7.143  0.3790  0.2662 -0.9539
 3655ntf    on521880   0.585   6.274   7.077 -0.0032  0.0689  0.6771
 3655ntf    on521881   0.474   6.512   6.698 -0.0312  0.5521  0.0376
 3655ntf    on521882   0.429   6.297   6.808 -0.2588  0.8218 -0.1400
 3655ntf    fn421883   0.746   6.440   6.666 -0.1684  0.1643 -0.3789
 3655ntf    fn421884   0.731   6.277   6.812  0.1316 -0.4876 -0.2416
 3655ntf    fn421885   0.648   6.267   6.606  0.2994  0.3150 -0.2553
 3656ntf    cn121886   7.048   1.732   2.666 -0.1676 -0.1571  0.8042
 3656ntf    sn221887   6.971   1.897   2.664 -0.1612 -0.1595 -0.1815
 3656ntf    nn321888   6.897   1.903   2.802 -0.2255 -0.0741 -0.2199
 3656ntf    sn221889   6.744   1.912   2.839 -0.2643 -0.1163 -0.3713
 3656ntf    cn121890   6.722   1.751   2.920 -0.0884  0.0846  0.0747
 3656ntf    fn421891   7.128   1.712   2.769  1.6023  0.2940 -0.4365
 3656ntf    fn421892   6.955   1.638   2.660 -0.1909 -0.0893  0.0630
 3656ntf    fn421893   7.128   1.720   2.561 -0.6506  0.8339  0.2996
 3656ntf    on521894   7.082   1.988   2.678 -0.3020 -0.0071 -0.0507
 3656ntf    on521895   6.894   1.897   2.542 -0.8808 -0.3848  0.2631
 3656ntf    on521896   6.647   1.901   2.732 -0.1375  0.1004 -0.5094
 3656ntf    on521897   6.719   2.002   2.949 -0.0900 -0.2585 -0.2148
 3656ntf    fn421898   6.599   1.741   2.969 -0.0939  0.1769  0.0803
 3656ntf    fn421899   6.727   1.647   2.839  0.2926 -0.1360  0.3758
 3656ntf    fn421900   6.805   1.729   3.021 -0.1560 -0.7550 -0.0440
 3657ntf    cn121901   3.324   2.812   7.188 -0.1529 -0.0444  0.1372
 3657ntf    sn221902   3.297   2.753   7.018 -0.0658 -0.2820  0.2055
 3657ntf    nn321903   3.237   2.881   6.950  0.5327 -0.0448  0.1168
 3657ntf    sn221904   3.298   2.974   6.839 -0.1757  0.1066 -0.1505
 3657ntf    cn121905   3.142   3.052   6.788 -0.1813  0.1307 -0.0963
 3657ntf    fn421906   3.209   2.824   7.252 -0.2031 -0.1512  0.0692
 3657ntf    fn421907   3.400   2.727   7.254  0.2704 -0.4769 -0.8838
 3657ntf    fn421908   3.385   2.929   7.195  0.2483 -0.2812  0.5857
 3657ntf    on521909   3.426   2.718   6.963 -0.1907 -0.2650 -0.0993
 3657ntf    on521910   3.206   2.642   7.032 -0.2951 -0.0944  0.2106
 3657ntf    on521911   3.345   2.910   6.718  0.4323  0.0033  0.1390
 3657ntf    on521912   3.376   3.087   6.881 -0.2994  0.2754 -0.3748
 3657ntf    fn421913   3.089   3.129   6.882 -0.1303  0.0382  0.0076
 3657ntf    fn421914   3.144   3.132   6.682 -0.5407  0.1851 -0.0640
 3657ntf    fn421915   3.057   2.956   6.752  0.5604 -0.6455  0.1983
 3658ntf    cn121916   1.964   0.713   2.524 -0.3095 -0.2564 -0.0116
 3658ntf    sn221917   1.904   0.774   2.684  0.0417  0.2446 -0.0698
 3658ntf    nn321918   2.037   0.767   2.768 -0.3068  0.1847  0.4869
 3658ntf    sn221919   2.074   0.860   2.889  0.4589 -0.0917  0.4706
 3658ntf    cn121920   2.244   0.893   2.835  0.0688  0.1513 -0.6346
 3658ntf    fn421921   2.036   0.797   2.453 -0.8290  0.2327  0.0322
 3658ntf    fn421922   2.037   0.602   2.531 -0.0064 -0.0349  0.3851
 3658ntf    fn421923   1.859   0.687   2.448 -0.1551 -0.0075 -0.3086
 3658ntf    on521924   1.857   0.907   2.657 -0.6556 -0.1199 -0.6812
 3658ntf    on521925   1.817   0.669   2.733  0.0795  0.2386 -0.0154
 3658ntf    on521926   2.095   0.786   3.011 -0.1663 -0.0793  0.5924
 3658ntf    on521927   2.003   0.985   2.899  0.2818 -0.1883  0.4322
 3658ntf    fn421928   2.330   0.803   2.879 -0.1727  0.1871 -0.0728
 3658ntf    fn421929   2.251   0.895   2.703  0.0011 -0.3760 -0.6454
 3658ntf    fn421930   2.296   1.001   2.892 -0.1388 -0.2000  0.2338
 3659ntf    cn121931   5.536   4.967   2.194  0.2241  0.3835 -0.2040
 3659ntf    sn221932   5.461   5.039   2.045 -0.1423  0.1866 -0.1146
 3659ntf    nn321933   5.588   5.003   1.961 -0.1079  0.4661 -0.1835
 3659ntf    sn221934   5.587   4.990   1.804 -0.1303 -0.2195 -0.1314
 3659ntf    cn121935   5.593   4.810   1.782 -0.4753 -0.2231 -0.2104
 3659ntf    fn421936   5.447   4.945   2.289  0.2565 -0.0788 -0.2772
 3659ntf    fn421937   5.594   4.850   2.173 -0.3782  0.0021  0.2335
 3659ntf    fn421938   5.629   5.047   2.244  0.1720  0.5501 -0.3716
 3659ntf    on521939   5.339   4.964   2.022  0.2207 -0.5517  0.3373
 3659ntf    on521940   5.451   5.176   2.086 -0.5056  0.1464 -0.0610
 3659ntf    on521941   5.713   5.028   1.745 -0.2815 -0.0339 -0.3390
 3659ntf    on521942   5.469   5.030   1.731  0.0670 -0.1795 -0.4275
 3659ntf    fn421943   5.598   4.769   1.657  0.1229 -0.0337 -0.2542
 3659ntf    fn421944   5.700   4.754   1.837  0.1667  0.7574 -0.4413
 3659ntf    fn421945   5.483   4.768   1.842 -0.3023 -0.2162  0.1160
 3660ntf    cn121946   0.835   4.479   2.244  0.3618 -0.2388  0.2661
 3660ntf    sn221947   0.767   4.585   2.375 -0.0946  0.0117 -0.1744
 3660ntf    nn321948   0.671   4.489   2.453  0.1688 -0.2072 -0.1216
 3660ntf    sn221949   0.605   4.526   2.591  0.0189 -0.3724 -0.1479
 3660ntf    cn121950   0.711   4.435   2.708  0.0439 -0.3906 -0.1842
 3660ntf    fn421951   0.854   4.356   2.289  0.4659 -0.0445  0.7610
 3660ntf    fn421952   0.754   4.488   2.141  0.8111  0.3548 -0.0391
 3660ntf    fn421953   0.947   4.530   2.195  0.1560  0.3482  0.4037
 3660ntf    on521954   0.884   4.611   2.455  0.0541 -0.2455 -0.3062
 3660ntf    on521955   0.701   4.693   2.305  0.2206  0.6117  0.4512
 3660ntf    on521956   0.472   4.473   2.605  0.2127 -0.8219  0.0418
 3660ntf    on521957   0.612   4.666   2.623 -0.8558 -0.4265  0.3145
 3660ntf    fn421958   0.829   4.416   2.651 -0.1243  0.0891 -0.6956
 3660ntf    fn421959   0.722   4.498   2.824  0.4611  0.3022 -0.5929
 3660ntf    fn421960   0.663   4.316   2.740 -0.0924 -0.3997 -0.4222
 3661ntf    cn121961   4.940   4.789   5.287 -0.2440  0.2400 -0.6214
 3661ntf    sn221962   5.042   4.648   5.234 -0.2511  0.1427 -0.3769
 3661ntf    nn321963   5.146   4.731   5.150  0.0125  0.1389 -0.0553
 3661ntf    sn221964   5.160   4.735   4.994  0.4057 -0.2949 -0.0348
 3661ntf    cn121965   5.214   4.566   4.954  0.1459 -0.4561  0.2889
 3661ntf    fn421966   4.867   4.837   5.187 -0.1613 -0.1728 -0.8846
 3661ntf    fn421967   4.855   4.758   5.383 -0.1120 -0.1114 -0.6173
 3661ntf    fn421968   5.009   4.895   5.326 -0.0751 -0.3064  0.5769
 3661ntf    on521969   5.106   4.604   5.355 -0.5695  0.7166  0.0064
 3661ntf    on521970   4.949   4.562   5.167 -0.0393 -0.2079 -0.2222
 3661ntf    on521971   5.269   4.817   4.948  0.5290 -0.3174  0.2157
 3661ntf    on521972   5.035   4.759   4.926  0.3665 -0.2690  0.0465
 3661ntf    fn421973   5.235   4.557   4.824  0.2588 -0.2600  0.2921
 3661ntf    fn421974   5.332   4.542   5.010  0.3059  0.1357  0.2147
 3661ntf    fn421975   5.131   4.470   4.990 -0.2692 -0.1163  0.2355
 3662ntf    cn121976   7.167   4.395   2.305 -0.1308  0.2153 -0.0194
 3662ntf    sn221977   7.001   4.377   2.376 -0.0390  0.4145  0.2440
 3662ntf    nn321978   6.982   4.513   2.452 -0.6348  0.5501 -0.1453
 3662ntf    sn221979   6.983   4.523   2.609  0.3281  0.2675 -0.1302
 3662ntf    cn121980   6.831   4.437   2.658  0.3733  0.2687  0.0135
 3662ntf    fn421981   7.220   4.283   2.259  0.2305  0.4926 -0.2848
 3662ntf    fn421982   7.169   4.478   2.202 -0.5741  0.4304  0.1452
 3662ntf    fn421983   7.256   4.438   2.393  0.3554  0.3578 -0.5704
 3662ntf    on521984   6.924   4.382   2.254  0.3461  0.9348  0.0225
 3662ntf    on521985   7.013   4.249   2.443 -0.0985  0.4473  0.3168
 3662ntf    on521986   6.955   4.661   2.641 -0.2296  0.1911 -0.2900
 3662ntf    on521987   7.093   4.456   2.674 -0.1844 -0.5981 -0.1433
 3662ntf    fn421988   6.822   4.440   2.790 -0.2645 -0.5035 -0.0046
 3662ntf    fn421989   6.722   4.496   2.611  0.2814 -0.3278 -0.5314
 3662ntf    fn421990   6.823   4.314   2.610 -0.3792  0.3554 -0.0948
 3663ntf    cn121991   4.004   1.591   5.161  0.0735 -0.0270  0.0633
 3663ntf    sn221992   3.831   1.567   5.110  0.0669  0.2376 -0.0388
 3663ntf    nn321993   3.857   1.507   4.967  0.6750  0.3755  0.0117
 3663ntf    sn221994   3.859   1.587   4.832 -0.0142 -0.0883 -0.2750
 3663ntf    cn121995   4.027   1.563   4.766  0.1038  0.4896 -0.1876
 3663ntf    fn421996   4.010   1.634   5.286  0.1107  0.2155 -0.0211
 3663ntf    fn421997   4.083   1.485   5.158 -0.0844 -0.1451  0.0210
 3663ntf    fn421998   4.058   1.692   5.094 -0.4487  0.3494  0.1994
 3663ntf    on521999   3.783   1.468   5.202  0.6571 -0.1891 -0.1836
 3663ntf    on522000   3.765   1.696   5.116 -0.2097  0.0838  0.2126
 3663ntf    on522001   3.849   1.730   4.842  1.1831 -0.0230  0.0883
 3663ntf    on522002   3.775   1.518   4.737  0.0843 -0.8807  0.2044
 3663ntf    fn422003   4.104   1.669   4.748 -0.5772  0.9536 -0.4463
 3663ntf    fn422004   4.104   1.486   4.841  0.1888  0.3960 -0.3709
 3663ntf    fn422005   4.015   1.510   4.645 -0.9629  0.0875  0.0808
 3664ntf    cn122006   4.852   3.879   0.732  0.7458  0.4390  0.0458
 3664ntf    sn222007   4.825   3.867   0.553 -0.0603  0.0893  0.1847
 3664ntf    nn322008   4.830   3.711   0.535  0.0910  0.1021  0.1072
 3664ntf    sn222009   4.888   3.634   0.412 -0.2207  0.0608 -0.0155
 3664ntf    cn122010   4.767   3.650   0.277 -0.4357  0.1347  0.1853
 3664ntf    fn422011   4.960   3.823   0.784  0.5463 -0.0854 -0.0999
 3664ntf    fn422012   4.850   4.003   0.779 -0.2232  0.4218  0.0785
 3664ntf    fn422013   4.754   3.824   0.802  0.6724  0.3607 -0.1180
 3664ntf    on522014   4.694   3.927   0.546 -0.0571  0.1231  0.4104
 3664ntf    on522015   4.935   3.943   0.499 -0.1222 -0.3088 -0.5148
 3664ntf    on522016   4.876   3.493   0.443  0.0423 -0.1609 -0.8944
 3664ntf    on522017   5.019   3.675   0.367 -0.3020  0.2653 -0.0656
 3664ntf    fn422018   4.789   3.559   0.183  0.3670 -0.0558  0.5430
 3664ntf    fn422019   4.644   3.630   0.319 -0.3698  0.4633  0.5401
 3664ntf    fn422020   4.772   3.767   0.216 -0.0857 -0.0544 -0.1526
 3665ntf    cn122021   5.340   1.090   3.429 -0.0749 -0.0319  0.1290
 3665ntf    sn222022   5.337   0.912   3.468 -0.0560  0.0156  0.3467
 3665ntf    nn322023   5.272   0.881   3.329  0.5538  0.1173  0.0324
 3665ntf    sn222024   5.308   0.792   3.205  0.1048  0.2717 -0.2110
 3665ntf    cn122025   5.431   0.891   3.116  0.1925  0.0769 -0.3082
 3665ntf    fn422026   5.416   1.117   3.325 -0.3401  0.2775  0.0155
 3665ntf    fn422027   5.216   1.133   3.412  0.0920  0.3923 -0.0149
 3665ntf    fn422028   5.383   1.158   3.534 -0.6196  0.3949  0.0835
 3665ntf    on522029   5.478   0.884   3.486 -0.0646 -0.1480  0.1622
 3665ntf    on522030   5.246   0.907   3.580 -0.6787  0.2054 -0.1453
 3665ntf    on522031   5.209   0.784   3.100 -0.2937 -0.9640  0.2372
 3665ntf    on522032   5.384   0.671   3.228  0.1316  0.4705  0.7796
 3665ntf    fn422033   5.370   1.003   3.082  0.0742  0.2638  0.4947
 3665ntf    fn422034   5.535   0.922   3.193  0.2140  0.5809 -0.5395
 3665ntf    fn422035   5.475   0.830   3.007 -0.1915  0.2957 -0.5872
 3666ntf    cn122036   0.203   3.444   3.109  0.2266 -0.4062  0.1045
 3666ntf    sn222037   0.124   3.314   3.208 -0.2222 -0.0228  0.2603
 3666ntf    nn322038   0.213   3.186   3.183  0.2936  0.5207 -0.7440
 3666ntf    sn222039   0.316   3.119   3.281 -0.2497  0.4450 -0.2182
 3666ntf    cn122040   0.214   2.983   3.347  0.0799  0.4270  0.2557
 3666ntf    fn422041   0.202   3.410   2.981 -0.1809  0.4962 -0.1420
 3666ntf    fn422042   0.146   3.561   3.138 -0.4549 -0.8297  0.5114
 3666ntf    fn422043   0.332   3.441   3.134  0.2962  0.3077 -0.1370
 3666ntf    on522044   0.122   3.370   3.341  0.0577  0.3557  0.1082
 3666ntf    on522045  -0.004   3.310   3.142 -0.0976  0.4510 -0.0120
 3666ntf    on522046   0.356   3.186   3.402  0.1513 -0.7558  0.3286
 3666ntf    on522047   0.420   3.054   3.205 -0.2975  0.3732 -0.2232
 3666ntf    fn422048   0.093   3.008   3.392 -0.2713 -0.2996 -0.2626
 3666ntf    fn422049   0.189   2.892   3.254 -0.0249  0.2332  0.4741
 3666ntf    fn422050   0.281   2.916   3.439 -0.0655  0.4598  0.3852
 3667ntf    cn122051   3.329   1.793   0.643 -0.3877  0.1748  0.1105
 3667ntf    sn222052   3.449   1.832   0.773 -0.1185 -0.4568  0.0518
 3667ntf    nn322053   3.364   1.815   0.904 -0.0892  0.1610  0.1553
 3667ntf    sn222054   3.370   1.713   1.024  0.4324  0.4110  0.3465
 3667ntf    cn122055   3.295   1.811   1.157 -0.1892  0.2882  0.0901
 3667ntf    fn422056   3.291   1.668   0.657  0.4662 -0.0452  0.5189
 3667ntf    fn422057   3.221   1.870   0.642  0.0489  0.8026  0.2954
 3667ntf    fn422058   3.384   1.797   0.523 -0.6370  0.0742 -0.0088
 3667ntf    on522059   3.562   1.743   0.758  0.1104 -0.0205 -0.8615
 3667ntf    on522060   3.472   1.971   0.741  0.5346 -0.5851 -0.0537
 3667ntf    on522061   3.501   1.680   1.073  0.4351 -0.1984 -0.0602
 3667ntf    on522062   3.279   1.604   1.001  0.0610  0.9260 -0.6898
 3667ntf    fn422063   3.290   1.730   1.262  0.3081  0.2214  0.0624
 3667ntf    fn422064   3.378   1.909   1.189 -0.3356  0.2546  0.5953
 3667ntf    fn422065   3.176   1.861   1.126  0.0454  0.5229 -0.4419
 3668ntf    cn122066   6.113   0.838   2.996  0.1340  0.0108 -0.0856
 3668ntf    sn222067   5.987   0.788   2.875  0.1241  0.1838 -0.1474
 3668ntf    nn322068   6.078   0.722   2.765 -0.0493  0.2256 -0.3174
 3668ntf    sn222069   6.092   0.571   2.727 -0.1214  0.2095 -0.2792
 3668ntf    cn122070   6.013   0.557   2.564 -0.2370  0.0703 -0.2121
 3668ntf    fn422071   6.228   0.876   2.944  0.3349 -0.0405  0.3127
 3668ntf    fn422072   6.074   0.935   3.078  0.6602  0.1313  0.0209
 3668ntf    fn422073   6.134   0.727   3.065  0.1883 -0.2816 -0.5699
 3668ntf    on522074   5.901   0.705   2.955  0.3505  0.2648  0.1812
 3668ntf    on522075   5.926   0.913   2.837  0.2429  0.2860 -0.0037
 3668ntf    on522076   6.007   0.483   2.804 -0.2224  0.4510 -0.1135
 3668ntf    on522077   6.229   0.530   2.710 -0.0572  0.4143 -0.2585
 3668ntf    fn422078   5.884   0.585   2.564 -0.1626  0.4203 -0.3538
 3668ntf    fn422079   6.065   0.648   2.482 -0.0251  0.4355  0.3225
 3668ntf    fn422080   6.020   0.437   2.510 -0.2246  0.0199 -0.0989
 3669ntf    cn122081   2.115   0.475   3.787  0.0232 -0.0408 -0.2162
 3669ntf    sn222082   2.247   0.526   3.901  0.0364 -0.0149 -0.2434
 3669ntf    nn322083   2.197   0.664   3.956  0.6790  0.0465  0.2035
 3669ntf    sn222084   2.236   0.812   3.920  0.0008  0.2288  0.1997
 3669ntf    cn122085   2.366   0.840   4.045  0.2366 -0.3142  0.0795
 3669ntf    fn422086   1.997   0.471   3.848 -0.0703  1.0148 -0.3103
 3669ntf    fn422087   2.106   0.567   3.693 -0.1862  0.2856  0.1167
 3669ntf    fn422088   2.146   0.360   3.730 -0.5646 -0.0301 -0.5666
 3669ntf    on522089   2.238   0.428   4.006 -0.6025 -0.1421 -0.4149
 3669ntf    on522090   2.368   0.531   3.822  0.1027 -0.0715 -0.1462
 3669ntf    on522091   2.136   0.915   3.932 -0.2017  0.0765 -0.1649
 3669ntf    on522092   2.313   0.827   3.799 -0.6908 -0.2979 -0.3156
 3669ntf    fn422093   2.344   0.780   4.161 -0.2624 -0.0525  0.1253
 3669ntf    fn422094   2.483   0.791   4.006  0.0366 -0.4916 -0.3072
 3669ntf    fn422095   2.385   0.966   4.081  0.2253 -0.2306 -0.2042
 3670ntf    cn122096   4.867   5.731   4.802 -0.1594  0.0469 -0.2414
 3670ntf    sn222097   5.025   5.711   4.890 -0.4064 -0.2811  0.1301
 3670ntf    nn322098   5.004   5.812   5.009 -0.4631  0.1126 -0.2119
 3670ntf    sn222099   5.024   5.966   4.993 -0.1673  0.0784 -0.1843
 3670ntf    cn122100   5.200   5.996   5.023 -0.0927 -0.7899  0.2694
 3670ntf    fn422101   4.874   5.808   4.695 -0.0366 -0.2646 -0.4615
 3670ntf    fn422102   4.819   5.614   4.762 -0.0533 -0.2732  0.5386
 3670ntf    fn422103   4.769   5.790   4.869 -0.0526  0.1844 -0.2070
 3670ntf    on522104   5.012   5.574   4.933  0.0405 -0.3181  0.1534
 3670ntf    on522105   5.133   5.745   4.801 -0.2672 -0.0151  0.4023
 3670ntf    on522106   4.964   6.037   5.104 -0.5650 -0.2732 -0.1716
 3670ntf    on522107   4.997   6.010   4.858 -0.2282  0.8604  0.0768
 3670ntf    fn422108   5.224   6.125   5.001 -0.1136 -0.8007  0.1847
 3670ntf    fn422109   5.239   5.979   5.149  0.0748 -0.0780  0.3222
 3670ntf    fn422110   5.278   5.931   4.939  0.4729  0.0791  0.1106
 3671ntf    cn122111   2.814   5.279   3.612  0.5689  0.5099 -0.0839
 3671ntf    sn222112   2.950   5.163   3.646  0.0985 -0.1399 -0.3961
 3671ntf    nn322113   3.069   5.265   3.635 -0.3753  0.4639 -0.0276
 3671ntf    sn222114   3.150   5.310   3.509 -0.0689  0.0241  0.0101
 3671ntf    cn122115   3.268   5.171   3.514  0.1090  0.1635 -0.2541
 3671ntf    fn422116   2.695   5.225   3.589  0.6754  0.2543 -0.0424
 3671ntf    fn422117   2.787   5.380   3.694 -0.1548  0.4219 -0.2020
 3671ntf    fn422118   2.843   5.338   3.497 -0.3098  0.1334 -0.5119
 3671ntf    on522119   2.924   5.120   3.781 -0.2705  0.3005 -0.3246
 3671ntf    on522120   2.934   5.069   3.538 -0.5746 -0.3662 -0.1094
 3671ntf    on522121   3.231   5.428   3.530 -0.1654  0.2111 -0.6488
 3671ntf    on522122   3.084   5.304   3.381  0.2563 -0.3310 -0.1434
 3671ntf    fn422123   3.253   5.112   3.631  0.1949 -0.0929 -0.3738
 3671ntf    fn422124   3.240   5.077   3.425  0.5548 -0.3401  0.1382
 3671ntf    fn422125   3.395   5.207   3.506  0.0420  0.4441 -0.0578
 3672ntf    cn122126   2.466   2.959   5.478  0.3900 -0.2032 -0.2295
 3672ntf    sn222127   2.559   3.046   5.348  0.0011  0.1424 -0.2783
 3672ntf    nn322128   2.671   3.124   5.424  0.0423 -0.1127 -0.0751
 3672ntf    sn222129   2.826   3.098   5.435  0.0125 -0.1694  0.2260
 3672ntf    cn122130   2.874   3.272   5.417  0.1416 -0.2166  0.1131
 3672ntf    fn422131   2.405   3.046   5.558  0.3759 -0.0367 -0.4199
 3672ntf    fn422132   2.366   2.882   5.439  0.0060  0.1990 -0.0601
 3672ntf    fn422133   2.542   2.886   5.558 -0.3048 -0.3332  0.3190
 3672ntf    on522134   2.609   2.935   5.271  0.5571 -0.0208  0.3134
 3672ntf    on522135   2.458   3.128   5.286 -0.0378  0.2331 -0.0964
 3672ntf    on522136   2.894   3.043   5.320 -0.0882 -0.0862  0.1258
 3672ntf    on522137   2.867   3.056   5.566  0.1574  0.3282  0.3409
 3672ntf    fn422138   2.798   3.356   5.485 -0.0748 -0.0461 -0.3341
 3672ntf    fn422139   3.002   3.289   5.448 -0.0752  0.4593  0.6620
 3672ntf    fn422140   2.874   3.315   5.292 -0.8139 -0.2515  0.0994
 3673ntf    cn122141   3.789   0.130   3.882  0.3346 -0.0497 -0.3382
 3673ntf    sn222142   3.644   0.123   3.992  0.6138 -0.0026  0.0338
 3673ntf    nn322143   3.721   0.115   4.129 -0.1409  0.1087  0.4658
 3673ntf    sn222144   3.782  -0.018   4.186 -0.0720  0.0308  0.2085
 3673ntf    cn122145   3.645  -0.071   4.293 -0.3303  0.1018 -0.0836
 3673ntf    fn422146   3.879   0.221   3.918  0.2802 -0.1484  0.0556
 3673ntf    fn422147   3.853   0.014   3.884  0.0930 -0.1795  0.1119
 3673ntf    fn422148   3.756   0.151   3.756 -0.4061  0.2125 -0.1073
 3673ntf    on522149   3.576   0.249   3.980  0.6389  0.0953  0.8811
 3673ntf    on522150   3.573   0.005   3.950  0.1419  0.3919 -0.2805
 3673ntf    on522151   3.890   0.014   4.276  0.2350 -0.0139 -0.1406
 3673ntf    on522152   3.813  -0.125   4.095  0.1542  0.1118  0.1884
 3673ntf    fn422153   3.666  -0.187   4.354  0.4404  0.1425 -0.2552
 3673ntf    fn422154   3.633   0.017   4.391 -0.2576 -0.0569  0.0683
 3673ntf    fn422155   3.528  -0.089   4.235 -0.1696 -0.7945 -0.1439
 3674ntf    cn122156   0.809   3.748   3.856 -0.0171 -0.1444  0.0304
 3674ntf    sn222157   0.963   3.783   3.766 -0.0243 -0.1260  0.0254
 3674ntf    nn322158   1.062   3.826   3.880 -0.1878  0.2860  0.0154
 3674ntf    sn222159   1.123   3.964   3.923  0.0302  0.1769  0.0583
 3674ntf    cn122160   0.989   4.035   4.023 -0.1452  0.3444 -0.2943
 3674ntf    fn422161   0.773   3.845   3.938 -0.5892 -0.3280  0.0063
 3674ntf    fn422162   0.711   3.718   3.772 -0.0442  0.4256 -0.1476
 3674ntf    fn422163   0.805   3.640   3.933  0.3249 -0.2795 -0.1425
 3674ntf    on522164   1.006   3.655   3.718 -0.3062 -0.2580  0.1194
 3674ntf    on522165   0.931   3.882   3.666  0.3447 -0.3586 -0.3242
 3674ntf    on522166   1.153   4.059   3.818  0.0870 -0.4378 -0.4878
 3674ntf    on522167   1.223   3.944   4.025  0.2647  0.3753 -0.1326
 3674ntf    fn422168   1.040   4.124   4.107 -0.3013  0.2807 -0.1303
 3674ntf    fn422169   0.897   4.095   3.950 -0.4913  0.8694  0.5548
 3674ntf    fn422170   0.922   3.950   4.099  0.8104 -0.1632 -0.0075
 3675ntf    cn122171   2.281   4.483   7.086 -0.0131  0.2108 -0.1241
 3675ntf    sn222172   2.186   4.334   7.042  0.4838 -0.2026  0.1962
 3675ntf    nn322173   2.285   4.218   7.081  0.3127 -0.3685  0.1349
 3675ntf    sn222174   2.372   4.128   6.985 -0.0162 -0.3283 -0.2040
 3675ntf    cn122175   2.501   4.052   7.087 -0.2435 -0.1759  0.1999
 3675ntf    fn422176   2.211   4.594   7.077  0.0514  0.2806  0.2141
 3675ntf    fn422177   2.326   4.476   7.210  0.2146 -0.2445 -0.2282
 3675ntf    fn422178   2.392   4.496   7.015 -0.3083  0.2943 -0.5741
 3675ntf    on522179   2.073   4.348   7.130  0.1383  0.3799 -0.3323
 3675ntf    on522180   2.173   4.346   6.899  0.4113  0.3435  0.2478
 3675ntf    on522181   2.444   4.181   6.872 -0.0579  0.6705  0.2274
 3675ntf    on522182   2.297   4.010   6.950  0.2671 -0.4738 -0.3183
 3675ntf    fn422183   2.603   3.997   7.023  0.0831  0.4215  0.2048
 3675ntf    fn422184   2.547   4.139   7.176  0.2911 -0.4924  0.2392
 3675ntf    fn422185   2.454   3.961   7.171  0.1108 -0.1287  0.4513
 3676ntf    cn122186   0.950   6.128   6.218 -0.0466 -0.5060 -0.3545
 3676ntf    sn222187   1.034   6.211   6.080 -0.1393 -0.3615 -0.3243
 3676ntf    nn322188   0.966   6.352   6.071  0.2703 -0.1644 -0.3925
 3676ntf    sn222189   0.964   6.445   5.945  0.2355 -0.0666 -0.3204
 3676ntf    cn122190   1.022   6.604   6.009 -0.0470  0.0187 -0.2735
 3676ntf    fn422191   1.003   6.012   6.253  0.3647 -0.1330  0.2904
 3676ntf    fn422192   0.949   6.203   6.327  0.3425  0.0125 -0.7032
 3676ntf    fn422193   0.823   6.102   6.190 -0.2492  0.1373 -0.0606
 3676ntf    on522194   1.167   6.209   6.137 -0.3894  0.1285  0.2909
 3676ntf    on522195   1.009   6.120   5.972  0.0087  0.0288 -0.6888
 3676ntf    on522196   0.833   6.475   5.891  0.0181 -0.0451  0.2078
 3676ntf    on522197   1.065   6.407   5.849  0.5603 -0.2633  0.0983
 3676ntf    fn422198   1.144   6.599   6.061  0.2166  0.1112 -0.8828
 3676ntf    fn422199   1.029   6.690   5.909 -0.7825  0.4456  0.0352
 3676ntf    fn422200   0.938   6.651   6.100  0.0980 -0.0403 -0.1091
 3677ntf    cn122201   6.557   6.190   5.611 -0.1347  0.2176 -0.3218
 3677ntf    sn222202   6.417   6.289   5.672  0.1425  0.2300  0.3101
 3677ntf    nn322203   6.424   6.243   5.821 -0.1237 -0.8634 -0.0090
 3677ntf    sn222204   6.303   6.253   5.921  0.0311  0.3375  0.0656
 3677ntf    cn122205   6.392   6.248   6.079  0.1824 -0.6071 -0.0441
 3677ntf    fn422206   6.543   6.063   5.645  0.4820  0.2441  0.0489
 3677ntf    fn422207   6.574   6.200   5.481 -0.1296 -0.5640 -0.3865
 3677ntf    fn422208   6.662   6.239   5.676 -0.3209 -0.5352  0.5708
 3677ntf    on522209   6.459   6.423   5.638  0.2771 -0.0677 -0.7382
 3677ntf    on522210   6.303   6.247   5.594  0.7882 -0.0346 -0.4965
 3677ntf    on522211   6.237   6.126   5.934  0.0459  0.3158 -0.0735
 3677ntf    on522212   6.228   6.376   5.925 -0.0918  0.2797 -0.3838
 3677ntf    fn422213   6.304   6.253   6.178  0.1166 -0.4197 -0.1098
 3677ntf    fn422214   6.465   6.140   6.103  0.8939 -0.1294 -0.0288
 3677ntf    fn422215   6.480   6.343   6.107 -0.3340 -0.1626  0.0814
 3678ntf    cn122216   5.374   2.317   1.345 -0.0691 -0.2439  0.0199
 3678ntf    sn222217   5.499   2.240   1.451  0.0257 -0.1998 -0.0600
 3678ntf    nn322218   5.447   2.274   1.595 -0.1706  0.1936 -0.2216
 3678ntf    sn222219   5.533   2.306   1.723 -0.3449  0.0101 -0.0564
 3678ntf    cn122220   5.443   2.213   1.851 -0.1416 -0.1299 -0.0159
 3678ntf    fn422221   5.253   2.269   1.371 -0.1503  0.1276  0.3507
 3678ntf    fn422222   5.373   2.447   1.368  0.2685 -0.3324  0.5301
 3678ntf    fn422223   5.388   2.300   1.215  0.1743 -0.1799  0.0374
 3678ntf    on522224   5.488   2.100   1.417 -0.2513  0.0598 -1.0558
 3678ntf    on522225   5.618   2.315   1.420 -0.1491  0.2654  0.3789
 3678ntf    on522226   5.527   2.447   1.756  0.2358 -0.0572  0.3440
 3678ntf    on522227   5.662   2.244   1.712 -0.2731  0.2312 -0.5174
 3678ntf    fn422228   5.314   2.235   1.834 -0.0180  0.4000 -0.3223
 3678ntf    fn422229   5.451   2.082   1.836  0.2636 -0.1757  0.5647
 3678ntf    fn422230   5.475   2.245   1.975 -0.2552 -0.0890  0.0028
 3679ntf    cn122231   0.109   2.713   0.141  0.1627  0.0705  0.4520
 3679ntf    sn222232  -0.053   2.646   0.093  0.0741  0.2448  0.5075
 3679ntf    nn322233  -0.064   2.720  -0.045  0.3195 -0.1350  0.2827
 3679ntf    sn222234  -0.147   2.850  -0.073  0.1293 -0.3703 -0.2670
 3679ntf    cn122235  -0.322   2.805  -0.060 -0.0187  0.2360 -0.1030
 3679ntf    fn422236   0.118   2.841   0.170  0.4815  0.0703  0.3660
 3679ntf    fn422237   0.153   2.647   0.247  0.0704 -0.5238  0.1285
 3679ntf    fn422238   0.202   2.692   0.049  0.3212  0.5342  0.5047
 3679ntf    on522239  -0.031   2.505   0.070  0.2555  0.3359  0.1103
 3679ntf    on522240  -0.142   2.691   0.197 -0.6369 -0.6083  0.2733
 3679ntf    on522241  -0.128   2.881  -0.213  0.4709 -0.3393 -0.2159
 3679ntf    on522242  -0.126   2.954   0.025  0.7194 -0.7627  0.0284
 3679ntf    fn422243  -0.401   2.871  -0.143 -0.1863  0.0922 -0.0585
 3679ntf    fn422244  -0.345   2.676  -0.083  0.1851  0.1665  0.0779
 3679ntf    fn422245  -0.355   2.827   0.066 -0.0476 -0.4003  0.0038
 3680ntf    cn122246   2.856   2.766   0.673  0.0272  0.1067  0.1475
 3680ntf    sn222247   2.854   2.940   0.620  0.2077  0.0454 -0.0621
 3680ntf    nn322248   2.918   2.932   0.477  0.2408  0.2278 -0.0579
 3680ntf    sn222249   3.069   2.940   0.435  0.2671  0.1273  0.0180
 3680ntf    cn122250   3.078   2.793   0.328 -0.2347  0.1084  0.0002
 3680ntf    fn422251   2.769   2.701   0.598 -0.2194 -0.1947  0.6884
 3680ntf    fn422252   2.973   2.706   0.661  0.5070  1.0211  0.1659
 3680ntf    fn422253   2.819   2.749   0.799  0.2118  0.2361  0.2198
 3680ntf    on522254   2.713   2.971   0.610  0.1059 -0.1493  0.6750
 3680ntf    on522255   2.913   3.005   0.735 -0.3307 -0.2194  0.3743
 3680ntf    on522256   3.158   2.913   0.545  0.2674 -0.0419 -0.0235
 3680ntf    on522257   3.084   3.049   0.342 -0.5467 -0.3019 -0.6255
 3680ntf    fn422258   3.206   2.772   0.302 -0.2106  0.3140 -0.0542
 3680ntf    fn422259   3.025   2.680   0.371 -0.1936 -0.1699 -0.6723
 3680ntf    fn422260   3.009   2.804   0.215  0.4446 -0.2002 -0.4495
 3681ntf    cn122261   3.731   2.467   5.838 -0.0756  0.1615  0.2940
 3681ntf    sn222262   3.774   2.341   5.961 -0.2450 -0.2375 -0.0520
 3681ntf    nn322263   3.757   2.430   6.089 -0.4098 -0.5167  0.1214
 3681ntf    sn222264   3.868   2.461   6.196 -0.6922  0.2840  0.1916
 3681ntf    cn122265   3.908   2.302   6.276 -0.1685  0.1539 -0.3244
 3681ntf    fn422266   3.610   2.516   5.855 -0.2954 -0.2616 -0.0370
 3681ntf    fn422267   3.811   2.572   5.827  0.3265 -0.1822 -0.1544
 3681ntf    fn422268   3.734   2.416   5.716 -0.3444 -0.0728  0.3857
 3681ntf    on522269   3.668   2.245   5.943 -0.2951 -0.1919 -0.0016
 3681ntf    on522270   3.905   2.297   5.919  0.0407  0.0082  0.5728
 3681ntf    on522271   3.814   2.543   6.302 -0.3095 -0.1137  0.6999
 3681ntf    on522272   3.991   2.503   6.133 -0.9597  0.5625 -0.1462
 3681ntf    fn422273   3.802   2.241   6.324 -0.3310  0.3485 -0.4336
 3681ntf    fn422274   3.964   2.222   6.187 -0.0525  0.3501 -0.4305
 3681ntf    fn422275   3.992   2.312   6.378  0.0447 -0.4207 -0.4451
 3682ntf    cn122276   3.747   1.231   0.779 -0.4029 -0.1613  0.3177
 3682ntf    sn222277   3.783   1.189   0.605 -0.2566  0.0444  0.2972
 3682ntf    nn322278   3.923   1.123   0.632 -0.1249  0.0072 -0.4762
 3682ntf    sn222279   4.068   1.177   0.602 -0.0866  0.0616 -0.1980
 3682ntf    cn122280   4.141   1.098   0.748 -0.2801 -0.0985 -0.1872
 3682ntf    fn422281   3.622   1.264   0.804 -0.3912 -0.0408  0.2198
 3682ntf    fn422282   3.766   1.131   0.864  0.0022 -0.4262 -0.0762
 3682ntf    fn422283   3.819   1.334   0.819 -0.0626 -0.2116 -0.1547
 3682ntf    on522284   3.675   1.103   0.564  0.0627  0.0640 -0.5962
 3682ntf    on522285   3.793   1.316   0.538  0.3871  0.0680  0.4360
 3682ntf    on522286   4.105   1.313   0.629  0.3738 -0.2274  0.6571
 3682ntf    on522287   4.136   1.108   0.494 -0.0724 -0.4379  0.1258
 3682ntf    fn422288   4.079   1.098   0.865  0.3129 -0.3919  0.1345
 3682ntf    fn422289   4.149   0.969   0.719  0.0173 -0.1588  0.1539
 3682ntf    fn422290   4.268   1.133   0.761 -0.2707 -0.0829 -0.3244
 3683ntf    cn122291   5.012   6.763   6.653  0.0423  0.0884 -0.9523
 3683ntf    sn222292   4.838   6.769   6.704  0.2756  0.0426 -0.1283
 3683ntf    nn322293   4.802   6.908   6.641  0.1942  0.2079  0.2829
 3683ntf    sn222294   4.704   6.938   6.522 -0.0678  0.1945  0.4948
 3683ntf    cn122295   4.813   6.938   6.377 -0.2310  0.4740  0.3726
 3683ntf    fn422296   5.063   6.643   6.674  0.2531  0.2371 -0.6039
 3683ntf    fn422297   5.029   6.795   6.526 -0.1040  0.4019 -0.8940
 3683ntf    fn422298   5.085   6.856   6.713  0.7456 -0.6759 -0.6022
 3683ntf    on522299   4.778   6.647   6.655  0.5606 -0.3681  0.5339
 3683ntf    on522300   4.855   6.771   6.847 -0.1627 -0.3449 -0.0667
 3683ntf    on522301   4.652   7.072   6.528 -0.6126  0.0042  0.1792
 3683ntf    on522302   4.608   6.835   6.491  0.0874  0.2368 -0.1348
 3683ntf    fn422303   4.921   7.015   6.385  0.0160  0.1364  0.3198
 3683ntf    fn422304   4.865   6.820   6.349  0.1882  0.5615  0.7641
 3683ntf    fn422305   4.749   6.975   6.267 -0.1928 -0.0381  0.1792
 3684ntf    cn122306   2.797   0.390   0.462 -0.3466 -0.0809  0.1959
 3684ntf    sn222307   2.655   0.324   0.369  0.0094 -0.1945 -0.2749
 3684ntf    nn322308   2.668   0.409   0.238 -0.0894  0.3533  0.0690
 3684ntf    sn222309   2.553   0.477   0.156  0.1426  0.2338 -0.3569
 3684ntf    cn122310   2.554   0.374   0.006  0.0335 -0.1969 -0.0641
 3684ntf    fn422311   2.771   0.507   0.516  0.0549 -0.0147  0.2450
 3684ntf    fn422312   2.844   0.315   0.560  0.7439 -0.7935 -0.8303
 3684ntf    fn422313   2.900   0.413   0.382 -0.4361  0.4583  0.2312
 3684ntf    on522314   2.682   0.183   0.363 -0.6034 -0.3270 -0.0440
 3684ntf    on522315   2.552   0.353   0.467  0.8725  0.6486  0.4035
 3684ntf    on522316   2.580   0.606   0.097 -0.3938  0.4265 -0.1900
 3684ntf    on522317   2.417   0.465   0.203  0.2889 -0.2624 -0.0606
 3684ntf    fn422318   2.448   0.397  -0.070  0.1637 -0.0567 -0.2044
 3684ntf    fn422319   2.657   0.407  -0.070  0.1287 -0.8091 -0.2086
 3684ntf    fn422320   2.560   0.243   0.022 -0.4480 -0.2572 -0.3529
 3685ntf    cn122321   0.810   4.686   1.307 -0.1072 -0.0723  0.0676
 3685ntf    sn222322   0.894   4.536   1.367  0.2439  0.0464 -0.1177
 3685ntf    nn322323   0.771   4.464   1.433  0.3038  0.0773  0.0278
 3685ntf    sn222324   0.751   4.404   1.577  0.1601 -0.0966 -0.0648
 3685ntf    cn122325   0.649   4.255   1.556 -0.0359  0.0123  0.1203
 3685ntf    fn422326   0.694   4.649   1.255 -0.0992  0.3005 -0.2201
 3685ntf    fn422327   0.784   4.774   1.402  0.2207 -0.1925  0.2721
 3685ntf    fn422328   0.875   4.756   1.214 -0.6206 -0.2927 -0.4620
 3685ntf    on522329   0.931   4.477   1.241 -0.4010 -0.0193 -0.2800
 3685ntf    on522330   0.989   4.596   1.457 -0.1681  0.1375  0.2636
 3685ntf    on522331   0.670   4.488   1.661 -0.1565 -0.6846  0.2278
 3685ntf    on522332   0.867   4.351   1.645  0.4975  0.0299 -0.5395
 3685ntf    fn422333   0.529   4.272   1.503  0.0224  0.1328  0.0270
 3685ntf    fn422334   0.706   4.168   1.475  0.3969  0.0947  0.3367
 3685ntf    fn422335   0.631   4.193   1.671 -0.2475  0.2480  0.2165
 3686ntf    cn122336   6.495   3.987   1.470  0.4660  0.4776 -0.0114
 3686ntf    sn222337   6.427   4.153   1.501  0.1318  0.3259  0.0735
 3686ntf    nn322338   6.290   4.117   1.567 -0.0685 -0.4362 -0.7376
 3686ntf    sn222339   6.152   4.191   1.581  0.2208  0.0141 -0.2301
 3686ntf    cn122340   6.170   4.259   1.749 -0.2495 -0.0810 -0.1386
 3686ntf    fn422341   6.605   3.986   1.397 -0.1301 -0.0192 -0.9220
 3686ntf    fn422342   6.525   3.924   1.582  0.9894  0.5451 -0.1101
 3686ntf    fn422343   6.399   3.913   1.416  0.3734  0.1598  0.5775
 3686ntf    on522344   6.509   4.221   1.598 -0.4708  0.4662  0.4845
 3686ntf    on522345   6.436   4.206   1.367 -0.5191  0.3569  0.0419
 3686ntf    on522346   6.041   4.101   1.603  0.3788 -0.0640  0.2566
 3686ntf    on522347   6.120   4.302   1.495  0.3585  0.2027 -0.0381
 3686ntf    fn422348   6.287   4.318   1.767  0.0742 -0.8478  0.3393
 3686ntf    fn422349   6.080   4.348   1.786  0.0781  0.1782  0.0323
 3686ntf    fn422350   6.168   4.170   1.847  0.2029  0.6305  0.5238
 3687ntf    cn122351   5.256   0.302   1.106 -0.1664  0.2237 -0.2936
 3687ntf    sn222352   5.288   0.269   1.282  0.0694  0.4093 -0.3012
 3687ntf    nn322353   5.222   0.404   1.329 -0.5909 -0.0167  0.0234
 3687ntf    sn222354   5.309   0.519   1.392 -0.1313 -0.3347 -0.0259
 3687ntf    cn122355   5.188   0.653   1.371  0.1128 -0.0911  0.1130
 3687ntf    fn422356   5.260   0.199   1.023 -0.3724 -0.1147  0.1141
 3687ntf    fn422357   5.126   0.327   1.105 -0.1413  0.3666 -0.0582
 3687ntf    fn422358   5.321   0.409   1.063  0.0937  0.4186  0.5648
 3687ntf    on522359   5.209   0.153   1.316  0.2718  0.3575 -0.0056
 3687ntf    on522360   5.431   0.263   1.293  0.0202 -0.3488 -0.0239
 3687ntf    on522361   5.417   0.545   1.299 -0.0177 -0.1019  0.1691
 3687ntf    on522362   5.331   0.515   1.535 -0.3793 -0.2561  0.0139
 3687ntf    fn422363   5.225   0.764   1.310 -1.0830  0.0213 -0.4431
 3687ntf    fn422364   5.096   0.602   1.291  0.3399  0.0645 -0.2485
 3687ntf    fn422365   5.125   0.695   1.479 -0.7883  0.2733 -0.5407
 3688ntf    cn122366   1.150   1.572   7.116  0.1335 -0.2198  0.3244
 3688ntf    sn222367   1.014   1.459   7.074  0.1528 -0.2101  0.2367
 3688ntf    nn322368   1.055   1.379   6.945 -0.0204 -0.4558  0.3331
 3688ntf    sn222369   0.972   1.346   6.816  0.2821  0.2327 -0.0415
 3688ntf    cn122370   1.015   1.179   6.759 -0.5855  0.0613 -0.2115
 3688ntf    fn422371   1.127   1.647   7.222  0.2032  0.4792 -0.1515
 3688ntf    fn422372   1.266   1.510   7.133  0.1689 -0.2874 -0.1555
 3688ntf    fn422373   1.160   1.662   7.020 -0.2072  0.0861  0.5736
 3688ntf    on522374   1.016   1.368   7.185 -0.0739 -0.0337  0.3864
 3688ntf    on522375   0.903   1.550   7.055  0.8184  0.5628 -0.0200
 3688ntf    on522376   1.008   1.426   6.702 -0.0274  0.8595  0.2887
 3688ntf    on522377   0.832   1.328   6.847  0.2605  0.2733 -0.1155
 3688ntf    fn422378   0.975   1.090   6.848  0.1168 -0.1594 -0.1117
 3688ntf    fn422379   0.974   1.153   6.636  0.4820  0.6415 -0.7040
 3688ntf    fn422380   1.146   1.179   6.743 -0.5558 -0.3157  0.0380
 3689ntf    cn122381   1.948   2.720   3.671  0.1112 -0.2022  0.2919
 3689ntf    sn222382   1.999   2.584   3.563 -0.2878  0.0262 -0.1869
 3689ntf    nn322383   2.087   2.661   3.458  0.0259  0.5514  0.4594
 3689ntf    sn222384   2.236   2.711   3.468  0.1995  0.0966  0.1647
 3689ntf    cn122385   2.235   2.886   3.420 -0.0724  0.0783  0.0982
 3689ntf    fn422386   2.044   2.751   3.756 -0.1686 -0.6685  0.7878
 3689ntf    fn422387   1.914   2.826   3.598  0.0783 -0.4427 -0.0431
 3689ntf    fn422388   1.836   2.696   3.738  0.1570 -0.1559  0.3859
 3689ntf    on522389   2.068   2.497   3.655 -0.3788  0.6335  0.4614
 3689ntf    on522390   1.868   2.543   3.518  0.0290 -1.0124 -0.2016
 3689ntf    on522391   2.306   2.650   3.357 -0.4470 -0.1409 -0.1194
 3689ntf    on522392   2.303   2.703   3.595 -0.1743  0.3067  0.3773
 3689ntf    fn422393   2.137   2.950   3.481 -0.1834  0.2220 -0.2295
 3689ntf    fn422394   2.345   2.953   3.454  0.2774 -0.3251 -0.2191
 3689ntf    fn422395   2.220   2.896   3.289 -0.2655  0.1670  0.1279
 3690ntf    cn122396   7.100   4.070   5.692  0.0514  0.0747  0.0723
 3690ntf    sn222397   7.149   3.927   5.794  0.1255 -0.1407 -0.2661
 3690ntf    nn322398   7.304   3.942   5.777  0.1089 -0.1019 -0.3876
 3690ntf    sn222399   7.408   3.826   5.761  0.0206 -0.2164 -0.1342
 3690ntf    cn122400   7.539   3.909   5.856 -0.1926 -0.2142  0.1576
 3690ntf    fn422401   7.173   4.068   5.582  0.5208 -0.5138  0.3857
 3690ntf    fn422402   6.972   4.062   5.661 -0.0553 -0.2059  0.5633
 3690ntf    fn422403   7.119   4.188   5.749 -0.6630  0.4751 -0.4985
 3690ntf    on522404   7.098   3.960   5.925 -0.8449  0.2941 -0.7399
 3690ntf    on522405   7.082   3.819   5.724 -0.5810 -0.0141  0.2028
 3690ntf    on522406   7.457   3.804   5.627  0.1780  0.0526 -0.1207
 3690ntf    on522407   7.380   3.712   5.845 -0.1504  0.0750  0.2057
 3690ntf    fn422408   7.498   3.950   5.975 -0.3377  0.1887 -0.0285
 3690ntf    fn422409   7.651   3.840   5.866 -0.4797 -0.7262 -0.0832
 3690ntf    fn422410   7.576   4.018   5.791  0.3381 -0.0624  0.7061
 3691ntf    cn122411   1.494   2.720   4.631  0.0380  0.4179  0.0427
 3691ntf    sn222412   1.665   2.669   4.599 -0.0476  0.1259  0.0486
 3691ntf    nn322413   1.706   2.792   4.511 -0.1255  0.3800  0.3672
 3691ntf    sn222414   1.742   2.803   4.359 -0.1764  0.2352  0.3449
 3691ntf    cn122415   1.922   2.827   4.371 -0.1463  0.1075  0.1559
 3691ntf    fn422416   1.419   2.714   4.522 -0.5935  0.4256  0.4682
 3691ntf    fn422417   1.431   2.644   4.719  0.6911 -0.2323 -0.0489
 3691ntf    fn422418   1.486   2.845   4.676 -0.3731  0.3179  0.2588
 3691ntf    on522419   1.722   2.662   4.731 -0.1331 -0.2629  0.0661
 3691ntf    on522420   1.643   2.550   4.521  0.2339  0.1731 -0.1034
 3691ntf    on522421   1.692   2.927   4.305  0.1171 -0.0979 -0.7116
 3691ntf    on522422   1.739   2.684   4.277 -0.2472  0.1658  0.4491
 3691ntf    fn422423   1.955   2.952   4.400  0.2309  0.2367 -0.8077
 3691ntf    fn422424   1.973   2.748   4.464  0.0826 -0.7296 -0.6692
 3691ntf    fn422425   1.980   2.787   4.259  0.4163 -0.1495  0.5337
 3692ntf    cn122426   5.356   2.340   4.564  0.3682 -0.2731 -0.3074
 3692ntf    sn222427   5.339   2.161   4.534 -0.3934 -0.1577 -0.5765
 3692ntf    nn322428   5.334   2.149   4.377  0.4681 -0.8760 -0.5587
 3692ntf    sn222429   5.209   2.149   4.282 -0.1667 -0.0512  0.2532
 3692ntf    cn122430   5.180   1.972   4.252  0.2350 -0.1044  0.1763
 3692ntf    fn422431   5.468   2.393   4.518  0.3100  0.0946 -0.0256
 3692ntf    fn422432   5.248   2.400   4.518  0.1612 -0.4369 -0.0366
 3692ntf    fn422433   5.364   2.380   4.690 -0.2592 -0.3452 -0.2396
 3692ntf    on522434   5.462   2.112   4.591 -0.1589  0.6067 -0.4127
 3692ntf    on522435   5.215   2.131   4.601 -0.0047 -0.2486  0.1143
 3692ntf    on522436   5.247   2.175   4.145  0.2267 -0.4630  0.2828
 3692ntf    on522437   5.076   2.191   4.319 -0.2392 -0.3490  0.3322
 3692ntf    fn422438   5.091   1.949   4.158  0.0090  0.4764  0.2444
 3692ntf    fn422439   5.287   1.902   4.219  0.0466 -0.4847  0.3697
 3692ntf    fn422440   5.135   1.916   4.363 -0.1846  0.4986  0.3189
 3693ntf    cn122441   6.804   7.119   5.423 -0.5688 -0.0316 -0.1318
 3693ntf    sn222442   6.804   7.222   5.273 -0.1173 -0.2294 -0.2696
 3693ntf    nn322443   6.670   7.302   5.289 -0.0549 -0.1342 -0.2179
 3693ntf    sn222444   6.531   7.286   5.218  0.0673 -0.2119 -0.4396
 3693ntf    cn122445   6.434   7.336   5.364  0.3216 -0.0677 -0.3191
 3693ntf    fn422446   6.917   7.053   5.438 -0.1476  0.6040 -0.4639
 3693ntf    fn422447   6.780   7.185   5.536  0.0519  0.0899 -0.0719
 3693ntf    fn422448   6.707   7.029   5.415 -0.4400 -0.2084  0.2861
 3693ntf    on522449   6.917   7.308   5.298 -0.2374 -0.0576 -0.3104
 3693ntf    on522450   6.813   7.126   5.167  0.4707 -0.7882  0.2806
 3693ntf    on522451   6.487   7.150   5.200  0.6646 -0.3984 -0.4925
 3693ntf    on522452   6.508   7.384   5.115 -0.5598  0.2024  0.0872
 3693ntf    fn422453   6.431   7.468   5.373 -0.2321 -0.0711 -0.3883
 3693ntf    fn422454   6.309   7.296   5.350  0.4239 -0.4683 -0.1224
 3693ntf    fn422455   6.483   7.293   5.479  0.4464  1.1225  0.0869
 3694ntf    cn122456   4.754   0.643   1.501 -0.4184 -0.0936 -0.4075
 3694ntf    sn222457   4.642   0.676   1.640 -0.0718  0.3613 -0.2331
 3694ntf    nn322458   4.725   0.796   1.698 -0.4289  0.6437 -0.3033
 3694ntf    sn222459   4.697   0.889   1.822 -0.2899  0.2266  0.0431
 3694ntf    cn122460   4.840   0.840   1.923 -0.2785  0.0939 -0.0369
 3694ntf    fn422461   4.716   0.545   1.421 -0.2929 -0.2105 -0.3246
 3694ntf    fn422462   4.780   0.755   1.436  0.3811  0.1131  0.2507
 3694ntf    fn422463   4.874   0.610   1.548 -0.5473  0.7846  0.5540
 3694ntf    on522464   4.523   0.713   1.568  0.1454 -0.0421 -0.8073
 3694ntf    on522465   4.648   0.556   1.719  0.0160  0.2019 -0.4813
 3694ntf    on522466   4.583   0.857   1.903 -0.0239  0.5777  0.5577
 3694ntf    on522467   4.723   1.030   1.809  0.3064  0.0954 -0.2836
 3694ntf    fn422468   4.853   0.926   2.023  0.3411 -0.1031  0.0590
 3694ntf    fn422469   4.843   0.713   1.959  0.0723 -0.0636 -0.6049
 3694ntf    fn422470   4.950   0.844   1.849 -0.1352  0.0405  0.1733
 3695ntf    cn122471   0.824   4.009   2.828  0.0596  0.0145 -0.2403
 3695ntf    sn222472   0.698   3.968   2.953  0.2445  0.2516  0.0284
 3695ntf    nn322473   0.787   3.907   3.067  0.0666 -0.6722 -0.3101
 3695ntf    sn222474   0.782   3.923   3.223  0.1253 -0.0438 -0.3680
 3695ntf    cn122475   0.904   4.057   3.240 -0.1609  0.1196  0.4105
 3695ntf    fn422476   0.782   4.066   2.717  0.1629  0.1368 -0.2181
 3695ntf    fn422477   0.919   4.085   2.881 -0.1500 -0.4030  0.7759
 3695ntf    fn422478   0.879   3.894   2.792 -0.0497 -0.2378  0.3830
 3695ntf    on522479   0.627   4.090   2.982 -0.2256 -0.0589  0.1922
 3695ntf    on522480   0.615   3.865   2.894  0.4472 -0.0245  0.2196
 3695ntf    on522481   0.844   3.806   3.279 -0.9169 -0.2930  0.2941
 3695ntf    on522482   0.658   3.969   3.280 -0.1003 -0.4376 -0.5408
 3695ntf    fn422483   0.932   4.088   3.366  0.0864  0.1868  0.3385
 3695ntf    fn422484   1.023   4.023   3.194 -0.3235 -0.2124  0.2326
 3695ntf    fn422485   0.870   4.169   3.179 -0.0182  0.0305  0.1712
 3696ntf    cn122486   1.364   3.353   0.780 -0.3427  0.2871 -0.3270
 3696ntf    sn222487   1.395   3.230   0.911 -0.2459  0.4547 -0.1919
 3696ntf    nn322488   1.551   3.243   0.927 -0.2671  0.0280  0.4096
 3696ntf    sn222489   1.661   3.132   0.921  0.1188  0.4256  0.0430
 3696ntf    cn122490   1.756   3.194   1.063  0.1332  0.4778  0.0103
 3696ntf    fn422491   1.234   3.361   0.761 -0.3845  0.2655 -0.0598
 3696ntf    fn422492   1.418   3.471   0.807  0.0091  0.0681 -0.0567
 3696ntf    fn422493   1.416   3.312   0.666  0.1738 -0.2665  0.0967
 3696ntf    on522494   1.318   3.292   1.016 -0.5639  0.1705 -0.2565
 3696ntf    on522495   1.348   3.110   0.848 -0.2807  0.1960  0.3238
 3696ntf    on522496   1.754   3.141   0.811  0.5257 -0.1951  0.3288
 3696ntf    on522497   1.618   3.003   0.969  0.3328  0.1658 -0.4536
 3696ntf    fn422498   1.859   3.272   1.030  0.6226 -0.1372  0.0723
 3696ntf    fn422499   1.688   3.269   1.149 -0.1391  0.2415  0.0007
 3696ntf    fn422500   1.822   3.099   1.127 -0.1331  0.1044 -0.2717
 3697ntf    cn122501   2.413   5.509   5.870 -0.0827 -0.0494 -0.2240
 3697ntf    sn222502   2.581   5.573   5.846  0.0110 -0.2607 -0.1367
 3697ntf    nn322503   2.572   5.715   5.914  0.1726 -0.5097  0.4156
 3697ntf    sn222504   2.564   5.750   6.067  0.1783 -0.0963  0.3212
 3697ntf    cn122505   2.728   5.821   6.099  0.1861 -0.2224  0.5602
 3697ntf    fn422506   2.401   5.384   5.827  0.2297 -0.3403  0.5217
 3697ntf    fn422507   2.376   5.513   5.996  0.0892  0.2580 -0.1847
 3697ntf    fn422508   2.318   5.575   5.806 -1.0347 -0.5283  0.6709
 3697ntf    on522509   2.660   5.479   5.921 -0.8286 -0.7940  0.0853
 3697ntf    on522510   2.586   5.572   5.702  0.8187 -0.3253 -0.1116
 3697ntf    on522511   2.556   5.646   6.166 -0.2790 -0.3862 -0.0169
 3697ntf    on522512   2.478   5.863   6.092  0.5587  0.3004 -0.1366
 3697ntf    fn422513   2.827   5.763   6.034 -0.4566  0.0650 -0.7070
 3697ntf    fn422514   2.731   5.945   6.051 -0.3240 -0.4717 -0.1296
 3697ntf    fn422515   2.757   5.840   6.227 -0.0787  0.2025  0.5614
 3698ntf    cn122516   0.771   4.507   6.421  0.1482 -0.0505  0.3254
 3698ntf    sn222517   0.845   4.460   6.580  0.4096  0.0736  0.2408
 3698ntf    nn322518   0.980   4.541   6.588  0.0001  0.7663  0.1963
 3698ntf    sn222519   1.061   4.575   6.718  0.2274  0.1531  0.2166
 3698ntf    cn122520   0.994   4.738   6.762 -0.0677  0.1946 -0.3732
 3698ntf    fn422521   0.654   4.450   6.398  0.1096  0.1432  0.0385
 3698ntf    fn422522   0.732   4.633   6.425 -0.6502 -0.2926  0.3712
 3698ntf    fn422523   0.852   4.491   6.318  0.3835 -0.0063  0.5022
 3698ntf    on522524   0.753   4.524   6.671 -0.0060  0.1715 -0.2423
 3698ntf    on522525   0.846   4.316   6.581  0.1136  0.0686 -0.2530
 3698ntf    on522526   1.201   4.596   6.692  0.1192  0.2329 -0.3314
 3698ntf    on522527   1.025   4.503   6.837 -0.6119  0.0144 -0.1129
 3698ntf    fn422528   0.867   4.738   6.797  0.1087 -0.2157  0.2727
 3698ntf    fn422529   1.064   4.789   6.862 -0.5248  0.2358 -0.0703
 3698ntf    fn422530   1.006   4.830   6.667 -0.3491  0.7990  0.1710
 3699ntf    cn122531   5.946   3.962   4.059 -0.0718  0.4630 -0.3513
 3699ntf    sn222532   6.066   3.991   4.193 -0.1824  0.1664 -0.1877
 3699ntf    nn322533   5.991   4.080   4.298 -0.3843 -0.2591  0.0309
 3699ntf    sn222534   6.031   4.221   4.353  0.0064 -0.3158 -0.1034
 3699ntf    cn122535   5.946   4.311   4.219  0.1560 -0.1081 -0.0584
 3699ntf    fn422536   6.001   3.907   3.952 -0.6320 -0.5425 -0.1337
 3699ntf    fn422537   5.859   3.870   4.096 -0.3839  0.6512 -0.6130
 3699ntf    fn422538   5.873   4.067   4.024 -0.0590  0.6723  0.2366
 3699ntf    on522539   6.089   3.861   4.250  0.2111  0.1640 -0.3489
 3699ntf    on522540   6.183   4.054   4.136  0.0421 -0.2775 -0.2196
 3699ntf    on522541   6.167   4.270   4.355 -0.2688  0.4936 -0.6137
 3699ntf    on522542   5.950   4.247   4.470 -0.0435 -0.0801 -0.1901
 3699ntf    fn422543   5.929   4.436   4.258 -0.3981 -0.2340  0.1163
 3699ntf    fn422544   6.019   4.303   4.109 -0.4312 -0.3783 -0.4332
 3699ntf    fn422545   5.828   4.264   4.183  0.0180  0.2910 -0.1238
 3700ntf    cn122546   6.955   4.706   5.887 -0.1252 -0.2742  0.1725
 3700ntf    sn222547   6.806   4.666   5.984 -0.2922  0.0521  0.0543
 3700ntf    nn322548   6.766   4.810   6.033  0.4461  0.4018 -0.3432
 3700ntf    sn222549   6.801   4.894   6.161  0.2741  0.0889 -0.0884
 3700ntf    cn122550   6.952   4.978   6.106 -0.0809  0.7224 -0.0997
 3700ntf    fn422551   7.021   4.599   5.847  0.6673  0.2158  0.1545
 3700ntf    fn422552   6.913   4.778   5.784  0.0818 -0.3364  0.0449
 3700ntf    fn422553   7.040   4.786   5.950 -0.8556  0.3581  0.3816
 3700ntf    on522554   6.710   4.608   5.894 -0.0894  0.5383 -0.4784
 3700ntf    on522555   6.852   4.582   6.092  0.0367 -0.1673 -0.2566
 3700ntf    on522556   6.828   4.828   6.286 -0.6643 -0.3310 -0.1001
 3700ntf    on522557   6.711   5.006   6.163  0.4375  0.2053  0.8086
 3700ntf    fn422558   6.953   5.003   5.976  0.3000 -0.6457 -0.3778
 3700ntf    fn422559   6.973   5.089   6.175  0.3273  0.4971  0.1396
 3700ntf    fn422560   7.057   4.900   6.123 -0.3589  0.4003  0.1348
 3701ntf    cn122561   2.293   7.262   1.168  0.1474 -0.4410 -0.2126
 3701ntf    sn222562   2.474   7.241   1.175  0.1957  0.0228 -0.0062
 3701ntf    nn322563   2.496   7.224   1.330 -0.3543  0.5768  0.1391
 3701ntf    sn222564   2.575   7.112   1.406  0.1300  0.2931 -0.7644
 3701ntf    cn122565   2.446   7.051   1.519  0.7975 -0.2121 -0.2647
 3701ntf    fn422566   2.259   7.288   1.043  0.4615 -0.7266 -0.3580
 3701ntf    fn422567   2.229   7.155   1.211  0.4327 -0.4021  0.3233
 3701ntf    fn422568   2.249   7.361   1.245  0.1566 -0.4782 -0.1596
 3701ntf    on522569   2.504   7.125   1.096  0.5755  0.4903 -0.5477
 3701ntf    on522570   2.516   7.367   1.119  0.0760 -0.0699 -0.3071
 3701ntf    on522571   2.681   7.165   1.489  0.2243 -0.3325 -0.4756
 3701ntf    on522572   2.602   6.987   1.338 -0.5324 -0.5824  0.5318
 3701ntf    fn422573   2.397   7.144   1.600  0.5569 -0.3147 -0.2924
 3701ntf    fn422574   2.350   6.987   1.454  0.5817 -0.1028 -0.0560
 3701ntf    fn422575   2.498   6.961   1.601 -0.0762 -0.4626  0.0258
 3702ntf    cn122576   1.497   3.603   0.048 -0.0983  0.3994  0.5345
 3702ntf    sn222577   1.368   3.730   0.040 -0.0511  0.4152  0.0009
 3702ntf    nn322578   1.446   3.835  -0.047 -0.0991  0.5968  0.1746
 3702ntf    sn222579   1.403   3.910  -0.178 -0.1743  0.0678 -0.1078
 3702ntf    cn122580   1.430   4.080  -0.121  0.4505  0.0851 -0.4375
 3702ntf    fn422581   1.582   3.600  -0.053 -0.1013 -0.2115  0.5460
 3702ntf    fn422582   1.576   3.616   0.154  0.2161 -0.7291  0.4592
 3702ntf    fn422583   1.455   3.478   0.061 -0.9680  0.7055  0.6910
 3702ntf    on522584   1.252   3.669  -0.020  0.0429  0.5867 -0.3608
 3702ntf    on522585   1.344   3.772   0.176 -0.3787  0.4160 -0.0576
 3702ntf    on522586   1.262   3.895  -0.205 -0.1504 -0.6539  0.1528
 3702ntf    on522587   1.501   3.883  -0.281  0.1953  0.2007  0.2041
 3702ntf    fn422588   1.349   4.165  -0.182 -0.3464  0.2117  0.7527
 3702ntf    fn422589   1.405   4.098   0.008 -0.3984 -0.3152 -0.5399
 3702ntf    fn422590   1.554   4.123  -0.138  0.5314  0.1749  0.3167
 3703ntf    cn122591   1.517   2.339   4.980  0.0462  0.4436  0.3567
 3703ntf    sn222592   1.501   2.161   5.013 -0.2807  0.4308  0.1296
 3703ntf    nn322593   1.645   2.136   4.954 -0.3412  0.0940  0.1231
 3703ntf    sn222594   1.769   2.102   5.045 -0.1901  0.1151 -0.0762
 3703ntf    cn122595   1.765   1.921   5.039  0.0851  0.1096 -0.1209
 3703ntf    fn422596   1.630   2.398   5.016  0.0543  0.7568 -0.1792
 3703ntf    fn422597   1.507   2.365   4.851  0.1977 -0.1889  0.2127
 3703ntf    fn422598   1.432   2.412   5.049 -0.5502 -0.0742  0.1774
 3703ntf    on522599   1.482   2.159   5.156  0.3403  0.2527  0.2161
 3703ntf    on522600   1.397   2.113   4.926  0.1927  0.2920 -0.3655
 3703ntf    on522601   1.775   2.139   5.184  0.8570 -0.2357 -0.0213
 3703ntf    on522602   1.890   2.129   4.970  0.2454  0.2537  0.6718
 3703ntf    fn422603   1.642   1.876   5.020  0.1472  0.0794 -0.4549
 3703ntf    fn422604   1.839   1.877   4.939 -0.0368 -0.1314 -0.1086
 3703ntf    fn422605   1.813   1.868   5.150 -0.2821  0.1881  0.0790
 3704ntf    cn122606   5.884   6.359   6.153 -0.2775  0.0280  0.2373
 3704ntf    sn222607   5.800   6.450   6.019  0.0600  0.1016  0.0752
 3704ntf    nn322608   5.810   6.598   6.069 -0.0412 -0.1706  0.9220
 3704ntf    sn222609   5.707   6.717   6.063  0.1839 -0.0146 -0.0949
 3704ntf    cn122610   5.794   6.825   5.946 -0.6011  0.5223 -0.1923
 3704ntf    fn422611   5.826   6.377   6.270  0.2727 -0.5779  0.6088
 3704ntf    fn422612   5.876   6.229   6.131 -0.6853  0.1557 -0.3909
 3704ntf    fn422613   6.010   6.393   6.174 -0.2055  0.0548 -0.2208
 3704ntf    on522614   5.878   6.426   5.900 -0.3565  0.2643 -0.2312
 3704ntf    on522615   5.667   6.395   6.022  0.4057 -0.7198  0.5920
 3704ntf    on522616   5.714   6.793   6.186 -0.4416 -0.8596  0.4764
 3704ntf    on522617   5.581   6.702   5.995  0.1126 -0.0067  0.0344
 3704ntf    fn422618   5.742   6.945   5.925 -0.6663  0.6547  0.6922
 3704ntf    fn422619   5.921   6.846   5.974 -0.4665 -0.0620 -0.3511
 3704ntf    fn422620   5.788   6.770   5.826 -0.1527 -0.0735  0.0528
 3705ntf    cn122621   4.015   6.117   3.881 -0.0334 -0.0272 -0.0289
 3705ntf    sn222622   4.124   6.221   3.982 -0.1454 -0.3700  0.4429
 3705ntf    nn322623   4.244   6.246   3.884 -0.2207 -0.2957  0.3709
 3705ntf    sn222624   4.395   6.249   3.926 -0.0691  0.1194 -0.1875
 3705ntf    cn122625   4.401   6.375   4.057  0.2835  0.2519 -0.3303
 3705ntf    fn422626   3.990   6.173   3.763 -0.1395  0.6091  0.2943
 3705ntf    fn422627   4.077   6.003   3.859  0.7046  0.3803 -0.1114
 3705ntf    fn422628   3.898   6.090   3.937  0.0913  0.1316  0.3071
 3705ntf    on522629   4.052   6.343   4.008  0.2181 -0.1747  0.5549
 3705ntf    on522630   4.153   6.137   4.096 -0.0283 -0.5221  0.3017
 3705ntf    on522631   4.469   6.319   3.823  0.0330  0.3584  0.0478
 3705ntf    on522632   4.436   6.124   3.984  0.5457 -0.0756 -1.0170
 3705ntf    fn422633   4.354   6.339   4.175  1.0166  0.7486  0.1243
 3705ntf    fn422634   4.527   6.405   4.084  0.3201 -0.0641 -0.1415
 3705ntf    fn422635   4.343   6.489   4.023 -0.2249  0.1179  0.0841
 3706ntf    cn122636   6.208   2.761   6.195  0.4706 -0.1910  0.4134
 3706ntf    sn222637   6.225   2.882   6.329  0.1372  0.1467  0.1527
 3706ntf    nn322638   6.376   2.924   6.314  0.1459  0.1164  0.1544
 3706ntf    sn222639   6.509   2.875   6.381  0.0201 -0.2397  0.1478
 3706ntf    cn122640   6.525   2.996   6.516 -0.1468 -0.1203  0.0612
 3706ntf    fn422641   6.211   2.816   6.075 -0.3447 -0.4415  0.2691
 3706ntf    fn422642   6.302   2.667   6.192  0.2109 -0.4390 -0.4568
 3706ntf    fn422643   6.092   2.697   6.198  0.3311  0.0189 -0.3941
 3706ntf    on522644   6.143   2.992   6.286 -0.3368 -0.0503  0.5473
 3706ntf    on522645   6.181   2.814   6.448 -0.3795  0.2248  0.0088
 3706ntf    on522646   6.624   2.910   6.301 -0.3588  0.1170 -0.2446
 3706ntf    on522647   6.507   2.752   6.455  0.6851 -0.5669 -0.3695
 3706ntf    fn422648   6.529   3.123   6.480 -0.1713 -0.1453 -0.0309
 3706ntf    fn422649   6.425   2.979   6.600 -0.2747 -0.0746 -0.0813
 3706ntf    fn422650   6.637   2.975   6.584 -0.0658  0.2078  0.0300
 3707ntf    cn122651   6.978   0.289   2.407  0.4146  0.0786 -0.7378
 3707ntf    sn222652   6.901   0.382   2.543  0.5146 -0.3340 -0.3993
 3707ntf    nn322653   6.910   0.279   2.661  0.3077  0.2280  0.1115
 3707ntf    sn222654   7.034   0.240   2.749  0.4413  0.2919 -0.0471
 3707ntf    cn122655   7.063   0.079   2.671 -0.1846 -0.0796  0.4703
 3707ntf    fn422656   6.961   0.352   2.291 -0.0877  0.1187 -0.6449
 3707ntf    fn422657   7.109   0.278   2.427  0.3031  0.1292  0.0458
 3707ntf    fn422658   6.930   0.166   2.398 -0.4178  0.3240  0.2070
 3707ntf    on522659   6.988   0.495   2.561 -0.1320  0.1282 -0.1349
 3707ntf    on522660   6.762   0.398   2.509  0.5074  0.3188 -0.0755
 3707ntf    on522661   7.004   0.186   2.880 -0.2841 -0.1338 -0.3849
 3707ntf    on522662   7.157   0.311   2.726  0.2780  0.4026 -0.5895
 3707ntf    fn422663   7.167   0.015   2.721 -0.0475 -0.0635  0.2116
 3707ntf    fn422664   6.960  -0.003   2.684 -0.7546  0.3615 -0.9612
 3707ntf    fn422665   7.080   0.081   2.539  0.1975 -0.4661  0.5110
 3708ntf    cn122666   2.541   5.488   4.440  0.1480  0.2461  0.0999
 3708ntf    sn222667   2.449   5.343   4.501 -0.0273  0.1650 -0.3541
 3708ntf    nn322668   2.340   5.419   4.585 -0.0459  0.6659 -0.8222
 3708ntf    sn222669   2.185   5.422   4.564 -0.2658 -0.2006  0.5369
 3708ntf    cn122670   2.131   5.292   4.680 -0.1787 -0.1521  0.6310
 3708ntf    fn422671   2.656   5.458   4.381 -0.0443 -0.7879  0.2286
 3708ntf    fn422672   2.475   5.548   4.342 -0.3214 -0.1881  0.1421
 3708ntf    fn422673   2.562   5.582   4.530 -0.2814 -0.4590  0.9476
 3708ntf    on522674   2.425   5.266   4.381 -0.4695 -0.8584  0.3774
 3708ntf    on522675   2.548   5.281   4.585  0.0977  0.6134 -0.1667
 3708ntf    on522676   2.133   5.371   4.439 -0.3848  0.5473  0.2788
 3708ntf    on522677   2.121   5.536   4.624 -0.4865 -0.3213  0.5339
 3708ntf    fn422678   2.184   5.303   4.800 -0.1116  0.4312  0.5530
 3708ntf    fn422679   1.999   5.282   4.678 -0.1308 -0.7803  0.3050
 3708ntf    fn422680   2.175   5.174   4.639 -0.6896  0.0142 -0.4616
 3709ntf    cn122681   1.943   4.051   1.550 -0.0506 -0.1835 -0.4138
 3709ntf    sn222682   1.983   4.090   1.723  0.0855 -0.3872 -0.3993
 3709ntf    nn322683   2.011   4.244   1.712  0.0384 -0.2716  0.9382
 3709ntf    sn222684   1.929   4.372   1.753  0.0808 -0.0058  0.1983
 3709ntf    cn122685   2.039   4.445   1.877  0.1109 -0.0117  0.1753
 3709ntf    fn422686   1.815   4.059   1.518 -0.2028 -0.8319  0.0069
 3709ntf    fn422687   2.008   4.130   1.466  0.1843 -0.5729 -0.5998
 3709ntf    fn422688   1.972   3.926   1.518 -0.0743 -0.4014  0.3795
 3709ntf    on522689   1.867   4.055   1.801 -0.0827 -0.0173 -0.4808
 3709ntf    on522690   2.105   4.015   1.742  0.1252 -0.2929 -0.2810
 3709ntf    on522691   1.809   4.349   1.829  0.0121  0.2801  0.1760
 3709ntf    on522692   1.925   4.463   1.641  0.4595  0.0008  0.1893
 3709ntf    fn422693   2.157   4.477   1.827  0.1508  0.4193  0.5273
 3709ntf    fn422694   1.988   4.552   1.936 -0.0707  0.2946 -0.5304
 3709ntf    fn422695   2.073   4.360   1.972  0.1216 -0.4765 -0.2432
 3710ntf    cn122696   0.056   5.431   1.006  0.1718  0.2845  0.0767
 3710ntf    sn222697  -0.124   5.409   0.991  0.2131  0.0316 -0.0615
 3710ntf    nn322698  -0.128   5.254   1.016  0.7400  0.0655  0.2469
 3710ntf    sn222699  -0.100   5.162   1.140  0.0712 -0.5016 -0.0198
 3710ntf    cn122700  -0.273   5.120   1.177 -0.0604 -0.1368 -0.2192
 3710ntf    fn422701   0.114   5.326   0.949 -0.3372 -0.1608  0.3690
 3710ntf    fn422702   0.094   5.542   0.944 -0.1309  0.2622 -0.1557
 3710ntf    fn422703   0.106   5.456   1.126  0.2633  0.1692  0.0635
 3710ntf    on522704  -0.189   5.483   1.097  0.2185  0.0468 -0.0688
 3710ntf    on522705  -0.147   5.443   0.853 -0.7665 -0.0175  0.0789
 3710ntf    on522706  -0.056   5.229   1.259 -0.5309 -0.3014  0.0917
 3710ntf    on522707  -0.035   5.037   1.106  0.4744 -0.1742 -0.4622
 3710ntf    fn422708  -0.326   5.030   1.096 -0.1995 -0.1676 -0.0942
 3710ntf    fn422709  -0.282   5.054   1.291  0.1429  0.6634  0.2638
 3710ntf    fn422710  -0.346   5.230   1.183  0.1223 -0.0414  0.2781
 3711ntf    cn122711   3.178   0.342   0.685 -0.0310 -0.0882  0.0852
 3711ntf    sn222712   3.195   0.389   0.860 -0.2699  0.0593  0.0682
 3711ntf    nn322713   3.051   0.354   0.913 -0.2944 -0.0510 -0.0709
 3711ntf    sn222714   2.961   0.437   1.011  0.0257  0.2351 -0.0153
 3711ntf    cn122715   2.895   0.566   0.902 -0.1029 -0.1710 -0.4226
 3711ntf    fn422716   3.294   0.335   0.621 -0.0112  0.5826  0.0468
 3711ntf    fn422717   3.138   0.216   0.674 -0.0635 -0.0342 -0.4060
 3711ntf    fn422718   3.101   0.420   0.612 -0.2398 -0.2540  0.1274
 3711ntf    on522719   3.296   0.296   0.904  0.2889  0.5891 -0.0824
 3711ntf    on522720   3.233   0.527   0.840  0.3963 -0.0799  0.3362
 3711ntf    on522721   3.035   0.509   1.112 -0.0097  0.3658 -0.0820
 3711ntf    on522722   2.845   0.361   1.051  0.3469 -0.2484  0.0021
 3711ntf    fn422723   2.819   0.528   0.801 -0.0643 -0.8939 -0.1815
 3711ntf    fn422724   2.819   0.647   0.974  0.5641 -0.5926  0.7778
 3711ntf    fn422725   2.993   0.637   0.849 -0.2176  0.0524 -0.3391
 3712ntf    cn122726   6.285   5.428   6.537 -0.0834  0.5773 -0.1103
 3712ntf    sn222727   6.357   5.520   6.397  0.4114 -0.1234 -0.3238
 3712ntf    nn322728   6.269   5.476   6.274 -0.0326  0.0420 -0.0701
 3712ntf    sn222729   6.272   5.542   6.132  0.2694 -0.0033 -0.0857
 3712ntf    cn122730   6.241   5.413   6.008 -0.5052  0.1887 -0.0961
 3712ntf    fn422731   6.236   5.508   6.630  0.3169 -0.0477  0.6462
 3712ntf    fn422732   6.185   5.354   6.492  0.2385 -0.1895  0.4233
 3712ntf    fn422733   6.375   5.348   6.592 -0.0858  0.2861 -0.5181
 3712ntf    on522734   6.329   5.659   6.422  0.0402 -0.3286  0.4257
 3712ntf    on522735   6.495   5.480   6.383  0.5007  0.1327 -0.1727
 3712ntf    on522736   6.403   5.594   6.098 -0.0402  0.5921 -0.3898
 3712ntf    on522737   6.160   5.631   6.119  0.1383 -0.1301  0.1741
 3712ntf    fn422738   6.114   5.376   6.016 -0.3725 -0.2846 -0.1606
 3712ntf    fn422739   6.265   5.448   5.883  0.0124 -0.1779 -0.1020
 3712ntf    fn422740   6.315   5.307   6.036 -0.1187  0.5137  0.1195
 3713ntf    cn122741   0.019   0.675   4.551  0.3129  0.1602 -0.3660
 3713ntf    sn222742  -0.133   0.751   4.487  0.2741  0.3075 -0.1031
 3713ntf    nn322743  -0.173   0.834   4.614  0.0682  0.0304  0.0152
 3713ntf    sn222744  -0.161   0.986   4.652 -0.2668  0.0643 -0.0079
 3713ntf    cn122745  -0.337   1.017   4.619 -0.3259  0.0299  0.2728
 3713ntf    fn422746   0.125   0.686   4.472  0.0750 -0.1494 -0.7293
 3713ntf    fn422747   0.061   0.724   4.667  0.1930 -0.4414 -0.0683
 3713ntf    fn422748  -0.001   0.548   4.582  0.3845  0.0527 -0.7599
 3713ntf    on522749  -0.102   0.819   4.364 -0.0418  0.0037 -0.3536
 3713ntf    on522750  -0.222   0.637   4.484 -0.3734  0.8246 -0.8227
 3713ntf    on522751  -0.092   1.075   4.563 -0.0737  0.0673  0.1440
 3713ntf    on522752  -0.148   1.010   4.794 -0.4965 -0.1033  0.0416
 3713ntf    fn422753  -0.430   0.943   4.678 -0.5017 -0.1422 -0.2175
 3713ntf    fn422754  -0.366   1.142   4.650 -0.4333  0.0180  0.2187
 3713ntf    fn422755  -0.360   1.005   4.490  0.9017 -0.4955  0.0955
 3714ntf    cn122756   5.961   5.553   3.676 -0.0018 -0.0788 -0.0564
 3714ntf    sn222757   5.981   5.388   3.603  0.0626 -0.1173  0.0474
 3714ntf    nn322758   5.928   5.420   3.458 -0.4385 -0.7419  0.0889
 3714ntf    sn222759   5.794   5.374   3.389 -0.4646 -0.2711 -0.1768
 3714ntf    cn122760   5.841   5.210   3.324  0.2765 -0.1885  0.1387
 3714ntf    fn422761   5.832   5.584   3.675  0.0069 -0.0214  0.2801
 3714ntf    fn422762   6.008   5.565   3.799  0.2831 -0.2235 -0.1513
 3714ntf    fn422763   6.022   5.639   3.597  0.0637  0.0174  0.0971
 3714ntf    on522764   6.122   5.361   3.613 -0.0714 -0.6038  0.6519
 3714ntf    on522765   5.896   5.302   3.682  0.1454 -0.2260  0.0172
 3714ntf    on522766   5.755   5.453   3.275 -0.3560  0.1171  0.0528
 3714ntf    on522767   5.693   5.345   3.488 -0.0414  0.4901  0.4929
 3714ntf    fn422768   5.898   5.135   3.417  0.4311 -0.3853 -0.1153
 3714ntf    fn422769   5.738   5.145   3.273  0.5003 -0.5083  0.0951
 3714ntf    fn422770   5.927   5.217   3.224 -0.1283 -0.5022 -0.2330
 3715ntf    cn122771   0.945   4.160   5.122 -0.2584  0.3061 -0.2731
 3715ntf    sn222772   1.053   4.112   5.261 -0.1576 -0.2758 -0.5485
 3715ntf    nn322773   0.999   3.971   5.304  0.0628 -0.3123 -0.3921
 3715ntf    sn222774   0.890   3.925   5.407  0.0979  0.0291 -0.2016
 3715ntf    cn122775   0.979   3.871   5.556 -0.0589 -0.5866 -0.3292
 3715ntf    fn422776   0.948   4.065   5.030 -0.6540  0.1611 -0.1359
 3715ntf    fn422777   0.820   4.159   5.165 -0.2865  0.3436 -0.3551
 3715ntf    fn422778   0.971   4.283   5.082 -0.0890  0.2565 -0.3158
 3715ntf    on522779   1.188   4.111   5.210  0.2476 -0.1145  0.4938
 3715ntf    on522780   1.026   4.215   5.358 -0.2795 -0.7195 -0.1130
 3715ntf    on522781   0.819   3.805   5.371  0.7264 -0.3258 -0.2721
 3715ntf    on522782   0.807   4.030   5.462 -0.0321 -0.2549  0.1460
 3715ntf    fn422783   0.903   3.806   5.643  0.4969  0.5516  1.0553
 3715ntf    fn422784   1.083   3.795   5.529  0.6668  0.1312  0.3752
 3715ntf    fn422785   1.018   3.973   5.630 -0.2754 -0.4702 -0.3750
 3716ntf    cn122786   4.365   0.864   4.715  0.1533 -0.0030 -0.5268
 3716ntf    sn222787   4.222   0.970   4.678  0.1211  0.0014 -0.3880
 3716ntf    nn322788   4.280   1.028   4.544 -0.3022  0.4591 -0.3780
 3716ntf    sn222789   4.197   1.034   4.411 -0.0559  0.1497 -0.5492
 3716ntf    cn122790   4.109   1.192   4.435  0.2055  0.1326  0.5846
 3716ntf    fn422791   4.348   0.779   4.814  0.4527  0.5323 -0.0127
 3716ntf    fn422792   4.400   0.789   4.612 -0.3286  0.2057 -0.8479
 3716ntf    fn422793   4.474   0.933   4.746 -0.2911  0.4026  0.1566
 3716ntf    on522794   4.116   0.872   4.669  0.2002 -0.1234  0.0464
 3716ntf    on522795   4.249   1.055   4.791  0.6458 -0.1073 -0.4308
 3716ntf    on522796   4.094   0.935   4.393 -0.0503  0.1435 -0.5456
 3716ntf    on522797   4.285   1.057   4.299  0.3647 -0.7834 -0.4134
 3716ntf    fn422798   4.050   1.182   4.553  0.7022 -0.2866  0.8061
 3716ntf    fn422799   4.194   1.293   4.433  0.4237 -0.0498  0.5737
 3716ntf    fn422800   4.012   1.212   4.347  0.4969  0.5354  0.3501
 3717ntf    cn122801   4.072   1.679   2.196 -0.0769  0.1607  0.1832
 3717ntf    sn222802   3.967   1.795   2.103  0.1567  0.0780 -0.1881
 3717ntf    nn322803   3.893   1.694   2.010 -0.0075 -0.2570  0.3031
 3717ntf    sn222804   3.850   1.711   1.860  0.1447 -0.2749  0.2573
 3717ntf    cn122805   3.710   1.824   1.889  0.1031 -0.3238  0.2476
 3717ntf    fn422806   3.999   1.587   2.257  0.1640 -0.0934  0.0915
 3717ntf    fn422807   4.170   1.623   2.127 -0.3603  0.2438 -0.2946
 3717ntf    fn422808   4.127   1.743   2.298 -0.3661 -0.0548  0.4750
 3717ntf    on522809   3.878   1.851   2.202  0.5348 -0.0383  0.2226
 3717ntf    on522810   4.064   1.888   2.050  0.8818 -0.2292  0.5771
 3717ntf    on522811   3.797   1.588   1.806 -0.1109 -0.1127  0.1354
 3717ntf    on522812   3.937   1.788   1.775  0.1758 -1.0744 -0.4422
 3717ntf    fn422813   3.661   1.869   1.775  0.5551 -0.5278 -0.0293
 3717ntf    fn422814   3.617   1.767   1.963 -0.6580  0.3632 -0.1747
 3717ntf    fn422815   3.746   1.932   1.956 -0.2287 -0.1971  0.2212
 3718ntf    cn122816   0.298   6.184   5.709 -0.0791 -0.6048 -0.3768
 3718ntf    sn222817   0.124   6.189   5.658 -0.2627 -0.3532  0.2646
 3718ntf    nn322818   0.110   6.325   5.581 -0.0379 -0.4302  0.0867
 3718ntf    sn222819   0.069   6.459   5.653  0.5097 -0.0341 -0.3210
 3718ntf    cn122820   0.181   6.581   5.579  0.5254  0.0396 -0.1772
 3718ntf    fn422821   0.380   6.230   5.616  0.0515  0.5963  0.3047
 3718ntf    fn422822   0.322   6.258   5.816 -0.4382 -0.7000 -0.2302
 3718ntf    fn422823   0.345   6.068   5.752  0.2145 -0.3406  0.0258
 3718ntf    on522824   0.117   6.080   5.563 -0.5991  0.3482 -0.5305
 3718ntf    on522825   0.055   6.179   5.784 -0.3396 -0.1492  0.2399
 3718ntf    on522826   0.101   6.462   5.794 -0.2578 -0.7902 -0.1218
 3718ntf    on522827  -0.059   6.504   5.604  0.5056  0.0787 -0.2067
 3718ntf    fn422828   0.167   6.583   5.447 -0.2834 -0.6863 -0.1125
 3718ntf    fn422829   0.157   6.705   5.617 -0.2729 -0.1430 -0.0551
 3718ntf    fn422830   0.308   6.547   5.595  0.4175 -0.2184  0.1364
 3719ntf    cn122831   1.423   6.827   3.923 -0.0717 -0.2482 -0.4202
 3719ntf    sn222832   1.253   6.880   3.883  0.0170  0.1116 -0.3203
 3719ntf    nn322833   1.193   6.758   3.805  1.6767 -0.9756  0.0403
 3719ntf    sn222834   1.110   6.642   3.871  0.1224  0.0645 -0.0310
 3719ntf    cn122835   0.942   6.708   3.851  0.2530  0.3201 -0.2992
 3719ntf    fn422836   1.424   6.697   3.946  0.6541 -0.2384 -0.3816
 3719ntf    fn422837   1.509   6.854   3.826 -0.0986 -0.0890 -0.4004
 3719ntf    fn422838   1.458   6.884   4.037 -0.4800 -0.4557 -0.1851
 3719ntf    on522839   1.180   6.915   4.002 -0.3963  0.7751 -0.7634
 3719ntf    on522840   1.280   6.994   3.798  0.3676  0.3128  0.0566
 3719ntf    on522841   1.128   6.614   4.011 -0.4618 -0.1221  0.0083
 3719ntf    on522842   1.107   6.527   3.785 -0.1066 -0.1078  0.2072
 3719ntf    fn422843   0.855   6.611   3.874 -0.0267  0.7375  0.4167
 3719ntf    fn422844   0.915   6.805   3.936 -0.3856 -0.0537 -0.0674
 3719ntf    fn422845   0.922   6.764   3.733 -0.2751  0.2047 -0.2702
 3720ntf    cn122846   2.727   7.232   4.327  0.5630 -0.2751  0.0514
 3720ntf    sn222847   2.896   7.175   4.361  0.5501 -0.2180  0.2114
 3720ntf    nn322848   2.900   7.243   4.503  0.7745 -0.1799  0.1876
 3720ntf    sn222849   2.968   7.372   4.561  0.0136  0.3776 -0.1566
 3720ntf    cn122850   3.127   7.298   4.608  0.0160  0.4812 -0.0022
 3720ntf    fn422851   2.699   7.255   4.199  0.3681 -0.1433  0.1163
 3720ntf    fn422852   2.633   7.146   4.362 -0.5782  0.6058 -0.7580
 3720ntf    fn422853   2.699   7.345   4.391  0.2520 -0.2681 -0.0919
 3720ntf    on522854   2.892   7.031   4.361 -0.4259 -0.1973 -0.0027
 3720ntf    on522855   2.983   7.242   4.267 -0.2067  0.4154 -0.0583
 3720ntf    on522856   2.933   7.419   4.693  0.7621  0.1158  0.1380
 3720ntf    on522857   3.000   7.477   4.467  0.7699  0.0502 -0.2735
 3720ntf    fn422858   3.178   7.232   4.506 -0.7286  0.3767 -0.3127
 3720ntf    fn422859   3.213   7.390   4.648  0.1837  0.2961  0.0627
 3720ntf    fn422860   3.119   7.210   4.707 -0.1789 -0.0662 -0.5002
 3721ntf    cn122861   2.563   6.605   1.546  0.0731 -0.5489  0.4567
 3721ntf    sn222862   2.626   6.495   1.415  0.3506  0.4543 -0.2581
 3721ntf    nn322863   2.773   6.473   1.464 -0.0120  0.1956  0.7344
 3721ntf    sn222864   2.836   6.342   1.525  0.0734 -0.0701  0.0783
 3721ntf    cn122865   2.810   6.338   1.705 -0.1617 -0.7858  0.0331
 3721ntf    fn422866   2.434   6.627   1.532  0.1912  0.1124  0.3736
 3721ntf    fn422867   2.593   6.556   1.665  0.0057 -0.4935  0.4964
 3721ntf    fn422868   2.620   6.723   1.530 -0.4253 -0.3616  0.0560
 3721ntf    on522869   2.530   6.390   1.435 -0.3398  0.9778 -0.7546
 3721ntf    on522870   2.613   6.557   1.286  0.0861 -0.2567 -0.5767
 3721ntf    on522871   2.979   6.354   1.510  0.0541 -0.2196 -0.2484
 3721ntf    on522872   2.781   6.215   1.483 -0.1846 -0.0696  0.4095
 3721ntf    fn422873   2.686   6.369   1.739  0.0682  0.1151  0.0907
 3721ntf    fn422874   2.835   6.214   1.743 -0.0914 -0.7495  0.1079
 3721ntf    fn422875   2.881   6.421   1.780 -0.4573 -0.9362  0.4846
 3722ntf    cn122876   5.755   3.450   1.669  0.2929  0.0411 -0.0208
 3722ntf    sn222877   5.912   3.541   1.675  0.2268  0.1472  0.1219
 3722ntf    nn322878   5.992   3.432   1.596 -0.1860 -0.1246  0.0740
 3722ntf    sn222879   5.974   3.390   1.446 -0.2997 -0.0043  0.0544
 3722ntf    cn122880   6.139   3.438   1.388 -0.3435 -0.0790 -0.1360
 3722ntf    fn422881   5.700   3.434   1.550  0.5725 -0.5506 -0.0696
 3722ntf    fn422882   5.774   3.331   1.723 -0.1096  0.0685  0.1908
 3722ntf    fn422883   5.661   3.507   1.744  0.4183 -0.0479  0.2049
 3722ntf    on522884   5.893   3.666   1.604  0.6175  0.3676  0.4025
 3722ntf    on522885   5.947   3.541   1.815 -0.2761 -0.6779  0.2546
 3722ntf    on522886   5.894   3.486   1.373 -0.4841 -0.0076  0.2515
 3722ntf    on522887   5.972   3.247   1.428 -0.2826 -0.0190  0.1707
 3722ntf    fn422888   6.154   3.411   1.259  0.7693 -0.2154  0.0056
 3722ntf    fn422889   6.169   3.566   1.409  0.4345 -0.2619 -0.1124
 3722ntf    fn422890   6.236   3.367   1.442 -0.3399 -0.0080 -0.0488
 3723ntf    cn122891   0.071   0.060   1.057  0.5266  0.0136 -0.1930
 3723ntf    sn222892   0.076   0.065   1.239  0.0781  0.2703 -0.1856
 3723ntf    nn322893  -0.025   0.181   1.269 -0.5161 -0.2833 -0.0308
 3723ntf    sn222894  -0.124   0.193   1.390 -0.1101  0.3322  0.2392
 3723ntf    cn122895  -0.260   0.094   1.324  0.2745  0.0243 -0.0958
 3723ntf    fn422896   0.086   0.175   0.995  0.0692 -0.2412 -0.7811
 3723ntf    fn422897   0.150  -0.028   0.998  0.5671  0.1368 -0.3202
 3723ntf    fn422898  -0.051   0.020   1.026  0.2768 -0.0463  0.8052
 3723ntf    on522899   0.042  -0.071   1.274 -0.2085  0.3275 -0.2461
 3723ntf    on522900   0.213   0.105   1.265  0.1780 -0.0763 -0.1695
 3723ntf    on522901  -0.167   0.330   1.404  0.5601  0.5590  0.1478
 3723ntf    on522902  -0.100   0.112   1.507  0.2462  0.0272 -0.0457
 3723ntf    fn422903  -0.233  -0.032   1.292 -0.4292 -0.1105 -0.1871
 3723ntf    fn422904  -0.356   0.095   1.416 -0.1801 -0.3031 -0.5545
 3723ntf    fn422905  -0.315   0.145   1.215  0.0934  0.2382  0.0933
 3724ntf    cn122906   4.475   4.780   0.478 -0.2268 -0.5817  0.2114
 3724ntf    sn222907   4.294   4.768   0.486 -0.2892  0.1148 -0.1390
 3724ntf    nn322908   4.283   4.689   0.622 -0.4890  0.1700 -0.1221
 3724ntf    sn222909   4.153   4.658   0.704 -0.2925 -0.2961  0.0141
 3724ntf    cn122910   4.125   4.824   0.773  0.1742 -0.2247  0.0397
 3724ntf    fn422911   4.533   4.667   0.515  1.1523  0.0060 -0.1178
 3724ntf    fn422912   4.522   4.801   0.356  0.1092 -0.4159  0.3685
 3724ntf    fn422913   4.528   4.877   0.550 -0.6969 -0.0505 -0.1580
 3724ntf    on522914   4.254   4.907   0.494  0.3377  0.3258 -0.5827
 3724ntf    on522915   4.258   4.697   0.366 -0.3723 -0.0388 -0.0239
 3724ntf    on522916   4.191   4.572   0.814  0.0247  0.1247  0.2363
 3724ntf    on522917   4.040   4.635   0.618  0.3127 -0.2314 -0.8149
 3724ntf    fn422918   4.040   4.819   0.875  0.3899  0.4461  0.2561
 3724ntf    fn422919   4.240   4.872   0.818  0.2193  0.0200 -0.3390
 3724ntf    fn422920   4.076   4.904   0.680 -0.3769  0.0410  0.5476
 3725ntf    cn122921   0.709   1.626   3.315  0.1525 -0.0729 -0.1283
 3725ntf    sn222922   0.601   1.772   3.321  0.3876  0.0988 -0.0541
 3725ntf    nn322923   0.659   1.869   3.211  0.3386 -0.2882 -0.4235
 3725ntf    sn222924   0.725   2.011   3.223 -0.1161 -0.1053 -0.0470
 3725ntf    cn122925   0.606   2.102   3.120 -0.2902  0.1154  0.3474
 3725ntf    fn422926   0.836   1.654   3.340  0.1406  0.0434 -0.1967
 3725ntf    fn422927   0.660   1.545   3.407  0.4137  0.0674  0.1365
 3725ntf    fn422928   0.699   1.552   3.206  0.1462  0.1571 -0.2850
 3725ntf    on522929   0.479   1.709   3.279  0.4931 -0.6515  0.7386
 3725ntf    on522930   0.607   1.817   3.458 -0.5427  0.1971 -0.0438
 3725ntf    on522931   0.850   2.028   3.154 -0.2549 -0.6003 -0.4224
 3725ntf    on522932   0.723   2.076   3.352  0.2658 -0.4389  0.1310
 3725ntf    fn422933   0.512   2.149   3.201 -0.1374 -0.0134  0.6037
 3725ntf    fn422934   0.658   2.208   3.062  0.0658  0.1876  0.7893
 3725ntf    fn422935   0.545   2.033   3.025  0.0124  0.1883  0.1020
 3726ntf    cn122936   1.216   4.384   0.086 -0.0100 -0.1904  0.3154
 3726ntf    sn222937   1.348   4.428   0.203  0.2556 -0.2654  0.0468
 3726ntf    nn322938   1.272   4.537   0.286 -0.0776 -0.7398  0.3674
 3726ntf    sn222939   1.262   4.557   0.442 -0.0630  0.0605  0.2740
 3726ntf    cn122940   1.111   4.462   0.478 -0.0180 -0.2455 -0.3329
 3726ntf    fn422941   1.247   4.419  -0.038 -0.1904 -0.1100  0.2922
 3726ntf    fn422942   1.195   4.253   0.077 -0.2447 -0.1138 -0.3189
 3726ntf    fn422943   1.096   4.425   0.123 -0.3604 -1.0012  0.1106
 3726ntf    on522944   1.384   4.305   0.268 -0.0914  0.0208  0.7881
 3726ntf    on522945   1.443   4.491   0.114 -0.2906  0.2301 -0.1989
 3726ntf    on522946   1.231   4.691   0.485  0.3218  0.3636 -0.3834
 3726ntf    on522947   1.359   4.489   0.524  0.3535 -0.0695 -0.3235
 3726ntf    fn422948   1.081   4.367   0.390 -0.3874 -0.1184 -0.3469
 3726ntf    fn422949   1.121   4.398   0.593  0.0332 -0.1987 -0.3111
 3726ntf    fn422950   1.009   4.542   0.503 -0.0945 -0.5941  0.4779
 3727ntf    cn122951   3.312   3.769   5.879  0.0277 -0.1090 -0.0788
 3727ntf    sn222952   3.358   3.685   5.725 -0.0744  0.2658 -0.3159
 3727ntf    nn322953   3.293   3.784   5.622 -0.0624  0.4793 -0.1195
 3727ntf    sn222954   3.153   3.795   5.551 -0.0106 -0.0215 -0.3048
 3727ntf    cn122955   3.208   3.816   5.379 -0.1431  0.2142 -0.3190
 3727ntf    fn422956   3.348   3.722   5.997 -0.0196 -0.2507 -0.1202
 3727ntf    fn422957   3.360   3.892   5.878  0.0099 -0.0967  0.4230
 3727ntf    fn422958   3.181   3.783   5.894 -0.0479 -0.2998 -0.5580
 3727ntf    on522959   3.503   3.683   5.725 -0.0618  0.5257  1.0105
 3727ntf    on522960   3.290   3.558   5.732  0.0336  0.2420  0.3516
 3727ntf    on522961   3.103   3.925   5.586 -0.6750 -0.0886 -0.9716
 3727ntf    on522962   3.059   3.686   5.544 -0.1225  0.0025  0.7257
 3727ntf    fn422963   3.291   3.715   5.354 -0.3607 -0.0955  0.1910
 3727ntf    fn422964   3.104   3.811   5.298 -0.0859 -0.3710 -0.3655
 3727ntf    fn422965   3.267   3.931   5.354  0.7000 -0.1658 -0.1292
 3728ntf    cn122966   4.815   7.046   5.051  0.1623  0.1902 -0.2175
 3728ntf    sn222967   4.635   7.066   5.030  0.0307 -0.4754  0.2335
 3728ntf    nn322968   4.605   7.185   5.127  0.6756 -0.0553 -0.0775
 3728ntf    sn222969   4.535   7.324   5.108  0.0619 -0.3148  0.2633
 3728ntf    cn122970   4.641   7.436   5.205  0.2011 -0.3649  0.1681
 3728ntf    fn422971   4.851   7.053   5.178  0.1923  0.4787 -0.2408
 3728ntf    fn422972   4.869   6.937   5.000  0.1888 -0.0105  0.2372
 3728ntf    fn422973   4.868   7.151   4.991 -0.2972  0.4087 -0.2494
 3728ntf    on522974   4.622   7.090   4.889  0.7936 -0.6241  0.1331
 3728ntf    on522975   4.579   6.938   5.066 -0.8559 -0.0767  0.2899
 3728ntf    on522976   4.409   7.337   5.178  0.0431  0.5513  0.0852
 3728ntf    on522977   4.538   7.386   4.978 -0.0104 -0.4060  0.2186
 3728ntf    fn422978   4.601   7.441   5.331 -0.0297 -0.4749  0.0992
 3728ntf    fn422979   4.770   7.406   5.197  0.2674  0.1267 -0.8185
 3728ntf    fn422980   4.633   7.563   5.170  0.1255 -0.5646 -0.5606
 3729ntf    cn122981   4.340   1.132   7.091  0.4589  0.1324 -0.2250
 3729ntf    sn222982   4.417   1.060   6.943  0.2249 -0.1581 -0.2043
 3729ntf    nn322983   4.569   1.061   6.981  0.1483 -0.3717  0.1043
 3729ntf    sn222984   4.671   1.171   6.935 -0.4284 -0.0906 -0.5102
 3729ntf    cn122985   4.702   1.095   6.773 -0.3773 -0.2592 -0.4217
 3729ntf    fn422986   4.370   1.061   7.198  0.3164  0.4411  0.0240
 3729ntf    fn422987   4.383   1.254   7.121  0.1470  0.2445 -0.2314
 3729ntf    fn422988   4.209   1.145   7.094  0.4636  0.1570 -0.1060
 3729ntf    on522989   4.360   0.927   6.945 -0.5466  0.1707  0.1337
 3729ntf    on522990   4.382   1.149   6.835  0.1436  0.3294  0.2178
 3729ntf    on522991   4.797   1.159   7.003 -0.5460 -0.2557 -0.3175
 3729ntf    on522992   4.630   1.305   6.901  0.4438  0.2082 -0.4149
 3729ntf    fn422993   4.600   1.090   6.689 -0.7626 -0.3032  0.0396
 3729ntf    fn422994   4.803   1.151   6.710  0.0453  0.0854  0.5446
 3729ntf    fn422995   4.738   0.970   6.797  0.4744  0.1874  0.7107
 3730ntf    cn122996   0.411   3.025   5.300  0.3607 -0.0449 -0.0546
 3730ntf    sn222997   0.356   2.882   5.397  0.0678 -0.0397 -0.2126
 3730ntf    nn322998   0.441   2.916   5.525  0.4655  0.6626 -0.6616
 3730ntf    sn222999   0.400   2.958   5.670 -0.1024 -0.2571 -0.5505
 3730ntf    cn123000   0.403   2.795   5.752  0.0314  0.3833  0.7352
 3730ntf    fn423001   0.531   3.007   5.246  0.3326 -0.3682 -0.0133
 3730ntf    fn423002   0.327   3.058   5.203 -0.0658 -0.0056  0.3283
 3730ntf    fn423003   0.428   3.134   5.372  0.0616  0.1850 -0.3293
 3730ntf    on523004   0.212   2.890   5.407  0.1166 -0.0090  0.6064
 3730ntf    on523005   0.403   2.770   5.320 -0.1608 -0.1007 -0.2655
 3730ntf    on523006   0.265   3.006   5.688  0.0308  0.0398 -0.3460
 3730ntf    on523007   0.504   3.031   5.737 -0.7974  0.2029  0.0391
 3730ntf    fn423008   0.296   2.725   5.717  0.3994  0.5101 -0.7191
 3730ntf    fn423009   0.513   2.728   5.724 -0.2587  0.2002  0.0067
 3730ntf    fn423010   0.391   2.814   5.883 -0.3840  0.5511  0.6750
 3731ntf    cn123011   3.493   4.628   2.577 -0.1181  0.0531 -0.3152
 3731ntf    sn223012   3.383   4.756   2.646 -0.1987 -0.0736 -0.2083
 3731ntf    nn323013   3.280   4.666   2.722  0.1498 -0.1093  0.2292
 3731ntf    sn223014   3.127   4.693   2.745  0.1665 -0.0981  0.3259
 3731ntf    cn123015   3.111   4.634   2.916  0.4271 -0.2731  0.2900
 3731ntf    fn423016   3.441   4.568   2.471 -0.4779  0.4534 -0.3693
 3731ntf    fn423017   3.603   4.680   2.526 -0.1203  0.2995 -0.0696
 3731ntf    fn423018   3.527   4.528   2.657 -0.1822  0.9657  0.8886
 3731ntf    on523019   3.467   4.836   2.732 -0.2169 -0.4259  0.1360
 3731ntf    on523020   3.330   4.820   2.528 -0.0106  0.2883 -0.0991
 3731ntf    on523021   3.036   4.602   2.680 -0.2755  0.2041  0.5184
 3731ntf    on523022   3.088   4.831   2.762  1.2107  0.1398  0.8252
 3731ntf    fn423023   3.139   4.507   2.941  0.6590 -0.2446  0.1810
 3731ntf    fn423024   3.191   4.704   2.995  0.5781 -0.2318  0.1007
 3731ntf    fn423025   2.983   4.646   2.945  0.4742  0.0619  0.3630
 3732ntf    cn123026   6.813   5.772   5.059  0.0101 -0.1515 -0.6966
 3732ntf    sn223027   6.992   5.758   5.026  0.1268  0.1624 -0.2072
 3732ntf    nn323028   6.990   5.617   4.959 -0.4783  0.2709 -0.4291
 3732ntf    sn223029   7.004   5.588   4.805 -0.0028 -0.2803 -0.2862
 3732ntf    cn123030   7.183   5.611   4.781 -0.0427 -0.0294 -0.3515
 3732ntf    fn423031   6.787   5.896   5.096  0.3481 -0.0750 -0.7105
 3732ntf    fn423032   6.735   5.758   4.953 -0.5217 -0.3210 -0.2814
 3732ntf    fn423033   6.772   5.677   5.141  0.1248  0.1459 -0.2902
 3732ntf    on523034   7.025   5.872   4.944 -0.0797  0.0316 -0.4756
 3732ntf    on523035   7.052   5.751   5.157  0.0419 -0.0272 -0.1784
 3732ntf    on523036   6.937   5.683   4.719 -0.1323 -0.4532 -0.3759
 3732ntf    on523037   6.988   5.448   4.774 -0.0445 -0.2308 -0.4931
 3732ntf    fn423038   7.221   5.733   4.746  0.0425 -0.0051 -0.1738
 3732ntf    fn423039   7.263   5.580   4.881 -0.5555  0.1043  0.1034
 3732ntf    fn423040   7.225   5.531   4.684  0.0348 -0.4233  0.0078
 3733ntf    cn123041   7.100   1.039   2.844 -0.1754 -0.4008 -0.1794
 3733ntf    sn223042   7.060   0.946   2.694  0.1407  0.2282 -0.6588
 3733ntf    nn323043   7.014   1.038   2.575 -0.4381 -0.1863 -0.7594
 3733ntf    sn223044   7.099   1.085   2.452  0.0847  0.0550 -0.3123
 3733ntf    cn123045   7.053   0.950   2.339  0.2192 -0.1462 -0.1270
 3733ntf    fn423046   7.119   0.963   2.951 -0.1067  0.1279  0.1938
 3733ntf    fn423047   7.207   1.113   2.821  0.0325 -0.6333  0.0271
 3733ntf    fn423048   7.003   1.120   2.884  0.0063 -0.0535 -0.4381
 3733ntf    on523049   7.181   0.868   2.676  0.4553  0.4651  0.3869
 3733ntf    on523050   6.948   0.870   2.742  0.0226  0.7667 -0.0773
 3733ntf    on523051   7.242   1.084   2.469  0.1190  0.5229 -0.5584
 3733ntf    on523052   7.045   1.203   2.388  0.6624  0.4348 -0.1077
 3733ntf    fn423053   7.121   0.967   2.228  0.5193 -0.5456 -0.0078
 3733ntf    fn423054   7.068   0.825   2.381 -0.4324 -0.2952 -0.3196
 3733ntf    fn423055   6.924   0.946   2.310  0.2197 -0.3139 -0.1113
 3734ntf    cn123056   3.075   3.296   1.497 -0.3113 -0.1632  0.0619
 3734ntf    sn223057   3.073   3.114   1.498  0.1086 -0.1674  0.0711
 3734ntf    nn323058   3.062   3.085   1.652  0.0880  0.0204  0.1056
 3734ntf    sn223059   3.115   2.964   1.737 -0.1027 -0.3621 -0.3150
 3734ntf    cn123060   3.054   2.816   1.650 -0.3899 -0.3046 -0.2125
 3734ntf    fn423061   3.075   3.340   1.373  0.2919 -0.1520  0.0620
 3734ntf    fn423062   2.971   3.351   1.557 -0.8508 -0.3121 -0.7201
 3734ntf    fn423063   3.184   3.350   1.549 -0.1671 -0.0726 -0.3346
 3734ntf    on523064   2.960   3.072   1.420 -0.0124  0.2817  0.0064
 3734ntf    on523065   3.204   3.084   1.445 -0.0045  0.0651 -0.3382
 3734ntf    on523066   3.057   2.958   1.869 -0.2293 -0.4584 -0.3751
 3734ntf    on523067   3.259   2.965   1.729 -0.1116 -0.1381 -0.4483
 3734ntf    fn423068   3.113   2.704   1.688  0.0254 -0.2107 -0.5735
 3734ntf    fn423069   2.929   2.779   1.673 -0.5640  0.1502 -0.4126
 3734ntf    fn423070   3.069   2.828   1.519  0.2620 -0.0471 -0.1181
 3735ntf    cn123071   2.825   1.460   1.434  0.0577  0.0594  0.1296
 3735ntf    sn223072   2.776   1.295   1.494 -0.1242  0.0799  0.0385
 3735ntf    nn323073   2.693   1.260   1.366  0.3143 -0.0133 -0.2218
 3735ntf    sn223074   2.611   1.130   1.334  0.1719  0.0968 -0.3065
 3735ntf    cn123075   2.440   1.188   1.355  0.1965  0.0633 -0.0025
 3735ntf    fn423076   2.879   1.458   1.313  0.0079 -0.0557  0.1092
 3735ntf    fn423077   2.722   1.543   1.434 -0.7638 -0.9422 -0.4151
 3735ntf    fn423078   2.916   1.503   1.520  0.1226 -0.1869  0.1842
 3735ntf    on523079   2.909   1.239   1.489 -0.3344 -0.3879 -0.2926
 3735ntf    on523080   2.703   1.317   1.616  0.3498 -0.1893  0.3742
 3735ntf    on523081   2.628   1.023   1.430 -0.2331  0.1212 -0.2054
 3735ntf    on523082   2.621   1.106   1.192  0.5983  0.3103 -0.3135
 3735ntf    fn423083   2.348   1.114   1.295 -0.1836  0.8992 -0.4748
 3735ntf    fn423084   2.400   1.202   1.480 -0.4768 -0.2009 -0.1861
 3735ntf    fn423085   2.427   1.309   1.303  0.8158  0.3984  0.6123
 3736ntf    cn123086   0.455   5.732   5.214 -0.0689 -0.1089 -0.4944
 3736ntf    sn223087   0.290   5.748   5.139 -0.1555  0.0064 -0.2797
 3736ntf    nn323088   0.319   5.746   4.985  0.0269  0.1601 -0.2467
 3736ntf    sn223089   0.383   5.862   4.901  0.0708  0.1645 -0.2072
 3736ntf    cn123090   0.233   5.903   4.806 -0.0372 -0.3233 -0.2501
 3736ntf    fn423091   0.452   5.709   5.344  0.0039 -0.7857 -0.6093
 3736ntf    fn423092   0.517   5.633   5.151  0.5822  0.3277 -0.5452
 3736ntf    fn423093   0.529   5.840   5.199 -0.7029  0.3987 -0.0084
 3736ntf    on523094   0.221   5.634   5.197 -0.0910  0.1748  0.1295
 3736ntf    on523095   0.245   5.877   5.185  0.5983  0.1900 -0.0559
 3736ntf    on523096   0.468   5.818   4.793  0.2159  0.0386 -0.0395
 3736ntf    on523097   0.432   5.975   4.975 -0.0988  0.2055 -0.1567
 3736ntf    fn423098   0.136   5.940   4.888  0.0848 -0.4570 -0.0456
 3736ntf    fn423099   0.259   6.006   4.727  0.4353 -0.4761 -0.2926
 3736ntf    fn423100   0.183   5.805   4.733 -0.0590  0.1290 -0.8522
 3737ntf    cn123101   4.197   2.474   4.505  0.0279  0.1757  0.1808
 3737ntf    sn223102   4.164   2.327   4.606  0.1492 -0.1222 -0.2120
 3737ntf    nn323103   4.182   2.214   4.499  0.2570 -0.0950 -0.2226
 3737ntf    sn223104   4.296   2.106   4.496 -0.0414 -0.4114 -0.2818
 3737ntf    cn123105   4.271   2.014   4.651 -0.3004  0.1436  0.0071
 3737ntf    fn423106   4.191   2.585   4.577 -0.2973  0.6129 -0.5052
 3737ntf    fn423107   4.315   2.467   4.446 -0.0439 -0.2390  0.0894
 3737ntf    fn423108   4.115   2.486   4.402  0.1386  0.2215  0.0966
 3737ntf    on523109   4.260   2.324   4.713  0.0159  0.1641 -0.0833
 3737ntf    on523110   4.028   2.332   4.653  0.1428 -0.4260 -0.1957
 3737ntf    on523111   4.429   2.161   4.500  0.2662 -1.1411 -0.3059
 3737ntf    on523112   4.276   2.005   4.394 -0.9259 -0.3547 -0.1690
 3737ntf    fn423113   4.277   2.092   4.758  0.1741  0.1048  0.0090
 3737ntf    fn423114   4.155   1.952   4.664 -0.3598  0.2207 -0.1454
 3737ntf    fn423115   4.370   1.929   4.669  0.4714  1.0537  0.1200
 3738ntf    cn123116   2.646   5.686   3.556 -0.2233  0.0095  0.1196
 3738ntf    sn223117   2.702   5.855   3.516 -0.1420 -0.0544 -0.0358
 3738ntf    nn323118   2.847   5.846   3.576  0.0365 -0.8575 -0.5531
 3738ntf    sn223119   2.981   5.905   3.520 -0.0126 -0.5406 -0.3432
 3738ntf    cn123120   3.035   5.754   3.433  0.4097 -0.4584 -0.2274
 3738ntf    fn423121   2.530   5.648   3.504  0.1941 -0.2716 -0.6239
 3738ntf    fn423122   2.722   5.595   3.498 -0.2106  0.3535 -0.4131
 3738ntf    fn423123   2.647   5.669   3.687 -0.3210  0.1643  0.1415
 3738ntf    on523124   2.693   5.837   3.373  0.2313  0.6786 -0.1537
 3738ntf    on523125   2.606   5.941   3.579 -0.1042  0.2531 -0.3989
 3738ntf    on523126   3.074   5.926   3.628 -0.0318 -0.5073 -0.3329
 3738ntf    on523127   2.964   6.011   3.424 -0.0585  0.3728  0.6562
 3738ntf    fn423128   3.163   5.760   3.399  0.3476 -0.1994 -0.4233
 3738ntf    fn423129   3.025   5.656   3.521 -0.4405 -0.0815  0.1074
 3738ntf    fn423130   2.967   5.722   3.324 -0.2676 -0.3151  0.1433
 3739ntf    cn123131   4.572   0.913   2.503 -0.3681 -0.1473  0.0874
 3739ntf    sn223132   4.509   0.747   2.541 -0.0738 -0.3348 -0.2416
 3739ntf    nn323133   4.356   0.770   2.515 -0.1964 -0.8101  0.0556
 3739ntf    sn223134   4.275   0.766   2.380 -0.2264 -0.2536  0.0552
 3739ntf    cn123135   4.187   0.613   2.422 -0.0828 -0.3441  0.0276
 3739ntf    fn423136   4.486   1.004   2.545 -0.2267 -0.1502  0.3840
 3739ntf    fn423137   4.694   0.936   2.549 -0.6635  0.3744  0.6204
 3739ntf    fn423138   4.579   0.935   2.372 -0.7111 -0.3593  0.0343
 3739ntf    on523139   4.584   0.661   2.452  0.8093 -0.2599  0.4112
 3739ntf    on523140   4.531   0.730   2.682 -0.0643  0.3164 -0.1606
 3739ntf    on523141   4.350   0.719   2.266  0.5124 -0.2122  0.5095
 3739ntf    on523142   4.183   0.875   2.362  0.2401  0.0808 -0.3306
 3739ntf    fn423143   4.114   0.555   2.328 -0.1570  0.0255 -0.1403
 3739ntf    fn423144   4.285   0.529   2.452  0.0913 -0.1204  0.0883
 3739ntf    fn423145   4.110   0.623   2.529 -0.4124  0.0113 -0.2405
 3740ntf    cn123146   3.908   1.073   1.422  0.0828 -0.1063  0.2228
 3740ntf    sn223147   3.820   1.207   1.506 -0.1878 -0.2198  0.1193
 3740ntf    nn323148   3.672   1.172   1.467 -0.2166  0.2170 -0.1702
 3740ntf    sn223149   3.594   1.216   1.338  0.0800 -0.0842 -0.4539
 3740ntf    cn123150   3.493   1.351   1.406  0.2503 -0.2296  0.0904
 3740ntf    fn423151   3.913   1.097   1.292  0.4227 -0.0750  0.2407
 3740ntf    fn423152   4.038   1.065   1.448  0.1387 -0.0867 -0.0394
 3740ntf    fn423153   3.863   0.951   1.449  0.5163 -0.4993 -0.7584
 3740ntf    on523154   3.849   1.188   1.646  0.4440 -0.1733 -0.0039
 3740ntf    on523155   3.874   1.322   1.438 -0.0327 -0.2042  0.2700
 3740ntf    on523156   3.500   1.122   1.284 -0.3289  0.1866 -0.2194
 3740ntf    on523157   3.667   1.297   1.243  0.3596  0.2283  0.0213
 3740ntf    fn423158   3.432   1.315   1.517 -0.4513  0.4150 -0.0759
 3740ntf    fn423159   3.568   1.452   1.446  0.3429 -0.2754  0.0338
 3740ntf    fn423160   3.407   1.401   1.318  0.4320 -0.5462 -0.2695
 3741ntf    cn123161   0.807   2.251   3.770  0.2610 -0.0633 -0.2204
 3741ntf    sn223162   0.964   2.344   3.772  0.0976  0.2068  0.0322
 3741ntf    nn323163   0.942   2.450   3.886 -0.0953 -0.0855  0.2687
 3741ntf    sn223164   0.889   2.598   3.884  0.0953 -0.0139  0.4782
 3741ntf    cn123165   0.924   2.654   4.053  0.1285  0.5201  0.2966
 3741ntf    fn423166   0.709   2.304   3.698  0.2795  0.3295  0.0376
 3741ntf    fn423167   0.823   2.124   3.737 -0.0230 -0.1575  0.0052
 3741ntf    fn423168   0.757   2.247   3.892  0.0930 -0.5432 -0.3043
 3741ntf    on523169   1.068   2.248   3.799  0.0831  0.3216  0.5202
 3741ntf    on523170   0.969   2.395   3.638 -0.2120 -0.2054 -0.1365
 3741ntf    on523171   0.746   2.615   3.879  0.0116 -0.7869  0.0945
 3741ntf    on523172   0.964   2.687   3.799 -0.3540  0.5663  0.6775
 3741ntf    fn423173   0.866   2.771   4.075 -0.2113  0.4461 -0.1815
 3741ntf    fn423174   0.895   2.563   4.145  0.2430 -0.0200 -0.1984
 3741ntf    fn423175   1.049   2.689   4.079  0.5262 -0.4298 -0.3036
 3742ntf    cn123176   3.429   2.258   5.563  0.1042  0.2057  0.2210
 3742ntf    sn223177   3.529   2.332   5.430  0.1156 -0.0651  0.0781
 3742ntf    nn323178   3.514   2.482   5.475  0.0352  0.0027 -0.1771
 3742ntf    sn223179   3.431   2.595   5.403  0.0792  0.1890  0.0659
 3742ntf    cn123180   3.569   2.684   5.326  0.1372 -0.2253 -0.3109
 3742ntf    fn423181   3.305   2.305   5.573  0.0746  0.1027  0.3311
 3742ntf    fn423182   3.412   2.128   5.550  0.0020  0.2496 -0.1089
 3742ntf    fn423183   3.490   2.283   5.677  0.2898 -0.1374  0.1976
 3742ntf    on523184   3.664   2.286   5.450  0.1641 -0.0006 -0.1059
 3742ntf    on523185   3.462   2.284   5.312 -0.3771 -0.1370  0.3827
 3742ntf    on523186   3.377   2.689   5.498  0.0780  0.1112  0.1425
 3742ntf    on523187   3.351   2.548   5.293  0.3268 -0.1748  0.0383
 3742ntf    fn423188   3.532   2.769   5.231 -0.0013  0.2205  0.1390
 3742ntf    fn423189   3.631   2.754   5.420  0.1104 -0.4714 -0.1087
 3742ntf    fn423190   3.659   2.606   5.268  0.4378  0.3788 -0.6741
 3743ntf    cn123191   0.103   7.142   5.645  0.1023 -0.3504  0.3460
 3743ntf    sn223192   0.041   7.312   5.647  0.1339 -0.3344  0.0735
 3743ntf    nn323193   0.152   7.385   5.731  0.2873 -0.2974 -0.1601
 3743ntf    sn223194   0.136   7.500   5.836 -0.2007 -0.5351  0.0324
 3743ntf    cn123195   0.294   7.588   5.812 -0.4213 -0.1257  0.0637
 3743ntf    fn423196   0.183   7.116   5.747  0.0697  0.3565  0.5534
 3743ntf    fn423197   0.012   7.047   5.634 -0.0682 -0.1385 -0.1215
 3743ntf    fn423198   0.176   7.123   5.536 -0.0444 -0.1179  0.2063
 3743ntf    on523199   0.045   7.341   5.506  0.0109 -0.4185  0.0532
 3743ntf    on523200  -0.093   7.303   5.702  0.1499  0.0982  0.1885
 3743ntf    on523201   0.138   7.452   5.972 -0.1532  0.0414  0.2393
 3743ntf    on523202   0.042   7.604   5.803  0.2129 -0.1492  0.0529
 3743ntf    fn423203   0.320   7.606   5.683 -0.3465  0.1014  0.1121
 3743ntf    fn423204   0.299   7.704   5.875  0.3810  0.0025 -0.2333
 3743ntf    fn423205   0.390   7.510   5.857 -0.1989 -0.3811 -0.8191
 3744ntf    cn123206   4.439   6.097   2.300  0.0201 -0.4595  0.3633
 3744ntf    sn223207   4.265   6.084   2.252  0.1918 -0.0346 -0.3727
 3744ntf    nn323208   4.231   5.938   2.298 -0.4246  0.1767 -0.1498
 3744ntf    sn223209   4.180   5.814   2.217 -0.2447 -0.3289  0.5042
 3744ntf    cn123210   4.049   5.777   2.338 -0.5002 -0.1988  0.2676
 3744ntf    fn423211   4.504   5.993   2.249  0.2506 -0.1443  0.0130
 3744ntf    fn423212   4.498   6.204   2.251  0.1753 -0.3326  0.8156
 3744ntf    fn423213   4.462   6.093   2.431 -0.0822  0.4258  0.4160
 3744ntf    on523214   4.215   6.186   2.342 -0.0959 -0.3122 -0.2166
 3744ntf    on523215   4.276   6.114   2.111 -0.4229  0.1373 -0.3885
 3744ntf    on523216   4.268   5.700   2.226  0.7229  0.3394 -0.3507
 3744ntf    on523217   4.105   5.841   2.097  0.4027  0.4087  0.2563
 3744ntf    fn423218   3.957   5.871   2.356 -0.0068  0.2500  0.5107
 3744ntf    fn423219   3.982   5.668   2.306 -0.2786 -0.2820  0.0836
 3744ntf    fn423220   4.093   5.752   2.460 -0.2844 -0.1474  0.2005
 3745ntf    cn123221   1.202   1.895   4.277 -0.2761 -0.1841  0.1972
 3745ntf    sn223222   1.318   1.780   4.197  0.0697  0.0013  0.4336
 3745ntf    nn323223   1.345   1.680   4.314 -0.1626  0.3781  0.8119
 3745ntf    sn223224   1.262   1.553   4.355  0.1981 -0.1733 -0.1403
 3745ntf    cn123225   1.363   1.419   4.285  0.2023 -0.4367  0.3629
 3745ntf    fn423226   1.103   1.823   4.329 -0.6423 -0.0866 -0.3534
 3745ntf    fn423227   1.253   1.970   4.373  0.0619  0.1622 -0.2455
 3745ntf    fn423228   1.142   1.965   4.182  0.1465 -0.1384 -0.0363
 3745ntf    on523229   1.235   1.719   4.097  0.9896 -0.2634 -0.1827
 3745ntf    on523230   1.434   1.853   4.150  0.0615 -0.1997  0.0953
 3745ntf    on523231   1.135   1.531   4.290  0.0583 -0.4462  0.2225
 3745ntf    on523232   1.268   1.529   4.497  0.6363  0.3825 -0.0609
 3745ntf    fn423233   1.352   1.296   4.333  0.3683 -0.5860  0.0266
 3745ntf    fn423234   1.331   1.412   4.156  0.2734  0.6824  0.2736
 3745ntf    fn423235   1.490   1.452   4.298  0.2604 -0.4617 -0.1208
 3746ntf    cn123236   1.681   5.969   6.676  0.3950  0.1333  0.1305
 3746ntf    sn223237   1.843   5.899   6.635  0.2788 -0.0357 -0.0440
 3746ntf    nn323238   1.824   5.753   6.692 -0.4780  0.0276 -0.1265
 3746ntf    sn223239   1.786   5.618   6.621  0.0430 -0.3158  0.2409
 3746ntf    cn123240   1.699   5.531   6.755 -0.5562 -0.1903 -0.0605
 3746ntf    fn423241   1.662   6.088   6.621  0.3440 -0.4372 -1.1122
 3746ntf    fn423242   1.578   5.896   6.635  0.2838  0.5134 -0.2818
 3746ntf    fn423243   1.661   5.989   6.805  0.2085  1.1687 -0.0472
 3746ntf    on523244   1.852   5.910   6.492  0.1419  0.2714 -0.0298
 3746ntf    on523245   1.935   5.980   6.711  0.5883 -0.1254 -0.3245
 3746ntf    on523246   1.898   5.532   6.593  0.2026  0.1919 -0.7200
 3746ntf    on523247   1.682   5.631   6.521 -0.3611 -1.0618  0.5600
 3746ntf    fn423248   1.633   5.614   6.833 -0.2584 -0.5020  0.5280
 3746ntf    fn423249   1.622   5.441   6.695 -0.0737 -0.2194 -0.6514
 3746ntf    fn423250   1.781   5.466   6.836 -0.3286 -0.2090 -0.3011
 3747ntf    cn123251   7.071   2.921   5.017 -0.3889  0.3609 -0.0208
 3747ntf    sn223252   7.022   2.773   5.110 -0.0281  0.1687 -0.1356
 3747ntf    nn323253   7.100   2.657   5.039 -0.5305 -0.0238 -0.3742
 3747ntf    sn223254   7.057   2.506   5.022  0.0496 -0.2362  0.0166
 3747ntf    cn123255   7.004   2.504   4.849  0.1062  0.0032 -0.0042
 3747ntf    fn423256   7.201   2.917   4.996 -0.3511  0.0795  0.2496
 3747ntf    fn423257   7.019   2.942   4.897 -0.5489  1.0512  0.1640
 3747ntf    fn423258   7.053   3.031   5.087  0.3023  0.3602  0.1685
 3747ntf    on523259   7.067   2.780   5.247 -0.4044 -0.1261  0.0055
 3747ntf    on523260   6.879   2.770   5.097 -0.0888  0.1214  0.4822
 3747ntf    on523261   6.938   2.462   5.091  0.0812 -0.4641 -0.0761
 3747ntf    on523262   7.167   2.413   5.022 -0.4267 -0.8012  0.1104
 3747ntf    fn423263   6.957   2.389   4.802  0.6572 -0.4658  0.5874
 3747ntf    fn423264   6.917   2.601   4.822 -0.1025 -0.2464 -0.2308
 3747ntf    fn423265   7.111   2.533   4.777  0.0720 -0.1914 -0.1344
 3748ntf    cn123266   5.477   3.596   2.227 -0.2168 -0.1816  0.0415
 3748ntf    sn223267   5.453   3.636   2.403  0.0824  0.0161  0.0364
 3748ntf    nn323268   5.489   3.497   2.466  0.3170 -0.1606 -0.4791
 3748ntf    sn223269   5.610   3.449   2.554 -0.1430 -0.5358 -0.0450
 3748ntf    cn123270   5.588   3.268   2.556 -0.3755 -0.5089 -0.1501
 3748ntf    fn423271   5.605   3.580   2.199 -0.2259  0.1130 -0.1723
 3748ntf    fn423272   5.417   3.485   2.185 -0.3537  0.0538 -0.3945
 3748ntf    fn423273   5.439   3.687   2.139  0.4218  0.1163  0.0756
 3748ntf    on523274   5.560   3.731   2.421 -0.0111  0.1454 -0.0864
 3748ntf    on523275   5.316   3.679   2.404  0.2502  0.5542  0.3661
 3748ntf    on523276   5.606   3.494   2.690  0.3544 -0.8940  0.0902
 3748ntf    on523277   5.739   3.457   2.490 -0.3978 -0.1799 -0.5278
 3748ntf    fn423278   5.536   3.223   2.443 -0.8583  0.1924 -0.2163
 3748ntf    fn423279   5.709   3.217   2.569 -0.3187 -0.2120  0.5194
 3748ntf    fn423280   5.504   3.241   2.654  0.0015 -0.7064  0.1211
 3749ntf    cn123281   1.197   5.833   1.992  0.1789 -0.2943  0.1064
 3749ntf    sn223282   1.098   5.950   2.091 -0.1640 -0.2128 -0.3314
 3749ntf    nn323283   0.972   5.867   2.134 -0.2220 -0.1109 -0.3051
 3749ntf    sn223284   0.885   5.866   2.265  0.1011  0.0247 -0.0896
 3749ntf    cn123285   0.951   5.726   2.359  0.0544  0.0793  0.0251
 3749ntf    fn423286   1.127   5.760   1.907 -0.0939 -0.1214  0.1785
 3749ntf    fn423287   1.292   5.889   1.920 -0.1469 -0.2842 -0.3190
 3749ntf    fn423288   1.255   5.749   2.077  0.0715  0.0339  0.5081
 3749ntf    on523289   1.192   5.984   2.194 -0.7478 -0.4453  0.2844
 3749ntf    on523290   1.056   6.056   2.003 -0.0189  0.3526  0.2770
 3749ntf    on523291   0.752   5.823   2.231 -0.0844  0.7442 -0.3041
 3749ntf    on523292   0.908   5.978   2.354  0.1999  0.2837 -0.4370
 3749ntf    fn423293   0.923   5.735   2.488 -0.0661 -0.4356  0.0369
 3749ntf    fn423294   0.905   5.611   2.314  0.2225  0.0283 -0.0203
 3749ntf    fn423295   1.083   5.716   2.371 -0.0697 -0.5632  0.9545
 3750ntf    cn123296   0.262   6.944   3.592 -0.0087 -0.4227  0.0668
 3750ntf    sn223297   0.201   6.794   3.510  0.1610 -0.4199 -0.0640
 3750ntf    nn323298   0.279   6.688   3.596  0.7838  0.2261  0.1782
 3750ntf    sn223299   0.223   6.605   3.718 -0.0151  0.2241 -0.1812
 3750ntf    cn123300   0.111   6.487   3.637 -0.2043  0.2107  0.1011
 3750ntf    fn423301   0.179   7.046   3.577  0.3685 -0.1209 -0.0126
 3750ntf    fn423302   0.270   6.930   3.723  0.2369  0.3905  0.1428
 3750ntf    fn423303   0.381   6.987   3.553 -0.3124  0.1221 -0.2701
 3750ntf    on523304   0.057   6.798   3.507  0.1661  0.3350  0.3741
 3750ntf    on523305   0.261   6.816   3.380  0.5176 -0.0535  0.1605
 3750ntf    on523306   0.141   6.679   3.810  0.4611  0.0953  0.3510
 3750ntf    on523307   0.321   6.521   3.782 -0.5309  0.1668  0.5360
 3750ntf    fn423308   0.167   6.424   3.535 -0.5408 -0.3420  0.2545
 3750ntf    fn423309   0.063   6.391   3.715 -0.4231 -0.1420 -0.4598
 3750ntf    fn423310   0.002   6.551   3.600 -0.2977  0.1971  0.3499
 3751ntf    cn123311   5.712   4.760   0.812 -0.1040 -0.1623 -0.2412
 3751ntf    sn223312   5.850   4.877   0.831 -0.3042  0.0012  0.2253
 3751ntf    nn323313   5.777   5.016   0.829 -0.8009 -0.2626 -0.2660
 3751ntf    sn223314   5.751   5.112   0.951 -0.0264 -0.1073 -0.2210
 3751ntf    cn123315   5.910   5.200   0.960 -0.2260  0.2761 -0.4147
 3751ntf    fn423316   5.605   4.801   0.746 -0.3646 -0.3691  0.0525
 3751ntf    fn423317   5.745   4.655   0.738 -0.0164  0.1164 -0.6023
 3751ntf    fn423318   5.672   4.712   0.928 -0.3899  0.4666 -0.0750
 3751ntf    on523319   5.915   4.833   0.952 -0.1848  1.0288  0.5394
 3751ntf    on523320   5.936   4.863   0.716 -0.3563 -0.8687  0.2869
 3751ntf    on523321   5.759   5.052   1.081 -0.0822 -0.0309 -0.1827
 3751ntf    on523322   5.655   5.214   0.918  0.4300  0.2224 -0.5645
 3751ntf    fn423323   5.906   5.303   1.043 -0.9353  0.1008 -0.2293
 3751ntf    fn423324   6.006   5.124   1.010 -0.2610 -0.2520 -1.1243
 3751ntf    fn423325   5.945   5.248   0.841 -0.0296  0.1948 -0.3904
 3752ntf    cn123326   0.954   3.576   1.785 -0.6075 -0.2187 -0.2123
 3752ntf    sn223327   1.009   3.441   1.894 -0.1659  0.3183  0.2339
 3752ntf    nn323328   1.034   3.344   1.773 -0.6060 -0.0219  0.4133
 3752ntf    sn223329   1.079   3.194   1.779  0.0192  0.1332 -0.2669
 3752ntf    cn123330   1.256   3.212   1.742  0.0296 -0.0882 -0.3289
 3752ntf    fn423331   0.943   3.690   1.851 -0.1059 -0.4903  0.3502
 3752ntf    fn423332   1.041   3.607   1.690 -0.7568 -0.0371 -0.2899
 3752ntf    fn423333   0.836   3.556   1.729 -1.0106  0.1852  0.4775
 3752ntf    on523334   1.133   3.493   1.947 -0.0773 -0.3104  0.6490
 3752ntf    on523335   0.899   3.419   1.984 -0.5769  0.0071 -0.3379
 3752ntf    on523336   1.028   3.120   1.666  0.3856 -0.1796 -0.2314
 3752ntf    on523337   1.076   3.131   1.908  0.0768 -0.0389 -0.3490
 3752ntf    fn423338   1.281   3.302   1.648  0.7839 -0.0600 -0.1108
 3752ntf    fn423339   1.317   3.258   1.850 -0.1752 -0.1495 -0.1856
 3752ntf    fn423340   1.321   3.102   1.706  0.6937  0.2433 -0.1652
 3753ntf    cn123341   7.148   6.111   0.993 -0.2126 -0.1661  0.1488
 3753ntf    sn223342   6.977   6.160   1.031 -0.3234 -0.2208 -0.2802
 3753ntf    nn323343   6.934   6.034   1.115  0.6669 -0.3708  0.0146
 3753ntf    sn223344   6.828   5.921   1.090  0.2796  0.0120 -0.0958
 3753ntf    cn123345   6.915   5.778   1.162 -0.3690 -0.4167 -0.1563
 3753ntf    fn423346   7.148   6.005   0.914 -0.1612 -0.1681  0.1514
 3753ntf    fn423347   7.216   6.200   0.923 -0.1720 -0.0779  0.2991
 3753ntf    fn423348   7.220   6.074   1.098  0.2334 -0.7378 -0.3535
 3753ntf    on523349   6.997   6.282   1.105 -0.3026 -0.5261  0.2186
 3753ntf    on523350   6.911   6.171   0.903  0.2015  0.1471 -0.5224
 3753ntf    on523351   6.814   5.872   0.955 -0.3288 -0.3392  0.0915
 3753ntf    on523352   6.709   5.956   1.163  0.1544  0.1485 -0.3635
 3753ntf    fn423353   6.931   5.798   1.292 -0.0324 -0.2098 -0.2279
 3753ntf    fn423354   6.841   5.669   1.147 -0.5504 -0.2863 -0.2183
 3753ntf    fn423355   7.035   5.764   1.110  0.1985  0.4668  0.8681
 3754ntf    cn123356   2.172   4.368   5.093  0.2726  0.1862  0.4552
 3754ntf    sn223357   2.332   4.302   5.038 -0.0415 -0.1876 -0.0113
 3754ntf    nn323358   2.412   4.334   5.168 -0.6520  0.6286  0.1730
 3754ntf    sn223359   2.485   4.472   5.185  0.0319  0.2802  0.1161
 3754ntf    cn123360   2.652   4.446   5.118 -0.1387  0.5348 -0.4117
 3754ntf    fn423361   2.102   4.307   5.187 -0.1065 -0.0750  0.0063
 3754ntf    fn423362   2.182   4.492   5.139 -0.0194  0.3147  0.1808
 3754ntf    fn423363   2.082   4.373   4.996  0.1792  0.1740  0.5393
 3754ntf    on523364   2.305   4.161   5.023 -0.7955 -0.0330 -0.1564
 3754ntf    on523365   2.353   4.379   4.918 -1.2690 -0.0124 -0.1327
 3754ntf    on523366   2.508   4.500   5.325  0.8369  0.3523 -0.0252
 3754ntf    on523367   2.441   4.588   5.112  0.1629  0.0821 -0.2786
 3754ntf    fn423368   2.712   4.560   5.087  0.1699  0.7040  0.7511
 3754ntf    fn423369   2.733   4.373   5.193 -0.9826 -0.1017 -0.1001
 3754ntf    fn423370   2.638   4.370   5.010  0.0994  0.3674 -0.3253
 3755ntf    cn123371   1.335   0.826   0.234  0.5817  0.0434  0.1603
 3755ntf    sn223372   1.315   0.811   0.054  0.0109  0.2360  0.2068
 3755ntf    nn323373   1.186   0.722   0.046  0.3289 -0.2487  0.4414
 3755ntf    sn223374   1.043   0.752  -0.011  0.4355  0.1605  0.3830
 3755ntf    cn123375   0.952   0.821   0.130  0.0139  0.0694  0.1584
 3755ntf    fn423376   1.449   0.883   0.270  0.9856 -0.5456 -0.1654
 3755ntf    fn423377   1.243   0.895   0.300  0.4241 -0.6666  0.6867
 3755ntf    fn423378   1.334   0.704   0.285  0.0006 -0.2529 -0.5441
 3755ntf    on523379   1.297   0.947   0.007 -0.4780 -0.0342 -0.4040
 3755ntf    on523380   1.432   0.741   0.008 -0.1169  0.4024 -0.3752
 3755ntf    on523381   0.976   0.625  -0.028  0.1890  0.3857 -0.3587
 3755ntf    on523382   1.040   0.840  -0.125  0.5406 -0.0513  0.2151
 3755ntf    fn423383   0.959   0.952   0.151  0.3640  0.0974 -0.1349
 3755ntf    fn423384   0.823   0.794   0.116  0.0902 -0.4528  0.4512
 3755ntf    fn423385   0.989   0.767   0.245  0.7643 -0.0108 -0.1144
 3756ntf    cn123386   0.941   2.217   0.992  0.2962 -0.3023  0.3258
 3756ntf    sn223387   0.845   2.346   0.908  0.3512 -0.1700  0.4663
 3756ntf    nn323388   0.836   2.294   0.761  0.5413  0.3789  0.2579
 3756ntf    sn223389   0.902   2.346   0.628 -0.1357  0.0296 -0.2275
 3756ntf    cn123390   0.788   2.263   0.514 -0.3180 -0.0092 -0.0177
 3756ntf    fn423391   0.865   2.109   1.001  0.0998 -0.1306  0.7418
 3756ntf    fn423392   1.047   2.179   0.921  0.1439 -0.5113  0.2093
 3756ntf    fn423393   0.967   2.255   1.116 -0.8105  0.6825  0.2625
 3756ntf    on523394   0.728   2.342   0.993  0.1162 -0.2296  0.1407
 3756ntf    on523395   0.934   2.458   0.925 -0.0614  0.3466 -0.6799
 3756ntf    on523396   1.039   2.311   0.599 -0.1183 -0.2485  0.1693
 3756ntf    on523397   0.867   2.485   0.615  0.0004  0.1204  0.3461
 3756ntf    fn423398   0.821   2.280   0.387 -0.1403 -0.5722 -0.0518
 3756ntf    fn423399   0.764   2.135   0.538  0.3309 -0.2320 -0.5347
 3756ntf    fn423400   0.669   2.320   0.525 -0.0729  0.4568  0.2231
 3757ntf    cn123401   1.118   7.051   2.090 -0.0334  0.0446 -0.0518
 3757ntf    sn223402   1.211   6.915   2.014 -0.0298  0.0493 -0.0553
 3757ntf    nn323403   1.168   6.925   1.864 -0.7949 -0.2188  0.1405
 3757ntf    sn223404   1.235   7.002   1.745 -0.3014 -0.6438  0.1420
 3757ntf    cn123405   1.315   6.863   1.660 -0.1850 -0.7228  0.3813
 3757ntf    fn423406   1.161   7.166   2.042 -0.8002  0.1318 -0.5462
 3757ntf    fn423407   0.990   7.045   2.056  0.1894 -0.6542 -0.7907
 3757ntf    fn423408   1.134   7.050   2.221  0.7266 -1.0907 -0.1458
 3757ntf    on523409   1.349   6.930   2.052 -0.0260 -0.3427  0.0974
 3757ntf    on523410   1.144   6.800   2.071 -0.6532  0.3886 -0.0983
 3757ntf    on523411   1.344   7.089   1.783 -0.7063 -0.2915  0.4968
 3757ntf    on523412   1.138   7.046   1.648  0.2184  1.0168  0.3393
 3757ntf    fn423413   1.382   6.790   1.749  0.1186 -0.6693  0.1995
 3757ntf    fn423414   1.231   6.777   1.606  0.0724 -0.6502 -0.1383
 3757ntf    fn423415   1.398   6.902   1.565 -0.5030  0.0349  0.4138
 3758ntf    cn123416   4.829   1.262   3.698 -0.0335 -0.0137 -0.4634
 3758ntf    sn223417   4.846   1.424   3.617  0.2471  0.2834  0.1817
 3758ntf    nn323418   4.995   1.464   3.648  0.4128 -0.4266  0.3366
 3758ntf    sn223419   5.059   1.606   3.668 -0.1272 -0.1336  0.0202
 3758ntf    cn123420   5.055   1.614   3.850 -0.1659  0.4042 -0.0041
 3758ntf    fn423421   4.920   1.176   3.656  0.3173 -0.1991  0.6494
 3758ntf    fn423422   4.846   1.280   3.828 -0.4622 -0.4090 -0.3489
 3758ntf    fn423423   4.712   1.204   3.678  0.0122 -0.2205 -0.1390
 3758ntf    on523424   4.818   1.397   3.478  0.3629 -0.8178  0.3608
 3758ntf    on523425   4.741   1.494   3.685 -0.5285 -0.8068  0.1397
 3758ntf    on523426   4.985   1.721   3.623 -0.0233 -0.3155 -0.6235
 3758ntf    on523427   5.202   1.598   3.648 -0.0755 -0.1887  0.3923
 3758ntf    fn423428   4.933   1.626   3.898 -0.0914 -0.1398  0.3222
 3758ntf    fn423429   5.102   1.504   3.906 -0.5932 -0.1286 -0.6779
 3758ntf    fn423430   5.132   1.715   3.888  0.3326  0.1248 -0.2611
 3759ntf    cn123431   1.815   3.784   4.128  0.0873 -0.3004 -0.2182
 3759ntf    sn223432   1.711   3.763   4.275  0.2614 -0.5845 -0.1350
 3759ntf    nn323433   1.777   3.865   4.374 -0.3553 -0.5982  0.2983
 3759ntf    sn223434   1.872   3.842   4.496 -0.1720  0.3769  0.3520
 3759ntf    cn123435   2.002   3.965   4.464 -0.0419  0.2014  0.1976
 3759ntf    fn423436   1.911   3.694   4.125 -0.0390 -0.4685  0.5930
 3759ntf    fn423437   1.757   3.761   4.011  0.0418  0.6382 -0.3866
 3759ntf    fn423438   1.852   3.910   4.117  0.2244 -0.2981  0.2684
 3759ntf    on523439   1.584   3.816   4.232  0.1846 -0.1337  0.6320
 3759ntf    on523440   1.716   3.622   4.307  0.4038 -0.4446  0.4713
 3759ntf    on523441   1.949   3.719   4.499 -0.0707  0.4456  0.6481
 3759ntf    on523442   1.820   3.894   4.620 -0.0818 -0.8576  0.9256
 3759ntf    fn423443   2.116   3.921   4.515 -0.0626 -0.0322  0.0397
 3759ntf    fn423444   2.025   3.988   4.336  0.3627 -0.1251  0.2116
 3759ntf    fn423445   1.969   4.082   4.517 -0.7511 -0.0392  0.2950
 3760ntf    cn123446   4.272   2.190   0.159 -0.2756  0.0458 -0.0082
 3760ntf    sn223447   4.160   2.318   0.093 -0.0299  0.2980  0.0615
 3760ntf    nn323448   4.135   2.275  -0.056  0.6223 -0.0622  0.0493
 3760ntf    sn223449   4.034   2.167  -0.108  0.1751  0.4881 -0.2418
 3760ntf    cn123450   4.146   2.054  -0.196 -0.2980  0.1686 -0.4355
 3760ntf    fn423451   4.196   2.093   0.207  0.2909 -0.3276  0.1482
 3760ntf    fn423452   4.349   2.139   0.065 -0.4659  0.2529 -0.2774
 3760ntf    fn423453   4.352   2.226   0.258  0.5804 -0.4693 -0.5062
 3760ntf    on523454   4.050   2.335   0.184 -0.2538 -0.2540 -0.1020
 3760ntf    on523455   4.251   2.430   0.100  0.0606  0.2189  0.1683
 3760ntf    on523456   3.945   2.204  -0.215 -0.2964 -0.1404 -0.0688
 3760ntf    on523457   3.974   2.095   0.001  0.3884  0.8915  0.1446
 3760ntf    fn423458   4.218   2.115  -0.289 -0.2558  0.2436 -0.3531
 3760ntf    fn423459   4.241   1.992  -0.127 -0.6462  0.5972  0.4382
 3760ntf    fn423460   4.070   1.960  -0.250 -0.6759 -0.0049  0.3950
 3761ntf    cn123461   7.246   3.382   5.947 -0.0861  0.1175 -0.1048
 3761ntf    sn223462   7.157   3.236   6.007  0.3695 -0.1611 -0.1022
 3761ntf    nn323463   7.012   3.280   5.966  0.1574 -0.0063  0.8012
 3761ntf    sn223464   6.890   3.183   5.986 -0.2213  0.3629  0.3226
 3761ntf    cn123465   6.888   3.100   6.148  0.1478  0.4954  0.3959
 3761ntf    fn423466   7.357   3.352   5.882 -0.5041  0.2668 -0.8890
 3761ntf    fn423467   7.162   3.462   5.884 -0.1355 -0.4861 -0.8086
 3761ntf    fn423468   7.286   3.444   6.057 -0.1497  0.0056 -0.0184
 3761ntf    on523469   7.209   3.125   5.930 -0.0636 -0.4054 -0.0483
 3761ntf    on523470   7.178   3.244   6.149  0.3463 -0.1595 -0.0985
 3761ntf    on523471   6.895   3.075   5.890 -0.3928  0.3990  0.2740
 3761ntf    on523472   6.761   3.246   5.990 -0.2841  0.2085  0.8206
 3761ntf    fn423473   6.982   3.009   6.170 -0.0084  0.0487 -0.7191
 3761ntf    fn423474   6.874   3.184   6.250 -0.2381  0.0932  0.6739
 3761ntf    fn423475   6.782   3.022   6.161 -0.2669  0.8802 -0.5317
 3762ntf    cn123476   4.563   4.637   5.618 -0.3448  0.0218 -0.0340
 3762ntf    sn223477   4.432   4.540   5.699 -0.2524  0.0158  0.1091
 3762ntf    nn323478   4.330   4.509   5.583  0.1032  0.2533 -0.2722
 3762ntf    sn223479   4.213   4.606   5.546 -0.1889  0.0600  0.1265
 3762ntf    cn123480   4.080   4.554   5.658  0.0779 -0.2610  0.2967
 3762ntf    fn423481   4.628   4.571   5.524 -0.3383 -0.5052  0.3368
 3762ntf    fn423482   4.515   4.745   5.558 -0.2708  0.3732  0.5338
 3762ntf    fn423483   4.661   4.672   5.699  0.1474 -0.1693 -0.5437
 3762ntf    on523484   4.510   4.428   5.746 -0.0348 -0.0047 -0.2901
 3762ntf    on523485   4.387   4.624   5.807 -0.8641  0.0099 -0.1336
 3762ntf    on523486   4.166   4.573   5.413 -0.0610  0.5314 -0.0373
 3762ntf    on523487   4.230   4.746   5.577  0.2859  0.1444 -0.4991
 3762ntf    fn423488   4.058   4.424   5.647  0.3138 -0.2485 -0.3985
 3762ntf    fn423489   4.105   4.574   5.786 -0.3972  0.1475  0.3268
 3762ntf    fn423490   3.964   4.615   5.638  0.5685  0.6644  0.2266
 3763ntf    cn123491   3.532   1.819   3.423  0.1815 -0.0278 -0.2891
 3763ntf    sn223492   3.710   1.809   3.461  0.0988  0.2554  0.1865
 3763ntf    nn323493   3.703   1.688   3.561 -0.3700 -0.1704 -0.3508
 3763ntf    sn223494   3.813   1.579   3.586 -0.1776  0.0985 -0.0162
 3763ntf    cn123495   3.888   1.651   3.735 -0.2024  0.0935 -0.0014
 3763ntf    fn423496   3.495   1.716   3.350  0.3411 -0.0674 -0.3150
 3763ntf    fn423497   3.453   1.831   3.528  0.2139  0.2227 -0.2920
 3763ntf    fn423498   3.505   1.927   3.351 -0.0802  0.5172  0.6126
 3763ntf    on523499   3.765   1.769   3.334  0.1376  0.4719  0.1345
 3763ntf    on523500   3.741   1.937   3.519 -0.4684  0.5908 -0.2445
 3763ntf    on523501   3.921   1.575   3.491  0.0138 -0.5461  0.2235
 3763ntf    on523502   3.772   1.448   3.629  0.2803 -0.0797 -0.1211
 3763ntf    fn423503   3.811   1.623   3.839 -0.1493 -0.0371  0.0028
 3763ntf    fn423504   4.011   1.608   3.757 -0.0600  0.2384 -0.5167
 3763ntf    fn423505   3.894   1.783   3.730  0.4838  0.0407 -0.6268
 3764ntf    cn123506   4.191   3.940   3.609 -0.1942 -0.0448  0.1044
 3764ntf    sn223507   4.243   3.980   3.779 -0.0713 -0.3716  0.1422
 3764ntf    nn323508   4.177   3.863   3.859 -0.7516 -0.2420 -0.2277
 3764ntf    sn223509   4.166   3.835   4.014  0.0261 -0.0016 -0.1290
 3764ntf    cn123510   4.024   3.944   4.047  0.2553  0.1796  0.2593
 3764ntf    fn423511   4.241   3.831   3.554  0.2855  0.1655  0.1184
 3764ntf    fn423512   4.062   3.913   3.598 -0.0124 -0.8617 -0.0373
 3764ntf    fn423513   4.216   4.044   3.531 -0.4443 -0.1580 -0.1282
 3764ntf    on523514   4.386   3.959   3.769  0.0434  0.5206 -0.1603
 3764ntf    on523515   4.187   4.109   3.810  0.4200 -0.2873  0.7063
 3764ntf    on523516   4.275   3.887   4.093 -0.4603  0.1674  0.4303
 3764ntf    on523517   4.114   3.704   4.042  0.1985 -0.1946 -0.6852
 3764ntf    fn423518   3.978   3.936   4.171 -0.2783 -0.2085  0.0392
 3764ntf    fn423519   4.053   4.072   4.035 -0.2033  0.2904  0.3227
 3764ntf    fn423520   3.917   3.914   3.976  0.5065 -0.0335 -0.0364
 3765ntf    cn123521   4.161   3.071   1.187  0.0829  0.0922 -0.0144
 3765ntf    sn223522   4.164   3.043   1.367 -0.2695  0.1796  0.0057
 3765ntf    nn323523   4.177   2.887   1.359 -0.1884  0.2062 -0.4607
 3765ntf    sn223524   4.246   2.779   1.450 -0.4231  0.0192 -0.5032
 3765ntf    cn123525   4.386   2.734   1.343 -0.2202  0.1754 -0.3027
 3765ntf    fn423526   4.190   3.197   1.160  0.1053  0.0654 -0.1148
 3765ntf    fn423527   4.252   2.990   1.136  0.4402  0.2617  0.3455
 3765ntf    fn423528   4.041   3.047   1.137  0.1281 -0.2676  0.0474
 3765ntf    on523529   4.282   3.111   1.412 -0.4548  0.3882  0.1722
 3765ntf    on523530   4.033   3.090   1.406 -0.4329 -0.1427 -0.1437
 3765ntf    on523531   4.169   2.657   1.460 -0.2568 -0.0496 -0.0548
 3765ntf    on523532   4.302   2.829   1.573 -0.6587 -0.2773 -0.2714
 3765ntf    fn423533   4.492   2.801   1.386 -0.2358  0.3312 -0.5060
 3765ntf    fn423534   4.410   2.605   1.355 -1.3488  0.0342  0.5836
 3765ntf    fn423535   4.364   2.768   1.217 -0.2417  0.2706 -0.2732
 3766ntf    cn123536   4.400   0.981   3.273  0.2885 -0.1858  0.1310
 3766ntf    sn223537   4.266   0.863   3.239  0.0196  0.1327  0.0833
 3766ntf    nn323538   4.188   0.937   3.124 -0.0997  0.0571  0.1150
 3766ntf    sn223539   4.034   0.955   3.099 -0.1180 -0.1511  0.0772
 3766ntf    cn123540   3.993   0.842   2.963  0.5557 -0.1133 -0.1622
 3766ntf    fn423541   4.483   0.936   3.366  0.1173  0.3448  0.5495
 3766ntf    fn423542   4.466   1.018   3.164  0.0505 -0.3299 -0.0631
 3766ntf    fn423543   4.353   1.097   3.316  0.5227  0.0329 -0.1990
 3766ntf    on523544   4.332   0.743   3.193  0.1581  0.5568 -0.8581
 3766ntf    on523545   4.200   0.856   3.367 -0.3284  0.0620 -0.0990
 3766ntf    on523546   4.006   1.081   3.035  0.3320 -0.1534 -0.1320
 3766ntf    on523547   3.941   0.923   3.205 -0.5414  0.2511 -0.1713
 3766ntf    fn423548   3.998   0.719   3.009 -0.2548  0.0280  0.3238
 3766ntf    fn423549   3.871   0.866   2.917  0.2026 -0.4340  0.5881
 3766ntf    fn423550   4.081   0.851   2.864  0.8335  0.0529  0.0991
 3767ntf    cn123551   5.837   2.135   3.033  0.2291 -0.0861  0.0531
 3767ntf    sn223552   5.777   1.986   2.948  0.4033 -0.1817  0.0965
 3767ntf    nn323553   5.732   1.916   3.081 -0.0325  0.7723  0.4581
 3767ntf    sn223554   5.681   1.771   3.112  0.1742  0.5756 -0.1015
 3767ntf    cn123555   5.841   1.698   3.158 -0.2088 -0.2346 -0.0341
 3767ntf    fn423556   5.869   2.220   2.938 -0.0076 -0.3424 -0.2587
 3767ntf    fn423557   5.747   2.189   3.114  0.5730  0.1049  0.3098
 3767ntf    fn423558   5.948   2.113   3.103  0.2216  0.1717  0.1462
 3767ntf    on523559   5.674   2.052   2.873  0.9183  0.1186 -0.3580
 3767ntf    on523560   5.887   1.937   2.869  0.4075  0.4300 -0.2844
 3767ntf    on523561   5.628   1.699   2.999  0.2363 -0.0407  0.2531
 3767ntf    on523562   5.597   1.774   3.230  0.2734  0.1154 -0.0173
 3767ntf    fn423563   5.826   1.602   3.248 -0.3993 -0.0574  0.1249
 3767ntf    fn423564   5.923   1.655   3.064 -0.0493 -0.0492  0.0186
 3767ntf    fn423565   5.909   1.793   3.221 -0.1101 -0.1822 -0.2183
 3768ntf    cn123566   0.750   2.062   5.878  0.1561  0.1227  0.0169
 3768ntf    sn223567   0.811   2.185   5.759  0.3846  0.1178  0.1279
 3768ntf    nn323568   0.685   2.195   5.666  0.0838  0.0416  0.5243
 3768ntf    sn223569   0.560   2.290   5.660 -0.1834 -0.3301  0.0873
 3768ntf    cn123570   0.611   2.409   5.533  0.2119 -0.0008  0.5492
 3768ntf    fn423571   0.704   1.945   5.835  0.0484  0.0067  0.4405
 3768ntf    fn423572   0.833   2.040   5.979 -0.1426 -0.0263  0.2300
 3768ntf    fn423573   0.651   2.126   5.936 -0.0349 -0.1818  0.0326
 3768ntf    on523574   0.838   2.300   5.842  0.4458  0.2794 -0.1129
 3768ntf    on523575   0.923   2.117   5.699  0.9672  0.0865  1.2208
 3768ntf    on523576   0.556   2.383   5.770 -0.4254 -0.3657  0.1081
 3768ntf    on523577   0.442   2.229   5.605 -0.1091 -0.2339 -0.1798
 3768ntf    fn423578   0.731   2.457   5.562  0.5019 -0.2772 -0.1489
 3768ntf    fn423579   0.620   2.355   5.412 -0.1210  0.2328  0.4204
 3768ntf    fn423580   0.522   2.505   5.519  0.3633  0.0387 -0.2288
 3769ntf    cn123581   6.371   2.474   0.234 -0.0680 -0.0102  0.1885
 3769ntf    sn223582   6.411   2.433   0.406 -0.0618 -0.2111  0.1400
 3769ntf    nn323583   6.546   2.362   0.370 -0.0466 -0.2461  0.2650
 3769ntf    sn223584   6.680   2.358   0.452  0.1956 -0.1268 -0.1220
 3769ntf    cn123585   6.743   2.201   0.385  0.4828  0.0962 -0.3793
 3769ntf    fn423586   6.342   2.371   0.155 -0.2227 -0.3047  0.6273
 3769ntf    fn423587   6.265   2.552   0.217  0.1566  0.1532 -0.5248
 3769ntf    fn423588   6.464   2.544   0.171  0.1313 -0.4314  0.0037
 3769ntf    on523589   6.422   2.566   0.462  0.0483 -0.0954 -0.1529
 3769ntf    on523590   6.302   2.350   0.449 -0.1683  0.0372  0.3492
 3769ntf    on523591   6.653   2.333   0.591  0.8259 -0.3933 -0.0397
 3769ntf    on523592   6.774   2.462   0.417  0.4781 -0.3250  0.0398
 3769ntf    fn423593   6.645   2.114   0.403  0.2731  0.4943  0.4270
 3769ntf    fn423594   6.769   2.190   0.256  0.7349 -0.0690 -0.3159
 3769ntf    fn423595   6.854   2.157   0.442 -0.0888 -0.8691  0.0163
 3770ntf    cn123596   5.206   6.887   1.894  0.2311 -0.0273 -0.1564
 3770ntf    sn223597   5.082   6.771   1.829 -0.1320  0.1783  0.1628
 3770ntf    nn323598   4.993   6.737   1.954 -0.3135 -0.6925 -0.1980
 3770ntf    sn223599   4.845   6.782   1.981 -0.0145  0.0812  0.1573
 3770ntf    cn123600   4.764   6.669   1.863  0.0729  0.1078  0.0720
 3770ntf    fn423601   5.143   6.983   1.959  0.4555  0.0103  0.0047
 3770ntf    fn423602   5.292   6.829   1.976  0.1496 -0.1482 -0.1553
 3770ntf    fn423603   5.277   6.942   1.797 -0.4550  0.7441 -0.2319
 3770ntf    on523604   5.025   6.845   1.720  0.1579  0.2583  0.0645
 3770ntf    on523605   5.164   6.657   1.794  0.0916  0.2763  0.3700
 3770ntf    on523606   4.817   6.912   1.926 -0.0945  0.0061  0.0202
 3770ntf    on523607   4.793   6.742   2.109 -0.1495 -0.2813 -0.0086
 3770ntf    fn423608   4.637   6.652   1.895  0.1599 -0.0443  0.3411
 3770ntf    fn423609   4.766   6.714   1.739 -0.7296  0.0316  0.0299
 3770ntf    fn423610   4.812   6.546   1.865  0.2292  0.1687  0.0825
 3771ntf    cn123611   0.127   4.277   0.237  0.0459  0.1030 -0.1271
 3771ntf    sn223612   0.258   4.350   0.340 -0.0762 -0.0770  0.1565
 3771ntf    nn323613   0.382   4.304   0.255 -0.1323  0.2873 -0.1188
 3771ntf    sn223614   0.511   4.233   0.308 -0.1345  0.3821  0.0144
 3771ntf    cn123615   0.629   4.296   0.185 -0.2491 -0.1893 -0.3973
 3771ntf    fn423616   0.103   4.327   0.117 -0.8061 -0.2819 -0.1188
 3771ntf    fn423617   0.148   4.151   0.203 -0.3369  0.2372 -0.8715
 3771ntf    fn423618   0.015   4.280   0.307 -0.2934 -0.0887 -0.6583
 3771ntf    on523619   0.237   4.492   0.337 -0.0342 -0.0532  0.8313
 3771ntf    on523620   0.251   4.283   0.468 -0.5390 -0.0799  0.1302
 3771ntf    on523621   0.518   4.089   0.295  0.1020  0.3783  0.1900
 3771ntf    on523622   0.569   4.296   0.424  0.6974  0.0806 -0.2290
 3771ntf    fn423623   0.604   4.246   0.066  0.4959 -0.3785 -0.4781
 3771ntf    fn423624   0.644   4.428   0.179 -0.4629 -0.1667 -0.4418
 3771ntf    fn423625   0.754   4.257   0.205 -0.2059 -0.0119 -0.3143
 3772ntf    cn123626   4.873   4.722   3.542 -0.1174  0.2627 -0.0015
 3772ntf    sn223627   5.046   4.754   3.588  0.0031 -0.2886 -0.0590
 3772ntf    nn323628   5.136   4.642   3.527  0.0015 -0.3231  0.0017
 3772ntf    sn223629   5.214   4.526   3.598 -0.0062 -0.1336  0.3186
 3772ntf    cn123630   5.321   4.476   3.460  0.0027  0.0802  0.2484
 3772ntf    fn423631   4.873   4.697   3.412  0.6615 -0.0610  0.0526
 3772ntf    fn423632   4.823   4.613   3.598  0.2179  0.3616  0.4936
 3772ntf    fn423633   4.793   4.826   3.560 -0.0612  0.3097 -0.0233
 3772ntf    on523634   5.068   4.882   3.524  0.3435 -0.2665  0.1028
 3772ntf    on523635   5.044   4.766   3.732 -0.1846  0.3089 -0.1063
 3772ntf    on523636   5.125   4.413   3.614 -0.2983 -0.0120 -0.4083
 3772ntf    on523637   5.316   4.563   3.692  0.1404  0.8508 -0.2227
 3772ntf    fn423638   5.417   4.566   3.442  0.0624 -0.1801 -0.7824
 3772ntf    fn423639   5.382   4.363   3.490  0.0923  0.0903  0.1048
 3772ntf    fn423640   5.271   4.453   3.340  0.3810 -0.0070  0.1047
 3773ntf    cn123641   5.654   3.053   3.339  0.1134  0.2195 -0.2679
 3773ntf    sn223642   5.693   3.102   3.168 -0.0478  0.2881 -0.2847
 3773ntf    nn323643   5.710   3.257   3.183  0.0457  0.2883 -0.3985
 3773ntf    sn223644   5.839   3.338   3.222 -0.0505  0.2663 -0.0336
 3773ntf    cn123645   5.904   3.395   3.062 -0.2784  0.1203 -0.1789
 3773ntf    fn423646   5.746   3.103   3.420 -0.2686  0.1645  0.2043
 3773ntf    fn423647   5.538   3.092   3.390  0.3773 -0.0526  0.5595
 3773ntf    fn423648   5.650   2.921   3.350  0.3139  0.2305 -0.0462
 3773ntf    on523649   5.814   3.038   3.123  0.0405  0.7022 -0.6439
 3773ntf    on523650   5.571   3.076   3.095 -0.2006 -0.2699  0.1573
 3773ntf    on523651   5.943   3.266   3.290 -0.3757 -0.5794 -0.4097
 3773ntf    on523652   5.799   3.466   3.275  1.0430  0.3469  0.6175
 3773ntf    fn423653   6.013   3.468   3.074 -0.1009 -0.1364 -0.2248
 3773ntf    fn423654   5.939   3.291   2.989  0.1008  0.0016  0.1668
 3773ntf    fn423655   5.816   3.465   2.992 -0.4580  0.2726  0.1936
 3774ntf    cn123656   4.917   4.824   5.998  0.0800  0.4507 -0.1199
 3774ntf    sn223657   4.940   4.798   6.176 -0.1057  0.0999 -0.1467
 3774ntf    nn323658   4.947   4.643   6.203 -0.0676  0.1442  0.1040
 3774ntf    sn223659   4.839   4.546   6.263 -0.0214  0.3242  0.4790
 3774ntf    cn123660   4.888   4.550   6.438 -0.3634  0.0997  0.5812
 3774ntf    fn423661   4.815   4.753   5.953  0.4466 -0.4730  0.4869
 3774ntf    fn423662   4.905   4.953   5.971  0.1102  0.2715 -1.0278
 3774ntf    fn423663   5.022   4.780   5.931  0.0447 -0.4127  0.3847
 3774ntf    on523664   5.074   4.847   6.195 -0.0656  0.1227 -0.4868
 3774ntf    on523665   4.833   4.876   6.233 -1.1094 -0.9876 -0.4858
 3774ntf    on523666   4.865   4.410   6.223 -0.4717  0.4427 -0.2353
 3774ntf    on523667   4.701   4.587   6.259 -0.2041 -0.3262 -0.1310
 3774ntf    fn423668   4.807   4.474   6.510  0.0690 -0.4803  0.4610
 3774ntf    fn423669   5.018   4.525   6.446 -0.2932  0.0759 -0.5271
 3774ntf    fn423670   4.876   4.677   6.471 -0.4489  0.1665  0.2899
 3775ntf    cn123671   2.225   6.757   5.534 -0.1557  0.7262 -0.4439
 3775ntf    sn223672   2.075   6.697   5.450 -0.0096 -0.2565 -0.0162
 3775ntf    nn323673   1.968   6.718   5.564 -0.1751  0.0571 -0.2253
 3775ntf    sn223674   1.818   6.757   5.543 -0.2110  0.1443  0.1781
 3775ntf    cn123675   1.805   6.911   5.639 -0.1497  0.3200 -0.0943
 3775ntf    fn423676   2.336   6.732   5.467 -0.2360 -0.3851 -0.1861
 3775ntf    fn423677   2.220   6.885   5.568 -0.9410  0.5753  0.0494
 3775ntf    fn423678   2.221   6.694   5.650  0.5396  0.5273 -0.5236
 3775ntf    on523679   2.064   6.792   5.343  0.1700 -0.5041 -0.2547
 3775ntf    on523680   2.105   6.561   5.416 -0.4866 -0.3129 -0.2200
 3775ntf    on523681   1.733   6.668   5.618  0.5044 -0.6756  0.0270
 3775ntf    on523682   1.782   6.788   5.407  0.0193  0.0036  0.0839
 3775ntf    fn423683   1.678   6.949   5.643 -0.2343 -0.0375  0.7907
 3775ntf    fn423684   1.845   6.896   5.764  0.0925 -0.7516 -0.2880
 3775ntf    fn423685   1.877   7.002   5.575 -0.4656  0.2962 -0.4895
 3776ntf    cn123686   3.281   0.671   2.060  0.2526  0.1319 -0.0665
 3776ntf    sn223687   3.235   0.595   1.902  0.0434  0.0210  0.0477
 3776ntf    nn323688   3.345   0.661   1.812 -0.3101  0.2729 -0.2056
 3776ntf    sn223689   3.446   0.599   1.709 -0.1033 -0.1118  0.2220
 3776ntf    cn123690   3.487   0.745   1.609 -0.0543  0.0806  0.5242
 3776ntf    fn423691   3.300   0.801   2.047 -0.2673  0.2471  0.2689
 3776ntf    fn423692   3.186   0.652   2.151  0.3772  0.1493  0.0684
 3776ntf    fn423693   3.402   0.633   2.099 -0.0780  0.4524  1.3260
 3776ntf    on523694   3.252   0.454   1.929 -0.0247  0.0508  0.2464
 3776ntf    on523695   3.106   0.640   1.856 -0.0997 -1.0228 -0.6328
 3776ntf    on523696   3.380   0.512   1.614  0.2557 -0.7012  0.5023
 3776ntf    on523697   3.571   0.554   1.764 -0.0008  0.6330  0.6074
 3776ntf    fn423698   3.381   0.819   1.582 -0.2595 -0.5353 -0.4032
 3776ntf    fn423699   3.580   0.819   1.667  0.1944  0.3999 -0.2783
 3776ntf    fn423700   3.521   0.723   1.483  0.8878  0.5883  0.6772
 3777ntf    cn123701   0.745   1.095   5.298 -0.3319 -0.2780 -0.0175
 3777ntf    sn223702   0.646   1.184   5.175 -0.1802  0.0723  0.1146
 3777ntf    nn323703   0.765   1.224   5.080 -0.3387  0.8112  0.2211
 3777ntf    sn223704   0.743   1.298   4.943 -0.1283  0.2812 -0.1017
 3777ntf    cn123705   0.771   1.160   4.829 -0.0096  0.0531  0.2008
 3777ntf    fn423706   0.672   1.030   5.387 -0.2443 -0.6127 -0.1875
 3777ntf    fn423707   0.825   1.007   5.239 -0.2135  0.2768 -0.6919
 3777ntf    fn423708   0.822   1.173   5.372  0.3704 -0.8314 -0.1541
 3777ntf    on523709   0.553   1.086   5.124  0.0827  0.4475 -1.1339
 3777ntf    on523710   0.596   1.289   5.260  0.4628  0.5756 -0.1200
 3777ntf    on523711   0.852   1.388   4.911 -0.0286  0.4585  0.7071
 3777ntf    on523712   0.609   1.340   4.912 -0.2848  0.0511  0.2523
 3777ntf    fn423713   0.755   1.184   4.700 -0.7667  0.2492  0.3218
 3777ntf    fn423714   0.889   1.105   4.850 -0.0453  0.1719  0.7207
 3777ntf    fn423715   0.690   1.057   4.849 -0.0584 -0.0451 -0.4797
 3778ntf    cn123716   1.823   1.776   7.125 -0.3887  0.2495  0.3826
 3778ntf    sn223717   1.720   1.630   7.091  0.1106 -0.0168  0.0092
 3778ntf    nn323718   1.668   1.658   6.945  0.0724 -0.0977  0.0072
 3778ntf    sn223719   1.533   1.724   6.900 -0.0515 -0.3759 -0.0301
 3778ntf    cn123720   1.607   1.814   6.761 -0.0039 -0.2187  0.0971
 3778ntf    fn423721   1.874   1.775   7.247 -0.3633 -0.4159  0.3682
 3778ntf    fn423722   1.926   1.770   7.042 -0.1988  0.4771  0.5984
 3778ntf    fn423723   1.761   1.892   7.103 -0.4077 -0.0111 -1.0378
 3778ntf    on523724   1.813   1.521   7.090 -0.3582 -0.4201  0.0797
 3778ntf    on523725   1.630   1.627   7.203  0.4222  0.8980  0.2974
 3778ntf    on523726   1.482   1.822   6.993  0.0782 -0.5270  0.2009
 3778ntf    on523727   1.440   1.631   6.840 -0.5236 -0.0287  0.1595
 3778ntf    fn423728   1.650   1.725   6.673 -0.6111  0.1310 -0.5675
 3778ntf    fn423729   1.515   1.886   6.698 -0.0770 -0.2552  0.1618
 3778ntf    fn423730   1.701   1.904   6.785 -0.2473  0.0529  0.0426
 3779ntf    cn123731   2.773   5.728   0.092 -0.3546  0.3570 -0.5846
 3779ntf    sn223732   2.641   5.758   0.214  0.0429 -0.1141 -0.0330
 3779ntf    nn323733   2.732   5.788   0.339 -0.3357  0.1945  0.1687
 3779ntf    sn223734   2.753   5.921   0.420  0.1061  0.0716  0.2596
 3779ntf    cn123735   2.819   5.844   0.570 -0.2083 -0.4787  0.1199
 3779ntf    fn423736   2.873   5.660   0.146 -0.4702  0.4707 -0.2200
 3779ntf    fn423737   2.720   5.674  -0.016 -0.1276 -0.0428 -0.5003
 3779ntf    fn423738   2.827   5.840   0.048  0.0592  0.4877  0.2309
 3779ntf    on523739   2.563   5.866   0.160  0.0972 -0.0906 -0.0644
 3779ntf    on523740   2.577   5.629   0.220  0.2656 -0.2239  0.0225
 3779ntf    on523741   2.636   5.993   0.466  0.0853  0.2193 -0.0228
 3779ntf    on523742   2.857   6.000   0.360  0.1240 -0.1112  0.0458
 3779ntf    fn423743   2.917   5.764   0.532  0.1016  0.1596 -0.4494
 3779ntf    fn423744   2.884   5.923   0.654 -0.1614 -0.3541 -0.0337
 3779ntf    fn423745   2.723   5.781   0.635 -0.4223 -0.1652  0.1082
 3780ntf    cn123746   3.360   1.016   5.674 -0.0967 -0.4392  0.1480
 3780ntf    sn223747   3.345   1.066   5.848 -0.3372  0.0093  0.0019
 3780ntf    nn323748   3.241   0.967   5.911 -0.2654  0.0727  0.2218
 3780ntf    sn223749   3.277   0.848   6.007  0.3106 -0.2199 -0.3510
 3780ntf    cn123750   3.331   0.934   6.157 -0.1346 -0.0831 -0.2661
 3780ntf    fn423751   3.252   1.040   5.601  0.0050 -0.7480 -0.1045
 3780ntf    fn423752   3.464   1.071   5.615 -0.1927 -0.2150  0.1854
 3780ntf    fn423753   3.375   0.885   5.671 -0.4699 -0.5027  0.7855
 3780ntf    on523754   3.483   1.060   5.891 -0.1647  0.0615 -0.5365
 3780ntf    on523755   3.286   1.197   5.840  0.6963  0.5054  0.2742
 3780ntf    on523756   3.391   0.773   5.961 -0.1785 -0.5059 -1.1324
 3780ntf    on523757   3.157   0.781   6.052  0.6380 -0.2828  0.4242
 3780ntf    fn423758   3.234   1.011   6.203  0.0613 -0.1599  0.2868
 3780ntf    fn423759   3.354   0.852   6.258 -0.3292  0.7669  0.4807
 3780ntf    fn423760   3.432   1.019   6.143 -0.3282  0.1522 -0.2406
   7.26801   7.26801   7.26801
