Converted from moscito
 1728
    1SOL     ow    1   1.857   0.071   5.423  0.2538 -0.1908 -0.0930
    1SOL     hw    2   1.817   0.152   5.391  0.5304  0.0504  0.1697
    1SOL     hw    3   1.814   0.002   5.372 -0.3316  0.0807  0.0166
    1SOL     vw    4   1.846   0.072   5.412  0.2130 -0.1232 -0.0441
    2SOL     ow    5   2.153   1.513   1.080 -0.2084  0.6705  0.4515
    2SOL     hw    6   2.193   1.528   1.165  0.6897  1.3095 -0.0708
    2SOL     hw    7   2.198   1.573   1.021  3.1558 -3.4122 -1.6614
    2SOL     vw    8   2.164   1.523   1.083  0.3541  0.2161  0.1038
    3SOL     ow    9   0.185   0.680   1.551  0.1368  0.5183 -0.0214
    3SOL     hw   10   0.161   0.706   1.462 -1.2439  0.3611  0.2804
    3SOL     hw   11   0.187   0.584   1.549 -2.0753  0.4078  0.6006
    3SOL     vw   12   0.182   0.671   1.539 -0.3372  0.4830  0.1005
    4SOL     ow   13   1.013   1.369   3.604  0.0030  0.2645  0.0335
    4SOL     hw   14   1.013   1.335   3.515 -2.3861  2.1310 -0.7875
    4SOL     hw   15   0.945   1.319   3.649  1.0186 -0.4870  0.7778
    4SOL     vw   16   1.004   1.358   3.598 -0.1782  0.4116  0.0234
    5SOL     ow   17   0.289   2.154   5.415  0.0874 -0.0031  0.2194
    5SOL     hw   18   0.259   2.107   5.337 -0.8748  0.5179  0.2668
    5SOL     hw   19   0.263   2.099   5.488  0.0945  0.0011  0.2252
    5SOL     vw   20   0.282   2.140   5.414 -0.0386  0.0664  0.2265
    6SOL     ow   21   1.615   2.022   2.116 -0.3072  0.5690 -0.2990
    6SOL     hw   22   1.600   2.002   2.208 -0.0552 -1.5841 -0.6586
    6SOL     hw   23   1.530   2.049   2.083 -1.1640 -1.6869 -0.0863
    6SOL     vw   24   1.602   2.023   2.124 -0.3871 -0.0128 -0.3184
    7SOL     ow   25   1.386   0.114   2.864  0.3630 -0.6123  0.1579
    7SOL     hw   26   1.381   0.145   2.954  0.0688 -0.5039  0.1040
    7SOL     hw   27   1.357   0.023   2.868  1.4415 -0.9660  0.3525
    7SOL     vw   28   1.382   0.106   2.876  0.4665 -0.6446  0.1764
    8SOL     ow   29   1.027   0.163   0.527  0.0607  0.3300  0.2924
    8SOL     hw   30   0.948   0.178   0.476  0.2892  0.8965  0.0855
    8SOL     hw   31   1.036   0.242   0.581  0.4339  0.2321  0.3790
    8SOL     vw   32   1.018   0.176   0.528  0.1401  0.3918  0.2765
    9SOL     ow   33   1.131   0.912   3.437 -0.7557  0.0038 -0.5960
    9SOL     hw   34   1.093   0.870   3.514 -1.0363 -1.5668 -1.5499
    9SOL     hw   35   1.095   1.001   3.438 -0.2266  0.2382  1.4232
    9SOL     vw   36   1.121   0.918   3.447 -0.7228 -0.1725 -0.4554
   10SOL     ow   37   0.244   1.473   5.396 -0.1463  0.3825 -0.7448
   10SOL     hw   38   0.205   1.513   5.474  1.5980 -1.5184  1.2353
   10SOL     hw   39   0.172   1.426   5.354 -0.7244 -0.2987  0.9276
   10SOL     vw   40   0.230   1.472   5.401  0.0076  0.0417 -0.2630
   11SOL     ow   41   0.413   0.899   6.300 -0.3492 -0.2085  0.3335
   11SOL     hw   42   0.349   0.851   6.247 -0.1859 -1.3448  1.1312
   11SOL     hw   43   0.497   0.859   6.278 -0.2591 -0.5723  1.2894
   11SOL     vw   44   0.416   0.887   6.290 -0.3157 -0.4064  0.5649
   12SOL     ow   45   1.451   0.062   3.124  0.4520  0.2413 -0.3545
   12SOL     hw   46   1.511  -0.008   3.151  2.0150  1.0922 -1.4164
   12SOL     hw   47   1.475   0.136   3.181 -1.2828 -0.0786  0.8591
   12SOL     vw   48   1.462   0.063   3.135  0.4293  0.3113 -0.3345
   13SOL     ow   49   2.143   1.782   0.050 -1.0275 -0.1236  0.4774
   13SOL     hw   50   2.144   1.690   0.024  0.8922  0.4583 -1.9058
   13SOL     hw   51   2.079   1.823  -0.008  0.7179  0.5717 -1.0945
   13SOL     vw   52   2.135   1.775   0.039 -0.5438  0.0449 -0.0444
   14SOL     ow   53   1.442   0.815   3.312 -0.5008  0.4166  0.0474
   14SOL     hw   54   1.463   0.881   3.377 -1.1222 -0.6589  1.3796
   14SOL     hw   55   1.520   0.812   3.255 -0.2447  1.8643  0.2831
   14SOL     vw   56   1.455   0.823   3.313 -0.5490  0.4657  0.2543
   15SOL     ow   57   0.689   0.291   4.030 -0.1207  0.2408 -0.5015
   15SOL     hw   58   0.722   0.331   3.949  0.0452 -1.0918 -1.1101
   15SOL     hw   59   0.595   0.280   4.014 -0.2004  0.5411 -0.2584
   15SOL     vw   60   0.681   0.295   4.017 -0.1094  0.1046 -0.5498
   16SOL     ow   61   1.802   1.038   2.240 -0.1886  0.5747  0.3960
   16SOL     hw   62   1.844   1.098   2.178 -0.7946 -0.9111 -1.5635
   16SOL     hw   63   1.728   1.088   2.274  0.7871  1.8090  0.8017
   16SOL     vw   64   1.798   1.053   2.236 -0.1397  0.5416  0.1910
   17SOL     ow   65   1.198   0.915   1.327 -0.0868  0.3914  0.0881
   17SOL     hw   66   1.127   0.929   1.389 -1.1222  0.4942 -1.0751
   17SOL     hw   67   1.233   0.828   1.349 -2.3237 -0.8646 -0.9344
   17SOL     vw   68   1.193   0.905   1.338 -0.5185  0.2392 -0.2003
   18SOL     ow   69   0.925   0.846   5.003  0.1262  0.2230  0.2937
   18SOL     hw   70   0.878   0.900   4.940  0.3641  1.8474  1.4418
   18SOL     hw   71   0.859   0.821   5.068 -0.3074 -2.1349 -0.9497
   18SOL     vw   72   0.910   0.850   5.003  0.1004  0.1262  0.2813
   19SOL     ow   73   0.830   0.507   1.569 -0.0257 -0.1787  0.3957
   19SOL     hw   74   0.833   0.602   1.580  0.9254 -0.0256 -0.8876
   19SOL     hw   75   0.921   0.479   1.581 -0.3805 -1.0200  1.3082
   19SOL     vw   76   0.843   0.515   1.572  0.0530 -0.2695  0.3467
   20SOL     ow   77   0.578   1.755   2.651  0.9490  0.5338 -0.6515
   20SOL     hw   78   0.484   1.742   2.660  1.1975 -1.4925 -0.5390
   20SOL     hw   79   0.593   1.844   2.682 -0.8981  0.8305 -0.5069
   20SOL     vw   80   0.567   1.765   2.656  0.7381  0.3056 -0.6176
   21SOL     ow   81   0.075   1.027   0.821 -0.1903 -0.5186 -0.3845
   21SOL     hw   82   0.125   1.087   0.876 -2.2439  1.3384 -0.4073
   21SOL     hw   83   0.117   0.942   0.834  0.4857  0.1711  2.6872
   21SOL     vw   84   0.087   1.024   0.830 -0.3721 -0.1825  0.0178
   22SOL     ow   85   0.246   0.454   5.010  0.0481 -0.5613  0.2833
   22SOL     hw   86   0.166   0.500   5.038 -1.3952 -2.6221 -0.2614
   22SOL     hw   87   0.314   0.490   5.067 -1.3245  0.9671  1.0684
   22SOL     vw   88   0.244   0.465   5.021 -0.3234 -0.6316  0.3154
   23SOL     ow   89   1.633   0.724   4.142  0.1225 -0.3938  0.4956
   23SOL     hw   90   1.684   0.780   4.201 -1.7634  1.0408  0.8696
   23SOL     hw   91   1.550   0.770   4.132 -1.7360 -3.3546  1.1583
   23SOL     vw   92   1.629   0.738   4.149 -0.3715 -0.5952  0.6323
   24SOL     ow   93   0.165   0.485   2.899  0.4573 -0.9479  0.5017
   24SOL     hw   94   0.182   0.486   2.993 -1.5257  0.2863  0.9137
   24SOL     hw   95   0.073   0.462   2.891  0.0919  0.7244 -1.0043
   24SOL     vw   96   0.155   0.482   2.910  0.1474 -0.5644  0.3573
   25SOL     ow   97   1.434   1.618   2.802  0.1234  0.1636 -0.0433
   25SOL     hw   98   1.402   1.693   2.752 -0.0817 -0.0246 -0.1948
   25SOL     hw   99   1.371   1.548   2.784  0.9148 -0.3794 -0.7948
   25SOL     vw  100   1.422   1.619   2.793  0.2007  0.0671 -0.1625
   26SOL     ow  101   1.736   0.214   3.702 -0.0149  0.0789  0.2252
   26SOL     hw  102   1.724   0.252   3.615 -0.7065  3.3167  1.5934
   26SOL     hw  103   1.652   0.172   3.722  0.3629 -1.2900 -0.8371
   26SOL     vw  104   1.724   0.213   3.693 -0.0563  0.3255  0.2655
   27SOL     ow  105   1.524   0.258   4.682  0.2811  0.3469 -0.1280
   27SOL     hw  106   1.562   0.253   4.594 -0.0927 -0.6208 -0.2548
   27SOL     hw  107   1.449   0.198   4.678  1.7950 -1.7831  1.5893
   27SOL     vw  108   1.519   0.249   4.670  0.4316 -0.0618  0.0815
   28SOL     ow  109   0.540   1.561   5.450  0.1476  0.2083  0.2856
   28SOL     hw  110   0.530   1.582   5.543  1.7295  0.9243  0.3276
   28SOL     hw  111   0.570   1.642   5.410 -0.7041 -0.0379 -0.9102
   28SOL     vw  112   0.543   1.574   5.457  0.2439  0.2703  0.1335
   29SOL     ow  113   0.358   0.199   5.466 -0.1453 -0.5887  0.2184
   29SOL     hw  114   0.402   0.278   5.435 -2.9938  0.7937 -0.6436
   29SOL     hw  115   0.325   0.223   5.552 -1.4644 -0.6118 -0.2618
   29SOL     vw  116   0.359   0.213   5.473 -0.6952 -0.4094  0.0412
   30SOL     ow  117   2.231   1.261   2.669 -0.5908  0.3880 -0.1454
   30SOL     hw  118   2.290   1.192   2.638 -1.5614 -0.5368  0.0115
   30SOL     hw  119   2.282   1.341   2.661 -0.0166 -0.1055 -1.9716
   30SOL     vw  120   2.245   1.262   2.664 -0.6431  0.2009 -0.3656
   31SOL     ow  121   1.224   0.878   0.439 -0.1971 -1.0002  0.2580
   31SOL     hw  122   1.134   0.875   0.469  0.1297 -1.6041  1.2007
   31SOL     hw  123   1.225   0.949   0.374 -1.5225 -1.5318 -0.3826
   31SOL     vw  124   1.213   0.887   0.434 -0.3289 -1.1500  0.2978
   32SOL     ow  125   1.666   1.232   0.033 -0.3022  0.8167 -0.0037
   32SOL     hw  126   1.693   1.141   0.028 -0.8047  0.6315  0.5826
   32SOL     hw  127   1.638   1.254  -0.056 -2.8554 -0.4485  0.4211
   32SOL     vw  128   1.666   1.223   0.021 -0.7053  0.6253  0.1298
   33SOL     ow  129   0.857   1.800   5.009  0.0602  0.5937  0.4106
   33SOL     hw  130   0.889   1.885   4.979  0.8988 -0.0513 -0.5968
   33SOL     hw  131   0.787   1.779   4.947  1.2059 -0.3432 -0.6104
   33SOL     vw  132   0.852   1.809   4.997  0.3220  0.3850  0.1428
   34SOL     ow  133   1.714   1.735   0.715  0.4598 -0.2961 -0.5001
   34SOL     hw  134   1.733   1.643   0.696  2.1296 -0.5581  1.9442
   34SOL     hw  135   1.767   1.784   0.652  1.0292 -1.0348 -0.6129
   34SOL     vw  136   1.723   1.730   0.704  0.7553 -0.4281 -0.1925
   35SOL     ow  137   1.949   1.229   2.833 -0.2031  0.6431 -1.0472
   35SOL     hw  138   1.903   1.161   2.882 -0.4786  1.7861  0.3755
   35SOL     hw  139   1.890   1.252   2.762 -1.3696  1.2835  0.0769
   35SOL     vw  140   1.935   1.223   2.830 -0.3933  0.8785 -0.7111
   36SOL     ow  141   2.171   1.457   3.671 -0.0454  0.2615  0.0646
   36SOL     hw  142   2.202   1.485   3.585  1.5692  3.5863  1.5201
   36SOL     hw  143   2.079   1.484   3.673 -0.1786 -0.1112 -0.7049
   36SOL     vw  144   2.163   1.464   3.660  0.1500  0.6511  0.1551
   37SOL     ow  145   1.840   2.176   3.591  0.4734  0.7851 -0.0282
   37SOL     hw  146   1.837   2.187   3.495  1.2041 -1.3427 -0.3558
   37SOL     hw  147   1.778   2.106   3.609 -1.2266  2.5340  1.3871
   37SOL     vw  148   1.832   2.168   3.580  0.3455  0.7350  0.1154
   38SOL     ow  149   0.966   1.829   0.646 -0.3002  0.5704  0.4870
   38SOL     hw  150   0.933   1.919   0.655 -4.1058 -0.4968 -0.8878
   38SOL     hw  151   0.957   1.791   0.733  0.0842  1.1085  0.7717
   38SOL     vw  152   0.961   1.836   0.659 -0.7516  0.5007  0.3432
   39SOL     ow  153   0.293   0.223   2.757  0.1302 -0.3252  0.6975
   39SOL     hw  154   0.347   0.152   2.793  1.5417  0.4813  0.2737
   39SOL     hw  155   0.247   0.183   2.683  1.4772 -0.6498 -0.0006
   39SOL     vw  156   0.294   0.208   2.752  0.4942 -0.2616  0.5494
   40SOL     ow  157   2.209   0.756   1.715 -0.0615  0.1457  0.3937
   40SOL     hw  158   2.148   0.828   1.736  0.4381  0.8438 -0.4528
   40SOL     hw  159   2.152   0.684   1.688 -0.6066 -0.0512  2.0057
   40SOL     vw  160   2.193   0.756   1.714 -0.0675  0.2118  0.4947
   41SOL     ow  161   0.344   0.910   4.236  0.5655 -0.2415 -0.7519
   41SOL     hw  162   0.408   0.889   4.167  1.6087 -1.3045  0.4866
   41SOL     hw  163   0.306   0.825   4.260 -0.1159  0.1807 -0.3191
   41SOL     vw  164   0.348   0.896   4.230  0.6132 -0.3260 -0.5314
   42SOL     ow  165   0.280   0.518   0.602 -0.2416  0.3365 -0.2408
   42SOL     hw  166   0.192   0.481   0.610 -1.3917  2.8789 -0.2363
   42SOL     hw  167   0.306   0.536   0.693  0.4778 -0.7222 -0.2143
   42SOL     vw  168   0.272   0.515   0.615 -0.2984  0.5322 -0.2367
   43SOL     ow  169   0.896   0.060   2.258 -0.3778 -0.1656 -0.3108
   43SOL     hw  170   0.862   0.127   2.199 -1.2622  0.1295  0.5119
   43SOL     hw  171   0.826   0.046   2.321  1.7130  1.9830  2.7441
   43SOL     vw  172   0.882   0.067   2.258 -0.2187  0.1568  0.2007
   44SOL     ow  173   2.101   0.835   3.671 -0.4751 -0.2908 -0.3076
   44SOL     hw  174   2.117   0.746   3.640  1.5393 -0.5220  1.1833
   44SOL     hw  175   2.163   0.847   3.743  1.2514  3.2630 -2.1348
   44SOL     vw  176   2.111   0.825   3.677  0.0185  0.1476 -0.3520
   45SOL     ow  177   1.320   1.676   1.613  0.2457  0.4038  0.5213
   45SOL     hw  178   1.364   1.725   1.682  0.4719 -0.1705  0.7990
   45SOL     hw  179   1.366   1.700   1.533  1.3993 -0.5384  0.8655
   45SOL     vw  180   1.332   1.685   1.612  0.4278  0.2038  0.6034
   46SOL     ow  181   1.768   1.322   4.733  0.2213 -0.4567  0.2006
   46SOL     hw  182   1.685   1.364   4.755 -0.1769 -1.3148  0.3476
   46SOL     hw  183   1.755   1.230   4.752  0.4581 -0.9733 -1.9557
   46SOL     vw  184   1.755   1.316   4.739  0.2000 -0.6380 -0.0646
   47SOL     ow  185   1.946   2.069   2.082  0.2324  0.2456 -1.0882
   47SOL     hw  186   1.964   2.158   2.110  2.0681 -0.4627  0.1914
   47SOL     hw  187   1.956   2.016   2.162 -1.5033 -1.0386 -1.6640
   47SOL     vw  188   1.950   2.074   2.096  0.2455 -0.0173 -0.9953
   48SOL     ow  189   1.872   0.998   3.767  0.1045  0.3807 -0.5020
   48SOL     hw  190   1.910   1.008   3.854 -3.5535  0.1188  1.3100
   48SOL     hw  191   1.863   1.087   3.734  1.3883  0.4928 -0.5897
   48SOL     vw  192   1.876   1.011   3.774 -0.2087  0.3610 -0.2745
   49SOL     ow  193   0.330   1.302   2.129 -0.7237  0.1830 -0.8145
   49SOL     hw  194   0.249   1.351   2.144 -1.8228 -1.3763 -1.4594
   49SOL     hw  195   0.327   1.231   2.194  1.3128  1.4172  0.7660
   49SOL     vw  196   0.319   1.299   2.140 -0.6000  0.1401 -0.6911
   50SOL     ow  197   1.731   0.377   4.162 -0.6860 -0.0145 -0.4029
   50SOL     hw  198   1.701   0.287   4.150  0.9610 -0.5439 -0.8133
   50SOL     hw  199   1.814   0.368   4.211 -1.8721  1.4560  2.0738
   50SOL     vw  200   1.738   0.364   4.167 -0.6252  0.1097 -0.1302
   51SOL     ow  201   1.678   2.039   0.800 -0.1404  0.1743 -0.4465
   51SOL     hw  202   1.633   2.124   0.798 -2.6951 -1.0560 -0.0138
   51SOL     hw  203   1.767   2.059   0.828 -0.4844  2.7694 -0.9917
   51SOL     vw  204   1.684   2.053   0.804 -0.5229  0.3542 -0.4613
   52SOL     ow  205   0.551   0.813   3.334  0.4272  0.3656  0.7637
   52SOL     hw  206   0.496   0.762   3.274 -0.3563  0.4002  1.4299
   52SOL     hw  207   0.636   0.819   3.290  0.3424 -0.9588  0.3688
   52SOL     vw  208   0.555   0.807   3.320  0.3127  0.1954  0.7995
   53SOL     ow  209   0.629   1.030   3.526  0.7542  0.2406 -1.0599
   53SOL     hw  210   0.702   0.986   3.569  1.2304  1.7553 -0.2660
   53SOL     hw  211   0.617   1.112   3.574  0.2185  1.2390 -2.7847
   53SOL     vw  212   0.637   1.035   3.538  0.7464  0.5722 -1.1827
   54SOL     ow  213   1.169   0.977   2.378 -0.6304  0.3708 -0.1252
   54SOL     hw  214   1.167   1.051   2.318 -0.6009  0.1982 -0.3429
   54SOL     hw  215   1.111   1.002   2.449 -2.7898 -0.4895 -1.4892
   54SOL     vw  216   1.161   0.990   2.379 -0.9114  0.2345 -0.3338
   55poe    c31  217   0.962   2.158   0.809  0.1924 -0.5710  0.5247
   55poe     o2  218   0.899   2.081   0.711  0.0165 -0.3563  0.4682
   55poe    c23  219   0.763   2.118   0.715  0.1014  0.1100 -0.5662
   55poe    c23  220   0.701   2.042   0.596 -0.2351  0.1742 -0.4345
   55poe     o2  221   0.702   1.901   0.608 -0.1032  0.1892 -0.2684
   55poe    c23  222   0.586   1.851   0.547  0.2612 -0.1027 -0.7278
   55poe    c23  223   0.576   1.706   0.599  0.2067  0.3740  0.6453
   55poe     o2  224   0.694   1.643   0.554  0.1501  0.1395  0.8228
   55poe    c23  225   0.715   1.517   0.612  0.0532 -0.5635 -0.6406
   55poe    c23  226   0.845   1.447   0.567  0.6387  0.1247 -0.0396
   55poe     o2  227   0.952   1.537   0.553  0.1928  0.5678 -0.6933
   55poe    c31  228   1.075   1.468   0.544  0.0578  0.1821  0.3047
   56poe    c31  229   2.107   1.585   0.598  0.2478  0.1906  0.0554
   56poe     o2  230   2.000   1.649   0.533  0.0031  0.3189  0.5794
   56poe    c23  231   2.036   1.780   0.494  0.1666  0.1272  0.0862
   56poe    c23  232   1.909   1.841   0.431  0.1771  0.1476  0.0850
   56poe     o2  233   1.785   1.843   0.497 -0.1393 -0.3648 -0.4875
   56poe    c23  234   1.689   1.927   0.437  0.1218  0.0677 -0.2992
   56poe    c23  235   1.543   1.881   0.451  0.3227 -0.5300 -0.1382
   56poe     o2  236   1.515   1.876   0.589 -0.1209  0.2072 -0.1944
   56poe    c23  237   1.382   1.831   0.605 -0.0500 -0.0670 -0.3823
   56poe    c23  238   1.324   1.893   0.733  0.5853  0.4539 -0.3436
   56poe     o2  239   1.419   1.884   0.837 -0.0416  0.1028  0.2020
   56poe    c31  240   1.371   1.970   0.938  0.2915 -0.2301  0.6469
   57poe    c31  241   1.884   1.554   5.215 -0.6348 -0.1123 -0.7904
   57poe     o2  242   1.896   1.502   5.346  0.0302  0.1113 -0.7599
   57poe    c23  243   1.995   1.567   5.423 -0.0822 -0.3995 -0.1809
   57poe    c23  244   2.010   1.473   5.544 -0.0160 -0.0654  0.0725
   57poe     o2  245   1.881   1.458   5.598 -0.1257 -0.0523 -0.1887
   57poe    c23  246   1.874   1.379   5.714  0.0617  0.3391  0.0884
   57poe    c23  247   1.828   1.237   5.679  0.8453  0.2079 -0.4281
   57poe     o2  248   1.746   1.253   5.565 -0.5710 -0.2684  0.4869
   57poe    c23  249   1.769   1.153   5.468 -0.2901  0.3741 -0.1178
   57poe    c23  250   1.671   1.176   5.351  0.1857 -0.7281 -0.7507
   57poe     o2  251   1.679   1.311   5.311 -0.1826 -0.3526  0.4108
   57poe    c31  252   1.588   1.339   5.207  0.4913  0.3432  0.0001
   58poe    c31  253   1.635   0.656   4.818  0.2497  0.1402  0.3781
   58poe     o2  254   1.666   0.521   4.791  0.2549  0.2364 -0.1132
   58poe    c23  255   1.797   0.504   4.838  0.2208  0.0488 -0.0878
   58poe    c23  256   1.875   0.396   4.760 -0.1624 -0.4319  0.1924
   58poe     o2  257   1.828   0.266   4.791 -0.0753 -0.4411  0.2864
   58poe    c23  258   1.886   0.164   4.714 -0.1274 -0.0591 -0.2633
   58poe    c23  259   1.832   0.037   4.782 -0.0009  0.0077 -0.0397
   58poe     o2  260   1.694   0.057   4.801  0.0507 -0.1890  0.5609
   58poe    c23  261   1.643  -0.074   4.817 -0.3759 -0.1662 -0.5593
   58poe    c23  262   1.491  -0.046   4.817 -0.3692 -0.1072  0.1447
   58poe     o2  263   1.462   0.065   4.898 -0.2315  0.3255 -0.3928
   58poe    c31  264   1.334   0.066   4.957  0.1582  0.1228  0.4682
   59poe    c31  265   0.053   0.016   4.522 -0.5996  0.7280 -0.7155
   59poe     o2  266   0.129  -0.087   4.462  0.0879  0.5934  0.3560
   59poe    c23  267   0.228  -0.020   4.387  0.4940 -0.2391  0.1368
   59poe    c23  268   0.285  -0.119   4.284 -0.0396 -0.5702  0.1534
   59poe     o2  269   0.308  -0.241   4.351 -0.3039 -0.4809  0.4089
   59poe    c23  270   0.308  -0.353   4.265 -0.1946 -0.0830 -0.1149
   59poe    c23  271   0.275  -0.486   4.336 -0.3978  0.1516  0.2346
   59poe     o2  272   0.172  -0.441   4.421 -0.4200  0.5174  0.0164
   59poe    c23  273   0.130  -0.536   4.517  0.1672  0.6146  0.3695
   59poe    c23  274   0.012  -0.476   4.595  0.1646 -0.6384  1.3545
   59poe     o2  275   0.039  -0.338   4.604  0.2346 -0.4985 -0.5394
   59poe    c31  276  -0.046  -0.282   4.701  0.7849 -0.3076 -0.1659
   60poe    c31  277   1.060   1.902   1.458  0.0088  0.0607  0.3757
   60poe     o2  278   0.919   1.904   1.452  0.0188 -0.4055 -0.0950
   60poe    c23  279   0.857   1.891   1.578  0.1048  0.7618  0.0812
   60poe    c23  280   0.714   1.944   1.557 -0.0920  0.0459 -0.4290
   60poe     o2  281   0.667   1.905   1.430 -0.1199 -0.1395 -0.3614
   60poe    c23  282   0.529   1.876   1.432 -0.0832 -0.3303 -0.5786
   60poe    c23  283   0.487   1.874   1.283 -0.4989  0.4094 -0.4742
   60poe     o2  284   0.554   1.976   1.213  0.5425 -0.1757 -0.3421
   60poe    c23  285   0.500   1.994   1.085 -0.1791 -0.1632 -0.0382
   60poe    c23  286   0.542   2.122   1.011  0.4736 -0.3521  0.0031
   60poe     o2  287   0.496   2.140   0.879 -0.2703 -0.3360  0.2603
   60poe    c31  288   0.361   2.175   0.856 -0.2464 -0.3266  0.1358
   61poe    c31  289   0.830   1.449   4.982 -0.7933  0.1046  0.5909
   61poe     o2  290   0.837   1.542   5.088 -0.1088  0.2223  0.4495
   61poe    c23  291   0.839   1.476   5.212 -0.5741  0.4727  0.5915
   61poe    c23  292   0.874   1.574   5.325  0.3451 -0.0222  0.7397
   61poe     o2  293   0.978   1.657   5.278  0.1692 -0.0767  0.2531
   61poe    c23  294   1.026   1.733   5.386 -0.3397  0.0759  0.3738
   61poe    c23  295   1.124   1.825   5.310 -0.1895 -0.3895 -0.0007
   61poe     o2  296   1.074   1.864   5.184 -0.4144  0.2309  0.2767
   61poe    c23  297   1.151   1.971   5.133 -0.2432  0.1829  0.4346
   61poe    c23  298   1.062   2.065   5.051  0.5239  0.2765 -0.3038
   61poe     o2  299   0.997   2.000   4.944  0.7660 -0.3382 -0.0749
   61poe    c31  300   0.953   2.080   4.837 -0.4501  0.1339  0.7529
   62poe    c31  301   1.039   1.122   0.227  0.5521  0.0709  0.0704
   62poe     o2  302   1.160   1.052   0.247  0.4553 -0.2513 -0.4397
   62poe    c23  303   1.269   1.132   0.204  0.6512  0.0636  0.6191
   62poe    c23  304   1.393   1.046   0.170  0.1454 -0.3791 -0.1474
   62poe     o2  305   1.448   0.984   0.284 -0.5584 -0.3381  0.2259
   62poe    c23  306   1.529   0.875   0.247 -0.2886 -0.0963  0.0996
   62poe    c23  307   1.612   0.839   0.372 -0.2534  0.1891  0.1585
   62poe     o2  308   1.526   0.814   0.481 -0.3150  0.6320  0.2130
   62poe    c23  309   1.591   0.744   0.584 -0.7000  0.0061  0.0359
   62poe    c23  310   1.482   0.691   0.680 -0.3668 -0.4441  0.1712
   62poe     o2  311   1.382   0.790   0.687 -0.3726 -0.4304 -0.0757
   62poe    c31  312   1.271   0.750   0.765 -0.5891  0.1437 -0.0851
   63poe    c31  313   2.043   0.205   3.541 -0.1756 -0.2317  0.4239
   63poe     o2  314   2.012   0.129   3.655 -0.1223 -0.0152  0.5830
   63poe    c23  315   2.118   0.138   3.747  0.0678  0.2981  0.3363
   63poe    c23  316   2.096   0.027   3.852 -0.0839  0.4694  0.4869
   63poe     o2  317   1.956   0.014   3.864 -0.0665  0.1444  0.3462
   63poe    c23  318   1.908  -0.092   3.943  0.5577 -0.5345 -0.1685
   63poe    c23  319   1.755  -0.086   3.952  0.5606 -0.0304 -0.4224
   63poe     o2  320   1.697  -0.054   3.828 -0.0794  0.0020 -0.1231
   63poe    c23  321   1.558  -0.068   3.840 -0.1436 -0.0764 -0.8673
   63poe    c23  322   1.476  -0.036   3.714  0.2576 -0.2781 -1.1782
   63poe     o2  323   1.496   0.101   3.686  0.6071 -0.0574  0.0985
   63poe    c31  324   1.401   0.129   3.585  0.5021  0.1232  0.2454
   64poe    c31  325   0.511   2.238   3.316 -1.0113  0.0032  0.0197
   64poe     o2  326   0.557   2.268   3.445  0.0969 -0.4071 -0.2701
   64poe    c23  327   0.593   2.405   3.450 -0.2009 -0.3417  0.1151
   64poe    c23  328   0.606   2.446   3.598 -0.0614  0.1665 -0.0379
   64poe     o2  329   0.712   2.365   3.644  0.0051  0.1405 -0.2356
   64poe    c23  330   0.732   2.379   3.783 -0.3793 -0.2129 -0.1418
   64poe    c23  331   0.837   2.270   3.809 -0.1465  0.1345  0.3846
   64poe     o2  332   0.796   2.147   3.753 -0.0783  0.0654  0.4866
   64poe    c23  333   0.714   2.060   3.828  0.1190 -0.0640  0.5523
   64poe    c23  334   0.660   1.961   3.723  0.3414  0.0404  0.3384
   64poe     o2  335   0.609   2.041   3.618  0.3604 -0.2844  0.0797
   64poe    c31  336   0.530   1.961   3.533  0.1471 -0.0515  0.0556
   65poe    c31  337   1.885   1.157   0.249 -0.3337  0.4428  0.1793
   65poe     o2  338   1.831   1.287   0.248 -0.2183  0.4897  0.0170
   65poe    c23  339   1.884   1.366   0.353  0.1200  0.0922  0.1466
   65poe    c23  340   1.779   1.478   0.361  0.0881  0.0764 -0.0497
   65poe     o2  341   1.756   1.516   0.227 -0.2795 -0.9060 -0.2775
   65poe    c23  342   1.633   1.583   0.216  0.3423  0.3666  0.3028
   65poe    c23  343   1.610   1.631   0.071  0.0861 -0.3613  0.0996
   65poe     o2  344   1.620   1.512  -0.004 -0.3414 -0.5148  0.2822
   65poe    c23  345   1.526   1.509  -0.109 -0.0582  0.0372  0.0105
   65poe    c23  346   1.573   1.428  -0.231  0.8351  0.1141  0.2978
   65poe     o2  347   1.584   1.295  -0.188 -0.7089 -0.0875  0.1003
   65poe    c31  348   1.562   1.210  -0.299  0.7150 -0.1319 -0.1648
   66poe    c31  349   2.127   0.850   2.099 -0.4287 -0.2030  0.1510
   66poe     o2  350   2.084   0.937   2.201  0.0096  0.9397 -0.6243
   66poe    c23  351   2.171   1.043   2.233  0.3727  0.3845  0.2485
   66poe    c23  352   2.110   1.149   2.327 -0.3373  0.0168  0.2080
   66poe     o2  353   2.017   1.075   2.403 -0.5278  0.1149  0.0704
   66poe    c23  354   2.055   1.032   2.532  0.3517 -0.8281 -0.4839
   66poe    c23  355   1.985   0.901   2.574  0.0860 -0.4884  0.1563
   66poe     o2  356   1.986   0.826   2.455 -1.2127 -0.2440 -0.0238
   66poe    c23  357   1.926   0.702   2.483 -0.8202 -0.3923  0.1795
   66poe    c23  358   1.905   0.629   2.349  0.3049  0.3965 -0.4412
   66poe     o2  359   1.868   0.736   2.264 -0.1048  0.4896 -0.1468
   66poe    c31  360   1.806   0.682   2.149  0.4594 -0.0092 -0.2223
   67poe    c31  361   0.114   2.087   1.241 -0.2770 -1.1205  0.9018
   67poe     o2  362  -0.025   2.108   1.248 -0.1078  0.4327  0.0701
   67poe    c23  363  -0.088   1.986   1.282  0.2310 -0.1218 -1.2414
   67poe    c23  364  -0.240   2.014   1.280  0.1677 -0.4336 -0.7560
   67poe     o2  365  -0.255   2.102   1.171 -0.2070  0.4532  0.0006
   67poe    c23  366  -0.387   2.149   1.156 -0.4518 -0.4620 -0.8063
   67poe    c23  367  -0.390   2.252   1.042 -0.2464  0.0601 -0.3480
   67poe     o2  368  -0.269   2.315   1.077 -0.2655 -0.0384 -0.1061
   67poe    c23  369  -0.244   2.430   0.999 -0.5202  0.0637 -0.0406
   67poe    c23  370  -0.108   2.466   1.063 -0.4735  0.0821 -0.1498
   67poe     o2  371  -0.021   2.356   1.068 -0.5534  0.0298  0.1052
   67poe    c31  372   0.105   2.410   1.103 -0.3050 -0.0417 -0.6688
   68poe    c31  373   2.021   2.244   6.054 -0.0554  0.0814  0.2044
   68poe     o2  374   1.982   2.380   6.051 -0.2022  0.0252 -0.5312
   68poe    c23  375   2.071   2.458   6.127 -1.0893  0.5090  0.0417
   68poe    c23  376   2.035   2.607   6.122 -0.6001  0.6189 -0.3885
   68poe     o2  377   1.955   2.627   6.008 -0.3451  0.0522 -0.6705
   68poe    c23  378   1.905   2.759   6.001 -0.0257  0.2092 -0.0643
   68poe    c23  379   1.839   2.765   5.862 -0.6450  0.0242  0.2179
   68poe     o2  380   1.790   2.636   5.833  0.5070 -0.5132  0.6018
   68poe    c23  381   1.779   2.607   5.695  0.0934 -0.2357  0.5753
   68poe    c23  382   1.722   2.465   5.689  0.6121 -0.4199 -0.1713
   68poe     o2  383   1.804   2.399   5.783  0.2783 -0.1551  0.3126
   68poe    c31  384   1.776   2.261   5.780  0.2377 -0.1609  0.9280
   69poe    c31  385   1.147   2.011   2.284  0.3219 -0.8395 -0.1013
   69poe     o2  386   1.015   2.046   2.248  0.4655 -0.2917 -0.0884
   69poe    c23  387   0.943   1.936   2.199 -0.4417  0.0755  0.3792
   69poe    c23  388   0.823   1.998   2.126  0.0802  0.1005 -0.4758
   69poe     o2  389   0.860   2.101   2.036  0.8561 -0.3314 -0.6618
   69poe    c23  390   0.758   2.156   1.956  0.4950  0.3328  0.2314
   69poe    c23  391   0.779   2.295   1.892 -0.2266 -0.0235 -0.8112
   69poe     o2  392   0.809   2.379   2.001  0.4320 -0.2513 -0.8132
   69poe    c23  393   0.827   2.517   1.975  0.0770 -0.0356  0.0500
   69poe    c23  394   0.709   2.604   2.020 -0.0375  0.0457 -0.4044
   69poe     o2  395   0.686   2.592   2.158  0.1482 -0.8630 -0.4462
   69poe    c31  396   0.569   2.654   2.207  0.2549 -0.3756 -0.8104
   70poe    c31  397   1.280   2.248   2.559  0.0669  0.1320  0.6442
   70poe     o2  398   1.384   2.341   2.576  0.2061  0.0973 -0.0131
   70poe    c23  399   1.506   2.299   2.517 -0.0504  0.1383 -0.5775
   70poe    c23  400   1.588   2.430   2.514  0.1293  0.0326 -0.2367
   70poe     o2  401   1.582   2.477   2.647  0.2633 -0.1033 -0.1820
   70poe    c23  402   1.669   2.584   2.677  0.0832  0.0513 -0.2045
   70poe    c23  403   1.619   2.656   2.803 -0.4636 -0.2136 -0.2677
   70poe     o2  404   1.480   2.636   2.786 -0.6215  0.0544  0.6240
   70poe    c23  405   1.394   2.687   2.885 -0.0348  0.8410  0.7394
   70poe    c23  406   1.253   2.678   2.823  0.1549  0.0363  0.4152
   70poe     o2  407   1.253   2.581   2.721  0.0610  0.1228  0.3340
   70poe    c31  408   1.139   2.595   2.638  0.4011 -0.4119 -0.2284
   71poe    c31  409   1.192   2.098   0.447  0.6977 -0.1236 -0.0249
   71poe     o2  410   1.237   2.226   0.409  0.4718 -0.0177  0.0645
   71poe    c23  411   1.336   2.216   0.309  0.8038 -0.5466  0.4330
   71poe    c23  412   1.351   2.359   0.253 -0.0142 -0.4309  0.4906
   71poe     o2  413   1.254   2.450   0.299  0.0355  0.1441 -0.5149
   71poe    c23  414   1.268   2.578   0.241  0.3145  0.2128 -0.3016
   71poe    c23  415   1.165   2.677   0.299 -0.3565 -0.5376 -0.1918
   71poe     o2  416   1.123   2.646   0.430  0.7254  0.1940  0.3483
   71poe    c23  417   1.060   2.763   0.477  0.2176  0.1822 -0.2883
   71poe    c23  418   1.051   2.762   0.631  0.0890  0.2502 -0.2948
   71poe     o2  419   0.982   2.646   0.669  0.2398  0.2614  0.0150
   71poe    c31  420   0.966   2.623   0.807 -0.0559  0.4574  0.0150
   72poe    c31  421   2.156   1.979   4.282 -0.0867 -0.0506  0.0408
   72poe     o2  422   2.233   1.916   4.183  0.3573  0.8624 -0.2034
   72poe    c23  423   2.142   1.889   4.078  0.2225 -0.4675  0.2333
   72poe    c23  424   2.204   1.879   3.937  0.2554  0.0460  0.2094
   72poe     o2  425   2.281   1.764   3.910 -0.3557 -0.3237 -0.0058
   72poe    c23  426   2.408   1.789   3.852 -0.0688  0.0768  0.7738
   72poe    c23  427   2.503   1.670   3.868  0.2117  0.1583 -0.2089
   72poe     o2  428   2.442   1.552   3.820  0.0967  0.1772 -0.1105
   72poe    c23  429   2.543   1.453   3.814  0.0893  0.1678 -0.0772
   72poe    c23  430   2.500   1.332   3.729  0.1500  0.5704 -0.6807
   72poe     o2  431   2.378   1.290   3.786  0.1983  0.0394 -0.9624
   72poe    c31  432   2.341   1.168   3.726 -0.4581  0.0097 -0.5052
   73poe    c31  433   0.825   1.863   2.936 -0.5383 -0.5198 -0.4023
   73poe     o2  434   0.827   1.781   2.821  0.7352 -0.5930 -0.3305
   73poe    c23  435   0.941   1.812   2.743  0.9434 -0.3440  0.0678
   73poe    c23  436   0.934   1.745   2.605 -0.2194 -0.0047 -0.0534
   73poe     o2  437   0.850   1.639   2.646  0.2820 -0.1007  0.7460
   73poe    c23  438   0.852   1.548   2.539  0.6219  0.1063  0.5743
   73poe    c23  439   0.794   1.425   2.612 -0.0045  0.4721  0.6989
   73poe     o2  440   0.680   1.475   2.676 -0.7802 -0.0222 -0.2731
   73poe    c23  441   0.634   1.382   2.772 -0.3486 -0.0816 -0.1252
   73poe    c23  442   0.554   1.458   2.880  0.3497  0.3276  0.1156
   73poe     o2  443   0.611   1.584   2.907  0.0816  0.4219  0.2499
   73poe    c31  444   0.521   1.657   2.987  0.0007  0.4448  0.1379
   74poe    c31  445   0.986   0.486   5.619  0.1675 -0.6045  0.4023
   74poe     o2  446   0.962   0.431   5.747 -0.7764 -0.2081  0.4029
   74poe    c23  447   1.014   0.300   5.746 -0.6786 -0.1704 -0.2834
   74poe    c23  448   0.986   0.260   5.892 -0.1960 -0.2667 -0.2172
   74poe     o2  449   0.860   0.288   5.948 -0.0809  0.1806 -0.1803
   74poe    c23  450   0.828   0.224   6.070 -0.8287 -0.4857 -0.7206
   74poe    c23  451   0.707   0.302   6.124  0.1540  0.0544  0.7505
   74poe     o2  452   0.711   0.434   6.074 -0.2567 -0.2891 -0.2243
   74poe    c23  453   0.589   0.488   6.031 -0.2562 -0.2590 -0.1882
   74poe    c23  454   0.547   0.452   5.888 -0.0718 -0.6258 -0.1496
   74poe     o2  455   0.656   0.485   5.805 -0.2610  0.2000 -0.0795
   74poe    c31  456   0.626   0.476   5.667 -0.7338  0.6374 -0.0082
   75poe    c31  457   1.760   1.023   4.975  0.6271 -0.7065  0.2703
   75poe     o2  458   1.834   1.059   4.861  0.1087  0.1142  0.1784
   75poe    c23  459   1.958   0.992   4.849  0.2929  0.4913 -0.0354
   75poe    c23  460   1.976   0.975   4.697 -0.0598 -0.6716  0.0408
   75poe     o2  461   1.994   1.105   4.644  0.3112 -0.7071  0.0726
   75poe    c23  462   2.021   1.120   4.506  0.7937 -0.1603  0.2255
   75poe    c23  463   2.047   1.269   4.477 -0.9161  0.0658 -0.2881
   75poe     o2  464   1.959   1.357   4.544 -0.2140  0.1090  0.6005
   75poe    c23  465   1.978   1.487   4.493  0.0024 -0.1979 -0.1255
   75poe    c23  466   1.926   1.596   4.590  0.2260  0.0819 -0.3183
   75poe     o2  467   1.954   1.547   4.719 -0.7571 -0.0578 -0.1528
   75poe    c31  468   1.954   1.660   4.803  0.5159 -0.0107 -0.2074
   76poe    c31  469   0.533   1.409   2.364  0.2794 -0.3596  0.4922
   76poe     o2  470   0.577   1.373   2.236  0.4644  0.0957  0.4237
   76poe    c23  471   0.689   1.288   2.252 -0.0792 -0.5910  0.6099
   76poe    c23  472   0.669   1.197   2.129  0.6433 -0.1252  0.1461
   76poe     o2  473   0.613   1.279   2.028  0.2453 -0.3342  0.1972
   76poe    c23  474   0.587   1.211   1.907 -0.0662 -0.0591  0.1073
   76poe    c23  475   0.563   1.320   1.802 -0.0754 -0.1591  0.0058
   76poe     o2  476   0.463   1.402   1.859  0.0632 -0.1166  0.1871
   76poe    c23  477   0.470   1.537   1.818 -0.2797 -0.0811  0.2437
   76poe    c23  478   0.553   1.609   1.926 -0.5384  0.5554  0.0207
   76poe     o2  479   0.521   1.569   2.058 -0.3673 -0.0557 -0.1195
   76poe    c31  480   0.578   1.675   2.132 -0.4922  0.1648 -0.3389
   77poe    c31  481   2.221   0.952   2.901 -0.2708  0.4669  0.2428
   77poe     o2  482   2.210   1.093   2.906  1.1300  0.5994 -0.0256
   77poe    c23  483   2.262   1.128   3.033  0.3246  0.2791  0.3961
   77poe    c23  484   2.309   1.273   3.021  0.5673  0.1754  0.0950
   77poe     o2  485   2.197   1.339   2.966  0.2988 -0.0913  0.3213
   77poe    c23  486   2.222   1.477   2.980 -0.7519  0.1276  0.1187
   77poe    c23  487   2.107   1.555   2.914 -0.7498  0.1622  0.1564
   77poe     o2  488   2.064   1.495   2.794 -0.4038  0.4233 -0.1025
   77poe    c23  489   1.941   1.554   2.760 -0.5568  0.2030  0.0606
   77poe    c23  490   1.905   1.493   2.623  0.1713 -0.1590  0.0272
   77poe     o2  491   1.851   1.363   2.631 -0.0875 -0.0653 -0.1848
   77poe    c31  492   1.766   1.332   2.523 -0.5542 -0.8176  0.3834
   78poe    c31  493   1.174   1.385   2.695 -0.2916 -0.3910 -0.2190
   78poe     o2  494   1.309   1.387   2.736 -0.4377  0.0900  0.2456
   78poe    c23  495   1.372   1.272   2.788 -0.1202  0.3213  0.3803
   78poe    c23  496   1.503   1.303   2.862  0.2702 -0.0154 -0.1674
   78poe     o2  497   1.481   1.394   2.966  0.0524 -0.3424  0.0734
   78poe    c23  498   1.601   1.415   3.037 -0.2258  0.0512  0.4376
   78poe    c23  499   1.589   1.494   3.169  0.4320  0.2484  0.3806
   78poe     o2  500   1.517   1.610   3.132  0.3898  0.1020 -0.0093
   78poe    c23  501   1.477   1.697   3.235  0.1317  0.4717 -0.4218
   78poe    c23  502   1.436   1.825   3.159 -0.5860  0.6694  0.2789
   78poe     o2  503   1.372   1.783   3.041 -0.2592  0.3278  0.2217
   78poe    c31  504   1.293   1.885   2.983 -0.3106 -0.1215 -0.5105
   79poe    c31  505   2.079   1.087   0.561  0.3585 -0.1304 -0.2816
   79poe     o2  506   2.217   1.058   0.559  0.3225 -0.3542  0.2309
   79poe    c23  507   2.212   0.921   0.526 -0.4281 -0.2389 -0.1648
   79poe    c23  508   2.355   0.889   0.479 -0.1487  0.8365 -0.0688
   79poe     o2  509   2.435   0.939   0.585  0.0450 -0.1663  0.2707
   79poe    c23  510   2.574   0.947   0.561 -0.0506 -0.1147 -0.2995
   79poe    c23  511   2.656   1.010   0.675 -0.2204 -0.2018 -0.1276
   79poe     o2  512   2.589   1.130   0.703  0.1796  0.0746 -0.3478
   79poe    c23  513   2.665   1.219   0.782  0.0896 -0.3531  0.2252
   79poe    c23  514   2.589   1.247   0.913 -0.1866 -0.2529  0.0434
   79poe     o2  515   2.450   1.263   0.891 -0.0952  0.0498 -0.3233
   79poe    c31  516   2.408   1.363   0.981 -0.5188 -0.5637  0.1713
   80poe    c31  517   1.271   1.337   4.304  0.0664 -0.1242  0.2653
   80poe     o2  518   1.202   1.431   4.383 -0.2074 -0.0255 -0.0848
   80poe    c23  519   1.089   1.383   4.452  0.0217 -0.4770 -0.0243
   80poe    c23  520   1.056   1.481   4.567 -0.1634 -0.2913 -0.2358
   80poe     o2  521   1.064   1.606   4.502  0.2047 -0.1813  0.0200
   80poe    c23  522   1.046   1.704   4.601 -0.0496 -0.2768  0.0699
   80poe    c23  523   1.073   1.830   4.516  0.6495 -0.5631 -0.1461
   80poe     o2  524   1.190   1.789   4.449  0.9612  0.0124  0.0413
   80poe    c23  525   1.251   1.873   4.354 -0.1151  0.4173 -0.3119
   80poe    c23  526   1.382   1.804   4.311 -0.1413 -0.2004  0.5757
   80poe     o2  527   1.357   1.666   4.293 -0.0548 -0.1139 -0.2549
   80poe    c31  528   1.477   1.608   4.246  0.3270  0.6120 -0.1916
   81poe    c31  529   1.100   1.165   0.977 -0.0351 -0.1893 -0.2880
   81poe     o2  530   1.183   1.172   1.091  0.3011  0.1265 -0.5496
   81poe    c23  531   1.178   1.294   1.162 -0.4017 -0.2382  0.0420
   81poe    c23  532   1.311   1.303   1.240 -0.1282 -0.5778 -0.3740
   81poe     o2  533   1.331   1.189   1.321 -0.0838 -0.3004  0.0118
   81poe    c23  534   1.433   1.218   1.413  0.0774 -0.3653 -0.1447
   81poe    c23  535   1.493   1.096   1.484  0.7616 -0.2174 -0.4686
   81poe     o2  536   1.380   1.041   1.547  0.6175  0.0971 -0.4557
   81poe    c23  537   1.415   0.924   1.618  0.0615  0.2451  0.0794
   81poe    c23  538   1.293   0.854   1.679 -0.1287  1.0167  0.5946
   81poe     o2  539   1.330   0.772   1.787 -0.1022  0.3455  0.0782
   81poe    c31  540   1.232   0.673   1.812 -0.0635  0.1810 -0.4203
   82poe    c31  541   1.624   0.150   1.296  0.2685  0.1413 -0.2111
   82poe     o2  542   1.571   0.278   1.325 -0.1497 -0.0471 -0.1468
   82poe    c23  543   1.530   0.259   1.459 -0.0284  0.1170 -0.0872
   82poe    c23  544   1.508   0.397   1.523  0.2520  0.2059 -0.1770
   82poe     o2  545   1.629   0.469   1.532  0.0793  0.4647  0.1143
   82poe    c23  546   1.599   0.605   1.553 -0.4375  0.2990  0.4905
   82poe    c23  547   1.720   0.696   1.523 -0.2684 -0.0398  0.1426
   82poe     o2  548   1.768   0.655   1.397  0.0478  0.2104  0.1802
   82poe    c23  549   1.895   0.707   1.365 -0.1632  0.3681 -0.4227
   82poe    c23  550   1.908   0.694   1.212 -0.3012  0.1782 -0.4193
   82poe     o2  551   1.887   0.560   1.172  0.3979 -0.1080  0.1554
   82poe    c31  552   1.898   0.537   1.034  0.2686  0.7199  0.0029
   83poe    c31  553   1.922   1.933   2.430  0.4950 -0.0364  0.0744
   83poe     o2  554   1.914   1.912   2.291 -0.1693 -0.0938  0.1182
   83poe    c23  555   1.953   1.780   2.262 -0.0562  0.0309 -0.2999
   83poe    c23  556   1.869   1.735   2.141 -0.3163 -0.2430 -0.0158
   83poe     o2  557   1.852   1.824   2.034  0.1564  0.1429  0.2269
   83poe    c23  558   1.906   1.772   1.914  0.5678  0.1446  0.4102
   83poe    c23  559   1.949   1.890   1.825 -0.2226  0.1928  0.0802
   83poe     o2  560   1.851   1.991   1.831 -0.0048  0.4312 -0.3760
   83poe    c23  561   1.869   2.111   1.759 -0.0017  0.3131 -0.5741
   83poe    c23  562   1.741   2.195   1.776 -0.2943 -0.2020 -0.1903
   83poe     o2  563   1.725   2.197   1.916 -0.2796  0.6110 -0.1942
   83poe    c31  564   1.661   2.319   1.947 -0.9331  0.2745 -0.1860
   84poe    c31  565   0.509   0.551   1.646 -1.0490  0.0938 -0.4093
   84poe     o2  566   0.559   0.541   1.515  0.5976  0.0519  0.1932
   84poe    c23  567   0.494   0.635   1.432  0.6706  0.5675  0.7130
   84poe    c23  568   0.595   0.683   1.326 -0.0212 -0.1906 -0.3092
   84poe     o2  569   0.687   0.579   1.302  0.0047 -0.1729 -0.2860
   84poe    c23  570   0.790   0.626   1.218  0.1230 -0.0014 -0.0487
   84poe    c23  571   0.903   0.525   1.194  0.0874  0.0566 -0.4663
   84poe     o2  572   0.970   0.502   1.316 -0.6626 -0.0174 -0.0669
   84poe    c23  573   1.044   0.382   1.325 -0.1063  0.2893 -0.4964
   84poe    c23  574   1.124   0.380   1.457 -0.2062 -0.4642 -0.4412
   84poe     o2  575   1.055   0.400   1.578 -0.0022 -0.6711 -0.2915
   84poe    c31  576   1.098   0.352   1.704 -0.6339 -0.0860  0.1530
   85poe    c31  577   0.508   0.692   4.043 -0.3533 -0.3265 -0.0075
   85poe     o2  578   0.460   0.823   4.024  0.3121 -0.0859 -0.0568
   85poe    c23  579   0.549   0.890   3.936 -0.2379  0.1164 -0.4643
   85poe    c23  580   0.517   1.039   3.958  0.9091  0.3392 -0.2262
   85poe     o2  581   0.551   1.081   4.088  0.4263  0.3809 -0.1085
   85poe    c23  582   0.506   1.213   4.102  0.1815  0.2988 -0.1121
   85poe    c23  583   0.501   1.281   4.240  0.3364 -0.4890  0.2817
   85poe     o2  584   0.404   1.218   4.322 -0.2129 -0.0353 -0.0183
   85poe    c23  585   0.370   1.296   4.435  0.6498 -0.2204  0.3739
   85poe    c23  586   0.241   1.230   4.486  0.3931  0.2094  0.2866
   85poe     o2  587   0.260   1.091   4.474  0.1356  0.2297 -0.3853
   85poe    c31  588   0.150   1.032   4.539  0.5350 -0.4385 -0.3011
   86poe    c31  589   1.358   0.893   5.959  0.3165  0.5175  0.1554
   86poe     o2  590   1.246   0.921   5.878  0.6955  0.5247 -0.3721
   86poe    c23  591   1.253   0.830   5.771  0.0704  0.4590 -0.3654
   86poe    c23  592   1.140   0.851   5.668 -0.6239 -0.2727  0.2372
   86poe     o2  593   1.036   0.902   5.748 -0.6648 -0.7220  0.4722
   86poe    c23  594   0.930   0.928   5.659  0.2165  0.4338 -0.2665
   86poe    c23  595   0.843   1.025   5.741 -0.5965  0.0263 -0.6361
   86poe     o2  596   0.931   1.097   5.824 -0.6684 -0.1461 -0.4095
   86poe    c23  597   0.872   1.184   5.919 -0.4230  0.0939 -0.4738
   86poe    c23  598   0.987   1.226   6.013 -0.4996 -0.2946 -0.2022
   86poe     o2  599   1.052   1.113   6.066  0.2363  0.3086  0.1867
   86poe    c31  600   1.139   1.121   6.177  0.0880 -0.0825  0.3303
   87poe    c31  601   1.375   1.958   1.806  0.1370  0.0271  0.4359
   87poe     o2  602   1.395   1.819   1.804 -0.1634 -0.0125  0.1264
   87poe    c23  603   1.423   1.770   1.933 -0.1143  0.2450  0.2129
   87poe    c23  604   1.471   1.624   1.931  0.1580  0.3420 -0.3643
   87poe     o2  605   1.381   1.537   1.865  0.2462  0.2634 -0.3808
   87poe    c23  606   1.455   1.419   1.843 -0.1307  0.1003 -0.7701
   87poe    c23  607   1.367   1.297   1.807  0.3199 -0.5586  0.3224
   87poe     o2  608   1.287   1.348   1.703  0.4031  0.5345  0.7707
   87poe    c23  609   1.173   1.265   1.696  0.6756  0.2126  0.0136
   87poe    c23  610   1.086   1.332   1.587  0.3652 -0.0792  0.0814
   87poe     o2  611   1.092   1.470   1.616  0.6832 -0.0031 -0.3335
   87poe    c31  612   0.997   1.547   1.545 -0.0271  0.0268  0.6270
   88poe    c31  613   0.087   1.799   6.104 -0.0864  0.0971  0.1444
   88poe     o2  614   0.103   1.890   6.211 -0.2462  0.4885 -0.1605
   88poe    c23  615   0.135   2.014   6.152  0.0004  0.1116 -0.8285
   88poe    c23  616   0.141   2.104   6.277 -0.3499 -0.3565 -0.4713
   88poe     o2  617   0.030   2.071   6.358 -0.2564  0.1831 -0.1236
   88poe    c23  618   0.003   2.161   6.464 -0.1235  0.1542 -0.0639
   88poe    c23  619  -0.077   2.071   6.561 -0.0593  0.1451 -0.0198
   88poe     o2  620  -0.026   1.941   6.584  0.2244  0.1619 -0.5393
   88poe    c23  621   0.087   1.917   6.664 -0.1298 -0.2829 -0.1686
   88poe    c23  622   0.162   1.786   6.628  0.2136 -0.2833  0.5321
   88poe     o2  623   0.160   1.795   6.488 -0.0984 -0.1679  0.5411
   88poe    c31  624   0.255   1.701   6.442 -0.1524 -0.2386  0.5749
   89poe    c31  625   1.945   1.047   3.430  0.0409  0.2903  0.0831
   89poe     o2  626   1.925   0.918   3.484 -0.3492  0.4664  0.3603
   89poe    c23  627   1.805   0.861   3.437  0.1569 -0.1613 -0.1854
   89poe    c23  628   1.776   0.723   3.498  0.5790 -0.1316  0.0832
   89poe     o2  629   1.784   0.727   3.638  0.4294  0.3399  0.0785
   89poe    c23  630   1.790   0.595   3.690 -0.2600  0.1667 -0.2745
   89poe    c23  631   1.817   0.626   3.838  0.5428  0.0707 -0.3994
   89poe     o2  632   1.941   0.693   3.842  0.2987  0.4913  0.2323
   89poe    c23  633   2.005   0.704   3.967  0.5978 -0.3161  0.1545
   89poe    c23  634   2.159   0.695   3.964  0.5735 -0.5849 -1.7857
   89poe     o2  635   2.219   0.808   3.904  0.4403  0.4114 -0.1358
   89poe    c31  636   2.355   0.830   3.930  0.5934 -0.3692 -0.2318
   90poe    c31  637   0.395   0.108   5.116 -0.0168 -0.0857  0.0889
   90poe     o2  638   0.443   0.024   5.220  0.1560  0.2651  0.2936
   90poe    c23  639   0.573  -0.021   5.188  0.0546  0.6563 -0.7143
   90poe    c23  640   0.672   0.009   5.302  0.0295 -0.0065 -0.5169
   90poe     o2  641   0.593   0.031   5.417 -0.1801 -0.7374 -0.5138
   90poe    c23  642   0.657   0.003   5.540  0.4082 -0.2833 -0.7130
   90poe    c23  643   0.558   0.039   5.652  0.1004 -0.0431 -1.0609
   90poe     o2  644   0.459  -0.061   5.653  0.1259 -0.0652 -0.2617
   90poe    c23  645   0.383  -0.079   5.771  0.3561  0.4129 -0.0397
   90poe    c23  646   0.310  -0.214   5.771  0.0850  0.5604  0.0777
   90poe     o2  647   0.235  -0.220   5.651  0.4683 -0.6598 -0.1103
   90poe    c31  648   0.228  -0.354   5.608 -0.0608 -0.6993  0.0955
   91poe    c31  649   0.230   0.594   6.153 -0.0053 -0.0164 -0.0073
   91poe     o2  650   0.236   0.734   6.170  0.0037 -0.0172 -0.0034
   91poe    c23  651   0.164   0.805   6.072 -0.1245  0.5008  0.4631
   91poe    c23  652   0.134   0.952   6.106 -0.4508  0.4771  0.2800
   91poe     o2  653   0.252   1.025   6.082 -0.2883  0.2417  0.3611
   91poe    c23  654   0.229   1.164   6.079  0.0764  0.2967 -0.0965
   91poe    c23  655   0.369   1.228   6.077  0.2143 -0.0017  0.0444
   91poe     o2  656   0.425   1.213   6.206  0.3284 -0.3976 -0.0498
   91poe    c23  657   0.564   1.231   6.205  0.2476  0.2078 -0.2727
   91poe    c23  658   0.599   1.248   6.354  0.0323 -0.1927 -0.1761
   91poe     o2  659   0.524   1.146   6.415 -0.1268 -0.0592 -0.1459
   91poe    c31  660   0.553   1.132   6.552  0.1312 -0.4790 -0.2391
   92poe    c31  661   0.324   0.209   4.740 -0.2927 -0.1550 -0.0918
   92poe     o2  662   0.378   0.337   4.757  0.0886 -0.3539  0.1968
   92poe    c23  663   0.515   0.358   4.731  0.0745  0.0990  0.4674
   92poe    c23  664   0.529   0.510   4.711 -0.0781  0.0183 -0.2652
   92poe     o2  665   0.467   0.563   4.826  0.0910  0.6347 -0.4537
   92poe    c23  666   0.463   0.703   4.811  0.1954  0.6331 -0.4996
   92poe    c23  667   0.376   0.783   4.910  0.3325 -0.0704  0.1994
   92poe     o2  668   0.253   0.713   4.917  0.1853  0.1322 -0.3449
   92poe    c23  669   0.169   0.795   4.994  0.4448  0.0009  0.0806
   92poe    c23  670   0.033   0.723   5.000  0.0795  0.6860  0.1847
   92poe     o2  671   0.042   0.620   5.095 -0.1455  0.1359 -0.3821
   92poe    c31  672  -0.083   0.567   5.134  0.0196  0.0365  0.0196
   93poe    c31  673   0.589   0.394   0.744 -0.5517  0.2058  0.1615
   93poe     o2  674   0.550   0.441   0.617 -0.0108  0.2504  0.0114
   93poe    c23  675   0.659   0.516   0.567  0.1511 -0.0738 -0.1267
   93poe    c23  676   0.655   0.509   0.413 -0.1056  0.3165 -0.1412
   93poe     o2  677   0.523   0.538   0.376 -0.2706 -0.0028  0.1955
   93poe    c23  678   0.498   0.489   0.247 -0.1846  0.1156  0.1336
   93poe    c23  679   0.350   0.508   0.208 -0.0273 -0.1047 -0.6079
   93poe     o2  680   0.274   0.442   0.307 -0.0705  0.7071 -0.0866
   93poe    c23  681   0.135   0.425   0.287  0.0676  0.5029 -0.9217
   93poe    c23  682   0.065   0.333   0.388  0.1986  0.5061 -0.8268
   93poe     o2  683   0.070   0.382   0.520 -0.7776  0.2828 -0.6956
   93poe    c31  684  -0.032   0.326   0.600 -0.1265 -0.1881 -0.1862
   94poe    c31  685   1.442   2.011   6.164  0.0897 -0.5692  0.1664
   94poe     o2  686   1.353   1.931   6.089 -0.2035  0.2201 -0.3418
   94poe    c23  687   1.424   1.819   6.041  0.4163  0.8005 -0.8033
   94poe    c23  688   1.302   1.740   5.991  0.1064  0.2518  0.7681
   94poe     o2  689   1.199   1.759   6.085 -0.6308  0.2258 -0.0314
   94poe    c23  690   1.082   1.686   6.052 -0.1401 -0.5712 -0.0406
   94poe    c23  691   0.964   1.762   6.115  0.1162 -0.0528 -0.1728
   94poe     o2  692   0.990   1.900   6.106 -0.2340  0.0344  0.1194
   94poe    c23  693   0.917   1.974   6.202  0.4095  0.3530  0.3659
   94poe    c23  694   0.980   2.115   6.189  0.0809  0.4330 -0.4223
   94poe     o2  695   1.120   2.107   6.181  0.1019  0.4087 -0.0634
   94poe    c31  696   1.187   2.229   6.205  0.6056  0.3141 -0.9189
   95poe    c31  697   0.088   1.903   2.082  0.0535  0.0691 -0.8118
   95poe     o2  698   0.068   2.042   2.088  0.1917  0.0486  0.1561
   95poe    c23  699   0.009   2.098   1.973  0.2653  0.4185  0.2954
   95poe    c23  700   0.043   2.248   1.970  0.0118  0.4798  0.4536
   95poe     o2  701   0.181   2.253   1.999  0.1557  0.2428 -0.1732
   95poe    c23  702   0.240   2.377   1.968  0.2698  0.0776 -0.6254
   95poe    c23  703   0.373   2.369   2.045  0.0434 -0.6680 -0.3005
   95poe     o2  704   0.349   2.291   2.159 -0.3647 -0.3116 -0.1415
   95poe    c23  705   0.467   2.241   2.217  0.1034 -0.3443 -1.1070
   95poe    c23  706   0.429   2.142   2.329  0.0308  0.2807 -0.5682
   95poe     o2  707   0.336   2.054   2.271 -0.3909  0.4783 -0.1913
   95poe    c31  708   0.314   1.943   2.356 -0.2589  0.0721 -0.6781
   96poe    c31  709   0.113   1.042   1.689 -0.0954 -0.1397  0.2428
   96poe     o2  710   0.171   0.921   1.733 -0.3050 -0.3671 -0.1066
   96poe    c23  711   0.205   0.937   1.869 -0.7598 -0.3282  0.0043
   96poe    c23  712   0.300   0.819   1.898 -0.2460  0.0546 -0.0933
   96poe     o2  713   0.230   0.710   1.841  0.3789 -0.3238 -0.1428
   96poe    c23  714   0.265   0.588   1.902  0.8316 -0.3717 -0.4935
   96poe    c23  715   0.184   0.469   1.848 -0.0809  0.0934 -0.1642
   96poe     o2  716   0.237   0.431   1.723  0.1392  0.4885 -0.1931
   96poe    c23  717   0.163   0.323   1.671  0.4820 -0.0502  0.4273
   96poe    c23  718   0.213   0.313   1.526  0.2620 -0.1436  0.3573
   96poe     o2  719   0.176   0.434   1.464 -0.3788 -0.6735 -0.3027
   96poe    c31  720   0.194   0.419   1.325  0.0739 -0.8069 -0.2325
   97poe    c31  721   1.611   2.084   5.306  0.4827 -0.2859  0.3575
   97poe     o2  722   1.741   2.103   5.357  0.5499 -0.4000  0.2302
   97poe    c23  723   1.770   1.985   5.429  0.2027 -0.3575  0.4435
   97poe    c23  724   1.840   2.002   5.565 -0.6881  0.5806  0.8012
   97poe     o2  725   1.955   2.080   5.545 -0.5631  0.2215  0.0927
   97poe    c23  726   2.071   2.032   5.610 -0.5164  0.9214  0.5416
   97poe    c23  727   2.167   2.140   5.661  0.3111  0.5336 -0.1698
   97poe     o2  728   2.180   2.231   5.554 -0.3017  0.2332 -0.5033
   97poe    c23  729   2.286   2.322   5.569 -0.1934  0.0315 -0.0152
   97poe    c23  730   2.262   2.421   5.454  0.5011  0.0202 -0.1747
   97poe     o2  731   2.124   2.448   5.450  0.5018 -0.0220 -0.5132
   97poe    c31  732   2.108   2.584   5.414  0.9034  0.4309  0.9542
   98poe    c31  733   1.203   0.556   5.118  0.5858  0.5114  0.5877
   98poe     o2  734   1.187   0.619   4.993  0.1823 -0.0457  0.3541
   98poe    c23  735   1.127   0.538   4.895  0.0019 -0.2042  0.5961
   98poe    c23  736   1.134   0.603   4.756  0.5791  0.1496  0.7868
   98poe     o2  737   1.133   0.740   4.790  0.6871  0.2339  0.4541
   98poe    c23  738   1.126   0.822   4.676  0.6227 -0.6261 -0.1677
   98poe    c23  739   1.174   0.963   4.714 -0.0735 -0.3485 -0.3080
   98poe     o2  740   1.185   0.961   4.855 -0.4013 -0.3581 -0.2806
   98poe    c23  741   1.207   1.091   4.907 -0.0413 -0.6618  0.3274
   98poe    c23  742   1.253   1.082   5.054  0.0773 -0.2329  0.3169
   98poe     o2  743   1.145   1.020   5.121 -0.0675 -0.2381  0.0817
   98poe    c31  744   1.160   1.007   5.260  0.1141 -0.1870  0.0679
   99poe    c31  745   2.088   0.455   2.997 -0.1516  0.0262 -0.1012
   99poe     o2  746   2.164   0.423   2.882 -0.7645 -0.0343 -0.4930
   99poe    c23  747   2.075   0.381   2.781 -0.5451 -0.2835 -0.5819
   99poe    c23  748   2.168   0.328   2.671  0.2063 -0.4175  0.1071
   99poe     o2  749   2.279   0.412   2.645 -0.5916  0.5499 -0.2737
   99poe    c23  750   2.317   0.420   2.510 -0.0276  1.1021 -0.0851
   99poe    c23  751   2.422   0.533   2.504  0.3295  0.7810  0.0898
   99poe     o2  752   2.525   0.499   2.595  0.1772  0.4502  0.1397
   99poe    c23  753   2.639   0.577   2.568  0.4017 -0.1889 -0.7966
   99poe    c23  754   2.758   0.513   2.642  0.1660 -0.2665 -0.4810
   99poe     o2  755   2.707   0.472   2.766  0.1086  0.9044 -0.1032
   99poe    c31  756   2.815   0.435   2.850  0.2747  0.1393 -0.6438
  100poe    c31  757   1.485   1.105   3.522 -0.2454 -0.5182  0.6785
  100poe     o2  758   1.466   0.966   3.532 -0.3338 -0.5702 -0.1223
  100poe    c23  759   1.448   0.930   3.667 -0.2134 -0.4192 -0.0655
  100poe    c23  760   1.427   0.777   3.676 -0.6701 -0.3447  0.2300
  100poe     o2  761   1.354   0.721   3.569  0.4236 -0.0354 -0.6978
  100poe    c23  762   1.373   0.582   3.570 -0.2438 -0.1327  0.9572
  100poe    c23  763   1.263   0.521   3.482  0.3770 -0.2214  0.2248
  100poe     o2  764   1.248   0.593   3.362 -0.2533  0.1401  0.5122
  100poe    c23  765   1.170   0.519   3.271 -0.2146  0.2016  0.4291
  100poe    c23  766   1.177   0.608   3.145  1.2458  0.0653  0.3985
  100poe     o2  767   1.187   0.747   3.168  0.2327  0.1754  0.2242
  100poe    c31  768   1.162   0.818   3.049  0.7223 -0.2465 -0.1336
  101poe    c31  769   2.012   0.239   4.271  0.5049 -0.0317  0.4336
  101poe     o2  770   1.970   0.372   4.251 -0.3068 -0.3221  0.1419
  101poe    c23  771   1.982   0.459   4.362  0.3335 -0.1548 -0.0498
  101poe    c23  772   1.898   0.587   4.355 -0.1398 -0.3828  1.1893
  101poe     o2  773   1.757   0.582   4.350 -0.1294 -0.0017  0.1438
  101poe    c23  774   1.687   0.541   4.465 -0.2626 -0.1569  0.0084
  101poe    c23  775   1.533   0.540   4.450 -0.2315  0.5010 -0.3790
  101poe     o2  776   1.500   0.467   4.334  0.1013 -0.7456  0.2840
  101poe    c23  777   1.362   0.460   4.303  0.0909 -0.1829  0.1896
  101poe    c23  778   1.367   0.405   4.160 -0.1222  0.4347 -0.0601
  101poe     o2  779   1.463   0.485   4.095 -0.3261  0.5982 -0.1607
  101poe    c31  780   1.437   0.498   3.957 -0.1182 -0.7802 -0.3408
  102poe    c31  781   1.860   1.526   0.909 -0.0367  0.2426 -0.2133
  102poe     o2  782   1.931   1.410   0.946  0.3591  0.4497 -0.3135
  102poe    c23  783   1.888   1.299   0.871  0.1278  0.0468  0.4069
  102poe    c23  784   1.977   1.189   0.932  0.2031 -0.1719 -0.0891
  102poe     o2  785   2.000   1.226   1.066 -0.2760 -0.2929  0.0294
  102poe    c23  786   2.081   1.134   1.135 -0.2929 -0.0785  0.3367
  102poe    c23  787   2.127   1.193   1.270 -0.0854 -0.0543  0.2562
  102poe     o2  788   2.182   1.323   1.266 -0.3436  0.0430 -0.2276
  102poe    c23  789   2.187   1.375   1.397 -0.3603  0.1850 -0.2831
  102poe    c23  790   2.300   1.479   1.416  0.0835 -0.3463  0.0239
  102poe     o2  791   2.298   1.559   1.300 -0.0451 -0.0592  0.2242
  102poe    c31  792   2.417   1.632   1.315 -0.1932  0.1332  0.4674
  103poe    c31  793   0.951   1.727   3.632  0.4246 -0.0880  0.5902
  103poe     o2  794   1.056   1.641   3.669  0.5171  0.0046  0.5425
  103poe    c23  795   1.187   1.689   3.652  0.3704  0.2975  0.2160
  103poe    c23  796   1.278   1.570   3.617  0.1457  0.1372  0.1803
  103poe     o2  797   1.248   1.483   3.724 -0.2750  0.2707  0.1723
  103poe    c23  798   1.338   1.377   3.751 -0.2907  0.1384 -0.2843
  103poe    c23  799   1.263   1.274   3.836 -0.3523  0.1233 -0.3571
  103poe     o2  800   1.126   1.307   3.837 -0.4011 -0.0615 -0.6614
  103poe    c23  801   1.046   1.205   3.892 -0.0643  0.1617  0.2638
  103poe    c23  802   0.896   1.243   3.891 -0.0496  0.2272  0.5041
  103poe     o2  803   0.852   1.260   3.758  0.2238 -0.0510  0.3750
  103poe    c31  804   0.715   1.292   3.771  0.1013 -0.1229 -0.6617
  104poe    c31  805   0.835   0.478   4.409 -0.5089 -0.5244  0.1162
  104poe     o2  806   0.813   0.439   4.276 -0.2400 -0.4017  0.0352
  104poe    c23  807   0.897   0.495   4.178 -0.4370 -0.4460 -0.1619
  104poe    c23  808   1.010   0.395   4.148 -0.3152 -0.2256 -0.4445
  104poe     o2  809   0.940   0.273   4.132 -0.6809 -0.0357 -0.3070
  104poe    c23  810   1.023   0.163   4.105 -0.7296 -0.0647 -0.3382
  104poe    c23  811   0.954   0.045   4.177 -0.2128 -0.0509  0.1956
  104poe     o2  812   0.816   0.076   4.180 -0.1721  0.1845 -0.1991
  104poe    c23  813   0.753   0.034   4.299  0.3513  0.1727  0.0749
  104poe    c23  814   0.614   0.099   4.305  0.3678  0.1803  0.3957
  104poe     o2  815   0.646   0.236   4.296  0.1259  0.1935 -0.3754
  104poe    c31  816   0.526   0.310   4.298  0.1406  0.2160 -0.3229
  105poe    c31  817   0.417   1.225   5.532  0.1340 -0.3088  0.0865
  105poe     o2  818   0.461   1.271   5.406  0.2753 -0.7806 -0.0374
  105poe    c23  819   0.434   1.184   5.298  0.5698 -0.4360 -0.3902
  105poe    c23  820   0.492   1.243   5.168 -0.2695 -0.3349 -0.7237
  105poe     o2  821   0.481   1.381   5.192  0.2018 -0.3990 -0.1289
  105poe    c23  822   0.458   1.441   5.067 -0.4758 -0.1161  0.1232
  105poe    c23  823   0.394   1.581   5.076 -0.0195  0.1616 -0.8297
  105poe     o2  824   0.439   1.641   5.195 -0.4783  0.2690 -0.7099
  105poe    c23  825   0.483   1.770   5.161  0.2560  0.1171 -0.3554
  105poe    c23  826   0.513   1.857   5.285  0.6459  0.1682 -0.4840
  105poe     o2  827   0.610   1.794   5.366  0.2067  0.1132  0.0035
  105poe    c31  828   0.700   1.871   5.442  0.5655 -0.1976 -0.1046
  106poe    c31  829   0.919   0.750   2.248 -0.1214 -0.1681  0.2439
  106poe     o2  830   1.050   0.722   2.293 -0.0139 -0.3405 -0.1663
  106poe    c23  831   1.073   0.584   2.311  0.3081 -0.2771 -0.0856
  106poe    c23  832   1.204   0.558   2.388  0.4341 -0.0036 -0.2071
  106poe     o2  833   1.293   0.656   2.338  0.0007  0.2786 -0.4349
  106poe    c23  834   1.416   0.677   2.403  0.0863 -0.1048 -0.4715
  106poe    c23  835   1.487   0.758   2.294  0.4649 -0.1921 -0.2919
  106poe     o2  836   1.389   0.849   2.250  0.2841 -0.1590  0.1721
  106poe    c23  837   1.433   0.945   2.156  0.5105 -0.0156  0.4252
  106poe    c23  838   1.324   1.033   2.093  0.2178 -0.1952  0.6796
  106poe     o2  839   1.204   0.958   2.101  0.1746 -0.1973  0.0164
  106poe    c31  840   1.104   1.003   2.013 -0.1740 -0.3377  0.3415
  107poe    c31  841   1.920   1.886   3.174 -0.3385 -0.1176 -0.0720
  107poe     o2  842   2.016   1.979   3.218 -0.1521 -0.3166 -0.0558
  107poe    c23  843   2.049   1.962   3.354 -0.8806  0.1843  0.1901
  107poe    c23  844   2.199   1.989   3.377 -0.7858  0.2072 -0.4521
  107poe     o2  845   2.228   2.112   3.313  0.2212  0.1162 -0.1948
  107poe    c23  846   2.359   2.161   3.330  0.3678  0.0131 -1.0099
  107poe    c23  847   2.354   2.303   3.270  0.0222  0.3213 -0.2701
  107poe     o2  848   2.255   2.301   3.169 -0.0606  0.4298 -0.1911
  107poe    c23  849   2.323   2.322   3.048  0.1413 -0.4171 -0.2340
  107poe    c23  850   2.227   2.276   2.937  0.0874 -0.0216 -0.3535
  107poe     o2  851   2.138   2.174   2.977  0.5178 -0.3427 -0.2038
  107poe    c31  852   2.107   2.104   2.859  0.2807  0.5317 -0.6725
  108poe    c31  853   0.384   0.803   3.652  0.1087  0.6179 -0.1671
  108poe     o2  854   0.356   0.926   3.589  0.3260  0.4346 -0.6272
  108poe    c23  855   0.245   0.915   3.503  0.2928  0.3444 -0.5726
  108poe    c23  856   0.251   1.023   3.393 -0.9009  0.8139 -0.1882
  108poe     o2  857   0.367   1.005   3.314 -0.8075  0.4758  0.0228
  108poe    c23  858   0.361   1.085   3.198  0.1041  0.4030 -0.0762
  108poe    c23  859   0.485   1.052   3.112  0.3661 -0.2574  0.5395
  108poe     o2  860   0.592   1.048   3.203  0.2733  0.0426  0.6644
  108poe    c23  861   0.720   1.041   3.143 -0.0849  0.0302 -0.1101
  108poe    c23  862   0.768   0.898   3.115  0.5290  0.2109  0.0045
  108poe     o2  863   0.772   0.817   3.231  0.2181  0.3512  0.1154
  108poe    c31  864   0.802   0.687   3.184  0.3209  0.1957  0.6056
  109lim     li  865   0.404   0.467   0.481 -1.1289 -0.3735 -0.8041
  110lim     li  866   0.179   1.992   4.478 -0.1706 -0.4455  0.5354
  111lim     li  867   1.608   0.548   4.182  0.1194  0.2873 -0.5574
  112lim     li  868   1.590   1.876   0.761 -0.4293  0.2570  0.3321
  113lim     li  869   0.699   2.192   3.584 -1.0810 -0.5900  0.3180
  114lim     li  870   1.759   1.394   0.086 -0.7278 -0.7357 -0.8592
  115lim     li  871   2.124   2.147   3.166  0.0618 -1.0574  0.0583
  116lim     li  872   2.147   2.199   1.117  0.9526 -0.5815  0.0849
  117lim     li  873   1.919   0.833   3.696  0.9841 -0.1482  0.9500
  118lim     li  874   1.211   0.134   0.455 -1.1774  0.4342  0.0749
  119lim     li  875   0.789   1.919   1.308  0.4689  0.9142  0.7887
  120lim     li  876   0.028   1.884   0.078 -0.8509 -0.2711  1.2648
  121lim     li  877   0.271   0.423   2.754 -1.4440  0.0750 -0.3425
  122lim     li  878   0.782   0.269   4.200  0.5773  0.4878  0.6785
  123lim     li  879   1.224   1.623   4.409 -1.3836  0.7188 -0.0085
  124lim     li  880   0.706   1.646   2.756 -0.8354  0.0263 -2.2026
  125lim     li  881   1.780   2.005   1.998 -0.9361 -0.2834  0.3934
  126lim     li  882   0.020   1.441   3.816 -0.5983  0.9851  1.1029
  127lim     li  883   0.972   1.696   5.098  0.0756  0.1101  0.5918
  128lim     li  884   2.002   1.391   1.102  1.5361  0.8888 -0.1327
  129lim     li  885   1.953   1.363   4.711 -0.2706 -0.4502 -0.5150
  130lim     li  886   2.121   1.307   2.808 -0.6117  0.2081 -0.4125
  131lim     li  887   0.827   0.454   5.907  0.8367 -0.8699  0.3618
  132lim     li  888   0.415   0.030   5.399 -0.4985 -1.0749  1.1598
  133lim     li  889   0.387   1.082   0.002 -0.0661  1.0692 -0.3318
  134lim     li  890   0.424   1.446   5.344 -0.3207  0.2100 -0.5033
  135lim     li  891   1.941   0.923   2.294 -0.3028 -0.0893 -1.4120
  136lim     li  892   1.255   1.063   1.197 -0.2025  0.2202  0.4236
  137lim     li  893   1.264   0.788   3.360  0.1992 -1.0936  0.4263
  138lim     li  894   0.134   0.754   1.708  0.8050  0.4439  0.7178
  139lim     li  895   0.487   1.386   2.072 -0.3121 -0.7511 -0.3040
  140lim     li  896   1.842   0.228   5.932  0.4268  0.3521  0.8678
  141lim     li  897   2.040   2.259   5.438  1.4272 -1.4888  0.4716
  142lim     li  898   0.234   2.142   2.126 -0.7678 -0.6523  0.1716
  143lim     li  899   1.739   0.506   1.296 -0.2491  0.7074 -1.2040
  144lim     li  900   1.854   0.055   3.719 -0.8784 -1.1146 -0.7170
  145lim     li  901   1.072   1.477   3.745 -0.7059  0.2479  0.4449
  146lim     li  902   0.390   1.061   4.340 -0.7877  1.0196 -1.0793
  147lim     li  903   1.618   0.226   4.844 -0.3547 -0.0381 -0.8883
  148lim     li  904   0.990   2.203   2.137  1.5588  1.5246 -0.8644
  149lim     li  905   0.863   1.722   0.534 -1.0900  0.2369 -0.2339
  150lim     li  906   0.304   0.493   4.839 -0.0820 -1.2476  0.5190
  151lim     li  907   0.704   0.491   1.437 -0.2320  1.1896 -0.3739
  152lim     li  908   1.075   0.977   5.921  0.2604  0.6799 -0.6169
  153lim     li  909   1.171   1.945   6.109 -0.1378  1.7293  0.1693
  154lim     li  910   1.374   0.882   0.539 -0.4255 -0.2892  1.0819
  155lim     li  911   1.103   0.832   4.941  0.2073  0.9349  0.6263
  156lim     li  912   1.756   1.417   5.453 -0.7761 -0.5535  0.3943
  157lim     li  913   1.218   0.821   2.298  0.1019  0.7113 -0.1068
  158lim     li  914   1.410   1.602   2.992 -0.6929 -0.0231 -0.1146
  159lim     li  915   0.535   0.989   3.375 -0.2703  0.0223 -0.1437
  160lim     li  916   1.399   0.217   2.711 -0.2793  0.2865 -0.1894
  161lim     li  917   0.094   1.124   0.664 -0.0317  0.5195  0.2004
  162lim     li  918   1.239   1.536   1.717  0.6453 -0.1870 -0.8291
  163ntf    cn1  919   0.761   1.056   1.571  0.2859  0.0998  0.6362
  163ntf    sn2  920   0.872   0.913   1.592 -0.1186 -0.2749  0.2487
  163ntf    nn3  921   0.876   0.911   1.749  0.1244  0.5324  0.2542
  163ntf    sn2  922   0.776   0.841   1.848  0.1521 -0.3610 -0.3388
  163ntf    cn1  923   0.873   0.697   1.902  0.4290 -0.1865 -0.3680
  163ntf    fn4  924   0.641   1.041   1.623 -0.1389 -0.1008 -0.3714
  163ntf    fn4  925   0.807   1.172   1.613 -0.3021  0.5111  0.1492
  163ntf    fn4  926   0.731   1.082   1.445  0.3790 -0.1958  0.5500
  163ntf    on5  927   0.800   0.801   1.535  0.0286  0.1538 -0.7953
  163ntf    on5  928   0.997   0.963   1.541 -0.0984 -0.4979  0.0800
  163ntf    on5  929   0.656   0.780   1.798 -0.4141  0.1770  0.3293
  163ntf    on5  930   0.760   0.933   1.958 -0.8655 -0.2857 -0.5428
  163ntf    fn4  931   0.975   0.739   1.976  0.1914 -0.7066  0.2588
  163ntf    fn4  932   0.799   0.612   1.972  0.7999  0.0594  0.3385
  163ntf    fn4  933   0.929   0.632   1.802 -0.0036 -0.4322 -0.4546
  164ntf    cn1  934   0.419   2.119   1.716 -0.0940  0.0768  0.2684
  164ntf    sn2  935   0.399   1.977   1.828  0.4027 -0.1820  0.0345
  164ntf    nn3  936   0.256   1.921   1.792  0.5491 -0.5636  0.0427
  164ntf    sn2  937   0.218   1.841   1.663  0.0042 -0.4099  0.1049
  164ntf    cn1  938   0.043   1.821   1.705 -0.1143  0.1101 -0.1360
  164ntf    fn4  939   0.460   2.081   1.596  0.5956  0.6243  0.3240
  164ntf    fn4  940   0.314   2.199   1.722 -0.4083 -0.2599 -0.6229
  164ntf    fn4  941   0.511   2.205   1.755 -0.1928  0.4608 -0.3305
  164ntf    on5  942   0.506   1.893   1.779  0.1192 -0.6658  0.2360
  164ntf    on5  943   0.403   2.035   1.960 -0.3186 -0.1971  0.0690
  164ntf    on5  944   0.264   1.705   1.649 -0.1301 -0.3983 -0.4659
  164ntf    on5  945   0.200   1.918   1.542  0.1578 -0.4288  0.0694
  164ntf    fn4  946  -0.030   1.778   1.604 -0.7263  0.5142  0.1190
  164ntf    fn4  947   0.015   1.738   1.804  0.6669 -0.1544 -0.1382
  164ntf    fn4  948  -0.010   1.938   1.739 -0.3031 -0.0305  0.0586
  165ntf    cn1  949   0.206   0.285   3.852  0.0510 -0.2142  0.2210
  165ntf    sn2  950   0.302   0.160   3.943 -0.0297 -0.3324  0.1446
  165ntf    nn3  951   0.318   0.046   3.836 -0.5465  0.3272 -0.6484
  165ntf    sn2  952   0.243  -0.092   3.842 -0.1113  0.1209  0.2404
  165ntf    cn1  953   0.207  -0.109   3.664  0.0156 -0.5183  0.2731
  165ntf    fn4  954   0.245   0.284   3.725 -0.0227  0.1318  0.1964
  165ntf    fn4  955   0.078   0.253   3.847 -0.0296  0.1674 -0.2607
  165ntf    fn4  956   0.212   0.409   3.898 -0.2156 -0.0559 -0.1661
  165ntf    on5  957   0.427   0.224   3.975 -0.2661 -0.1246  0.6507
  165ntf    on5  958   0.221   0.127   4.057  0.6401 -0.0959  0.6974
  165ntf    on5  959   0.107  -0.104   3.887  0.0638 -0.0015  0.7407
  165ntf    on5  960   0.334  -0.202   3.861  0.0052  0.1679 -0.0313
  165ntf    fn4  961   0.135  -0.218   3.643  0.2202 -0.5890 -0.0544
  165ntf    fn4  962   0.133  -0.013   3.610  0.6874  0.0551  0.3520
  165ntf    fn4  963   0.314  -0.114   3.587 -0.2264 -0.1028 -0.0934
  166ntf    cn1  964   1.893   0.805   3.039 -0.2197 -0.1770  0.0735
  166ntf    sn2  965   1.744   0.900   2.999 -0.0115  0.0149 -0.2454
  166ntf    nn3  966   1.668   0.814   2.892  0.3770 -0.3050 -0.2631
  166ntf    sn2  967   1.606   0.840   2.750 -0.0204  0.0495 -0.0228
  166ntf    cn1  968   1.428   0.830   2.784  0.0592 -0.4885  0.2410
  166ntf    fn4  969   1.871   0.688   3.098  0.3985 -0.5175 -0.3575
  166ntf    fn4  970   1.956   0.774   2.927 -0.1552 -0.4539  0.1837
  166ntf    fn4  971   1.976   0.862   3.125  0.1201 -0.4192 -0.0913
  166ntf    on5  972   1.672   0.896   3.124  0.0754  0.0638 -0.1942
  166ntf    on5  973   1.798   1.029   2.963 -0.2460  0.0877 -0.3403
  166ntf    on5  974   1.628   0.735   2.655  0.1070  0.3193 -0.2937
  166ntf    on5  975   1.632   0.973   2.699 -0.1771 -0.0146 -0.2718
  166ntf    fn4  976   1.361   0.788   2.677  0.4259 -0.6471  0.0727
  166ntf    fn4  977   1.398   0.740   2.876 -0.2744 -0.0964  0.5200
  166ntf    fn4  978   1.379   0.949   2.816  0.1528 -0.4348  0.1852
  167ntf    cn1  979   2.107   1.310   1.969 -0.2267  0.0970  0.3211
  167ntf    sn2  980   1.931   1.276   1.936 -0.1536  0.1161 -0.0906
  167ntf    nn3  981   1.955   1.186   1.809  0.4772  0.3992 -0.1750
  167ntf    sn2  982   1.927   1.033   1.787 -0.0194  0.4673 -0.0154
  167ntf    cn1  983   1.787   1.042   1.671 -0.0177  0.7416  0.0030
  167ntf    fn4  984   2.132   1.365   2.086  0.5333  0.1901  0.1164
  167ntf    fn4  985   2.174   1.196   1.970  0.2416  0.3707  0.3204
  167ntf    fn4  986   2.157   1.382   1.870  0.0386 -0.1449  0.2758
  167ntf    on5  987   1.889   1.210   2.057 -0.1196 -0.2399 -0.2683
  167ntf    on5  988   1.879   1.407   1.908  0.0026  0.2316  0.1565
  167ntf    on5  989   1.885   0.952   1.898  0.1400  0.1262 -0.2042
  167ntf    on5  990   2.031   0.968   1.712 -0.2278  0.0933  0.0177
  167ntf    fn4  991   1.705   0.941   1.691  0.4727  0.3709  0.1472
  167ntf    fn4  992   1.714   1.151   1.694 -0.4816  0.3076  0.6103
  167ntf    fn4  993   1.814   1.047   1.542  0.0453 -0.1042 -0.0155
  168ntf    cn1  994   2.003   0.723   0.251  0.2178  0.0210 -0.2115
  168ntf    sn2  995   1.999   0.694   0.072  0.1983 -0.0463 -0.2004
  168ntf    nn3  996   1.851   0.734   0.035  0.0623  0.1405  0.5286
  168ntf    sn2  997   1.796   0.841  -0.066  0.1301 -0.3624 -0.0454
  168ntf    cn1  998   1.645   0.758  -0.124  0.0558 -0.1419 -0.1692
  168ntf    fn4  999   1.940   0.837   0.274 -0.0766 -0.2946  0.5831
  168ntf    fn4 1000   1.942   0.627   0.320  0.2038 -0.1201 -0.4195
  168ntf    fn4 1001   2.130   0.724   0.287  0.2365  0.0843 -0.2782
  168ntf    on5 1002   2.089   0.787   0.008 -0.1336  0.3003 -0.1737
  168ntf    on5 1003   2.029   0.554   0.057 -0.2103 -0.1539 -0.0399
  168ntf    on5 1004   1.873   0.850  -0.188  0.2236 -0.0861  0.0333
  168ntf    on5 1005   1.740   0.960  -0.007  0.9386 -0.1172  0.2339
  168ntf    fn4 1006   1.579   0.828  -0.215 -0.0688  0.3782  0.3178
  168ntf    fn4 1007   1.669   0.635  -0.169  0.0072 -0.2248  0.0313
  168ntf    fn4 1008   1.562   0.744  -0.022  0.6657 -0.2616  0.3171
  169ntf    cn1 1009   1.430   1.728   5.549 -0.0529  0.3754 -0.1972
  169ntf    sn2 1010   1.505   1.571   5.601 -0.6476  0.1185 -0.1207
  169ntf    nn3 1011   1.381   1.479   5.571 -0.0979 -0.6514 -0.0412
  169ntf    sn2 1012   1.306   1.382   5.669 -0.5227 -0.3083 -0.0244
  169ntf    cn1 1013   1.284   1.231   5.570 -0.2452 -0.3402 -0.0378
  169ntf    fn4 1014   1.422   1.735   5.417 -0.5579  0.2312 -0.1747
  169ntf    fn4 1015   1.308   1.731   5.600  0.0542 -0.7354  0.1415
  169ntf    fn4 1016   1.500   1.831   5.596  0.3439 -0.1703  0.4228
  169ntf    on5 1017   1.608   1.549   5.504 -0.6432  0.0381 -0.0978
  169ntf    on5 1018   1.528   1.589   5.743  0.3064  0.8297 -0.3586
  169ntf    on5 1019   1.173   1.431   5.696 -0.1534  0.6302  0.1127
  169ntf    on5 1020   1.384   1.334   5.781 -0.0590  0.0687 -0.1824
  169ntf    fn4 1021   1.210   1.257   5.463 -0.0299  0.5615  0.0243
  169ntf    fn4 1022   1.398   1.182   5.524  0.1442  0.1430  0.4043
  169ntf    fn4 1023   1.210   1.143   5.636 -0.1827 -0.2926  0.0961
  170ntf    cn1 1024   0.289   0.366   3.420  0.2895 -0.0043 -0.1921
  170ntf    sn2 1025   0.252   0.501   3.304 -0.2745  0.2146  0.2398
  170ntf    nn3 1026   0.148   0.575   3.395 -0.2073  0.8346 -0.1822
  170ntf    sn2 1027  -0.007   0.558   3.410 -0.0977 -0.0277 -0.0270
  170ntf    cn1 1028  -0.070   0.695   3.309 -0.0915  0.2145  0.2939
  170ntf    fn4 1029   0.366   0.273   3.367 -0.3174 -0.4070 -0.3697
  170ntf    fn4 1030   0.346   0.404   3.533 -0.0518 -0.8408  0.2674
  170ntf    fn4 1031   0.182   0.299   3.458  0.1040  0.3451 -0.0951
  170ntf    on5 1032   0.379   0.568   3.293 -0.2092  0.0278 -0.1540
  170ntf    on5 1033   0.200   0.435   3.187 -0.0858 -0.1999  0.3886
  170ntf    on5 1034  -0.057   0.598   3.539 -0.4251 -0.9120  0.1335
  170ntf    on5 1035  -0.065   0.435   3.360  0.5516 -0.3781  0.0752
  170ntf    fn4 1036  -0.025   0.688   3.184 -0.2986  0.0028  0.2290
  170ntf    fn4 1037  -0.202   0.691   3.312 -0.0906  0.0138  0.0998
  170ntf    fn4 1038  -0.026   0.809   3.359 -0.3619  0.4243  0.0560
  171ntf    cn1 1039   1.143   0.628   6.162  0.2047  0.7277  0.0370
  171ntf    sn2 1040   0.990   0.696   6.091 -0.2445 -0.3211 -0.0142
  171ntf    nn3 1041   0.890   0.708   6.212  0.3926 -0.1492  0.5006
  171ntf    sn2 1042   0.787   0.818   6.255  0.4894  0.0203  0.3027
  171ntf    cn1 1043   0.815   0.820   6.435  0.2246 -0.2180  0.3468
  171ntf    fn4 1044   1.240   0.618   6.073 -0.0529  0.0784 -0.1784
  171ntf    fn4 1045   1.191   0.684   6.272  0.1182 -0.1480  0.5287
  171ntf    fn4 1046   1.107   0.508   6.204  0.5849  0.4880 -0.3259
  171ntf    on5 1047   1.021   0.822   6.029  0.1768 -0.3841  0.0676
  171ntf    on5 1048   0.939   0.594   6.002 -0.7180 -0.1754  0.0863
  171ntf    on5 1049   0.650   0.774   6.243  0.4183  0.2877  0.1413
  171ntf    on5 1050   0.807   0.953   6.209  0.8181 -0.0850  0.1338
  171ntf    fn4 1051   0.761   0.714   6.493 -0.7217 -0.0513 -0.2036
  171ntf    fn4 1052   0.942   0.834   6.468  0.1591  0.1310  0.4493
  171ntf    fn4 1053   0.753   0.919   6.496 -0.4272 -0.3397 -0.1048
  172ntf    cn1 1054   0.686   0.402   5.164  0.5427  0.2600 -0.0571
  172ntf    sn2 1055   0.558   0.489   5.259  0.2833 -0.1937  0.0081
  172ntf    nn3 1056   0.655   0.574   5.348  0.0025 -0.1039  0.2305
  172ntf    sn2 1057   0.705   0.720   5.316 -0.2074 -0.1763 -0.4445
  172ntf    cn1 1058   0.576   0.816   5.400  0.1438 -0.1720  0.0945
  172ntf    fn4 1059   0.759   0.313   5.230 -0.0097 -0.4151 -0.3453
  172ntf    fn4 1060   0.648   0.332   5.059  0.6701  0.2220 -0.0792
  172ntf    fn4 1061   0.774   0.489   5.117  0.7237  0.1040 -0.0089
  172ntf    on5 1062   0.487   0.560   5.155 -0.4181 -0.0965  0.5420
  172ntf    on5 1063   0.486   0.388   5.334 -0.6856  0.4981  0.0255
  172ntf    on5 1064   0.706   0.774   5.182 -0.4622 -0.3195 -0.5069
  172ntf    on5 1065   0.814   0.753   5.404 -0.6336  0.5148 -0.1743
  172ntf    fn4 1066   0.576   0.795   5.531  0.3381  0.0433  0.1285
  172ntf    fn4 1067   0.587   0.948   5.394 -0.1244 -0.1276  0.4924
  172ntf    fn4 1068   0.456   0.785   5.352  0.2271  0.1111 -0.2988
  173ntf    cn1 1069   2.098   0.281   1.395  0.0909 -0.1641  0.1678
  173ntf    sn2 1070   1.941   0.307   1.482 -0.0191 -0.1043 -0.0480
  173ntf    nn3 1071   1.977   0.415   1.590  0.8340 -0.1799 -0.2485
  173ntf    sn2 1072   2.022   0.382   1.737  0.0721 -0.0787  0.0148
  173ntf    cn1 1073   1.868   0.392   1.833  0.1286  0.4756  0.0528
  173ntf    fn4 1074   2.091   0.177   1.314  0.3650  0.1434 -0.2648
  173ntf    fn4 1075   2.126   0.380   1.311 -0.3977  0.1435  0.3610
  173ntf    fn4 1076   2.203   0.264   1.474  0.1180 -0.0403  0.1588
  173ntf    on5 1077   1.855   0.367   1.382 -0.1265 -0.3500 -0.1041
  173ntf    on5 1078   1.908   0.175   1.530  0.2134 -0.1366  0.0228
  173ntf    on5 1079   2.109   0.487   1.786 -0.0547  0.1564 -0.2594
  173ntf    on5 1080   2.066   0.247   1.758  0.2149  0.0348  0.4735
  173ntf    fn4 1081   1.782   0.296   1.805  0.4378  0.0780  0.4544
  173ntf    fn4 1082   1.899   0.380   1.961 -0.1925 -0.1656  0.0723
  173ntf    fn4 1083   1.815   0.511   1.813 -0.3050  0.2470 -0.1603
  174ntf    cn1 1084   1.401   1.670   5.053 -0.1130  0.2999  0.1526
  174ntf    sn2 1085   1.280   1.560   4.972 -0.0048  0.1615  0.1788
  174ntf    nn3 1086   1.303   1.602   4.822 -0.1022  0.4306  0.2382
  174ntf    sn2 1087   1.414   1.560   4.720 -0.2076  0.0183  0.2912
  174ntf    cn1 1088   1.489   1.725   4.704 -0.0517 -0.1070 -0.3225
  174ntf    fn4 1089   1.404   1.650   5.183 -0.3173  0.1376  0.1332
  174ntf    fn4 1090   1.521   1.632   5.011 -0.4518 -0.1128 -0.4575
  174ntf    fn4 1091   1.379   1.796   5.022  0.1401  0.1815 -0.5259
  174ntf    on5 1092   1.323   1.424   4.994  0.0834  0.1082 -0.3129
  174ntf    on5 1093   1.148   1.598   5.016 -0.2600 -0.4164 -0.0716
  174ntf    on5 1094   1.366   1.541   4.585  0.3415  0.0377  0.0919
  174ntf    on5 1095   1.520   1.479   4.775  0.3477  0.3754 -0.2400
  174ntf    fn4 1096   1.538   1.765   4.820 -0.6608  0.2907 -0.1941
  174ntf    fn4 1097   1.595   1.712   4.626  0.3642  0.1342  0.2002
  174ntf    fn4 1098   1.415   1.822   4.654 -0.2391 -0.0747  0.0119
  175ntf    cn1 1099   0.401   1.060   2.632 -0.0043 -0.1812  0.1129
  175ntf    sn2 1100   0.252   0.963   2.596  0.1143 -0.2799 -0.1124
  175ntf    nn3 1101   0.296   0.880   2.470  0.0587 -0.3354 -0.0957
  175ntf    sn2 1102   0.282   0.902   2.315 -0.1661 -0.0688 -0.0382
  175ntf    cn1 1103   0.431   0.806   2.275 -0.1308 -0.2809  0.5928
  175ntf    fn4 1104   0.374   1.156   2.720 -0.5484 -0.1662 -0.0702
  175ntf    fn4 1105   0.511   0.994   2.664 -0.3144 -0.5857  0.3489
  175ntf    fn4 1106   0.442   1.132   2.528 -0.5783  0.1227  0.0957
  175ntf    on5 1107   0.244   0.881   2.714 -0.6380 -0.0059  0.0353
  175ntf    on5 1108   0.147   1.059   2.569  0.0498 -0.1303  0.6635
  175ntf    on5 1109   0.307   1.036   2.267  0.0055 -0.0118  0.2041
  175ntf    on5 1110   0.166   0.833   2.265 -0.1406  0.0273 -0.2301
  175ntf    fn4 1111   0.436   0.800   2.143  0.4101  0.7250  0.5506
  175ntf    fn4 1112   0.549   0.856   2.312  0.1935 -0.2817 -0.4239
  175ntf    fn4 1113   0.424   0.685   2.328  0.0501 -0.2805  0.6206
  176ntf    cn1 1114   1.566   0.689   5.269 -0.2200  0.0994 -0.0154
  176ntf    sn2 1115   1.701   0.566   5.264 -0.1276  0.2120 -0.2761
  176ntf    nn3 1116   1.635   0.469   5.160  0.9022 -0.2333 -0.5193
  176ntf    sn2 1117   1.627   0.313   5.173  0.0983 -0.1565 -0.0697
  176ntf    cn1 1118   1.461   0.281   5.240  0.0518  0.2173 -0.0078
  176ntf    fn4 1119   1.452   0.645   5.319 -0.1998  0.2371  0.1545
  176ntf    fn4 1120   1.598   0.798   5.337 -0.3165 -0.2631  0.6214
  176ntf    fn4 1121   1.525   0.735   5.152 -0.1153  0.1792 -0.0204
  176ntf    on5 1122   1.819   0.637   5.222  0.4124 -0.3037  0.3612
  176ntf    on5 1123   1.703   0.525   5.402  0.0169  0.4285 -0.2123
  176ntf    on5 1124   1.716   0.256   5.271 -0.0875 -0.1647  0.0959
  176ntf    on5 1125   1.631   0.250   5.043 -0.1358 -0.1469 -0.0833
  176ntf    fn4 1126   1.451   0.354   5.351  0.6636 -0.6482  0.6332
  176ntf    fn4 1127   1.364   0.309   5.155  0.2713  0.1625 -0.2752
  176ntf    fn4 1128   1.446   0.158   5.286  0.4824  0.2277  0.1697
  177ntf    cn1 1129   1.817   0.125   0.111  0.4332 -0.0450  0.0097
  177ntf    sn2 1130   1.696   0.018   0.027  0.1271  0.5190 -0.2763
  177ntf    nn3 1131   1.594   0.123  -0.029 -0.1411  0.3901 -0.0336
  177ntf    sn2 1132   1.578   0.169  -0.178  0.2023 -0.0757 -0.2160
  177ntf    cn1 1133   1.483   0.324  -0.166  0.1519 -0.1470  0.3454
  177ntf    fn4 1134   1.889   0.207   0.037  0.4962  0.1360  0.2723
  177ntf    fn4 1135   1.753   0.198   0.200 -0.0526 -0.0604 -0.3237
  177ntf    fn4 1136   1.912   0.053   0.170  0.1965 -0.6044 -0.2816
  177ntf    on5 1137   1.772  -0.051  -0.074  0.0809  0.0514  0.0024
  177ntf    on5 1138   1.642  -0.063   0.134  0.2232 -0.2560 -0.8036
  177ntf    on5 1139   1.496   0.076  -0.251 -0.3882 -0.0341  0.3840
  177ntf    on5 1140   1.695   0.212  -0.251  0.2634 -0.0558 -0.1068
  177ntf    fn4 1141   1.356   0.303  -0.136  0.1768  0.3702  0.8150
  177ntf    fn4 1142   1.521   0.407  -0.071 -0.0183  0.3217  0.0085
  177ntf    fn4 1143   1.492   0.394  -0.278 -0.1615 -0.8794 -0.1468
  178ntf    cn1 1144   1.191   2.259   4.575  0.0291 -0.5460  0.2927
  178ntf    sn2 1145   1.121   2.427   4.570  0.3324 -0.4304 -0.1215
  178ntf    nn3 1146   0.985   2.396   4.642  0.5557 -0.3968  0.3203
  178ntf    sn2 1147   0.902   2.487   4.739  0.0459 -0.1844 -0.3081
  178ntf    cn1 1148   0.979   2.462   4.902 -0.3487 -0.1370 -0.1128
  178ntf    fn4 1149   1.109   2.185   4.502 -0.3059  0.5639 -0.4785
  178ntf    fn4 1150   1.310   2.247   4.518 -0.2717  0.3961 -0.5657
  178ntf    fn4 1151   1.201   2.217   4.700 -0.4736  0.3659  0.6543
  178ntf    on5 1152   1.231   2.484   4.644 -0.1809 -0.0795  0.3808
  178ntf    on5 1153   1.101   2.451   4.429  0.3236  0.2589 -0.0064
  178ntf    on5 1154   0.767   2.436   4.748  0.1214 -0.3973 -0.3763
  178ntf    on5 1155   0.908   2.630   4.719  0.3558 -0.2089 -0.3846
  178ntf    fn4 1156   0.973   2.335   4.937  0.4428 -0.1713 -0.0894
  178ntf    fn4 1157   1.106   2.500   4.906 -0.2899 -0.3149 -0.2697
  178ntf    fn4 1158   0.918   2.529   4.998  0.0993 -0.0996  0.1471
  179ntf    cn1 1159   1.348   1.476   0.817  0.0419  0.2139  0.0645
  179ntf    sn2 1160   1.500   1.378   0.801 -0.0081  0.1349  0.0749
  179ntf    nn3 1161   1.434   1.266   0.713  0.2630 -0.1651  0.2480
  179ntf    sn2 1162   1.498   1.199   0.587 -0.1731  0.2169 -0.1830
  179ntf    cn1 1163   1.450   1.315   0.456 -0.2163  0.1966 -0.1849
  179ntf    fn4 1164   1.251   1.397   0.859 -0.0630 -0.0853 -0.7168
  179ntf    fn4 1165   1.354   1.577   0.903 -0.4083 -0.0483  0.4050
  179ntf    fn4 1166   1.313   1.521   0.697  0.3356 -0.5762 -0.3262
  179ntf    on5 1167   1.595   1.470   0.743  0.2687  0.0348  0.3666
  179ntf    on5 1168   1.530   1.331   0.934  0.6391  0.4086  0.0300
  179ntf    on5 1169   1.430   1.076   0.554  0.2154  0.1038 -0.5691
  179ntf    on5 1170   1.642   1.189   0.576 -0.1038  0.0221  0.8126
  179ntf    fn4 1171   1.318   1.323   0.447 -0.2155 -0.3613 -0.7818
  179ntf    fn4 1172   1.498   1.437   0.474  0.6852 -0.0857 -0.6236
  179ntf    fn4 1173   1.494   1.279   0.336  0.1895  0.4879 -0.1249
  180ntf    cn1 1174   2.249   2.197   2.534  0.1553 -0.0738  0.1732
  180ntf    sn2 1175   2.332   2.316   2.426 -0.0893  0.2515  0.3414
  180ntf    nn3 1176   2.209   2.409   2.396  0.0875  0.4622  0.2618
  180ntf    sn2 1177   2.149   2.433   2.253 -0.1370  0.1597  0.3034
  180ntf    cn1 1178   2.015   2.551   2.288  0.0508  0.4921 -0.0841
  180ntf    fn4 1179   2.339   2.123   2.598  0.3938 -0.1740 -0.2776
  180ntf    fn4 1180   2.160   2.244   2.620 -0.3338  0.1812 -0.4592
  180ntf    fn4 1181   2.173   2.115   2.464  0.4832 -0.4275  0.2261
  180ntf    on5 1182   2.420   2.389   2.514  0.5682 -0.4229  0.2501
  180ntf    on5 1183   2.385   2.237   2.317 -0.0173  0.0194  0.5447
  180ntf    on5 1184   2.073   2.327   2.192 -0.2835  0.3284  0.1900
  180ntf    on5 1185   2.240   2.506   2.169 -0.6400 -0.4343 -0.7746
  180ntf    fn4 1186   1.923   2.489   2.360 -0.1290  0.6027 -0.2175
  180ntf    fn4 1187   2.064   2.655   2.353 -0.1989  0.6496 -0.1432
  180ntf    fn4 1188   1.961   2.596   2.176 -0.2001 -0.5502 -0.3892
  181ntf    cn1 1189   1.705   1.406   3.587 -0.1932  0.5117 -0.0444
  181ntf    sn2 1190   1.796   1.561   3.554 -0.2601  0.5680  0.0349
  181ntf    nn3 1191   1.674   1.654   3.585 -0.5441  0.0953  0.3586
  181ntf    sn2 1192   1.672   1.794   3.656 -0.5186  0.3293 -0.0923
  181ntf    cn1 1193   1.679   1.739   3.830 -0.4105  0.0801 -0.1742
  181ntf    fn4 1194   1.594   1.396   3.517 -0.3243 -0.0497  0.2393
  181ntf    fn4 1195   1.770   1.292   3.572  0.3888  0.8367 -0.0616
  181ntf    fn4 1196   1.663   1.413   3.712 -0.7622  0.0740 -0.2133
  181ntf    on5 1197   1.910   1.559   3.641 -0.0948  0.1782 -0.1881
  181ntf    on5 1198   1.825   1.546   3.413 -0.0777  0.2273  0.1067
  181ntf    on5 1199   1.550   1.869   3.645 -0.5538  0.2923  0.0381
  181ntf    on5 1200   1.789   1.878   3.644 -0.2754  0.1157  0.6703
  181ntf    fn4 1201   1.684   1.838   3.918  0.1355 -0.2559  0.1740
  181ntf    fn4 1202   1.564   1.678   3.851 -0.7054  0.7949  0.3318
  181ntf    fn4 1203   1.777   1.654   3.853 -0.2650  0.3134  0.0692
  182ntf    cn1 1204   1.514   1.683   1.236 -0.0891 -0.1867 -0.1792
  182ntf    sn2 1205   1.649   1.770   1.320 -0.2354  0.1049 -0.2434
  182ntf    nn3 1206   1.769   1.677   1.280  0.1735  0.4280  0.2166
  182ntf    sn2 1207   1.833   1.556   1.356  0.0437  0.1338 -0.1360
  182ntf    cn1 1208   1.954   1.645   1.460  0.4944 -0.2334 -0.3442
  182ntf    fn4 1209   1.510   1.556   1.273 -0.7262 -0.2556 -0.4577
  182ntf    fn4 1210   1.393   1.729   1.263  0.0778  0.2294 -0.1381
  182ntf    fn4 1211   1.520   1.694   1.104  0.0029  0.2742 -0.1380
  182ntf    on5 1212   1.650   1.901   1.260  0.0973  0.2132 -0.0013
  182ntf    on5 1213   1.614   1.762   1.460  0.0050  0.0084 -0.1878
  182ntf    on5 1214   1.910   1.481   1.261  0.0759 -0.5260  0.4013
  182ntf    on5 1215   1.748   1.474   1.440  0.6153  0.1624  0.4796
  182ntf    fn4 1216   1.882   1.724   1.538  0.0938  0.2381 -1.1755
  182ntf    fn4 1217   2.031   1.562   1.529  0.5229 -0.1831 -0.3159
  182ntf    fn4 1218   2.034   1.724   1.391  0.2331 -0.1786 -0.5899
  183ntf    cn1 1219   1.249   2.181   5.440 -0.1975 -0.1240 -0.2588
  183ntf    sn2 1220   1.088   2.182   5.524 -0.0240 -0.1009  0.0771
  183ntf    nn3 1221   1.124   2.093   5.648  0.1417  0.3694  0.3701
  183ntf    sn2 1222   1.041   2.071   5.780 -0.1251  0.2023  0.1753
  183ntf    cn1 1223   0.957   1.920   5.722  0.8346 -0.2734  0.0096
  183ntf    fn4 1224   1.351   2.250   5.489 -0.0435 -0.2305 -0.4281
  183ntf    fn4 1225   1.293   2.056   5.433  0.0468 -0.0382 -0.2493
  183ntf    fn4 1226   1.225   2.223   5.317  0.1993 -0.2260 -0.3718
  183ntf    on5 1227   1.065   2.321   5.557 -0.0218 -0.0820 -0.0014
  183ntf    on5 1228   0.995   2.127   5.429 -0.0861 -0.3026  0.2530
  183ntf    on5 1229   0.940   2.171   5.807 -0.0245  0.2191  0.4896
  183ntf    on5 1230   1.128   2.023   5.884  0.3810  0.0291 -0.3221
  183ntf    fn4 1231   0.898   1.948   5.607  0.3939 -0.0849  0.2788
  183ntf    fn4 1232   1.040   1.818   5.711  0.4805 -0.5711  0.1066
  183ntf    fn4 1233   0.862   1.885   5.806  0.2848  0.0138 -0.4831
  184ntf    cn1 1234   1.046   1.640   3.174 -0.1275  0.0906  0.0010
  184ntf    sn2 1235   1.092   1.508   3.058  0.1959  0.1006  0.1175
  184ntf    nn3 1236   1.057   1.381   3.143 -0.2893  0.1878  0.0474
  184ntf    sn2 1237   1.147   1.325   3.259 -0.3630  0.0572  0.0411
  184ntf    cn1 1238   1.223   1.181   3.178  0.1672  0.3824 -0.0455
  184ntf    fn4 1239   1.127   1.640   3.278 -0.3316 -0.7431  0.1704
  184ntf    fn4 1240   1.056   1.762   3.123 -0.1341 -0.0781 -0.4082
  184ntf    fn4 1241   0.923   1.638   3.222 -0.0641 -0.6265  0.1457
  184ntf    on5 1242   1.008   1.527   2.942  0.2671 -0.5650 -0.0482
  184ntf    on5 1243   1.233   1.526   3.029  0.1653  0.2159  0.0385
  184ntf    on5 1244   1.068   1.259   3.360 -0.2162  0.4685  0.4277
  184ntf    on5 1245   1.267   1.397   3.293  0.1278 -0.4008 -0.6748
  184ntf    fn4 1246   1.136   1.099   3.121  0.3851  0.0158  0.1419
  184ntf    fn4 1247   1.311   1.202   3.082 -0.3644 -0.1185 -0.6569
  184ntf    fn4 1248   1.278   1.105   3.272 -0.3562  0.0842  0.0226
  185ntf    cn1 1249   1.658   1.971   2.904 -0.2123 -0.4289  0.2348
  185ntf    sn2 1250   1.720   1.966   2.734 -0.7267  0.0302  0.0292
  185ntf    nn3 1251   1.624   1.863   2.665 -0.4437 -0.2323  0.0236
  185ntf    sn2 1252   1.519   1.877   2.550 -0.3542  0.5012  0.0269
  185ntf    cn1 1253   1.556   1.717   2.470 -0.1377  0.5776 -0.0260
  185ntf    fn4 1254   1.542   2.033   2.919  0.1421  0.3810 -0.2745
  185ntf    fn4 1255   1.646   1.850   2.955  0.5614 -0.4868  0.2915
  185ntf    fn4 1256   1.737   2.041   2.985  0.3991 -0.5496 -0.2502
  185ntf    on5 1257   1.722   2.103   2.690  0.0574  0.1944  0.5468
  185ntf    on5 1258   1.845   1.901   2.766 -0.6570  0.3723  0.4519
  185ntf    on5 1259   1.554   1.970   2.445 -0.3188  0.2681 -0.1708
  185ntf    on5 1260   1.380   1.857   2.583 -0.1408  0.4979  0.9427
  185ntf    fn4 1261   1.583   1.623   2.560 -0.1797  0.4285 -0.1703
  185ntf    fn4 1262   1.457   1.690   2.386  0.2385 -0.0547 -0.2721
  185ntf    fn4 1263   1.668   1.718   2.400 -0.0357 -0.0345  0.1301
  186ntf    cn1 1264   0.964   0.050   1.152 -0.1667  0.0966  0.0549
  186ntf    sn2 1265   0.876  -0.010   1.299 -0.0142  0.2258  0.1990
  186ntf    nn3 1266   0.748   0.080   1.305 -0.3701 -0.2738  0.1108
  186ntf    sn2 1267   0.674   0.150   1.425 -0.0756 -0.0611  0.1694
  186ntf    cn1 1268   0.506   0.086   1.399  0.1731 -0.5683 -0.2057
  186ntf    fn4 1269   1.035  -0.048   1.098 -0.1624 -0.2367  0.6612
  186ntf    fn4 1270   0.886   0.094   1.055 -0.5592 -0.2690  0.2037
  186ntf    fn4 1271   1.042   0.154   1.179  0.2347 -0.1506 -0.1334
  186ntf    on5 1272   0.848  -0.149   1.278  0.1388  0.1177  0.6838
  186ntf    on5 1273   0.974   0.023   1.400  0.0458 -0.1035  0.2499
  186ntf    on5 1274   0.662   0.289   1.391 -0.7225 -0.1615 -0.0219
  186ntf    on5 1275   0.710   0.109   1.558  0.4809 -0.9574 -0.2483
  186ntf    fn4 1276   0.440   0.136   1.295 -0.3136  0.2664  0.4999
  186ntf    fn4 1277   0.496  -0.046   1.398  0.5963 -0.6004 -0.4056
  186ntf    fn4 1278   0.434   0.128   1.501  0.4392 -0.6560  0.0171
  187ntf    cn1 1279   1.196   1.841   0.089  0.3877  0.6601 -0.0525
  187ntf    sn2 1280   1.129   1.680   0.141  0.5286  0.6161 -0.0047
  187ntf    nn3 1281   0.977   1.715   0.123  0.1957 -0.9225 -0.2543
  187ntf    sn2 1282   0.862   1.686   0.225 -0.0786  0.2349 -0.2225
  187ntf    cn1 1283   0.718   1.720   0.119 -0.1053 -0.1188 -0.3030
  187ntf    fn4 1284   1.328   1.851   0.097  0.4454 -0.0385 -0.0657
  187ntf    fn4 1285   1.162   1.881  -0.032 -0.0208  0.2908 -0.0634
  187ntf    fn4 1286   1.145   1.931   0.171 -0.6818 -0.0393  0.0611
  187ntf    on5 1287   1.186   1.580   0.055 -0.1465  0.1451  0.0894
  187ntf    on5 1288   1.169   1.673   0.279 -0.2584 -0.5629  0.1776
  187ntf    on5 1289   0.853   1.780   0.334  0.3902  0.3127 -0.2511
  187ntf    on5 1290   0.855   1.547   0.266  0.1443  0.5548  0.9410
  187ntf    fn4 1291   0.718   1.637   0.016  0.7144  0.0271 -0.4283
  187ntf    fn4 1292   0.605   1.694   0.181  0.2049  0.1106  0.3716
  187ntf    fn4 1293   0.727   1.845   0.076  0.7967  0.0236  0.2668
  188ntf    cn1 1294   1.013   2.027   3.313  0.3195 -0.2715  0.6087
  188ntf    sn2 1295   0.973   2.189   3.387 -0.3005 -0.2372  0.2091
  188ntf    nn3 1296   0.950   2.281   3.262  0.2469  0.1958  0.4238
  188ntf    sn2 1297   1.017   2.414   3.211 -0.4335  0.3692 -0.0253
  188ntf    cn1 1298   0.990   2.403   3.032  0.1267 -0.1050 -0.0828
  188ntf    fn4 1299   0.919   1.994   3.226  0.6208 -0.6725  0.4361
  188ntf    fn4 1300   1.126   2.027   3.244  0.1440 -0.2444  0.3199
  188ntf    fn4 1301   1.018   1.936   3.408  0.2470 -0.0743  0.8037
  188ntf    on5 1302   0.851   2.171   3.462 -0.5615  0.0771 -0.1433
  188ntf    on5 1303   1.089   2.212   3.470 -0.1953  0.3797 -0.1009
  188ntf    on5 1304   1.159   2.425   3.230 -0.3600 -0.0849 -0.2863
  188ntf    on5 1305   0.942   2.533   3.242  0.1621  0.5795  0.6259
  188ntf    fn4 1306   1.032   2.515   2.974 -0.1909  0.3646  0.5775
  188ntf    fn4 1307   1.044   2.300   2.969 -0.2829 -0.5317  0.2650
  188ntf    fn4 1308   0.864   2.397   2.994  0.0252  0.2913  0.1810
  189ntf    cn1 1309   0.048   1.819   5.141  0.0393  0.0073 -0.0749
  189ntf    sn2 1310   0.067   1.986   5.210  0.4719 -0.0869  0.0361
  189ntf    nn3 1311  -0.033   2.055   5.111  0.2530 -0.0039  0.3152
  189ntf    sn2 1312  -0.161   2.142   5.136  0.1585 -0.0253 -0.0956
  189ntf    cn1 1313  -0.297   2.022   5.119 -0.0906  0.2309  0.0789
  189ntf    fn4 1314   0.130   1.729   5.193  0.1184  0.4166  0.5091
  189ntf    fn4 1315  -0.075   1.771   5.151 -0.1888  0.7127  0.5461
  189ntf    fn4 1316   0.073   1.832   5.011 -0.4526  0.7358 -0.0980
  189ntf    on5 1317   0.026   1.963   5.346 -0.5632  0.2200 -0.2205
  189ntf    on5 1318   0.204   2.026   5.190  0.4218  0.1215  0.1059
  189ntf    on5 1319  -0.191   2.238   5.032  0.3175 -0.0934 -0.2047
  189ntf    on5 1320  -0.166   2.200   5.267  0.1818  0.6036 -0.3683
  189ntf    fn4 1321  -0.417   2.077   5.107 -0.2788 -0.1660  0.1179
  189ntf    fn4 1322  -0.291   1.941   5.015 -0.6716 -0.1258  0.3203
  189ntf    fn4 1323  -0.298   1.948   5.228  0.6935  0.4079  0.2088
  190ntf    cn1 1324   1.622   0.926   0.956 -0.2433  0.0867  0.3243
  190ntf    sn2 1325   1.519   0.897   1.103 -0.1017  0.3391  0.4731
  190ntf    nn3 1326   1.468   0.750   1.080 -0.1753  0.3406  0.6264
  190ntf    sn2 1327   1.442   0.638   1.187 -0.0033 -0.1694  0.1409
  190ntf    cn1 1328   1.328   0.527   1.100  0.3917 -0.1311 -0.4283
  190ntf    fn4 1329   1.688   1.038   0.977 -0.3300  0.1205  0.4202
  190ntf    fn4 1330   1.709   0.827   0.945  0.1405  0.3803  0.6716
  190ntf    fn4 1331   1.543   0.944   0.852  0.1738 -0.6927 -0.1370
  190ntf    on5 1332   1.613   0.899   1.212  0.0390 -0.1310  0.3622
  190ntf    on5 1333   1.410   0.992   1.101  0.0728  0.5233 -0.7629
  190ntf    on5 1334   1.363   0.672   1.303 -0.0075 -0.3774  0.1987
  190ntf    on5 1335   1.556   0.553   1.209  0.1330 -0.0143  0.0344
  190ntf    fn4 1336   1.210   0.585   1.088  0.2799 -0.1927  0.3267
  190ntf    fn4 1337   1.357   0.510   0.972 -1.0649 -0.4140 -0.7463
  190ntf    fn4 1338   1.324   0.406   1.154 -0.1147 -0.0441 -0.2624
  191ntf    cn1 1339   1.159   0.978   4.216 -0.2248 -0.1721 -0.1305
  191ntf    sn2 1340   1.330   0.917   4.221 -0.0467  0.3284 -0.0324
  191ntf    nn3 1341   1.404   1.017   4.318  0.3051 -0.4379  0.5026
  191ntf    sn2 1342   1.547   1.027   4.381  0.3939 -0.1266  0.2548
  191ntf    cn1 1343   1.499   1.053   4.554 -0.3785  0.2463 -0.0134
  191ntf    fn4 1344   1.088   0.903   4.134 -0.3301  0.0283 -0.2225
  191ntf    fn4 1345   1.097   0.986   4.333 -0.4398 -0.4223 -0.2286
  191ntf    fn4 1346   1.155   1.103   4.171 -0.1179 -0.0801  0.1081
  191ntf    on5 1347   1.317   0.783   4.273  0.1405  0.0964 -0.5755
  191ntf    on5 1348   1.377   0.926   4.085 -0.7935 -0.2268 -0.3321
  191ntf    on5 1349   1.617   1.149   4.348 -0.0845 -0.1468 -0.9032
  191ntf    on5 1350   1.627   0.907   4.374 -0.2268 -0.5268 -0.1935
  191ntf    fn4 1351   1.594   1.106   4.629  0.0620 -0.5646  0.0125
  191ntf    fn4 1352   1.402   1.144   4.559 -0.7213 -0.1157 -0.0826
  191ntf    fn4 1353   1.448   0.951   4.621 -0.1718  0.1544  0.0034
  192ntf    cn1 1354   2.221   2.128   0.688 -0.0939 -0.2251  0.4452
  192ntf    sn2 1355   2.132   2.036   0.817 -0.3547 -0.4054  0.1401
  192ntf    nn3 1356   2.198   1.894   0.807  0.4429 -0.0539  0.3127
  192ntf    sn2 1357   2.332   1.844   0.872  0.4165 -0.1271  0.3108
  192ntf    cn1 1358   2.441   1.822   0.728 -0.2176 -0.1589 -0.1714
  192ntf    fn4 1359   2.348   2.133   0.725  0.0975 -0.1347 -0.2061
  192ntf    fn4 1360   2.213   2.063   0.573  0.1486  0.0591  0.2631
  192ntf    fn4 1361   2.178   2.252   0.670  0.1589 -0.1734  0.1807
  192ntf    on5 1362   2.170   2.113   0.933  0.5151 -0.0713 -0.3535
  192ntf    on5 1363   1.994   2.044   0.776 -0.4695  0.0971  0.6072
  192ntf    on5 1364   2.325   1.710   0.924  0.1176 -0.2822 -0.1225
  192ntf    on5 1365   2.407   1.944   0.945  0.0892 -0.3907  1.0162
  192ntf    fn4 1366   2.571   1.818   0.754 -0.2634  0.1960  0.1307
  192ntf    fn4 1367   2.416   1.707   0.667 -0.2264 -0.1970 -0.0961
  192ntf    fn4 1368   2.421   1.912   0.634 -0.6888 -0.1859 -0.0958
  193ntf    cn1 1369   0.333   1.386   0.447  0.1733 -0.2151 -0.1823
  193ntf    sn2 1370   0.158   1.340   0.429  0.0690  0.2441 -0.3615
  193ntf    nn3 1371   0.176   1.223   0.326 -0.2263 -0.0390 -0.0939
  193ntf    sn2 1372   0.172   1.230   0.169  0.1291  0.0545 -0.0996
  193ntf    cn1 1373  -0.000   1.181   0.139  0.2232 -0.2524 -0.1445
  193ntf    fn4 1374   0.342   1.476   0.545 -0.6400  0.0192 -0.3122
  193ntf    fn4 1375   0.408   1.282   0.477  0.1945 -0.1590 -0.0372
  193ntf    fn4 1376   0.379   1.444   0.338  0.3203 -0.2298 -0.1280
  193ntf    on5 1377   0.139   1.287   0.562  0.1478  0.5559 -0.2243
  193ntf    on5 1378   0.092   1.464   0.396 -0.2320  0.3002  0.4313
  193ntf    on5 1379   0.249   1.122   0.112  0.2733  0.4449 -0.6455
  193ntf    on5 1380   0.189   1.357   0.103  0.1525 -0.2404 -0.6686
  193ntf    fn4 1381  -0.038   1.067   0.194  0.0320  0.0963  0.4566
  193ntf    fn4 1382  -0.082   1.274   0.187  0.0226 -0.3979 -0.2038
  193ntf    fn4 1383  -0.032   1.169   0.011  0.0507  0.1449 -0.1403
  194ntf    cn1 1384   1.816   1.322   4.105  0.3084  0.0488  0.2936
  194ntf    sn2 1385   1.973   1.270   4.030  0.1412 -0.0042 -0.0226
  194ntf    nn3 1386   2.069   1.295   4.152 -0.0208 -1.1459  0.3459
  194ntf    sn2 1387   2.210   1.363   4.143 -0.4434 -0.3057 -0.0889
  194ntf    cn1 1388   2.298   1.204   4.156 -0.0033 -0.0487  0.0998
  194ntf    fn4 1389   1.804   1.276   4.228  0.3254 -0.2187  0.1969
  194ntf    fn4 1390   1.803   1.453   4.121 -0.4814 -0.0532  0.5508
  194ntf    fn4 1391   1.713   1.283   4.032  0.2135  0.1716  0.3621
  194ntf    on5 1392   1.950   1.130   4.008  0.4360 -0.0751  0.1165
  194ntf    on5 1393   1.987   1.345   3.907 -0.3604 -0.3211 -0.2773
  194ntf    on5 1394   2.253   1.430   4.263 -0.1724 -0.3926 -0.1362
  194ntf    on5 1395   2.245   1.415   4.013  0.3668 -0.1783  0.1714
  194ntf    fn4 1396   2.228   1.102   4.108  0.4509 -0.2899 -0.0563
  194ntf    fn4 1397   2.410   1.207   4.085 -0.3867  0.1099 -0.5078
  194ntf    fn4 1398   2.327   1.183   4.283 -0.4103  0.0055  0.2020
  195ntf    cn1 1399   1.480   0.357   2.040  0.0958 -0.7322 -0.3160
  195ntf    sn2 1400   1.338   0.277   2.119 -0.3513  0.0934 -0.2661
  195ntf    nn3 1401   1.381   0.132   2.075 -0.0349  0.0458  0.1946
  195ntf    sn2 1402   1.301   0.008   2.021 -0.0674  0.1424  0.0194
  195ntf    cn1 1403   1.328   0.009   1.841  0.5352  0.1844  0.1091
  195ntf    fn4 1404   1.483   0.487   2.069  0.1535 -0.9489  0.6835
  195ntf    fn4 1405   1.596   0.323   2.094  0.1608  0.6385  0.4599
  195ntf    fn4 1406   1.483   0.349   1.908 -0.0845  0.4140 -0.4051
  195ntf    on5 1407   1.350   0.288   2.262 -0.2339 -0.0042 -0.2685
  195ntf    on5 1408   1.227   0.339   2.051 -0.3389  0.0843 -0.2948
  195ntf    on5 1409   1.157   0.018   2.031 -0.0767  0.3542 -0.3081
  195ntf    on5 1410   1.360  -0.117   2.061 -0.1589 -0.0200 -0.3469
  195ntf    fn4 1411   1.453  -0.031   1.821  0.4448 -0.0321 -0.0279
  195ntf    fn4 1412   1.241  -0.066   1.776  0.3616  0.2617  0.2511
  195ntf    fn4 1413   1.320   0.131   1.790 -0.5559  0.0149 -0.1548
  196ntf    cn1 1414   2.180   0.640   4.666 -0.2521  0.1803  0.4926
  196ntf    sn2 1415   2.299   0.513   4.616 -0.2637  0.3241  0.0969
  196ntf    nn3 1416   2.322   0.558   4.467 -0.1250 -0.6252 -0.1785
  196ntf    sn2 1417   2.456   0.549   4.387  0.0810  0.1464  0.0708
  196ntf    cn1 1418   2.424   0.428   4.255 -0.2216 -0.1414  0.4074
  196ntf    fn4 1419   2.144   0.628   4.793  0.5338  0.1750  0.7227
  196ntf    fn4 1420   2.238   0.759   4.660  0.5474 -0.2274 -0.0930
  196ntf    fn4 1421   2.068   0.641   4.596  0.0227 -0.2932  0.0411
  196ntf    on5 1422   2.410   0.527   4.708  0.5821  0.4982 -0.9219
  196ntf    on5 1423   2.208   0.402   4.627 -0.4808  0.4833 -0.0982
  196ntf    on5 1424   2.564   0.495   4.466 -0.1623 -0.1025  0.2351
  196ntf    on5 1425   2.488   0.671   4.316 -0.7675  0.3044 -0.0569
  196ntf    fn4 1426   2.527   0.402   4.176 -0.2418  0.1615  0.2812
  196ntf    fn4 1427   2.380   0.312   4.302 -0.3315 -0.6477 -0.8945
  196ntf    fn4 1428   2.331   0.479   4.176  0.2907  0.1334 -0.0224
  197ntf    cn1 1429   0.053   1.760   2.682 -0.2353 -0.0780  0.0591
  197ntf    sn2 1430   0.173   1.643   2.613 -0.2025 -0.2289  0.3720
  197ntf    nn3 1431   0.128   1.648   2.463  0.9093 -0.5497  0.0230
  197ntf    sn2 1432   0.093   1.540   2.354 -0.5337 -0.0045 -0.0730
  197ntf    cn1 1433  -0.084   1.523   2.391 -0.5257  0.2112  0.0679
  197ntf    fn4 1434  -0.071   1.736   2.642 -0.2054  0.8096 -0.5983
  197ntf    fn4 1435   0.047   1.761   2.814  0.5051  0.1582  0.0945
  197ntf    fn4 1436   0.075   1.886   2.647  0.2329 -0.1274  0.1678
  197ntf    on5 1437   0.303   1.696   2.645 -0.0179 -0.0449 -0.6564
  197ntf    on5 1438   0.128   1.525   2.684 -1.0066 -0.0336  0.2013
  197ntf    on5 1439   0.141   1.407   2.380 -0.0950  0.2364  0.3857
  197ntf    on5 1440   0.097   1.593   2.220  0.7239  0.2879  0.0663
  197ntf    fn4 1441  -0.137   1.635   2.437  0.0874  0.6335 -0.2471
  197ntf    fn4 1442  -0.167   1.483   2.296 -0.7201  0.0119  0.3193
  197ntf    fn4 1443  -0.096   1.430   2.484 -0.2835  0.0844 -0.0274
  198ntf    cn1 1444   0.888   2.218   2.623 -0.1356 -0.6874 -0.6011
  198ntf    sn2 1445   0.716   2.197   2.567 -0.4227  0.1242 -0.0406
  198ntf    nn3 1446   0.636   2.243   2.694  0.5538 -0.1879  0.7108
  198ntf    sn2 1447   0.542   2.171   2.797 -0.5790 -0.1066 -0.2314
  198ntf    cn1 1448   0.638   2.185   2.951 -0.1483 -0.2362 -0.4853
  198ntf    fn4 1449   0.977   2.149   2.553  0.4800 -0.7918  0.2636
  198ntf    fn4 1450   0.927   2.344   2.610  0.1337 -0.6962  0.1103
  198ntf    fn4 1451   0.906   2.183   2.749 -0.2709  0.0518 -0.3712
  198ntf    on5 1452   0.708   2.292   2.459  0.3911  0.0898 -0.1377
  198ntf    on5 1453   0.708   2.056   2.538  0.1115  0.1322 -0.2347
  198ntf    on5 1454   0.529   2.030   2.775 -0.3338 -0.0829 -0.5322
  198ntf    on5 1455   0.421   2.243   2.828 -0.2158  0.3383  0.1861
  198ntf    fn4 1456   0.591   2.294   3.010 -0.2640 -0.1002 -0.8259
  198ntf    fn4 1457   0.630   2.089   3.042  0.1739  0.3148  0.1398
  198ntf    fn4 1458   0.766   2.210   2.929 -0.1253 -0.0825 -0.1966
  199ntf    cn1 1459   0.378   2.016   4.883  0.1086  0.0003  0.1072
  199ntf    sn2 1460   0.431   1.972   4.715 -0.1037  0.1497  0.0006
  199ntf    nn3 1461   0.448   1.817   4.730 -0.2941  0.1069 -0.2248
  199ntf    sn2 1462   0.583   1.738   4.734 -0.4913 -0.2286 -0.1531
  199ntf    cn1 1463   0.528   1.570   4.692 -0.1102 -0.3853 -0.0344
  199ntf    fn4 1464   0.361   2.147   4.897  0.0042  0.0516 -0.4839
  199ntf    fn4 1465   0.271   1.947   4.918  0.3875 -0.6602 -0.3119
  199ntf    fn4 1466   0.474   1.984   4.968  0.6034  0.3980 -0.2956
  199ntf    on5 1467   0.316   2.014   4.639 -0.2890  0.7786  0.6140
  199ntf    on5 1468   0.548   2.053   4.690 -0.0827  0.0038 -0.3885
  199ntf    on5 1469   0.630   1.729   4.870  0.9439  0.7062 -0.5666
  199ntf    on5 1470   0.679   1.782   4.636  0.2225 -0.2340  0.5359
  199ntf    fn4 1471   0.425   1.538   4.769  0.3029  0.0345  0.7077
  199ntf    fn4 1472   0.491   1.560   4.566  0.2029  0.8306 -0.2261
  199ntf    fn4 1473   0.611   1.467   4.699  0.1419 -0.1779  0.0015
  200ntf    cn1 1474   2.133   1.124   5.251  0.2089 -0.1516 -0.5945
  200ntf    sn2 1475   2.266   1.239   5.207  0.4656 -0.1059  0.2877
  200ntf    nn3 1476   2.202   1.298   5.077  0.9930 -0.1552  0.0053
  200ntf    sn2 1477   2.231   1.283   4.923  0.0822 -0.0085 -0.1877
  200ntf    cn1 1478   2.346   1.423   4.907  0.2844 -0.0295  0.9703
  200ntf    fn4 1479   2.107   1.018   5.175 -0.1630 -0.3035 -0.2599
  200ntf    fn4 1480   2.147   1.065   5.369 -0.0448 -0.2819 -0.6281
  200ntf    fn4 1481   2.016   1.184   5.267  0.3405 -0.1059  0.2382
  200ntf    on5 1482   2.263   1.335   5.315  0.0411  0.3406 -0.1194
  200ntf    on5 1483   2.384   1.157   5.192  0.2622 -0.3744  0.1515
  200ntf    on5 1484   2.119   1.330   4.846 -0.5503 -0.4384  0.4555
  200ntf    on5 1485   2.304   1.166   4.881 -0.4718 -0.3223 -0.2782
  200ntf    fn4 1486   2.349   1.507   5.009  0.1703  0.6803  0.3999
  200ntf    fn4 1487   2.467   1.374   4.881  0.0954 -0.2519  0.4936
  200ntf    fn4 1488   2.318   1.492   4.797  0.3581 -0.5915  0.5936
  201ntf    cn1 1489   1.013   0.863   3.893  0.2683 -0.0514  0.1363
  201ntf    sn2 1490   0.931   0.830   3.734  0.2029 -0.1874  0.1983
  201ntf    nn3 1491   0.833   0.719   3.787 -0.2946 -0.1966 -0.7386
  201ntf    sn2 1492   0.868   0.567   3.779 -0.0177 -0.1708 -0.0507
  201ntf    cn1 1493   0.798   0.526   3.616 -0.1359  0.3089 -0.1205
  201ntf    fn4 1494   0.922   0.903   3.981 -0.0213 -0.5667  0.0725
  201ntf    fn4 1495   1.071   0.759   3.950  0.0838 -0.2154  0.0259
  201ntf    fn4 1496   1.109   0.954   3.894 -0.1482  0.3923 -0.0359
  201ntf    on5 1497   0.864   0.957   3.722 -0.0288 -0.3550 -0.3091
  201ntf    on5 1498   1.039   0.797   3.645  0.1607  0.5279 -0.1194
  201ntf    on5 1499   0.787   0.490   3.870 -0.5822  0.4013 -0.0636
  201ntf    on5 1500   1.006   0.524   3.770 -0.0909 -0.3466 -0.3618
  201ntf    fn4 1501   0.813   0.402   3.572  0.0100  0.1889  0.2609
  201ntf    fn4 1502   0.669   0.552   3.598 -0.0514  0.2120 -0.8735
  201ntf    fn4 1503   0.864   0.597   3.526  0.6531  0.6743  0.7253
  202ntf    cn1 1504   1.746   1.947   4.328 -0.1440  0.0687 -0.2113
  202ntf    sn2 1505   1.734   2.110   4.409  0.2820 -0.0375  0.0658
  202ntf    nn3 1506   1.718   2.211   4.290 -0.3960 -0.3388 -0.1062
  202ntf    sn2 1507   1.600   2.311   4.264  0.0848  0.1872 -0.2968
  202ntf    cn1 1508   1.456   2.205   4.228 -0.0425  0.2626 -0.0153
  202ntf    fn4 1509   1.772   1.843   4.405  0.6491  0.0887 -0.4426
  202ntf    fn4 1510   1.632   1.922   4.266 -0.6481  0.2483  0.6239
  202ntf    fn4 1511   1.840   1.951   4.236  0.2021 -0.5414  0.1105
  202ntf    on5 1512   1.629   2.101   4.507 -0.0850  0.0452 -0.3151
  202ntf    on5 1513   1.863   2.130   4.470  0.2598 -0.1153  0.1383
  202ntf    on5 1514   1.616   2.391   4.146 -0.3571 -0.2247 -0.6418
  202ntf    on5 1515   1.560   2.397   4.373  0.2524 -0.2727  0.1340
  202ntf    fn4 1516   1.465   2.124   4.123 -0.3312 -0.6383  0.6451
  202ntf    fn4 1517   1.427   2.121   4.325 -0.3643  0.2947 -0.0828
  202ntf    fn4 1518   1.344   2.271   4.203 -0.0135  0.5088  0.5004
  203ntf    cn1 1519   0.651   1.772   4.111 -0.0050 -0.1236  0.3082
  203ntf    sn2 1520   0.737   1.625   4.045  0.0006  0.0102  0.0160
  203ntf    nn3 1521   0.871   1.641   4.125  0.0063  0.7729 -0.1373
  203ntf    sn2 1522   1.018   1.634   4.072  0.2440  0.2531  0.5857
  203ntf    cn1 1523   1.044   1.811   4.043  0.0170  0.1855 -0.0341
  203ntf    fn4 1524   0.549   1.812   4.037  0.3995  0.4140  0.0340
  203ntf    fn4 1525   0.611   1.744   4.233 -0.1288  0.0722  0.3122
  203ntf    fn4 1526   0.736   1.873   4.121  0.5413 -0.5782  0.3271
  203ntf    on5 1527   0.643   1.525   4.089  0.1709 -0.1678 -0.0253
  203ntf    on5 1528   0.752   1.656   3.905 -0.3607 -0.0908 -0.0460
  203ntf    on5 1529   1.033   1.567   3.945  0.1975  0.8191  0.2810
  203ntf    on5 1530   1.115   1.599   4.173  0.4504  0.1716  0.3624
  203ntf    fn4 1531   1.045   1.889   4.149  0.0876 -0.2370  0.2788
  203ntf    fn4 1532   1.159   1.835   3.981 -0.0307  0.6865  0.0638
  203ntf    fn4 1533   0.954   1.865   3.962 -0.5107 -0.3351  0.1991
  204ntf    cn1 1534   1.797   0.094   3.039  0.2523 -0.1857  0.1247
  204ntf    sn2 1535   1.824   0.070   3.217  0.0936 -0.1554  0.1530
  204ntf    nn3 1536   1.827   0.217   3.270 -0.1129 -0.1229  0.0775
  204ntf    sn2 1537   1.707   0.310   3.311 -0.0680 -0.1235  0.2113
  204ntf    cn1 1538   1.792   0.460   3.251 -0.2823  0.0546  0.3530
  204ntf    fn4 1539   1.710   0.193   3.025  0.3248 -0.0836  0.3858
  204ntf    fn4 1540   1.905   0.135   2.974  0.0614  0.4973  0.2345
  204ntf    fn4 1541   1.753  -0.012   2.973  0.2388 -0.2478  0.2336
  204ntf    on5 1542   1.718  -0.020   3.258 -0.3006  0.1187 -0.2486
  204ntf    on5 1543   1.954   0.008   3.223  0.0965 -0.1660 -0.0188
  204ntf    on5 1544   1.695   0.333   3.453 -0.7541  0.6995  0.0293
  204ntf    on5 1545   1.587   0.297   3.233 -0.1423 -0.2115  0.3393
  204ntf    fn4 1546   1.841   0.435   3.131 -0.3705 -0.3805  0.4042
  204ntf    fn4 1547   1.707   0.560   3.237  0.0212  0.2621 -0.0216
  204ntf    fn4 1548   1.902   0.494   3.317  0.1121 -0.3827 -0.0726
  205ntf    cn1 1549   0.043   1.452   5.877 -0.3253  0.1334 -0.3568
  205ntf    sn2 1550   0.164   1.556   5.790  0.1301  0.0890  0.2178
  205ntf    nn3 1551   0.294   1.543   5.877  0.3571 -0.1343 -0.1506
  205ntf    sn2 1552   0.442   1.553   5.826  0.5074  0.3456  0.3619
  205ntf    cn1 1553   0.508   1.666   5.952  0.2584  0.2943  0.5374
  205ntf    fn4 1554   0.058   1.324   5.846  0.2659  0.0916  0.0896
  205ntf    fn4 1555   0.049   1.460   6.009  0.5618  0.0474 -0.3850
  205ntf    fn4 1556  -0.082   1.470   5.838 -0.5408 -0.4483  0.0482
  205ntf    on5 1557   0.166   1.501   5.657  0.3605 -0.1276  0.3099
  205ntf    on5 1558   0.091   1.680   5.803 -0.1004  0.0139 -0.3194
  205ntf    on5 1559   0.454   1.616   5.697  0.0486  0.1615  0.2254
  205ntf    on5 1560   0.510   1.429   5.856 -0.4116 -0.3759 -0.4674
  205ntf    fn4 1561   0.428   1.770   5.970  0.3166  0.3889  0.2388
  205ntf    fn4 1562   0.515   1.604   6.069 -0.1643 -0.1736  0.3195
  205ntf    fn4 1563   0.625   1.718   5.919  0.1217  0.1848 -0.1354
  206ntf    cn1 1564   0.817   1.402   1.209 -0.0957 -0.1010  0.0904
  206ntf    sn2 1565   0.734   1.553   1.152 -0.1438 -0.2172 -0.1468
  206ntf    nn3 1566   0.845   1.603   1.053 -0.0164 -0.0715  0.0696
  206ntf    sn2 1567   0.932   1.734   1.054  0.3095 -0.2888  0.3444
  206ntf    cn1 1568   1.093   1.689   1.126  0.1485 -0.6549  0.4801
  206ntf    fn4 1569   0.747   1.354   1.311  0.2516 -0.1964  0.2848
  206ntf    fn4 1570   0.832   1.307   1.119 -0.4634 -0.3222  0.2561
  206ntf    fn4 1571   0.937   1.430   1.256 -0.1445  0.6634 -0.2305
  206ntf    on5 1572   0.607   1.516   1.095 -0.3937  0.3344  0.0410
  206ntf    on5 1573   0.732   1.621   1.279  0.3055 -0.0411 -0.2351
  206ntf    on5 1574   0.886   1.835   1.145  0.3366 -0.0455  0.0879
  206ntf    on5 1575   0.978   1.778   0.924 -0.5078 -0.0970  0.1166
  206ntf    fn4 1576   1.168   1.646   1.027 -0.0178  0.3328 -0.0934
  206ntf    fn4 1577   1.166   1.787   1.178  0.2052 -0.4335 -0.0088
  206ntf    fn4 1578   1.082   1.596   1.219  0.2122 -0.3904  0.7560
  207ntf    cn1 1579   0.735   0.895   4.340 -0.1161 -0.0382  0.2900
  207ntf    sn2 1580   0.639   0.887   4.494 -0.1499  0.2197  0.2832
  207ntf    nn3 1581   0.753   0.932   4.593  0.2788  0.2160 -0.2056
  207ntf    sn2 1582   0.739   1.005   4.731  0.0239 -0.0078 -0.1121
  207ntf    cn1 1583   0.699   1.175   4.684  0.5175  0.0138 -0.4588
  207ntf    fn4 1584   0.835   0.808   4.347 -0.0590 -0.0163 -0.2476
  207ntf    fn4 1585   0.659   0.857   4.238  0.3213 -0.2914  0.0574
  207ntf    fn4 1586   0.785   1.015   4.315  0.0661 -0.1335  0.1987
  207ntf    on5 1587   0.535   0.983   4.468  0.1399  0.4546  0.0008
  207ntf    on5 1588   0.601   0.748   4.503 -0.0835  0.1014 -1.1330
  207ntf    on5 1589   0.869   1.004   4.794 -0.2141  0.0687  0.3868
  207ntf    on5 1590   0.631   0.977   4.822 -0.0922  0.4998 -0.0905
  207ntf    fn4 1591   0.685   1.258   4.786  0.2884 -0.3264 -0.2155
  207ntf    fn4 1592   0.799   1.223   4.612  1.1039 -0.0143  0.3290
  207ntf    fn4 1593   0.588   1.185   4.612  0.3712 -0.0887 -0.2477
  208ntf    cn1 1594   0.383   0.045   6.102 -0.1126  0.0833  0.2229
  208ntf    sn2 1595   0.296   0.204   6.120 -0.0142  0.1682 -0.0538
  208ntf    nn3 1596   0.300   0.241   5.967 -0.1940 -0.0424 -0.1096
  208ntf    sn2 1597   0.190   0.248   5.855 -0.0764 -0.0523 -0.2250
  208ntf    cn1 1598   0.109   0.410   5.868  0.0942  0.0234 -0.1067
  208ntf    fn4 1599   0.312  -0.038   6.026  0.2469  0.3157 -0.3739
  208ntf    fn4 1600   0.497   0.071   6.041 -0.0895 -0.3319  0.0840
  208ntf    fn4 1601   0.412  -0.029   6.207  0.0689  0.3955  0.3920
  208ntf    on5 1602   0.166   0.175   6.174  0.1109  0.0075  0.1649
  208ntf    on5 1603   0.381   0.285   6.204  0.1905  0.2031 -0.2916
  208ntf    on5 1604   0.077   0.158   5.865 -0.4851  0.5025  0.1936
  208ntf    on5 1605   0.246   0.256   5.722  0.0076 -0.6723 -0.2333
  208ntf    fn4 1606   0.007   0.427   5.786 -0.2579 -0.6271  0.1960
  208ntf    fn4 1607   0.064   0.410   5.992  0.1401  0.0826 -0.0902
  208ntf    fn4 1608   0.193   0.512   5.857 -0.4890  0.5371  0.1782
  209ntf    cn1 1609   0.833   1.103   0.603 -0.0778 -0.3196  0.4437
  209ntf    sn2 1610   0.828   0.922   0.583 -0.1079 -0.2560 -0.1330
  209ntf    nn3 1611   0.786   0.877   0.727 -0.1641  1.2710  0.3476
  209ntf    sn2 1612   0.870   0.832   0.852 -0.3648  0.1292  0.0834
  209ntf    cn1 1613   0.772   0.930   0.970  0.1620  0.5412  0.1806
  209ntf    fn4 1614   0.884   1.163   0.497 -0.3600 -0.7129  0.0803
  209ntf    fn4 1615   0.715   1.160   0.626 -0.1452  0.1590 -0.9602
  209ntf    fn4 1616   0.910   1.141   0.703 -0.0311 -0.4572  0.4608
  209ntf    on5 1617   0.721   0.888   0.492  0.1803 -0.3135 -0.4541
  209ntf    on5 1618   0.961   0.897   0.535 -0.2254 -1.0789 -0.0364
  209ntf    on5 1619   1.000   0.893   0.858 -0.1288 -0.2618 -0.8840
  209ntf    on5 1620   0.851   0.698   0.902 -0.8438  0.0891 -0.1984
  209ntf    fn4 1621   0.644   0.896   0.967  0.3274 -0.1019  0.2412
  209ntf    fn4 1622   0.811   0.921   1.096 -0.0821 -0.2083  0.2079
  209ntf    fn4 1623   0.780   1.059   0.941 -0.5553  0.5637  0.0657
  210ntf    cn1 1624   0.909   1.592   2.032 -0.1029 -0.3463 -0.0417
  210ntf    sn2 1625   1.088   1.559   2.031 -0.0767 -0.2193  0.2441
  210ntf    nn3 1626   1.093   1.413   2.089  0.6999 -0.2723  0.0548
  210ntf    sn2 1627   1.121   1.383   2.241 -0.2189 -0.3280  0.2158
  210ntf    cn1 1628   1.302   1.391   2.234 -0.2307  0.0989  0.3595
  210ntf    fn4 1629   0.888   1.698   1.955 -0.8279 -0.3594  0.1346
  210ntf    fn4 1630   0.848   1.487   1.981 -0.3993 -0.4748  0.5672
  210ntf    fn4 1631   0.856   1.613   2.151  0.2441 -0.0570  0.0648
  210ntf    on5 1632   1.108   1.561   1.888  0.1562 -0.0172  0.2800
  210ntf    on5 1633   1.141   1.670   2.107  0.5836 -0.0424 -0.4572
  210ntf    on5 1634   1.099   1.245   2.277  0.6747 -0.5793 -0.1887
  210ntf    on5 1635   1.088   1.486   2.337  0.7046  0.5064 -0.3449
  210ntf    fn4 1636   1.366   1.330   2.332 -0.2251  0.6055  0.6775
  210ntf    fn4 1637   1.345   1.318   2.132 -0.6648  0.0716  0.1961
  210ntf    fn4 1638   1.351   1.512   2.211  0.5485 -0.2822 -0.0501
  211ntf    cn1 1639   1.344   0.175   0.869  0.0406 -0.2442  0.3165
  211ntf    sn2 1640   1.434   0.121   0.720  0.0959 -0.0473  0.2782
  211ntf    nn3 1641   1.538   0.238   0.704  0.3123 -0.3411 -0.5052
  211ntf    sn2 1642   1.693   0.247   0.726  0.2039  0.3745  0.0152
  211ntf    cn1 1643   1.727   0.325   0.566 -0.0823  0.2425 -0.1116
  211ntf    fn4 1644   1.308   0.301   0.853  0.3970 -0.1980 -0.1363
  211ntf    fn4 1645   1.236   0.105   0.899  0.0938 -0.2145  0.5742
  211ntf    fn4 1646   1.423   0.169   0.975  0.4092  0.0977  0.0655
  211ntf    on5 1647   1.482  -0.006   0.770  0.6645  0.2552  0.5206
  211ntf    on5 1648   1.339   0.120   0.612  0.1218  0.0247  0.2550
  211ntf    on5 1649   1.755   0.117   0.724 -0.6122 -0.0307  0.3924
  211ntf    on5 1650   1.746   0.339   0.823 -0.4502  0.3065  0.4445
  211ntf    fn4 1651   1.674   0.446   0.557 -1.0323 -0.1720 -0.2411
  211ntf    fn4 1652   1.856   0.348   0.548 -0.0417  0.4165  0.3906
  211ntf    fn4 1653   1.689   0.260   0.457 -0.0984  0.3397 -0.1652
  212ntf    cn1 1654   0.819   0.726   2.647  0.1527  0.1929  0.4885
  212ntf    sn2 1655   0.978   0.759   2.729  0.3521  0.1002  0.1422
  212ntf    nn3 1656   0.948   0.903   2.786  0.1345  0.1504 -0.0948
  212ntf    sn2 1657   0.930   1.036   2.706 -0.2218  0.0051 -0.2587
  212ntf    cn1 1658   0.986   1.146   2.840 -0.4666 -0.2705  0.0692
  212ntf    fn4 1659   0.719   0.723   2.734 -0.3086  0.4946 -0.0243
  212ntf    fn4 1660   0.803   0.807   2.543  0.1875 -0.3416  0.0616
  212ntf    fn4 1661   0.827   0.602   2.601 -0.0554  0.2063  0.4146
  212ntf    on5 1662   0.982   0.657   2.831  0.4335  0.5909  0.6389
  212ntf    on5 1663   1.079   0.755   2.626 -0.3532  0.7025 -0.5915
  212ntf    on5 1664   0.792   1.076   2.692 -0.1550  0.3554  0.0492
  212ntf    on5 1665   1.020   1.063   2.596 -0.2120  0.9803 -0.0289
  212ntf    fn4 1666   0.951   1.272   2.820 -0.2475 -0.2469 -0.1752
  212ntf    fn4 1667   0.938   1.121   2.961 -0.5078  0.7533  0.2750
  212ntf    fn4 1668   1.117   1.151   2.854 -0.4419  0.4693 -0.4155
  213ntf    cn1 1669   2.017   1.331   6.085  0.5201  0.1898  0.0628
  213ntf    sn2 1670   2.012   1.479   6.191 -0.1179  0.2258 -0.0140
  213ntf    nn3 1671   1.943   1.572   6.085 -0.5350 -0.6686 -0.5452
  213ntf    sn2 1672   1.904   1.724   6.082  0.1090 -0.4924 -0.3314
  213ntf    cn1 1673   1.896   1.765   5.905  0.0629 -0.0425 -0.2266
  213ntf    fn4 1674   2.088   1.338   5.974  0.0224  0.1499 -0.2608
  213ntf    fn4 1675   2.078   1.234   6.151 -0.5922 -0.2305  0.4935
  213ntf    fn4 1676   1.902   1.280   6.044  0.4450  0.0721  0.4175
  213ntf    on5 1677   1.917   1.435   6.291  0.2659 -0.4670  0.0497
  213ntf    on5 1678   2.149   1.507   6.224 -0.1510 -0.0883  0.4078
  213ntf    on5 1679   1.990   1.824   6.139  0.8021 -1.2051 -0.1204
  213ntf    on5 1680   1.763   1.732   6.113  0.2648  0.1915  0.2282
  213ntf    fn4 1681   2.017   1.763   5.851  0.1823  0.0547  0.0335
  213ntf    fn4 1682   1.806   1.697   5.836  0.2764 -0.0179 -0.5287
  213ntf    fn4 1683   1.857   1.890   5.888 -0.5845 -0.0858  0.8267
  214ntf    cn1 1684   0.765   2.245   0.222 -0.4856 -0.1862  0.2278
  214ntf    sn2 1685   0.689   2.401   0.275  0.3999  0.3383 -0.0148
  214ntf    nn3 1686   0.555   2.329   0.316  0.6261  0.0261  0.1823
  214ntf    sn2 1687   0.459   2.361   0.436  0.1102 -0.1537 -0.1819
  214ntf    cn1 1688   0.309   2.277   0.377  0.2042 -0.3193 -0.1851
  214ntf    fn4 1689   0.710   2.187   0.117 -0.0820  0.4505 -0.3520
  214ntf    fn4 1690   0.894   2.257   0.194 -0.4350 -0.3357  0.3979
  214ntf    fn4 1691   0.753   2.154   0.317 -0.4755 -0.2391  0.1781
  214ntf    on5 1692   0.778   2.442   0.381  0.0087 -0.6516  0.7209
  214ntf    on5 1693   0.685   2.481   0.155  0.3298  0.0414 -0.2102
  214ntf    on5 1694   0.417   2.498   0.449  0.5149 -0.0858  0.4289
  214ntf    on5 1695   0.486   2.287   0.557  0.4200  0.4322  0.1086
  214ntf    fn4 1696   0.275   2.317   0.256  0.3166  0.2775 -0.0187
  214ntf    fn4 1697   0.321   2.145   0.369  0.1047 -0.3383 -0.0106
  214ntf    fn4 1698   0.202   2.308   0.449  0.3131 -0.6661  0.1306
  215ntf    cn1 1699   0.263   0.900   1.155  0.1885 -0.1308  0.4893
  215ntf    sn2 1700   0.123   0.784   1.158  0.0981 -0.0396 -0.1374
  215ntf    nn3 1701   0.172   0.660   1.074  0.1979 -0.2003  0.1573
  215ntf    sn2 1702   0.158   0.629   0.921 -0.1730  0.2509  0.0949
  215ntf    cn1 1703  -0.008   0.554   0.920 -0.1678  0.2406 -0.0085
  215ntf    fn4 1704   0.241   0.995   1.244  0.2154  0.2066  0.1374
  215ntf    fn4 1705   0.381   0.847   1.183  0.1437 -0.5931 -0.1896
  215ntf    fn4 1706   0.282   0.962   1.040 -0.3272 -0.0443  0.4469
  215ntf    on5 1707   0.117   0.755   1.299 -0.1027  0.2935 -0.0764
  215ntf    on5 1708   0.008   0.853   1.106 -0.2032 -0.2174  0.2858
  215ntf    on5 1709   0.247   0.525   0.875 -0.5204  0.2423 -0.5631
  215ntf    on5 1710   0.145   0.744   0.836 -0.5778 -0.0943 -0.3170
  215ntf    fn4 1711  -0.066   0.567   0.802 -0.2650  0.2003  0.0348
  215ntf    fn4 1712  -0.000   0.423   0.940  0.5181  0.3514  0.5029
  215ntf    fn4 1713  -0.088   0.600   1.015 -0.0142  0.5148 -0.0104
  216ntf    cn1 1714   0.600   1.519   3.461 -0.3380 -0.2234 -0.0879
  216ntf    sn2 1715   0.468   1.422   3.380  0.0745 -0.7716 -0.1071
  216ntf    nn3 1716   0.349   1.516   3.420  0.1018 -0.5709 -0.5011
  216ntf    sn2 1717   0.195   1.509   3.389  0.0008 -0.1591 -0.0971
  216ntf    cn1 1718   0.177   1.647   3.272 -0.0703 -0.0124  0.0865
  216ntf    fn4 1719   0.626   1.631   3.396 -0.1195 -0.3524 -0.2221
  216ntf    fn4 1720   0.556   1.555   3.581  0.1614 -0.0088  0.0298
  216ntf    fn4 1721   0.708   1.445   3.479 -0.3242 -0.0816  0.4438
  216ntf    on5 1722   0.503   1.411   3.241 -0.2308 -0.0680 -0.2426
  216ntf    on5 1723   0.468   1.303   3.462 -0.0334 -0.5653  0.1952
  216ntf    on5 1724   0.115   1.549   3.502  0.0700 -0.0360 -0.0907
  216ntf    on5 1725   0.156   1.392   3.315  0.4627 -0.0883 -0.4600
  216ntf    fn4 1726   0.271   1.649   3.179 -0.0513  0.0561  0.1067
  216ntf    fn4 1727   0.062   1.649   3.208  0.1682  0.0771 -0.3478
  216ntf    fn4 1728   0.197   1.767   3.325  0.0643  0.0104 -0.0122
   2.26087   2.26087   6.31543
