Converted from moscito
 2376
    1SOL     ow    1   0.407   1.597   2.648  0.4593 -0.5345 -0.5553
    1SOL     hw    2   0.410   1.692   2.647 -2.7089 -0.3238 -0.4818
    1SOL     hw    3   0.463   1.570   2.575  1.0291  1.3701 -0.8669
    1SOL     vw    4   0.415   1.606   2.638  0.1165 -0.2553 -0.5867
    2SOL     ow    5   0.066   0.382   6.370 -0.0847  0.6580  0.6277
    2SOL     hw    6   0.096   0.453   6.426 -1.4960  1.0777  0.8778
    2SOL     hw    7   0.026   0.426   6.294 -1.3946  0.1694  1.0080
    2SOL     vw    8   0.065   0.397   6.367 -0.4438  0.6489  0.7107
    3SOL     ow    9   1.992   1.071   5.317 -0.6452 -0.5596 -0.0860
    3SOL     hw   10   1.972   1.027   5.234  1.3486 -0.5579 -0.6117
    3SOL     hw   11   2.044   1.148   5.291  0.2033 -0.6799  1.1697
    3SOL     vw   12   1.996   1.075   5.302 -0.2702 -0.5752  0.0103
    4SOL     ow   13   1.310   1.708   2.803 -0.8723  0.5265 -0.3352
    4SOL     hw   14   1.325   1.761   2.724 -3.4988  1.6858 -0.1673
    4SOL     hw   15   1.229   1.661   2.785 -0.1077 -1.2844  0.6871
    4SOL     vw   16   1.302   1.709   2.790 -1.1179  0.4405 -0.1781
    5SOL     ow   17   0.018   0.460   1.098  0.0120  0.1739 -0.1435
    5SOL     hw   18   0.049   0.382   1.052  0.6277  0.2522  0.1318
    5SOL     hw   19   0.035   0.443   1.190  2.3329  1.5316 -0.2191
    5SOL     vw   20   0.024   0.448   1.104  0.3994  0.3633 -0.1172
    6SOL     ow   21   0.747   1.015   1.883 -0.0537 -0.1049  0.3052
    6SOL     hw   22   0.754   0.965   1.801 -1.1540  0.7720 -0.3609
    6SOL     hw   23   0.827   0.995   1.931  1.1153  0.1804 -1.4487
    6SOL     vw   24   0.758   1.006   1.879 -0.0447  0.0484 -0.0141
    7SOL     ow   25   1.648   0.263   0.950 -0.3067  0.3379  0.1081
    7SOL     hw   26   1.642   0.302   1.037 -0.6903  0.5149  0.0056
    7SOL     hw   27   1.571   0.206   0.944 -0.2405  0.2681 -0.0869
    7SOL     vw   28   1.637   0.261   0.961 -0.3485  0.3521  0.0688
    8SOL     ow   29   0.573   0.885   2.836 -0.0687  0.0517  0.5484
    8SOL     hw   30   0.626   0.936   2.897  0.3343  0.9333 -0.5099
    8SOL     hw   31   0.522   0.950   2.787  1.8941 -0.3021 -2.2120
    8SOL     vw   32   0.573   0.900   2.837  0.2435  0.1213  0.0445
    9SOL     ow   33   0.915   1.676   0.026  0.0424 -0.1082  0.0744
    9SOL     hw   34   0.878   1.752  -0.019  0.0961  0.6905  1.3280
    9SOL     hw   35   0.849   1.607   0.015 -0.0330  0.1229 -1.0278
    9SOL     vw   36   0.901   1.677   0.019  0.0395  0.0277  0.0944
   10SOL     ow   37   1.388   0.242   4.552 -0.0288 -0.5084 -0.3253
   10SOL     hw   38   1.449   0.188   4.503  0.9306  0.3673 -0.1187
   10SOL     hw   39   1.425   0.331   4.549 -0.8331 -0.1207  0.5204
   10SOL     vw   40   1.401   0.247   4.545 -0.0083 -0.3417 -0.1864
   11SOL     ow   41   0.274   1.092   5.654  0.5481 -0.7556 -0.4686
   11SOL     hw   42   0.348   1.117   5.598 -1.2615  0.4065 -2.4688
   11SOL     hw   43   0.314   1.038   5.722  3.6281  1.7140 -0.0458
   11SOL     vw   44   0.289   1.088   5.656  0.7157 -0.2763 -0.6769
   12SOL     ow   45   0.505   0.384   6.321 -0.1832 -0.5547 -0.1526
   12SOL     hw   46   0.464   0.355   6.239 -1.7092 -1.1622  0.7841
   12SOL     hw   47   0.451   0.458   6.350 -0.0650 -0.7683  0.6367
   12SOL     vw   48   0.492   0.390   6.314 -0.3689 -0.6631  0.0751
   13SOL     ow   49   1.977   1.513   4.739 -0.6947 -0.2124  0.0044
   13SOL     hw   50   1.990   1.464   4.658  2.3443  0.3388  0.0065
   13SOL     hw   51   1.918   1.584   4.715 -0.0198 -0.1766 -1.7114
   13SOL     vw   52   1.971   1.516   4.725 -0.2047 -0.1349 -0.2217
   14SOL     ow   53   1.720   0.715   6.516  0.3519  0.2540 -0.8231
   14SOL     hw   54   1.776   0.638   6.524 -2.1889 -1.9227 -2.1833
   14SOL     hw   55   1.735   0.746   6.427 -0.9615 -0.7506 -1.4350
   14SOL     vw   56   1.729   0.709   6.505 -0.1566 -0.1658 -1.0831
   15SOL     ow   57   0.828   1.914   3.416 -0.2493 -0.5452 -0.1113
   15SOL     hw   58   0.741   1.899   3.452 -1.6150 -3.5297 -3.9445
   15SOL     hw   59   0.884   1.848   3.457 -0.8756 -1.4440 -0.6668
   15SOL     vw   60   0.824   1.904   3.426 -0.5122 -1.0575 -0.6903
   16SOL     ow   61   2.157   1.371   0.077  0.1960  0.2305 -0.2609
   16SOL     hw   62   2.150   1.398   0.169  0.6020  0.4254 -0.2822
   16SOL     hw   63   2.235   1.315   0.074  0.7018  0.9353 -0.6421
   16SOL     vw   64   2.167   1.367   0.089  0.3163  0.3492 -0.3140
   17SOL     ow   65   1.533   1.645   1.687  0.1705 -0.3598 -0.2199
   17SOL     hw   66   1.438   1.636   1.699 -0.1479  2.4304 -0.1250
   17SOL     hw   67   1.542   1.704   1.612  1.7399  1.2780  1.1764
   17SOL     vw   68   1.521   1.651   1.679  0.3356  0.2244 -0.0232
   18SOL     ow   69   0.810   0.069   3.845 -1.0498  0.5598 -0.0644
   18SOL     hw   70   0.875   0.118   3.794 -1.6478 -2.1132 -3.8354
   18SOL     hw   71   0.862   0.013   3.903 -0.2386  1.9135  0.5603
   18SOL     vw   72   0.826   0.068   3.846 -1.0217  0.3857 -0.4793
   19SOL     ow   73   0.477   1.502   2.010  0.1688  0.3561 -0.7987
   19SOL     hw   74   0.552   1.543   2.052 -0.3042  1.5809 -1.1264
   19SOL     hw   75   0.410   1.500   2.078  0.9476 -2.2317  0.0250
   19SOL     vw   76   0.478   1.507   2.025  0.2092  0.1763 -0.7331
   20SOL     ow   77   1.541   2.005   5.906  0.1986 -0.0093 -0.8146
   20SOL     hw   78   1.626   1.999   5.862  0.8952 -1.2958  0.5901
   20SOL     hw   79   1.536   2.095   5.937  0.1703  0.6121 -2.5109
   20SOL     vw   80   1.552   2.016   5.904  0.2868 -0.0970 -0.8531
   21SOL     ow   81   1.058   0.481   4.131  0.1815  0.5377  0.3391
   21SOL     hw   82   1.122   0.416   4.161 -0.7780 -0.8997 -0.6150
   21SOL     hw   83   1.049   0.542   4.205  2.1535  0.4249  0.7340
   21SOL     vw   84   1.066   0.481   4.145  0.3150  0.3332  0.2654
   22SOL     ow   85   0.478   0.255   1.403  0.3422 -0.3100 -0.1022
   22SOL     hw   86   0.507   0.321   1.466  0.6916 -0.6544  0.0981
   22SOL     hw   87   0.559   0.223   1.364  0.1109  0.3013 -1.1368
   22SOL     vw   88   0.493   0.260   1.406  0.3578 -0.2748 -0.2123
   23SOL     ow   89   2.298   0.879   4.403  0.4162  0.4701  0.0225
   23SOL     hw   90   2.320   0.968   4.373 -2.7847  1.5804  0.5955
   23SOL     hw   91   2.294   0.887   4.498 -0.6920 -0.0553  0.0320
   23SOL     vw   92   2.300   0.892   4.411 -0.1522  0.5473  0.0994
   24SOL     ow   93   2.279   2.252   3.406  0.2450  1.0482 -0.1002
   24SOL     hw   94   2.341   2.302   3.459 -0.1698  0.9225  0.5157
   24SOL     hw   95   2.296   2.161   3.431 -0.2228  1.0176  0.1127
   24SOL     vw   96   2.289   2.246   3.416  0.1285  1.0275  0.0091
   25SOL     ow   97   1.411   1.852   3.109 -0.3833 -0.5518  0.7971
   25SOL     hw   98   1.398   1.946   3.097  0.3433 -0.5282  0.1678
   25SOL     hw   99   1.373   1.834   3.195 -3.1459 -0.2125 -0.2438
   25SOL     vw  100   1.404   1.862   3.119 -0.6519 -0.5040  0.5769
   26SOL     ow  101   1.896   0.981   5.563 -0.1912  0.1952  0.2199
   26SOL     hw  102   1.954   1.019   5.496 -1.8995  3.4717  0.4011
   26SOL     hw  103   1.815   1.031   5.555 -1.5412 -1.4256  2.7201
   26SOL     vw  104   1.893   0.993   5.553 -0.5947  0.4137  0.5736
   27SOL     ow  105   1.675   0.155   5.522 -0.5489 -0.1673 -0.5849
   27SOL     hw  106   1.646   0.198   5.442 -3.1217 -0.2711  0.2161
   27SOL     hw  107   1.653   0.216   5.592  1.1555 -0.3181  0.1496
   27SOL     vw  108   1.669   0.169   5.520 -0.6635 -0.2009 -0.3822
   28SOL     ow  109   2.094   0.595   0.956  0.4084  0.3043 -0.3924
   28SOL     hw  110   2.065   0.628   1.041  1.9674  0.9451 -0.0825
   28SOL     hw  111   2.061   0.659   0.893  2.0176  1.6320  0.0555
   28SOL     vw  112   2.086   0.608   0.959  0.8264  0.5640 -0.2924
   29SOL     ow  113   2.129   0.379   4.285 -0.6695 -0.0989  0.3764
   29SOL     hw  114   2.045   0.367   4.330 -0.0299  0.2822  1.7104
   29SOL     hw  115   2.189   0.320   4.330  0.0454  0.4569  0.1719
   29SOL     vw  116   2.126   0.370   4.297 -0.4907  0.0247  0.5255
   30SOL     ow  117   0.815   1.211   6.342 -0.2222 -0.5560 -0.2412
   30SOL     hw  118   0.769   1.219   6.425  1.2998 -1.4961  0.7308
   30SOL     hw  119   0.775   1.278   6.286 -1.4577 -0.0954  1.1368
   30SOL     vw  120   0.804   1.221   6.345 -0.1844 -0.6193  0.0689
   31SOL     ow  121   0.728   1.876   5.344 -0.1847 -0.2196 -0.1137
   31SOL     hw  122   0.753   1.920   5.425  3.1042 -1.0757 -0.5500
   31SOL     hw  123   0.673   1.803   5.372  0.3187 -0.0866  1.2626
   31SOL     vw  124   0.724   1.873   5.358  0.3157 -0.3150  0.0103
   32SOL     ow  125   1.579   2.174   1.594 -0.3215  0.1724 -0.5169
   32SOL     hw  126   1.638   2.244   1.567  1.9326 -1.7481 -0.9192
   32SOL     hw  127   1.555   2.196   1.684  0.0415  1.6004 -0.7452
   32SOL     vw  128   1.584   2.186   1.603  0.0238  0.1072 -0.6000
   33SOL     ow  129   1.713   1.155   5.615 -0.1475 -0.3543  0.1553
   33SOL     hw  130   1.774   1.150   5.689  1.7669 -0.0640 -1.3223
   33SOL     hw  131   1.631   1.119   5.649  1.3564 -2.6050  1.7102
   33SOL     vw  132   1.710   1.150   5.629  0.3035 -0.6130  0.1652
   34SOL     ow  133   1.544   1.773   1.452 -0.3746 -0.3259 -0.0672
   34SOL     hw  134   1.566   1.716   1.378  1.1414 -0.4137  0.4082
   34SOL     hw  135   1.626   1.819   1.471 -0.5958 -0.6232  1.8157
   34SOL     vw  136   1.558   1.771   1.445 -0.2037 -0.3767  0.2440
   35SOL     ow  137   1.467   2.018   1.405 -0.0763 -0.5567  0.0272
   35SOL     hw  138   1.492   1.926   1.406  3.0147  0.1740  1.1590
   35SOL     hw  139   1.498   2.052   1.489  0.4112  1.8690 -1.0488
   35SOL     vw  140   1.474   2.011   1.416  0.3958 -0.1403  0.0346
   36SOL     ow  141   0.684   1.543   5.631 -0.1219 -0.0613 -0.1800
   36SOL     hw  142   0.694   1.589   5.714 -0.1364  0.2026 -0.3245
   36SOL     hw  143   0.720   1.456   5.647 -0.6691 -0.2096  0.2779
   36SOL     vw  144   0.690   1.537   5.644 -0.1960 -0.0460 -0.1388
   37SOL     ow  145   1.688   0.501   3.680 -0.3801  0.5218 -0.1373
   37SOL     hw  146   1.728   0.530   3.763 -1.4151  0.4505  0.3963
   37SOL     hw  147   1.724   0.413   3.667  1.0118  1.1189 -0.5995
   37SOL     vw  148   1.698   0.494   3.689 -0.3331  0.5912 -0.1279
   38SOL     ow  149  -0.017   2.155   2.887 -0.2531  0.9553 -1.1612
   38SOL     hw  150  -0.035   2.075   2.938  0.7376  1.0648 -0.6211
   38SOL     hw  151   0.047   2.128   2.822 -0.8488  1.0314 -1.7890
   38SOL     vw  152  -0.011   2.141   2.885 -0.2009  0.9798 -1.1727
   39SOL     ow  153   2.259   0.901   3.625  0.0337  0.0988  0.0356
   39SOL     hw  154   2.206   0.837   3.673  0.8368  0.4583  1.4932
   39SOL     hw  155   2.209   0.982   3.630  0.3953  0.2836  0.8459
   39SOL     vw  156   2.246   0.903   3.632  0.1875  0.1706  0.3349
   40SOL     ow  157   2.253   1.484   5.458  0.2921  0.2406  0.0434
   40SOL     hw  158   2.275   1.547   5.390  2.8552  0.9221  1.4125
   40SOL     hw  159   2.202   1.534   5.522 -1.6244 -0.2645 -1.0144
   40SOL     vw  160   2.249   1.499   5.457  0.3774  0.2639  0.0842
   41SOL     ow  161   1.345   2.335   4.639  0.0250  0.7077  0.0660
   41SOL     hw  162   1.351   2.269   4.709  1.3370 -1.2188 -1.7285
   41SOL     hw  163   1.415   2.312   4.579  0.6517  3.9414 -0.5895
   41SOL     vw  164   1.355   2.323   4.640  0.2807  0.8801 -0.2575
   42SOL     ow  165   0.338   0.479   1.266 -0.4581  0.1043 -0.8770
   42SOL     hw  166   0.370   0.531   1.340 -0.1433 -0.6689 -0.4560
   42SOL     hw  167   0.398   0.499   1.194  1.2362 -1.5603 -0.0176
   42SOL     vw  168   0.350   0.488   1.266 -0.1930 -0.2173 -0.7080
   43SOL     ow  169   0.899   2.059   2.011 -0.0218 -0.6836 -0.0941
   43SOL     hw  170   0.903   1.966   1.988 -0.8728 -0.8421  0.3809
   43SOL     hw  171   0.811   2.086   1.986 -0.0076 -0.1679  0.3948
   43SOL     vw  172   0.888   2.050   2.004 -0.1322 -0.6365  0.0331
   44SOL     ow  173   1.284   1.572   1.753 -0.4281  0.4443  0.2112
   44SOL     hw  174   1.252   1.483   1.763  1.5044 -0.7780 -2.8218
   44SOL     hw  175   1.214   1.618   1.707  0.0562 -0.7882 -1.9214
   44SOL     vw  176   1.271   1.566   1.748 -0.1093  0.1204 -0.4702
   45SOL     ow  177   0.063   0.158   6.537 -0.3666 -0.7404  0.6044
   45SOL     hw  178   0.071   0.202   6.622 -0.6818 -2.5965  1.6345
   45SOL     hw  179  -0.031   0.139   6.529 -0.3502 -0.5332 -0.2119
   45SOL     vw  180   0.052   0.161   6.547 -0.4060 -0.9579  0.6325
   46SOL     ow  181   0.085   1.498   5.915  0.5178 -0.1680 -0.2079
   46SOL     hw  182   0.150   1.556   5.954 -0.4471  0.3326  0.6900
   46SOL     hw  183   0.001   1.543   5.928  0.0225 -0.5482 -1.8063
   46SOL     vw  184   0.083   1.512   5.921  0.3251 -0.1521 -0.2999
   47SOL     ow  185   1.034   2.036   3.219 -0.3806  0.5259 -0.1080
   47SOL     hw  186   1.070   2.124   3.226 -1.4520  0.9745  0.0149
   47SOL     hw  187   1.103   1.978   3.251  0.2067  1.3466  0.1312
   47SOL     vw  188   1.047   2.040   3.224 -0.4445  0.6934 -0.0602
   48SOL     ow  189   0.939   2.233   3.614 -0.0518 -0.1758  0.1867
   48SOL     hw  190   0.890   2.284   3.678 -1.5009 -1.6356  0.2912
   48SOL     hw  191   0.979   2.163   3.666  1.6033  0.5563 -0.0178
   48SOL     vw  192   0.938   2.231   3.629 -0.0246 -0.2718  0.1734
   49SOL     ow  193   0.292   0.634   4.599  0.0752 -0.3080  1.0726
   49SOL     hw  194   0.242   0.677   4.669 -0.8578 -1.4565  1.1580
   49SOL     hw  195   0.252   0.665   4.518 -1.0870 -1.4873  1.1445
   49SOL     vw  196   0.280   0.643   4.598 -0.2013 -0.6151  1.0934
   50SOL     ow  197   1.270   1.519   6.102 -0.2239 -0.0159  0.0487
   50SOL     hw  198   1.233   1.471   6.176 -1.0363 -0.4471 -0.6022
   50SOL     hw  199   1.214   1.493   6.028 -1.3142  2.6509 -0.1769
   50SOL     vw  200   1.257   1.509   6.102 -0.4749  0.2791 -0.0670
   51SOL     ow  201   0.040   1.150   4.378  0.2898 -0.1825 -0.3581
   51SOL     hw  202   0.118   1.186   4.420  0.8393 -2.5035  0.8259
   51SOL     hw  203   0.028   1.203   4.299  0.1796  3.3486  1.8241
   51SOL     vw  204   0.049   1.161   4.373  0.3477 -0.0229  0.0856
   52SOL     ow  205   1.731   0.485   1.651  0.3475 -0.2402  0.2599
   52SOL     hw  206   1.777   0.555   1.604 -0.1150  0.0616  0.2483
   52SOL     hw  207   1.694   0.430   1.583  1.7044 -1.1866  0.2503
   52SOL     vw  208   1.732   0.487   1.636  0.4655 -0.3252  0.2571
   53SOL     ow  209   0.930   1.253   2.363 -0.5816 -0.1075 -0.1987
   53SOL     hw  210   0.864   1.241   2.431 -0.4513 -1.8345 -0.3341
   53SOL     hw  211   0.886   1.224   2.283  0.7978 -2.9654 -0.0362
   53SOL     vw  212   0.915   1.248   2.361 -0.3824 -0.7125 -0.1950
   54SOL     ow  213   2.014   0.632   0.155 -0.7754  0.3019  0.0759
   54SOL     hw  214   1.960   0.556   0.175  2.3213 -2.3267 -0.7122
   54SOL     hw  215   2.052   0.658   0.240 -1.8594  1.0504  0.3500
   54SOL     vw  216   2.012   0.625   0.169 -0.5100  0.0539  0.0081
   55SOL     ow  217   0.228   1.041   3.224  0.3634  0.3692 -0.0451
   55SOL     hw  218   0.188   0.997   3.149  0.0812 -1.2031  0.9676
   55SOL     hw  219   0.184   1.125   3.230 -2.8539 -1.2134  0.9585
   55SOL     vw  220   0.217   1.046   3.215 -0.0983 -0.0471  0.2210
   56SOL     ow  221   1.952   0.373   1.776  0.1864 -0.9130  0.1516
   56SOL     hw  222   1.874   0.414   1.739  0.3886 -0.7808 -0.1307
   56SOL     hw  223   2.023   0.435   1.757  0.5788 -1.5998 -0.6915
   56SOL     vw  224   1.951   0.387   1.769  0.2648 -0.9862  0.0030
   57SOL     ow  225   1.259   0.855   4.885 -0.2432  0.0996  0.4185
   57SOL     hw  226   1.319   0.824   4.818 -0.8977  1.2458 -0.7449
   57SOL     hw  227   1.306   0.926   4.928 -0.0444 -0.2565  0.7931
   57SOL     vw  228   1.273   0.860   4.882 -0.3033  0.2038  0.3142
   58SOL     ow  229   1.513   1.784   6.082 -0.2651 -0.0381 -0.3530
   58SOL     hw  230   1.529   1.858   6.024  1.1375 -0.5359 -0.6213
   58SOL     hw  231   1.537   1.815   6.169  0.6203 -0.2654 -0.5115
   58SOL     vw  232   1.518   1.797   6.086  0.0367 -0.1338 -0.4094
   59SOL     ow  233   0.846   0.514   5.588  0.1777 -0.1497  0.2765
   59SOL     hw  234   0.794   0.585   5.551  0.8732  0.8468  1.1119
   59SOL     hw  235   0.934   0.528   5.552 -0.1886 -2.1717 -1.6051
   59SOL     vw  236   0.851   0.526   5.579  0.2211 -0.2850  0.1385
   60SOL     ow  237   0.932   1.012   6.124  0.1926  0.2425 -0.3997
   60SOL     hw  238   0.975   0.931   6.153  0.0597  0.7176  1.2181
   60SOL     hw  239   1.004   1.075   6.115  0.0418  0.6394  0.9096
   60SOL     vw  240   0.947   1.010   6.127  0.1552  0.3576 -0.0136
   61SOL     ow  241   0.092   2.103   5.415  0.2739 -0.8418 -0.1659
   61SOL     hw  242   0.001   2.100   5.446  0.4474  0.6063  0.5712
   61SOL     hw  243   0.084   2.117   5.321 -0.3302  1.6593  0.1848
   61SOL     vw  244   0.079   2.104   5.407  0.2171 -0.3208 -0.0224
   62SOL     ow  245   1.388   1.641   1.231 -0.5214  0.8917  0.3133
   62SOL     hw  246   1.476   1.667   1.203 -0.8438  2.6579  0.8418
   62SOL     hw  247   1.366   1.567   1.174  0.0384  2.4398 -2.0967
   62SOL     vw  248   1.397   1.635   1.220 -0.4901  1.3289  0.0650
   63SOL     ow  249   1.244   1.844   1.349 -0.0604  0.0584 -0.6021
   63SOL     hw  250   1.176   1.803   1.403 -0.9458  0.6514 -1.2292
   63SOL     hw  251   1.297   1.771   1.317  1.0829 -0.2612  1.7852
   63SOL     vw  252   1.242   1.829   1.352 -0.0264  0.0945 -0.3698
   64SOL     ow  253   0.327   2.203   0.314 -0.2173 -0.0000 -0.6034
   64SOL     hw  254   0.367   2.116   0.304 -1.0545 -0.3100 -1.3954
   64SOL     hw  255   0.303   2.208   0.407  3.0347  0.8417  0.3351
   64SOL     vw  256   0.329   2.192   0.325  0.1013  0.0701 -0.5841
   65SOL     ow  257   0.914   0.575   3.631  0.0503  0.6541  0.3010
   65SOL     hw  258   0.942   0.666   3.619  2.3237 -0.1851 -1.3985
   65SOL     hw  259   0.821   0.581   3.654  1.1042  3.6294  5.2879
   65SOL     vw  260   0.906   0.588   3.632  0.4893  0.9359  0.7346
   66SOL     ow  261   0.118   2.132   4.178 -0.9049 -0.1110 -0.2747
   66SOL     hw  262   0.129   2.078   4.099 -2.7097  1.3277 -1.5934
   66SOL     hw  263   0.034   2.105   4.215  0.1401 -1.1060  1.4926
   66SOL     vw  264   0.109   2.122   4.172 -1.0052 -0.0523 -0.2155
   67SOL     ow  265   0.645   0.686   3.035  0.4506 -0.6867  0.3612
   67SOL     hw  266   0.607   0.731   3.111  2.1518  1.5639 -0.0229
   67SOL     hw  267   0.698   0.616   3.074  1.6591  0.7087  1.3654
   67SOL     vw  268   0.647   0.683   3.050  0.8345 -0.2057  0.4430
   68SOL     ow  269   0.160   1.477   2.649 -0.3865  0.4217  0.9192
   68SOL     hw  270   0.248   1.512   2.629 -0.0922 -0.1927  1.1323
   68SOL     hw  271   0.127   1.448   2.564  1.4808 -3.6137  1.3794
   68SOL     vw  272   0.168   1.478   2.635 -0.1013 -0.1918  1.0079
   69SOL     ow  273   0.094   0.807   5.712 -0.1029  0.9151  0.0119
   69SOL     hw  274   0.118   0.741   5.648  1.3091  1.1915  0.2125
   69SOL     hw  275   0.150   0.788   5.788 -3.1996 -0.7734  2.1068
   69SOL     vw  276   0.105   0.796   5.714 -0.3252  0.7288  0.3145
   70SOL     ow  277   1.939   0.104   1.772  0.0863  0.1480 -0.1341
   70SOL     hw  278   1.951   0.197   1.755  0.5379  0.0789 -0.2093
   70SOL     hw  279   1.874   0.076   1.708 -0.9936  0.6639  0.6904
   70SOL     vw  280   1.932   0.113   1.762  0.0035  0.2070 -0.0353
   71SOL     ow  281   0.762   2.105   0.771  0.0500 -0.4968 -0.3237
   71SOL     hw  282   0.848   2.125   0.733 -0.1741  0.8135 -0.1920
   71SOL     hw  283   0.706   2.176   0.741 -0.9634 -1.2712 -0.2964
   71SOL     vw  284   0.766   2.117   0.762 -0.1133 -0.4261 -0.3027
   72SOL     ow  285   1.300   1.574   0.307 -0.3993 -0.3652  0.3587
   72SOL     hw  286   1.354   1.494   0.306  0.7122  0.2140  3.5064
   72SOL     hw  287   1.282   1.590   0.400 -0.2051  3.2937 -0.0906
   72SOL     vw  288   1.305   1.565   0.319 -0.2270  0.1940  0.7147
   73SOL     ow  289   1.874   0.416   0.886  0.5944  0.1284 -0.2856
   73SOL     hw  290   1.796   0.378   0.927  0.5828 -0.5350 -0.9117
   73SOL     hw  291   1.839   0.475   0.819  0.6336  0.2511 -0.2004
   73SOL     vw  292   1.859   0.419   0.883  0.5980  0.0571 -0.3570
   74SOL     ow  293   0.566   0.507   1.480  0.5009  0.1429  0.2706
   74SOL     hw  294   0.584   0.521   1.573  0.0263 -1.5427  0.6498
   74SOL     hw  295   0.653   0.494   1.441  0.6308 -0.4310  0.7272
   74SOL     vw  296   0.580   0.507   1.487  0.4554 -0.1552  0.3809
   75SOL     ow  297   1.257   2.355   2.494  0.1976 -0.1322  0.0402
   75SOL     hw  298   1.183   2.398   2.537  0.8288 -0.1496  1.1700
   75SOL     hw  299   1.253   2.387   2.404 -2.8095 -2.2179 -0.7591
   75SOL     vw  300   1.246   2.365   2.488 -0.1158 -0.4097  0.0838
   76SOL     ow  301   2.234   1.694   0.065 -0.5797 -0.0931 -0.3486
   76SOL     hw  302   2.247   1.719   0.157 -0.2200  0.3463 -0.5154
   76SOL     hw  303   2.291   1.753   0.016  1.2435 -2.0047 -0.6823
   76SOL     vw  304   2.243   1.705   0.071 -0.2917 -0.2874 -0.4146
   77SOL     ow  305   1.159   1.329   2.607  0.5444 -0.1156 -0.7976
   77SOL     hw  306   1.248   1.297   2.619  1.0347  1.5267  0.1548
   77SOL     hw  307   1.109   1.290   2.678  0.4018 -1.2893 -1.5142
   77SOL     vw  308   1.164   1.320   2.618  0.5903 -0.0538 -0.7665
   78SOL     ow  309   1.513   0.722   5.087 -0.1908  0.6445  0.2763
   78SOL     hw  310   1.584   0.694   5.030 -0.6270  0.9279 -0.4145
   78SOL     hw  311   1.517   0.817   5.087 -2.5346  0.8873 -2.4191
   78SOL     vw  312   1.523   0.731   5.079 -0.5576  0.7139 -0.1705
   79SOL     ow  313   2.275   1.597   2.755  0.2578 -0.6136  0.3280
   79SOL     hw  314   2.196   1.573   2.802  0.1463 -0.4904  0.2041
   79SOL     hw  315   2.244   1.642   2.676  0.4501 -0.5502  0.2869
   79SOL     vw  316   2.261   1.600   2.751  0.2685 -0.5890  0.3061
   80SOL     ow  317   0.114   1.033   3.488 -0.4182  0.8001  0.3085
   80SOL     hw  318   0.060   0.975   3.542 -0.3614  1.3340  0.9536
   80SOL     hw  319   0.130   1.109   3.544 -0.1618  1.2624 -0.3837
   80SOL     vw  320   0.109   1.035   3.503 -0.3768  0.9315  0.3022
   81SOL     ow  321   1.965   1.104   0.381 -0.2890 -0.4457  0.0219
   81SOL     hw  322   1.892   1.164   0.366  2.0954  2.3951 -1.2420
   81SOL     hw  323   1.987   1.114   0.473  0.2533  0.9637 -0.2307
   81SOL     vw  324   1.959   1.113   0.391  0.0972  0.1151 -0.1782
   82SOL     ow  325   1.763   2.270   5.691 -0.2066  0.3905 -0.7748
   82SOL     hw  326   1.838   2.322   5.718 -0.9514  0.5987  1.0715
   82SOL     hw  327   1.782   2.182   5.724 -1.6813  0.9115  1.8031
   82SOL     vw  328   1.776   2.265   5.699 -0.4994  0.4867 -0.1915
   83SOL     ow  329   2.266   2.206   1.994 -0.0820  0.3667  0.3675
   83SOL     hw  330   2.242   2.118   2.021 -0.4794  0.0597 -0.9002
   83SOL     hw  331   2.182   2.253   1.988 -0.1721  0.0790 -1.3897
   83SOL     vw  332   2.252   2.201   1.997 -0.1463  0.2885 -0.0315
   84SOL     ow  333   0.339   2.334   1.328 -0.1808 -0.3834 -0.6346
   84SOL     hw  334   0.348   2.272   1.401 -0.3405 -0.3167 -0.5582
   84SOL     hw  335   0.254   2.312   1.289 -0.2857 -0.1411 -0.5420
   84SOL     vw  336   0.329   2.323   1.333 -0.2158 -0.3426 -0.6123
   85SOL     ow  337   0.999   0.458   5.877  0.4471  0.2489  0.1318
   85SOL     hw  338   1.085   0.453   5.919 -0.1450  1.4521  1.5665
   85SOL     hw  339   0.970   0.547   5.892 -2.3299 -0.8776  2.3609
   85SOL     vw  340   1.006   0.469   5.885  0.0026  0.2590  0.6151
   86SOL     ow  341   1.782   0.900   0.350  0.3181 -0.4166 -0.3177
   86SOL     hw  342   1.791   0.867   0.439 -0.2890 -0.8697 -0.4168
   86SOL     hw  343   1.851   0.966   0.341 -0.1968  0.3077  0.7929
   86SOL     vw  344   1.792   0.905   0.360  0.1701 -0.3808 -0.1842
   87SOL     ow  345   0.059   0.468   4.533 -0.7444  0.0109 -0.1561
   87SOL     hw  346   0.034   0.543   4.586  0.3567  0.0002  0.4228
   87SOL     hw  347   0.154   0.460   4.546 -0.5635 -0.4451 -1.5496
   87SOL     vw  348   0.068   0.477   4.542 -0.5752 -0.0506 -0.2635
   88SOL     ow  349   1.013   0.680   4.894  0.2318 -0.1754 -0.5460
   88SOL     hw  350   1.030   0.660   4.801  0.7064  0.8898 -0.6948
   88SOL     hw  351   0.921   0.655   4.907  0.6923 -2.1877 -0.7804
   88SOL     vw  352   1.003   0.674   4.883  0.3551 -0.3003 -0.5965
   89SOL     ow  353   2.140   0.320   1.078 -0.2776  0.1979 -0.5020
   89SOL     hw  354   2.216   0.370   1.107 -1.2408  1.6488 -0.3513
   89SOL     hw  355   2.087   0.309   1.157  0.6301 -2.5000 -0.1825
   89SOL     vw  356   2.143   0.325   1.092 -0.2849  0.0334 -0.4400
   90SOL     ow  357   1.233   1.249   2.357 -0.2501 -0.6166 -0.2483
   90SOL     hw  358   1.238   1.153   2.361  1.5558 -0.5542 -0.3528
   90SOL     hw  359   1.297   1.279   2.421 -1.8380  0.5635  0.8652
   90SOL     vw  360   1.242   1.240   2.366 -0.2213 -0.4526 -0.1152
   91SOL     ow  361   1.483   0.559   1.730  0.6881  0.5045 -0.0404
   91SOL     hw  362   1.461   0.481   1.781  0.5859  0.1260 -0.6608
   91SOL     hw  363   1.579   0.558   1.726  0.8788  1.9595  2.3533
   91SOL     vw  364   1.493   0.549   1.736  0.6998  0.6466  0.1935
   92SOL     ow  365   1.399   2.133   2.703  0.4074  0.2677 -0.0064
   92SOL     hw  366   1.362   2.048   2.677 -2.0070  1.6245 -1.3041
   92SOL     hw  367   1.368   2.146   2.792 -2.3806  1.3140 -1.0207
   92SOL     vw  368   1.390   2.123   2.711 -0.2790  0.5847 -0.3114
   93SOL     ow  369   0.038   2.174   5.158 -0.1054  0.1527  0.2903
   93SOL     hw  370  -0.056   2.188   5.146 -0.1266  0.3150  0.6314
   93SOL     hw  371   0.056   2.092   5.112 -0.2636  0.5278 -0.4502
   93SOL     vw  372   0.028   2.165   5.150 -0.1291  0.2238  0.2377
   94SOL     ow  373   0.769   0.677   0.515  0.4651 -0.2253  0.0453
   94SOL     hw  374   0.727   0.708   0.435  0.3952 -0.7412 -0.1198
   94SOL     hw  375   0.732   0.590   0.530 -0.1845  0.2178  1.1241
   94SOL     vw  376   0.758   0.670   0.506  0.3702 -0.2349  0.1658
   95SOL     ow  377   0.326   0.191   6.385  0.6630  0.0518 -0.0236
   95SOL     hw  378   0.358   0.119   6.440  0.5582 -0.2170 -0.3132
   95SOL     hw  379   0.400   0.252   6.380  1.3413 -0.8195 -1.1408
   95SOL     vw  380   0.340   0.190   6.392  0.7387 -0.0986 -0.2091
   96SOL     ow  381   1.419   0.805   6.551 -0.5978  0.1164  0.3509
   96SOL     hw  382   1.428   0.900   6.549  1.2302  0.0460 -3.3781
   96SOL     hw  383   1.372   0.783   6.471  0.0832 -2.1787  0.4946
   96SOL     vw  384   1.414   0.814   6.540 -0.2667 -0.1957 -0.1223
   97SOL     ow  385   1.161   1.793   0.121  0.4204 -0.2961 -0.3190
   97SOL     hw  386   1.146   1.864   0.183  0.1449 -0.3166 -0.3606
   97SOL     hw  387   1.081   1.741   0.124  0.4315 -0.3358 -0.6392
   97SOL     vw  388   1.149   1.796   0.129  0.3855 -0.3040 -0.3667
   98SOL     ow  389   2.190   0.619   6.524  0.3956  1.6975 -0.3047
   98SOL     hw  390   2.166   0.568   6.447  0.2727  1.0170  0.1703
   98SOL     hw  391   2.286   0.613   6.527  0.3285  0.7576  0.2306
   98SOL     vw  392   2.200   0.611   6.515  0.3705  1.4837 -0.1714
   99SOL     ow  393   0.449   1.296   5.576 -0.3951 -0.4342 -0.1788
   99SOL     hw  394   0.376   1.314   5.517  0.5773  3.7826 -0.3566
   99SOL     hw  395   0.523   1.278   5.517 -0.4000 -0.7814 -0.0832
   99SOL     vw  396   0.450   1.296   5.560 -0.2674  0.0764 -0.1898
  100SOL     ow  397   1.358   0.178   4.847 -0.1323 -0.1593 -0.1964
  100SOL     hw  398   1.303   0.123   4.903  0.6961 -0.8565 -0.0406
  100SOL     hw  399   1.383   0.252   4.903  0.5195 -0.7448  0.3132
  100SOL     vw  400   1.354   0.181   4.862  0.0630 -0.3285 -0.1087
  101SOL     ow  401   0.787   0.362   6.233 -0.3202 -0.3997 -0.2421
  101SOL     hw  402   0.759   0.376   6.143  0.3565 -0.2970 -0.4432
  101SOL     hw  403   0.872   0.318   6.225  0.1980  0.4674  0.3260
  101SOL     vw  404   0.794   0.358   6.220 -0.1625 -0.2718 -0.1934
  102SOL     ow  405   1.444   1.823   0.113  0.5685  0.0695 -0.0160
  102SOL     hw  406   1.503   1.868   0.173 -0.3098  0.7306  0.3761
  102SOL     hw  407   1.414   1.892   0.054  0.5881 -0.3667 -0.5379
  102SOL     vw  408   1.448   1.838   0.113  0.4552  0.0991 -0.0331
  103SOL     ow  409   1.176   0.602   1.185  0.6568 -0.2800 -0.8657
  103SOL     hw  410   1.175   0.535   1.116  0.3677 -0.4085 -0.7393
  103SOL     hw  411   1.103   0.578   1.243 -0.8267  1.3266 -1.9661
  103SOL     vw  412   1.166   0.590   1.184  0.4230 -0.0849 -0.9943
  104SOL     ow  413   1.781   1.457   3.492  0.0848 -0.4037  0.7578
  104SOL     hw  414   1.752   1.367   3.482 -0.6770 -0.1128  0.2270
  104SOL     hw  415   1.821   1.479   3.408 -0.4197 -0.0149  0.6124
  104SOL     vw  416   1.783   1.448   3.479 -0.0823 -0.3140  0.6685
  105SOL     ow  417   1.257   1.359   1.020  0.1141  0.0666  0.1662
  105SOL     hw  418   1.177   1.348   0.969  0.7883 -1.6249 -0.6049
  105SOL     hw  419   1.328   1.341   0.958  1.1222  1.4145  0.8578
  105SOL     vw  420   1.256   1.355   1.005  0.3360  0.0212  0.1557
  106SOL     ow  421   0.414   0.429   2.991  0.4513  0.1219 -0.0900
  106SOL     hw  422   0.461   0.346   2.998 -1.0929 -0.7148  0.6560
  106SOL     hw  423   0.336   0.409   2.940 -0.4051  0.9005  0.8775
  106SOL     vw  424   0.410   0.415   2.985  0.1345  0.1142  0.1360
  107SOL     ow  425   0.305   1.341   1.831 -0.0360  0.0187  0.9397
  107SOL     hw  426   0.222   1.366   1.872 -0.3089 -0.2452  0.5565
  107SOL     hw  427   0.284   1.333   1.738  1.1709  3.4131  0.2275
  107SOL     vw  428   0.291   1.343   1.824  0.0872  0.4317  0.7951
  108SOL     ow  429   2.060   0.347   1.368 -0.4029 -0.5872 -0.1650
  108SOL     hw  430   1.984   0.304   1.407 -1.5982  0.7870 -0.9217
  108SOL     hw  431   2.042   0.440   1.376  1.8480 -0.1551  0.8846
  108SOL     vw  432   2.048   0.353   1.374 -0.2637 -0.3489 -0.1264
  109SOL     ow  433   1.317   1.894   2.580  0.0200 -1.0705  0.4276
  109SOL     hw  434   1.400   1.900   2.533  0.1057 -0.0461  0.6772
  109SOL     hw  435   1.259   1.846   2.521  0.6391 -1.3589  0.0416
  109SOL     vw  436   1.320   1.888   2.566  0.1131 -0.9734  0.4097
  110SOL     ow  437   1.316   0.070   2.237 -0.3659 -0.1344  0.2493
  110SOL     hw  438   1.258   0.141   2.208  0.1387 -0.5299 -1.9603
  110SOL     hw  439   1.310   0.005   2.166  0.8908 -1.2849  1.1619
  110SOL     vw  440   1.307   0.071   2.224 -0.1335 -0.3384  0.0781
  111SOL     ow  441   0.070   1.113   2.429 -0.4215  0.4360  0.4392
  111SOL     hw  442   0.006   1.062   2.478  0.6342  2.0395  3.7804
  111SOL     hw  443   0.102   1.053   2.362 -1.2547 -2.3402  2.3527
  111SOL     vw  444   0.066   1.099   2.427 -0.3922  0.2812  1.1325
  112SOL     ow  445   0.808   0.915   2.186  0.5423 -0.3393 -0.0188
  112SOL     hw  446   0.871   0.886   2.120 -0.3462  0.2999 -1.1668
  112SOL     hw  447   0.802   1.010   2.173 -1.1248 -0.4610 -0.3617
  112SOL     vw  448   0.816   0.924   2.176  0.2052 -0.2710 -0.2156
  113SOL     ow  449   2.146   0.334   0.797 -0.0413 -0.5194  0.3429
  113SOL     hw  450   2.180   0.395   0.732 -2.1501  2.0082  1.4203
  113SOL     hw  451   2.220   0.279   0.820  1.8146  1.1866 -1.2332
  113SOL     vw  452   2.160   0.335   0.792 -0.0747  0.0391  0.2771
  114SOL     ow  453   1.667   2.144   0.567 -0.0023  0.0773  0.0249
  114SOL     hw  454   1.756   2.115   0.587  0.3321  1.0372 -0.0294
  114SOL     hw  455   1.669   2.239   0.579 -0.7636  0.2310 -0.9265
  114SOL     vw  456   1.679   2.153   0.571 -0.0587  0.2242 -0.1077
  115SOL     ow  457   0.574   1.237   1.877  0.0479 -0.1034  0.2895
  115SOL     hw  458   0.561   1.230   1.972 -0.8996 -1.0598  0.1112
  115SOL     hw  459   0.638   1.169   1.856 -0.5376 -0.6097  0.1115
  115SOL     vw  460   0.581   1.227   1.887 -0.1543 -0.2964  0.2425
  116SOL     ow  461   2.032   0.141   4.065 -0.1787  0.0524  0.1714
  116SOL     hw  462   2.008   0.231   4.042  0.0186  0.3057  0.9209
  116SOL     hw  463   2.036   0.141   4.161  0.2898 -0.6374  0.1617
  116SOL     vw  464   2.029   0.153   4.074 -0.0910 -0.0052  0.2692
  117SOL     ow  465   1.465   2.181   0.354  0.0304 -0.1340  0.0759
  117SOL     hw  466   1.406   2.239   0.402 -0.6718 -2.2093  1.8902
  117SOL     hw  467   1.410   2.140   0.288  0.0975  0.0026 -0.0630
  117SOL     vw  468   1.450   2.183   0.352 -0.0534 -0.3898  0.2970
  118SOL     ow  469   1.348   1.575   6.633  0.0414 -0.1032  0.3359
  118SOL     hw  470   1.315   1.604   6.548 -3.4338 -0.3259  1.4609
  118SOL     hw  471   1.372   1.484   6.619 -0.3586 -0.0951 -0.4738
  118SOL     vw  472   1.347   1.567   6.620 -0.4700 -0.1315  0.3774
  119SOL     ow  473   1.799  -0.002   3.351 -0.0857 -0.7417  0.0451
  119SOL     hw  474   1.870   0.010   3.415 -0.1527  1.8449 -0.2631
  119SOL     hw  475   1.843   0.002   3.266 -0.4824  0.1568 -0.1305
  119SOL     vw  476   1.814   0.000   3.349 -0.1469 -0.2819 -0.0188
  120SOL     ow  477   1.975   2.069   2.095  0.4638  0.4617 -0.2974
  120SOL     hw  478   1.880   2.084   2.097  0.3563 -0.0301 -1.1153
  120SOL     hw  479   1.985   1.983   2.055  1.2527  0.3881  0.0380
  120SOL     vw  480   1.963   2.060   2.090  0.5537  0.3872 -0.3611
  121SOL     ow  481   0.564   0.840   1.999 -0.2252 -0.9810  0.4884
  121SOL     hw  482   0.491   0.789   1.965  0.0783 -2.0806  1.4300
  121SOL     hw  483   0.632   0.831   1.932 -0.1049 -1.9860  0.7324
  121SOL     vw  484   0.563   0.832   1.985 -0.1693 -1.2587  0.6448
  122SOL     ow  485   0.832   1.224   2.101  0.3365 -0.1684 -0.8788
  122SOL     hw  486   0.844   1.201   2.009 -0.5784  1.7571 -1.5451
  122SOL     hw  487   0.873   1.310   2.109  1.1621 -0.6815  0.7454
  122SOL     vw  488   0.839   1.233   2.090  0.3247  0.0180 -0.7524
  123SOL     ow  489   0.161   0.752   4.783 -0.3388  0.6410  0.3579
  123SOL     hw  490   0.207   0.827   4.821 -0.1031  1.4321 -1.3719
  123SOL     hw  491   0.069   0.774   4.792 -0.2656  1.3954 -0.5665
  123SOL     vw  492   0.155   0.765   4.789 -0.2980  0.8449  0.0076
  124SOL     ow  493   1.762   0.756   5.706 -0.1974 -0.6013  0.2234
  124SOL     hw  494   1.734   0.810   5.779  1.2245  2.6941 -1.4570
  124SOL     hw  495   1.690   0.761   5.643  0.5569  0.6459 -0.5582
  124SOL     vw  496   1.749   0.763   5.707  0.0897 -0.0019 -0.1016
  125SOL     ow  497   0.162   1.766   2.725 -0.5960 -0.2915 -0.0414
  125SOL     hw  498   0.242   1.806   2.758 -1.5110  0.8425  0.8802
  125SOL     hw  499   0.139   1.816   2.647  0.5749 -1.8144 -1.4237
  125SOL     vw  500   0.169   1.778   2.719 -0.5623 -0.3428 -0.1023
  126SOL     ow  501   0.638   1.874   0.893  0.1267 -0.0877  0.2964
  126SOL     hw  502   0.566   1.893   0.832 -0.4510 -0.5738  0.8131
  126SOL     hw  503   0.624   1.783   0.920 -0.5720  0.5792  2.3770
  126SOL     vw  504   0.627   1.865   0.889 -0.0417 -0.0638  0.6391
  127SOL     ow  505   0.698   1.577   5.911  0.5689 -0.6803  0.2744
  127SOL     hw  506   0.683   1.669   5.933  1.0727 -0.2951 -0.9279
  127SOL     hw  507   0.784   1.557   5.947  0.1223 -0.9396  1.2483
  127SOL     vw  508   0.707   1.587   5.918  0.5765 -0.6637  0.2444
  128SOL     ow  509   0.788   0.867   4.826 -0.1532 -0.2778 -0.8186
  128SOL     hw  510   0.882   0.883   4.833 -0.1673 -0.8463  1.6984
  128SOL     hw  511   0.753   0.946   4.785  1.4881 -0.4935 -2.7972
  128SOL     vw  512   0.796   0.880   4.821  0.0615 -0.3813 -0.7474
  129SOL     ow  513   1.927   1.789   2.053  0.9554  0.3040  0.1157
  129SOL     hw  514   1.982   1.735   2.110 -0.3366 -0.6233  0.5528
  129SOL     hw  515   1.842   1.790   2.097 -0.1318 -0.5613 -1.8607
  129SOL     vw  516   1.923   1.782   2.067  0.6415  0.0675 -0.0875
  130SOL     ow  517   1.152   1.154   1.240 -0.6631  0.3752  0.2541
  130SOL     hw  518   1.102   1.077   1.215 -0.9466  0.8724 -0.7173
  130SOL     hw  519   1.100   1.195   1.310 -0.8694  0.0923  0.2686
  130SOL     vw  520   1.139   1.149   1.246 -0.7277  0.4035  0.1278
  131SOL     ow  521   0.501   0.898   2.286 -0.1065  0.3889 -0.8688
  131SOL     hw  522   0.444   0.974   2.272 -0.1129  1.0699  2.1616
  131SOL     hw  523   0.445   0.835   2.331  0.8190 -0.0158 -0.2673
  131SOL     vw  524   0.486   0.900   2.290  0.0148  0.4253 -0.3896
  132SOL     ow  525   2.159   1.123   1.961 -0.2947  0.4690 -0.3138
  132SOL     hw  526   2.171   1.208   1.919  1.0980  0.5844  0.2719
  132SOL     hw  527   2.195   1.061   1.898 -1.5744  0.2513 -0.8706
  132SOL     vw  528   2.165   1.126   1.947 -0.2795  0.4556 -0.3100
  133SOL     ow  529   1.876   0.404   0.198  0.3076 -0.0515 -0.4693
  133SOL     hw  530   1.826   0.455   0.262 -1.3689 -1.6895 -0.3586
  133SOL     hw  531   1.953   0.375   0.246  1.3890  2.3911 -0.5815
  133SOL     vw  532   1.880   0.407   0.213  0.2291  0.0546 -0.4695
  134SOL     ow  533   1.816   1.637   1.842 -0.3198  0.1278  0.0543
  134SOL     hw  534   1.874   1.680   1.905 -0.7405  0.4195  0.2465
  134SOL     hw  535   1.856   1.655   1.757 -0.8231  1.4628  0.0719
  134SOL     vw  536   1.829   1.645   1.839 -0.4418  0.3424  0.0820
  135SOL     ow  537   0.308   1.587   1.065 -0.7132 -0.4727 -0.0036
  135SOL     hw  538   0.393   1.544   1.073  1.0422  2.1917 -2.4866
  135SOL     hw  539   0.287   1.583   0.972 -2.7085  0.0366  0.3731
  135SOL     vw  540   0.317   1.581   1.054 -0.7448 -0.0539 -0.2815
  136SOL     ow  541   0.341   1.337   5.828 -0.8991  0.1579  0.1054
  136SOL     hw  542   0.364   1.416   5.877  0.0471 -1.0244  1.6747
  136SOL     hw  543   0.408   1.330   5.760 -0.1478 -0.0106  0.8435
  136SOL     vw  544   0.353   1.347   5.826 -0.6751 -0.0203  0.4096
  137SOL     ow  545   1.735   0.016   2.005  0.1631  0.2053  0.0712
  137SOL     hw  546   1.700   0.041   2.090 -1.1906  0.6169 -0.5873
  137SOL     hw  547   1.675  -0.050   1.972  0.1894  0.6738 -0.9393
  137SOL     vw  548   1.723   0.011   2.012 -0.0121  0.3214 -0.1490
  138SOL     ow  549   1.448   0.865   1.619  0.4433  0.5926  0.2950
  138SOL     hw  550   1.391   0.935   1.652  1.0317  1.3226 -0.2188
  138SOL     hw  551   1.510   0.910   1.562  0.8569 -0.3506 -0.0035
  138SOL     vw  552   1.448   0.880   1.616  0.5755  0.5645  0.1878
  139SOL     ow  553   0.567   1.696   5.429  0.5370  0.5658  0.2430
  139SOL     hw  554   0.595   1.649   5.507 -2.3477 -1.5595  0.1887
  139SOL     hw  555   0.489   1.648   5.399  1.1930  1.5846 -3.6429
  139SOL     vw  556   0.560   1.683   5.435  0.2430  0.4199 -0.2768
  140SOL     ow  557   0.626   1.486   1.725  0.2335 -0.1459  0.6312
  140SOL     hw  558   0.667   1.573   1.717 -0.2799 -0.0468 -1.1519
  140SOL     hw  559   0.695   1.425   1.698 -0.2163 -0.0895 -0.7181
  140SOL     vw  560   0.641   1.490   1.721  0.1064 -0.1255  0.2179
  141SOL     ow  561   1.794   1.704   3.705 -0.0361  0.5483  0.4730
  141SOL     hw  562   1.847   1.743   3.636  0.8511  0.1672  0.9259
  141SOL     hw  563   1.709   1.749   3.698  0.9769  2.6675  1.0694
  141SOL     vw  564   1.789   1.715   3.695  0.2145  0.7776  0.6114
  142SOL     ow  565   2.308   0.707   1.065 -0.4521  0.2615 -0.4140
  142SOL     hw  566   2.234   0.685   1.008  0.0168 -0.0943 -0.9051
  142SOL     hw  567   2.363   0.629   1.064  0.8620  1.1468 -1.5698
  142SOL     vw  568   2.306   0.694   1.057 -0.2170  0.3314 -0.6313
  143SOL     ow  569   1.519   0.715   3.502  0.2134 -0.0198 -0.4356
  143SOL     hw  570   1.513   0.724   3.407 -2.2100 -0.2704 -0.3648
  143SOL     hw  571   1.494   0.802   3.536  0.4119 -0.1204 -0.0184
  143SOL     vw  572   1.515   0.728   3.494 -0.0801 -0.0661 -0.3711
  144SOL     ow  573   0.684   0.112   6.382  0.4118  0.5510  0.6323
  144SOL     hw  574   0.753   0.053   6.352  0.8093  2.0177 -1.6821
  144SOL     hw  575   0.649   0.072   6.461  1.3577 -2.1754 -0.2399
  144SOL     vw  576   0.689   0.099   6.388  0.5890  0.3848  0.2122
  145SOL     ow  577   1.905   0.510   6.538  0.3733 -0.5438  0.5411
  145SOL     hw  578   1.863   0.460   6.608 -2.1889  0.4242 -0.1997
  145SOL     hw  579   1.863   0.480   6.458  0.5046  1.0428 -0.1656
  145SOL     vw  580   1.894   0.500   6.537  0.0526 -0.2068  0.3500
  146SOL     ow  581   0.516   2.332   4.003  0.0752 -0.7935  0.0211
  146SOL     hw  582   0.554   2.250   3.970  1.4303  0.5095 -1.9355
  146SOL     hw  583   0.422   2.318   3.998  0.2456 -1.7008 -1.9511
  146SOL     vw  584   0.509   2.319   3.998  0.2764 -0.7412 -0.4973
  147SOL     ow  585   0.658   1.247   3.897  0.0570 -0.0916 -0.0400
  147SOL     hw  586   0.669   1.310   3.826  0.5387 -1.0790 -0.8646
  147SOL     hw  587   0.566   1.220   3.891  0.4634 -1.3515 -1.3516
  147SOL     vw  588   0.647   1.252   3.887  0.1741 -0.3881 -0.3219
  148SOL     ow  589   0.427   1.535   5.967  0.1796  0.0591  0.2320
  148SOL     hw  590   0.445   1.514   6.059  0.9231 -1.2653 -0.1923
  148SOL     hw  591   0.514   1.550   5.929  0.2252 -2.7424 -1.0014
  148SOL     vw  592   0.441   1.534   5.974  0.2837 -0.4853  0.0131
  149SOL     ow  593   1.428   1.260   2.534 -0.2861 -0.4300 -0.4317
  149SOL     hw  594   1.453   1.173   2.564  1.6040 -0.5557 -2.1740
  149SOL     hw  595   1.506   1.314   2.548 -1.1384  0.7811 -0.1784
  149SOL     vw  596   1.441   1.256   2.540 -0.1492 -0.2868 -0.6282
  150SOL     ow  597   2.337   2.322   3.170 -0.2909  0.1631  0.0610
  150SOL     hw  598   2.328   2.322   3.265 -0.8163 -0.9651  0.0251
  150SOL     hw  599   2.267   2.379   3.139 -0.5267  0.0153  0.3198
  150SOL     vw  600   2.326   2.330   3.178 -0.3914 -0.0054  0.0904
  151SOL     ow  601   2.111   1.309   5.272 -0.7029 -0.4081  0.2186
  151SOL     hw  602   2.173   1.352   5.332  0.7028 -1.2037 -0.6077
  151SOL     hw  603   2.072   1.381   5.222  0.1635  0.0668  0.1990
  151SOL     vw  604   2.114   1.324   5.273 -0.4030 -0.4504  0.1073
  152SOL     ow  605   0.527   0.180   3.793 -0.2643 -0.0527  0.4191
  152SOL     hw  606   0.492   0.129   3.719 -0.0745 -1.1068  1.0453
  152SOL     hw  607   0.473   0.259   3.794 -1.7662 -1.0429  0.5269
  152SOL     vw  608   0.515   0.183   3.783 -0.4374 -0.3224  0.5161
  153SOL     ow  609   2.107   0.132   5.021 -0.8123  0.3062 -0.4008
  153SOL     hw  610   2.018   0.124   5.056 -0.1776 -1.9769  0.9235
  153SOL     hw  611   2.136   0.041   5.009  1.5412  0.9783 -0.2124
  153SOL     vw  612   2.099   0.119   5.024 -0.4179  0.0936 -0.2012
  154SOL     ow  613   0.997   2.343   2.206 -0.4563  0.3645  0.2492
  154SOL     hw  614   1.001   2.391   2.123  0.8487  0.5307  0.3905
  154SOL     hw  615   0.983   2.411   2.272 -0.1569  0.3827  0.2948
  154SOL     vw  616   0.996   2.359   2.203 -0.2446  0.3889  0.2737
  155SOL     ow  617   1.820   0.227   3.630  0.6239  0.1869  0.5720
  155SOL     hw  618   1.764   0.162   3.588 -2.2388  2.0268  1.2781
  155SOL     hw  619   1.866   0.179   3.698 -0.0343 -1.4251 -0.0734
  155SOL     vw  620   1.819   0.212   3.633  0.1593  0.2170  0.5801
  156SOL     ow  621   0.142   0.868   3.742  0.2141  0.4545 -0.1759
  156SOL     hw  622   0.142   0.773   3.732 -0.8685  0.4606 -0.3895
  156SOL     hw  623   0.050   0.891   3.754  0.6421  1.2198  2.3901
  156SOL     vw  624   0.130   0.859   3.742  0.1277  0.5562  0.1343
  157SOL     ow  625   2.203   0.412   5.115 -0.3944 -0.3311  0.0352
  157SOL     hw  626   2.138   0.479   5.095 -0.2576 -0.7882 -2.1696
  157SOL     hw  627   2.168   0.365   5.191 -1.3800  1.0185  0.4457
  157SOL     vw  628   2.190   0.415   5.123 -0.5064 -0.2134 -0.2017
  158SOL     ow  629   1.539   1.823   4.445  0.1998 -0.2283  0.5517
  158SOL     hw  630   1.609   1.769   4.409  0.7130 -0.6457  2.1039
  158SOL     hw  631   1.517   1.885   4.375  1.2438 -0.8995 -0.3932
  158SOL     vw  632   1.545   1.824   4.431  0.4053 -0.3719  0.6318
  159SOL     ow  633   1.041   1.937   5.239 -0.4351  0.2696 -0.2166
  159SOL     hw  634   1.133   1.922   5.218 -1.0779  1.1776 -4.4367
  159SOL     hw  635   1.027   2.030   5.222 -1.8772  0.4905  1.8038
  159SOL     vw  636   1.051   1.947   5.234 -0.7102  0.4185 -0.5071
  160SOL     ow  637   2.261   0.521   6.214  0.7035  0.2532  0.7768
  160SOL     hw  638   2.233   0.496   6.126 -0.0229 -0.8484  1.2956
  160SOL     hw  639   2.290   0.612   6.206 -0.9447  0.7122 -0.2547
  160SOL     vw  640   2.261   0.530   6.202  0.3902  0.1684  0.7091
  161SOL     ow  641   0.553   0.709   4.797 -0.6919  0.5790 -0.0800
  161SOL     hw  642   0.620   0.776   4.788 -0.1981  0.0259 -0.6056
  161SOL     hw  643   0.576   0.661   4.876 -0.9984  0.9615  0.2502
  161SOL     vw  644   0.565   0.712   4.806 -0.6672  0.5565 -0.1056
  162SOL     ow  645   2.061   2.374   3.477 -0.2496 -0.1249 -0.0144
  162SOL     hw  646   2.099   2.461   3.464 -0.6701  0.2433  1.1290
  162SOL     hw  647   2.132   2.314   3.454  0.2808  0.5274 -0.1192
  162SOL     vw  648   2.076   2.378   3.472 -0.2351  0.0098  0.1227
  163SOL     ow  649   1.331   0.576   1.487 -0.4482  0.1261 -1.3138
  163SOL     hw  650   1.406   0.518   1.477  1.4989  2.7106 -3.0220
  163SOL     hw  651   1.272   0.552   1.416 -0.3535 -0.6914 -1.1185
  163SOL     vw  652   1.333   0.566   1.476 -0.1788  0.3593 -1.5134
  164SOL     ow  653   1.538   0.568   0.027  0.6353 -0.2585  0.4980
  164SOL     hw  654   1.585   0.484   0.016  0.8598 -0.0141 -0.5446
  164SOL     hw  655   1.462   0.560  -0.031  1.2841  0.6981 -0.5122
  164SOL     vw  656   1.534   0.556   0.018  0.7505 -0.1000  0.2272
  165SOL     ow  657   2.128   1.271   4.936 -0.2176  0.0353 -0.4584
  165SOL     hw  658   2.148   1.182   4.907 -0.3222 -0.2844  0.4263
  165SOL     hw  659   2.176   1.281   5.018  0.0625  0.9177 -0.7199
  165SOL     vw  660   2.137   1.261   4.943 -0.1944  0.1096 -0.3762
  166SOL     ow  661   1.949   0.253   2.023  0.6941  0.2078 -0.0256
  166SOL     hw  662   1.901   0.284   2.099  0.4112  0.3960 -0.2782
  166SOL     hw  663   1.924   0.312   1.952 -1.7674 -1.9461 -1.1326
  166SOL     vw  664   1.940   0.265   2.024  0.3321 -0.0516 -0.2049
  167SOL     ow  665   0.983   0.697   0.762 -0.4065 -0.4771  0.3639
  167SOL     hw  666   1.022   0.666   0.680 -3.3286 -1.9582 -0.6063
  167SOL     hw  667   0.985   0.621   0.820  0.9575  0.3523  1.4863
  167SOL     vw  668   0.989   0.683   0.759 -0.6121 -0.5631  0.3840
  168SOL     ow  669   1.416   0.053   2.768 -0.4389 -0.0860  0.1970
  168SOL     hw  670   1.368   0.061   2.850 -0.2289 -0.3593  0.3491
  168SOL     hw  671   1.463   0.136   2.759 -3.8260  1.8330 -1.8477
  168SOL     vw  672   1.416   0.065   2.777 -0.8581  0.1311 -0.0528
  169SOL     ow  673   0.225   0.397   2.803  0.3386 -0.4260 -0.0179
  169SOL     hw  674   0.256   0.404   2.712 -0.9513  0.4959 -0.4113
  169SOL     hw  675   0.143   0.447   2.804  0.4777 -0.1968  1.7334
  169SOL     vw  676   0.218   0.404   2.791  0.1868 -0.2741  0.1614
  170SOL     ow  677   0.938   0.466   3.903  1.0728  0.0654  0.0601
  170SOL     hw  678   0.975   0.455   3.991  1.8711 -2.6033 -0.5307
  170SOL     hw  679   0.844   0.456   3.914  1.2144 -0.7932  0.5724
  170SOL     vw  680   0.931   0.463   3.916  1.1968 -0.4000  0.0497
  171SOL     ow  681   1.559  -0.018   2.533  0.6327 -1.0250 -0.0642
  171SOL     hw  682   1.636   0.028   2.567  0.9805 -2.1440  0.7150
  171SOL     hw  683   1.557   0.003   2.439  1.4199 -0.3511  0.0637
  171SOL     vw  684   1.569  -0.009   2.525  0.7824 -1.0837  0.0556
  172SOL     ow  685   0.381   0.989   3.758  0.1048  0.4828 -0.4312
  172SOL     hw  686   0.370   1.018   3.667  1.6857 -1.0044 -1.1345
  172SOL     hw  687   0.305   0.932   3.774 -1.4683  2.5533  0.0319
  172SOL     vw  688   0.369   0.985   3.748  0.1058  0.5598 -0.4629
  173SOL     ow  689   1.587   0.099   2.265 -0.3836 -0.3371 -0.1920
  173SOL     hw  690   1.492   0.107   2.262 -0.4475 -0.9076 -3.3405
  173SOL     hw  691   1.619   0.189   2.278 -1.3179 -0.0348  0.0545
  173SOL     vw  692   1.579   0.112   2.266 -0.5153 -0.3725 -0.5749
  174SOL     ow  693   0.958   0.824   2.010 -0.2126 -0.0929 -0.3316
  174SOL     hw  694   1.041   0.869   1.997  0.1600 -0.6828 -0.0424
  174SOL     hw  695   0.959   0.752   1.947 -1.2169  0.8258 -1.4599
  174SOL     vw  696   0.969   0.820   2.000 -0.2960 -0.0495 -0.4420
  175SOL     ow  697   1.264   1.639   4.430 -0.0727  0.0610  1.0396
  175SOL     hw  698   1.209   1.656   4.353 -0.2799 -0.4265  1.0760
  175SOL     hw  699   1.272   1.544   4.433  0.3325  0.1027  1.3490
  175SOL     vw  700   1.258   1.629   4.420 -0.0466  0.0022  1.0853
  176SOL     ow  701   0.332   0.950   5.864 -0.5414  0.6566 -0.0274
  176SOL     hw  702   0.302   0.929   5.953 -1.6032  0.7454 -0.3424
  176SOL     hw  703   0.418   0.909   5.857 -0.4675  0.6033  1.0234
  176SOL     vw  704   0.339   0.942   5.875 -0.6717  0.6613  0.0699
  177SOL     ow  705   2.034   2.320   2.021  0.1084 -0.2993  0.4387
  177SOL     hw  706   2.075   2.349   2.103 -2.4408  1.0225  1.3625
  177SOL     hw  707   2.032   2.225   2.027  3.1264 -0.4583  0.2101
  177SOL     vw  708   2.039   2.312   2.033  0.1705 -0.1459  0.5305
  178SOL     ow  709   1.057   1.999   3.779 -0.2864  0.0457  0.1291
  178SOL     hw  710   1.115   1.985   3.705  0.9136 -1.4559  1.2702
  178SOL     hw  711   1.094   1.944   3.849 -1.7970  0.8003  1.5978
  178SOL     vw  712   1.069   1.990   3.779 -0.3274 -0.0529  0.4734
  179SOL     ow  713   0.265   2.044   4.368  0.4788  0.3269 -0.0191
  179SOL     hw  714   0.224   2.090   4.296 -1.7128  1.0418  1.5872
  179SOL     hw  715   0.341   2.097   4.391 -0.1249  1.3451 -0.3279
  179SOL     vw  716   0.270   2.057   4.362  0.1100  0.5556  0.1519
  180SOL     ow  717   0.236   1.977   5.646  0.1508  0.5681 -0.1636
  180SOL     hw  718   0.226   1.900   5.589  0.1103  0.0963  0.4707
  180SOL     hw  719   0.301   1.950   5.711 -1.0551  0.4713  1.0537
  180SOL     vw  720   0.243   1.963   5.647 -0.0136  0.4931  0.0808
  181SOL     ow  721   2.226   2.105   4.294  0.1528 -0.3273  0.5171
  181SOL     hw  722   2.184   2.041   4.236 -0.8867  0.1913  0.6705
  181SOL     hw  723   2.173   2.103   4.373  0.4759  0.2898  0.7539
  181SOL     vw  724   2.213   2.096   4.297  0.0582 -0.1775  0.5689
  182SOL     ow  725   0.013   0.528   4.275 -0.3809  0.7656  0.3174
  182SOL     hw  726   0.023   0.489   4.362 -0.8339  1.4778  0.6976
  182SOL     hw  727   0.077   0.599   4.272  0.9191 -0.3884 -0.6265
  182SOL     vw  728   0.023   0.532   4.286 -0.2691  0.7073  0.2432
  183SOL     ow  729   0.244   0.155   1.588 -0.4926  0.4129 -0.7358
  183SOL     hw  730   0.181   0.225   1.573 -1.5824 -0.4748 -0.4690
  183SOL     hw  731   0.269   0.164   1.679  0.6309  1.4384 -1.1295
  183SOL     vw  732   0.239   0.165   1.598 -0.4882  0.4311 -0.7525
  184SOL     ow  733   0.255   1.546   2.205 -0.2258  0.1773 -0.2395
  184SOL     hw  734   0.219   1.635   2.211 -1.1202 -0.2150  0.3950
  184SOL     hw  735   0.236   1.506   2.290 -0.1867 -0.7580 -0.6561
  184SOL     vw  736   0.248   1.553   2.217 -0.3386  0.0021 -0.2109
  185SOL     ow  737   0.830   0.692   2.820  0.0953  0.6842 -0.0997
  185SOL     hw  738   0.864   0.781   2.825  0.1662  0.8128 -2.0907
  185SOL     hw  739   0.899   0.643   2.773 -0.6331 -0.0300 -0.4488
  185SOL     vw  740   0.844   0.697   2.814  0.0085  0.6070 -0.4085
  186SOL     ow  741   0.922   0.907   0.559  0.7786  0.8189  0.0740
  186SOL     hw  742   0.993   0.899   0.496  0.8989 -0.6993  0.3765
  186SOL     hw  743   0.849   0.942   0.508  0.0642 -2.7007 -1.6373
  186SOL     vw  744   0.922   0.911   0.544  0.7002  0.1542 -0.1118
  187SOL     ow  745   2.092   0.935   2.241 -0.3995 -0.1851  0.2740
  187SOL     hw  746   2.032   0.860   2.243 -1.4244  0.5633  2.9851
  187SOL     hw  747   2.155   0.917   2.311  1.2378  0.1067 -1.0666
  187SOL     vw  748   2.092   0.923   2.251 -0.3188 -0.0479  0.4550
  188SOL     ow  749   0.637   0.727   5.532 -0.1194  0.4393  0.5479
  188SOL     hw  750   0.592   0.658   5.482 -0.9584  1.3575 -0.0037
  188SOL     hw  751   0.657   0.794   5.467  3.8654 -0.7015  0.3606
  188SOL     vw  752   0.633   0.727   5.516  0.2956  0.4099  0.4506
  189SOL     ow  753   1.254   0.650   5.099 -0.0864 -0.5285  0.3457
  189SOL     hw  754   1.262   0.556   5.116  0.4832 -0.5666 -0.0987
  189SOL     hw  755   1.344   0.679   5.082 -0.1435  0.2537  1.2915
  189SOL     vw  756   1.267   0.641   5.099 -0.0189 -0.4303  0.4120
  190SOL     ow  757   0.705   0.818   0.787 -0.6946  0.0062 -0.9798
  190SOL     hw  758   0.698   0.879   0.860 -1.8542  1.6970 -2.4225
  190SOL     hw  759   0.619   0.777   0.780 -1.4383  1.7350 -2.8842
  190SOL     vw  760   0.693   0.821   0.795 -0.9457  0.4573 -1.4214
  191SOL     ow  761   1.609   0.071   3.531  0.3994  0.0533  0.0668
  191SOL     hw  762   1.658   0.034   3.458  1.6296 -0.4118  1.1011
  191SOL     hw  763   1.518   0.044   3.515  1.1013 -2.8605  0.3793
  191SOL     vw  764   1.603   0.063   3.520  0.6543 -0.3925  0.2446
  192SOL     ow  765   0.233   0.234   1.228  0.3025  0.0305  0.4560
  192SOL     hw  766   0.239   0.217   1.134  0.6090 -1.3255  0.6981
  192SOL     hw  767   0.255   0.327   1.237 -0.5702  0.4004 -0.8838
  192SOL     vw  768   0.237   0.244   1.217  0.2278 -0.0996  0.3111
  193SOL     ow  769   0.201   2.201   1.857  0.7941  0.6357  0.7980
  193SOL     hw  770   0.296   2.213   1.857  0.8830  0.0358 -0.1072
  193SOL     hw  771   0.188   2.114   1.820 -0.1602  1.1522 -0.1244
  193SOL     vw  772   0.212   2.191   1.852  0.6799  0.6248  0.5569
  194SOL     ow  773   2.091   1.087   3.517 -0.2716  0.8418  0.3334
  194SOL     hw  774   2.148   1.099   3.440  1.4106  0.6935  1.5059
  194SOL     hw  775   2.013   1.139   3.497  0.7058  1.9102 -0.9020
  194SOL     vw  776   2.088   1.096   3.504  0.0790  0.9632  0.3251
  195SOL     ow  777   1.615   0.881   0.132  0.3738 -0.2273 -0.0175
  195SOL     hw  778   1.570   0.964   0.147 -0.5479 -0.1830 -2.5356
  195SOL     hw  779   1.683   0.878   0.200  0.1917  2.3904  0.3901
  195SOL     vw  780   1.618   0.892   0.143  0.2281  0.1239 -0.2959
  196SOL     ow  781   0.404   1.226   3.845  0.5749 -0.0727  0.0140
  196SOL     hw  782   0.362   1.268   3.770  0.4531  1.6948  1.0179
  196SOL     hw  783   0.383   1.133   3.836  1.0933 -0.0207 -2.4580
  196SOL     vw  784   0.396   1.219   3.834  0.6272  0.1674 -0.1798
  197SOL     ow  785   0.535   0.562   2.798  0.8838  0.5277 -0.2982
  197SOL     hw  786   0.471   0.531   2.734  0.2594  0.5950  0.2813
  197SOL     hw  787   0.504   0.527   2.882 -0.3485  3.3313  0.5423
  197SOL     vw  788   0.522   0.553   2.801  0.6389  0.9065 -0.1111
  198SOL     ow  789   0.219   1.777   4.239  0.0948 -0.7439 -0.2651
  198SOL     hw  790   0.142   1.725   4.216  0.3805 -1.0052 -0.6681
  198SOL     hw  791   0.281   1.759   4.168 -0.0085  0.5975 -0.7243
  198SOL     vw  792   0.217   1.767   4.226  0.1189 -0.6015 -0.3788
  199SOL     ow  793   0.160   1.549   2.971 -0.5716  0.9273 -0.1669
  199SOL     hw  794   0.243   1.589   2.998  1.1252  0.0448 -3.4959
  199SOL     hw  795   0.164   1.459   3.003 -0.5348  1.0639  0.2130
  199SOL     vw  796   0.171   1.543   2.978 -0.3428  0.8290 -0.5561
  200SOL     ow  797   1.795   2.004   5.791 -0.0679 -0.0200  0.3919
  200SOL     hw  798   1.840   1.925   5.761 -0.4888 -0.5621  1.1550
  200SOL     hw  799   1.841   2.029   5.871 -1.6230 -1.1256  1.7262
  200SOL     vw  800   1.807   1.997   5.798 -0.3286 -0.2373  0.6688
  201SOL     ow  801   2.152   0.707   4.301  0.5027  0.2518 -0.1788
  201SOL     hw  802   2.100   0.768   4.249  1.7193  1.6091  0.1468
  201SOL     hw  803   2.220   0.761   4.341  0.3431 -0.9449  1.8750
  201SOL     vw  804   2.154   0.722   4.299  0.6421  0.2730  0.1349
  202SOL     ow  805   2.072   0.260   3.498  0.0713  0.0011 -0.3447
  202SOL     hw  806   2.085   0.311   3.418 -1.1627 -1.4064 -1.4934
  202SOL     hw  807   1.977   0.264   3.513 -0.1493 -2.3167 -0.7686
  202SOL     vw  808   2.061   0.268   3.490 -0.1206 -0.4904 -0.5523
  203SOL     ow  809   1.345   2.392   3.469 -0.1481  0.5299  0.1483
  203SOL     hw  810   1.357   2.301   3.444 -0.3016  0.6681 -0.4325
  203SOL     hw  811   1.306   2.434   3.393  1.0482  1.3538 -0.0405
  203SOL     vw  812   1.342   2.385   3.456 -0.0105  0.6568  0.0467
  204SOL     ow  813   1.980   0.033   3.744  0.3834 -0.4005  0.2758
  204SOL     hw  814   2.020   0.006   3.661 -1.1193  2.8759 -1.7499
  204SOL     hw  815   1.912  -0.033   3.760  0.2693 -0.7686 -1.4855
  204SOL     vw  816   1.976   0.021   3.735  0.1701 -0.0168 -0.2238
  205SOL     ow  817   0.690   2.023   3.186 -0.0559 -0.0721 -0.0030
  205SOL     hw  818   0.654   1.938   3.212 -1.1014 -0.5440 -2.6684
  205SOL     hw  819   0.629   2.055   3.119  2.1088  1.2174 -1.4523
  205SOL     vw  820   0.677   2.016   3.180  0.0917  0.0359 -0.5459
  206SOL     ow  821   0.045   0.934   0.923  0.1379 -0.1079  0.5887
  206SOL     hw  822  -0.046   0.962   0.923  0.9913  3.0162  0.3892
  206SOL     hw  823   0.096   1.015   0.913  2.9306 -1.7817 -0.0807
  206SOL     vw  824   0.040   0.949   0.921  0.6190  0.0834  0.4741
  207SOL     ow  825   1.747   2.178   0.268  0.8343  0.0427  0.0312
  207SOL     hw  826   1.837   2.210   0.280  0.4977  1.9331 -1.8747
  207SOL     hw  827   1.717   2.222   0.188 -2.0244 -0.0273  0.9762
  207SOL     vw  828   1.755   2.188   0.259  0.4127  0.2829 -0.0956
  208SOL     ow  829   0.133   1.419   5.634  0.3159  0.3273 -0.2072
  208SOL     hw  830   0.070   1.487   5.612 -1.3288 -0.9643  0.2664
  208SOL     hw  831   0.146   1.370   5.552  1.0832  0.8469 -0.4130
  208SOL     vw  832   0.127   1.421   5.620  0.2001  0.2254 -0.1717
  209SOL     ow  833   0.585   0.896   5.737  0.0564 -0.8223  0.2228
  209SOL     hw  834   0.644   0.966   5.710 -0.4924 -0.1993  0.5985
  209SOL     hw  835   0.590   0.831   5.667 -0.4152  0.1878 -0.7801
  209SOL     vw  836   0.594   0.896   5.725 -0.0782 -0.6069  0.1400
  210SOL     ow  837   0.847   2.222   3.359 -0.0181 -0.0514  0.1599
  210SOL     hw  838   0.873   2.221   3.451 -2.7950 -2.5892  1.0637
  210SOL     hw  839   0.802   2.306   3.348 -0.6650 -0.2068  1.4749
  210SOL     vw  840   0.845   2.233   3.370 -0.4699 -0.4067  0.4526
  211SOL     ow  841   1.632   1.918   0.354  0.0436  0.9424  0.3844
  211SOL     hw  842   1.615   1.850   0.418 -0.2060 -2.0600 -2.6051
  211SOL     hw  843   1.723   1.905   0.328 -0.3908  0.7985 -1.1758
  211SOL     vw  844   1.641   1.908   0.359 -0.0466  0.5273 -0.2159
  212SOL     ow  845   0.108   1.863   1.120 -0.4200 -0.1223 -0.2365
  212SOL     hw  846   0.114   1.958   1.109 -1.6822  0.5667  3.6025
  212SOL     hw  847   0.050   1.834   1.049 -0.7639  2.0992 -0.9301
  212SOL     vw  848   0.101   1.872   1.109 -0.6319  0.2617  0.1784
  213SOL     ow  849   1.224   0.732   1.747  0.0709  0.1746  0.3565
  213SOL     hw  850   1.210   0.791   1.820  0.4853 -0.2662  0.7965
  213SOL     hw  851   1.136   0.702   1.723 -0.1961  1.3688 -0.2181
  213SOL     vw  852   1.211   0.736   1.753  0.0903  0.2740  0.3387
  214SOL     ow  853   0.752   0.394   6.539 -0.2844  0.3774 -0.0470
  214SOL     hw  854   0.838   0.424   6.509 -1.2507  2.5867 -0.9046
  214SOL     hw  855   0.771   0.331   6.608  2.0129  0.6930 -0.2952
  214SOL     vw  856   0.766   0.390   6.544 -0.1088  0.7105 -0.1929
  215SOL     ow  857   0.159   0.733   4.395  0.9034  0.2290 -0.3788
  215SOL     hw  858   0.218   0.792   4.350  0.7771 -0.4002 -1.3853
  215SOL     hw  859   0.074   0.778   4.393  1.3083  1.1524  1.1071
  215SOL     vw  860   0.155   0.747   4.389  0.9402  0.2678 -0.3157
  216SOL     ow  861   0.101   1.402   2.414  0.3153 -0.1027  0.0649
  216SOL     hw  862   0.081   1.309   2.417 -0.9040  0.0156 -2.1536
  216SOL     hw  863   0.026   1.441   2.369  0.6932  2.0051  1.1285
  216SOL     vw  864   0.089   1.395   2.409  0.2043  0.1910 -0.0874
  217poe    c31  865  -0.025   1.107   0.192 -0.5835  0.3098 -0.2840
  217poe     o2  866  -0.022   1.214   0.100 -0.5274 -0.0175 -0.6685
  217poe    c23  867   0.104   1.226   0.038  0.0078  0.0669  0.4045
  217poe    c23  868   0.102   1.289  -0.103 -0.3238  0.0992  0.4218
  217poe     o2  869  -0.008   1.378  -0.106  0.0001  0.5059  0.5058
  217poe    c23  870  -0.005   1.462  -0.219  0.0381  0.0378  0.1516
  217poe    c23  871  -0.143   1.476  -0.284  0.1336  0.1657 -0.0254
  217poe     o2  872  -0.235   1.535  -0.196  0.2335  0.7693 -0.3200
  217poe    c23  873  -0.362   1.555  -0.255  0.1209 -0.3100 -0.4661
  217poe    c23  874  -0.449   1.640  -0.160 -0.2094 -0.2341 -0.8344
  217poe     o2  875  -0.414   1.593  -0.032  0.1548  0.3946 -0.6987
  217poe    c31  876  -0.533   1.594   0.044  0.3955  0.0662 -0.3113
  218poe    c31  877   1.014   1.863   0.883  0.1123 -0.3193  0.3782
  218poe     o2  878   0.941   1.950   0.966  0.1467  0.4208 -0.3506
  218poe    c23  879   0.920   1.918   1.102 -0.0538  0.4750 -0.3688
  218poe    c23  880   0.855   2.035   1.178  0.2174  0.5068 -0.1837
  218poe     o2  881   0.750   2.079   1.094 -0.1460 -0.0203 -0.0109
  218poe    c23  882   0.694   2.205   1.123 -0.5022 -0.3090  0.5783
  218poe    c23  883   0.551   2.204   1.066 -0.2927 -0.2734  0.0467
  218poe     o2  884   0.550   2.177   0.927  0.3899  0.0636 -0.0318
  218poe    c23  885   0.465   2.271   0.866  0.0227 -0.2293  0.0200
  218poe    c23  886   0.482   2.283   0.713 -0.2810 -0.1543 -0.0093
  218poe     o2  887   0.618   2.274   0.675 -0.3725  0.2062 -0.4289
  218poe    c31  888   0.640   2.289   0.537  0.1603  0.8677 -0.2757
  219poe    c31  889   1.982   1.862   0.268 -0.2824 -0.1478  0.7344
  219poe     o2  890   1.899   1.875   0.381 -0.3099 -0.0939  0.7077
  219poe    c23  891   1.973   1.871   0.501  0.3319  0.4221  0.3344
  219poe    c23  892   1.911   1.910   0.636  0.2235 -0.1615  0.4545
  219poe     o2  893   1.894   2.050   0.643 -0.2095 -0.1717 -0.2737
  219poe    c23  894   1.974   2.090   0.752 -0.3833 -0.5801  0.0073
  219poe    c23  895   1.922   2.216   0.823 -0.0398 -0.2528 -0.3158
  219poe     o2  896   1.924   2.323   0.732  0.3031  0.2803  0.3134
  219poe    c23  897   1.839   2.426   0.778 -0.2624 -0.1949  0.3364
  219poe    c23  898   1.763   2.485   0.657  0.4212 -0.0414 -0.0221
  219poe     o2  899   1.663   2.411   0.591 -0.0686 -0.2058  0.8858
  219poe    c31  900   1.630   2.475   0.470 -0.0909 -0.4351  0.7690
  220poe    c31  901   0.993   1.801   6.023 -0.0379 -0.4733  0.1850
  220poe     o2  902   1.090   1.739   5.941 -0.1117 -0.3827  0.0298
  220poe    c23  903   1.198   1.821   5.900 -0.4076 -0.0529 -0.1005
  220poe    c23  904   1.296   1.751   5.804 -0.4196 -0.2619  0.0371
  220poe     o2  905   1.381   1.657   5.865  0.1778  0.4541  0.3358
  220poe    c23  906   1.461   1.602   5.763 -0.0898 -0.6183  0.6923
  220poe    c23  907   1.539   1.483   5.824  0.5144 -0.5704  0.0194
  220poe     o2  908   1.542   1.508   5.962  0.6788  0.0215 -0.0882
  220poe    c23  909   1.628   1.417   6.027  0.4033  0.2887  0.6713
  220poe    c23  910   1.653   1.483   6.163  0.2067 -0.0610  0.8801
  220poe     o2  911   1.525   1.502   6.218 -0.0280  0.1813  0.2504
  220poe    c31  912   1.541   1.528   6.355 -0.3442 -0.1187  0.3450
  221poe    c31  913   0.440   1.879   1.253 -0.1925  0.4905  0.2902
  221poe     o2  914   0.336   1.786   1.273 -0.0006  0.3565  0.6729
  221poe    c23  915   0.329   1.753   1.410 -0.1644 -0.4281  0.4821
  221poe    c23  916   0.243   1.627   1.430 -0.6721 -0.1336  0.1703
  221poe     o2  917   0.139   1.644   1.336  0.1517 -0.1438 -0.7533
  221poe    c23  918   0.067   1.523   1.326 -0.0270 -0.1120  0.0741
  221poe    c23  919  -0.030   1.526   1.207  0.0598  0.1914  0.0108
  221poe     o2  920   0.032   1.575   1.090  0.3053 -0.0682  0.0304
  221poe    c23  921  -0.071   1.593   0.995  0.0922  0.6039  0.3849
  221poe    c23  922  -0.046   1.688   0.877 -0.0620  0.0856 -0.0648
  221poe     o2  923  -0.038   1.820   0.927 -0.1099 -0.0565  0.3209
  221poe    c31  924  -0.160   1.890   0.916  0.1751  0.3182 -0.5293
  222poe    c31  925   0.486   1.229   2.203 -0.0198  0.3785 -0.0229
  222poe     o2  926   0.408   1.113   2.190  0.2040  0.2003  0.2089
  222poe    c23  927   0.283   1.140   2.131 -0.0809 -0.1152  0.6617
  222poe    c23  928   0.202   1.009   2.125  0.0932 -0.1888 -0.1076
  222poe     o2  929   0.154   0.946   2.242  0.4039 -0.5121 -0.1527
  222poe    c23  930   0.099   0.821   2.206 -0.5619  0.0984 -0.8499
  222poe    c23  931   0.030   0.753   2.326  0.1672  0.0326 -0.4628
  222poe     o2  932  -0.083   0.826   2.368 -0.0869 -0.5163 -0.1847
  222poe    c23  933  -0.111   0.775   2.496 -0.3511 -0.5580 -0.2583
  222poe    c23  934  -0.174   0.887   2.582  0.1057 -0.7075  0.2762
  222poe     o2  935  -0.080   0.990   2.603 -0.0606 -0.5537  0.2695
  222poe    c31  936  -0.117   1.098   2.685  0.1819 -0.1895 -0.0965
  223poe    c31  937   0.853   1.004   1.190  0.4025 -0.4589  0.1747
  223poe     o2  938   0.982   0.978   1.138  0.1444 -0.6747 -0.3657
  223poe    c23  939   0.979   0.963   0.998  0.2637  0.1417 -0.4594
  223poe    c23  940   1.122   0.926   0.952  0.1280  0.0612 -0.8174
  223poe     o2  941   1.229   1.012   0.983 -0.2265  0.0160  0.6098
  223poe    c23  942   1.324   0.935   1.054 -0.0028 -0.7537 -0.4973
  223poe    c23  943   1.462   1.003   1.063 -0.3935 -0.0379  0.2380
  223poe     o2  944   1.435   1.125   1.128 -0.1048 -0.0040  0.2927
  223poe    c23  945   1.555   1.166   1.191  0.0357  0.0847 -0.0268
  223poe    c23  946   1.537   1.316   1.222 -0.4781  0.0836 -0.3065
  223poe     o2  947   1.403   1.346   1.256 -0.4124  0.1769 -0.1261
  223poe    c31  948   1.372   1.359   1.393  0.5726 -0.0866  0.1273
  224poe    c31  949   1.649   2.120   4.508  0.2407  0.0773 -0.0485
  224poe     o2  950   1.569   2.174   4.611  0.3059 -0.1074  0.0985
  224poe    c23  951   1.559   2.078   4.713  0.0714  0.0340  0.2078
  224poe    c23  952   1.489   2.115   4.846 -0.1156 -0.3148  0.2091
  224poe     o2  953   1.359   2.164   4.822  0.2281  0.6484  0.2627
  224poe    c23  954   1.311   2.229   4.938  0.4651  0.0079  0.7293
  224poe    c23  955   1.166   2.280   4.933  0.3552 -0.4087 -1.0389
  224poe     o2  956   1.148   2.398   4.857  0.3137  0.0925 -0.2617
  224poe    c23  957   1.022   2.394   4.795  0.2074 -0.0994 -0.0340
  224poe    c23  958   0.998   2.530   4.727 -0.6604 -0.2458 -0.0322
  224poe     o2  959   1.097   2.550   4.629 -0.6478 -0.0658  0.0174
  224poe    c31  960   1.059   2.643   4.530  0.2020  0.0288 -0.2299
  225poe    c31  961   0.755   0.322   0.627 -0.1210 -0.6318 -0.2323
  225poe     o2  962   0.670   0.408   0.555  0.1533 -0.0879  0.0845
  225poe    c23  963   0.562   0.331   0.507 -0.4194 -0.0103  1.2293
  225poe    c23  964   0.500   0.426   0.402  0.6516 -0.0668  0.5361
  225poe     o2  965   0.600   0.462   0.309  0.0471 -0.0241 -0.0991
  225poe    c23  966   0.575   0.552   0.203  0.5345 -0.3209 -0.4704
  225poe    c23  967   0.676   0.665   0.177  0.2154  0.0920  0.0598
  225poe     o2  968   0.658   0.769   0.271  0.5086  0.3994 -0.2256
  225poe    c23  969   0.676   0.901   0.225  0.3127  0.4191 -0.2425
  225poe    c23  970   0.643   1.009   0.330  0.5522  0.1739  0.0884
  225poe     o2  971   0.713   1.012   0.452 -0.5994 -0.1140  0.7725
  225poe    c31  972   0.663   1.123   0.524 -0.2980  0.1758  0.5372
  226poe    c31  973   2.161   0.141   2.311 -0.3524 -0.0541  0.0605
  226poe     o2  974   2.130   0.019   2.248 -0.2411  0.1257 -0.3473
  226poe    c23  975   2.144  -0.089   2.338  0.1848  0.5880  0.1431
  226poe    c23  976   2.034  -0.135   2.436  0.2587  0.0642 -0.0174
  226poe     o2  977   1.988  -0.045   2.535  0.2025  0.2439 -0.2063
  226poe    c23  978   1.918  -0.107   2.640  0.1816  0.1420 -0.2797
  226poe    c23  979   1.852   0.000   2.729  0.6342  0.2686 -0.0910
  226poe     o2  980   1.763   0.080   2.653  0.0234 -0.0224  0.3071
  226poe    c23  981   1.770   0.211   2.707 -0.2314  0.1718 -0.1306
  226poe    c23  982   1.668   0.313   2.652 -0.1985  0.3653  0.1668
  226poe     o2  983   1.535   0.271   2.673 -0.1604  0.1667  0.0174
  226poe    c31  984   1.445   0.368   2.624  0.1816  0.4432 -0.0649
  227poe    c31  985   0.640   1.406   4.239 -0.3238 -0.1737 -0.6285
  227poe     o2  986   0.713   1.291   4.204 -0.3574 -0.3388 -0.1596
  227poe    c23  987   0.816   1.259   4.295 -0.1016  0.8156 -0.0279
  227poe    c23  988   0.879   1.125   4.251 -0.5594  0.5260  0.1888
  227poe     o2  989   0.900   1.139   4.112 -0.3818 -0.0869  0.1507
  227poe    c23  990   0.971   1.040   4.042 -0.4070  0.1273 -0.1800
  227poe    c23  991   1.018   1.089   3.904  0.1590 -0.3120 -0.1506
  227poe     o2  992   0.909   1.128   3.823  0.0029  0.1815  0.2888
  227poe    c23  993   0.951   1.211   3.717  0.0561  0.4511  0.5216
  227poe    c23  994   0.853   1.267   3.612  0.0307 -0.1946  0.1965
  227poe     o2  995   0.749   1.350   3.659 -0.1139 -0.1453 -0.2139
  227poe    c31  996   0.766   1.486   3.625  0.4331 -0.1565  0.0042
  228poe    c31  997   0.958   2.278   5.300  0.4315  0.0335  0.0229
  228poe     o2  998   0.932   2.185   5.197 -0.2111 -0.1375  0.3342
  228poe    c23  999   0.795   2.196   5.163 -0.0185  0.0800 -0.3887
  228poe    c23 1000   0.773   2.094   5.050 -0.3276  0.0794 -0.3284
  228poe     o2 1001   0.829   1.967   5.075 -0.7556 -0.0105  0.1777
  228poe    c23 1002   0.800   1.879   4.969  0.4239  0.1884 -0.3245
  228poe    c23 1003   0.885   1.751   4.987  0.7001  0.3767 -0.2922
  228poe     o2 1004   0.854   1.687   5.109  0.2191  0.2911 -0.4582
  228poe    c23 1005   0.927   1.569   5.128  0.5705  0.5912  0.0758
  228poe    c23 1006   0.916   1.561   5.282 -1.0528  0.1652 -0.0480
  228poe     o2 1007   0.961   1.687   5.327  0.5394 -0.3638 -0.0970
  228poe    c31 1008   0.962   1.678   5.467 -0.1625  0.2200 -0.0468
  229poe    c31 1009   2.365   0.917   1.778  0.0849  0.1246  0.3032
  229poe     o2 1010   2.235   0.927   1.832  0.2143 -0.0357  0.6470
  229poe    c23 1011   2.163   0.807   1.818  0.4298 -0.0760 -0.1631
  229poe    c23 1012   2.013   0.820   1.849  0.4754  0.2390 -0.0663
  229poe     o2 1013   1.980   0.868   1.977  0.0198 -0.0857 -0.0571
  229poe    c23 1014   1.840   0.878   1.967  0.0266 -0.3614 -0.4441
  229poe    c23 1015   1.787   0.963   2.084  0.6190 -0.4036 -0.1423
  229poe     o2 1016   1.860   1.083   2.085  0.2780 -0.1939 -0.4545
  229poe    c23 1017   1.834   1.147   2.208 -0.1642 -0.0670 -0.6115
  229poe    c23 1018   1.928   1.267   2.226  0.0594 -0.4011  0.5855
  229poe     o2 1019   2.064   1.230   2.237  0.1600 -0.2985 -0.2393
  229poe    c31 1020   2.124   1.356   2.259  0.2056 -0.4294  0.3831
  230poe    c31 1021   1.852   1.850   3.399  0.2176 -0.6327 -0.8798
  230poe     o2 1022   1.913   1.819   3.523  0.4187 -0.1373 -0.8518
  230poe    c23 1023   2.037   1.765   3.485  0.6279 -0.2520 -0.0261
  230poe    c23 1024   2.103   1.662   3.579  0.7920 -0.5462 -0.4602
  230poe     o2 1025   2.030   1.544   3.600  0.1343 -0.0124  0.3432
  230poe    c23 1026   2.103   1.443   3.667 -0.1250 -0.1288  0.4486
  230poe    c23 1027   2.004   1.329   3.701 -0.3150 -0.1979 -0.3242
  230poe     o2 1028   1.894   1.389   3.765  0.1184  0.1099  0.1459
  230poe    c23 1029   1.802   1.290   3.808  0.3543 -0.3123 -0.3051
  230poe    c23 1030   1.678   1.366   3.860  0.2331 -0.4347 -0.4179
  230poe     o2 1031   1.644   1.464   3.765 -0.0165  0.0403  0.1593
  230poe    c31 1032   1.524   1.531   3.796 -0.0079  0.3903 -0.5311
  231poe    c31 1033   2.148   1.904   2.918  0.0127  0.0764 -0.1449
  231poe     o2 1034   2.283   1.925   2.953 -0.0001 -0.0533 -0.0196
  231poe    c23 1035   2.328   1.833   3.050 -0.0918  0.4398  0.4931
  231poe    c23 1036   2.474   1.859   3.093 -0.0549  0.3315  0.4332
  231poe     o2 1037   2.472   1.987   3.154  0.3820  0.4155  0.2776
  231poe    c23 1038   2.602   2.025   3.192  0.1984  0.1279  1.2280
  231poe    c23 1039   2.620   2.177   3.208  0.6467  0.2270 -0.0742
  231poe     o2 1040   2.601   2.244   3.085  0.2748 -0.7510 -0.5546
  231poe    c23 1041   2.640   2.378   3.100 -0.9269 -0.4665  0.1199
  231poe    c23 1042   2.610   2.463   2.976  0.5962 -0.0819 -0.0103
  231poe     o2 1043   2.485   2.420   2.925  0.3639  0.7620 -0.1629
  231poe    c31 1044   2.470   2.454   2.789 -0.0877 -0.1385 -0.3432
  232poe    c31 1045   1.838   2.262   5.354 -0.1787  0.0660 -0.2042
  232poe     o2 1046   1.716   2.244   5.424 -0.0750 -0.1148 -0.0679
  232poe    c23 1047   1.643   2.125   5.410 -0.4496  0.1801 -0.6726
  232poe    c23 1048   1.506   2.126   5.481 -0.2085  0.0482 -0.2002
  232poe     o2 1049   1.502   2.214   5.591 -0.4882 -0.2248  0.0082
  232poe    c23 1050   1.376   2.212   5.654 -0.2163 -0.3049  0.5490
  232poe    c23 1051   1.364   2.311   5.771 -0.6932  0.1521  0.1141
  232poe     o2 1052   1.421   2.435   5.734 -0.2115  0.1022  0.6803
  232poe    c23 1053   1.448   2.523   5.841  0.5854  0.1060  0.4846
  232poe    c23 1054   1.456   2.667   5.786 -0.3111 -0.0484 -0.0798
  232poe     o2 1055   1.537   2.677   5.672 -0.1107 -0.1858  0.0489
  232poe    c31 1056   1.578   2.806   5.633 -0.0535 -0.1323  0.2837
  233poe    c31 1057   0.199   1.234   1.106 -0.3089  0.1440  0.0199
  233poe     o2 1058   0.211   1.157   0.988  0.1935  0.0885  0.1049
  233poe    c23 1059   0.330   1.193   0.921  0.5663 -0.2267  0.5934
  233poe    c23 1060   0.346   1.118   0.788 -0.4039  0.2883  0.1729
  233poe     o2 1061   0.365   0.979   0.805  0.0992  0.3648  0.2741
  233poe    c23 1062   0.361   0.916   0.679 -0.3857  0.4642  0.2380
  233poe    c23 1063   0.367   0.764   0.700  0.1715  0.5000  0.3447
  233poe     o2 1064   0.484   0.710   0.758  0.3163  0.0315 -0.3760
  233poe    c23 1065   0.447   0.585   0.811  0.0521  0.2760  0.0196
  233poe    c23 1066   0.538   0.528   0.922  0.0048  0.4886  0.1686
  233poe     o2 1067   0.515   0.570   1.054  0.1382 -0.0974  0.3806
  233poe    c31 1068   0.636   0.611   1.114  0.7228 -0.8856 -0.2374
  234poe    c31 1069   2.122   0.754   5.816 -0.1271 -0.1767  0.2595
  234poe     o2 1070   2.064   0.741   5.688 -0.1112 -0.3556  0.2696
  234poe    c23 1071   2.151   0.684   5.593  0.0237 -0.2679  0.3401
  234poe    c23 1072   2.061   0.642   5.475  0.0491  0.1660  0.1641
  234poe     o2 1073   1.952   0.729   5.452 -0.0956 -0.1406 -0.3229
  234poe    c23 1074   1.855   0.661   5.376  0.0943  0.2045 -0.8815
  234poe    c23 1075   1.744   0.761   5.341  0.4066  0.7604 -0.2937
  234poe     o2 1076   1.660   0.773   5.453  0.0476  0.4071 -0.5235
  234poe    c23 1077   1.544   0.845   5.417  0.4145  1.1850 -0.1685
  234poe    c23 1078   1.460   0.866   5.545 -0.1121  0.6193 -0.4172
  234poe     o2 1079   1.530   0.943   5.640  0.1620  0.2668 -0.3330
  234poe    c31 1080   1.452   0.987   5.749 -0.0274  0.2968 -0.4819
  235poe    c31 1081   1.886   1.511   5.188 -0.0177 -0.3463  0.5434
  235poe     o2 1082   2.009   1.486   5.123  0.1009  0.0832  0.5952
  235poe    c23 1083   2.061   1.608   5.075 -0.3055 -0.0817 -0.2811
  235poe    c23 1084   2.209   1.616   5.034 -0.1373 -0.1230  0.3114
  235poe     o2 1085   2.244   1.526   4.932 -0.1227  0.0454  0.1680
  235poe    c23 1086   2.367   1.548   4.866 -0.8301  0.7746 -0.9595
  235poe    c23 1087   2.381   1.429   4.770  0.1836  0.4112 -0.3814
  235poe     o2 1088   2.254   1.394   4.719  0.0486  0.7199 -0.2589
  235poe    c23 1089   2.252   1.327   4.595 -0.4843 -0.0753  0.1679
  235poe    c23 1090   2.120   1.258   4.554 -0.2593  0.1332 -0.9351
  235poe     o2 1091   2.013   1.349   4.553 -0.3004  0.0922 -0.3126
  235poe    c31 1092   1.888   1.289   4.528 -0.2047 -0.4142  0.3846
  236poe    c31 1093   1.105   1.209   0.133 -0.4301  0.0032  0.1023
  236poe     o2 1094   1.120   1.069   0.124  0.1720  0.0959 -0.4421
  236poe    c23 1095   1.111   1.002   0.248  0.2679  0.1933 -0.3830
  236poe    c23 1096   1.168   0.859   0.249  0.4110  0.2516 -0.0777
  236poe     o2 1097   1.140   0.796   0.371  0.4652  0.3022 -0.0392
  236poe    c23 1098   1.194   0.666   0.362 -0.4761 -0.0895 -0.0988
  236poe    c23 1099   1.109   0.555   0.428 -0.3419  0.0168  0.2542
  236poe     o2 1100   1.095   0.555   0.568  0.2896  0.5939  0.3211
  236poe    c23 1101   1.184   0.463   0.626 -0.4631  0.1799  0.8260
  236poe    c23 1102   1.209   0.452   0.778  0.2541  0.0105  0.6991
  236poe     o2 1103   1.253   0.582   0.810  0.5924  0.2457 -0.6446
  236poe    c31 1104   1.334   0.589   0.925 -0.0095 -0.4882 -0.1622
  237poe    c31 1105   0.331   0.095   4.395 -0.5505 -0.5615  0.7870
  237poe     o2 1106   0.196   0.128   4.421 -0.4896  0.4101 -0.0671
  237poe    c23 1107   0.111   0.024   4.379 -0.2678  0.1725  0.0719
  237poe    c23 1108  -0.011   0.081   4.305 -0.1245 -0.0300 -0.3247
  237poe     o2 1109  -0.129   0.132   4.362 -0.2373  0.0881 -0.6579
  237poe    c23 1110  -0.200   0.027   4.423 -0.0598  0.3824  0.0727
  237poe    c23 1111  -0.351   0.052   4.432 -0.1264 -0.1707  0.5313
  237poe     o2 1112  -0.373   0.188   4.462 -0.0055  0.1009 -0.5971
  237poe    c23 1113  -0.505   0.216   4.503  0.1513  0.0915 -0.0847
  237poe    c23 1114  -0.520   0.370   4.506  0.3254  0.1038  0.1430
  237poe     o2 1115  -0.472   0.446   4.398  0.4752 -0.2233 -0.0230
  237poe    c31 1116  -0.534   0.573   4.401  0.0629 -0.4268  0.2474
  238poe    c31 1117   0.116   0.026   2.153 -0.5340  0.5226  0.4632
  238poe     o2 1118   0.069   0.038   2.021  0.1744  0.0527  0.1619
  238poe    c23 1119   0.041   0.172   1.986 -0.1282 -0.1104 -0.2339
  238poe    c23 1120  -0.064   0.173   1.873 -0.2043 -0.5797 -0.1681
  238poe     o2 1121  -0.051   0.058   1.793  0.0030 -0.8166  0.2035
  238poe    c23 1122  -0.127   0.059   1.674  0.2712  0.8349  0.0331
  238poe    c23 1123  -0.064  -0.053   1.591 -0.3857  0.0592  0.5680
  238poe     o2 1124  -0.049  -0.175   1.661  0.8260 -0.3690 -0.3750
  238poe    c23 1125   0.019  -0.265   1.578  0.5358 -0.7690 -0.1817
  238poe    c23 1126   0.017  -0.402   1.649 -0.0216 -0.7290 -0.1165
  238poe     o2 1127   0.105  -0.375   1.755 -0.2652  0.0092 -0.0953
  238poe    c31 1128   0.074  -0.452   1.869  0.5467  0.3732  0.3810
  239poe    c31 1129   1.486   1.513   2.054  0.5031  0.3228 -0.2395
  239poe     o2 1130   1.563   1.470   1.944 -0.1874 -0.3090 -0.4892
  239poe    c23 1131   1.566   1.330   1.934  0.0236 -0.2879 -0.7204
  239poe    c23 1132   1.691   1.278   1.861  0.3996 -0.6034  0.1321
  239poe     o2 1133   1.698   1.382   1.765 -0.4727 -0.0732  0.6368
  239poe    c23 1134   1.819   1.362   1.696 -0.5721 -0.0561  0.4578
  239poe    c23 1135   1.853   1.442   1.569 -0.2399  0.4448  0.8560
  239poe     o2 1136   1.875   1.580   1.589  0.1029  0.5314 -0.0672
  239poe    c23 1137   1.924   1.646   1.474  0.5994  0.2695 -0.0111
  239poe    c23 1138   1.943   1.788   1.531  0.1828  0.2868  0.0834
  239poe     o2 1139   1.821   1.854   1.559 -0.1951 -0.2758 -0.2308
  239poe    c31 1140   1.832   1.978   1.625 -0.5025 -0.5197  0.2904
  240poe    c31 1141   0.784   0.387   3.015  0.1816 -0.1522  0.4173
  240poe     o2 1142   0.782   0.482   3.119 -0.0850  0.5664 -0.2352
  240poe    c23 1143   0.905   0.493   3.187 -0.0503  0.0370 -0.2054
  240poe    c23 1144   0.980   0.625   3.161  0.4713 -0.3113 -0.4908
  240poe     o2 1145   1.102   0.637   3.230 -0.0282 -0.5198  0.4333
  240poe    c23 1146   1.214   0.581   3.166  0.0000 -0.2592  0.2552
  240poe    c23 1147   1.354   0.589   3.231  0.0609 -0.1649  0.1129
  240poe     o2 1148   1.429   0.708   3.220  0.3426 -0.3649 -0.1216
  240poe    c23 1149   1.462   0.738   3.086 -0.7040  0.6672 -0.1606
  240poe    c23 1150   1.570   0.845   3.061 -0.0652 -0.0888 -0.6742
  240poe     o2 1151   1.698   0.807   3.106 -0.1706  0.3750  0.0459
  240poe    c31 1152   1.787   0.899   3.046  0.1394  0.1868  0.2110
  241poe    c31 1153   1.602   1.613   0.493  0.0466 -0.2160 -1.0441
  241poe     o2 1154   1.537   1.737   0.507  0.2907 -0.1433 -0.5397
  241poe    c23 1155   1.468   1.759   0.628  0.1368 -0.5665 -0.5496
  241poe    c23 1156   1.319   1.793   0.606  0.2222  0.4124  0.2934
  241poe     o2 1157   1.248   1.684   0.551  0.2410  0.2771  0.5367
  241poe    c23 1158   1.110   1.696   0.575  0.1864 -0.0230  0.3715
  241poe    c23 1159   1.031   1.579   0.513  0.0104  0.4461 -0.3006
  241poe     o2 1160   1.033   1.481   0.614 -0.6128  0.1238 -0.5921
  241poe    c23 1161   1.019   1.345   0.577  0.1199 -0.1002 -0.0838
  241poe    c23 1162   1.031   1.261   0.705 -0.4949  0.2433  0.2051
  241poe     o2 1163   1.163   1.263   0.755 -0.2859  0.4631 -0.3557
  241poe    c31 1164   1.233   1.152   0.703 -0.0797  0.0365  0.8177
  242poe    c31 1165   0.423   1.595   4.008  0.1482 -0.2453  0.0276
  242poe     o2 1166   0.396   1.720   4.069  0.0883 -0.1534 -0.1872
  242poe    c23 1167   0.526   1.761   4.100 -0.0729  0.3505 -0.1753
  242poe    c23 1168   0.528   1.877   4.202  0.2910  0.1213  0.0828
  242poe     o2 1169   0.469   1.838   4.323  0.2154  0.0294  0.0165
  242poe    c23 1170   0.566   1.848   4.425  0.4783 -0.5507 -0.1736
  242poe    c23 1171   0.498   1.778   4.545  0.4038 -0.3858 -0.1193
  242poe     o2 1172   0.369   1.833   4.553  0.5046 -0.1560 -0.0743
  242poe    c23 1173   0.298   1.765   4.654  0.0696  0.3449 -0.0374
  242poe    c23 1174   0.150   1.797   4.626 -0.1184 -0.2692  0.2405
  242poe     o2 1175   0.113   1.797   4.490  0.4851 -0.6653  0.0759
  242poe    c31 1176  -0.028   1.798   4.497  0.4826  0.1955 -0.0583
  243poe    c31 1177   0.973   0.884   3.444  0.2033  0.1678  0.4163
  243poe     o2 1178   1.001   0.816   3.564  0.0306  0.1702  0.4583
  243poe    c23 1179   1.130   0.848   3.611  0.2123  0.4241 -0.2086
  243poe    c23 1180   1.154   0.784   3.748  0.2491  0.2772 -0.2836
  243poe     o2 1181   1.156   0.643   3.746 -0.2453  0.2632  0.1206
  243poe    c23 1182   1.285   0.589   3.765 -0.2887 -0.0104 -0.3566
  243poe    c23 1183   1.288   0.449   3.700  0.0345 -0.3297  0.3360
  243poe     o2 1184   1.169   0.379   3.725 -0.4672  0.3343 -0.1239
  243poe    c23 1185   1.187   0.239   3.732 -0.2148  0.3704 -0.0574
  243poe    c23 1186   1.082   0.187   3.632 -0.0841  0.5080 -0.2677
  243poe     o2 1187   0.957   0.233   3.677 -0.3888 -0.2046 -0.3787
  243poe    c31 1188   0.878   0.256   3.562 -0.1164 -0.5237 -0.6332
  244poe    c31 1189   1.424   0.221   1.725 -0.0697 -0.2622 -0.2300
  244poe     o2 1190   1.396   0.316   1.825 -0.5032 -0.2435 -0.3639
  244poe    c23 1191   1.348   0.274   1.951 -0.0401 -0.2139 -0.1756
  244poe    c23 1192   1.214   0.336   1.993  0.2913  0.1783  0.3299
  244poe     o2 1193   1.157   0.257   2.095  0.3455 -0.5382 -0.1831
  244poe    c23 1194   1.032   0.311   2.132  0.6182 -0.1570  0.1925
  244poe    c23 1195   1.024   0.322   2.286  0.3731  0.2145  0.1542
  244poe     o2 1196   1.033   0.201   2.358  0.9115  0.2780  0.1986
  244poe    c23 1197   0.997   0.242   2.488 -0.0679  0.1301 -0.0126
  244poe    c23 1198   0.941   0.126   2.572  0.4003  0.0231  0.1579
  244poe     o2 1199   1.028   0.023   2.612  0.4764 -0.1540 -0.4630
  244poe    c31 1200   0.949  -0.082   2.663 -0.2725  0.2050 -0.8583
  245poe    c31 1201   2.191   1.889   6.439 -0.0185 -0.0836 -0.5381
  245poe     o2 1202   2.298   1.814   6.491 -0.1477 -0.0984 -0.2876
  245poe    c23 1203   2.401   1.845   6.399  0.4502 -0.1091  0.3732
  245poe    c23 1204   2.540   1.790   6.435 -0.0567 -1.3638  0.4648
  245poe     o2 1205   2.573   1.857   6.555  0.0736 -0.2774 -0.1721
  245poe    c23 1206   2.615   1.773   6.659 -0.4990  0.0492  0.3254
  245poe    c23 1207   2.692   1.832   6.779  0.2685 -0.0258 -0.1281
  245poe     o2 1208   2.813   1.888   6.732  0.4633 -0.2145  0.1501
  245poe    c23 1209   2.925   1.807   6.707  0.4343 -0.3740  0.5190
  245poe    c23 1210   3.051   1.895   6.687  0.0456  0.2031  0.5777
  245poe     o2 1211   3.127   1.855   6.576  0.3610  0.6437  0.6323
  245poe    c31 1212   3.102   1.943   6.469 -0.2633 -0.4729 -0.1708
  246poe    c31 1213   0.593   0.285   4.131 -0.2005  0.3437 -0.3300
  246poe     o2 1214   0.675   0.176   4.095  0.9336  1.0722 -0.0112
  246poe    c23 1215   0.788   0.160   4.177  0.7510 -0.4514 -0.0259
  246poe    c23 1216   0.848   0.018   4.177  0.1444 -0.7096  0.2537
  246poe     o2 1217   0.918  -0.021   4.061 -0.4679 -0.4308 -0.2122
  246poe    c23 1218   0.938  -0.160   4.054  0.4083 -0.3090 -0.2225
  246poe    c23 1219   0.817  -0.252   4.027  0.1059  0.2111 -0.6509
  246poe     o2 1220   0.724  -0.200   3.934 -0.3121 -0.0852 -0.4038
  246poe    c23 1221   0.678  -0.311   3.860  0.1402 -0.4186 -0.1966
  246poe    c23 1222   0.574  -0.268   3.754 -0.4312 -0.4765  0.3339
  246poe     o2 1223   0.458  -0.218   3.816 -0.1723  0.4338  0.0962
  246poe    c31 1224   0.351  -0.239   3.728 -0.2354 -0.9268  0.4815
  247poe    c31 1225   0.363   0.477   4.912 -0.4525 -0.1137  0.3670
  247poe     o2 1226   0.408   0.468   4.779  0.2510  0.2081  0.5756
  247poe    c23 1227   0.486   0.353   4.751  0.2450  0.2535  0.3716
  247poe    c23 1228   0.523   0.345   4.602 -0.3467  0.6802  0.1951
  247poe     o2 1229   0.552   0.477   4.562 -0.0104  0.5143 -0.1181
  247poe    c23 1230   0.596   0.499   4.430  0.4629  0.0693 -0.0361
  247poe    c23 1231   0.640   0.646   4.418 -0.5416  0.4153  0.3772
  247poe     o2 1232   0.544   0.722   4.486 -0.7130  0.4035  0.1507
  247poe    c23 1233   0.561   0.862   4.476 -0.3389  0.3617  0.1846
  247poe    c23 1234   0.514   0.911   4.338 -0.3070  0.0626  0.0667
  247poe     o2 1235   0.377   0.893   4.311 -0.2120 -0.2872 -0.1915
  247poe    c31 1236   0.341   0.928   4.179  0.4941  0.7147 -0.1282
  248poe    c31 1237   1.662   0.411   3.359  0.5649 -0.0597 -0.0272
  248poe     o2 1238   1.724   0.530   3.403 -0.1138  0.1056  0.4825
  248poe    c23 1239   1.808   0.581   3.303 -0.2585  0.6850  0.6562
  248poe    c23 1240   1.912   0.665   3.379  0.8764 -0.1344  0.0357
  248poe     o2 1241   1.839   0.740   3.473  0.4726  0.0771 -0.4363
  248poe    c23 1242   1.919   0.816   3.562  0.1993 -0.2797  0.1185
  248poe    c23 1243   1.833   0.868   3.679  0.1116  0.0891 -0.1093
  248poe     o2 1244   1.748   0.771   3.735 -0.2862  0.2299 -0.4639
  248poe    c23 1245   1.715   0.817   3.864  0.6842 -0.1176 -0.0806
  248poe    c23 1246   1.635   0.717   3.950 -0.0316  0.5338  0.0282
  248poe     o2 1247   1.704   0.597   3.978 -0.1915  0.4249 -0.0431
  248poe    c31 1248   1.629   0.513   4.063  0.2077  0.5030  0.3886
  249poe    c31 1249   0.113   1.183   5.989  0.7048  0.3838 -0.1154
  249poe     o2 1250   0.066   1.222   5.862 -0.2013  0.5802  0.2677
  249poe    c23 1251  -0.042   1.134   5.840  0.0030  0.0428  1.3459
  249poe    c23 1252  -0.103   1.145   5.699  0.6743 -0.0894  1.0413
  249poe     o2 1253  -0.021   1.079   5.606  0.2106  0.4681  0.2185
  249poe    c23 1254  -0.073   1.094   5.476  0.0019  0.2089  0.2697
  249poe    c23 1255   0.058   1.088   5.394 -0.0689  0.0834  0.1657
  249poe     o2 1256   0.113   0.968   5.444  0.0403  0.1342  0.1678
  249poe    c23 1257   0.181   0.889   5.349  0.0634  0.1734  0.1518
  249poe    c23 1258   0.241   0.768   5.422  0.1880  0.4031  0.4309
  249poe     o2 1259   0.150   0.690   5.496  0.2718  0.1194  0.2347
  249poe    c31 1260   0.212   0.567   5.528 -0.6387 -0.5409 -0.4843
  250poe    c31 1261   1.608   0.233   6.625 -0.1027  0.3054  0.0938
  250poe     o2 1262   1.620   0.342   6.536 -0.0946  0.3683  0.1720
  250poe    c23 1263   1.661   0.291   6.412 -0.3842 -0.0067  0.2263
  250poe    c23 1264   1.678   0.397   6.301  0.0489 -0.2185  0.0866
  250poe     o2 1265   1.793   0.478   6.308 -0.2961  0.2746  0.0980
  250poe    c23 1266   1.812   0.549   6.187  0.3182 -0.0128  0.0214
  250poe    c23 1267   1.922   0.657   6.196  0.0848  0.2372 -0.1161
  250poe     o2 1268   1.915   0.750   6.302  0.0703  0.2048 -0.0879
  250poe    c23 1269   2.032   0.826   6.322  0.3625 -0.3689  0.4229
  250poe    c23 1270   2.021   0.919   6.444 -0.5014  0.1048 -0.0059
  250poe     o2 1271   2.023   0.844   6.563 -0.1279  0.2619  0.0875
  250poe    c31 1272   1.982   0.925   6.671 -0.0856 -0.1452  0.4154
  251poe    c31 1273   0.806   0.720   5.907  0.2281 -0.5787 -0.2922
  251poe     o2 1274   0.943   0.714   5.871  0.3273 -0.4385  0.0622
  251poe    c23 1275   0.960   0.801   5.762  0.2296 -0.0790  0.3297
  251poe    c23 1276   1.105   0.821   5.714  0.2431  0.2288  0.5034
  251poe     o2 1277   1.156   0.713   5.640 -0.6473 -0.1229  0.4014
  251poe    c23 1278   1.122   0.703   5.503  0.7668 -0.4064  0.0552
  251poe    c23 1279   1.169   0.569   5.444 -0.3515 -0.5697 -0.4845
  251poe     o2 1280   1.068   0.481   5.489 -0.6436 -0.1230 -0.2641
  251poe    c23 1281   1.124   0.355   5.462  0.4187  0.2339  0.2062
  251poe    c23 1282   1.023   0.247   5.506  0.8170 -0.2119  0.0448
  251poe     o2 1283   1.024   0.237   5.647 -0.4930  0.3524  0.1137
  251poe    c31 1284   1.038   0.101   5.683  1.0854  0.4523 -0.0519
  252poe    c31 1285   0.334   0.812   1.126 -0.2218 -0.4089 -0.0640
  252poe     o2 1286   0.201   0.842   1.162  0.0831 -0.0013  0.7411
  252poe    c23 1287   0.192   0.930   1.272 -0.0020  0.1512  0.6136
  252poe    c23 1288   0.046   0.938   1.322 -0.2113  0.0672  0.0176
  252poe     o2 1289  -0.024   0.974   1.204  0.4896  0.1002 -0.3957
  252poe    c23 1290  -0.163   0.964   1.221  0.5715 -0.0843  0.1966
  252poe    c23 1291  -0.232   1.058   1.120  0.4457  0.2068  0.5519
  252poe     o2 1292  -0.179   1.056   0.989 -0.6285  0.4997  0.1055
  252poe    c23 1293  -0.248   1.140   0.900 -0.5590  0.0792 -0.3523
  252poe    c23 1294  -0.209   1.131   0.752 -0.0745  0.8523 -0.2790
  252poe     o2 1295  -0.087   1.193   0.717  0.2047  0.7421  0.4769
  252poe    c31 1296  -0.036   1.146   0.594 -0.3607 -1.0555  0.9081
  253poe    c31 1297   0.873   1.558   2.786 -0.2043 -0.3386  0.6093
  253poe     o2 1298   0.992   1.598   2.850  0.1698  0.1115 -0.3627
  253poe    c23 1299   0.963   1.685   2.957  0.1540 -0.6607  0.2709
  253poe    c23 1300   1.016   1.631   3.090  0.0344 -0.0863  0.5543
  253poe     o2 1301   1.157   1.624   3.090  0.0522  0.2016 -0.2351
  253poe    c23 1302   1.199   1.508   3.159 -0.2705  0.0253 -0.3328
  253poe    c23 1303   1.313   1.446   3.076 -0.3770 -0.1569 -0.3425
  253poe     o2 1304   1.411   1.542   3.044  0.0433 -0.5487 -0.2370
  253poe    c23 1305   1.524   1.486   2.981  0.1505  0.0958 -0.6409
  253poe    c23 1306   1.636   1.589   2.960 -0.2138  0.6023 -0.1054
  253poe     o2 1307   1.579   1.712   2.919 -0.4469  0.6376  0.3136
  253poe    c31 1308   1.674   1.809   2.881 -0.2826  0.2419 -0.3034
  254poe    c31 1309   1.991   0.026   0.246  0.3710  0.4861 -0.1904
  254poe     o2 1310   1.969  -0.097   0.311  0.4498  0.3027 -0.5085
  254poe    c23 1311   2.064  -0.116   0.413  0.0268  0.0489 -0.1541
  254poe    c23 1312   2.197  -0.173   0.360  0.1958 -0.0087  0.3277
  254poe     o2 1313   2.182  -0.281   0.271  0.2725 -0.3683  0.7440
  254poe    c23 1314   2.307  -0.341   0.247 -0.1762 -0.6244 -1.1176
  254poe    c23 1315   2.342  -0.454   0.345  0.4037  0.3332 -0.2012
  254poe     o2 1316   2.312  -0.581   0.292  0.3994  0.1240  0.2954
  254poe    c23 1317   2.341  -0.691   0.376 -0.6136 -0.3733  0.0078
  254poe    c23 1318   2.229  -0.788   0.419 -0.3566 -0.5002  0.3892
  254poe     o2 1319   2.170  -0.851   0.308  0.3471 -0.2387 -0.1437
  254poe    c31 1320   2.039  -0.889   0.344  0.2067 -0.0629 -0.4642
  255poe    c31 1321   1.118   0.732   6.163 -0.6006  0.0568 -0.4917
  255poe     o2 1322   1.024   0.808   6.235  0.1453  0.4007  0.1255
  255poe    c23 1323   1.002   0.772   6.370  0.4638 -0.0637  0.0571
  255poe    c23 1324   0.928   0.877   6.455 -0.0139 -0.2724 -0.0951
  255poe     o2 1325   0.805   0.912   6.397  0.1091 -0.1767 -0.2976
  255poe    c23 1326   0.695   0.824   6.404  0.1654 -0.2053  0.2608
  255poe    c23 1327   0.582   0.886   6.319  0.4828  0.4617  0.3161
  255poe     o2 1328   0.633   0.946   6.202  0.3588 -0.4690 -0.2266
  255poe    c23 1329   0.538   1.018   6.127  0.2719 -0.3553 -0.0067
  255poe    c23 1330   0.603   1.112   6.025 -0.0091 -0.3686 -0.1996
  255poe     o2 1331   0.722   1.171   6.072 -0.4921 -0.2206  0.8583
  255poe    c31 1332   0.758   1.268   5.976 -0.5749 -0.5712  0.4683
  256poe    c31 1333  -0.005   0.719   3.337  0.2167  0.5868  0.0137
  256poe     o2 1334   0.131   0.753   3.354  0.4105 -0.1780  0.0350
  256poe    c23 1335   0.221   0.669   3.286 -0.0652 -0.1526 -0.6316
  256poe    c23 1336   0.359   0.703   3.346 -0.1031  0.1082 -0.6865
  256poe     o2 1337   0.370   0.843   3.345  0.2241  0.0896 -0.0625
  256poe    c23 1338   0.485   0.881   3.418  0.5592 -0.8758 -0.0744
  256poe    c23 1339   0.511   1.033   3.418 -0.3590 -0.7089  0.2339
  256poe     o2 1340   0.396   1.100   3.463 -0.2279 -0.0798 -0.3620
  256poe    c23 1341   0.425   1.238   3.473 -0.2615 -0.0844 -0.1970
  256poe    c23 1342   0.299   1.323   3.499  0.3132  0.6389  0.2542
  256poe     o2 1343   0.259   1.312   3.634 -0.1731  0.3945  0.0903
  256poe    c31 1344   0.176   1.422   3.663 -0.5799  0.1789 -0.2339
  257poe    c31 1345   2.036   0.425   4.808  0.0373 -0.1268 -0.0998
  257poe     o2 1346   2.148   0.349   4.845  0.1217  0.1143  0.1459
  257poe    c23 1347   2.251   0.347   4.748  0.0967  0.5002  0.1127
  257poe    c23 1348   2.349   0.230   4.769  0.2822  0.5743 -0.3363
  257poe     o2 1349   2.379   0.226   4.907 -0.3462 -0.6697 -0.2295
  257poe    c23 1350   2.472   0.127   4.943 -0.0591 -0.4252 -0.3000
  257poe    c23 1351   2.480   0.173   5.089  0.0925 -0.7248 -0.2118
  257poe     o2 1352   2.353   0.170   5.150  0.0266  0.3948 -0.2681
  257poe    c23 1353   2.372   0.188   5.288  0.2809  0.6036 -0.3295
  257poe    c23 1354   2.242   0.162   5.367  0.4105 -0.2629 -0.3884
  257poe     o2 1355   2.151   0.267   5.340  0.1926 -0.2642  0.3128
  257poe    c31 1356   2.027   0.232   5.398  0.1611 -0.2039  0.2825
  258poe    c31 1357   1.966   0.442   3.840 -0.0660  0.0514 -0.2549
  258poe     o2 1358   2.056   0.343   3.882  0.2059  0.3462 -0.1402
  258poe    c23 1359   2.174   0.342   3.805 -0.2214 -0.3271 -0.8030
  258poe    c23 1360   2.272   0.236   3.858 -0.3499  0.0985  0.3257
  258poe     o2 1361   2.220   0.105   3.861 -0.2376  0.0539  0.3165
  258poe    c23 1362   2.324   0.010   3.845 -0.0162  0.3602 -0.0878
  258poe    c23 1363   2.253  -0.126   3.852 -0.2747  0.4901 -0.1672
  258poe     o2 1364   2.134  -0.124   3.928 -0.4160  0.0474 -0.3748
  258poe    c23 1365   2.075  -0.252   3.917  0.0425 -0.1348 -0.7920
  258poe    c23 1366   1.925  -0.254   3.952  0.2705 -0.0281  0.2304
  258poe     o2 1367   1.867  -0.150   3.876 -0.3136 -0.0989  0.5687
  258poe    c31 1368   1.728  -0.170   3.868 -0.2023 -0.8008  0.3103
  259poe    c31 1369   2.173   1.966   5.430 -0.9180  0.7755 -0.1983
  259poe     o2 1370   2.223   2.082   5.495  0.2141  0.0101  0.3379
  259poe    c23 1371   2.209   2.068   5.635  0.5922  0.3366  0.4082
  259poe    c23 1372   2.251   2.197   5.707 -0.0211  0.5853  0.3185
  259poe     o2 1373   2.383   2.236   5.676  0.0320  0.1255 -0.0504
  259poe    c23 1374   2.439   2.311   5.782  0.5345 -0.2991 -0.0107
  259poe    c23 1375   2.563   2.375   5.716  0.2089 -0.2390 -0.5714
  259poe     o2 1376   2.643   2.284   5.643  0.1155 -0.5034 -0.3447
  259poe    c23 1377   2.741   2.353   5.569 -0.1710 -0.1555 -0.4030
  259poe    c23 1378   2.834   2.249   5.504 -0.1074  0.4694 -1.3291
  259poe     o2 1379   2.754   2.142   5.459  0.0626 -0.1458 -0.2011
  259poe    c31 1380   2.833   2.050   5.388  0.4467  0.0058  0.0284
  260poe    c31 1381   1.281   2.094   1.035  0.8817 -0.0045  0.2424
  260poe     o2 1382   1.292   2.125   1.172  0.3928  0.2722  0.2199
  260poe    c23 1383   1.213   2.241   1.188 -0.6577 -0.4074  0.1096
  260poe    c23 1384   1.210   2.259   1.341  0.2494  0.0411  0.0813
  260poe     o2 1385   1.164   2.135   1.388 -0.3240  0.2220  0.0057
  260poe    c23 1386   1.076   2.169   1.493  0.4077  0.3987  0.5721
  260poe    c23 1387   1.065   2.044   1.583 -0.7872 -0.0087 -0.1111
  260poe     o2 1388   1.021   1.930   1.513  0.2244 -0.2609 -0.3518
  260poe    c23 1389   0.970   1.832   1.600  0.4850 -0.4827 -0.4479
  260poe    c23 1390   0.953   1.696   1.531 -0.0611 -0.5456 -0.1959
  260poe     o2 1391   1.069   1.627   1.488 -0.0476 -0.4856 -0.2572
  260poe    c31 1392   1.054   1.512   1.409 -0.2708 -0.2839 -0.5096
  261poe    c31 1393   0.913   0.857   5.169 -0.1620 -0.5068  0.4114
  261poe     o2 1394   1.049   0.872   5.135 -0.2734 -0.5463 -0.0628
  261poe    c23 1395   1.069   1.011   5.119  0.6437 -0.6108  0.4645
  261poe    c23 1396   1.200   1.079   5.163  0.1304  0.7170 -0.0001
  261poe     o2 1397   1.315   1.016   5.111  0.0884  0.5778  0.0748
  261poe    c23 1398   1.418   1.106   5.145  0.4654  0.1927 -0.0405
  261poe    c23 1399   1.542   1.098   5.055  0.3123 -0.4349 -0.2072
  261poe     o2 1400   1.601   0.971   5.068 -0.2342 -0.6818 -0.1479
  261poe    c23 1401   1.696   0.929   4.972  0.4256  0.4509 -0.0038
  261poe    c23 1402   1.662   0.928   4.822  0.1563  0.0000  0.0585
  261poe     o2 1403   1.607   1.047   4.772 -0.1920 -0.1826 -0.0015
  261poe    c31 1404   1.632   1.078   4.636  0.5275 -0.2777  0.1043
  262poe    c31 1405   0.268   2.270   6.494  0.4189  0.4437 -0.6737
  262poe     o2 1406   0.363   2.365   6.539  0.3343  0.3794 -0.3558
  262poe    c23 1407   0.388   2.369   6.678 -0.0578 -0.1857 -0.2644
  262poe    c23 1408   0.490   2.482   6.701 -0.0735 -0.0620 -0.7828
  262poe     o2 1409   0.624   2.450   6.670  0.2685  0.2507  0.3231
  262poe    c23 1410   0.721   2.482   6.767  0.9663  0.6763 -0.4988
  262poe    c23 1411   0.844   2.391   6.751  0.0805 -0.5798 -0.3449
  262poe     o2 1412   0.899   2.404   6.621 -0.2480 -0.5630 -0.4849
  262poe    c23 1413   0.970   2.292   6.573 -0.4376 -0.7287 -0.3795
  262poe    c23 1414   0.994   2.309   6.422 -0.3075  0.2828 -0.2544
  262poe     o2 1415   0.876   2.322   6.346 -0.4003  0.2777 -0.1098
  262poe    c31 1416   0.907   2.298   6.211 -0.6458  0.3620 -0.1815
  263poe    c31 1417   0.305   0.995   4.992  0.5131  0.0927  0.2428
  263poe     o2 1418   0.270   0.972   4.858  0.1245  0.4206  0.2874
  263poe    c23 1419   0.362   1.010   4.759 -0.0993  0.0182 -0.0801
  263poe    c23 1420   0.298   1.033   4.621 -0.0373 -0.0244 -0.1166
  263poe     o2 1421   0.264   1.165   4.584 -0.2268 -0.0525 -0.0416
  263poe    c23 1422   0.369   1.226   4.513 -0.0220  0.4139  0.6551
  263poe    c23 1423   0.326   1.351   4.433  0.1151  0.3588  0.4957
  263poe     o2 1424   0.274   1.310   4.309  0.2847  0.0486  0.5245
  263poe    c23 1425   0.208   1.422   4.255  0.1419 -0.2641  0.0357
  263poe    c23 1426   0.147   1.392   4.117  0.1556  0.2320 -0.0821
  263poe     o2 1427   0.024   1.322   4.113  0.3243 -0.0641 -0.1084
  263poe    c31 1428  -0.016   1.279   3.985 -0.6533  0.1494  0.1172
  264poe    c31 1429   1.776   1.782   4.744 -1.0889  0.0143 -0.3125
  264poe     o2 1430   1.816   1.698   4.637  0.2516  0.1472  0.0615
  264poe    c23 1431   1.865   1.771   4.527  0.4204 -0.2809 -0.1467
  264poe    c23 1432   1.860   1.691   4.395  0.0050 -0.3400 -0.0966
  264poe     o2 1433   1.730   1.668   4.347 -0.1812 -0.7494  0.5950
  264poe    c23 1434   1.725   1.586   4.233 -0.1020  0.3354 -0.2083
  264poe    c23 1435   1.582   1.537   4.200 -0.1393  0.1180  0.2563
  264poe     o2 1436   1.536   1.438   4.289 -0.2531 -0.0469  0.0133
  264poe    c23 1437   1.418   1.367   4.258  0.1496 -0.6149 -0.2240
  264poe    c23 1438   1.367   1.302   4.388 -0.2333  0.2037  0.0392
  264poe     o2 1439   1.278   1.388   4.455 -0.0409  0.0559  0.4917
  264poe    c31 1440   1.248   1.321   4.575  0.6567 -0.3294  0.4510
  265poe    c31 1441   1.471   1.913   4.103 -0.2329 -0.4097  0.3413
  265poe     o2 1442   1.442   1.946   4.237 -0.2778 -0.2255  0.2855
  265poe    c23 1443   1.312   2.001   4.246 -0.0404  0.3787  0.0575
  265poe    c23 1444   1.275   2.040   4.391 -0.3278  0.8475 -0.1407
  265poe     o2 1445   1.276   1.927   4.475 -0.3183  0.7737 -0.2399
  265poe    c23 1446   1.195   1.959   4.586 -0.2228  0.4868 -0.0873
  265poe    c23 1447   1.179   1.832   4.673  0.4647  0.9902  0.7882
  265poe     o2 1448   1.303   1.772   4.702  0.1807  0.2629  0.5033
  265poe    c23 1449   1.281   1.656   4.781 -0.4612  0.2864  0.3713
  265poe    c23 1450   1.415   1.579   4.777 -0.3692  0.4786 -0.4471
  265poe     o2 1451   1.477   1.574   4.650  0.0682 -0.0778 -0.2121
  265poe    c31 1452   1.576   1.473   4.655  0.3944  0.2483 -0.0691
  266poe    c31 1453   2.307   0.957   3.032 -0.4676 -0.1342  0.2968
  266poe     o2 1454   2.447   0.942   3.033 -0.4316  0.0365 -0.9518
  266poe    c23 1455   2.500   0.825   2.975  0.7868 -0.0505  0.3139
  266poe    c23 1456   2.530   0.823   2.824  0.0508 -0.3064  0.1675
  266poe     o2 1457   2.649   0.889   2.787 -0.3015  0.3628  0.2137
  266poe    c23 1458   2.652   0.906   2.647  0.5378  0.3134  0.2169
  266poe    c23 1459   2.719   1.035   2.597 -0.1642  0.4921 -0.2785
  266poe     o2 1460   2.855   1.036   2.632 -0.0830  0.4576 -0.5883
  266poe    c23 1461   2.895   1.171   2.616  0.1215  0.5048  0.2293
  266poe    c23 1462   3.043   1.206   2.635  0.1537  0.5016 -0.0091
  266poe     o2 1463   3.135   1.155   2.540 -0.0391  0.5683 -0.2317
  266poe    c31 1464   3.164   1.018   2.557 -0.7224  0.3671 -0.6459
  267poe    c31 1465   1.027   0.015   1.848  0.5927 -0.3747  0.1293
  267poe     o2 1466   0.922   0.023   1.942  0.2305  0.2757 -0.3184
  267poe    c23 1467   0.789   0.027   1.897  0.1478 -0.4055 -0.1445
  267poe    c23 1468   0.706   0.049   2.025 -0.3178 -0.2545 -0.4706
  267poe     o2 1469   0.711  -0.068   2.104  0.3441  0.1649  0.1212
  267poe    c23 1470   0.640  -0.073   2.226  0.1248  0.5267  0.0105
  267poe    c23 1471   0.668  -0.213   2.283  0.0603  0.2620 -0.6005
  267poe     o2 1472   0.804  -0.238   2.310  0.0669  0.2174 -0.6744
  267poe    c23 1473   0.823  -0.348   2.396 -0.4804  0.1343 -0.6580
  267poe    c23 1474   0.975  -0.329   2.410 -0.4324 -0.6353 -0.1252
  267poe     o2 1475   1.029  -0.291   2.285 -0.3669  0.4715  0.2301
  267poe    c31 1476   1.166  -0.321   2.294 -0.4438  0.1786  0.4473
  268poe    c31 1477   2.372   1.856   6.010  0.0858 -0.7539  1.0472
  268poe     o2 1478   2.446   1.956   6.075 -0.1146  0.0834  0.0230
  268poe    c23 1479   2.565   1.984   6.006 -0.0246  0.3801  0.2967
  268poe    c23 1480   2.646   2.096   6.075  0.3619  0.2336  0.0863
  268poe     o2 1481   2.573   2.217   6.078  0.5829  0.3670  0.1408
  268poe    c23 1482   2.638   2.331   6.128  0.4030  0.3449  0.4330
  268poe    c23 1483   2.536   2.446   6.143 -0.3953 -0.2413 -0.3641
  268poe     o2 1484   2.449   2.453   6.254 -0.2984  1.1981 -0.3526
  268poe    c23 1485   2.315   2.428   6.217 -0.1616 -0.0725 -0.0315
  268poe    c23 1486   2.235   2.348   6.321 -0.0288  0.1835  0.2685
  268poe     o2 1487   2.233   2.416   6.445  0.1457  0.5732  0.0601
  268poe    c31 1488   2.147   2.347   6.534  0.0105  0.4728 -0.1455
  269poe    c31 1489   1.204   1.795   6.407  0.0568  0.4077 -0.6639
  269poe     o2 1490   1.225   1.656   6.420 -0.6983  0.2982 -0.5881
  269poe    c23 1491   1.101   1.599   6.386 -0.3406 -0.4154 -0.7006
  269poe    c23 1492   1.094   1.445   6.401  0.1025 -0.3400  0.3614
  269poe     o2 1493   1.165   1.387   6.294  0.3445 -0.3767  0.5421
  269poe    c23 1494   1.189   1.253   6.331  0.2109 -0.4585  0.3335
  269poe    c23 1495   1.244   1.187   6.203  0.2848 -0.0607  0.1607
  269poe     o2 1496   1.156   1.182   6.093  0.1575 -0.7222  0.2878
  269poe    c23 1497   1.232   1.168   5.975 -0.3301  0.2623 -0.1632
  269poe    c23 1498   1.180   1.245   5.853  0.0631  0.4944 -0.1858
  269poe     o2 1499   1.161   1.381   5.883 -0.1960  0.3957  0.0996
  269poe    c31 1500   1.094   1.437   5.772 -0.7182  0.1904  0.3051
  270poe    c31 1501   1.636   1.536   2.438 -0.3800  0.4082 -0.0404
  270poe     o2 1502   1.638   1.425   2.525  0.0480  0.3772 -0.0880
  270poe    c23 1503   1.749   1.428   2.612 -0.1329 -0.0440  0.1625
  270poe    c23 1504   1.817   1.294   2.647 -0.2465 -0.0606  0.3215
  270poe     o2 1505   1.708   1.213   2.686 -0.2748 -0.1454  0.0728
  270poe    c23 1506   1.729   1.076   2.662 -0.0990 -0.1578  0.2884
  270poe    c23 1507   1.598   0.997   2.685 -0.3201  0.2288  0.3579
  270poe     o2 1508   1.505   1.031   2.585 -0.1744  0.4932  0.3104
  270poe    c23 1509   1.421   0.920   2.565 -0.6807  0.9897 -0.3911
  270poe    c23 1510   1.350   0.898   2.430 -0.6498 -0.7016 -0.1571
  270poe     o2 1511   1.243   0.981   2.392  0.1145  0.4005  0.0584
  270poe    c31 1512   1.163   0.897   2.312  0.6370  0.6062 -0.6915
  271lim     li 1513   0.215   2.143   5.553  0.8258 -0.5975  0.0949
  272lim     li 1514   0.091   1.596   2.770  0.6179  0.0752  0.9004
  273lim     li 1515   0.773   2.017   0.930  0.9210  1.3092  0.8930
  274lim     li 1516   2.067   1.092   2.120  0.3519 -0.7653  1.0282
  275lim     li 1517   0.863   2.053   3.285 -0.5590 -0.2112  0.5267
  276lim     li 1518   0.851   0.766   0.660  0.9023 -0.1575 -0.7591
  277lim     li 1519   0.802   1.248   4.014  0.4744  0.5164 -0.3556
  278lim     li 1520   1.367   0.689   1.640 -0.1061 -1.0455 -1.4061
  279lim     li 1521   0.461   0.597   4.651  0.3574 -0.3085 -0.8547
  280lim     li 1522   2.233   0.276   4.996 -0.4043 -0.4668  0.4422
  281lim     li 1523   1.080   1.332   2.433  0.1659  1.1182 -0.2986
  282lim     li 1524   0.160   1.372   5.810 -0.3766  0.8745  0.7274
  283lim     li 1525   0.918   0.367   5.719 -0.6882 -1.9824  0.0899
  284lim     li 1526   0.136   0.200   6.370  0.2979 -0.8957  1.2815
  285lim     li 1527   1.404   1.702   2.980  0.5272 -0.3380 -0.1439
  286lim     li 1528   2.136   1.435   4.836 -0.1336  1.0366 -0.7304
  287lim     li 1529   0.040   0.859   1.090  0.1924 -0.5115 -0.1899
  288lim     li 1530   1.293   1.207   1.129 -0.4783 -0.4924 -0.3756
  289lim     li 1531   1.632   1.554   1.821 -0.5340 -0.3847  0.3082
  290lim     li 1532   1.390   1.749   4.523  0.4412  0.4964  0.0770
  291lim     li 1533   1.656   2.328   5.551  0.9948  0.2964  0.3417
  292lim     li 1534   2.034   0.663   6.606  0.2856 -0.4303  0.0867
  293lim     li 1535   0.874   1.824   5.237  0.8863 -0.2870  0.3594
  294lim     li 1536   0.024   2.291   1.886 -0.1002 -0.3294  0.8554
  295lim     li 1537   2.048   0.412   0.934  0.9280 -0.3951 -0.6478
  296lim     li 1538   0.206   0.916   3.355 -0.3639 -0.6490 -0.4387
  297lim     li 1539   1.400   2.304   2.625  0.0676 -0.6733 -0.4990
  298lim     li 1540   0.508   1.405   1.848  0.2758 -0.6164 -1.5069
  299lim     li 1541   0.055   2.276   3.015 -0.0761  0.3561  0.5314
  300lim     li 1542   1.041   0.501   3.744  0.5831  0.0933 -0.6142
  301lim     li 1543   1.146   0.760   5.002  0.2690 -0.0240  0.5334
  302lim     li 1544   0.635   0.701   2.856 -0.3092  0.1563  0.1327
  303lim     li 1545   1.913   0.808   5.607  0.3950  0.5596  0.2102
  304lim     li 1546   0.121   0.979   5.622  0.0754 -0.2135 -0.5029
  305lim     li 1547   0.646   0.833   2.177  0.5481 -1.1282 -0.0995
  306lim     li 1548   1.304   1.687   0.155 -0.3795  0.4742  0.9210
  307lim     li 1549   1.437   1.609   6.059 -0.4274  0.2026 -0.3739
  308lim     li 1550   1.289   2.030   1.322  0.2632  0.9407 -0.7048
  309lim     li 1551   0.686   0.292   6.370  0.3321 -0.5471 -0.2277
  310lim     li 1552   2.133   1.538  -0.013 -0.0315  0.3843  0.7000
  311lim     li 1553   0.269   1.859   4.404 -0.1771 -0.3033 -0.0214
  312lim     li 1554   0.201   1.711   1.172  0.6509 -0.1397 -0.1999
  313lim     li 1555   0.936   2.160   2.175 -0.0557 -0.1564  0.5764
  314lim     li 1556   0.323   0.142   1.395  0.5452  0.4556 -1.1105
  315lim     li 1557   1.620   2.096   0.387  0.1342  0.1813  0.1229
  316lim     li 1558   1.697   0.658   3.555 -0.7338  0.0481  0.0594
  317lim     li 1559   1.257   0.152   4.681 -0.4009  0.1539  1.2297
  318lim     li 1560   1.903   0.072   1.963  0.0133 -1.0390  0.2768
  319lim     li 1561   0.638   0.096   3.923  0.3173 -1.5206 -1.6191
  320lim     li 1562   1.583   0.748   0.005  0.6884 -1.0824 -1.1726
  321lim     li 1563   1.806   1.521   3.669  0.9541 -0.3058 -0.9751
  322lim     li 1564   2.206   0.541   4.235  0.2799 -1.1315  1.0015
  323lim     li 1565   2.058   0.058   3.903 -0.0192  1.0946  0.3434
  324lim     li 1566   0.783   1.046   6.252 -0.5815 -0.5062 -0.1972
  325ntf    cn1 1567   2.085   1.651   4.042  0.2858 -0.2603 -0.3344
  325ntf    sn2 1568   2.236   1.747   4.070  0.2518 -0.4178  0.3852
  325ntf    nn3 1569   2.275   1.755   3.918 -0.2031  0.1613  0.2970
  325ntf    sn2 1570   2.416   1.789   3.858 -0.2821  0.1007  0.0793
  325ntf    cn1 1571   2.366   1.884   3.710  0.0999  0.3183  0.0882
  325ntf    fn4 1572   2.100   1.539   3.973 -0.2115 -0.3349 -0.3275
  325ntf    fn4 1573   2.019   1.618   4.152 -0.0908  0.1310 -0.4383
  325ntf    fn4 1574   1.996   1.722   3.973  0.1547 -0.0510  0.0489
  325ntf    on5 1575   2.186   1.875   4.114  0.1744 -0.4127  0.2813
  325ntf    on5 1576   2.320   1.661   4.150  0.9440 -0.1851 -0.0824
  325ntf    on5 1577   2.483   1.675   3.801  0.0976  0.2478  0.2364
  325ntf    on5 1578   2.496   1.886   3.928  0.5636 -0.3127 -0.3022
  325ntf    fn4 1579   2.454   1.975   3.674 -0.1117  0.3607 -0.3232
  325ntf    fn4 1580   2.352   1.810   3.601  0.3081  0.1939  0.1445
  325ntf    fn4 1581   2.252   1.948   3.727 -0.1562 -0.1844  0.3031
  326ntf    cn1 1582   0.669   0.409   1.872 -0.1741 -0.0332 -0.2090
  326ntf    sn2 1583   0.829   0.472   1.812 -0.1644 -0.0324 -0.1818
  326ntf    nn3 1584   0.778   0.569   1.700 -0.1437  0.6067  0.3630
  326ntf    sn2 1585   0.835   0.711   1.665  0.2639  0.2277 -0.5441
  326ntf    cn1 1586   0.858   0.710   1.485  0.1743  0.3366 -0.5565
  326ntf    fn4 1587   0.681   0.325   1.973  0.0144  0.2621  0.0137
  326ntf    fn4 1588   0.597   0.508   1.921  0.4818  0.2205  0.2471
  326ntf    fn4 1589   0.597   0.341   1.784 -0.0621  0.1868 -0.4751
  326ntf    on5 1590   0.894   0.541   1.921 -0.1229 -0.1645 -0.1222
  326ntf    on5 1591   0.886   0.350   1.758  0.3043 -0.2435  0.7626
  326ntf    on5 1592   0.969   0.736   1.713  0.0436 -0.5380  0.5085
  326ntf    on5 1593   0.735   0.811   1.696 -0.5751 -0.8573  0.3090
  326ntf    fn4 1594   0.779   0.619   1.431  0.4931 -0.3161  0.0597
  326ntf    fn4 1595   0.834   0.827   1.427 -0.2653  0.3256 -0.4011
  326ntf    fn4 1596   0.974   0.668   1.438  0.4765  0.1925  0.3011
  327ntf    cn1 1597   0.827   0.343   5.043 -0.0533 -0.1484  0.4379
  327ntf    sn2 1598   0.731   0.493   5.083  0.2005  0.1658 -0.1287
  327ntf    nn3 1599   0.602   0.417   5.130  0.0881  0.2238 -0.3373
  327ntf    sn2 1600   0.520   0.428   5.264  0.0584  0.0867 -0.3438
  327ntf    cn1 1601   0.577   0.289   5.367 -0.1576 -0.1327 -0.5181
  327ntf    fn4 1602   0.851   0.266   5.148  0.3280  0.0368  0.4874
  327ntf    fn4 1603   0.760   0.268   4.957  0.0143  0.2844  0.0052
  327ntf    fn4 1604   0.940   0.379   4.984 -0.4796 -0.0547 -0.3214
  327ntf    on5 1605   0.808   0.566   5.180  0.6664 -0.0485 -0.3306
  327ntf    on5 1606   0.710   0.552   4.953  0.7615 -0.0926 -0.3419
  327ntf    on5 1607   0.387   0.383   5.234  0.1747  0.0370 -0.7933
  327ntf    on5 1608   0.542   0.539   5.353 -0.4203 -0.1398  0.0644
  327ntf    fn4 1609   0.579   0.168   5.314  0.0767 -0.1997 -0.3571
  327ntf    fn4 1610   0.697   0.313   5.417 -0.7244  0.3463  0.6748
  327ntf    fn4 1611   0.496   0.274   5.471  0.2831 -0.0737 -0.1631
  328ntf    cn1 1612   2.360   1.529   1.967 -0.0827 -0.0350 -0.1801
  328ntf    sn2 1613   2.228   1.500   1.845 -0.1359  0.3697 -0.2184
  328ntf    nn3 1614   2.302   1.463   1.711  0.4018  0.3136  0.0890
  328ntf    sn2 1615   2.364   1.322   1.685  0.1188  0.1754  0.1574
  328ntf    cn1 1616   2.238   1.232   1.589  0.2681 -0.1342  0.2490
  328ntf    fn4 1617   2.411   1.414   2.009 -0.0010  0.1462  0.2159
  328ntf    fn4 1618   2.451   1.602   1.905 -0.2538  0.0883 -0.2874
  328ntf    fn4 1619   2.321   1.601   2.070  0.3202 -0.1504  0.0550
  328ntf    on5 1620   2.156   1.387   1.897 -0.0920 -0.0541 -1.0551
  328ntf    on5 1621   2.159   1.626   1.832 -0.4309  0.2759  0.3843
  328ntf    on5 1622   2.387   1.234   1.797 -0.4377  0.5765  0.5936
  328ntf    on5 1623   2.478   1.322   1.596 -0.3426 -0.0405 -0.4423
  328ntf    fn4 1624   2.198   1.293   1.478  0.1366  0.3865  0.5780
  328ntf    fn4 1625   2.301   1.122   1.550  0.0851 -0.2640  0.3225
  328ntf    fn4 1626   2.128   1.202   1.655 -0.1291  0.1373 -0.2833
  329ntf    cn1 1627   1.569   0.625   0.543 -0.4814 -0.3628  0.2278
  329ntf    sn2 1628   1.750   0.621   0.556 -0.4187  0.1218 -0.4165
  329ntf    nn3 1629   1.784   0.770   0.594 -0.3227 -0.0376  0.1445
  329ntf    sn2 1630   1.874   0.835   0.704 -0.1559  0.0209 -0.0271
  329ntf    cn1 1631   1.744   0.871   0.825  0.2674  0.5311  0.2816
  329ntf    fn4 1632   1.528   0.721   0.461 -0.2962 -0.1979  0.3267
  329ntf    fn4 1633   1.514   0.517   0.490 -0.0487 -0.3777 -0.1955
  329ntf    fn4 1634   1.506   0.655   0.655 -0.4094  0.1569  0.1339
  329ntf    on5 1635   1.766   0.529   0.666  0.0396  0.3684 -0.2708
  329ntf    on5 1636   1.798   0.579   0.427  0.4043  0.5310 -0.2476
  329ntf    on5 1637   1.910   0.971   0.671 -0.6783  0.1670  0.0005
  329ntf    on5 1638   1.964   0.746   0.773 -0.0413 -0.1371 -0.3795
  329ntf    fn4 1639   1.677   0.764   0.864  0.0670  0.5427 -0.0234
  329ntf    fn4 1640   1.789   0.939   0.930 -0.0653  0.0086  0.7676
  329ntf    fn4 1641   1.657   0.955   0.771 -0.0487 -0.4238 -0.7316
  330ntf    cn1 1642   1.560   0.593   2.020  0.7273  0.1494 -0.3882
  330ntf    sn2 1643   1.604   0.577   2.195 -0.2505  0.0937 -0.1408
  330ntf    nn3 1644   1.746   0.643   2.205 -0.2008 -0.1183  0.6236
  330ntf    sn2 1645   1.866   0.581   2.285  0.3095  0.2028  0.1115
  330ntf    cn1 1646   1.809   0.594   2.457 -0.2081  0.1938 -0.0585
  330ntf    fn4 1647   1.542   0.719   1.983  0.0921  0.3571  0.5834
  330ntf    fn4 1648   1.653   0.534   1.947  0.4295 -0.2643 -0.4335
  330ntf    fn4 1649   1.437   0.555   1.989  0.4982  0.1091  0.5291
  330ntf    on5 1650   1.498   0.652   2.258 -0.3881 -0.1459 -0.0858
  330ntf    on5 1651   1.596   0.433   2.208 -0.4350  0.1584  0.5496
  330ntf    on5 1652   1.980   0.670   2.287  0.7093 -0.3101  0.5050
  330ntf    on5 1653   1.894   0.441   2.259 -0.2626  0.2015 -0.5311
  330ntf    fn4 1654   1.890   0.544   2.549 -0.0254 -0.2899 -0.4737
  330ntf    fn4 1655   1.780   0.718   2.494 -0.3237  0.1271  0.0757
  330ntf    fn4 1656   1.697   0.525   2.459 -0.0556 -0.0455  0.2361
  331ntf    cn1 1657   0.178   1.930   0.653  0.2570  0.1013 -0.1761
  331ntf    sn2 1658   0.321   1.836   0.714 -0.1484 -0.6505 -0.3681
  331ntf    nn3 1659   0.327   1.724   0.604  0.0289 -0.5394 -0.4729
  331ntf    sn2 1660   0.344   1.569   0.621  0.1028 -0.4779  0.0373
  331ntf    cn1 1661   0.517   1.570   0.567  0.1997 -0.0974  0.3528
  331ntf    fn4 1662   0.154   2.033   0.733 -0.6717 -0.5677  0.4227
  331ntf    fn4 1663   0.210   1.981   0.535  0.0815  0.5572 -0.0291
  331ntf    fn4 1664   0.070   1.856   0.638  0.5385 -0.2839 -0.3074
  331ntf    on5 1665   0.434   1.926   0.704 -0.6913  0.0591 -0.2142
  331ntf    on5 1666   0.286   1.799   0.849  0.6484 -0.2859 -0.0496
  331ntf    on5 1667   0.270   1.490   0.525 -0.3485  0.5974 -0.5294
  331ntf    on5 1668   0.342   1.526   0.758 -0.1483 -0.4713  0.0371
  331ntf    fn4 1669   0.532   1.614   0.443 -0.7433  0.2619  0.3575
  331ntf    fn4 1670   0.587   1.658   0.638  0.8156 -0.2563 -0.0465
  331ntf    fn4 1671   0.581   1.455   0.576  0.5996  0.1176  0.2989
  332ntf    cn1 1672   1.816   2.377   1.304 -0.2142 -0.1139 -0.3451
  332ntf    sn2 1673   1.744   2.481   1.435 -0.1539 -0.0685 -0.3478
  332ntf    nn3 1674   1.595   2.501   1.389 -0.2896  0.1531  0.1798
  332ntf    sn2 1675   1.538   2.638   1.339 -0.2440  0.0127 -0.2662
  332ntf    cn1 1676   1.358   2.613   1.331 -0.2201 -0.1663 -0.2484
  332ntf    fn4 1677   1.948   2.375   1.309 -0.2209  0.7791  0.4464
  332ntf    fn4 1678   1.788   2.249   1.324  0.1846 -0.1496 -0.0133
  332ntf    fn4 1679   1.778   2.402   1.180  0.2249  0.3598 -0.3854
  332ntf    on5 1680   1.743   2.391   1.548 -0.0436  0.5142  0.1199
  332ntf    on5 1681   1.829   2.596   1.439 -0.1166 -0.1118  0.2482
  332ntf    on5 1682   1.568   2.662   1.201 -0.0160  0.6007 -0.1188
  332ntf    on5 1683   1.561   2.752   1.425  0.5231 -0.3367  0.0014
  332ntf    fn4 1684   1.283   2.722   1.333  0.3753  0.2400  0.0485
  332ntf    fn4 1685   1.318   2.544   1.225  0.6556 -0.3979 -0.4322
  332ntf    fn4 1686   1.325   2.533   1.432 -0.3356  0.9705  0.6371
  333ntf    cn1 1687   1.782   2.110   6.349 -0.2115  0.0586  0.1589
  333ntf    sn2 1688   1.688   1.982   6.436 -0.0809  0.0438  0.2776
  333ntf    nn3 1689   1.552   2.051   6.474 -0.2023 -0.4040  0.6799
  333ntf    sn2 1690   1.518   2.149   6.591  0.2213  0.0938  0.3912
  333ntf    cn1 1691   1.420   2.277   6.507  0.0241 -0.3382 -0.0398
  333ntf    fn4 1692   1.747   2.112   6.221  0.2363 -0.6571  0.0246
  333ntf    fn4 1693   1.752   2.230   6.397 -0.4441  0.1633 -0.2471
  333ntf    fn4 1694   1.912   2.086   6.358 -0.3260 -0.5381  0.2657
  333ntf    on5 1695   1.655   1.878   6.342 -0.0607 -0.0203  0.3410
  333ntf    on5 1696   1.755   1.937   6.556  0.4950 -0.0008 -0.0597
  333ntf    on5 1697   1.623   2.228   6.651  0.6647  0.1120 -0.4030
  333ntf    on5 1698   1.425   2.086   6.681  0.2437 -0.2622  0.1653
  333ntf    fn4 1699   1.483   2.339   6.408 -0.7848  0.5105 -0.0330
  333ntf    fn4 1700   1.309   2.235   6.449  0.0104 -0.0071 -0.2592
  333ntf    fn4 1701   1.388   2.378   6.586 -0.0907  0.0878 -0.6203
  334ntf    cn1 1702   0.275   0.456   2.351 -0.0291  0.2067  0.2659
  334ntf    sn2 1703   0.385   0.550   2.461  0.2485 -0.0121  0.1774
  334ntf    nn3 1704   0.518   0.475   2.426  0.3715  0.2331  0.1223
  334ntf    sn2 1705   0.641   0.520   2.339  0.1920  0.0449 -0.2312
  334ntf    cn1 1706   0.757   0.530   2.479  0.1837 -0.4745 -0.1866
  334ntf    fn4 1707   0.297   0.473   2.222  0.2948  0.4131  0.3477
  334ntf    fn4 1708   0.294   0.327   2.371  0.4621  0.1903 -0.2737
  334ntf    fn4 1709   0.147   0.480   2.374 -0.1280  0.1473 -0.2126
  334ntf    on5 1710   0.375   0.687   2.419  0.0780  0.1604  0.7606
  334ntf    on5 1711   0.339   0.510   2.592 -0.2110 -0.3331 -0.0784
  334ntf    on5 1712   0.648   0.656   2.291  0.1876  0.2188  0.2528
  334ntf    on5 1713   0.695   0.413   2.258  0.3860  0.5437 -0.7724
  334ntf    fn4 1714   0.867   0.598   2.452 -0.2215  0.3994  0.3408
  334ntf    fn4 1715   0.696   0.585   2.583  0.6654 -0.0170 -0.1457
  334ntf    fn4 1716   0.787   0.408   2.519  0.1588 -0.3834  0.1119
  335ntf    cn1 1717   1.890   2.040   4.995  0.2715 -0.1061 -0.0141
  335ntf    sn2 1718   2.069   2.067   4.993  0.3034 -0.3106  0.0761
  335ntf    nn3 1719   2.092   2.033   4.842  0.4738 -0.1802  0.0721
  335ntf    sn2 1720   2.156   2.114   4.724  0.3545  0.1109  0.2064
  335ntf    cn1 1721   2.330   2.101   4.775  0.2877  0.0060  0.4061
  335ntf    fn4 1722   1.826   2.123   4.914 -0.1402 -0.5359 -0.1384
  335ntf    fn4 1723   1.856   1.921   4.947 -0.5196  0.1229 -0.0366
  335ntf    fn4 1724   1.843   2.044   5.118  0.1602 -0.0633 -0.0578
  335ntf    on5 1725   2.090   2.203   5.036 -1.0232 -0.0465 -0.0855
  335ntf    on5 1726   2.114   1.961   5.080  0.2107 -0.0129  0.4877
  335ntf    on5 1727   2.127   2.255   4.715 -0.3059 -0.0646 -0.5462
  335ntf    on5 1728   2.146   2.040   4.600  0.1750 -0.3705  0.5056
  335ntf    fn4 1729   2.350   2.170   4.886  0.3812  0.0424  0.3671
  335ntf    fn4 1730   2.375   1.978   4.795  0.9564  0.1802  0.0008
  335ntf    fn4 1731   2.406   2.151   4.679 -0.3090  0.4311  0.1509
  336ntf    cn1 1732   0.452   1.857   1.862 -0.1006 -0.0210  0.0988
  336ntf    sn2 1733   0.605   1.905   1.775 -0.1829 -0.1072 -0.0953
  336ntf    nn3 1734   0.547   1.985   1.653 -0.4767 -0.1257  0.0310
  336ntf    sn2 1735   0.504   2.135   1.637 -0.1808 -0.0409  0.0395
  336ntf    cn1 1736   0.661   2.192   1.564 -0.0810 -0.2524  0.0865
  336ntf    fn4 1737   0.385   1.958   1.916  0.1449  0.3517 -0.2877
  336ntf    fn4 1738   0.372   1.786   1.785  0.3514 -0.7055  0.2499
  336ntf    fn4 1739   0.495   1.777   1.958  0.5245  0.2403  0.0441
  336ntf    on5 1740   0.670   1.990   1.872  0.2216 -0.4990 -0.0238
  336ntf    on5 1741   0.676   1.787   1.735  0.8449 -0.0680  1.5347
  336ntf    on5 1742   0.472   2.199   1.762  0.0645  0.0692  0.0488
  336ntf    on5 1743   0.405   2.145   1.533  0.0199 -0.3866 -0.1880
  336ntf    fn4 1744   0.669   2.324   1.550 -0.1364 -0.2372  0.2012
  336ntf    fn4 1745   0.764   2.168   1.643 -0.1459 -0.4635  0.1058
  336ntf    fn4 1746   0.682   2.134   1.447 -0.0485 -0.1081  0.0207
  337ntf    cn1 1747   0.359   2.002   2.490  0.8036  0.5755 -0.1372
  337ntf    sn2 1748   0.362   2.123   2.626  0.2789  0.1305  0.2761
  337ntf    nn3 1749   0.492   2.068   2.694  0.0441  0.0128  0.6283
  337ntf    sn2 1750   0.520   1.965   2.809 -0.0130 -0.2548  0.4030
  337ntf    cn1 1751   0.665   1.878   2.741  0.0259  0.3108 -0.2475
  337ntf    fn4 1752   0.308   1.888   2.532  0.2501  0.6500 -0.5889
  337ntf    fn4 1753   0.269   2.040   2.400  0.0643  0.0982  0.3873
  337ntf    fn4 1754   0.472   1.980   2.426  0.4373 -0.5661 -0.4087
  337ntf    on5 1755   0.376   2.250   2.559  0.9806 -0.0806  0.0120
  337ntf    on5 1756   0.240   2.097   2.698  0.5501 -0.6253  0.4700
  337ntf    on5 1757   0.417   1.865   2.815 -0.2989  0.0279  0.1918
  337ntf    on5 1758   0.576   2.032   2.924  0.2279 -0.1396  0.2197
  337ntf    fn4 1759   0.714   1.789   2.826  0.2564  0.3433 -0.3442
  337ntf    fn4 1760   0.632   1.809   2.633 -0.1139 -0.1356  0.0751
  337ntf    fn4 1761   0.761   1.966   2.718  0.4724 -0.0258  0.2950
  338ntf    cn1 1762   0.314   0.730   6.631 -0.2405 -0.1541  0.1385
  338ntf    sn2 1763   0.237   0.641   6.493 -0.0828 -0.2098  0.0860
  338ntf    nn3 1764   0.256   0.755   6.386 -0.2094 -0.3805 -0.1198
  338ntf    sn2 1765   0.163   0.816   6.275  0.1722  0.1528 -0.1460
  338ntf    cn1 1766   0.130   0.981   6.345  0.2403  0.1109 -0.0139
  338ntf    fn4 1767   0.330   0.656   6.740 -0.1117  0.5123  0.5765
  338ntf    fn4 1768   0.429   0.791   6.607 -0.1197 -0.3366  0.2441
  338ntf    fn4 1769   0.233   0.822   6.681 -0.0498 -0.1558  0.4572
  338ntf    on5 1770   0.335   0.537   6.470 -0.1459 -0.4342  0.8195
  338ntf    on5 1771   0.107   0.612   6.548 -0.3965  0.0791 -0.4874
  338ntf    on5 1772   0.033   0.755   6.272  0.0891  0.3307 -0.2051
  338ntf    on5 1773   0.236   0.847   6.155 -0.1288 -0.2162 -0.4255
  338ntf    fn4 1774   0.014   1.028   6.300 -0.1518 -0.6730  0.1590
  338ntf    fn4 1775   0.125   0.975   6.477 -0.4514 -0.1364 -0.0448
  338ntf    fn4 1776   0.221   1.064   6.298  0.1679  0.0991 -0.1759
  339ntf    cn1 1777   1.025   0.022   3.049  0.3627 -0.3790  0.1194
  339ntf    sn2 1778   1.184   0.109   3.038 -0.0006  0.2597 -0.1115
  339ntf    nn3 1779   1.284  -0.005   2.999 -0.2732 -0.0458  0.0784
  339ntf    sn2 1780   1.330  -0.130   3.083  0.3062 -0.0411 -0.2262
  339ntf    cn1 1781   1.505  -0.090   3.112  0.1905  0.3877 -0.1085
  339ntf    fn4 1782   1.017  -0.065   3.148  0.2346 -0.6439 -0.1221
  339ntf    fn4 1783   0.925   0.103   3.080  0.0596 -0.2915 -1.0606
  339ntf    fn4 1784   0.995  -0.032   2.932  0.1098 -0.5966  0.2834
  339ntf    on5 1785   1.171   0.211   2.937  0.0463  0.0871 -0.2922
  339ntf    on5 1786   1.217   0.156   3.171 -0.2971 -0.0286  0.0649
  339ntf    on5 1787   1.337  -0.251   3.005 -0.1424 -0.1412 -0.1138
  339ntf    on5 1788   1.272  -0.137   3.215  0.1699 -0.4324 -0.3047
  339ntf    fn4 1789   1.539  -0.116   3.237  0.0446  0.4490 -0.0552
  339ntf    fn4 1790   1.595  -0.144   3.031  0.2395  0.1890  0.0771
  339ntf    fn4 1791   1.522   0.041   3.103 -0.1078  0.4422  0.0988
  340ntf    cn1 1792   1.349   1.442   5.375 -0.4473  0.3838  0.3470
  340ntf    sn2 1793   1.345   1.489   5.200 -0.0179 -0.1911  0.1799
  340ntf    nn3 1794   1.310   1.639   5.230 -0.1426 -0.1081 -0.3570
  340ntf    sn2 1795   1.392   1.765   5.184  0.0323 -0.0272  0.1669
  340ntf    cn1 1796   1.510   1.785   5.321  0.1522 -0.2066  0.0895
  340ntf    fn4 1797   1.242   1.373   5.410 -0.4884  0.4048  0.2624
  340ntf    fn4 1798   1.448   1.361   5.410 -0.4129  0.2581 -0.0389
  340ntf    fn4 1799   1.355   1.545   5.458  0.1923 -0.0935  0.9103
  340ntf    on5 1800   1.478   1.465   5.150 -0.2085  0.3635 -0.6194
  340ntf    on5 1801   1.234   1.418   5.140 -0.2132  0.0346  0.2717
  340ntf    on5 1802   1.304   1.879   5.189 -0.2957 -0.2751  0.1487
  340ntf    on5 1803   1.472   1.754   5.065 -0.2131  0.0378 -0.0052
  340ntf    fn4 1804   1.575   1.678   5.365  0.6111  0.0688  0.0897
  340ntf    fn4 1805   1.604   1.874   5.291 -0.3868  0.2911 -0.1429
  340ntf    fn4 1806   1.449   1.821   5.433 -0.2983 -0.5105 -0.0562
  341ntf    cn1 1807   2.023   0.822   4.686  0.0540 -0.0840 -0.2227
  341ntf    sn2 1808   2.169   0.887   4.772  0.1188 -0.0630 -0.3484
  341ntf    nn3 1809   2.178   0.781   4.887 -0.2035  0.5004  0.2020
  341ntf    sn2 1810   2.117   0.785   5.032 -0.3674  0.1576  0.1430
  341ntf    cn1 1811   2.270   0.802   5.128 -0.4557  0.1900  0.2790
  341ntf    fn4 1812   2.033   0.697   4.643 -0.4502 -0.5050  0.8692
  341ntf    fn4 1813   1.921   0.819   4.769  0.0879 -0.2851 -0.1871
  341ntf    fn4 1814   1.983   0.895   4.583  0.0392  0.1976 -0.0170
  341ntf    on5 1815   2.271   0.866   4.672  0.3220  0.2118 -0.2034
  341ntf    on5 1816   2.144   1.025   4.808 -0.0402 -0.1522 -0.1125
  341ntf    on5 1817   2.064   0.660   5.081  0.3259 -0.0804  0.2942
  341ntf    on5 1818   2.039   0.903   5.060 -0.2239  0.2342  0.2203
  341ntf    fn4 1819   2.359   0.704   5.116 -0.7110  0.0010 -0.0875
  341ntf    fn4 1820   2.335   0.908   5.082  0.2544 -0.3405  0.0293
  341ntf    fn4 1821   2.253   0.826   5.257 -0.2478 -0.4720  0.4349
  342ntf    cn1 1822   1.055   1.596   3.889 -0.1803  0.2048 -0.2998
  342ntf    sn2 1823   1.002   1.527   4.048  0.4281  0.1202 -0.1312
  342ntf    nn3 1824   0.922   1.644   4.116  0.2239 -0.5206  0.7376
  342ntf    sn2 1825   0.959   1.758   4.217  0.3704  0.1849 -0.1023
  342ntf    cn1 1826   0.884   1.683   4.365 -0.3589  0.3016 -0.4082
  342ntf    fn4 1827   1.148   1.689   3.908  0.6246 -0.7420  0.5096
  342ntf    fn4 1828   1.109   1.509   3.805  0.5709  0.2627  0.1135
  342ntf    fn4 1829   0.950   1.648   3.827 -0.5346 -0.2024 -0.0413
  342ntf    on5 1830   0.915   1.423   4.000  0.1158  0.4214 -0.2175
  342ntf    on5 1831   1.124   1.477   4.108  0.7718  0.5942 -0.4239
  342ntf    on5 1832   0.893   1.885   4.202  0.0707  0.0705  0.2376
  342ntf    on5 1833   1.099   1.768   4.250  0.4162 -0.2986 -0.1416
  342ntf    fn4 1834   0.879   1.773   4.463 -0.3220  0.1950 -0.3088
  342ntf    fn4 1835   0.758   1.647   4.347 -0.4544  0.4408 -0.0486
  342ntf    fn4 1836   0.957   1.583   4.412 -0.1957  0.1548 -0.9643
  343ntf    cn1 1837   0.959   0.188   0.930  0.1624 -0.3013  0.0215
  343ntf    sn2 1838   0.962   0.325   1.050  0.0679 -0.2017 -0.0899
  343ntf    nn3 1839   0.838   0.282   1.136  0.0937  0.0240  0.0612
  343ntf    sn2 1840   0.821   0.181   1.255 -0.0559  0.0875  0.0936
  343ntf    cn1 1841   0.841   0.279   1.407  0.1184  0.0625  0.0870
  343ntf    fn4 1842   1.012   0.222   0.814 -0.0522 -0.1647 -0.0368
  343ntf    fn4 1843   1.023   0.080   0.973 -0.7208 -0.7103  0.3185
  343ntf    fn4 1844   0.836   0.150   0.903  0.1504  0.1526 -0.5843
  343ntf    on5 1845   1.087   0.327   1.121 -0.0657  0.1182  0.1373
  343ntf    on5 1846   0.929   0.444   0.974  0.5462  0.3395  0.5384
  343ntf    on5 1847   0.916   0.073   1.268  0.2780  0.3217 -0.3495
  343ntf    on5 1848   0.684   0.140   1.269 -0.1716  0.4994  0.1903
  343ntf    fn4 1849   0.809   0.206   1.512 -0.4070  0.4427  0.1969
  343ntf    fn4 1850   0.967   0.321   1.417  0.0746  0.2182 -0.0023
  343ntf    fn4 1851   0.765   0.387   1.406  0.1564  0.0919 -1.3599
  344ntf    cn1 1852   0.881   1.955   0.414 -0.7270 -0.0663 -0.2914
  344ntf    sn2 1853   0.984   2.080   0.331 -0.0835 -0.4159 -0.0270
  344ntf    nn3 1854   0.986   2.192   0.441 -0.0141 -0.3198 -0.1266
  344ntf    sn2 1855   1.088   2.216   0.558 -0.1604  0.0750 -0.0766
  344ntf    cn1 1856   1.068   2.396   0.547 -0.0931  0.0800 -0.1197
  344ntf    fn4 1857   0.756   1.997   0.417 -0.6481  0.1889 -0.5239
  344ntf    fn4 1858   0.869   1.837   0.357  0.0409 -0.2161 -0.1602
  344ntf    fn4 1859   0.913   1.936   0.541 -0.3692  0.2088 -0.3359
  344ntf    on5 1860   1.113   2.020   0.306 -0.0014 -0.1527 -0.2343
  344ntf    on5 1861   0.907   2.109   0.213  0.5233  0.3029 -0.2576
  344ntf    on5 1862   1.226   2.188   0.527 -0.2982 -0.6200 -0.0873
  344ntf    on5 1863   1.035   2.177   0.686 -0.8512 -0.1830 -0.4360
  344ntf    fn4 1864   1.123   2.465   0.646  0.3039  0.1708 -0.4007
  344ntf    fn4 1865   1.095   2.453   0.430 -0.0739  0.5390  0.1076
  344ntf    fn4 1866   0.938   2.414   0.560 -0.0282  0.4050  0.0932
  345ntf    cn1 1867   1.197   1.620   3.487  0.2660 -0.1633  0.3768
  345ntf    sn2 1868   1.201   1.802   3.485 -0.3174 -0.1502  0.3509
  345ntf    nn3 1869   1.328   1.837   3.570 -0.1415  0.4752 -0.1656
  345ntf    sn2 1870   1.476   1.876   3.535 -0.0127  0.2427  0.1155
  345ntf    cn1 1871   1.485   2.058   3.536  0.3393  0.2305 -0.3210
  345ntf    fn4 1872   1.083   1.575   3.437  0.1908  0.4802 -0.0471
  345ntf    fn4 1873   1.296   1.560   3.423 -0.2068 -0.4657 -0.0785
  345ntf    fn4 1874   1.208   1.580   3.613 -0.1401 -0.3697  0.3468
  345ntf    on5 1875   1.212   1.854   3.352 -0.8625 -0.4709  0.1765
  345ntf    on5 1876   1.083   1.845   3.557 -0.0516  0.2866  0.5279
  345ntf    on5 1877   1.517   1.843   3.401  0.2734  0.4877  0.1417
  345ntf    on5 1878   1.563   1.838   3.644  0.3874  0.5141 -0.1075
  345ntf    fn4 1879   1.604   2.094   3.491  0.4444  0.0717 -0.1705
  345ntf    fn4 1880   1.385   2.101   3.461  0.1850  0.1936 -0.1358
  345ntf    fn4 1881   1.462   2.102   3.658 -0.0733 -0.1263 -0.2650
  346ntf    cn1 1882   1.854   1.098   6.119 -0.1309  0.0035 -0.2011
  346ntf    sn2 1883   1.734   1.014   6.011 -0.1110  0.0063 -0.2255
  346ntf    nn3 1884   1.602   1.002   6.094 -0.3454 -0.1580 -0.6200
  346ntf    sn2 1885   1.544   0.895   6.193  0.1710  0.1192 -0.0092
  346ntf    cn1 1886   1.465   0.779   6.077 -0.1095 -0.0923  0.3915
  346ntf    fn4 1887   1.869   1.029   6.231  0.1536  0.2888 -0.0626
  346ntf    fn4 1888   1.973   1.110   6.061 -0.1166 -0.1059 -0.1943
  346ntf    fn4 1889   1.820   1.220   6.155  0.3291  0.1282 -0.1769
  346ntf    on5 1890   1.714   1.099   5.896  0.4143 -0.3399 -0.5802
  346ntf    on5 1891   1.803   0.889   5.989  0.3557  0.1954  0.1550
  346ntf    on5 1892   1.428   0.935   6.268  0.0888 -0.5118  0.2096
  346ntf    on5 1893   1.637   0.817   6.270 -0.3441 -0.0924  0.4025
  346ntf    fn4 1894   1.550   0.734   5.986 -0.5191  0.4043 -0.2441
  346ntf    fn4 1895   1.425   0.667   6.135 -0.3824  0.3630  1.0955
  346ntf    fn4 1896   1.366   0.828   6.004  0.0541 -0.3887 -0.0329
  347ntf    cn1 1897   0.274   0.578   3.982 -0.1545  0.2575  0.0847
  347ntf    sn2 1898   0.350   0.546   3.820 -0.3227  0.1242  0.0317
  347ntf    nn3 1899   0.460   0.657   3.821 -0.0009 -0.1937  0.0772
  347ntf    sn2 1900   0.616   0.644   3.841  0.0221  0.0281  0.0457
  347ntf    cn1 1901   0.644   0.760   3.978  0.7094  0.1383 -0.1866
  347ntf    fn4 1902   0.243   0.706   3.993 -0.3760  0.2210 -0.0991
  347ntf    fn4 1903   0.165   0.508   4.009 -0.2777  0.3534 -0.1524
  347ntf    fn4 1904   0.363   0.545   4.073 -0.3308 -0.6889 -0.0765
  347ntf    on5 1905   0.397   0.410   3.817 -0.0454  0.2122  0.4082
  347ntf    on5 1906   0.246   0.593   3.732  0.2767  0.9890 -0.2268
  347ntf    on5 1907   0.686   0.694   3.725 -0.4464 -0.2058 -0.3432
  347ntf    on5 1908   0.653   0.517   3.898  0.9297  0.3197  0.1073
  347ntf    fn4 1909   0.722   0.709   4.072 -0.3292 -0.0391  0.5908
  347ntf    fn4 1910   0.675   0.883   3.940 -0.1675  0.2579 -0.5261
  347ntf    fn4 1911   0.536   0.769   4.054  0.5151  0.6801 -0.5203
  348ntf    cn1 1912   1.513   0.750   4.454  0.1069 -0.0848  0.1382
  348ntf    sn2 1913   1.388   0.677   4.564  0.1912 -0.0660  0.2464
  348ntf    nn3 1914   1.267   0.693   4.465 -0.0307  0.3878  0.5858
  348ntf    sn2 1915   1.113   0.694   4.492 -0.1056 -0.1364  0.1918
  348ntf    cn1 1916   1.064   0.860   4.434 -0.0352 -0.1597  0.0660
  348ntf    fn4 1917   1.523   0.672   4.348 -0.2481  0.1194 -0.0499
  348ntf    fn4 1918   1.485   0.874   4.418  0.1056 -0.0565  0.2372
  348ntf    fn4 1919   1.637   0.762   4.497  0.0536  0.2641  0.1999
  348ntf    on5 1920   1.426   0.538   4.570  0.3725 -0.0459 -0.4153
  348ntf    on5 1921   1.386   0.759   4.683 -0.7221  0.4225 -0.0970
  348ntf    on5 1922   1.077   0.697   4.632 -0.0020  0.1727  0.2135
  348ntf    on5 1923   1.041   0.607   4.402 -0.0920  0.2192 -0.1636
  348ntf    fn4 1924   1.080   0.885   4.306  0.2561 -0.1040  0.1120
  348ntf    fn4 1925   0.935   0.881   4.452 -0.0902 -0.5531  0.1551
  348ntf    fn4 1926   1.120   0.947   4.517 -0.0025 -0.2151  0.1029
  349ntf    cn1 1927   1.227   1.183   2.022 -0.3905 -0.2728  0.1111
  349ntf    sn2 1928   1.199   1.084   1.872 -0.1473  0.0872 -0.1726
  349ntf    nn3 1929   1.058   1.141   1.833 -0.2969 -0.3166 -0.2171
  349ntf    sn2 1930   1.022   1.250   1.726  0.0261 -0.2525 -0.2617
  349ntf    cn1 1931   1.022   1.146   1.577 -0.2113 -0.1664 -0.3230
  349ntf    fn4 1932   1.124   1.176   2.105  0.3740 -1.0896  1.0088
  349ntf    fn4 1933   1.338   1.154   2.087 -0.2023  0.1155 -0.0369
  349ntf    fn4 1934   1.247   1.311   1.994  0.2681 -0.4342 -0.1467
  349ntf    on5 1935   1.304   1.124   1.782  0.0477  0.2696  0.1325
  349ntf    on5 1936   1.191   0.948   1.919 -0.0936  0.1724  0.0864
  349ntf    on5 1937   1.121   1.352   1.707 -0.4680  0.3639  0.3909
  349ntf    on5 1938   0.887   1.299   1.746  0.1538 -0.1101  0.2783
  349ntf    fn4 1939   0.919   1.063   1.567 -0.5077  0.1347  0.1958
  349ntf    fn4 1940   1.022   1.215   1.464  0.0916  0.3120 -0.0330
  349ntf    fn4 1941   1.131   1.071   1.581 -0.0847  0.0360  0.0445
  350ntf    cn1 1942   0.752   2.163   4.625 -0.3419  0.0684 -0.0406
  350ntf    sn2 1943   0.631   2.288   4.574 -0.4307  0.0995  0.2413
  350ntf    nn3 1944   0.506   2.222   4.642  0.1153 -0.3467  0.8207
  350ntf    sn2 1945   0.445   2.265   4.781 -0.4344 -0.0064  0.4774
  350ntf    cn1 1946   0.352   2.113   4.818 -0.6630 -0.0056 -0.0698
  350ntf    fn4 1947   0.731   2.037   4.591  0.3068  0.0015 -0.2021
  350ntf    fn4 1948   0.870   2.191   4.573 -0.0379 -0.8032  0.1586
  350ntf    fn4 1949   0.766   2.158   4.757 -0.2156  0.6647 -0.0265
  350ntf    on5 1950   0.682   2.407   4.636 -0.2665  0.1330  0.0420
  350ntf    on5 1951   0.635   2.282   4.430 -0.5336  0.9857  0.1977
  350ntf    on5 1952   0.341   2.365   4.769  0.2000  0.5569 -0.4497
  350ntf    on5 1953   0.542   2.276   4.887  0.0388 -0.7047  0.1250
  350ntf    fn4 1954   0.267   2.083   4.722 -0.4520 -0.1907 -0.1994
  350ntf    fn4 1955   0.427   2.005   4.832 -0.8944 -0.1149  0.3323
  350ntf    fn4 1956   0.281   2.116   4.930  0.4702 -0.5423  0.6892
  351ntf    cn1 1957   1.913   1.812   2.579  0.3272  0.3387  0.1417
  351ntf    sn2 1958   2.000   1.713   2.453 -0.0324 -0.0504  0.1981
  351ntf    nn3 1959   2.117   1.815   2.430  0.0911 -0.0352  0.8626
  351ntf    sn2 1960   2.264   1.788   2.382 -0.1982 -0.0258 -0.0516
  351ntf    cn1 1961   2.276   1.893   2.234 -0.1664  0.3996  0.2520
  351ntf    fn4 1962   1.784   1.789   2.593  0.3023  0.5979  0.3328
  351ntf    fn4 1963   1.960   1.787   2.700  0.4199  0.1152  0.0598
  351ntf    fn4 1964   1.927   1.939   2.545  0.5066  0.1615 -0.4723
  351ntf    on5 1965   2.041   1.595   2.525 -0.3343 -0.2244  0.0839
  351ntf    on5 1966   1.918   1.696   2.336  0.3584 -0.2625 -0.0437
  351ntf    on5 1967   2.293   1.652   2.342  0.3450 -0.1103  0.6045
  351ntf    on5 1968   2.363   1.851   2.465 -0.4855 -0.3490  0.5516
  351ntf    fn4 1969   2.374   1.858   2.152 -0.1313  0.2779  0.3451
  351ntf    fn4 1970   2.169   1.897   2.158 -0.0628 -0.2777  0.0628
  351ntf    fn4 1971   2.289   2.021   2.265  0.5690  0.3766  0.0523
  352ntf    cn1 1972   0.612   0.144   5.941 -0.5188 -0.1067  0.0124
  352ntf    sn2 1973   0.635   0.312   5.877  0.4748 -0.1761  0.1724
  352ntf    nn3 1974   0.490   0.322   5.816  0.2300 -0.3586  0.7149
  352ntf    sn2 1975   0.365   0.376   5.894 -0.1879 -0.3072  0.0230
  352ntf    cn1 1976   0.393   0.551   5.856 -0.1811 -0.3418 -0.1326
  352ntf    fn4 1977   0.581   0.057   5.846  0.3773 -0.2303 -0.1725
  352ntf    fn4 1978   0.724   0.106   5.999 -0.3806  0.0168 -0.1737
  352ntf    fn4 1979   0.507   0.142   6.022 -0.7129 -0.3713 -0.2444
  352ntf    on5 1980   0.660   0.394   5.993  0.8372 -0.4106  0.2604
  352ntf    on5 1981   0.741   0.296   5.781 -0.1536 -0.2141 -0.5287
  352ntf    on5 1982   0.378   0.373   6.038 -0.2727 -0.2689  0.0312
  352ntf    on5 1983   0.233   0.353   5.843 -0.1608 -0.4225  0.0039
  352ntf    fn4 1984   0.422   0.570   5.729 -0.1290 -0.5381 -0.1499
  352ntf    fn4 1985   0.290   0.631   5.881 -0.2870 -0.4557 -0.2042
  352ntf    fn4 1986   0.505   0.595   5.910  0.1206 -0.6507 -0.5067
  353ntf    cn1 1987   1.977   1.330   3.066 -0.0977 -0.0070 -0.2894
  353ntf    sn2 1988   2.039   1.491   3.125  0.4324 -0.3631  0.1421
  353ntf    nn3 1989   2.193   1.467   3.112  0.5378  0.3899 -0.0652
  353ntf    sn2 1990   2.284   1.374   3.201 -0.0141 -0.3037 -0.2151
  353ntf    cn1 1991   2.349   1.499   3.316 -0.3560 -0.2408 -0.0890
  353ntf    fn4 1992   1.846   1.338   3.053 -0.1307  0.4683  0.2965
  353ntf    fn4 1993   2.035   1.306   2.949  0.0496 -0.2191 -0.1742
  353ntf    fn4 1994   2.011   1.228   3.143  0.6587  0.4949  0.0623
  353ntf    on5 1995   1.988   1.584   3.027 -0.3340 -0.4595  0.4424
  353ntf    on5 1996   1.985   1.499   3.259 -0.0736  0.0617 -0.0834
  353ntf    on5 1997   2.403   1.333   3.130  0.2185  0.0078 -0.0079
  353ntf    on5 1998   2.217   1.286   3.293  0.2432 -0.5822 -0.2930
  353ntf    fn4 1999   2.476   1.477   3.345 -0.3110  0.6145  0.3834
  353ntf    fn4 2000   2.359   1.618   3.258 -0.2737 -0.0369  0.3407
  353ntf    fn4 2001   2.288   1.516   3.432 -0.1176  0.0515 -0.0057
  354ntf    cn1 2002   2.118   1.110   4.168  0.0852 -0.2750 -0.5650
  354ntf    sn2 2003   2.039   1.004   4.042 -0.1684 -0.1332 -0.5266
  354ntf    nn3 2004   2.089   0.860   4.082 -0.2544  0.0438  0.2445
  354ntf    sn2 2005   2.160   0.756   3.988 -0.2756  0.3226 -0.0836
  354ntf    cn1 2006   2.333   0.811   4.005 -0.1427 -0.0107 -0.3533
  354ntf    fn4 2007   2.118   1.240   4.146 -0.1803 -0.2458 -0.3994
  354ntf    fn4 2008   2.063   1.096   4.288  0.3410 -0.0043 -0.4175
  354ntf    fn4 2009   2.243   1.078   4.194 -0.1569 -0.4186  0.4879
  354ntf    on5 2010   1.897   1.023   4.060 -0.0031  0.7361 -0.0632
  354ntf    on5 2011   2.098   1.054   3.921  1.0020 -0.0322  0.0708
  354ntf    on5 2012   2.139   0.769   3.846 -0.1981  0.2754 -0.0993
  354ntf    on5 2013   2.165   0.623   4.044 -0.6487  0.3129 -0.0735
  354ntf    fn4 2014   2.361   0.835   4.132 -0.2679  0.4400 -0.4078
  354ntf    fn4 2015   2.427   0.738   3.947 -0.0463  0.1638 -0.4193
  354ntf    fn4 2016   2.355   0.929   3.949 -0.5743  0.1241 -0.2442
  355ntf    cn1 2017   0.975   1.164   5.487  0.4036 -0.1819  0.3761
  355ntf    sn2 2018   0.811   1.173   5.564  0.1170  0.0784 -0.2544
  355ntf    nn3 2019   0.712   1.186   5.443 -0.1054 -0.1933 -0.1031
  355ntf    sn2 2020   0.635   1.085   5.352 -0.1436  0.2454 -0.5617
  355ntf    cn1 2021   0.684   1.162   5.195 -0.2784  0.3958 -0.5299
  355ntf    fn4 2022   1.072   1.139   5.574  0.0732 -0.0778  0.7759
  355ntf    fn4 2023   0.982   1.077   5.388  0.5687  0.3734 -0.1088
  355ntf    fn4 2024   1.022   1.278   5.437  0.4737 -0.4766 -0.2426
  355ntf    on5 2025   0.803   1.052   5.642  0.3354  0.0634 -0.2542
  355ntf    on5 2026   0.811   1.292   5.646 -0.2980 -0.0547 -0.0615
  355ntf    on5 2027   0.492   1.106   5.359 -0.1545 -0.1600  0.6785
  355ntf    on5 2028   0.678   0.947   5.353 -0.5781  0.1125 -0.0930
  355ntf    fn4 2029   0.779   1.101   5.127 -0.3576 -0.2209 -0.0911
  355ntf    fn4 2030   0.582   1.182   5.113 -0.4531  0.8667 -0.2028
  355ntf    fn4 2031   0.735   1.282   5.216 -0.3954  0.3858 -0.1788
  356ntf    cn1 2032   0.151   0.298   3.458 -0.1056  0.0442  0.5465
  356ntf    sn2 2033   0.232   0.139   3.491 -0.0875  0.0788  0.6694
  356ntf    nn3 2034   0.343   0.137   3.380 -0.3938  0.5611  0.3530
  356ntf    sn2 2035   0.498   0.122   3.402 -0.4340 -0.5598 -0.0610
  356ntf    cn1 2036   0.528   0.301   3.387 -0.1294 -0.6001  0.0719
  356ntf    fn4 2037   0.022   0.298   3.490 -0.0870 -0.1245  0.6228
  356ntf    fn4 2038   0.203   0.397   3.529  0.8523 -0.0029 -0.0790
  356ntf    fn4 2039   0.166   0.330   3.331  0.1884 -0.6724  0.3954
  356ntf    on5 2040   0.275   0.143   3.629  0.8676  0.7999  0.3610
  356ntf    on5 2041   0.128   0.043   3.466  0.3050 -0.2475  0.2745
  356ntf    on5 2042   0.573   0.063   3.294  0.1619  0.8671 -0.4620
  356ntf    on5 2043   0.541   0.095   3.536 -0.1108  0.3378  0.0244
  356ntf    fn4 2044   0.452   0.376   3.466 -0.2442 -0.6886  0.0452
  356ntf    fn4 2045   0.654   0.331   3.415 -0.3991  0.5495  0.0890
  356ntf    fn4 2046   0.502   0.349   3.267 -0.1766 -0.7939  0.0050
  357ntf    cn1 2047   1.909   0.243   3.051 -0.0255 -0.1166  0.3167
  357ntf    sn2 2048   2.080   0.283   3.098 -0.0606  0.2016  0.1772
  357ntf    nn3 2049   2.126   0.373   2.979 -0.3754 -0.0828 -0.1620
  357ntf    sn2 2050   2.188   0.517   2.973 -0.0273 -0.2297 -0.1101
  357ntf    cn1 2051   2.073   0.572   2.844 -0.4563 -0.4704  0.1700
  357ntf    fn4 2052   1.837   0.353   3.039  0.1304 -0.0693 -0.1956
  357ntf    fn4 2053   1.904   0.174   2.938 -0.5281  0.0794  0.2166
  357ntf    fn4 2054   1.848   0.162   3.137 -0.4870  0.0190  0.1175
  357ntf    on5 2055   2.069   0.342   3.230 -0.7221 -0.5039  0.4469
  357ntf    on5 2056   2.139   0.151   3.100  0.2212  0.3205 -0.3886
  357ntf    on5 2057   2.317   0.519   2.908 -0.0056  0.2095 -0.0595
  357ntf    on5 2058   2.164   0.601   3.087 -0.0927 -0.4523  0.0395
  357ntf    fn4 2059   2.048   0.465   2.770  0.0863 -0.2521 -0.3355
  357ntf    fn4 2060   1.960   0.619   2.894 -0.0038  0.1871  0.5827
  357ntf    fn4 2061   2.119   0.659   2.756 -0.4492 -0.4563  0.1878
  358ntf    cn1 2062   1.906   1.013   1.480 -0.1627 -0.0938  0.1219
  358ntf    sn2 2063   1.778   0.885   1.458  0.1573 -0.3735 -0.1241
  358ntf    nn3 2064   1.802   0.823   1.316 -0.4249 -0.3032 -0.2548
  358ntf    sn2 2065   1.876   0.688   1.285 -0.1738 -0.1265 -0.4258
  358ntf    cn1 2066   1.750   0.613   1.176 -0.4201 -0.2128 -0.0817
  358ntf    fn4 2067   1.891   1.069   1.599 -0.5630  0.2116 -0.0684
  358ntf    fn4 2068   2.031   0.976   1.460 -0.0339  0.4635 -0.1299
  358ntf    fn4 2069   1.880   1.120   1.406  0.1820  0.0058  0.1420
  358ntf    on5 2070   1.802   0.799   1.571 -0.0112 -0.1693  0.0691
  358ntf    on5 2071   1.656   0.961   1.470 -0.2072 -0.9846  0.0998
  358ntf    on5 2072   1.889   0.590   1.390 -0.5829  0.3355  0.0617
  358ntf    on5 2073   1.989   0.706   1.197  0.2695  0.8033  0.3126
  358ntf    fn4 2074   1.764   0.664   1.055  0.3967 -0.1768  0.0182
  358ntf    fn4 2075   1.753   0.483   1.155 -0.0476 -0.3042  0.4920
  358ntf    fn4 2076   1.626   0.643   1.211 -0.3414  0.6014 -0.4731
  359ntf    cn1 2077   0.760   1.544   0.950 -0.2167 -0.1474  0.1919
  359ntf    sn2 2078   0.823   1.397   1.037  0.0174 -0.0096  0.2582
  359ntf    nn3 2079   0.762   1.418   1.180  0.1203 -0.3880  0.3580
  359ntf    sn2 2080   0.623   1.367   1.233 -0.1279 -0.3277 -0.2316
  359ntf    cn1 2081   0.624   1.433   1.402 -0.1534  0.0180 -0.3654
  359ntf    fn4 2082   0.775   1.660   1.013  0.3967 -0.1547  0.0656
  359ntf    fn4 2083   0.832   1.563   0.841 -0.7990 -0.0174 -0.1712
  359ntf    fn4 2084   0.630   1.535   0.929 -0.1299 -0.2799 -0.2858
  359ntf    on5 2085   0.770   1.285   0.962 -0.5576 -0.0119  0.6584
  359ntf    on5 2086   0.965   1.420   1.034  0.0217 -0.0648 -0.0097
  359ntf    on5 2087   0.618   1.225   1.258 -0.1530 -0.2410  0.2461
  359ntf    on5 2088   0.509   1.430   1.172 -0.3098 -0.4004  0.0328
  359ntf    fn4 2089   0.522   1.376   1.464  0.2983 -0.2374  0.1449
  359ntf    fn4 2090   0.737   1.391   1.455 -0.1540  0.3490 -0.1004
  359ntf    fn4 2091   0.622   1.565   1.404  0.0046  0.0132  0.1508
  360ntf    cn1 2092   1.802   0.129   6.060  0.1115 -0.0127  0.1333
  360ntf    sn2 2093   1.959   0.107   5.971 -0.0407  0.1617 -0.1822
  360ntf    nn3 2094   2.037   0.242   5.991  0.3708 -0.2059  0.7712
  360ntf    sn2 2095   2.091   0.335   5.877 -0.0260 -0.0600  0.6994
  360ntf    cn1 2096   2.233   0.240   5.813 -0.1283  0.2134  0.0565
  360ntf    fn4 2097   1.710   0.035   6.040  0.0883  0.0379  0.0008
  360ntf    fn4 2098   1.821   0.143   6.190  0.0144  0.2995  0.1142
  360ntf    fn4 2099   1.740   0.242   6.030  0.3000  0.1144  0.2234
  360ntf    on5 2100   2.020  -0.005   6.039 -0.1290  0.1726 -0.0851
  360ntf    on5 2101   1.917   0.071   5.838  0.8175 -0.3232 -0.3268
  360ntf    on5 2102   2.147   0.454   5.936  0.4660  0.3201 -0.4978
  360ntf    on5 2103   2.006   0.359   5.763  0.3592 -0.1147  0.3989
  360ntf    fn4 2104   2.320   0.213   5.909 -0.3672  0.2304  0.2803
  360ntf    fn4 2105   2.195   0.125   5.760  0.1526  0.4041 -0.5652
  360ntf    fn4 2106   2.301   0.300   5.717  0.0774 -0.4165 -0.1944
  361ntf    cn1 2107   1.639   1.222   6.543 -0.2481 -0.0040 -0.1090
  361ntf    sn2 2108   1.490   1.190   6.642 -0.3390 -0.0889 -0.2733
  361ntf    nn3 2109   1.547   1.165   6.787 -0.1105  0.4160 -0.2725
  361ntf    sn2 2110   1.570   1.256   6.912  0.0932 -0.0359  0.0203
  361ntf    cn1 2111   1.456   1.185   7.035  0.1427  0.1372  0.1661
  361ntf    fn4 2112   1.609   1.262   6.421 -0.1034  0.1372 -0.0983
  361ntf    fn4 2113   1.716   1.319   6.593 -0.2999 -0.2870  0.5350
  361ntf    fn4 2114   1.722   1.121   6.526  0.1106  0.2403  0.1442
  361ntf    on5 2115   1.407   1.307   6.626  0.6096  0.6655  0.1531
  361ntf    on5 2116   1.443   1.067   6.583 -0.0624 -0.2389 -0.1815
  361ntf    on5 2117   1.525   1.392   6.893 -0.7418 -0.3496 -0.3100
  361ntf    on5 2118   1.700   1.239   6.972  0.5089  0.7803 -0.6356
  361ntf    fn4 2119   1.457   1.258   7.146 -0.2756  0.4400 -0.0264
  361ntf    fn4 2120   1.328   1.178   7.002  0.0714 -0.3927  0.5394
  361ntf    fn4 2121   1.479   1.060   7.070  0.1289 -0.0102 -0.3456
  362ntf    cn1 2122   0.385   1.712   3.617 -0.0509  0.1766 -0.0010
  362ntf    sn2 2123   0.448   1.795   3.467 -0.2278  0.2212 -0.0509
  362ntf    nn3 2124   0.405   1.694   3.355  0.2534  0.1134 -0.1425
  362ntf    sn2 2125   0.478   1.675   3.217  0.1655 -0.2068 -0.1458
  362ntf    cn1 2126   0.537   1.504   3.232  0.4098 -0.1185 -0.0991
  362ntf    fn4 2127   0.390   1.806   3.709 -0.2090  0.0585  0.1276
  362ntf    fn4 2128   0.258   1.684   3.595 -0.0056 -0.1698  0.1726
  362ntf    fn4 2129   0.438   1.602   3.666  0.1615 -0.0053 -0.6267
  362ntf    on5 2130   0.379   1.922   3.469 -0.2724  0.1934  0.7098
  362ntf    on5 2131   0.590   1.794   3.493 -0.2801 -1.0177  0.2369
  362ntf    on5 2132   0.595   1.755   3.192 -0.4165  0.8977  0.5603
  362ntf    on5 2133   0.378   1.671   3.113 -0.0988 -0.1316  0.1032
  362ntf    fn4 2134   0.440   1.417   3.211  0.2096 -0.0887  0.6700
  362ntf    fn4 2135   0.623   1.468   3.139  0.3161 -0.8380  0.0832
  362ntf    fn4 2136   0.574   1.479   3.357 -0.5505  0.9565  0.4299
  363ntf    cn1 2137   1.403  -0.000   3.938  0.1124 -0.3022  0.3146
  363ntf    sn2 2138   1.353   0.095   4.084  0.0814  0.1219  0.0283
  363ntf    nn3 2139   1.492   0.128   4.149  0.2132 -0.1940 -0.0935
  363ntf    sn2 2140   1.581   0.051   4.253  0.1541  0.1240  0.1920
  363ntf    cn1 2141   1.739   0.098   4.176  0.0780 -0.5547 -0.3861
  363ntf    fn4 2142   1.494   0.064   3.866 -0.4847  0.2814  0.0780
  363ntf    fn4 2143   1.442  -0.125   3.955  0.2391 -0.2501  0.4044
  363ntf    fn4 2144   1.303  -0.005   3.852  0.2098 -0.0527  0.1853
  363ntf    on5 2145   1.296   0.216   4.029  0.3130  0.0493 -0.3780
  363ntf    on5 2146   1.278   0.001   4.163  0.6065 -0.3070  0.0235
  363ntf    on5 2147   1.572  -0.090   4.228  0.5790  0.1818 -0.2993
  363ntf    on5 2148   1.570   0.103   4.387 -0.4019  0.6282 -0.0434
  363ntf    fn4 2149   1.842   0.022   4.208  0.1764 -0.3809 -0.2846
  363ntf    fn4 2150   1.732   0.109   4.044  0.2013  0.4068 -0.3249
  363ntf    fn4 2151   1.766   0.224   4.209  0.3518 -0.6051 -0.4172
  364ntf    cn1 2152   0.994   2.061   5.706 -0.1722 -0.3645 -0.1172
  364ntf    sn2 2153   0.814   2.080   5.687 -0.1420  0.1505  0.0836
  364ntf    nn3 2154   0.770   1.987   5.806 -0.2029 -0.6053 -0.5216
  364ntf    sn2 2155   0.636   1.975   5.886  0.0718 -0.2189 -0.0014
  364ntf    cn1 2156   0.676   2.093   6.018  0.0366  0.1522 -0.3230
  364ntf    fn4 2157   1.057   2.154   5.637 -0.1692 -0.1154  0.2174
  364ntf    fn4 2158   1.024   2.078   5.834 -0.1427  0.0150 -0.1740
  364ntf    fn4 2159   1.040   1.942   5.671  0.3254 -0.3876  0.5795
  364ntf    on5 2160   0.785   2.220   5.700  0.1702  0.2212  0.0292
  364ntf    on5 2161   0.783   2.024   5.558 -0.1016 -0.2514  0.2456
  364ntf    on5 2162   0.616   1.845   5.946  0.0092 -0.3418 -0.2888
  364ntf    on5 2163   0.514   2.033   5.835 -0.0558 -0.6977 -0.2514
  364ntf    fn4 2164   0.799   2.080   6.065  0.0217  0.3548 -0.2244
  364ntf    fn4 2165   0.664   2.215   5.967  0.2705  0.2231 -0.2157
  364ntf    fn4 2166   0.585   2.076   6.112  0.0277 -0.4847 -0.4435
  365ntf    cn1 2167   1.690   0.191   4.878  0.4323 -0.0239 -0.0927
  365ntf    sn2 2168   1.683   0.320   5.006 -0.2062 -0.2113  0.0660
  365ntf    nn3 2169   1.534   0.304   5.052 -0.4180  1.1855 -0.0909
  365ntf    sn2 2170   1.466   0.284   5.192  0.2301 -0.1541  0.0480
  365ntf    cn1 2171   1.432   0.106   5.181 -0.4292 -0.0168 -0.2085
  365ntf    fn4 2172   1.631   0.220   4.764  0.3202 -0.2335 -0.0880
  365ntf    fn4 2173   1.810   0.138   4.862  0.4858  0.1175 -0.1543
  365ntf    fn4 2174   1.631   0.084   4.930 -0.4672  0.0182 -1.0063
  365ntf    on5 2175   1.792   0.294   5.097  0.1416  0.2517 -0.2119
  365ntf    on5 2176   1.691   0.442   4.929 -0.4327 -0.2584 -0.0328
  365ntf    on5 2177   1.334   0.342   5.202  0.2779  0.0500 -0.4762
  365ntf    on5 2178   1.549   0.288   5.310  0.6499 -0.0219 -0.2478
  365ntf    fn4 2179   1.535   0.027   5.210 -0.0743  0.3527 -0.4440
  365ntf    fn4 2180   1.335   0.057   5.256 -0.3917  0.2404  0.0071
  365ntf    fn4 2181   1.394   0.073   5.059 -0.5468  0.3366 -0.2688
  366ntf    cn1 2182   0.034   0.662   0.504 -0.3916  0.3529 -0.6310
  366ntf    sn2 2183  -0.104   0.561   0.442  0.0650 -0.5025 -0.2714
  366ntf    nn3 2184  -0.039   0.520   0.305  0.1661  0.4466 -0.5199
  366ntf    sn2 2185  -0.040   0.371   0.255  0.0782  0.1811  0.2605
  366ntf    cn1 2186   0.046   0.273   0.382 -0.2195 -0.1585  0.2037
  366ntf    fn4 2187   0.090   0.731   0.406  0.2406  0.5425 -0.1459
  366ntf    fn4 2188  -0.001   0.740   0.606  0.1477 -0.2788  0.0446
  366ntf    fn4 2189   0.128   0.583   0.552 -0.2899  0.6386 -0.3551
  366ntf    on5 2190  -0.126   0.464   0.546  0.2591 -0.3596 -0.0944
  366ntf    on5 2191  -0.211   0.654   0.413  0.1979 -0.3927 -0.4106
  366ntf    on5 2192   0.048   0.346   0.143  0.3559 -0.1187  0.5421
  366ntf    on5 2193  -0.168   0.306   0.243  0.2498 -0.0961 -0.0910
  366ntf    fn4 2194  -0.035   0.225   0.475 -0.1276 -0.5075  0.1013
  366ntf    fn4 2195   0.104   0.167   0.330 -0.0293 -0.0216  0.1322
  366ntf    fn4 2196   0.150   0.333   0.438 -0.0693  0.2458 -0.4969
  367ntf    cn1 2197   0.941   1.695   1.965 -0.3948 -0.1355 -0.0835
  367ntf    sn2 2198   0.907   1.611   2.123  0.1874 -0.1686  0.0253
  367ntf    nn3 2199   0.997   1.701   2.215 -0.4028  0.2656  0.1853
  367ntf    sn2 2200   1.095   1.662   2.332 -0.4232  0.0060  0.1171
  367ntf    cn1 2201   1.251   1.653   2.239 -0.2110  0.0306  0.4716
  367ntf    fn4 2202   0.881   1.648   1.857 -0.2152 -0.1054 -0.1957
  367ntf    fn4 2203   0.912   1.824   1.975 -0.6014 -0.1833 -0.0547
  367ntf    fn4 2204   1.066   1.689   1.923 -0.3578  0.4696 -0.0704
  367ntf    on5 2205   0.767   1.637   2.145  0.1766  0.1529 -0.4062
  367ntf    on5 2206   0.946   1.472   2.113  0.3445 -0.1621  0.5366
  367ntf    on5 2207   1.068   1.531   2.386 -0.4768  0.1205  0.3702
  367ntf    on5 2208   1.118   1.757   2.437 -0.2715  0.3008 -0.1806
  367ntf    fn4 2209   1.274   1.768   2.179  0.5334 -0.2557  0.2046
  367ntf    fn4 2210   1.356   1.630   2.317  0.2699  0.0055 -0.1791
  367ntf    fn4 2211   1.245   1.560   2.145  0.5173  0.2573  0.1963
  368ntf    cn1 2212   0.158   0.116   0.722  0.5494 -0.1042  0.1302
  368ntf    sn2 2213   0.131   0.115   0.902 -0.0861  0.0430  0.0373
  368ntf    nn3 2214   0.069  -0.028   0.928  0.2582 -0.1888 -0.4116
  368ntf    sn2 2215   0.037  -0.098   1.064 -0.1028  0.1938 -0.2985
  368ntf    cn1 2216  -0.145  -0.099   1.060 -0.1145 -0.2386  0.2383
  368ntf    fn4 2217   0.248   0.027   0.683 -0.0881 -0.8489  0.3273
  368ntf    fn4 2218   0.051   0.076   0.656  0.4721 -0.2882  0.3650
  368ntf    fn4 2219   0.187   0.237   0.679  0.0706  0.0374  0.1939
  368ntf    on5 2220   0.262   0.141   0.956 -0.0389 -0.7489  0.3163
  368ntf    on5 2221   0.039   0.225   0.918  0.0591  0.1200  0.3472
  368ntf    on5 2222   0.070  -0.029   1.186 -0.3764  0.4018 -0.3406
  368ntf    on5 2223   0.065  -0.240   1.064  0.1460  0.2424 -0.0769
  368ntf    fn4 2224  -0.195  -0.145   0.947  0.2873 -0.0287 -0.0261
  368ntf    fn4 2225  -0.196  -0.162   1.165 -0.3166 -0.0090  0.2779
  368ntf    fn4 2226  -0.193   0.024   1.061 -0.7087 -0.4657 -0.2246
  369ntf    cn1 2227   1.861   1.613   5.584  0.1012 -0.2581  0.4095
  369ntf    sn2 2228   1.991   1.672   5.697  0.5423 -0.2547 -0.0994
  369ntf    nn3 2229   1.955   1.587   5.824 -0.2075 -0.1790 -0.2577
  369ntf    sn2 2230   2.065   1.547   5.929 -0.3443 -0.2104 -0.1259
  369ntf    cn1 2231   2.039   1.688   6.040 -0.0766  0.1061 -0.4628
  369ntf    fn4 2232   1.872   1.675   5.468 -0.0745 -0.5283  0.2474
  369ntf    fn4 2233   1.866   1.482   5.575 -0.0510 -0.2376  0.0046
  369ntf    fn4 2234   1.739   1.645   5.624  0.0391  0.2489 -0.1689
  369ntf    on5 2235   2.113   1.631   5.631  0.5164 -0.1842 -0.1925
  369ntf    on5 2236   1.964   1.813   5.709 -0.3641 -0.4718  0.5649
  369ntf    on5 2237   2.202   1.577   5.897 -0.1893 -0.5540  0.2101
  369ntf    on5 2238   2.034   1.438   6.018 -0.2429 -0.1790 -0.0536
  369ntf    fn4 2239   2.130   1.675   6.136 -0.2300 -0.4746 -0.3947
  369ntf    fn4 2240   2.067   1.803   5.980 -0.0078  0.1790 -0.2921
  369ntf    fn4 2241   1.920   1.689   6.099  0.3466  0.0967  0.4214
  370ntf    cn1 2242   1.282   0.167   6.200  0.3295 -0.2847  0.4643
  370ntf    sn2 2243   1.184   0.320   6.209  0.3242 -0.2778  0.2990
  370ntf    nn3 2244   1.241   0.389   6.339  0.3841 -0.4213  0.3488
  370ntf    sn2 2245   1.175   0.430   6.475 -0.2385  0.3469 -0.1743
  370ntf    cn1 2246   1.211   0.274   6.562 -0.4056  0.1968 -0.3707
  370ntf    fn4 2247   1.239   0.079   6.112  0.2111  0.2998 -0.0718
  370ntf    fn4 2248   1.404   0.200   6.159  0.2048  0.0470  0.3542
  370ntf    fn4 2249   1.298   0.107   6.316 -0.3338 -0.4005  0.4973
  370ntf    on5 2250   1.224   0.383   6.086  0.0589 -0.2341  0.2352
  370ntf    on5 2251   1.048   0.275   6.208  0.2963 -0.1788 -0.3121
  370ntf    on5 2252   1.032   0.445   6.477 -0.3194 -0.3755 -0.3017
  370ntf    on5 2253   1.262   0.532   6.527 -0.1297  0.0852  0.1634
  370ntf    fn4 2254   1.120   0.237   6.650 -0.2618 -0.3230 -0.4418
  370ntf    fn4 2255   1.214   0.176   6.474  0.0431  0.5340 -0.7405
  370ntf    fn4 2256   1.327   0.265   6.627 -0.2067  0.6388 -0.6583
  371ntf    cn1 2257   1.300   2.057   1.882 -0.0034 -0.0959 -0.1175
  371ntf    sn2 2258   1.409   2.167   1.977  0.1575 -0.0019 -0.4086
  371ntf    nn3 2259   1.441   2.071   2.097 -0.2213  0.0994 -0.2278
  371ntf    sn2 2260   1.578   2.004   2.132 -0.4604 -0.1360  0.2792
  371ntf    cn1 2261   1.578   2.027   2.312 -0.0709  0.1121  0.2497
  371ntf    fn4 2262   1.373   1.963   1.824 -0.0273  0.1194 -0.5027
  371ntf    fn4 2263   1.211   1.996   1.958  0.2893 -0.2204  0.1245
  371ntf    fn4 2264   1.238   2.128   1.788  0.0566 -0.1166 -0.1731
  371ntf    on5 2265   1.510   2.183   1.875  0.5047 -0.1005 -0.0822
  371ntf    on5 2266   1.317   2.271   2.015  0.0960 -0.4822  0.7921
  371ntf    on5 2267   1.698   2.078   2.097 -0.5970 -0.1886 -0.3178
  371ntf    on5 2268   1.603   1.862   2.126  0.4701  0.0415 -0.2075
  371ntf    fn4 2269   1.475   1.969   2.372 -0.1194  0.0398  0.0967
  371ntf    fn4 2270   1.693   1.997   2.371  0.0243  0.1296  0.0735
  371ntf    fn4 2271   1.557   2.155   2.337 -0.2541  0.1872 -0.2789
  372ntf    cn1 2272   0.332   1.421   5.120 -0.0525 -0.5431 -0.0090
  372ntf    sn2 2273   0.220   1.438   5.262 -0.1319 -0.1702 -0.1159
  372ntf    nn3 2274   0.249   1.583   5.316  0.4498  0.1533 -1.2545
  372ntf    sn2 2275   0.158   1.710   5.324  0.0201 -0.2306  0.2036
  372ntf    cn1 2276   0.228   1.799   5.182 -0.2335 -0.0724  0.1778
  372ntf    fn4 2277   0.455   1.446   5.164 -0.0813 -0.7351  0.1827
  372ntf    fn4 2278   0.336   1.298   5.070  0.7605 -0.6359  0.2659
  372ntf    fn4 2279   0.295   1.504   5.024  0.2141 -0.1704  0.2101
  372ntf    on5 2280   0.091   1.413   5.203 -0.5361  0.3159  0.5531
  372ntf    on5 2281   0.260   1.334   5.353  0.0815  0.3862  0.4330
  372ntf    on5 2282   0.195   1.798   5.432 -0.3010 -0.3475  0.4097
  372ntf    on5 2283   0.017   1.690   5.301  0.0827 -0.1977 -0.2058
  372ntf    fn4 2284   0.354   1.825   5.212 -0.1395 -0.9017  0.5284
  372ntf    fn4 2285   0.227   1.730   5.070  0.2984  0.5056 -0.1925
  372ntf    fn4 2286   0.162   1.910   5.151 -0.2376 -0.2283 -0.3727
  373ntf    cn1 2287   1.609   1.210   3.265 -0.3176 -0.3837 -0.4001
  373ntf    sn2 2288   1.660   1.128   3.419 -0.2489 -0.0834 -0.2626
  373ntf    nn3 2289   1.553   1.181   3.521 -0.0534  0.1938 -0.2006
  373ntf    sn2 2290   1.439   1.112   3.605 -0.0742 -0.0199 -0.4027
  373ntf    cn1 2291   1.299   1.153   3.495 -0.4496  0.1062  0.1198
  373ntf    fn4 2292   1.671   1.163   3.157 -0.4313  0.1147 -0.6829
  373ntf    fn4 2293   1.481   1.203   3.236 -0.4842  0.3965  0.1205
  373ntf    fn4 2294   1.635   1.339   3.256 -0.4118 -0.3450 -0.1067
  373ntf    on5 2295   1.658   0.986   3.394  0.1890 -0.0700 -0.3759
  373ntf    on5 2296   1.788   1.184   3.453 -0.3765 -0.2069  0.4514
  373ntf    on5 2297   1.406   1.177   3.729 -0.5178 -0.5900 -0.2203
  373ntf    on5 2298   1.448   0.969   3.600  0.0752 -0.0489  0.5544
  373ntf    fn4 2299   1.306   1.275   3.446 -0.4391  0.1771  0.2975
  373ntf    fn4 2300   1.303   1.074   3.389  0.0067 -0.2116  0.3698
  373ntf    fn4 2301   1.176   1.130   3.537 -0.5793  0.2044 -0.2074
  374ntf    cn1 2302   2.289   0.593   1.504 -0.0325  0.2114  0.0809
  374ntf    sn2 2303   2.337   0.461   1.620  0.0179 -0.0173 -0.1999
  374ntf    nn3 2304   2.436   0.544   1.709 -0.1522 -0.8966  0.8255
  374ntf    sn2 2305   2.592   0.530   1.707 -0.0903 -0.1902  0.1152
  374ntf    cn1 2306   2.639   0.663   1.823  0.1190  0.0632 -0.2559
  374ntf    fn4 2307   2.383   0.615   1.413  0.1481 -0.3089  0.1383
  374ntf    fn4 2308   2.177   0.568   1.438 -0.1469  0.2531  0.2590
  374ntf    fn4 2309   2.272   0.703   1.576  0.2992  0.2301  0.1342
  374ntf    on5 2310   2.215   0.441   1.693  0.3231  0.4037  0.4335
  374ntf    on5 2311   2.397   0.356   1.542 -0.4338 -0.2194 -0.2789
  374ntf    on5 2312   2.658   0.576   1.587  0.0887  0.0836  0.3150
  374ntf    on5 2313   2.645   0.413   1.772 -0.3994 -0.0944  0.5475
  374ntf    fn4 2314   2.753   0.647   1.887 -0.1527 -0.0674  0.2017
  374ntf    fn4 2315   2.642   0.781   1.764 -0.1886  0.3231  0.2384
  374ntf    fn4 2316   2.549   0.675   1.920 -0.2269 -0.1719 -0.5437
  375ntf    cn1 2317   0.521   1.402   0.146 -0.0873 -0.4804  0.0788
  375ntf    sn2 2318   0.616   1.407  -0.009  0.0020  0.1963  0.1535
  375ntf    nn3 2319   0.512   1.474  -0.104 -0.2244 -0.0463  0.2285
  375ntf    sn2 2320   0.486   1.465  -0.259  0.0604 -0.2054  0.1904
  375ntf    cn1 2321   0.575   1.615  -0.311  0.1541 -0.2448  0.2364
  375ntf    fn4 2322   0.477   1.518   0.191  0.0173 -0.4670  0.1491
  375ntf    fn4 2323   0.417   1.321   0.139 -0.3772 -0.0619 -0.5246
  375ntf    fn4 2324   0.603   1.357   0.241  0.3964  0.2084 -0.0064
  375ntf    on5 2325   0.734   1.486   0.016 -0.0540  0.0951  0.7761
  375ntf    on5 2326   0.638   1.268  -0.039  0.3660  0.2810  0.0179
  375ntf    on5 2327   0.349   1.497  -0.292  0.3368  0.4411 -0.3536
  375ntf    on5 2328   0.549   1.353  -0.323  0.1139  0.2931 -0.6439
  375ntf    fn4 2329   0.559   1.641  -0.439 -0.1567  0.1726  0.3573
  375ntf    fn4 2330   0.531   1.719  -0.242  0.0739 -0.1955  0.1096
  375ntf    fn4 2331   0.705   1.601  -0.292  0.2035 -0.1619 -0.0374
  376ntf    cn1 2332   1.239   0.998   2.960 -0.4482 -0.1364  0.2963
  376ntf    sn2 2333   1.077   1.031   2.886 -0.1061  0.0651 -0.3684
  376ntf    nn3 2334   0.992   1.090   3.004 -0.2616 -0.5684 -0.1600
  376ntf    sn2 2335   0.840   1.130   3.014 -0.1173  0.0045 -0.1996
  376ntf    cn1 2336   0.831   1.195   3.183  0.0253 -0.0810 -0.1586
  376ntf    fn4 2337   1.307   1.111   2.966 -0.0632 -0.3340 -0.2438
  376ntf    fn4 2338   1.225   0.954   3.084 -0.7398 -0.2540  0.2210
  376ntf    fn4 2339   1.320   0.916   2.894  0.1483  0.7340 -0.0743
  376ntf    on5 2340   1.103   1.128   2.783  0.2001  0.1772 -0.1865
  376ntf    on5 2341   1.030   0.905   2.834  0.1606 -0.2911  0.2352
  376ntf    on5 2342   0.748   1.019   3.004  0.3059 -0.3713  0.0406
  376ntf    on5 2343   0.803   1.244   2.934  0.1363  0.1713 -0.0806
  376ntf    fn4 2344   0.710   1.233   3.223 -0.3587 -0.7819 -0.6344
  376ntf    fn4 2345   0.885   1.108   3.267 -0.2019  0.2819  0.3694
  376ntf    fn4 2346   0.910   1.299   3.201 -0.1887  0.0265  0.1877
  377ntf    cn1 2347   0.918   1.215   4.846 -0.4887  0.0534  0.0384
  377ntf    sn2 2348   0.827   1.239   4.690 -0.0794  0.2245 -0.1768
  377ntf    nn3 2349   0.697   1.311   4.740 -0.4326 -0.7340  0.3152
  377ntf    sn2 2350   0.646   1.458   4.718  0.3558 -0.4823  0.1417
  377ntf    cn1 2351   0.608   1.499   4.891  0.8727  0.6648 -0.0096
  377ntf    fn4 2352   1.046   1.190   4.822 -0.4742 -0.1108  0.2891
  377ntf    fn4 2353   0.920   1.326   4.919  0.1293  0.1172 -0.0666
  377ntf    fn4 2354   0.877   1.110   4.914 -0.2799 -0.1169 -0.0988
  377ntf    on5 2355   0.925   1.302   4.605 -0.1604 -0.0035 -0.4392
  377ntf    on5 2356   0.789   1.107   4.645 -0.1972  0.4465 -0.7252
  377ntf    on5 2357   0.514   1.450   4.659 -0.0162  0.2606  0.8515
  377ntf    on5 2358   0.729   1.565   4.669 -0.3020  0.3625  0.8470
  377ntf    fn4 2359   0.715   1.507   4.968  0.5527 -0.4124  0.5687
  377ntf    fn4 2360   0.543   1.611   4.921 -0.0613  0.2350 -0.4000
  377ntf    fn4 2361   0.539   1.399   4.943  0.1890  0.8930 -0.4632
  378ntf    cn1 2362   1.742   1.440   0.805 -0.0753  0.2124 -0.1493
  378ntf    sn2 2363   1.848   1.513   0.933 -0.1381  0.0243  0.0101
  378ntf    nn3 2364   1.738   1.591   1.013 -0.1703 -0.0863  0.0732
  378ntf    sn2 2365   1.763   1.717   1.104 -0.1965  0.0422 -0.0972
  378ntf    cn1 2366   1.706   1.853   0.997  0.2796  0.0696 -0.3195
  378ntf    fn4 2367   1.697   1.534   0.723 -0.1693 -0.0855 -0.4401
  378ntf    fn4 2368   1.815   1.359   0.730  0.0605  0.0349  0.1732
  378ntf    fn4 2369   1.643   1.367   0.852  0.5523 -0.6327 -0.1088
  378ntf    on5 2370   1.896   1.400   1.008 -0.2592  0.2156  0.3812
  378ntf    on5 2371   1.938   1.592   0.852  0.0543 -0.2572 -0.0497
  378ntf    on5 2372   1.898   1.745   1.146 -0.2265  0.3599 -0.2097
  378ntf    on5 2373   1.661   1.720   1.206 -0.1750 -0.1493 -0.0692
  378ntf    fn4 2374   1.723   1.971   1.053  0.7040 -0.1416  0.0042
  378ntf    fn4 2375   1.787   1.861   0.894  0.8543 -0.5697  0.0749
  378ntf    fn4 2376   1.580   1.840   0.959  0.4525 -1.2679 -0.5015
   2.37244   2.37244   6.62710
