Converted from moscito
 3240
    1SOL     ow    1   0.182   1.736   2.152  0.2354 -0.0611 -0.4188
    1SOL     hw    2   0.087   1.746   2.160  0.1415  1.6189 -2.8199
    1SOL     hw    3   0.206   1.686   2.230 -2.7517 -1.6017 -0.3089
    1SOL     vw    4   0.172   1.730   2.164 -0.0054  0.0076  0.0173
    2SOL     ow    5   0.324   0.440   6.470 -0.2631 -0.3235  0.4937
    2SOL     hw    6   0.402   0.417   6.420  0.6364 -2.2371  2.5964
    2SOL     hw    7   0.326   0.536   6.476  2.1128 -0.3377  0.7324
    2SOL     vw    8   0.334   0.450   6.464 -0.0211 -0.0411  0.0448
    3SOL     ow    9   1.508   2.405   2.622  0.0712 -0.4304 -0.3938
    3SOL     hw   10   1.491   2.314   2.647  1.0475  0.1080  2.7088
    3SOL     hw   11   1.584   2.400   2.564 -0.7026 -1.6315 -1.3627
    3SOL     vw   12   1.516   2.393   2.618 -0.0148 -0.0412 -0.0243
    4SOL     ow   13   1.066  -0.014   0.131  0.3403 -0.0048 -0.3251
    4SOL     hw   14   0.982  -0.020   0.177  0.6677 -0.7725  0.1868
    4SOL     hw   15   1.047  -0.042   0.042  0.3351 -1.6166  0.1628
    4SOL     vw   16   1.052  -0.018   0.126 -0.0183  0.0119  0.0139
    5SOL     ow   17   0.736   0.204   4.924 -1.1555  0.3229 -0.0889
    5SOL     hw   18   0.685   0.166   4.853 -1.6177  1.3675 -0.3265
    5SOL     hw   19   0.822   0.222   4.886 -1.0570 -0.1200 -0.0794
    5SOL     vw   20   0.741   0.201   4.910 -0.0176  0.0105  0.0021
    6SOL     ow   21   2.164   0.670   4.984 -0.2352  0.1820  0.0566
    6SOL     hw   22   2.208   0.589   4.957 -0.3349 -0.7334  2.3911
    6SOL     hw   23   2.208   0.739   4.936  1.6674 -1.0122 -0.0139
    6SOL     vw   24   2.175   0.668   4.974 -0.0103  0.0270  0.0253
    7SOL     ow   25   2.358   1.765   5.368 -0.0073 -0.2144  0.3298
    7SOL     hw   26   2.283   1.752   5.426  1.5690  0.3769  2.5941
    7SOL     hw   27   2.422   1.699   5.396  1.2292  0.8231  0.0243
    7SOL     vw   28   2.357   1.754   5.379  0.0075 -0.0242  0.0494
    8SOL     ow   29   2.273   1.168   6.028 -0.8887  0.1668  0.6772
    8SOL     hw   30   2.279   1.121   5.945  0.8306  0.8770  0.3451
    8SOL     hw   31   2.328   1.117   6.088  1.2163  1.7940  0.2424
    8SOL     vw   32   2.281   1.155   6.025 -0.0142  0.0547  0.0298
    9SOL     ow   33   0.541   0.500   3.910  0.4705 -0.0828  0.7286
    9SOL     hw   34   0.627   0.538   3.894  0.0668  0.1790 -0.9764
    9SOL     hw   35   0.502   0.558   3.975  1.3597  0.1064  1.1146
    9SOL     vw   36   0.547   0.513   3.917 -0.0638  0.0385 -0.0409
   10SOL     ow   37   2.217   0.529   6.950 -0.1569  0.3818 -0.1075
   10SOL     hw   38   2.247   0.582   7.025 -2.9183  2.0845 -0.0979
   10SOL     hw   39   2.140   0.574   6.918 -2.0509 -3.0461 -0.8615
   10SOL     vw   40   2.211   0.542   6.956 -0.0367 -0.0639  0.0849
   11SOL     ow   41   2.425   2.394   2.756 -0.3563  0.0924  0.1231
   11SOL     hw   42   2.432   2.364   2.847 -1.0179  1.5155  0.6823
   11SOL     hw   43   2.409   2.489   2.764 -2.1316 -0.0209 -1.4277
   11SOL     vw   44   2.424   2.403   2.769  0.0242  0.0639  0.0241
   12SOL     ow   45   0.278   1.588   6.084  0.4780 -0.2146 -0.6947
   12SOL     hw   46   0.358   1.537   6.089 -0.1905 -1.2033  0.6119
   12SOL     hw   47   0.208   1.523   6.085 -0.3688  0.6731 -0.4564
   12SOL     vw   48   0.279   1.573   6.085  0.0160  0.0616 -0.1345
   13SOL     ow   49   0.159   1.153   0.364  0.1772 -0.1540  0.8978
   13SOL     hw   50   0.136   1.229   0.312  0.9129 -0.4693  0.0823
   13SOL     hw   51   0.255   1.154   0.366  0.3075 -2.1458 -0.8404
   13SOL     vw   52   0.169   1.163   0.358  0.0437 -0.0584 -0.0412
   14SOL     ow   53   0.517   1.682   2.327  0.1220 -0.6275 -0.1830
   14SOL     hw   54   0.571   1.646   2.398  1.2640  1.1872 -0.0699
   14SOL     hw   55   0.460   1.610   2.302  1.1671 -1.9826  1.1334
   14SOL     vw   56   0.517   1.668   2.333  0.0240  0.0342 -0.0073
   15SOL     ow   57   1.586   1.282   1.991 -0.5385 -0.0189  0.4414
   15SOL     hw   58   1.665   1.334   1.981 -0.8756  0.7416  1.6279
   15SOL     hw   59   1.516   1.336   1.954 -0.7279 -0.0716  0.7183
   15SOL     vw   60   1.587   1.296   1.984 -0.0194  0.0257 -0.0047
   16SOL     ow   61   2.171   1.949   1.274  0.2403  0.0181 -0.2108
   16SOL     hw   62   2.182   1.972   1.181  1.2122 -0.6804 -0.2769
   16SOL     hw   63   2.260   1.937   1.307 -0.1353 -1.0114  0.4882
   16SOL     vw   64   2.184   1.951   1.266  0.0376  0.0583  0.0388
   17SOL     ow   65   1.765   0.275  -0.007 -0.2886 -0.9584 -0.2295
   17SOL     hw   66   1.727   0.196  -0.046 -0.0133 -1.5661  0.6985
   17SOL     hw   67   1.724   0.347  -0.054 -1.6024 -1.6241 -0.1536
   17SOL     vw   68   1.754   0.274  -0.018  0.1108  0.0296 -0.0186
   18SOL     ow   69   0.970   0.470   4.997  0.2582 -0.3953  0.8524
   18SOL     hw   70   1.004   0.557   4.976 -1.9219  0.3742  0.2257
   18SOL     hw   71   0.939   0.436   4.913 -2.2630 -0.1747  1.5931
   18SOL     vw   72   0.970   0.477   4.983 -0.0051 -0.0176  0.0734
   19SOL     ow   73   0.288   1.805   5.872  0.2387 -0.3260 -0.5043
   19SOL     hw   74   0.380   1.820   5.850  0.7680  1.1640  2.2227
   19SOL     hw   75   0.245   1.888   5.851  0.2920  0.2520  1.4366
   19SOL     vw   76   0.294   1.818   5.866 -0.0196 -0.1243  0.0396
   20SOL     ow   77   1.195   1.252   1.799  0.0925  0.6402 -0.2874
   20SOL     hw   78   1.270   1.200   1.771 -1.2190 -0.8849 -1.1450
   20SOL     hw   79   1.136   1.190   1.840 -1.5115  1.4311 -1.2868
   20SOL     vw   80   1.197   1.237   1.801 -0.0138  0.0265 -0.0046
   21SOL     ow   81   0.140   1.397   0.211 -0.9671  0.2571  1.1798
   21SOL     hw   82   0.052   1.368   0.235 -0.8546 -0.7576  0.4281
   21SOL     hw   83   0.164   1.458   0.281 -2.9221  1.9337  0.4990
   21SOL     vw   84   0.131   1.401   0.223 -0.0655  0.0216 -0.0035
   22SOL     ow   85   1.960   0.828   2.950  0.4029 -1.5076  0.2013
   22SOL     hw   86   1.920   0.759   2.897 -2.0067 -0.0270 -0.0991
   22SOL     hw   87   1.885   0.874   2.989  1.8878  0.8436  0.4587
   22SOL     vw   88   1.945   0.825   2.948  0.0362 -0.0221 -0.0803
   23SOL     ow   89   2.260   0.144   3.733  0.3384 -0.1473  0.3615
   23SOL     hw   90   2.262   0.166   3.827 -0.4463  2.1245 -0.0751
   23SOL     hw   91   2.349   0.159   3.703  1.0183 -2.5032  0.9996
   23SOL     vw   92   2.272   0.149   3.742  0.0030 -0.0612  0.0188
   24SOL     ow   93   0.782   0.581   3.858  0.5304  0.7174  0.4565
   24SOL     hw   94   0.819   0.615   3.939  0.6396  3.0819 -0.4855
   24SOL     hw   95   0.853   0.589   3.794  0.2703 -0.5806 -0.0275
   24SOL     vw   96   0.796   0.587   3.860  0.0421  0.0521 -0.0170
   25SOL     ow   97   1.305   1.826   5.408  0.6201 -0.4315  0.9444
   25SOL     hw   98   1.398   1.826   5.431  0.7124  0.5224  0.6042
   25SOL     hw   99   1.274   1.913   5.433 -0.3838 -1.0172  1.8041
   25SOL     vw  100   1.313   1.838   5.414  0.0101 -0.0042  0.0527
   26SOL     ow  101   1.172   1.826   6.711 -0.2539 -0.2846  0.4484
   26SOL     hw  102   1.240   1.825   6.644 -0.4702  1.7094  0.1528
   26SOL     hw  103   1.196   1.754   6.770  0.2304 -1.7486 -1.4287
   26SOL     vw  104   1.184   1.816   6.710 -0.0420 -0.0150 -0.0017
   27SOL     ow  105   1.710   2.157   1.188 -0.5741  0.0930 -0.3323
   27SOL     hw  106   1.648   2.088   1.166  1.1848 -1.5711 -0.3402
   27SOL     hw  107   1.779   2.112   1.237  0.6614  1.8459 -0.3702
   27SOL     vw  108   1.711   2.142   1.192  0.0530  0.0201 -0.0155
   28SOL     ow  109   0.934   0.748   6.651  0.1445  0.0760 -0.0634
   28SOL     hw  110   1.004   0.685   6.632  0.8487  0.6916  0.4682
   28SOL     hw  111   0.886   0.755   6.568 -0.0546 -1.2818 -0.0839
   28SOL     vw  112   0.937   0.740   6.637 -0.0587 -0.0806  0.0069
   29SOL     ow  113   1.365   0.904   3.067  0.7527  0.0039  0.5555
   29SOL     hw  114   1.397   0.976   3.013 -0.8473  0.4839  0.2075
   29SOL     hw  115   1.441   0.845   3.075  1.5202  0.7487 -0.7999
   29SOL     vw  116   1.379   0.905   3.061  0.0159 -0.1521 -0.0443
   30SOL     ow  117   0.203   1.524   1.957 -0.3723 -0.1019 -0.5561
   30SOL     hw  118   0.284   1.491   1.919 -0.3112 -0.7475  0.1270
   30SOL     hw  119   0.181   1.461   2.026 -1.1155  0.4116 -0.3147
   30SOL     vw  120   0.210   1.511   1.961 -0.0474 -0.0448  0.0485
   31SOL     ow  121   2.413   0.671   3.551  0.4207  0.2651  0.4931
   31SOL     hw  122   2.443   0.757   3.522 -3.4007  1.3908 -0.8425
   31SOL     hw  123   2.489   0.614   3.541  2.2708  2.8427 -1.6997
   31SOL     vw  124   2.427   0.675   3.546 -0.0224 -0.0004  0.0231
   32SOL     ow  125   1.122   1.906   6.096  0.6306  0.2380  0.3067
   32SOL     hw  126   1.040   1.859   6.082  0.9304  0.1863 -1.4149
   32SOL     hw  127   1.147   1.939   6.010  1.3629  2.0491  1.1453
   32SOL     vw  128   1.115   1.904   6.083 -0.0669  0.0108 -0.0303
   33SOL     ow  129   2.310   1.973   2.767  0.0066  0.2076  0.1734
   33SOL     hw  130   2.351   2.006   2.847 -1.2287  1.7448  0.2197
   33SOL     hw  131   2.300   1.879   2.782  1.5783  0.1403  0.9860
   33SOL     vw  132   2.314   1.965   2.779  0.0739 -0.0620 -0.0762
   34SOL     ow  133   1.007   0.265   4.823 -0.6858 -0.6144 -0.2098
   34SOL     hw  134   1.057   0.208   4.764  0.6064 -0.5259  0.7687
   34SOL     hw  135   1.057   0.265   4.904 -0.7364  1.8123 -0.1332
   34SOL     vw  136   1.020   0.257   4.826 -0.0710 -0.0816 -0.0556
   35SOL     ow  137   1.212   2.087   6.757 -0.5833  0.1062 -0.3253
   35SOL     hw  138   1.183   2.130   6.838  0.2507  2.1197 -1.0421
   35SOL     hw  139   1.172   2.000   6.761 -1.1488  0.4031  1.9035
   35SOL     vw  140   1.203   2.081   6.768  0.1205 -0.0619 -0.0052
   36SOL     ow  141   1.575   1.489   6.914 -0.3332  0.4535  1.3147
   36SOL     hw  142   1.598   1.509   7.005 -0.4712 -2.5538  2.1221
   36SOL     hw  143   1.482   1.466   6.917 -0.8856  2.3380 -0.0138
   36SOL     vw  144   1.566   1.488   6.926 -0.0062  0.0219  0.0105
   37SOL     ow  145   2.443   1.111   3.278 -0.0571 -0.0878  0.0164
   37SOL     hw  146   2.387   1.087   3.352  0.4526  0.9610  0.7694
   37SOL     hw  147   2.413   1.199   3.254  0.7555  0.1696 -0.0656
   37SOL     vw  148   2.432   1.120   3.285  0.0787 -0.0297  0.0285
   38SOL     ow  149   1.310   2.355   3.578 -0.3975  0.0564 -0.2776
   38SOL     hw  150   1.247   2.282   3.580  1.2237 -1.4626 -1.5469
   38SOL     hw  151   1.277   2.412   3.509 -0.9693 -0.1558 -0.1890
   38SOL     vw  152   1.297   2.353   3.569  0.0053 -0.0294 -0.0045
   39SOL     ow  153   0.643   2.082   2.573  0.3650  0.7500  0.2025
   39SOL     hw  154   0.672   2.174   2.569  1.2301  0.4630 -0.2143
   39SOL     hw  155   0.549   2.088   2.591  0.0277  1.7570 -1.6416
   39SOL     vw  156   0.635   2.095   2.575  0.0122 -0.0101 -0.0424
   40SOL     ow  157   0.130   2.130   5.210 -0.3103 -0.2194  0.2882
   40SOL     hw  158   0.037   2.107   5.210 -1.3972  3.0993  4.0013
   40SOL     hw  159   0.137   2.200   5.146  0.4531 -2.3729 -2.1696
   40SOL     vw  160   0.119   2.136   5.201  0.0068 -0.0587  0.0005
   41SOL     ow  161   0.518   0.997   2.165 -0.0434 -0.1234  0.0383
   41SOL     hw  162   0.567   0.920   2.191  1.1587  1.2733  2.1928
   41SOL     hw  163   0.585   1.062   2.145 -1.0230  0.3964 -1.7724
   41SOL     vw  164   0.533   0.996   2.166 -0.0333  0.0493  0.0339
   42SOL     ow  165   1.216   1.265   4.037  0.0437  0.3137  0.0317
   42SOL     hw  166   1.217   1.337   3.973  1.1238  0.1423 -0.1743
   42SOL     hw  167   1.163   1.197   3.996 -0.5014  0.7716 -0.0307
   42SOL     vw  168   1.209   1.266   4.023  0.0115 -0.0034 -0.0210
   43SOL     ow  169   1.778   1.522   4.616  0.1723 -0.4537 -0.0051
   43SOL     hw  170   1.727   1.512   4.696 -1.3135 -0.0465 -0.8651
   43SOL     hw  171   1.731   1.589   4.566  1.5929 -0.0251 -0.8094
   43SOL     vw  172   1.765   1.530   4.620  0.0165  0.0670  0.0191
   44SOL     ow  173   0.711   1.028   1.254 -0.2714  0.3548  0.1253
   44SOL     hw  174   0.706   1.119   1.282 -3.4800 -0.0753  1.3721
   44SOL     hw  175   0.682   1.029   1.163 -0.5846  0.5567  0.2259
   44SOL     vw  176   0.707   1.040   1.246 -0.0050 -0.0376 -0.0455
   45SOL     ow  177   1.864   2.324   3.712 -0.2523  0.0846  0.3077
   45SOL     hw  178   1.843   2.240   3.753 -0.3478  1.1013  2.5343
   45SOL     hw  179   1.843   2.389   3.779 -0.6767  1.9490 -1.5297
   45SOL     vw  180   1.859   2.322   3.727 -0.0359  0.0403 -0.0173
   46SOL     ow  181   2.365   0.878   0.057 -0.0054 -0.5426  0.1172
   46SOL     hw  182   2.283   0.924   0.070  0.9596  1.4037 -0.3150
   46SOL     hw  183   2.419   0.903   0.132  1.0245  0.2011 -0.8443
   46SOL     vw  184   2.362   0.887   0.069  0.0136  0.0253 -0.0026
   47SOL     ow  185   1.931   1.892   2.849  0.2079  0.4590 -0.4912
   47SOL     hw  186   1.985   1.814   2.860  0.6031  0.9384  1.2383
   47SOL     hw  187   1.857   1.880   2.908 -0.1385  1.0435 -0.7900
   47SOL     vw  188   1.928   1.880   2.858 -0.0492 -0.0362  0.0256
   48SOL     ow  189   0.275   2.047   0.178  0.5041 -0.1622  0.6170
   48SOL     hw  190   0.220   2.118   0.210 -1.6484 -0.1331 -2.6774
   48SOL     hw  191   0.222   1.968   0.193  1.4418 -0.6862  1.2419
   48SOL     vw  192   0.261   2.046   0.184 -0.0364 -0.0494 -0.0567
   49SOL     ow  193   0.994   2.440   6.806 -0.4978  0.3431 -0.1286
   49SOL     hw  194   1.062   2.504   6.830 -0.2111 -0.4319  1.2214
   49SOL     hw  195   1.041   2.373   6.756  0.0573 -0.8218  1.8219
   49SOL     vw  196   1.009   2.440   6.803 -0.0108  0.0701 -0.0551
   50SOL     ow  197   0.638   0.576   4.607  0.0199  0.1277  0.1285
   50SOL     hw  198   0.732   0.582   4.624 -0.0750 -0.1325  0.7547
   50SOL     hw  199   0.600   0.651   4.652 -0.2339 -0.5772  1.1111
   50SOL     vw  200   0.645   0.587   4.615  0.0155  0.0779 -0.0165
   51SOL     ow  201   0.781   0.691   5.193  0.0164  0.3738  0.0158
   51SOL     hw  202   0.701   0.710   5.143 -1.4590 -0.1676  2.0542
   51SOL     hw  203   0.848   0.676   5.126 -1.6419  0.5589 -1.7662
   51SOL     vw  204   0.779   0.692   5.177  0.0062  0.0489 -0.0043
   52SOL     ow  205   0.765   1.730   3.180 -0.0790  0.0901  0.1039
   52SOL     hw  206   0.754   1.665   3.249  2.8044 -0.6960 -0.0350
   52SOL     hw  207   0.763   1.678   3.099  0.6086  0.4071 -0.1177
   52SOL     vw  208   0.763   1.714   3.178 -0.0525  0.0412  0.0229
   53SOL     ow  209   1.970   2.126   2.588 -0.6527  0.2758  0.6177
   53SOL     hw  210   1.915   2.050   2.608 -1.3835  0.5921 -0.1529
   53SOL     hw  211   2.052   2.088   2.557 -0.4246 -0.2024  1.7670
   53SOL     vw  212   1.974   2.111   2.587 -0.0094 -0.1017 -0.1966
   54SOL     ow  213   2.413   0.214   0.006 -0.3838 -0.6243 -0.0224
   54SOL     hw  214   2.405   0.264  -0.075 -1.5645 -1.1735 -0.2648
   54SOL     hw  215   2.336   0.157   0.007  0.8436 -2.3533  0.3071
   54SOL     vw  216   2.402   0.213  -0.004 -0.0136  0.0947  0.0976
   55SOL     ow  217   1.728   0.959   2.987  0.4708 -0.0046  0.1782
   55SOL     hw  218   1.664   1.029   2.973 -0.8926 -1.2229  0.0285
   55SOL     hw  219   1.708   0.927   3.075  2.0384  0.6980  0.8293
   55SOL     vw  220   1.717   0.964   2.997  0.0091 -0.0108  0.0553
   56SOL     ow  221   0.748   1.282   5.805 -0.0044  0.5928 -0.0738
   56SOL     hw  222   0.653   1.277   5.810 -0.1572  0.9938 -1.7364
   56SOL     hw  223   0.766   1.300   5.712  1.8506 -3.0941 -0.6266
   56SOL     vw  224   0.738   1.284   5.793 -0.0370  0.0607  0.0091
   57SOL     ow  225   0.945   2.158   3.405  0.1532 -0.1854 -0.0549
   57SOL     hw  226   0.925   2.117   3.321 -0.3293 -1.5652  0.6921
   57SOL     hw  227   0.860   2.177   3.444  0.3456 -0.4541  0.5240
   57SOL     vw  228   0.932   2.155   3.399 -0.0078 -0.0513  0.0480
   58SOL     ow  229   1.305   0.042   1.031 -0.6063 -0.3956 -0.4460
   58SOL     hw  230   1.316   0.131   0.998  5.0825 -0.3468  0.5862
   58SOL     hw  231   1.277   0.053   1.122 -0.4060  0.3309 -0.4638
   58SOL     vw  232   1.303   0.055   1.039  0.0222 -0.0460  0.0185
   59SOL     ow  233   0.113   0.810   0.479  0.2645 -0.0546  0.6071
   59SOL     hw  234   0.174   0.839   0.546 -0.5762 -0.4922  1.5820
   59SOL     hw  235   0.053   0.751   0.524 -1.4022  1.0055 -0.1290
   59SOL     vw  236   0.113   0.806   0.494 -0.0442 -0.0039  0.0085
   60SOL     ow  237   1.791   0.188   3.648  0.1357  0.1751 -0.5334
   60SOL     hw  238   1.802   0.109   3.595  1.5341 -0.1427  0.2041
   60SOL     hw  239   1.866   0.243   3.625  0.2385  0.4406  0.4062
   60SOL     vw  240   1.802   0.185   3.638 -0.0701  0.0156 -0.0623
   61SOL     ow  241   0.218   1.601   6.667  0.0796 -0.4196  0.1601
   61SOL     hw  242   0.189   1.559   6.586  1.7422  0.7511 -1.0856
   61SOL     hw  243   0.150   1.666   6.686 -1.0942 -1.7141  0.5999
   61SOL     vw  244   0.205   1.604   6.659 -0.0328 -0.0629  0.0393
   62SOL     ow  245   1.344   0.167   4.889  0.4855  0.2483  0.0616
   62SOL     hw  246   1.290   0.177   4.810 -2.2825 -1.3061  1.5642
   62SOL     hw  247   1.280   0.156   4.959  2.7986 -2.0824  1.9865
   62SOL     vw  248   1.328   0.167   4.888  0.1333  0.0376 -0.0451
   63SOL     ow  249   1.039   1.828   2.451 -0.3436  0.3200 -0.3631
   63SOL     hw  250   1.112   1.889   2.445  0.1152 -0.3155 -1.8495
   63SOL     hw  251   1.059   1.760   2.386 -0.9312 -1.3040  1.0692
   63SOL     vw  252   1.051   1.827   2.441 -0.0077  0.0119  0.0304
   64SOL     ow  253   1.198   1.257   0.773 -0.3879  0.5369 -0.3370
   64SOL     hw  254   1.132   1.247   0.840 -0.2694  1.4923 -0.0636
   64SOL     hw  255   1.150   1.283   0.694 -0.6024 -1.2159 -0.8281
   64SOL     vw  256   1.183   1.260   0.771 -0.0919  0.0784 -0.0426
   65SOL     ow  257   1.110   2.329   2.051 -0.0545  0.0368 -0.7608
   65SOL     hw  258   1.192   2.357   2.010  0.3543 -1.3861 -0.9672
   65SOL     hw  259   1.098   2.239   2.021 -0.9995 -0.2266  0.3463
   65SOL     vw  260   1.119   2.321   2.041  0.0741 -0.0421  0.0328
   66SOL     ow  261   0.183   0.331   5.803 -0.2317  0.0316 -0.0581
   66SOL     hw  262   0.215   0.283   5.878 -1.5865  0.0044  0.5283
   66SOL     hw  263   0.260   0.376   5.768  0.6840 -1.0812  0.4740
   66SOL     vw  264   0.198   0.331   5.808 -0.0096  0.0246  0.0288
   67SOL     ow  265   1.641   2.512   0.552  0.5689 -0.4967 -1.0240
   67SOL     hw  266   1.692   2.476   0.624  0.1000  1.2985  0.2647
   67SOL     hw  267   1.577   2.444   0.532 -0.9678 -0.1304  2.0243
   67SOL     vw  268   1.639   2.498   0.559 -0.0386 -0.0051  0.0460
   68SOL     ow  269  -0.028   2.357   2.385  0.0132 -0.5931 -0.2453
   68SOL     hw  270  -0.062   2.442   2.410 -1.2219 -0.8317 -1.0495
   68SOL     hw  271   0.023   2.373   2.305 -0.4975 -0.6457 -0.5873
   68SOL     vw  272  -0.026   2.370   2.378 -0.0037  0.0252  0.0392
   69SOL     ow  273   0.091   1.820   0.230 -0.0150  0.5691 -0.4276
   69SOL     hw  274   0.050   1.819   0.143  0.3131  0.6960 -0.5876
   69SOL     hw  275   0.028   1.864   0.286 -0.7495 -0.5629 -0.3334
   69SOL     vw  276   0.077   1.826   0.226  0.0021  0.0086  0.0190
   70SOL     ow  277  -0.022   2.419   4.377  0.4457 -0.3890  0.7369
   70SOL     hw  278   0.002   2.345   4.433 -0.5883 -0.5920  0.9284
   70SOL     hw  279  -0.019   2.495   4.435  2.1273 -0.1666  0.3941
   70SOL     vw  280  -0.018   2.419   4.392  0.0295 -0.0182  0.0119
   71SOL     ow  281   1.308   1.242   5.538 -0.0122 -0.1894  0.3011
   71SOL     hw  282   1.351   1.177   5.483 -0.3045 -0.9522  0.9613
   71SOL     hw  283   1.372   1.313   5.545  1.3536 -1.4762  1.6191
   71SOL     vw  284   1.322   1.243   5.531 -0.0749  0.0160 -0.0670
   72SOL     ow  285   1.309   1.155   3.158 -0.0375 -0.9664  0.6023
   72SOL     hw  286   1.262   1.139   3.077  1.5680  0.6823 -0.7538
   72SOL     hw  287   1.257   1.222   3.203  0.4726  0.1838 -0.4544
   72SOL     vw  288   1.296   1.162   3.153  0.0906  0.1600 -0.0234
   73SOL     ow  289   0.818   0.998   6.880 -0.4132 -0.3456 -0.1796
   73SOL     hw  290   0.869   1.038   6.810  0.0677  1.4012  1.0956
   73SOL     hw  291   0.831   1.055   6.955  0.7457 -3.1962  1.9857
   73SOL     vw  292   0.827   1.011   6.881  0.0521 -0.0414  0.0129
   74SOL     ow  293   1.990   2.023   2.292 -0.1126  0.0656  0.0307
   74SOL     hw  294   2.015   2.079   2.366  1.9120  1.1434 -1.3636
   74SOL     hw  295   2.039   1.942   2.306  1.3100  0.7584 -0.7482
   74SOL     vw  296   2.000   2.020   2.304 -0.1469  0.0330  0.0094
   75SOL     ow  297   1.032   0.446   6.838  0.5791  0.4539 -0.1886
   75SOL     hw  298   1.121   0.454   6.873  0.9516 -1.1301 -0.7104
   75SOL     hw  299   1.039   0.480   6.749  1.6728 -3.2077 -1.6654
   75SOL     vw  300   1.045   0.452   6.831  0.0293 -0.0392 -0.0038
   76SOL     ow  301   0.550   0.265   4.030  0.3136 -0.3580  0.3401
   76SOL     hw  302   0.483   0.207   3.995 -0.5569  0.9026 -0.1674
   76SOL     hw  303   0.532   0.350   3.990  0.4837  0.6883  2.3273
   76SOL     vw  304   0.539   0.269   4.020  0.0523  0.0067 -0.0126
   77SOL     ow  305   2.211   0.476   0.728  0.6087 -0.1376  0.2527
   77SOL     hw  306   2.270   0.404   0.753 -0.3835 -0.4934  1.7745
   77SOL     hw  307   2.174   0.506   0.812 -1.8474 -0.3813 -0.6493
   77SOL     vw  308   2.214   0.470   0.743 -0.0128  0.0149  0.0217
   78SOL     ow  309   2.397   0.123   6.661  0.7722 -0.3471  0.7387
   78SOL     hw  310   2.412   0.198   6.719 -0.9095  0.2005  0.5142
   78SOL     hw  311   2.303   0.111   6.661  0.8167 -1.0057 -1.0710
   78SOL     vw  312   2.387   0.131   6.668 -0.0528  0.0374 -0.0479
   79SOL     ow  313   0.272   0.947   5.932  0.2494  0.1439  0.4821
   79SOL     hw  314   0.222   0.965   6.011 -1.6728  0.5244 -0.7525
   79SOL     hw  315   0.225   0.876   5.889  2.4024 -1.4742  0.6127
   79SOL     vw  316   0.259   0.940   5.937  0.0336  0.0215  0.0303
   80SOL     ow  317   0.417   1.863   3.150  0.0361  0.2580 -0.7937
   80SOL     hw  318   0.462   1.936   3.193 -2.0918  0.2285  1.7162
   80SOL     hw  319   0.462   1.785   3.181 -1.0831  0.2759  1.0454
   80SOL     vw  320   0.429   1.862   3.159 -0.0798  0.0381 -0.0210
   81SOL     ow  321   0.537   0.163   4.708  0.1090 -0.4055  0.3818
   81SOL     hw  322   0.514   0.242   4.660  0.5342 -0.1830  0.5439
   81SOL     hw  323   0.456   0.112   4.710  0.0752 -0.3926 -0.5169
   81SOL     vw  324   0.523   0.167   4.702  0.0008  0.0242  0.0300
   82SOL     ow  325   0.865   1.618   5.353  0.5066 -0.1364 -0.1876
   82SOL     hw  326   0.960   1.609   5.347  0.3847 -1.0982 -1.0070
   82SOL     hw  327   0.850   1.661   5.437  1.6402 -0.3416  0.1366
   82SOL     vw  328   0.876   1.623   5.363  0.0114 -0.0244 -0.1328
   83SOL     ow  329   0.116   1.178   5.850  0.6597  0.2689  0.0631
   83SOL     hw  330   0.136   1.105   5.908  1.7042  0.7053  0.2672
   83SOL     hw  331   0.023   1.166   5.827  1.1859 -2.0278 -1.2011
   83SOL     vw  332   0.106   1.167   5.854  0.0803  0.0051  0.0050
   84SOL     ow  333   1.790   0.581   7.020 -0.1729 -0.1280  0.2952
   84SOL     hw  334   1.760   0.564   6.931 -0.9582  0.2344  0.4771
   84SOL     hw  335   1.872   0.630   7.010  0.0094 -0.5396 -0.2237
   84SOL     vw  336   1.797   0.585   7.007 -0.0105  0.0470 -0.0277
   85SOL     ow  337   2.064   2.428   4.000 -0.0668 -0.5274 -0.0711
   85SOL     hw  338   2.099   2.395   3.917  1.3099 -0.1598  0.3236
   85SOL     hw  339   1.976   2.458   3.979 -0.9134 -3.2171 -0.7235
   85SOL     vw  340   2.057   2.427   3.986  0.1292  0.0950  0.0361
   86SOL     ow  341   1.252   0.912   1.635  0.7984 -0.0214  0.9967
   86SOL     hw  342   1.321   0.849   1.614 -1.9748 -2.8102 -0.5806
   86SOL     hw  343   1.250   0.914   1.731  2.2241 -0.8062  1.0764
   86SOL     vw  344   1.261   0.904   1.645 -0.0614  0.0381 -0.0317
   87SOL     ow  345   0.181   1.585   4.987  0.9252  0.3983 -0.1112
   87SOL     hw  346   0.197   1.495   5.015 -1.6266  0.2393  1.0584
   87SOL     hw  347   0.107   1.578   4.927 -0.0912  1.8221  0.9285
   87SOL     vw  348   0.174   1.572   4.983  0.0719  0.0816 -0.0536
   88SOL     ow  349  -0.007   2.030   2.964 -0.5967 -0.4112  0.0591
   88SOL     hw  350   0.069   2.064   2.918  1.7885 -2.3489  2.2123
   88SOL     hw  351   0.024   2.017   3.054 -3.4057 -1.5648  0.9619
   88SOL     vw  352   0.007   2.032   2.970  0.0362 -0.1540 -0.0534
   89SOL     ow  353   0.825   2.006   3.161  0.2373  0.6696  0.3011
   89SOL     hw  354   0.736   2.039   3.177 -0.8817 -0.1671 -3.2326
   89SOL     hw  355   0.817   1.911   3.174  0.6963  0.6192  0.2136
   89SOL     vw  356   0.812   1.998   3.165 -0.0143 -0.0072  0.0201
   90SOL     ow  357   1.009   0.651   1.332 -0.1477 -0.0710 -0.4427
   90SOL     hw  358   0.978   0.638   1.242  0.3366 -0.5258 -0.5453
   90SOL     hw  359   1.075   0.583   1.345  2.5183  2.2218 -1.0105
   90SOL     vw  360   1.014   0.640   1.322 -0.0352  0.0100 -0.0019
   91SOL     ow  361   0.670   0.897   5.657 -0.3919 -0.2791 -0.5771
   91SOL     hw  362   0.751   0.934   5.692 -0.0259  0.2331 -1.8918
   91SOL     hw  363   0.661   0.812   5.700  0.8315 -0.3209 -0.3856
   91SOL     vw  364   0.679   0.891   5.667  0.0359 -0.0288 -0.0560
   92SOL     ow  365   0.485   0.383   4.546  0.0602 -0.3111 -0.3506
   92SOL     hw  366   0.521   0.469   4.567  1.3820 -1.5111  2.9651
   92SOL     hw  367   0.393   0.388   4.573  0.3305 -0.1446  0.5609
   92SOL     vw  368   0.478   0.395   4.552  0.0680 -0.0799  0.0587
   93SOL     ow  369   0.879   2.481   1.967 -0.1326  0.8046  0.1449
   93SOL     hw  370   0.856   2.555   1.911  0.0054  0.8629  0.1646
   93SOL     hw  371   0.815   2.413   1.946  1.3580 -0.0773 -1.8835
   93SOL     vw  372   0.868   2.481   1.957 -0.0234 -0.0039  0.0910
   94SOL     ow  373   0.687   1.687   0.300 -0.2565  0.3651 -0.7050
   94SOL     hw  374   0.602   1.689   0.255 -0.7552 -0.2011  0.1836
   94SOL     hw  375   0.695   1.597   0.332  1.1935  0.1043 -1.7060
   94SOL     vw  376   0.677   1.676   0.298 -0.0490  0.0036  0.0375
   95SOL     ow  377   1.572   1.393   6.659  0.1733 -0.1265  0.3749
   95SOL     hw  378   1.602   1.442   6.736 -0.8012  0.7369  0.2303
   95SOL     hw  379   1.504   1.335   6.694 -1.1374  1.1223  0.0202
   95SOL     vw  380   1.567   1.392   6.674 -0.0351 -0.0293 -0.0746
   96SOL     ow  381   1.772   0.477   0.279 -0.0390  0.7313  0.1469
   96SOL     hw  382   1.769   0.480   0.184 -0.8358 -0.9244  0.0870
   96SOL     hw  383   1.804   0.389   0.300 -0.1127  0.9786  1.4163
   96SOL     vw  384   1.776   0.466   0.269  0.0303  0.0333 -0.0006
   97SOL     ow  385   0.110   2.292   2.620  0.3516  0.3010  0.2654
   97SOL     hw  386   0.033   2.336   2.657 -0.3139  0.6871 -1.5026
   97SOL     hw  387   0.095   2.291   2.526  2.3454  0.0237 -0.1027
   97SOL     vw  388   0.098   2.298   2.613 -0.0010  0.0428  0.0000
   98SOL     ow  389   0.120   1.516   6.971 -0.0800 -0.4697 -0.1286
   98SOL     hw  390   0.132   1.462   7.049  0.1971  1.5795  1.3207
   98SOL     hw  391   0.034   1.556   6.982  0.1807  0.2443 -0.6183
   98SOL     vw  392   0.110   1.514   6.983  0.0493  0.0806 -0.0532
   99SOL     ow  393   0.112   1.401   6.023  0.2883  0.1113 -0.1091
   99SOL     hw  394   0.019   1.423   6.021  0.1325 -0.4711  0.3723
   99SOL     hw  395   0.119   1.323   5.969  0.1461 -1.0371  1.4501
   99SOL     vw  396   0.101   1.394   6.016 -0.0381 -0.0899  0.0834
  100SOL     ow  397   0.013   2.305   3.006  0.3712 -0.6659 -0.1602
  100SOL     hw  398  -0.016   2.215   2.994  1.4467 -0.9870 -0.4152
  100SOL     hw  399  -0.003   2.323   3.099  2.7382 -2.0878  0.6085
  100SOL     vw  400   0.007   2.296   3.017  0.0271 -0.0331 -0.1004
  101SOL     ow  401   0.477   0.968   5.415 -0.2844 -0.3785 -0.1214
  101SOL     hw  402   0.527   0.897   5.457  2.1500  2.0145  1.3626
  101SOL     hw  403   0.470   0.940   5.323  3.0603 -1.3741 -0.2356
  101SOL     vw  404   0.483   0.955   5.408 -0.0990  0.0416  0.0887
  102SOL     ow  405   1.073   2.404   1.293 -0.5010  0.1506  0.3888
  102SOL     hw  406   1.150   2.457   1.316 -0.6221  0.4249  0.1571
  102SOL     hw  407   1.019   2.406   1.372  0.2718 -1.0162  0.9770
  102SOL     vw  408   1.076   2.411   1.307  0.0178 -0.0262  0.0256
  103SOL     ow  409   1.864   0.872   2.263  0.1967  0.1415 -0.0479
  103SOL     hw  410   1.836   0.842   2.349 -0.3524 -5.3642 -1.7655
  103SOL     hw  411   1.959   0.859   2.263  0.3110  0.9214 -0.0615
  103SOL     vw  412   1.873   0.867   2.274  0.0079 -0.0005 -0.0696
  104SOL     ow  413   0.658   1.341   2.028 -0.5754 -0.6123 -0.0202
  104SOL     hw  414   0.711   1.414   1.995 -1.8014 -0.6119 -2.2219
  104SOL     hw  415   0.711   1.301   2.096  1.9337 -0.1609 -1.5765
  104SOL     vw  416   0.672   1.346   2.032 -0.0554  0.0674 -0.0271
  105SOL     ow  417   0.074   2.200   0.272  0.1557  0.1196 -0.1029
  105SOL     hw  418   0.079   2.204   0.367  0.8956 -1.0949 -0.0673
  105SOL     hw  419   0.004   2.261   0.248 -0.8021 -0.4041  1.2883
  105SOL     vw  420   0.066   2.208   0.281 -0.0443 -0.0091 -0.0219
  106SOL     ow  421   0.372   0.819   0.352 -0.6666 -0.9905  0.6371
  106SOL     hw  422   0.440   0.771   0.401  1.1167 -0.4607 -1.1885
  106SOL     hw  423   0.294   0.812   0.407  0.5264 -2.6951  2.2494
  106SOL     vw  424   0.371   0.812   0.366  0.0128  0.0151  0.0243
  107SOL     ow  425   1.895   2.313   2.801  0.5548 -0.2222  0.1762
  107SOL     hw  426   1.802   2.294   2.807  0.2041  0.7211 -1.5496
  107SOL     hw  427   1.909   2.386   2.861  0.3418 -0.8554  1.0018
  107SOL     vw  428   1.885   2.320   2.809  0.0356  0.0491 -0.0312
  108SOL     ow  429   1.513   1.245   4.166 -0.7614 -0.4268 -0.0799
  108SOL     hw  430   1.566   1.166   4.167  0.8962  0.4491 -3.5779
  108SOL     hw  431   1.545   1.297   4.240  2.2259 -0.6643 -1.0728
  108SOL     vw  432   1.524   1.242   4.176  0.0432  0.0146 -0.0522
  109SOL     ow  433   0.241   1.140   5.558  0.0072 -0.3232 -1.1202
  109SOL     hw  434   0.299   1.091   5.500 -1.1632 -0.4692 -2.2247
  109SOL     hw  435   0.153   1.108   5.537 -0.5524  0.4051 -0.0161
  109SOL     vw  436   0.237   1.129   5.548  0.0135 -0.0240  0.0534
  110SOL     ow  437   0.605   1.191   5.321  0.2002 -0.2612  0.1612
  110SOL     hw  438   0.678   1.143   5.282 -0.8667 -1.7543 -0.0521
  110SOL     hw  439   0.549   1.124   5.360 -0.0766  1.0040  2.0722
  110SOL     vw  440   0.607   1.176   5.321 -0.0185 -0.0519 -0.0174
  111SOL     ow  441   0.145   1.043   6.146  0.0009 -0.1712  0.2100
  111SOL     hw  442   0.065   1.001   6.177  1.0053 -2.3859  0.0249
  111SOL     hw  443   0.204   1.043   6.222 -0.0753  1.3108  0.3081
  111SOL     vw  444   0.142   1.038   6.160  0.0044 -0.0688 -0.0696
  112SOL     ow  445   1.940   0.019   3.233  0.3411 -0.5680  0.5667
  112SOL     hw  446   1.976   0.067   3.158 -0.0162 -2.2494 -0.7549
  112SOL     hw  447   1.939  -0.072   3.204  0.4757 -1.3087  2.7654
  112SOL     vw  448   1.944   0.013   3.219 -0.0050  0.0292  0.0511
  113SOL     ow  449   0.983   1.117   5.436 -0.3656 -0.4667  0.4498
  113SOL     hw  450   0.907   1.132   5.492 -0.0282  2.0156  0.3420
  113SOL     hw  451   0.946   1.105   5.348 -0.6503  0.9624  0.3583
  113SOL     vw  452   0.968   1.117   5.432  0.0527 -0.0386  0.0353
  114SOL     ow  453   2.423   0.365   0.316  0.3729  0.3981 -0.4776
  114SOL     hw  454   2.392   0.456   0.320  0.4967  0.4252 -0.1541
  114SOL     hw  455   2.483   0.357   0.390 -0.0866 -0.1185 -0.1588
  114SOL     vw  456   2.427   0.376   0.326  0.0032  0.0201 -0.0330
  115SOL     ow  457   2.383   1.454   0.527 -0.0661  0.0923 -0.1556
  115SOL     hw  458   2.421   1.400   0.458  0.8688 -0.6076  0.8742
  115SOL     hw  459   2.364   1.392   0.598  4.3729  1.3712  2.5394
  115SOL     vw  460   2.385   1.439   0.527  0.0057  0.0902  0.0042
  116SOL     ow  461   0.399   1.749   3.389 -0.2521 -0.0883 -0.0589
  116SOL     hw  462   0.316   1.707   3.409 -0.2325 -0.7721 -1.3066
  116SOL     hw  463   0.383   1.842   3.402 -0.4649 -0.3922  2.1772
  116SOL     vw  464   0.386   1.756   3.393  0.0060 -0.0278  0.0391
  117SOL     ow  465   2.347   1.919   3.818  0.3834  0.3147  0.5588
  117SOL     hw  466   2.330   1.903   3.910  1.4242  1.1585  0.9200
  117SOL     hw  467   2.345   1.833   3.777  0.3876 -0.1122  1.4502
  117SOL     vw  468   2.344   1.906   3.825 -0.0558  0.0168 -0.0590
  118SOL     ow  469   1.639   1.319   2.275 -0.9394  0.2095  0.8997
  118SOL     hw  470   1.606   1.408   2.267  0.2696  0.8005  2.0413
  118SOL     hw  471   1.734   1.328   2.282 -0.4472 -1.4232 -2.1229
  118SOL     vw  472   1.647   1.332   2.275 -0.0010 -0.0036 -0.0108
  119SOL     ow  473   1.638   0.260   4.900 -0.5300  0.1098  0.3600
  119SOL     hw  474   1.731   0.243   4.912 -0.2785  2.3350  2.4345
  119SOL     hw  475   1.632   0.354   4.886 -2.2863 -0.3545 -3.1712
  119SOL     vw  476   1.649   0.270   4.900  0.0194 -0.0308 -0.0272
  120SOL     ow  477   0.999   0.750   1.633  0.0673  0.1413 -0.5505
  120SOL     hw  478   1.078   0.803   1.640  1.5564 -2.1132  1.1632
  120SOL     hw  479   0.932   0.801   1.678  1.2691  0.8746  0.4864
  120SOL     vw  480   1.001   0.763   1.640  0.0613  0.0026  0.1160
  121SOL     ow  481   1.364   2.368   6.563 -0.3930  0.1895  0.0847
  121SOL     hw  482   1.348   2.372   6.469 -1.1624 -2.3128  0.0297
  121SOL     hw  483   1.276   2.364   6.602 -0.0988 -1.5670  0.6691
  121SOL     vw  484   1.350   2.368   6.556  0.1017 -0.0519 -0.0625
  122SOL     ow  485   2.392   0.381   6.791  0.1640 -0.3170 -0.4401
  122SOL     hw  486   2.457   0.451   6.800 -0.2789  0.1716 -0.9849
  122SOL     hw  487   2.308   0.424   6.806 -0.1851 -0.5321 -1.6775
  122SOL     vw  488   2.389   0.396   6.794  0.0292 -0.0416 -0.0284
  123SOL     ow  489   1.595   0.189   0.322 -0.5811  0.6660 -0.1317
  123SOL     hw  490   1.593   0.277   0.358  0.1083  0.6593 -0.0639
  123SOL     hw  491   1.531   0.190   0.250 -1.2782  0.9406  0.4811
  123SOL     vw  492   1.586   0.200   0.317 -0.1064 -0.0434 -0.0191
  124SOL     ow  493   0.471   2.050   0.364 -0.2523  0.4008 -0.3363
  124SOL     hw  494   0.446   1.993   0.437  0.7711  0.2056 -0.1216
  124SOL     hw  495   0.395   2.051   0.307 -1.2243  0.8426  0.9093
  124SOL     vw  496   0.458   2.043   0.366 -0.0260 -0.0143 -0.0427
  125SOL     ow  497   0.245   1.398   1.044 -0.4959  0.4661  0.2675
  125SOL     hw  498   0.296   1.365   0.971  0.2908  2.6098 -0.2381
  125SOL     hw  499   0.308   1.407   1.116 -0.6781  0.8206  0.3889
  125SOL     vw  500   0.260   1.395   1.044 -0.0126  0.0060 -0.0391
  126SOL     ow  501   0.378   0.895   1.932  1.2043  0.4192  0.2894
  126SOL     hw  502   0.411   0.805   1.926 -1.5814 -0.7046  0.2938
  126SOL     hw  503   0.368   0.922   1.841 -0.6453 -0.4110  0.2087
  126SOL     vw  504   0.381   0.887   1.919 -0.0144  0.0122 -0.0352
  127SOL     ow  505   0.857   0.117   6.096  0.4761  0.0307  0.0207
  127SOL     hw  506   0.828   0.087   6.182 -0.6570  0.1985 -0.2908
  127SOL     hw  507   0.830   0.209   6.092  2.2094  0.5968  0.2090
  127SOL     vw  508   0.850   0.125   6.107  0.0587 -0.0445  0.0064
  128SOL     ow  509   0.202   2.315   4.772 -0.1972  0.3796 -0.4716
  128SOL     hw  510   0.204   2.410   4.770 -1.4547  0.4172 -1.5850
  128SOL     hw  511   0.275   2.290   4.828 -1.3645  2.0771  1.9927
  128SOL     vw  512   0.212   2.324   4.779  0.0385 -0.0440 -0.0789
  129SOL     ow  513   0.893   0.825   2.428  0.1111 -0.3617  0.3104
  129SOL     hw  514   0.838   0.803   2.352 -0.2564 -1.5501  0.8872
  129SOL     hw  515   0.977   0.783   2.410 -1.2036 -4.3413  2.3368
  129SOL     vw  516   0.896   0.816   2.415 -0.1027  0.0190  0.0056
  130SOL     ow  517   0.337   0.943   6.318  0.2312  0.2156 -0.2856
  130SOL     hw  518   0.360   1.002   6.390  1.3903  2.3393 -2.2351
  130SOL     hw  519   0.420   0.907   6.288 -0.4800 -2.9804  1.1421
  130SOL     vw  520   0.351   0.946   6.323  0.0188 -0.0286  0.0131
  131SOL     ow  521   1.017   2.386   3.158 -0.5098  0.8644 -0.0006
  131SOL     hw  522   1.082   2.327   3.120 -1.5066  0.5524 -1.2812
  131SOL     hw  523   0.982   2.338   3.234 -1.5956 -0.4237 -1.2612
  131SOL     vw  524   1.021   2.372   3.163  0.0055  0.0097  0.0032
  132SOL     ow  525   0.880   1.172   0.097  0.1261 -0.3683 -0.8696
  132SOL     hw  526   0.957   1.157   0.152 -1.2396 -1.1980  0.9180
  132SOL     hw  527   0.884   1.265   0.075  0.9635 -0.1047  0.2686
  132SOL     vw  528   0.891   1.182   0.101  0.0513 -0.0389 -0.1328
  133SOL     ow  529   0.193   1.952   4.867 -0.0072 -0.1084  0.8570
  133SOL     hw  530   0.242   1.910   4.938  0.4787  0.2352  0.7370
  133SOL     hw  531   0.235   2.038   4.857 -0.2535 -0.0413  0.3455
  133SOL     vw  532   0.205   1.958   4.875 -0.0212 -0.0007  0.0162
  134SOL     ow  533   0.932   0.933   1.407  0.6189 -0.3436  0.0876
  134SOL     hw  534   1.006   0.993   1.413  0.0443  0.4895 -0.7616
  134SOL     hw  535   0.885   0.960   1.328 -1.3932  0.0922  1.3461
  134SOL     vw  536   0.935   0.944   1.397 -0.0527 -0.0008  0.0190
  135SOL     ow  537   1.468   1.244   1.214 -0.1400  0.1920  0.3432
  135SOL     hw  538   1.553   1.288   1.214  0.2679 -0.5824  0.0093
  135SOL     hw  539   1.489   1.152   1.228 -0.6938 -0.3973 -2.2849
  135SOL     vw  540   1.482   1.238   1.216 -0.0519  0.0110  0.0480
  136SOL     ow  541   0.762   0.378   6.148 -0.2721  0.3625 -0.0872
  136SOL     hw  542   0.693   0.400   6.211 -1.4127  1.4101 -1.6435
  136SOL     hw  543   0.786   0.462   6.109 -0.4783 -0.4013 -1.9358
  136SOL     vw  544   0.756   0.392   6.151 -0.0060 -0.0289 -0.0048
  137SOL     ow  545   0.536   1.047   5.889 -0.7236  0.6772  0.0353
  137SOL     hw  546   0.562   1.016   5.803  1.4452  0.6223  0.6490
  137SOL     hw  547   0.454   1.002   5.907 -0.7194 -0.0455 -1.5864
  137SOL     vw  548   0.529   1.037   5.880  0.0193 -0.0658  0.0300
  138SOL     ow  549   1.202   0.124   6.860  0.0632 -0.0019  0.1962
  138SOL     hw  550   1.176   0.199   6.913 -0.8864 -0.8451  0.9650
  138SOL     hw  551   1.206   0.158   6.770 -0.4071  0.9466  0.5232
  138SOL     vw  552   1.200   0.138   6.855  0.0518  0.0259  0.0327
  139SOL     ow  553   2.367   0.641   0.464  0.3704  0.0364 -0.6326
  139SOL     hw  554   2.326   0.704   0.524 -0.5976 -0.6132 -0.5772
  139SOL     hw  555   2.369   0.560   0.515  0.2828 -0.3214 -1.2025
  139SOL     vw  556   2.362   0.639   0.479  0.0265  0.0611 -0.0087
  140SOL     ow  557   1.684   1.032   2.076 -0.0744 -0.5350  1.2185
  140SOL     hw  558   1.733   1.086   2.014  0.9844 -2.8462 -0.1054
  140SOL     hw  559   1.752   0.982   2.122 -1.0343 -2.0194  1.0925
  140SOL     vw  560   1.700   1.032   2.074  0.0128 -0.0505  0.0226
  141SOL     ow  561   0.033   1.559   1.024  0.5029 -0.5284 -0.4693
  141SOL     hw  562   0.072   1.646   1.024 -0.0398 -0.2782 -0.6901
  141SOL     hw  563   0.106   1.499   1.037  0.5030  0.1349  4.2132
  141SOL     vw  564   0.047   1.563   1.026 -0.0499  0.0196 -0.0078
  142SOL     ow  565   0.079   0.576   6.718 -1.0728 -0.3193  0.8565
  142SOL     hw  566   0.033   0.651   6.754  0.9026  1.2450  0.2789
  142SOL     hw  567   0.150   0.559   6.779 -0.4635 -0.6107  0.0901
  142SOL     vw  568   0.082   0.583   6.731 -0.0099 -0.0375  0.0262
  143SOL     ow  569   0.423   1.590   6.877  0.6889  0.2422  0.2889
  143SOL     hw  570   0.513   1.559   6.869  1.0177  1.1788  0.2817
  143SOL     hw  571   0.427   1.683   6.856 -0.0014  0.6680  1.8988
  143SOL     vw  572   0.435   1.598   6.873  0.0331  0.0094  0.0095
  144SOL     ow  573   1.335   1.241   5.827  0.6645  0.0922  0.2831
  144SOL     hw  574   1.359   1.232   5.734 -0.1695  0.0474  0.0646
  144SOL     hw  575   1.392   1.179   5.872  0.8853 -0.0884 -0.2356
  144SOL     vw  576   1.345   1.232   5.820 -0.0209 -0.0501 -0.0570
  145SOL     ow  577   0.907   1.742   5.575  0.1859  0.1783  0.5527
  145SOL     hw  578   0.891   1.837   5.575  1.0748  0.4013  3.0974
  145SOL     hw  579   1.002   1.734   5.572  0.0983 -0.7598 -1.5383
  145SOL     vw  580   0.917   1.754   5.574  0.0357  0.0116  0.0567
  146SOL     ow  581   0.265   2.039   2.787  0.1290  1.1602  0.1070
  146SOL     hw  582   0.324   1.988   2.842 -1.0838 -0.8667 -0.3825
  146SOL     hw  583   0.245   1.982   2.713  0.9389  3.4305 -2.0096
  146SOL     vw  584   0.270   2.025   2.784 -0.0564  0.1156 -0.0976
  147SOL     ow  585   0.116   2.325   5.024 -0.3146 -0.2030  0.1801
  147SOL     hw  586   0.130   2.331   4.929 -1.0139 -1.2662 -0.0013
  147SOL     hw  587   0.043   2.385   5.041 -0.0185  0.1886  0.0964
  147SOL     vw  588   0.109   2.334   5.014 -0.0079 -0.0091  0.0296
  148SOL     ow  589   1.143   0.876   2.898  0.2736 -0.0738 -0.2573
  148SOL     hw  590   1.150   0.968   2.925 -2.3987 -0.4173  2.0522
  148SOL     hw  591   1.214   0.833   2.945 -0.1844  0.4327  0.9673
  148SOL     vw  592   1.153   0.883   2.908 -0.0558  0.0384 -0.0290
  149SOL     ow  593   0.063   0.995   1.778  0.3117  0.5438  0.2194
  149SOL     hw  594   0.008   0.947   1.840 -0.0818  0.6270 -0.0560
  149SOL     hw  595   0.038   1.087   1.791 -0.0567  0.5285 -0.3229
  149SOL     vw  596   0.052   1.001   1.788 -0.0099 -0.0119  0.0667
  150SOL     ow  597   2.422   0.348   5.664  0.2770 -0.1976  0.3848
  150SOL     hw  598   2.327   0.341   5.664  0.3197 -1.3293  2.1567
  150SOL     hw  599   2.440   0.439   5.690 -0.2590  0.6323 -1.8661
  150SOL     vw  600   2.412   0.359   5.667  0.0137 -0.0414  0.0372
  151SOL     ow  601   1.355   1.839   6.522  0.4106  0.0014 -0.3704
  151SOL     hw  602   1.414   1.910   6.548  0.6798 -0.0511 -0.8225
  151SOL     hw  603   1.414   1.769   6.493  0.1148  0.0648 -1.1242
  151SOL     vw  604   1.371   1.839   6.522  0.0018 -0.0131  0.0498
  152SOL     ow  605   1.072   1.373   1.553 -0.2342 -0.4955 -0.0688
  152SOL     hw  606   1.002   1.426   1.515  0.3780 -0.1366 -0.7085
  152SOL     hw  607   1.121   1.341   1.477  0.3195 -0.7103  0.3794
  152SOL     vw  608   1.069   1.376   1.538 -0.0216  0.0409  0.0475
  153SOL     ow  609   1.292   1.855   3.574 -0.1408  0.3312 -0.2632
  153SOL     hw  610   1.250   1.942   3.569  1.8236  1.4301  1.0580
  153SOL     hw  611   1.385   1.874   3.584  0.7406 -2.0155 -2.9007
  153SOL     vw  612   1.298   1.869   3.575 -0.0386 -0.0008  0.0894
  154SOL     ow  613   0.598   0.859   6.267  0.1068  0.0214  0.0973
  154SOL     hw  614   0.605   0.946   6.308  3.8002 -0.9319  1.9144
  154SOL     hw  615   0.645   0.867   6.184  0.7410 -0.2709  0.4183
  154SOL     vw  616   0.605   0.872   6.262  0.0280  0.0010 -0.0348
  155SOL     ow  617   0.171   1.944   4.584 -0.1512 -0.0396 -0.1846
  155SOL     hw  618   0.122   1.866   4.558  3.4069 -2.8432  0.6970
  155SOL     hw  619   0.172   1.940   4.680  2.7854 -0.8928 -0.1817
  155SOL     vw  620   0.164   1.934   4.593  0.0612  0.0113  0.0007
  156SOL     ow  621   1.176   1.056   1.389 -0.0505 -0.3720  0.0942
  156SOL     hw  622   1.224   1.000   1.450 -0.5007 -1.2571 -0.3489
  156SOL     hw  623   1.203   1.025   1.302  0.1813  0.5267 -0.1627
  156SOL     vw  624   1.186   1.044   1.386 -0.0200 -0.1058  0.0727
  157SOL     ow  625   1.955   2.106   1.342  0.0139 -0.5161  0.5869
  157SOL     hw  626   1.953   2.149   1.427 -1.8827 -0.0163  0.3335
  157SOL     hw  627   2.043   2.069   1.336  1.8735  3.3384  0.7998
  157SOL     vw  628   1.966   2.107   1.352 -0.0452 -0.0058 -0.0114
  158SOL     ow  629   0.562   1.952   0.092 -0.1419  0.5691 -0.2033
  158SOL     hw  630   0.505   1.876   0.103  2.1903 -1.3026 -0.0952
  158SOL     hw  631   0.621   1.927   0.021  0.9292  2.1211  0.0880
  158SOL     vw  632   0.562   1.939   0.084  0.0032  0.0136  0.0469
  159SOL     ow  633   1.179   1.633   5.566  0.0643 -0.6235 -0.1684
  159SOL     hw  634   1.208   1.586   5.645 -0.7137  0.7514  0.9871
  159SOL     hw  635   1.253   1.688   5.542  0.9762 -2.3504 -1.5219
  159SOL     vw  636   1.193   1.634   5.574 -0.0342  0.0321 -0.0262
  160SOL     ow  637   1.327   1.267   2.746  0.7603  0.7927  0.7419
  160SOL     hw  638   1.284   1.353   2.747  0.7831  0.8357 -0.4783
  160SOL     hw  639   1.410   1.282   2.700  0.0615 -0.1616 -0.9459
  160SOL     vw  640   1.332   1.280   2.740  0.0088 -0.0010  0.0359
  161SOL     ow  641   0.300   0.121   0.968 -0.4443 -0.1487  0.0742
  161SOL     hw  642   0.221   0.124   0.914  0.4733 -1.0596 -1.4128
  161SOL     hw  643   0.370   0.098   0.906  0.9561  0.4568  1.3720
  161SOL     vw  644   0.299   0.118   0.953 -0.0214 -0.0055  0.0229
  162SOL     ow  645   1.486   2.110   6.674 -0.2936 -0.2171  0.4775
  162SOL     hw  646   1.526   2.075   6.754  0.2382 -3.5081 -1.0679
  162SOL     hw  647   1.393   2.118   6.695 -0.0891 -0.5169  1.5530
  162SOL     vw  648   1.479   2.107   6.688  0.0247 -0.0342 -0.0186
  163SOL     ow  649   0.712   2.211   0.185 -0.1397 -0.4291  0.0611
  163SOL     hw  650   0.777   2.245   0.247 -0.4763 -0.5142  0.4607
  163SOL     hw  651   0.752   2.224   0.099 -0.1747  0.8093  0.2186
  163SOL     vw  652   0.726   2.217   0.182 -0.0534  0.0430 -0.0161
  164SOL     ow  653   2.085   0.833   5.219  0.4597 -0.3995  0.2914
  164SOL     hw  654   2.092   0.883   5.300 -0.9188 -0.0508  0.2138
  164SOL     hw  655   2.033   0.889   5.161  2.2711 -0.1830 -1.2193
  164SOL     vw  656   2.079   0.847   5.222 -0.0147 -0.0143 -0.0050
  165SOL     ow  657   1.123   0.052   2.223 -0.6313 -0.4632  1.0279
  165SOL     hw  658   1.073   0.123   2.264  0.4708  0.9937 -0.0252
  165SOL     hw  659   1.214   0.070   2.246  0.1486  0.8581 -2.4509
  165SOL     vw  660   1.129   0.064   2.231 -0.0685 -0.0070 -0.0297
  166SOL     ow  661   0.884   0.315   0.024 -0.1488 -0.1887  0.2628
  166SOL     hw  662   0.945   0.334  -0.047 -0.1164 -1.6343 -0.1176
  166SOL     hw  663   0.799   0.341  -0.010  0.0184  0.2291  0.1506
  166SOL     vw  664   0.881   0.321   0.010 -0.0297  0.0698  0.0408
  167SOL     ow  665   0.400   1.725   0.170  0.0095 -0.0811  0.5920
  167SOL     hw  666   0.393   1.666   0.095  2.3067 -0.0746  0.3285
  167SOL     hw  667   0.328   1.698   0.228 -1.0010 -0.9370 -0.9885
  167SOL     vw  668   0.389   1.714   0.168  0.0057  0.0364 -0.0102
  168SOL     ow  669   2.282   1.230   2.810 -0.8526 -0.5515 -0.0099
  168SOL     hw  670   2.269   1.318   2.844  0.2229  0.0046 -0.9658
  168SOL     hw  671   2.353   1.239   2.746 -1.2684 -1.9610 -0.7130
  168SOL     vw  672   2.290   1.243   2.806 -0.0328 -0.0570 -0.0141
  169SOL     ow  673   0.340   1.054   6.959 -0.1431 -0.0688 -0.0202
  169SOL     hw  674   0.343   1.057   7.054 -0.5346 -3.4088  0.2010
  169SOL     hw  675   0.262   1.003   6.939 -0.2238  0.7890 -2.1910
  169SOL     vw  676   0.330   1.048   6.969  0.0149  0.0707  0.0088
  170SOL     ow  677   0.130   0.418   0.103 -0.6623  0.7062  0.4748
  170SOL     hw  678   0.127   0.510   0.128 -1.6093  0.7173  0.3614
  170SOL     hw  679   0.213   0.408   0.055 -1.0263  1.7298 -0.3925
  170SOL     vw  680   0.141   0.429   0.100  0.0038 -0.0339  0.0118
  171SOL     ow  681   1.235   1.543   3.610  0.2766  0.0023 -0.3416
  171SOL     hw  682   1.198   1.544   3.698  0.3885  0.5092 -0.2943
  171SOL     hw  683   1.328   1.525   3.623 -0.1139 -2.5256 -0.5433
  171SOL     vw  684   1.242   1.541   3.623 -0.0241  0.0539 -0.0274
  172SOL     ow  685   1.641   0.516   0.545  0.8540  0.2827  0.5107
  172SOL     hw  686   1.555   0.504   0.505 -0.8784  1.6460  3.4794
  172SOL     hw  687   1.670   0.428   0.567 -1.3703 -0.0756  2.3550
  172SOL     vw  688   1.634   0.503   0.542  0.0291  0.0074  0.1199
  173SOL     ow  689   0.481   1.423   6.022  0.6558  0.1257  0.1543
  173SOL     hw  690   0.557   1.481   6.022  0.7159  0.1136  2.1904
  173SOL     hw  691   0.512   1.342   6.064 -0.2020 -0.2698  0.0563
  173SOL     vw  692   0.495   1.420   6.028  0.0238  0.0361  0.0632
  174SOL     ow  693   1.082   2.419   0.976 -0.5615  0.1582  0.1086
  174SOL     hw  694   1.084   2.383   0.888  0.6609  0.5796 -0.0636
  174SOL     hw  695   1.168   2.460   0.987 -0.3123 -0.7525  1.8648
  174SOL     vw  696   1.093   2.420   0.966 -0.0787  0.0166  0.0181
  175SOL     ow  697   1.854   0.038   3.891  0.1767  0.0131 -0.0374
  175SOL     hw  698   1.809   0.100   3.833  0.0013 -0.3629 -0.3085
  175SOL     hw  699   1.789   0.020   3.960  1.0393  1.9169  1.3681
  175SOL     vw  700   1.839   0.044   3.893 -0.0292  0.0342 -0.0234
  176SOL     ow  701   2.424   0.112   2.521  0.2426  0.3677 -0.1861
  176SOL     hw  702   2.479   0.176   2.475  0.8856 -0.0933 -0.0731
  176SOL     hw  703   2.428   0.138   2.613 -1.0135  1.2676 -0.3634
  176SOL     vw  704   2.432   0.124   2.527 -0.0299  0.0078 -0.0547
  177SOL     ow  705   1.854   2.233   2.136 -0.8073 -0.4486  0.4258
  177SOL     hw  706   1.902   2.166   2.184 -2.3132 -0.2786  2.2906
  177SOL     hw  707   1.801   2.184   2.073 -1.4650 -0.9914  1.3829
  177SOL     vw  708   1.853   2.218   2.134 -0.0398  0.0147  0.0033
  178SOL     ow  709   0.230   0.428   4.595 -1.0610 -0.1705  0.1734
  178SOL     hw  710   0.204   0.506   4.643  0.9789 -0.2820  1.5701
  178SOL     hw  711   0.221   0.452   4.503 -1.2595  1.4201  0.5934
  178SOL     vw  712   0.225   0.441   4.589 -0.0097 -0.0103 -0.0029
  179SOL     ow  713   0.548   0.866   0.054  0.0060  0.0710 -0.4515
  179SOL     hw  714   0.469   0.916   0.071  1.0457  1.7879 -0.4666
  179SOL     hw  715   0.577   0.835   0.140 -0.2586  0.0938 -0.3561
  179SOL     vw  716   0.542   0.868   0.068  0.0855  0.0259 -0.0484
  180SOL     ow  717   0.691   0.003   5.199 -0.1374 -0.1921 -0.7094
  180SOL     hw  718   0.672  -0.091   5.194  1.2083 -0.5167 -0.3450
  180SOL     hw  719   0.697   0.021   5.292  1.5097 -0.2048 -0.7713
  180SOL     vw  720   0.689  -0.007   5.210  0.0494  0.0045 -0.0069
  181SOL     ow  721   1.444   1.093   2.235  0.5114 -0.7907  0.1001
  181SOL     hw  722   1.361   1.132   2.262  0.4625 -0.9610  0.1961
  181SOL     hw  723   1.444   1.007   2.276  1.0295 -0.5366  0.6545
  181SOL     vw  724   1.433   1.087   2.244 -0.0371 -0.0926 -0.0675
  182SOL     ow  725   0.870   2.257   1.105  0.6179  0.2717 -0.1872
  182SOL     hw  726   0.915   2.181   1.068  1.3939  1.3630 -1.5715
  182SOL     hw  727   0.784   2.224   1.130  0.4738 -0.7967 -1.9189
  182SOL     vw  728   0.864   2.242   1.103  0.0409  0.0328  0.0327
  183SOL     ow  729   2.098   1.823   2.431 -0.3487  0.4351 -0.1716
  183SOL     hw  730   2.109   1.732   2.404 -0.5763 -0.1616  1.6125
  183SOL     hw  731   2.014   1.823   2.477 -1.5812  2.0974 -2.2313
  183SOL     vw  732   2.088   1.811   2.433 -0.0131 -0.0295  0.0067
  184SOL     ow  733   1.241   1.499   5.797  0.7060  0.5640  0.4353
  184SOL     hw  734   1.271   1.408   5.790 -0.1477  0.3873 -2.0321
  184SOL     hw  735   1.211   1.508   5.887  1.4140 -1.4040  0.9108
  184SOL     vw  736   1.241   1.488   5.808 -0.0502  0.0020 -0.0002
  185SOL     ow  737   1.028   0.892   3.548  0.2757 -0.1865  0.1351
  185SOL     hw  738   1.094   0.865   3.485 -1.3558 -1.2635 -1.2082
  185SOL     hw  739   0.947   0.899   3.497 -0.9641 -0.3329  1.9712
  185SOL     vw  740   1.026   0.890   3.533 -0.0212 -0.0208  0.0120
  186SOL     ow  741   0.313   0.683   6.555 -0.3002 -0.1745 -0.4407
  186SOL     hw  742   0.314   0.775   6.532  0.5173 -0.0681 -0.0302
  186SOL     hw  743   0.241   0.675   6.619  1.2020  0.7008  1.4671
  186SOL     vw  744   0.303   0.694   6.561 -0.0256  0.0212 -0.0393
  187SOL     ow  745   0.172   0.121   6.562 -0.0212  0.1606  0.3647
  187SOL     hw  746   0.242   0.141   6.624  1.2937 -1.2105 -0.6245
  187SOL     hw  747   0.217   0.102   6.480 -1.6877  1.1725 -0.8447
  187SOL     vw  748   0.187   0.121   6.559  0.0246 -0.0049  0.0036
  188SOL     ow  749   2.483   0.998   6.499 -0.5484 -0.0964  0.3548
  188SOL     hw  750   2.449   1.071   6.551  0.1438  0.8849 -0.5470
  188SOL     hw  751   2.424   0.925   6.520 -2.1051  1.0714  0.2246
  188SOL     vw  752   2.471   0.998   6.509 -0.0118 -0.0000 -0.0422
  189SOL     ow  753   0.778   0.300   4.393  0.0160 -0.3034 -0.0092
  189SOL     hw  754   0.867   0.331   4.378  0.9387 -1.9932  1.6164
  189SOL     hw  755   0.767   0.229   4.330  0.6190 -1.4839  1.1846
  189SOL     vw  756   0.788   0.295   4.382 -0.0420 -0.0031  0.0031
  190SOL     ow  757   0.244   1.125   2.063 -0.1681 -0.0507 -0.0575
  190SOL     hw  758   0.233   1.149   1.971  0.1097  2.0334  0.4005
  190SOL     hw  759   0.254   1.209   2.108  2.5324 -1.0993  1.5165
  190SOL     vw  760   0.244   1.140   2.057  0.0073  0.0394 -0.0030
  191SOL     ow  761   0.382   2.212   2.560 -0.2710 -0.1241  0.0543
  191SOL     hw  762   0.454   2.271   2.540  0.4332 -0.8820  0.2981
  191SOL     hw  763   0.334   2.205   2.477  0.8937 -0.8964 -0.5812
  191SOL     vw  764   0.385   2.219   2.546  0.0971 -0.0446 -0.0459
  192SOL     ow  765   0.959   0.341   6.445  0.0490  0.0673  0.6418
  192SOL     hw  766   0.970   0.248   6.466 -1.7344  0.4008  3.5478
  192SOL     hw  767   0.910   0.340   6.362  1.1958 -1.5122 -0.0750
  192SOL     vw  768   0.954   0.328   6.436 -0.0038  0.0211 -0.0083
  193SOL     ow  769   1.514   2.382   1.042 -0.4315  0.1653  0.4764
  193SOL     hw  770   1.442   2.444   1.050 -0.8552 -0.3037  0.3232
  193SOL     hw  771   1.479   2.310   0.989 -0.3523 -0.8091  1.6991
  193SOL     vw  772   1.500   2.381   1.036  0.1036  0.0093 -0.0345
  194SOL     ow  773   0.918   0.085   2.975 -0.5604  0.9277  0.6099
  194SOL     hw  774   0.829   0.095   2.940 -0.2342  1.5923 -0.0779
  194SOL     hw  775   0.918  -0.001   3.018 -1.1689  0.3460 -0.5067
  194SOL     vw  776   0.906   0.075   2.976  0.0151  0.0259  0.0542
  195SOL     ow  777   0.563   0.519   4.264 -0.3875 -0.1648  0.4192
  195SOL     hw  778   0.636   0.555   4.213  0.0046 -0.3401  0.8484
  195SOL     hw  779   0.489   0.576   4.243  0.1376  0.6921  0.8121
  195SOL     vw  780   0.563   0.531   4.255 -0.0600  0.0394  0.0458
  196SOL     ow  781   1.479   1.053   2.883 -0.3544 -0.6071  0.6230
  196SOL     hw  782   1.556   1.051   2.826  0.0545 -1.7034  1.2069
  196SOL     hw  783   1.410   1.088   2.826  0.4709  0.0846 -0.0002
  196SOL     vw  784   1.480   1.058   2.868 -0.0141  0.0874 -0.0221
  197SOL     ow  785   1.714   1.225   4.636  0.0543  0.2821 -0.4694
  197SOL     hw  786   1.626   1.243   4.668 -0.6773  0.5702 -2.4772
  197SOL     hw  787   1.728   1.132   4.655 -1.8276 -0.5061 -2.5032
  197SOL     vw  788   1.704   1.215   4.643  0.0128  0.0567 -0.0556
  198SOL     ow  789   2.193   2.287   2.623  0.2265 -0.4587  0.0120
  198SOL     hw  790   2.263   2.337   2.664  0.6864 -0.2699 -0.9778
  198SOL     hw  791   2.237   2.233   2.557 -0.1585 -2.6478  1.4145
  198SOL     vw  792   2.208   2.286   2.620  0.0131 -0.0306  0.0879
  199SOL     ow  793   2.433   0.083   6.368  0.8751  0.4354 -0.5709
  199SOL     hw  794   2.446  -0.010   6.352 -1.6297 -0.6051  2.4919
  199SOL     hw  795   2.419   0.120   6.281 -2.3070 -2.8607 -1.7192
  199SOL     vw  796   2.433   0.076   6.354 -0.1091  0.0078  0.0541
  200SOL     ow  797   0.879   1.059   5.738  0.1717  0.0834 -0.1252
  200SOL     hw  798   0.906   1.044   5.828 -0.0982 -0.4292 -0.1265
  200SOL     hw  799   0.803   1.117   5.744 -2.2959 -2.9576  0.2467
  200SOL     vw  800   0.872   1.065   5.751  0.1381 -0.0068  0.0250
  201SOL     ow  801   1.122   1.151   5.986  0.7091  0.5242  0.2298
  201SOL     hw  802   1.201   1.156   5.932  1.7507 -1.0011  1.5412
  201SOL     hw  803   1.130   1.069   6.034 -2.1752 -0.1892 -0.3087
  201SOL     vw  804   1.134   1.141   5.985 -0.0626  0.0630 -0.1025
  202SOL     ow  805   0.722   0.044   5.476  0.0192  0.3766 -0.5775
  202SOL     hw  806   0.644   0.047   5.531 -1.0495  2.0301 -2.0496
  202SOL     hw  807   0.780  -0.019   5.519 -3.5183 -3.8529 -1.3016
  202SOL     vw  808   0.720   0.036   5.489 -0.0692  0.0533 -0.0594
  203SOL     ow  809   0.879   0.579   0.121 -0.1660  0.4189  0.2461
  203SOL     hw  810   0.887   0.486   0.102  0.3267  1.0749 -3.4701
  203SOL     hw  811   0.959   0.601   0.169  0.3123 -0.8475  0.0609
  203SOL     vw  812   0.891   0.570   0.125 -0.0285  0.0592 -0.0786
  204SOL     ow  813   1.331   1.730   5.155 -0.4173  0.1217  0.3446
  204SOL     hw  814   1.280   1.649   5.157  3.0677 -2.2228  1.3809
  204SOL     hw  815   1.317   1.769   5.242 -1.9305  0.6381 -0.0859
  204SOL     vw  816   1.322   1.725   5.167 -0.0124  0.0263 -0.0503
  205SOL     ow  817   0.783   0.778   6.422  0.9966  0.4408  0.4658
  205SOL     hw  818   0.849   0.845   6.405  2.1302 -0.8386 -0.4751
  205SOL     hw  819   0.713   0.796   6.359  2.4579 -0.6991 -1.6226
  205SOL     vw  820   0.783   0.789   6.412  0.0462 -0.0734  0.0167
  206SOL     ow  821   0.679   0.401   6.829 -0.8793  0.4219  0.0974
  206SOL     hw  822   0.688   0.316   6.784  2.3972  0.2947  0.7079
  206SOL     hw  823   0.663   0.463   6.758  0.0623 -0.3222 -0.8186
  206SOL     vw  824   0.678   0.398   6.813 -0.0551 -0.0097  0.0427
  207SOL     ow  825   2.009   1.135   2.947  0.0313 -0.4669 -0.0329
  207SOL     hw  826   1.973   1.222   2.966  0.4632 -0.5598  1.3718
  207SOL     hw  827   1.938   1.074   2.970  1.0626 -0.6764  3.1638
  207SOL     vw  828   1.995   1.138   2.953  0.0463  0.0173 -0.0178
  208SOL     ow  829   1.153   1.145   2.944 -0.4067  0.2015 -0.0519
  208SOL     hw  830   1.070   1.193   2.945 -1.4276 -1.3853 -1.7256
  208SOL     hw  831   1.204   1.189   2.875 -1.1276 -0.6864 -1.2005
  208SOL     vw  832   1.149   1.157   2.935  0.0049 -0.0313 -0.0122
  209SOL     ow  833   0.141   1.828   3.121 -0.6780  0.7013  1.0587
  209SOL     hw  834   0.137   1.747   3.070 -0.3138  1.4964 -0.2709
  209SOL     hw  835   0.235   1.841   3.137 -0.8754 -0.9117  4.2688
  209SOL     vw  836   0.153   1.819   3.116  0.0035  0.0382 -0.0565
  210SOL     ow  837   0.116   0.133   0.200 -0.4770  0.1751 -0.1125
  210SOL     hw  838   0.174   0.153   0.273 -1.6760  5.0078 -0.1252
  210SOL     hw  839   0.167   0.074   0.144  2.3911  0.2381  2.2061
  210SOL     vw  840   0.131   0.128   0.202 -0.0239 -0.0476  0.0119
  211SOL     ow  841   1.483   1.439   5.539 -0.4992 -0.7671  0.0412
  211SOL     hw  842   1.548   1.391   5.590  0.7837  0.8093 -0.0519
  211SOL     hw  843   1.531   1.474   5.465 -1.8583 -1.0765 -1.0437
  211SOL     vw  844   1.498   1.437   5.536  0.0412  0.0521  0.0432
  212SOL     ow  845   0.844  -0.003   6.331  0.1102 -0.3892 -0.7929
  212SOL     hw  846   0.830  -0.094   6.357  3.1080 -0.9228 -0.6751
  212SOL     hw  847   0.917   0.027   6.386  0.2389  1.5709 -1.9396
  212SOL     vw  848   0.852  -0.011   6.342  0.0224  0.0045 -0.0417
  213SOL     ow  849   2.281   1.248   3.905 -0.4927  0.1163 -0.1090
  213SOL     hw  850   2.345   1.299   3.955  1.3113 -1.3649 -0.8001
  213SOL     hw  851   2.259   1.304   3.830 -0.8433  1.0764  0.7019
  213SOL     vw  852   2.286   1.262   3.901 -0.0198 -0.0015  0.0094
  214SOL     ow  853   0.935  -0.023   5.834  0.1755  0.0244  0.3010
  214SOL     hw  854   1.016   0.026   5.851  1.9511 -2.5466 -0.0674
  214SOL     hw  855   0.964  -0.100   5.785 -2.2346 -1.9291  1.6956
  214SOL     vw  856   0.950  -0.027   5.830 -0.0576 -0.0008  0.0556
  215SOL     ow  857   0.333   1.881   6.188 -0.1257  0.7668  0.1184
  215SOL     hw  858   0.291   1.929   6.260  0.8471 -1.4743  2.3328
  215SOL     hw  859   0.404   1.938   6.160  0.7500  0.9133  2.3985
  215SOL     vw  860   0.336   1.895   6.194 -0.0214 -0.0510 -0.0441
  216SOL     ow  861   1.434   1.096   0.703  0.7461 -0.4032  0.5628
  216SOL     hw  862   1.523   1.069   0.725  0.5113 -0.9572  0.8463
  216SOL     hw  863   1.393   1.018   0.667  1.9094  0.9839 -4.6558
  216SOL     vw  864   1.440   1.082   0.701  0.0201  0.0394  0.0337
  217SOL     ow  865   2.315   2.349   4.172 -0.2192  0.2337 -0.1308
  217SOL     hw  866   2.373   2.375   4.244 -1.3239  0.7014  0.6113
  217SOL     hw  867   2.242   2.305   4.215  0.5185 -2.1735 -1.2096
  217SOL     vw  868   2.313   2.347   4.187 -0.0018  0.0312 -0.0024
  218SOL     ow  869   2.110   0.697   3.564 -0.0866  0.5325 -0.5853
  218SOL     hw  870   2.113   0.768   3.500 -1.2167  2.3655  1.2549
  218SOL     hw  871   2.017   0.689   3.587  0.3516  0.5159  1.3862
  218SOL     vw  872   2.098   0.705   3.559 -0.0204 -0.0378 -0.0193
  219SOL     ow  873   2.005   0.631   2.763 -0.4808 -0.5054 -0.7921
  219SOL     hw  874   2.042   0.569   2.825  0.0209  0.8579  0.3199
  219SOL     hw  875   1.979   0.577   2.688  2.0700 -1.7867 -0.8851
  219SOL     vw  876   2.007   0.616   2.761  0.0149 -0.0137  0.0226
  220SOL     ow  877   0.439   1.113   6.515  0.0719  0.4837 -0.1665
  220SOL     hw  878   0.399   1.197   6.494  0.9788  0.5254 -1.8385
  220SOL     hw  879   0.532   1.124   6.492  1.2610  0.4729  3.7487
  220SOL     vw  880   0.446   1.126   6.509 -0.1029 -0.0337 -0.0136
  221SOL     ow  881   0.647   1.130   6.367 -0.4861 -0.1373  0.5062
  221SOL     hw  882   0.612   1.178   6.292 -0.8374  0.1495  0.8512
  221SOL     hw  883   0.738   1.159   6.373 -1.2293  2.1609  2.0036
  221SOL     vw  884   0.655   1.140   6.358  0.0417 -0.0928 -0.0768
  222SOL     ow  885   2.346   0.628   0.179  0.0205 -0.2095  0.1129
  222SOL     hw  886   2.354   0.707   0.126  0.2867 -0.0704  0.3605
  222SOL     hw  887   2.361   0.657   0.269  1.8705 -0.8051  0.0484
  222SOL     vw  888   2.349   0.642   0.184  0.0031  0.0225  0.0653
  223SOL     ow  889   1.536   0.126   3.571 -0.2690 -0.3406  0.2577
  223SOL     hw  890   1.616   0.177   3.585  0.2368 -1.2596  0.7972
  223SOL     hw  891   1.515   0.139   3.479  0.1878  0.3530  0.2416
  223SOL     vw  892   1.544   0.135   3.561 -0.0137  0.0061  0.0398
  224SOL     ow  893   2.390   0.713   6.840 -0.7249  0.2258  0.0410
  224SOL     hw  894   2.330   0.645   6.872  1.2281 -1.5296  0.2299
  224SOL     hw  895   2.402   0.771   6.915 -1.6076  0.1812  0.2312
  224SOL     vw  896   2.384   0.711   6.854 -0.0415  0.0276 -0.0441
  225SOL     ow  897   1.647   1.543   5.347 -0.2063 -0.3302 -0.2615
  225SOL     hw  898   1.712   1.490   5.301  0.0796  1.4233 -2.0045
  225SOL     hw  899   1.695   1.619   5.379 -0.4857 -1.2489  2.7254
  225SOL     vw  900   1.662   1.546   5.345  0.0060 -0.0203  0.1538
  226SOL     ow  901   0.523   1.546   5.523  0.4336  0.3654  0.2590
  226SOL     hw  902   0.537   1.454   5.546  3.2063  0.4914 -0.5276
  226SOL     hw  903   0.575   1.595   5.587  0.4289  1.2653 -0.4033
  226SOL     vw  904   0.532   1.541   5.535  0.0567  0.0035 -0.0541
  227SOL     ow  905   2.053   0.527   1.809 -0.2199 -0.1995 -0.2766
  227SOL     hw  906   2.131   0.508   1.861 -2.3968  0.1353  3.4178
  227SOL     hw  907   2.020   0.441   1.783 -1.0368 -0.6855  2.1306
  227SOL     vw  908   2.059   0.513   1.812 -0.0190  0.0525 -0.0809
  228SOL     ow  909   0.300   0.565   6.884 -0.0310 -0.4355 -0.3985
  228SOL     hw  910   0.389   0.532   6.897  0.1847 -0.1305 -1.0425
  228SOL     hw  911   0.284   0.623   6.958  0.0787 -0.9538  0.0372
  228SOL     vw  912   0.309   0.568   6.896 -0.0442 -0.0161  0.0212
  229SOL     ow  913   2.298   0.135   4.015  0.9124 -0.1938  0.5198
  229SOL     hw  914   2.385   0.110   3.983  0.1315 -2.8466  0.2493
  229SOL     hw  915   2.311   0.222   4.053  3.6520 -0.4509  0.3859
  229SOL     vw  916   2.311   0.143   4.016  0.0199  0.0291 -0.0775
  230SOL     ow  917   2.374   1.686   1.234  0.4830  0.9142  0.3017
  230SOL     hw  918   2.359   1.645   1.320  1.5794 -0.1441  0.0258
  230SOL     hw  919   2.431   1.624   1.188 -1.1395  0.8138 -1.7003
  230SOL     vw  920   2.380   1.672   1.240  0.0530  0.0054 -0.0398
  231SOL     ow  921   0.889   1.292   6.061  0.1177  0.3034  0.3583
  231SOL     hw  922   0.967   1.250   6.023 -1.6996 -2.0256 -1.0524
  231SOL     hw  923   0.849   1.338   5.988 -1.2947 -0.9012  0.3307
  231SOL     vw  924   0.894   1.292   6.047  0.0017 -0.0759 -0.0305
  232SOL     ow  925   0.938   0.233   2.293  0.3285  0.0075 -0.9950
  232SOL     hw  926   0.954   0.327   2.290 -1.2136  0.4444  1.5540
  232SOL     hw  927   0.866   0.218   2.232 -2.9660  1.4762  2.2037
  232SOL     vw  928   0.931   0.244   2.285  0.0316  0.0139  0.0945
  233SOL     ow  929   0.294   0.988   1.674  0.7270 -0.1090  0.3909
  233SOL     hw  930   0.207   0.974   1.711  1.1793 -0.0463  1.5335
  233SOL     hw  931   0.292   0.941   1.590  0.0893 -1.4380  1.1109
  233SOL     vw  932   0.282   0.980   1.668  0.0481  0.0820  0.0102
  234SOL     ow  933   0.393   2.081   4.481 -1.2207  0.0700  0.4017
  234SOL     hw  934   0.452   2.120   4.546 -1.9914 -0.2889  1.3340
  234SOL     hw  935   0.335   2.025   4.532 -1.8582 -0.2041 -0.6060
  234SOL     vw  936   0.393   2.079   4.496 -0.0151  0.0088 -0.0191
  235SOL     ow  937   1.164   0.430   1.309 -0.0684  0.0680 -0.0039
  235SOL     hw  938   1.248   0.457   1.346  0.4810 -2.3399  0.7486
  235SOL     hw  939   1.174   0.440   1.215 -0.1624  2.8654  0.2104
  235SOL     vw  940   1.176   0.435   1.302  0.0080  0.0273  0.1079
  236SOL     ow  941   1.203   2.523   3.382  0.2677  0.3226  0.0614
  236SOL     hw  942   1.253   2.603   3.367  1.3031 -0.5088 -1.1559
  236SOL     hw  943   1.176   2.495   3.294  0.6811 -1.1269  0.3702
  236SOL     vw  944   1.206   2.530   3.368 -0.0281  0.0103  0.0279
  237SOL     ow  945   1.488   1.619   6.471 -0.5056 -0.0300 -0.4014
  237SOL     hw  946   1.520   1.570   6.547 -2.4913  1.6524  1.6689
  237SOL     hw  947   1.416   1.566   6.436 -1.4080  0.4282  0.6753
  237SOL     vw  948   1.483   1.605   6.477 -0.0058 -0.0189  0.0012
  238SOL     ow  949   2.150   1.176   4.198 -0.4050 -0.6400 -0.0346
  238SOL     hw  950   2.119   1.096   4.239  2.7317 -2.8132 -1.5441
  238SOL     hw  951   2.204   1.218   4.265 -0.9324 -0.4855  0.3000
  238SOL     vw  952   2.153   1.171   4.213 -0.0818  0.0686  0.0694
  239SOL     ow  953   0.168   1.442   5.721 -0.1457  0.3219 -0.4910
  239SOL     hw  954   0.180   1.478   5.809  0.6137  0.0749 -0.4899
  239SOL     hw  955   0.188   1.515   5.662 -1.9424  0.8869 -0.4733
  239SOL     vw  956   0.172   1.457   5.725  0.0063 -0.0191 -0.0114
  240SOL     ow  957   0.480   0.329   1.072  0.2537 -0.2872 -0.5854
  240SOL     hw  958   0.438   0.392   1.012 -1.4832 -1.8693 -1.1095
  240SOL     hw  959   0.563   0.307   1.028 -0.3436 -0.3612 -1.7278
  240SOL     vw  960   0.486   0.335   1.058 -0.0128 -0.0083  0.0171
  241SOL     ow  961   2.493   1.726   0.501  0.2510 -0.0933 -0.4166
  241SOL     hw  962   2.581   1.695   0.480 -0.2184 -1.2070 -0.7638
  241SOL     hw  963   2.492   1.733   0.597  0.2964 -1.3843 -0.3103
  241SOL     vw  964   2.504   1.723   0.511  0.0240  0.0288 -0.0342
  242SOL     ow  965   0.848   0.061   4.226  0.0587 -0.2330 -0.3445
  242SOL     hw  966   0.833   0.072   4.132  0.4546  2.7894 -0.1657
  242SOL     hw  967   0.944   0.057   4.234  0.0285 -0.4027 -0.0653
  242SOL     vw  968   0.859   0.062   4.215  0.0255  0.0949  0.0563
  243SOL     ow  969   0.744   0.913   4.843 -0.0069  0.0439  0.0349
  243SOL     hw  970   0.728   1.003   4.814 -1.5224  1.2263  3.9058
  243SOL     hw  971   0.670   0.863   4.810  2.0279 -0.5561 -4.2298
  243SOL     vw  972   0.732   0.918   4.835 -0.0032  0.0222  0.0365
  244SOL     ow  973   0.542   1.414   4.591 -0.2458 -0.1938 -0.6973
  244SOL     hw  974   0.585   1.328   4.595  1.5980  0.5851 -2.2965
  244SOL     hw  975   0.470   1.401   4.529  0.6983 -0.3437 -1.7916
  244SOL     vw  976   0.538   1.401   4.584  0.0597  0.0288 -0.0474
  245SOL     ow  977   1.641   2.061   6.892 -0.2677 -0.0415 -0.3357
  245SOL     hw  978   1.732   2.089   6.895  0.9643 -3.4888 -0.9304
  245SOL     hw  979   1.607   2.081   6.979  1.1374  1.0343 -0.0028
  245SOL     vw  980   1.648   2.067   6.904 -0.0347 -0.0632 -0.0296
  246SOL     ow  981   0.258   0.063   4.762  0.0785 -0.2772 -0.1320
  246SOL     hw  982   0.267   0.123   4.836  1.4679  0.6614 -0.9996
  246SOL     hw  983   0.211   0.114   4.696  2.3941  0.4472 -1.3634
  246SOL     vw  984   0.253   0.078   4.763 -0.0140 -0.0218  0.0403
  247SOL     ow  985   1.117   0.506   6.573 -0.4360 -0.0161  0.1689
  247SOL     hw  986   1.126   0.581   6.515 -2.6217  1.4140  1.5318
  247SOL     hw  987   1.068   0.442   6.522  1.3188 -0.5353 -0.9536
  247SOL     vw  988   1.112   0.508   6.559 -0.0134  0.0265  0.0033
  248SOL     ow  989   0.837   1.577   4.537  0.0471 -0.4176 -0.2545
  248SOL     hw  990   0.845   1.542   4.448  0.6978 -1.0683  0.0521
  248SOL     hw  991   0.899   1.651   4.539  0.1173 -0.4743 -0.3070
  248SOL     vw  992   0.846   1.582   4.525 -0.0270 -0.0097  0.0231
  249SOL     ow  993   1.790   2.460   3.495  0.3756 -0.8870  0.3409
  249SOL     hw  994   1.827   2.402   3.562  1.1910 -1.9884 -0.9901
  249SOL     hw  995   1.864   2.478   3.436  0.0055  1.1262  0.4338
  249SOL     vw  996   1.805   2.455   3.496  0.0408  0.0215 -0.0253
  250SOL     ow  997   2.359   1.349   3.220 -1.0060 -0.4159 -0.6800
  250SOL     hw  998   2.313   1.400   3.153 -1.8622 -0.5830 -0.2392
  250SOL     hw  999   2.317   1.375   3.302  0.4739  0.2807 -0.1171
  250SOL     vw 1000   2.347   1.359   3.222  0.0069  0.0578 -0.0093
  251SOL     ow 1001   0.637   1.201   6.103  0.3166  0.6701 -0.6965
  251SOL     hw 1002   0.725   1.234   6.090  0.0091  1.0392 -1.9579
  251SOL     hw 1003   0.619   1.148   6.025  0.3303 -1.4863  0.6798
  251SOL     vw 1004   0.646   1.198   6.091 -0.0100 -0.0708  0.0176
  252SOL     ow 1005   1.009   1.470   1.868  0.1838 -0.4239  0.4541
  252SOL     hw 1006   1.026   1.444   1.958 -0.1132  0.1538  0.6876
  252SOL     hw 1007   0.914   1.484   1.864  0.3739  1.0934  0.4995
  252SOL     vw 1008   0.998   1.469   1.879  0.1182 -0.0140 -0.0100
  253SOL     ow 1009   1.337   0.493   5.433  0.3394  0.3993  0.0498
  253SOL     hw 1010   1.366   0.428   5.369 -0.2399 -0.0758  0.2611
  253SOL     hw 1011   1.394   0.569   5.418  1.6835 -0.4890  0.4312
  253SOL     vw 1012   1.348   0.495   5.423 -0.0096 -0.0856  0.0496
  254SOL     ow 1013   1.297   0.074   1.311 -0.3613  0.0592  0.1391
  254SOL     hw 1014   1.255   0.159   1.326  1.6075  0.9956  0.6575
  254SOL     hw 1015   1.386   0.085   1.345 -0.0104 -2.1776  0.0752
  254SOL     vw 1016   1.303   0.087   1.317 -0.0545 -0.0417  0.0246
  255SOL     ow 1017   0.298   0.278   4.959 -0.1863 -0.2815  0.1922
  255SOL     hw 1018   0.212   0.311   4.985 -0.3069 -2.3656  2.9047
  255SOL     hw 1019   0.340   0.351   4.913 -2.4950  1.5690  0.8654
  255SOL     vw 1020   0.292   0.292   4.956  0.0525 -0.0159  0.0558
  256SOL     ow 1021   2.056   1.725   1.169  0.2718 -0.2960 -0.1537
  256SOL     hw 1022   1.962   1.705   1.174  0.7991 -3.0233  1.9355
  256SOL     hw 1023   2.064   1.812   1.207 -1.4779  0.4397 -1.3465
  256SOL     vw 1024   2.044   1.734   1.175  0.0867 -0.0309  0.0694
  257SOL     ow 1025   0.641   0.124   6.475  0.3411  0.1065  0.0534
  257SOL     hw 1026   0.702   0.078   6.417  1.2650  0.9432  0.3308
  257SOL     hw 1027   0.555   0.090   6.451  0.8007 -0.2741 -1.1462
  257SOL     vw 1028   0.638   0.114   6.464  0.0233 -0.0051  0.0067
  258SOL     ow 1029   2.213   0.400   3.605  0.6128  0.1953  0.4722
  258SOL     hw 1030   2.127   0.387   3.566  1.0043 -0.5954 -0.1806
  258SOL     hw 1031   2.240   0.312   3.633  1.0589  0.4884  0.9864
  258SOL     vw 1032   2.206   0.386   3.603 -0.0196  0.0258  0.0492
  259SOL     ow 1033   0.587   0.131   6.745  0.5317 -0.7331  0.2754
  259SOL     hw 1034   0.602   0.123   6.651 -0.9674 -0.0070 -0.0595
  259SOL     hw 1035   0.496   0.160   6.752  0.7928 -0.2169  1.9247
  259SOL     vw 1036   0.577   0.134   6.733  0.0684  0.0506 -0.0327
  260SOL     ow 1037   0.015   0.952   0.260 -0.3885  0.3396  0.1050
  260SOL     hw 1038   0.019   0.897   0.338 -0.5162  2.3925  1.6487
  260SOL     hw 1039   0.078   1.022   0.277  0.5426  0.1652 -2.2482
  260SOL     vw 1040   0.023   0.954   0.272 -0.0168  0.0270  0.0222
  261SOL     ow 1041   0.859   2.335   2.222  0.7195 -0.4303 -0.9858
  261SOL     hw 1042   0.821   2.267   2.166  0.6683 -1.6258  0.4454
  261SOL     hw 1043   0.884   2.289   2.302 -1.6666  1.6465  1.1178
  261SOL     vw 1044   0.857   2.320   2.225  0.0682  0.0459 -0.0508
  262SOL     ow 1045   1.327   0.261   3.331 -0.5431 -0.3119 -0.3405
  262SOL     hw 1046   1.323   0.244   3.237  0.2062  2.7681 -1.0341
  262SOL     hw 1047   1.295   0.350   3.340  0.7695 -0.0282  2.1650
  262SOL     vw 1048   1.322   0.270   3.320  0.0313 -0.0071 -0.0011
  263SOL     ow 1049   0.093   1.763   3.366  0.5031  0.7440  0.9608
  263SOL     hw 1050   0.008   1.722   3.378  1.0943 -0.6092  0.8206
  263SOL     hw 1051   0.098   1.782   3.272  1.4805 -1.9879  0.3504
  263SOL     vw 1052   0.083   1.760   3.355  0.0308  0.0092  0.0759
  264SOL     ow 1053   1.690   0.090   6.824 -0.1207  0.0883  0.0109
  264SOL     hw 1054   1.595   0.084   6.834 -0.3513  1.2714 -1.1808
  264SOL     hw 1055   1.702   0.151   6.752  1.5720  1.4096  1.3300
  264SOL     vw 1056   1.679   0.097   6.816  0.0370  0.0045 -0.0119
  265SOL     ow 1057   1.029   0.096   6.511  0.0130  0.4716 -0.3081
  265SOL     hw 1058   1.019   0.078   6.605  0.7783 -2.9327 -0.7270
  265SOL     hw 1059   1.120   0.124   6.502  0.2546 -0.2162 -0.1082
  265SOL     vw 1060   1.040   0.097   6.522 -0.0279 -0.0244 -0.0074
  266SOL     ow 1061   2.178   1.615   5.976 -0.0414 -0.2661 -0.0320
  266SOL     hw 1062   2.144   1.701   6.001 -0.0747 -0.5199  0.8480
  266SOL     hw 1063   2.103   1.556   5.986  0.0144 -0.4193 -0.5082
  266SOL     vw 1064   2.164   1.618   5.981 -0.0514 -0.0071 -0.0031
  267SOL     ow 1065   1.021   0.736   4.944  0.3764 -0.4489 -0.6002
  267SOL     hw 1066   0.958   0.807   4.933  0.6356  0.8045  3.9156
  267SOL     hw 1067   1.106   0.777   4.930  0.4238 -0.9763 -2.0225
  267SOL     vw 1068   1.024   0.750   4.941  0.0002 -0.0194 -0.0021
  268SOL     ow 1069   0.222   0.205   5.549 -0.1413 -0.4692  0.0769
  268SOL     hw 1070   0.311   0.179   5.526 -0.2289 -1.7334  1.0538
  268SOL     hw 1071   0.213   0.294   5.514  1.6052 -0.1865  0.2592
  268SOL     vw 1072   0.232   0.214   5.541 -0.0092 -0.0624  0.0057
  269SOL     ow 1073   0.514   0.221   4.298 -0.0273  0.3429 -0.2066
  269SOL     hw 1074   0.423   0.223   4.327  0.3067 -1.1413  1.0726
  269SOL     hw 1075   0.510   0.229   4.203 -1.6518 -1.6985 -0.3761
  269SOL     vw 1076   0.502   0.222   4.289 -0.0062  0.0399 -0.0272
  270SOL     ow 1077   0.688   1.449   0.436 -0.0299 -0.1297 -0.0480
  270SOL     hw 1078   0.694   1.501   0.517 -0.1636  1.2266 -0.8854
  270SOL     hw 1079   0.610   1.395   0.448 -0.4297  0.5416  0.4558
  270SOL     vw 1080   0.679   1.449   0.448 -0.0086  0.0372 -0.0373
  271SOL     ow 1081   2.303   0.606   3.828 -0.1693  0.0013  0.4677
  271SOL     hw 1082   2.388   0.632   3.863  1.1892 -0.7584 -1.9637
  271SOL     hw 1083   2.286   0.520   3.868 -0.3024  0.5888  1.7065
  271SOL     vw 1084   2.312   0.598   3.838 -0.0061  0.0165 -0.0299
  272SOL     ow 1085   0.875   2.290   4.307 -0.6239  0.3204 -0.0907
  272SOL     hw 1086   0.861   2.384   4.291  0.5839  1.1731  3.0002
  272SOL     hw 1087   0.900   2.255   4.221  1.8372  3.4692 -0.8961
  272SOL     vw 1088   0.876   2.298   4.293  0.0119 -0.0112  0.0305
  273SOL     ow 1089   1.258   1.829   4.880 -0.1588 -0.4480 -0.0528
  273SOL     hw 1090   1.215   1.752   4.842 -1.7984 -0.5779  1.9024
  273SOL     hw 1091   1.287   1.800   4.966  2.1095  0.2618 -0.5103
  273SOL     vw 1092   1.257   1.815   4.886 -0.0369  0.0298  0.0541
  274SOL     ow 1093   1.954   0.359   3.517  0.2993 -0.3448  0.3971
  274SOL     hw 1094   1.914   0.445   3.530  0.7013  0.3202 -2.1444
  274SOL     hw 1095   1.964   0.352   3.422  2.6017 -2.1374  0.6973
  274SOL     vw 1096   1.950   0.370   3.506 -0.0196  0.0100  0.0454
  275SOL     ow 1097   0.991   1.361   3.567 -0.4633  0.4745 -0.4178
  275SOL     hw 1098   1.054   1.422   3.604 -0.5767 -0.3653  1.2617
  275SOL     hw 1099   0.906   1.390   3.600 -0.5669 -0.3301  0.0503
  275SOL     vw 1100   0.988   1.373   3.576  0.0064  0.0045 -0.0502
  276SOL     ow 1101   0.834   0.091   1.154 -0.3177  0.4776 -0.5412
  276SOL     hw 1102   0.892   0.154   1.197 -0.4915  0.8954 -0.9125
  276SOL     hw 1103   0.792   0.141   1.085  0.0507 -0.2190 -1.2868
  276SOL     vw 1104   0.836   0.106   1.151  0.0811 -0.0979 -0.0010
  277SOL     ow 1105   1.611   1.873   2.662  0.6303  0.8273 -0.1515
  277SOL     hw 1106   1.585   1.963   2.684 -0.4211  0.4916  0.0506
  277SOL     hw 1107   1.535   1.837   2.616  0.6023 -0.3126  0.7540
  277SOL     vw 1108   1.597   1.880   2.659 -0.0212  0.0003  0.0229
  278SOL     ow 1109   1.257   0.733   3.313  0.0682 -0.2098  0.5657
  278SOL     hw 1110   1.335   0.699   3.358  0.6315  0.2396 -0.0619
  278SOL     hw 1111   1.219   0.656   3.271  2.9638  0.1508 -3.3574
  278SOL     vw 1112   1.262   0.718   3.313  0.0026  0.0762  0.0148
  279SOL     ow 1113   1.524   2.150   3.752 -0.0947  0.3655 -0.7597
  279SOL     hw 1114   1.446   2.096   3.764 -0.2125  0.9365  1.7119
  279SOL     hw 1115   1.533   2.197   3.835  2.5819  0.7387 -1.1701
  279SOL     vw 1116   1.515   2.149   3.764  0.0155 -0.0621  0.0056
  280SOL     ow 1117   0.407   1.270   5.815  0.1407  0.1022 -1.0552
  280SOL     hw 1118   0.434   1.192   5.864 -2.0991  0.4054  0.8595
  280SOL     hw 1119   0.423   1.342   5.875  2.5093  1.2489 -2.9299
  280SOL     vw 1120   0.412   1.269   5.830  0.0138 -0.0376 -0.0710
  281SOL     ow 1121   0.052   0.371   6.526 -0.1094 -0.0998 -0.4309
  281SOL     hw 1122   0.006   0.432   6.583 -0.9424 -4.0005  3.6716
  281SOL     hw 1123   0.145   0.389   6.541 -0.3162  1.0747 -0.4872
  281SOL     vw 1124   0.058   0.381   6.536  0.0194 -0.0846 -0.0741
  282SOL     ow 1125   0.809   1.030   5.224  0.4316 -0.1355  0.4268
  282SOL     hw 1126   0.846   1.047   5.137  1.5730 -1.4819  0.6263
  282SOL     hw 1127   0.779   0.939   5.219 -2.4159  0.7094  0.4608
  282SOL     vw 1128   0.810   1.020   5.212  0.0593  0.0014  0.0169
  283SOL     ow 1129   0.823   0.294   5.204 -0.0690 -0.2738 -0.5220
  283SOL     hw 1130   0.875   0.346   5.143  2.1469 -0.2198  1.2556
  283SOL     hw 1131   0.751   0.351   5.229  1.9444  1.8338  0.9005
  283SOL     vw 1132   0.820   0.308   5.199  0.0865  0.0353  0.0656
  284SOL     ow 1133   1.766   0.248   0.540  0.5521  0.2902  0.4289
  284SOL     hw 1134   1.854   0.262   0.575  2.0225 -2.8166 -1.6202
  284SOL     hw 1135   1.720   0.198   0.607  1.5206 -0.9482  0.1997
  284SOL     vw 1136   1.772   0.243   0.553 -0.0235  0.0837  0.0213
  285SOL     ow 1137   2.423   0.183   2.774  0.4970 -0.7543  0.1386
  285SOL     hw 1138   2.493   0.242   2.804  0.7900 -1.3638  0.6768
  285SOL     hw 1139   2.343   0.219   2.813  0.5394 -0.2162 -0.2490
  285SOL     vw 1140   2.422   0.196   2.783  0.0013  0.0082 -0.0250
  286SOL     ow 1141   2.137   2.369   2.059 -0.3629 -0.1534  0.0052
  286SOL     hw 1142   2.149   2.394   2.150 -2.8090  2.0808 -0.1674
  286SOL     hw 1143   2.181   2.439   2.009 -0.8987 -0.1837 -0.5143
  286SOL     vw 1144   2.145   2.382   2.064 -0.0101  0.0026 -0.0107
  287SOL     ow 1145   0.272   1.636   5.543 -0.1269  0.0175  1.1894
  287SOL     hw 1146   0.277   1.729   5.567  2.7604  0.1177  0.5363
  287SOL     hw 1147   0.363   1.610   5.528 -0.9345 -2.7066  0.4463
  287SOL     vw 1148   0.285   1.645   5.544 -0.0202 -0.0560  0.0479
  288SOL     ow 1149   2.238   2.046   2.509  0.0825  0.4634  0.0858
  288SOL     hw 1150   2.230   1.972   2.449 -0.6475  0.1511  0.5398
  288SOL     hw 1151   2.280   2.009   2.587  0.7608  0.7964 -0.1199
  288SOL     vw 1152   2.242   2.031   2.512 -0.0799  0.0000  0.0744
  289SOL     ow 1153   0.909   1.201   6.312 -0.2203 -0.2089 -0.2182
  289SOL     hw 1154   0.934   1.223   6.222  1.9995 -0.7747  0.1979
  289SOL     hw 1155   0.940   1.111   6.324 -0.7772 -0.2574  1.0085
  289SOL     vw 1156   0.917   1.192   6.302 -0.0564  0.0099  0.0100
  290SOL     ow 1157   1.519   0.117   2.849  0.3456  0.0573  0.2269
  290SOL     hw 1158   1.495   0.174   2.921  0.0096 -0.0350  0.1893
  290SOL     hw 1159   1.537   0.032   2.890  1.7324  0.4044  0.3972
  290SOL     vw 1160   1.518   0.113   2.864  0.0318 -0.0018 -0.0046
  291SOL     ow 1161   0.281   1.875   5.125 -0.4014  0.2655 -0.4010
  291SOL     hw 1162   0.254   1.958   5.163 -0.4119 -0.4641  1.2468
  291SOL     hw 1163   0.377   1.878   5.128 -0.3869  0.4573 -0.9117
  291SOL     vw 1164   0.290   1.886   5.130 -0.0365  0.0082 -0.0191
  292SOL     ow 1165   0.233   1.037   3.202 -0.6287  0.1757 -0.0475
  292SOL     hw 1166   0.241   1.063   3.110  1.0206 -3.8423 -1.2361
  292SOL     hw 1167   0.323   1.035   3.234 -1.0439 -0.2444  1.1248
  292SOL     vw 1168   0.246   1.040   3.194  0.2517  0.0868  0.0213
  293SOL     ow 1169   1.861   0.169   0.285 -0.1486  1.1982  0.1703
  293SOL     hw 1170   1.825   0.171   0.197 -0.6850  1.4281  0.3927
  293SOL     hw 1171   1.956   0.161   0.272 -0.3424 -0.8056 -0.4086
  293SOL     vw 1172   1.869   0.168   0.272 -0.0039  0.0784 -0.0100
  294SOL     ow 1173   0.999   0.413   3.519 -0.6011  0.3665  0.0757
  294SOL     hw 1174   1.042   0.476   3.577 -0.4983  0.1918  0.1907
  294SOL     hw 1175   0.909   0.444   3.512 -0.6097  0.4002  0.3155
  294SOL     vw 1176   0.993   0.425   3.526 -0.0263  0.0086 -0.0598
  295SOL     ow 1177   1.137   1.392   5.363  0.2047 -0.6647  0.6004
  295SOL     hw 1178   1.169   1.421   5.278 -1.3765 -1.1872 -0.2095
  295SOL     hw 1179   1.137   1.471   5.417  1.5658 -0.4023  0.2507
  295SOL     vw 1180   1.141   1.407   5.359  0.0030  0.0356 -0.0288
  296SOL     ow 1181   2.394   0.998   6.213  0.0901 -0.0808  0.3346
  296SOL     hw 1182   2.386   0.903   6.206 -0.5342 -0.1399  1.5416
  296SOL     hw 1183   2.427   1.012   6.302 -0.9026  0.8785  0.5699
  296SOL     vw 1184   2.397   0.987   6.224 -0.0520 -0.0250  0.0486
  297SOL     ow 1185   0.757   2.317   6.013  0.3061 -0.4044 -0.0234
  297SOL     hw 1186   0.687   2.309   6.078 -1.4062  1.7864 -1.4372
  297SOL     hw 1187   0.745   2.242   5.956 -1.0972  0.0343 -0.3593
  297SOL     vw 1188   0.746   2.306   6.014  0.0173 -0.0287  0.0346
  298SOL     ow 1189   0.128   2.204   4.533  0.0585 -0.1106  0.2266
  298SOL     hw 1190   0.140   2.109   4.543 -0.1569 -0.1915 -0.2941
  298SOL     hw 1191   0.165   2.241   4.614 -0.4315 -0.6774  0.7135
  298SOL     vw 1192   0.135   2.196   4.545 -0.0431  0.0373 -0.0005
  299SOL     ow 1193   1.154   0.282   0.091 -0.2573  0.7123 -0.2072
  299SOL     hw 1194   1.060   0.265   0.089 -0.6473  2.4819  0.9595
  299SOL     hw 1195   1.188   0.223   0.159 -0.2491 -0.9633 -1.6164
  299SOL     vw 1196   1.146   0.272   0.100 -0.0247  0.0216  0.0292
  300SOL     ow 1197   1.054   0.267   3.152  0.1467  0.7131 -0.5657
  300SOL     hw 1198   0.986   0.249   3.217  0.2604  1.0714 -0.3421
  300SOL     hw 1199   1.026   0.218   3.074 -0.4449  0.9730 -0.5272
  300SOL     vw 1200   1.041   0.258   3.150 -0.0325  0.0007  0.0160
  301SOL     ow 1201   0.378   2.305   1.086  0.1284 -0.3371 -0.0502
  301SOL     hw 1202   0.453   2.248   1.104  1.0328  0.7456 -0.2788
  301SOL     hw 1203   0.366   2.299   0.991 -1.7264 -2.4694  0.2282
  301SOL     vw 1204   0.386   2.296   1.076 -0.0431 -0.0417  0.0349
  302SOL     ow 1205   0.825   0.156   3.983  0.8392 -0.2887 -0.4084
  302SOL     hw 1206   0.736   0.170   3.950  0.7091 -0.3558 -0.0916
  302SOL     hw 1207   0.856   0.243   4.006  0.3075 -0.4180  0.8582
  302SOL     vw 1208   0.817   0.169   3.982 -0.0273  0.0133  0.0408
  303SOL     ow 1209   0.121   1.633   5.303 -0.1828  0.3685  0.1048
  303SOL     hw 1210   0.158   1.614   5.389 -0.8877  1.4414  0.6663
  303SOL     hw 1211   0.095   1.548   5.268 -0.3715 -0.0189  1.1743
  303SOL     vw 1212   0.123   1.620   5.310  0.0454  0.0224  0.0501
  304SOL     ow 1213   2.464   1.100   0.574 -0.3294 -0.3196  0.8082
  304SOL     hw 1214   2.548   1.109   0.529 -0.8164 -0.2860 -0.1002
  304SOL     hw 1215   2.462   1.173   0.636 -0.2712  0.4861 -0.1132
  304SOL     vw 1216   2.475   1.111   0.577  0.0169 -0.0332 -0.0418
  305SOL     ow 1217   0.840   2.221   6.938  0.4578  0.3856  0.2319
  305SOL     hw 1218   0.903   2.288   6.913  0.1846  1.0571  1.2721
  305SOL     hw 1219   0.893   2.146   6.963  0.8452  0.8695  0.8913
  305SOL     vw 1220   0.855   2.220   6.938 -0.0045 -0.0063 -0.0443
  306SOL     ow 1221   2.201   1.459   0.781  0.3200 -0.3860  0.0680
  306SOL     hw 1222   2.165   1.370   0.784 -2.0849  0.5087  0.0687
  306SOL     hw 1223   2.212   1.484   0.873  1.0018 -0.6671  0.0677
  306SOL     vw 1224   2.198   1.451   0.793  0.0415 -0.0049  0.0139
  307SOL     ow 1225   1.591   1.528   4.837 -0.6101  0.0239 -0.1963
  307SOL     hw 1226   1.545   1.612   4.836 -0.7509 -0.0503  0.1588
  307SOL     hw 1227   1.524   1.463   4.858 -1.1117 -0.5495 -3.1560
  307SOL     vw 1228   1.576   1.530   4.840 -0.0020  0.0113  0.0291
  308SOL     ow 1229   0.642   0.123   5.872  0.2508 -0.0234 -0.3028
  308SOL     hw 1230   0.665   0.199   5.819  0.5266 -0.3612 -0.6875
  308SOL     hw 1231   0.585   0.156   5.941 -1.9933  0.1155 -2.1011
  308SOL     vw 1232   0.638   0.137   5.874  0.0141 -0.1498  0.0324
  309SOL     ow 1233   0.777   0.326   3.696 -0.6886 -0.7642  0.1335
  309SOL     hw 1234   0.695   0.295   3.657 -0.5331  1.2717 -2.0499
  309SOL     hw 1235   0.753   0.407   3.741  0.0554 -0.3253 -0.2411
  309SOL     vw 1236   0.763   0.333   3.697  0.0657 -0.0162  0.0190
  310SOL     ow 1237   1.399   0.277   3.051  0.1393  0.4328 -0.4290
  310SOL     hw 1238   1.444   0.352   3.089 -0.4809  1.2766 -1.2865
  310SOL     hw 1239   1.325   0.316   3.004 -0.4509 -0.7629 -0.5177
  310SOL     vw 1240   1.395   0.292   3.050  0.0321  0.0031 -0.0324
  311SOL     ow 1241   0.410   1.699   1.928  0.1730 -0.1572  0.2337
  311SOL     hw 1242   0.426   1.610   1.899  0.0606 -0.7173  1.7768
  311SOL     hw 1243   0.492   1.745   1.908  0.0905 -0.4877 -0.9276
  311SOL     vw 1244   0.423   1.694   1.922  0.1007  0.0395  0.0466
  312SOL     ow 1245   0.435   0.053   1.206  0.1166  0.1129 -0.2143
  312SOL     hw 1246   0.394  -0.026   1.170  0.3696 -1.6202  2.9774
  312SOL     hw 1247   0.441   0.037   1.300  2.5419  2.8925  0.2609
  312SOL     vw 1248   0.431   0.041   1.214  0.0729 -0.0285 -0.0060
  313SOL     ow 1249   1.612   1.691   5.095 -0.0966 -0.1776 -0.7270
  313SOL     hw 1250   1.518   1.712   5.098 -0.3862 -1.4332 -0.7645
  313SOL     hw 1251   1.628   1.644   5.176  0.1312 -1.4414 -1.4859
  313SOL     vw 1252   1.601   1.688   5.106 -0.0554 -0.0640  0.0336
  314SOL     ow 1253   1.908   1.574   4.344  0.4057 -0.3897 -0.2844
  314SOL     hw 1254   1.910   1.656   4.394 -2.7564  0.1422 -0.8569
  314SOL     hw 1255   1.881   1.600   4.256  0.7594 -1.9150 -0.8690
  314SOL     vw 1256   1.905   1.588   4.339  0.0072  0.0284 -0.0379
  315SOL     ow 1257   1.663   2.367   6.683  0.3813 -0.0710  0.6338
  315SOL     hw 1258   1.744   2.322   6.708 -0.0712 -1.2434  0.0720
  315SOL     hw 1259   1.669   2.452   6.726  0.5474 -1.2320  3.0900
  315SOL     vw 1260   1.674   2.372   6.692 -0.0123 -0.0725  0.0095
  316SOL     ow 1261   0.731   1.306   5.514  0.8025 -0.0649  0.4064
  316SOL     hw 1262   0.667   1.257   5.463  0.6198  0.4396  0.1346
  316SOL     hw 1263   0.759   1.377   5.455  0.9723  0.2224  0.8248
  316SOL     vw 1264   0.726   1.309   5.499  0.1044  0.0458  0.0472
  317SOL     ow 1265   0.775   1.566   1.918 -0.4504 -0.0892  0.1473
  317SOL     hw 1266   0.777   1.601   1.829  1.6015  0.5329  0.3944
  317SOL     hw 1267   0.814   1.634   1.973  0.9471 -1.5347  1.0724
  317SOL     vw 1268   0.781   1.579   1.914 -0.1264  0.0335  0.0282
  318SOL     ow 1269   1.266   1.698   6.168  0.6422  0.5842 -0.3974
  318SOL     hw 1270   1.220   1.615   6.163  0.0000  0.8896  0.3025
  318SOL     hw 1271   1.201   1.764   6.144  1.2011  0.8727 -1.1490
  318SOL     vw 1272   1.252   1.696   6.164  0.0769  0.0138 -0.0024
  319SOL     ow 1273   1.806   1.340   4.361  0.5551  0.2573 -0.4840
  319SOL     hw 1274   1.846   1.424   4.339 -0.7070  0.6322 -1.4202
  319SOL     hw 1275   1.875   1.276   4.344  1.4082  1.0573 -0.1234
  319SOL     vw 1276   1.821   1.343   4.356 -0.0020 -0.0342  0.0031
  320SOL     ow 1277   1.125   2.302   6.599 -0.3032 -0.2577 -0.9568
  320SOL     hw 1278   1.114   2.278   6.507  1.5473 -0.0356 -1.2727
  320SOL     hw 1279   1.153   2.220   6.641  2.9658  0.4697 -1.4497
  320SOL     vw 1280   1.127   2.288   6.593 -0.0306  0.0017  0.0451
  321SOL     ow 1281   0.460   1.581   5.214 -0.3943  0.0258 -0.1950
  321SOL     hw 1282   0.531   1.536   5.168  0.0089  0.6657 -0.2133
  321SOL     hw 1283   0.479   1.566   5.307 -0.4273 -0.0958 -0.2080
  321SOL     vw 1284   0.472   1.573   5.220  0.0030  0.0115  0.0350
  322SOL     ow 1285   1.313   1.182   6.669 -0.0101 -0.0018  0.0097
  322SOL     hw 1286   1.331   1.174   6.763  0.3935 -2.2803 -0.2173
  322SOL     hw 1287   1.243   1.119   6.652 -0.6514  0.9633 -1.1020
  322SOL     vw 1288   1.306   1.173   6.679  0.0134 -0.0310 -0.0098
  323SOL     ow 1289   2.289   0.860   0.638 -0.7756  0.4368 -0.2292
  323SOL     hw 1290   2.338   0.940   0.656  0.7726 -0.3609 -0.7147
  323SOL     hw 1291   2.261   0.829   0.724  2.2321 -0.6869  0.4680
  323SOL     vw 1292   2.292   0.866   0.652 -0.0076  0.0480 -0.0680
  324SOL     ow 1293   1.689   1.371   6.394 -0.0925  0.0267  0.3350
  324SOL     hw 1294   1.666   1.372   6.488  1.0067  1.2570  0.6122
  324SOL     hw 1295   1.732   1.287   6.381 -0.5634 -0.3035  0.8480
  324SOL     vw 1296   1.692   1.360   6.405 -0.0506 -0.0433  0.0181
  325SOL     ow 1297   1.007   2.016   1.062 -0.5141 -0.1684 -0.1551
  325SOL     hw 1298   1.069   1.951   1.029 -0.9720  0.1353 -1.6953
  325SOL     hw 1299   0.992   1.991   1.153  1.0130 -0.8916 -0.0748
  325SOL     vw 1300   1.013   2.004   1.070 -0.0615 -0.0465 -0.0347
  326SOL     ow 1301   1.450   2.483   0.162  0.0724 -0.4308  0.2342
  326SOL     hw 1302   1.470   2.396   0.198  0.9147  0.9179  3.4352
  326SOL     hw 1303   1.390   2.522   0.226  2.2908  2.4886  0.7652
  326SOL     vw 1304   1.445   2.476   0.175  0.0447  0.0097 -0.0085
  327SOL     ow 1305   1.518   2.483   5.061 -0.7662  1.2096  0.0290
  327SOL     hw 1306   1.481   2.395   5.062  2.1141 -0.1435  2.5268
  327SOL     hw 1307   1.500   2.517   5.149  2.8622  0.8171  1.0572
  327SOL     vw 1308   1.511   2.476   5.073  0.0853  0.0502 -0.0446
  328SOL     ow 1309   0.698   1.424   5.179 -0.3576 -0.3099  0.2562
  328SOL     hw 1310   0.752   1.490   5.223  0.9871  0.0295 -1.7613
  328SOL     hw 1311   0.691   1.353   5.242  1.0884  0.3415  1.2011
  328SOL     vw 1312   0.704   1.423   5.193 -0.0467  0.0153 -0.0057
  329SOL     ow 1313   0.631   0.733   0.531  0.1619 -0.0503  0.2865
  329SOL     hw 1314   0.618   0.751   0.624 -0.4835 -1.7455  0.5652
  329SOL     hw 1315   0.699   0.665   0.529 -0.6330 -0.8464 -0.3817
  329SOL     vw 1316   0.638   0.726   0.543 -0.0257 -0.0153 -0.0115
  330SOL     ow 1317   1.549   2.419   3.753 -0.0822  0.4177 -0.7607
  330SOL     hw 1318   1.493   2.446   3.826  0.1068  1.4122 -0.9752
  330SOL     hw 1319   1.563   2.499   3.702  2.0191  0.3492 -0.3806
  330SOL     vw 1320   1.544   2.433   3.756 -0.0203  0.0889  0.0190
  331SOL     ow 1321   0.443   1.427   1.901 -0.1027 -0.5484 -0.0577
  331SOL     hw 1322   0.510   1.414   1.968 -0.8221 -0.3666  0.7049
  331SOL     hw 1323   0.457   1.356   1.839  1.5718  0.1669 -0.5652
  331SOL     vw 1324   0.454   1.416   1.901 -0.0600 -0.0305 -0.0644
  332SOL     ow 1325   0.625   2.181   4.301  0.6122  0.2623  0.2155
  332SOL     hw 1326   0.621   2.094   4.341  0.6961 -0.0477 -0.4269
  332SOL     hw 1327   0.710   2.216   4.328  0.7513 -0.0221  0.1566
  332SOL     vw 1328   0.636   2.174   4.310 -0.0042  0.0036 -0.0021
  333SOL     ow 1329   0.198   2.203   3.530 -0.1791 -0.1578 -0.0491
  333SOL     hw 1330   0.221   2.293   3.554  0.8645 -0.8317  1.6329
  333SOL     hw 1331   0.227   2.195   3.439  1.4750  0.6360  0.3784
  333SOL     vw 1332   0.205   2.214   3.521  0.0032 -0.0126  0.0124
  334SOL     ow 1333   0.891   1.902   2.746  0.1825  0.0367  0.5275
  334SOL     hw 1334   0.941   1.939   2.819  2.7975  0.2006 -1.1932
  334SOL     hw 1335   0.930   1.815   2.733  1.3238  0.8324 -1.9465
  334SOL     vw 1336   0.903   1.896   2.754 -0.0153  0.0429 -0.0045
  335SOL     ow 1337   1.847   1.598   4.031  0.4232 -0.3536  0.9009
  335SOL     hw 1338   1.898   1.639   3.961  2.6708 -0.8033  2.1711
  335SOL     hw 1339   1.823   1.512   3.995 -1.2870  0.6409 -0.4680
  335SOL     vw 1340   1.851   1.592   4.017 -0.0947 -0.0110  0.0076
  336SOL     ow 1341   0.432   1.858   2.869  0.4925 -0.1316  0.0621
  336SOL     hw 1342   0.439   1.867   2.964 -0.7017  0.1140  0.1409
  336SOL     hw 1343   0.375   1.783   2.857 -1.7670  1.5624 -0.3946
  336SOL     vw 1344   0.426   1.849   2.880 -0.0424  0.0117  0.0851
  337SOL     ow 1345   0.645   1.634   3.426 -0.3669  0.0085  0.0231
  337SOL     hw 1346   0.567   1.688   3.410 -0.4238 -0.3917 -1.1303
  337SOL     hw 1347   0.610   1.551   3.457 -0.2963  0.4748  1.4101
  337SOL     vw 1348   0.630   1.630   3.428  0.0162 -0.0158  0.0720
  338SOL     ow 1349   1.099   0.986   3.214  0.1236  0.0322  0.2684
  338SOL     hw 1350   1.069   0.896   3.207 -1.5907  0.2984  2.8580
  338SOL     hw 1351   1.019   1.039   3.208  0.6093  1.1109  2.3118
  338SOL     vw 1352   1.085   0.981   3.212 -0.0222 -0.0171  0.0201
  339SOL     ow 1353   1.875   0.057   2.073  0.0113  0.5307 -0.3033
  339SOL     hw 1354   1.780   0.059   2.081 -0.0264  1.3767 -0.8621
  339SOL     hw 1355   1.901   0.149   2.067  0.9097  0.3272  0.2902
  339SOL     vw 1356   1.866   0.069   2.073  0.0652 -0.0443  0.1402
  340SOL     ow 1357   0.490   0.143   5.631 -0.0626 -0.2714 -0.2246
  340SOL     hw 1358   0.499   0.237   5.644  0.5500 -0.1203 -1.5780
  340SOL     hw 1359   0.518   0.104   5.714 -1.8062  0.7594  0.9078
  340SOL     vw 1360   0.495   0.150   5.644  0.0069  0.0003 -0.0048
  341SOL     ow 1361   0.582   0.413   6.393 -0.2466 -0.6059  1.0334
  341SOL     hw 1362   0.590   0.474   6.466 -1.1139  0.5837  0.1780
  341SOL     hw 1363   0.617   0.330   6.427 -0.3561 -0.0199  2.6906
  341SOL     vw 1364   0.587   0.410   6.407  0.0186 -0.0167 -0.0017
  342SOL     ow 1365   2.503   0.070   5.693  0.0823  0.5429  0.2018
  342SOL     hw 1366   2.567  -0.001   5.690  0.8165  1.2190 -1.4952
  342SOL     hw 1367   2.430   0.038   5.641 -0.4271  0.2801  1.0659
  342SOL     vw 1368   2.502   0.057   5.686  0.0017 -0.0374  0.0162
  343SOL     ow 1369   0.616   1.795   2.694  1.3356  0.2915 -0.8221
  343SOL     hw 1370   0.549   1.817   2.759  1.0370 -0.8591 -0.7323
  343SOL     hw 1371   0.615   1.700   2.689  2.8459  0.2550 -0.9546
  343SOL     vw 1372   0.607   1.786   2.702  0.0573  0.0467 -0.0211
  344SOL     ow 1373   1.140   0.489   3.271  0.7452 -0.1820 -0.7007
  344SOL     hw 1374   1.108   0.417   3.216 -1.6937  0.5106 -0.2988
  344SOL     hw 1375   1.104   0.471   3.358  0.7905  1.0967 -0.4026
  344SOL     vw 1376   1.131   0.477   3.275 -0.0390  0.0242  0.0223
  345SOL     ow 1377   2.408   1.285   0.320 -0.1519  0.1150 -0.2734
  345SOL     hw 1378   2.313   1.280   0.316 -0.0883 -1.2592 -3.0977
  345SOL     hw 1379   2.434   1.206   0.367 -0.3896  0.2412  0.0727
  345SOL     vw 1380   2.399   1.274   0.326  0.0106  0.0163 -0.0259
  346SOL     ow 1381   1.331   1.002   3.408  0.3723 -0.0410 -0.3275
  346SOL     hw 1382   1.341   0.938   3.478  2.0133  0.5334 -0.0005
  346SOL     hw 1383   1.313   1.084   3.453 -1.7625 -0.2151 -0.7452
  346SOL     vw 1384   1.330   1.004   3.423  0.0013 -0.0307 -0.0094
  347SOL     ow 1385   0.043   0.835   3.348  0.2810  0.0330 -0.3252
  347SOL     hw 1386   0.038   0.762   3.288 -0.0405  0.7702 -1.2139
  347SOL     hw 1387   0.126   0.823   3.394 -0.0033 -1.1470 -0.1013
  347SOL     vw 1388   0.053   0.824   3.346 -0.0630 -0.0422 -0.0272
  348SOL     ow 1389   1.874   0.647   1.590  0.1102  0.1617 -0.3138
  348SOL     hw 1390   1.857   0.715   1.525 -1.5153  0.8554  0.7804
  348SOL     hw 1391   1.798   0.589   1.584  1.3883 -1.5201 -1.1122
  348SOL     vw 1392   1.861   0.648   1.581  0.0197  0.0318  0.0024
  349SOL     ow 1393   1.133   1.519   3.858 -0.5399 -0.3933  0.5255
  349SOL     hw 1394   1.041   1.505   3.879 -0.3079  0.1377  1.9820
  349SOL     hw 1395   1.155   1.604   3.896 -0.0060  0.5904 -1.7710
  349SOL     vw 1396   1.124   1.528   3.866  0.0063 -0.0225  0.0278
  350SOL     ow 1397   0.939   0.783   2.753  0.0739 -0.6526  0.1543
  350SOL     hw 1398   0.987   0.824   2.825 -2.4279  0.8504  1.1116
  350SOL     hw 1399   0.851   0.767   2.789 -0.6018 -1.9794 -1.8826
  350SOL     vw 1400   0.934   0.786   2.767  0.0411 -0.1251  0.1215
  351SOL     ow 1401  -0.006   1.810   5.041 -0.3276  0.7008 -0.0301
  351SOL     hw 1402  -0.069   1.850   5.101 -0.4968  2.4179 -1.2680
  351SOL     hw 1403   0.014   1.879   4.978  2.7082  0.1893  0.2188
  351SOL     vw 1404  -0.012   1.825   5.041  0.0832 -0.0117  0.0460
  352SOL     ow 1405   0.641   0.466   5.269 -0.9007  0.0729 -0.1397
  352SOL     hw 1406   0.570   0.483   5.332 -0.4017  1.0884  0.1737
  352SOL     hw 1407   0.685   0.550   5.260  0.3818 -0.5876 -0.1994
  352SOL     vw 1408   0.637   0.479   5.276  0.0094  0.0266  0.0060
  353SOL     ow 1409   0.552   2.459   4.292 -0.8961  0.8599 -0.8342
  353SOL     hw 1410   0.615   2.466   4.364 -0.1502 -0.4960 -1.3090
  353SOL     hw 1411   0.513   2.546   4.285  1.0791  1.8122 -0.6648
  353SOL     vw 1412   0.555   2.471   4.301  0.0279 -0.0186 -0.0064
  354SOL     ow 1413   2.245   1.625   0.286  0.4175 -0.2081  0.4690
  354SOL     hw 1414   2.279   1.595   0.202  0.7104 -0.8696  0.8136
  354SOL     hw 1415   2.167   1.572   0.301 -0.2176  0.6196  0.1442
  354SOL     vw 1416   2.239   1.614   0.277  0.0416 -0.0249  0.0530
  355SOL     ow 1417   1.247   0.066   0.313  1.0559  0.4893 -0.1960
  355SOL     hw 1418   1.181   0.039   0.248  0.7887  2.6326 -0.9022
  355SOL     hw 1419   1.229   0.011   0.389 -1.0915  0.4888 -0.6317
  355SOL     vw 1420   1.236   0.055   0.314  0.0111  0.0209  0.0024
  356SOL     ow 1421   2.090   2.098   2.860  0.5616  0.5512  0.1567
  356SOL     hw 1422   2.164   2.054   2.818  0.3340  0.3390 -0.0210
  356SOL     hw 1423   2.025   2.029   2.873  0.5299  0.6676  0.6263
  356SOL     vw 1424   2.091   2.083   2.856  0.0955 -0.0573  0.0921
  357SOL     ow 1425   0.326   1.337   6.799 -0.0490  0.1742 -0.4009
  357SOL     hw 1426   0.411   1.359   6.762  0.0880 -1.2588 -0.9890
  357SOL     hw 1427   0.347   1.279   6.872 -0.4796  0.6602  0.1170
  357SOL     vw 1428   0.340   1.332   6.804  0.0188 -0.1221 -0.0682
  358SOL     ow 1429   2.023   0.762   6.919 -0.0290 -0.6975  0.1887
  358SOL     hw 1430   1.998   0.822   6.848  4.4800 -0.2118 -1.3305
  358SOL     hw 1431   2.061   0.819   6.986  0.8340 -1.5487  0.4429
  358SOL     vw 1432   2.025   0.777   6.918  0.0156 -0.0595  0.0138
  359SOL     ow 1433  -0.023   1.702   0.761 -0.5078  0.2143  0.3987
  359SOL     hw 1434   0.072   1.692   0.768 -0.6625 -1.5900  0.5825
  359SOL     hw 1435  -0.054   1.615   0.734 -1.9391  1.3066 -1.6797
  359SOL     vw 1436  -0.015   1.689   0.759  0.0322  0.0160  0.1226
  360SOL     ow 1437   0.430   1.226   1.718 -0.9891  0.1718  0.2143
  360SOL     hw 1438   0.382   1.148   1.689 -2.5271  1.6290 -1.3345
  360SOL     hw 1439   0.478   1.255   1.640  0.8334 -0.0525  1.1891
  360SOL     vw 1440   0.430   1.219   1.704  0.0001  0.0132  0.0011
  361SOL     ow 1441   0.980   1.150   6.669  0.0989 -0.0855  0.0945
  361SOL     hw 1442   1.042   1.082   6.644 -1.9276 -2.0647  0.1101
  361SOL     hw 1443   0.938   1.176   6.587  0.5424  0.8538  0.1514
  361SOL     vw 1444   0.982   1.145   6.655  0.0069  0.0004  0.0367
  362SOL     ow 1445   1.140   1.339   3.251  0.3689 -0.0240  0.6361
  362SOL     hw 1446   1.118   1.325   3.343 -2.6684  2.0303  0.3638
  362SOL     hw 1447   1.071   1.293   3.203  2.5537 -2.0607 -0.7491
  362SOL     vw 1448   1.128   1.331   3.257 -0.0663  0.0446  0.0138
  363SOL     ow 1449   1.850   1.533   6.246 -0.0835  0.5377 -0.5828
  363SOL     hw 1450   1.935   1.536   6.290 -0.3722 -0.6029  0.1037
  363SOL     hw 1451   1.805   1.458   6.285 -0.6708 -0.0489 -2.2626
  363SOL     vw 1452   1.855   1.523   6.257 -0.1145  0.1442  0.0770
  364SOL     ow 1453   1.453   0.048   6.897 -0.9336  0.5830 -0.6980
  364SOL     hw 1454   1.477  -0.000   6.976 -0.1676  2.1181  0.0438
  364SOL     hw 1455   1.364   0.080   6.914 -1.8900 -1.3806 -1.6351
  364SOL     vw 1456   1.444   0.045   6.910 -0.1206  0.0300 -0.0622
  365SOL     ow 1457   2.311   0.419   4.052  0.0884  0.5899  0.3269
  365SOL     hw 1458   2.219   0.416   4.077  0.2577  2.7047  1.4242
  365SOL     hw 1459   2.357   0.446   4.132  1.9253 -2.0402  0.2913
  365SOL     vw 1460   2.305   0.422   4.066  0.0209  0.0626 -0.0141
  366SOL     ow 1461   0.519   0.258   5.127 -1.1315 -0.2063  0.0312
  366SOL     hw 1462   0.529   0.334   5.184  0.0640 -2.6740  3.5009
  366SOL     hw 1463   0.437   0.274   5.080 -0.8641  3.2015  0.4819
  366SOL     vw 1464   0.509   0.270   5.128 -0.0624 -0.0149 -0.0103
  367SOL     ow 1465   0.071   0.357   0.535  0.0195 -0.3294 -0.0659
  367SOL     hw 1466   0.062   0.399   0.620 -0.0458 -0.9239  0.2246
  367SOL     hw 1467   0.090   0.265   0.555 -1.0811 -0.7091 -0.6882
  367SOL     vw 1468   0.072   0.350   0.549  0.0004 -0.0109  0.0058
  368SOL     ow 1469   0.115   0.914   6.931 -1.1464 -0.2591  0.3917
  368SOL     hw 1470   0.057   0.925   6.856 -3.1752  1.6878  2.1175
  368SOL     hw 1471   0.062   0.938   7.007  1.5536  0.3749  2.2213
  368SOL     vw 1472   0.100   0.919   6.931  0.0227 -0.0421 -0.0229
  369SOL     ow 1473   0.285   2.323   2.847 -0.5886  0.2826  0.4326
  369SOL     hw 1474   0.342   2.400   2.853  0.6475 -0.5225 -0.4873
  369SOL     hw 1475   0.211   2.344   2.903  1.7791  0.3399  3.8308
  369SOL     vw 1476   0.283   2.336   2.855 -0.0021  0.0563  0.0808
  370SOL     ow 1477   1.066   1.501   6.026 -0.9029 -0.1771  0.3307
  370SOL     hw 1478   1.020   1.584   6.038 -0.2536  0.4717 -1.3752
  370SOL     hw 1479   1.018   1.438   6.080 -2.6069  0.8845  0.1031
  370SOL     vw 1480   1.054   1.503   6.035  0.0107 -0.0350 -0.0463
  371SOL     ow 1481   2.220   1.670   0.615  0.0053 -0.9175 -0.5856
  371SOL     hw 1482   2.137   1.717   0.612 -0.8324 -2.3676 -1.4804
  371SOL     hw 1483   2.207   1.601   0.680  1.7942  1.0158  1.9752
  371SOL     vw 1484   2.207   1.667   0.623 -0.0019 -0.0289 -0.0796
  372SOL     ow 1485   1.052   0.179   1.276  0.6778 -0.1224  0.1590
  372SOL     hw 1486   1.004   0.164   1.358  1.7256  0.2900  0.8663
  372SOL     hw 1487   1.070   0.273   1.276 -0.8270  0.2219 -1.4279
  372SOL     vw 1488   1.048   0.189   1.287  0.0852  0.0662  0.1004
  373SOL     ow 1489   2.132   2.377   3.752  0.2078 -0.4156 -0.7351
  373SOL     hw 1490   2.039   2.357   3.744  0.0998 -0.9166  1.3152
  373SOL     hw 1491   2.138   2.471   3.739 -0.3539 -0.5800 -2.4182
  373SOL     vw 1492   2.121   2.387   3.749  0.0645 -0.0069 -0.1401
  374SOL     ow 1493   2.272   1.727   0.934  0.4077  0.4859 -0.0664
  374SOL     hw 1494   2.342   1.750   0.874  0.3902  0.3398 -0.1460
  374SOL     hw 1495   2.200   1.786   0.912  0.4024  0.4330 -0.1894
  374SOL     vw 1496   2.271   1.738   0.923  0.0376 -0.0431 -0.0379
  375SOL     ow 1497   0.241   0.064   4.365 -0.0750 -0.1853  0.6223
  375SOL     hw 1498   0.230  -0.015   4.419  2.2225 -0.3731  0.9102
  375SOL     hw 1499   0.214   0.036   4.277  0.6718 -1.3181  0.7280
  375SOL     vw 1500   0.236   0.050   4.360  0.0228  0.0191 -0.0103
  376SOL     ow 1501   0.252   1.648   2.877 -0.5107  0.1236  0.6235
  376SOL     hw 1502   0.251   1.575   2.939 -1.3770 -0.7179 -0.3305
  376SOL     hw 1503   0.221   1.610   2.794  1.3457  1.0335 -0.5500
  376SOL     vw 1504   0.248   1.634   2.874  0.0895  0.0070  0.0005
  377SOL     ow 1505   0.747   1.943   0.326 -0.2196 -0.0039  0.1330
  377SOL     hw 1506   0.802   1.953   0.404 -0.2463  0.5445  0.0824
  377SOL     hw 1507   0.723   1.850   0.326 -1.8128  0.3486  1.8742
  377SOL     vw 1508   0.751   1.932   0.337  0.0198  0.0237  0.0055
  378SOL     ow 1509   2.380   1.987   5.232 -0.2788  0.2368 -0.1452
  378SOL     hw 1510   2.294   2.012   5.198 -0.5606  0.9713  1.0637
  378SOL     hw 1511   2.361   1.931   5.307  0.3391 -1.3623 -1.1172
  378SOL     vw 1512   2.366   1.983   5.237  0.0249  0.0002 -0.0858
  379SOL     ow 1513   2.349   2.035   4.519  0.6782 -0.3195 -0.9483
  379SOL     hw 1514   2.426   2.079   4.555  0.4755  0.4412 -1.4250
  379SOL     hw 1515   2.322   1.974   4.588  0.3932  0.9932  0.1450
  379SOL     vw 1516   2.356   2.032   4.533  0.0172  0.0274 -0.0014
  380SOL     ow 1517   2.188   0.913   2.849  0.1894 -0.0452  0.1368
  380SOL     hw 1518   2.238   0.855   2.792 -0.4820 -0.2019 -0.3040
  380SOL     hw 1519   2.121   0.857   2.889  1.0316 -0.0768  1.5801
  380SOL     vw 1520   2.186   0.898   2.847 -0.1014  0.0811 -0.0931
  381SOL     ow 1521   0.562   0.594   6.646  0.5031  0.8860  0.4039
  381SOL     hw 1522   0.607   0.670   6.685  1.4891 -0.0732  1.2179
  381SOL     hw 1523   0.479   0.629   6.614  1.4816  2.5719 -0.4388
  381SOL     vw 1524   0.557   0.609   6.647  0.0213 -0.0374  0.0129
  382SOL     ow 1525   1.375   1.182   0.978 -0.2202 -0.6069 -0.4482
  382SOL     hw 1526   1.416   1.191   1.064 -0.1129 -1.4511 -0.4010
  382SOL     hw 1527   1.289   1.145   0.997  0.2546 -1.9172 -0.7812
  382SOL     vw 1528   1.369   1.178   0.992 -0.0306  0.0401  0.0308
  383SOL     ow 1529   1.169   2.114   3.590 -0.4814  0.5998 -0.2069
  383SOL     hw 1530   1.111   2.121   3.515 -1.7147 -2.6361  0.2826
  383SOL     hw 1531   1.111   2.115   3.666  0.1457 -1.3531  0.3701
  383SOL     vw 1532   1.154   2.115   3.590  0.0249 -0.0228  0.0285
  384SOL     ow 1533   0.220   0.252   1.262  0.1542  0.4119 -0.6026
  384SOL     hw 1534   0.140   0.303   1.252 -0.6517 -0.3426  1.5725
  384SOL     hw 1535   0.240   0.257   1.355  1.0502 -1.7708 -0.6357
  384SOL     vw 1536   0.212   0.260   1.273 -0.0042 -0.0197  0.0250
  385SOL     ow 1537   1.235   0.554   5.723 -0.3932  0.4293  0.4614
  385SOL     hw 1538   1.173   0.563   5.796 -0.7915  1.0030  0.0708
  385SOL     hw 1539   1.318   0.587   5.757  0.0106 -1.4135  1.3495
  385SOL     vw 1540   1.238   0.560   5.737  0.0283 -0.0261 -0.0725
  386SOL     ow 1541   0.101   2.114   3.831 -0.1683  0.4273  0.7825
  386SOL     hw 1542   0.100   2.069   3.916  1.3244  0.3763  0.7940
  386SOL     hw 1543   0.155   2.191   3.846 -0.8948  1.0787  0.1724
  386SOL     vw 1544   0.108   2.118   3.845 -0.0717  0.0206 -0.0114
  387SOL     ow 1545   0.240   0.849   2.209  0.0944 -0.4677 -0.0763
  387SOL     hw 1546   0.210   0.770   2.165 -1.4548  0.1546 -0.1972
  387SOL     hw 1547   0.203   0.844   2.297  0.0749  0.0643 -0.0466
  387SOL     vw 1548   0.232   0.838   2.214 -0.0799 -0.0413  0.0691
  388SOL     ow 1549   1.996   1.423   6.032 -0.5928 -0.4497 -0.3309
  388SOL     hw 1550   2.046   1.358   6.082 -1.1552  0.2468  1.2017
  388SOL     hw 1551   1.953   1.476   6.099  2.5277  3.7858 -1.2577
  388SOL     vw 1552   1.997   1.421   6.048 -0.0415 -0.0303 -0.0527
  389SOL     ow 1553   0.454   0.327   6.960 -0.1970 -0.1554 -0.3615
  389SOL     hw 1554   0.466   0.235   6.985  3.0341  0.5076  1.1448
  389SOL     hw 1555   0.538   0.352   6.923 -1.8498  1.5899 -3.2940
  389SOL     vw 1556   0.467   0.318   6.959 -0.0268  0.0153 -0.0310
  390SOL     ow 1557   2.448   1.293   0.744  0.1160 -0.6753 -0.0501
  390SOL     hw 1558   2.378   1.241   0.783 -0.4600  0.9158  1.1354
  390SOL     hw 1559   2.527   1.267   0.790 -0.2693 -0.0822  0.9652
  390SOL     vw 1560   2.449   1.283   0.755 -0.0273  0.0064  0.0610
  391SOL     ow 1561   0.358   0.286   6.680 -0.4963  0.1661 -0.9467
  391SOL     hw 1562   0.363   0.338   6.600  0.2655  0.2734 -0.8370
  391SOL     hw 1563   0.385   0.347   6.749  0.3647 -0.3590 -0.8105
  391SOL     vw 1564   0.362   0.301   6.679 -0.0513 -0.0162  0.0634
  392SOL     ow 1565   1.145   1.127   3.581  0.0102 -0.0418 -0.5819
  392SOL     hw 1566   1.079   1.195   3.596 -1.2620 -1.0272 -1.4947
  392SOL     hw 1567   1.100   1.045   3.599  2.2287 -0.6695  3.0432
  392SOL     vw 1568   1.130   1.125   3.585  0.0175  0.0792 -0.1078
  393SOL     ow 1569   2.488   0.656   0.735 -0.4131  0.7439 -0.5082
  393SOL     hw 1570   2.473   0.750   0.736 -0.2524  0.7808  0.9206
  393SOL     hw 1571   2.414   0.620   0.783  0.5209  0.3337  0.6807
  393SOL     vw 1572   2.476   0.664   0.742  0.0170 -0.0237  0.0102
  394SOL     ow 1573   2.075   1.085   2.622 -0.7553  0.2665 -0.8109
  394SOL     hw 1574   2.085   0.990   2.613 -0.1083  0.3733 -1.2981
  394SOL     hw 1575   2.118   1.122   2.545 -0.5323  0.9747 -0.3637
  394SOL     vw 1576   2.082   1.077   2.611  0.0142  0.0169  0.0075
  395SOL     ow 1577   1.257   0.255   6.576 -0.0296  0.4180 -0.1776
  395SOL     hw 1578   1.338   0.269   6.527 -1.2114 -0.2133 -2.4194
  395SOL     hw 1579   1.222   0.343   6.590  0.3925  0.6126 -0.3315
  395SOL     vw 1580   1.263   0.269   6.571 -0.0395 -0.0380  0.0031
  396SOL     ow 1581   0.681   1.648   5.719 -0.3871  0.1461  0.3109
  396SOL     hw 1582   0.762   1.693   5.692 -1.4596  0.6521 -2.4213
  396SOL     hw 1583   0.658   1.689   5.802  1.2377  1.2528  0.2751
  396SOL     vw 1584   0.689   1.660   5.726 -0.0103  0.0044 -0.0391
  397SOL     ow 1585   0.668   0.788   2.245  0.7295 -0.4452  0.6330
  397SOL     hw 1586   0.685   0.715   2.186  0.5868 -0.5625  0.7366
  397SOL     hw 1587   0.591   0.761   2.295 -1.1774  0.9854 -1.3605
  397SOL     vw 1588   0.660   0.775   2.244  0.0383  0.0140  0.0546
  398SOL     ow 1589   2.188   0.088   4.288  0.0588  0.2058  0.4152
  398SOL     hw 1590   2.151   0.044   4.364 -1.2786  2.2456  1.0283
  398SOL     hw 1591   2.181   0.181   4.308  2.4638  0.7561 -0.9512
  398SOL     vw 1592   2.182   0.094   4.300 -0.0117 -0.0185 -0.0987
  399SOL     ow 1593   1.236   1.301   1.369  0.2861 -0.0048  0.7970
  399SOL     hw 1594   1.214   1.209   1.384  1.5649  0.0472  3.4359
  399SOL     hw 1595   1.318   1.298   1.319  0.5575 -0.3150  1.2525
  399SOL     vw 1596   1.244   1.288   1.364  0.0662  0.0610 -0.0252
  400SOL     ow 1597   0.795   1.002   2.651 -0.0172 -0.5023 -0.4504
  400SOL     hw 1598   0.708   0.972   2.678 -1.4851  0.3251 -3.7135
  400SOL     hw 1599   0.778   1.081   2.600  2.9962  1.4947  1.3083
  400SOL     vw 1600   0.781   1.009   2.648  0.0164  0.0296 -0.0550
  401SOL     ow 1601   2.198   2.418   2.319 -0.2730  0.4113 -0.8560
  401SOL     hw 1602   2.274   2.359   2.324 -1.9374 -1.8234 -0.5261
  401SOL     hw 1603   2.161   2.417   2.407  0.7663  3.6794 -0.2467
  401SOL     vw 1604   2.203   2.410   2.331  0.0525  0.0603  0.0260
  402SOL     ow 1605   2.002   1.307   4.625  0.6432  0.1111 -0.5174
  402SOL     hw 1606   1.982   1.260   4.706 -0.7413  1.4346 -0.0583
  402SOL     hw 1607   2.095   1.291   4.610  1.2694  0.9389  2.0800
  402SOL     vw 1608   2.012   1.299   4.634 -0.0453  0.0399  0.0362
  403SOL     ow 1609   2.359   1.446   6.047 -0.1226  0.2168 -0.0174
  403SOL     hw 1610   2.319   1.359   6.057 -0.0844  0.2762  0.7326
  403SOL     hw 1611   2.287   1.503   6.022 -0.5936  0.3712  1.5621
  403SOL     vw 1612   2.345   1.442   6.045  0.0223 -0.0162 -0.0341
  404SOL     ow 1613   2.177   1.486   1.096 -0.2112  0.2037 -0.7619
  404SOL     hw 1614   2.088   1.451   1.090 -0.4006  0.6702 -0.7283
  404SOL     hw 1615   2.231   1.411   1.119 -0.9083  0.3101  1.3686
  404SOL     vw 1616   2.172   1.472   1.098 -0.0533 -0.1932  0.0667
  405SOL     ow 1617   0.056   1.974   3.575  0.4024  0.0720  0.2857
  405SOL     hw 1618   0.072   1.899   3.517 -0.0670  0.0086  0.2338
  405SOL     hw 1619   0.131   2.032   3.560  0.7051 -0.3261  0.2332
  405SOL     vw 1620   0.068   1.972   3.565 -0.0217  0.0305 -0.0173
  406SOL     ow 1621   2.315   2.161   3.661 -0.7126 -0.1286 -0.3738
  406SOL     hw 1622   2.245   2.117   3.613 -0.8270  0.2693 -0.5797
  406SOL     hw 1623   2.269   2.216   3.725 -0.6330 -4.2539  3.7123
  406SOL     vw 1624   2.300   2.163   3.664 -0.0119  0.0724 -0.1299
  407SOL     ow 1625   0.741   0.722   6.824  0.2091 -0.8791 -0.0019
  407SOL     hw 1626   0.775   0.672   6.898  1.6179  0.6629  0.4531
  407SOL     hw 1627   0.813   0.726   6.762 -0.0023  0.2279 -0.1978
  407SOL     vw 1628   0.755   0.716   6.825  0.0508 -0.1035 -0.0193
  408SOL     ow 1629   0.686   0.777   0.275 -0.4830 -0.5452  0.7048
  408SOL     hw 1630   0.730   0.697   0.244 -1.8094 -2.1471  2.7418
  408SOL     hw 1631   0.665   0.759   0.366 -2.0975  1.6017  0.8221
  408SOL     vw 1632   0.689   0.764   0.283  0.0448  0.0376  0.0035
  409SOL     ow 1633   1.048   1.319   5.647  0.1987 -0.6746 -0.9127
  409SOL     hw 1634   1.075   1.406   5.675  3.0635 -1.1198 -1.9321
  409SOL     hw 1635   1.008   1.280   5.725  1.4725  0.5598  0.4208
  409SOL     vw 1636   1.047   1.325   5.661  0.0385 -0.0561  0.0012
  410SOL     ow 1637   0.692   1.061   0.243 -0.0232  0.2322 -0.2478
  410SOL     hw 1638   0.756   1.086   0.176 -0.7057  1.5904 -0.4215
  410SOL     hw 1639   0.728   0.981   0.281  0.8439 -0.0594 -1.6050
  410SOL     vw 1640   0.706   1.054   0.239 -0.0502  0.0330  0.0386
  411SOL     ow 1641   1.012   0.642   3.688  0.0789  0.1392 -0.2424
  411SOL     hw 1642   1.067   0.648   3.766  0.9197  0.9749 -0.8699
  411SOL     hw 1643   1.003   0.733   3.658 -1.8650  0.0420 -0.0236
  411SOL     vw 1644   1.018   0.655   3.694  0.0328 -0.0215 -0.0111
  412SOL     ow 1645   2.195   1.159   0.815 -0.3663  0.1517  0.2719
  412SOL     hw 1646   2.187   1.095   0.885  1.1092 -1.3530 -0.8792
  412SOL     hw 1647   2.136   1.127   0.746  1.1102 -0.5774 -0.7020
  412SOL     vw 1648   2.186   1.147   0.815  0.0411  0.0260 -0.0550
  413SOL     ow 1649   1.861   1.893   2.594  0.5426  0.1177 -0.0965
  413SOL     hw 1650   1.769   1.869   2.586  1.3576 -4.0063  0.4806
  413SOL     hw 1651   1.882   1.877   2.686  2.1881 -0.8313 -0.5873
  413SOL     vw 1652   1.851   1.887   2.605  0.1006  0.0283  0.0203
  414SOL     ow 1653   1.816   1.799   4.985 -0.6866  0.5096  0.0941
  414SOL     hw 1654   1.831   1.882   5.030 -0.2716 -0.4973  1.9258
  414SOL     hw 1655   1.740   1.761   5.029  0.8118 -1.3197  1.2868
  414SOL     vw 1656   1.808   1.805   4.997  0.0111  0.0753 -0.0300
  415SOL     ow 1657   1.845   1.500   4.916  0.1413 -0.1279  0.2246
  415SOL     hw 1658   1.749   1.493   4.914  0.2583 -1.9883 -0.3726
  415SOL     hw 1659   1.873   1.434   4.980  1.0437  0.2377  0.2221
  415SOL     vw 1660   1.836   1.490   4.924  0.0334  0.0336 -0.0172
  416SOL     ow 1661   0.544   0.968   6.765 -0.1594  0.1437 -0.0064
  416SOL     hw 1662   0.484   1.010   6.827 -0.4501 -0.8441  0.3970
  416SOL     hw 1663   0.508   0.990   6.679 -1.6874 -1.2028  0.2273
  416SOL     vw 1664   0.531   0.977   6.762 -0.0451 -0.0014  0.0069
  417SOL     ow 1665   1.586   2.308   3.460  0.3096  0.2942  0.1330
  417SOL     hw 1666   1.655   2.374   3.468 -0.2872  1.2121 -1.6396
  417SOL     hw 1667   1.564   2.308   3.367 -2.5299  0.5188  0.7199
  417SOL     vw 1668   1.592   2.317   3.449 -0.0476 -0.0360  0.0087
  418SOL     ow 1669   1.623   1.703   6.265  0.3271  0.0923  0.4016
  418SOL     hw 1670   1.708   1.665   6.242 -0.5954 -1.1660 -1.1960
  418SOL     hw 1671   1.599   1.661   6.347  0.1711 -1.4676 -0.4035
  418SOL     vw 1672   1.631   1.693   6.272 -0.0737 -0.0097 -0.0482
  419SOL     ow 1673   0.768   1.837   2.430 -0.4550 -0.1479 -0.7054
  419SOL     hw 1674   0.858   1.815   2.408 -0.7230 -0.4032 -1.5770
  419SOL     hw 1675   0.721   1.836   2.346 -1.0428  1.0695 -0.4248
  419SOL     vw 1676   0.774   1.834   2.416  0.0150  0.0812  0.0676
  420SOL     ow 1677   0.312   2.260   4.247  0.6870 -0.2607 -0.1738
  420SOL     hw 1678   0.292   2.181   4.198 -0.5618 -0.0700 -0.0072
  420SOL     hw 1679   0.303   2.235   4.339  0.8152 -0.0620 -0.1051
  420SOL     vw 1680   0.308   2.246   4.253 -0.0762 -0.0604 -0.0031
  421SOL     ow 1681   1.114   0.964   2.558  0.3734  0.3910  0.1066
  421SOL     hw 1682   1.125   1.042   2.504 -0.4740  1.1000  0.9306
  421SOL     hw 1683   1.200   0.922   2.557  0.8889  1.4179 -0.2104
  421SOL     vw 1684   1.127   0.969   2.550 -0.0235 -0.0147  0.0188
  422SOL     ow 1685   1.137   0.211   5.057  0.1698 -0.2202 -0.4727
  422SOL     hw 1686   1.074   0.271   5.096 -1.8998 -0.6945 -2.7613
  422SOL     hw 1687   1.134   0.133   5.112  1.0339  0.8324  1.1195
  422SOL     vw 1688   1.128   0.209   5.069 -0.0023  0.0218  0.0174
  423SOL     ow 1689   1.619   1.091   3.913 -0.3166 -0.8511  0.0982
  423SOL     hw 1690   1.674   1.014   3.908  0.7027 -0.3308  2.1575
  423SOL     hw 1691   1.680   1.165   3.911 -1.0673 -0.1914  0.6173
  423SOL     vw 1692   1.634   1.091   3.912 -0.0089  0.0245  0.0055
  424SOL     ow 1693   0.072   1.848   1.893  0.6046  0.5879  0.1498
  424SOL     hw 1694   0.103   1.922   1.842  0.0989  0.3094 -0.5688
  424SOL     hw 1695  -0.010   1.877   1.933 -0.5203 -0.1298 -1.5363
  424SOL     vw 1696   0.066   1.861   1.892  0.1028 -0.0461 -0.0061
  425SOL     ow 1697   0.404   1.063   0.252  0.5292 -0.1054  0.1538
  425SOL     hw 1698   0.400   0.979   0.298  2.4141 -1.2008 -1.5197
  425SOL     hw 1699   0.497   1.079   0.239  0.1306  0.7958 -2.0592
  425SOL     vw 1700   0.415   1.054   0.256  0.0101  0.0238 -0.0252
  426SOL     ow 1701   0.199   0.669   0.179 -0.3349  0.7135 -1.3207
  426SOL     hw 1702   0.160   0.726   0.245 -1.1470 -0.8010 -0.4480
  426SOL     hw 1703   0.293   0.672   0.198 -0.7312 -2.6026  2.5280
  426SOL     vw 1704   0.207   0.677   0.190 -0.0898 -0.0198 -0.0114
  427SOL     ow 1705   1.158   0.945   6.668  0.2391 -0.5540  0.1678
  427SOL     hw 1706   1.213   0.887   6.720  0.7203 -0.9762 -0.7752
  427SOL     hw 1707   1.097   0.887   6.624 -0.3167 -0.1795  0.4358
  427SOL     vw 1708   1.157   0.930   6.669  0.0117  0.0120 -0.0126
  428SOL     ow 1709   1.796   1.327   3.965  0.1699 -0.3893  0.1223
  428SOL     hw 1710   1.820   1.305   4.055  2.1065  1.8495  0.2616
  428SOL     hw 1711   1.878   1.357   3.925 -1.0191  0.5451 -1.7845
  428SOL     vw 1712   1.810   1.328   3.971  0.0218 -0.0962 -0.0441
  429SOL     ow 1713   1.012   2.019   2.979 -0.3109  0.1346 -0.2820
  429SOL     hw 1714   1.088   2.062   3.017 -0.1479 -1.2940  1.1095
  429SOL     hw 1715   0.942   2.031   3.043 -0.5095 -0.8368 -0.2934
  429SOL     vw 1716   1.013   2.026   2.993  0.0094 -0.0470 -0.0403
  430SOL     ow 1717   0.694   0.046   4.516  0.2747 -0.5692 -0.2576
  430SOL     hw 1718   0.635   0.085   4.581  0.9351  0.3156 -0.1694
  430SOL     hw 1719   0.763   0.111   4.505  2.0525 -2.1872  0.7598
  430SOL     vw 1720   0.695   0.060   4.523 -0.0026 -0.0203  0.0098
  431SOL     ow 1721   1.341   1.063   5.359 -0.1280  0.6724  0.0463
  431SOL     hw 1722   1.410   0.997   5.352 -0.3236  0.3624  0.8778
  431SOL     hw 1723   1.330   1.096   5.270 -0.7547 -1.1643 -0.6015
  431SOL     vw 1724   1.348   1.058   5.346  0.0150 -0.0442 -0.0145
  432SOL     ow 1725   0.098   0.157   4.579 -0.2473 -0.5308  0.2281
  432SOL     hw 1726   0.100   0.252   4.591  0.0265 -0.4278 -0.5961
  432SOL     hw 1727   0.141   0.142   4.495 -1.3423 -1.2961 -0.2101
  432SOL     vw 1728   0.104   0.168   4.570  0.0177  0.0295 -0.0193
  433poe    c31 1729   2.001   2.090   3.859 -0.2818 -0.1012  0.2928
  433poe     o2 1730   1.867   2.049   3.846 -0.1598 -0.4228  0.0274
  433poe    c23 1731   1.856   1.932   3.768  0.1472 -0.2916 -0.2108
  433poe    c23 1732   1.835   1.965   3.619 -0.1716 -0.1157 -0.1260
  433poe     o2 1733   1.939   2.037   3.558 -0.1715 -0.1031 -0.1110
  433poe    c23 1734   1.912   2.082   3.427  0.1573 -0.0429 -0.1590
  433poe    c23 1735   2.031   2.050   3.334 -0.0739  0.0262 -0.4825
  433poe     o2 1736   2.150   2.124   3.351  0.3271 -0.6802 -0.1552
  433poe    c23 1737   2.262   2.069   3.287  0.3537 -0.5684 -0.2055
  433poe    c23 1738   2.388   2.157   3.302 -0.0538  0.0081 -0.1330
  433poe     o2 1739   2.401   2.274   3.224 -0.3347  0.1589  0.0474
  433poe    c31 1740   2.349   2.393   3.280 -0.2800  0.1968  0.0174
  434poe    c31 1741   1.231  -0.017   5.287  0.2579 -0.8178 -0.1482
  434poe     o2 1742   1.119   0.003   5.204 -0.2159  0.0364  0.6776
  434poe    c23 1743   1.059  -0.114   5.153 -0.3913  0.3851  0.0729
  434poe    c23 1744   0.970  -0.080   5.032  0.0077 -0.5072 -0.4827
  434poe     o2 1745   1.041  -0.066   4.911  0.7266 -0.4685 -0.0641
  434poe    c23 1746   0.963  -0.070   4.794  0.4026  0.1857  0.1232
  434poe    c23 1747   1.040  -0.049   4.662 -0.0521  0.5361 -0.0880
  434poe     o2 1748   1.101   0.077   4.647  0.7379  0.1635 -0.0335
  434poe    c23 1749   1.160   0.091   4.519 -0.5923  0.2531 -0.6535
  434poe    c23 1750   1.252   0.214   4.514  0.2938 -0.3697 -0.1311
  434poe     o2 1751   1.331   0.232   4.629 -0.0116 -0.1756  0.0505
  434poe    c31 1752   1.417   0.341   4.607  0.1718 -0.2455  0.4205
  435poe    c31 1753   0.140   0.678   6.164 -0.2468 -0.3428 -0.0752
  435poe     o2 1754   0.015   0.710   6.221 -0.1768  0.2451 -0.2471
  435poe    c23 1755   0.011   0.686   6.360 -0.4667 -0.1694 -0.3252
  435poe    c23 1756  -0.119   0.683   6.443 -0.1671 -0.5491  0.1309
  435poe     o2 1757  -0.186   0.804   6.465  0.1635 -0.2345 -0.5553
  435poe    c23 1758  -0.322   0.790   6.502  0.3140  0.0242  0.1218
  435poe    c23 1759  -0.384   0.919   6.557  0.4366  0.0007  0.3161
  435poe     o2 1760  -0.291   0.970   6.649  0.6937  0.5484 -0.2407
  435poe    c23 1761  -0.330   1.094   6.703 -0.1962  0.1367  0.0844
  435poe    c23 1762  -0.208   1.147   6.781 -0.0002  0.5369 -0.4860
  435poe     o2 1763  -0.093   1.148   6.700  0.2052 -0.1058 -0.2051
  435poe    c31 1764   0.021   1.193   6.770 -0.2757  0.5073  0.1855
  436poe    c31 1765   1.571   0.624   4.867 -0.0508 -0.0327  0.3711
  436poe     o2 1766   1.674   0.528   4.863  0.2119  0.2450  0.3619
  436poe    c23 1767   1.798   0.585   4.899  0.4380 -0.0455  0.0549
  436poe    c23 1768   1.913   0.484   4.889  0.1830 -0.3629  0.2933
  436poe     o2 1769   1.907   0.373   4.976  0.3419 -0.1397  0.5911
  436poe    c23 1770   2.004   0.278   4.938 -0.6738 -0.7584 -0.5190
  436poe    c23 1771   1.972   0.131   4.970 -0.5597 -0.5392  0.6512
  436poe     o2 1772   1.861   0.089   4.894 -0.0831 -0.6516  0.0159
  436poe    c23 1773   1.834  -0.049   4.904  0.0548 -0.6231  0.8440
  436poe    c23 1774   1.738  -0.092   4.791 -0.1712 -0.1981  0.8731
  436poe     o2 1775   1.621  -0.013   4.787  0.0317  0.0505 -0.7291
  436poe    c31 1776   1.585  -0.005   4.651 -0.1290 -0.1093 -0.6965
  437poe    c31 1777   2.416   1.577   2.132  0.0193  0.2207  0.3875
  437poe     o2 1778   2.424   1.718   2.127  0.1353  0.2030  0.0094
  437poe    c23 1779   2.298   1.781   2.119  0.1107  0.0137 -1.3497
  437poe    c23 1780   2.326   1.932   2.114  1.3017 -0.1646 -0.4919
  437poe     o2 1781   2.382   1.978   1.993  0.1546  0.2409 -0.8796
  437poe    c23 1782   2.395   2.118   1.983  0.2974  0.2007 -1.2553
  437poe    c23 1783   2.541   2.167   1.970  0.2641  0.6457 -0.0598
  437poe     o2 1784   2.590   2.138   1.841 -0.2161 -0.0047 -0.1002
  437poe    c23 1785   2.726   2.170   1.825 -0.3946  0.8141 -0.0341
  437poe    c23 1786   2.771   2.116   1.688 -0.0430  0.6300  0.1534
  437poe     o2 1787   2.790   1.979   1.712  0.0163  0.5843 -0.1498
  437poe    c31 1788   2.817   1.904   1.596 -0.4585  0.6129 -0.2800
  438poe    c31 1789   2.126   0.269   2.237  0.1264  0.3202 -0.2798
  438poe     o2 1790   2.006   0.280   2.163  0.0776 -0.5568 -0.3351
  438poe    c23 1791   1.961   0.413   2.158  0.3952 -0.4580 -0.6669
  438poe    c23 1792   1.836   0.415   2.069  0.3215  0.0005 -0.5554
  438poe     o2 1793   1.749   0.312   2.112 -0.1023  0.4351 -0.3543
  438poe    c23 1794   1.656   0.284   2.010 -0.3317  0.0279 -0.0314
  438poe    c23 1795   1.559   0.170   2.048 -0.2217 -0.0037  0.1562
  438poe     o2 1796   1.625   0.054   2.094  0.3163  0.3028  0.1656
  438poe    c23 1797   1.523  -0.025   2.151  0.3878 -0.4090 -0.6716
  438poe    c23 1798   1.461  -0.131   2.058 -0.4196 -0.5413  0.0006
  438poe     o2 1799   1.353  -0.085   1.980 -0.3524 -0.2232  0.0911
  438poe    c31 1800   1.390  -0.063   1.846  0.0228  0.1936  0.2599
  439poe    c31 1801   0.711   1.456   0.027  0.1246 -1.0399 -0.2140
  439poe     o2 1802   0.626   1.427  -0.082 -0.0392 -0.3264 -0.2785
  439poe    c23 1803   0.682   1.347  -0.184 -0.0027 -0.0821 -0.4513
  439poe    c23 1804   0.666   1.433  -0.311 -0.0511 -0.1748 -0.5076
  439poe     o2 1805   0.536   1.448  -0.364 -0.1086 -0.0087 -0.3218
  439poe    c23 1806   0.547   1.460  -0.504  0.3999  0.0147 -0.2816
  439poe    c23 1807   0.413   1.460  -0.580 -0.2432 -0.0972  0.8410
  439poe     o2 1808   0.338   1.343  -0.557 -0.4372 -0.0689  0.3666
  439poe    c23 1809   0.225   1.337  -0.641 -0.5212  0.1407  0.4626
  439poe    c23 1810   0.086   1.353  -0.577 -0.3581 -0.5133  0.9926
  439poe     o2 1811   0.070   1.479  -0.516 -0.2422 -0.7106  1.4364
  439poe    c31 1812  -0.065   1.496  -0.479 -0.9087 -0.0556 -1.0897
  440poe    c31 1813   0.179   0.483   0.949  0.0227  0.1016  0.2250
  440poe     o2 1814   0.298   0.424   0.901 -0.3170 -0.4255  0.0105
  440poe    c23 1815   0.349   0.483   0.783 -0.4134 -0.1655  0.0980
  440poe    c23 1816   0.482   0.417   0.744  0.0731  0.5033  0.6061
  440poe     o2 1817   0.471   0.277   0.748  0.0869  0.4502 -0.6758
  440poe    c23 1818   0.590   0.204   0.730  0.2232  0.4881  0.0331
  440poe    c23 1819   0.602   0.080   0.821 -0.5572  0.3727 -0.0186
  440poe     o2 1820   0.492  -0.005   0.799 -0.1435 -0.1125 -0.2257
  440poe    c23 1821   0.541  -0.136   0.779  0.4445  0.0985 -0.1686
  440poe    c23 1822   0.434  -0.239   0.738  0.7111 -0.3911  0.3533
  440poe     o2 1823   0.338  -0.268   0.836 -0.3820  0.0980 -0.5478
  440poe    c31 1824   0.245  -0.369   0.802 -0.2159 -0.2757  0.0896
  441poe    c31 1825   1.340   2.159   4.968 -0.0528  0.4477  0.1078
  441poe     o2 1826   1.416   2.234   5.060  0.1292  0.5527 -0.1281
  441poe    c23 1827   1.492   2.151   5.146 -0.8104 -0.1079  0.0808
  441poe    c23 1828   1.469   2.172   5.297  0.0823 -0.8791  0.3293
  441poe     o2 1829   1.488   2.301   5.351 -0.3717 -0.1749 -1.1294
  441poe    c23 1830   1.610   2.371   5.347 -0.5446  0.1737 -0.4731
  441poe    c23 1831   1.607   2.514   5.405  0.4316  0.1553 -0.3607
  441poe     o2 1832   1.553   2.597   5.305  0.1838  0.1483 -0.2327
  441poe    c23 1833   1.601   2.729   5.321  0.7290 -0.0915  0.1570
  441poe    c23 1834   1.560   2.835   5.217 -0.4089 -0.3319  0.3471
  441poe     o2 1835   1.420   2.855   5.221 -0.3537  0.2443 -0.4022
  441poe    c31 1836   1.374   2.957   5.135  0.2330  0.6295 -0.2613
  442poe    c31 1837   0.132   1.890   1.094  0.2383  0.2323 -0.2288
  442poe     o2 1838   0.014   1.950   1.045 -0.0611  0.2778  0.5251
  442poe    c23 1839  -0.025   2.067   1.113 -0.4863  0.3524  0.1502
  442poe    c23 1840  -0.139   2.138   1.035 -0.8300 -0.0849  0.2536
  442poe     o2 1841  -0.255   2.059   1.030 -0.7136 -0.2250 -0.2388
  442poe    c23 1842  -0.331   2.093   0.916 -0.4882  0.1054 -0.2887
  442poe    c23 1843  -0.456   2.005   0.899 -0.4786 -0.1011  0.6834
  442poe     o2 1844  -0.418   1.883   0.839 -0.4413  0.2802 -0.0848
  442poe    c23 1845  -0.532   1.807   0.806 -0.4453  0.1759  0.1620
  442poe    c23 1846  -0.611   1.822   0.674 -0.6043 -0.0786  0.2269
  442poe     o2 1847  -0.533   1.751   0.580 -0.1191  0.0221  0.5455
  442poe    c31 1848  -0.599   1.743   0.456  0.0941 -0.5144  0.4649
  443poe    c31 1849   0.409   1.950   5.535 -0.3451  0.7260  0.0881
  443poe     o2 1850   0.308   1.900   5.619  0.2801 -0.2579  0.2842
  443poe    c23 1851   0.189   1.973   5.598  0.3235 -0.3324 -0.2303
  443poe    c23 1852   0.072   1.954   5.698  0.6453 -0.3077  0.1533
  443poe     o2 1853   0.112   1.966   5.832  0.0223  0.1154  0.3041
  443poe    c23 1854   0.009   1.988   5.926  0.0588 -0.1225  0.4009
  443poe    c23 1855  -0.047   1.861   5.993 -0.0627 -0.0127  0.5074
  443poe     o2 1856   0.052   1.802   6.074  0.3694 -0.0207 -0.0194
  443poe    c23 1857   0.007   1.737   6.191  0.3548  0.2076  0.1023
  443poe    c23 1858   0.008   1.841   6.304 -0.1256 -0.1715  0.4597
  443poe     o2 1859   0.135   1.892   6.339  0.2690 -0.7566 -0.1123
  443poe    c31 1860   0.162   1.917   6.475 -0.6865  0.1153 -0.0723
  444poe    c31 1861   0.350   1.928   6.855  0.1060 -0.2143  0.5648
  444poe     o2 1862   0.452   1.869   6.777 -0.0929  0.0610  0.0943
  444poe    c23 1863   0.550   1.961   6.734 -0.2430  0.0301 -0.3175
  444poe    c23 1864   0.682   1.884   6.754 -0.1889  0.2293  0.1083
  444poe     o2 1865   0.713   1.868   6.890 -0.1001 -0.1106  0.0475
  444poe    c23 1866   0.849   1.833   6.899  0.1590  0.6945 -0.6165
  444poe    c23 1867   0.928   1.851   7.030 -0.2251  0.3794 -0.3405
  444poe     o2 1868   0.960   1.988   7.032 -0.2211  0.3743  0.1165
  444poe    c23 1869   1.061   2.003   7.130 -0.0945  0.1150  0.0252
  444poe    c23 1870   1.123   2.143   7.138  0.2652 -0.0063 -0.5536
  444poe     o2 1871   1.170   2.168   7.007 -0.2491 -0.0461 -0.7473
  444poe    c31 1872   1.253   2.281   7.017 -0.5466  0.1028  0.1208
  445poe    c31 1873   0.203   1.414   3.146 -0.6142  0.1885 -0.1155
  445poe     o2 1874   0.269   1.440   3.024 -0.6733 -0.4579 -0.2839
  445poe    c23 1875   0.353   1.332   2.988  0.4502  0.3299 -0.0923
  445poe    c23 1876   0.292   1.220   2.901 -0.3746  1.0011 -0.3976
  445poe     o2 1877   0.203   1.140   2.974  0.5091  0.2943 -0.0763
  445poe    c23 1878   0.091   1.127   2.889  0.6393 -0.2384 -0.1716
  445poe    c23 1879  -0.020   1.056   2.968 -0.2440  0.4335 -0.7807
  445poe     o2 1880   0.023   0.940   3.036  0.1162  0.6633 -0.6102
  445poe    c23 1881  -0.067   0.838   2.997 -0.1613  0.4236  0.6231
  445poe    c23 1882   0.001   0.700   3.003  0.5281  0.7264  0.0277
  445poe     o2 1883   0.032   0.668   3.137 -0.5808  0.5977  0.2640
  445poe    c31 1884   0.072   0.533   3.137 -0.1246  0.7322 -0.2273
  446poe    c31 1885   1.396   0.412   6.895 -0.5190  0.1721 -0.8757
  446poe     o2 1886   1.292   0.506   6.883 -0.6153  0.2198  0.2185
  446poe    c23 1887   1.348   0.636   6.876 -0.3844  0.1256  0.3061
  446poe    c23 1888   1.256   0.754   6.910 -0.1543  0.5142 -0.3970
  446poe     o2 1889   1.201   0.739   7.039  0.1887  0.3220 -0.2711
  446poe    c23 1890   1.109   0.839   7.078  0.2322  0.1766  0.2067
  446poe    c23 1891   1.078   0.832   7.229 -0.5594  0.4229  0.0618
  446poe     o2 1892   1.032   0.703   7.265  0.2808  0.1014  0.0101
  446poe    c23 1893   1.008   0.712   7.404 -0.4288  0.2468 -0.1198
  446poe    c23 1894   0.961   0.583   7.473  0.5320  0.1120  0.2934
  446poe     o2 1895   0.822   0.564   7.456  0.5732 -0.0213  0.1107
  446poe    c31 1896   0.791   0.430   7.426 -0.0110  0.2132 -0.3558
  447poe    c31 1897   1.575   1.203   1.668  0.3787  0.5254 -0.2484
  447poe     o2 1898   1.470   1.287   1.711  0.0191  0.1918 -0.4548
  447poe    c23 1899   1.459   1.395   1.621  0.6278  0.6743  0.0373
  447poe    c23 1900   1.405   1.530   1.673 -0.2267  0.4316 -0.2042
  447poe     o2 1901   1.283   1.527   1.742  0.0938  0.5870  0.3744
  447poe    c23 1902   1.274   1.648   1.814  0.7834  0.6485  0.3559
  447poe    c23 1903   1.318   1.621   1.960  0.1454 -0.0811  0.4204
  447poe     o2 1904   1.445   1.562   1.978  0.1065 -0.4398 -0.4202
  447poe    c23 1905   1.570   1.625   1.988 -0.2162  0.1719 -0.1512
  447poe    c23 1906   1.586   1.671   2.134 -0.1316 -0.4570  0.0422
  447poe     o2 1907   1.574   1.570   2.231  0.4984 -0.2712  0.3183
  447poe    c31 1908   1.562   1.634   2.356 -0.8948 -0.1693  0.1458
  448poe    c31 1909   0.615   2.446   2.674  0.6602 -0.2237 -0.2337
  448poe     o2 1910   0.623   2.358   2.564 -0.7407 -0.6724  0.0030
  448poe    c23 1911   0.640   2.420   2.439 -0.0675 -0.3872  0.2297
  448poe    c23 1912   0.517   2.473   2.363  0.0945  0.1442  0.3342
  448poe     o2 1913   0.459   2.354   2.313 -0.3232  0.3551  0.3075
  448poe    c23 1914   0.351   2.380   2.227  0.1397 -0.1999 -0.4575
  448poe    c23 1915   0.290   2.241   2.203 -0.0944 -0.1167 -0.3559
  448poe     o2 1916   0.257   2.175   2.323  0.1182 -0.0034 -0.2349
  448poe    c23 1917   0.201   2.047   2.307 -0.2530  0.1436 -0.1288
  448poe    c23 1918   0.145   1.987   2.437 -0.1928 -0.6222 -0.4493
  448poe     o2 1919   0.232   1.965   2.546 -0.1239 -0.2719 -0.4326
  448poe    c31 1920   0.328   1.866   2.514  0.4455  0.0821  0.1636
  449poe    c31 1921   1.595   2.147   0.809  0.6654  0.3639  0.1619
  449poe     o2 1922   1.479   2.190   0.877  0.3400 -0.4738  0.1380
  449poe    c23 1923   1.400   2.081   0.919 -0.0734 -0.1151  0.2925
  449poe    c23 1924   1.312   2.118   1.040  0.1327  0.6503  0.2135
  449poe     o2 1925   1.391   2.145   1.153  0.9489  0.4113 -0.2974
  449poe    c23 1926   1.315   2.195   1.260  0.8487 -1.1022  0.3589
  449poe    c23 1927   1.394   2.234   1.386 -0.3225  0.3500  0.6696
  449poe     o2 1928   1.517   2.297   1.358 -0.0823 -0.3673  0.1025
  449poe    c23 1929   1.574   2.351   1.475  0.0748 -0.0648 -0.1152
  449poe    c23 1930   1.715   2.398   1.434 -0.1670  0.7806 -0.0091
  449poe     o2 1931   1.719   2.426   1.296 -0.4898  0.2088 -0.1370
  449poe    c31 1932   1.848   2.476   1.269 -0.1398 -0.4227  0.3382
  450poe    c31 1933   0.816   1.511   2.751  0.2971  0.8943 -0.1934
  450poe     o2 1934   0.934   1.571   2.799  0.3858  0.4921  0.0931
  450poe    c23 1935   1.045   1.527   2.724 -0.1486 -0.2586 -0.2714
  450poe    c23 1936   1.170   1.617   2.723 -0.0550 -0.3906 -0.8647
  450poe     o2 1937   1.288   1.546   2.756 -0.4448 -0.5483  0.2373
  450poe    c23 1938   1.404   1.617   2.720 -0.6542 -0.2155  0.2159
  450poe    c23 1939   1.533   1.534   2.736 -0.5623 -0.0983  0.0787
  450poe     o2 1940   1.549   1.422   2.652  0.3090 -0.4592  0.7182
  450poe    c23 1941   1.679   1.368   2.655  0.1539 -0.8290  0.7842
  450poe    c23 1942   1.689   1.224   2.602 -0.4078 -0.5447 -0.1033
  450poe     o2 1943   1.665   1.116   2.690 -0.3816 -0.1716  0.3631
  450poe    c31 1944   1.714   0.991   2.649 -0.3093 -0.0555  0.0931
  451poe    c31 1945   0.719   1.264   4.885 -1.0667 -0.7374  0.2115
  451poe     o2 1946   0.726   1.216   4.752 -0.0662  0.5136 -0.2075
  451poe    c23 1947   0.850   1.248   4.693  0.0982 -0.0188 -0.1566
  451poe    c23 1948   0.860   1.215   4.543 -0.1878 -0.6078 -0.0500
  451poe     o2 1949   0.774   1.287   4.457  0.0639  0.2270  0.3910
  451poe    c23 1950   0.847   1.290   4.336 -0.3120  0.3286  0.1660
  451poe    c23 1951   0.825   1.409   4.241 -0.2940  0.1184 -0.1045
  451poe     o2 1952   0.903   1.514   4.294 -0.5476  0.3014 -0.0941
  451poe    c23 1953   0.896   1.630   4.213 -0.1450  0.1754 -0.3128
  451poe    c23 1954   0.967   1.750   4.278  0.2523 -0.0844 -0.2661
  451poe     o2 1955   0.920   1.785   4.405  0.0141 -0.3436 -0.2828
  451poe    c31 1956   0.984   1.909   4.420 -0.3695 -0.1287 -0.4043
  452poe    c31 1957   1.381   0.323   0.542  0.0432  0.3301  0.2537
  452poe     o2 1958   1.441   0.404   0.444 -0.8763  0.0139 -0.5789
  452poe    c23 1959   1.355   0.460   0.347 -0.7588  1.0462 -0.1007
  452poe    c23 1960   1.427   0.543   0.240  0.0917  0.2618 -0.1477
  452poe     o2 1961   1.482   0.649   0.315 -0.8634  0.8239 -0.2271
  452poe    c23 1962   1.535   0.746   0.228  0.1522  0.2131 -0.3034
  452poe    c23 1963   1.620   0.850   0.303 -0.1310  0.3028 -0.1062
  452poe     o2 1964   1.716   0.778   0.377 -0.1701  0.0195 -0.3314
  452poe    c23 1965   1.827   0.858   0.410 -0.0579 -0.1170 -0.3779
  452poe    c23 1966   1.953   0.774   0.436 -0.1684 -0.1598  0.0238
  452poe     o2 1967   1.907   0.651   0.489 -0.3899  0.0312  0.2744
  452poe    c31 1968   1.936   0.646   0.627  0.1366 -0.7134  0.1397
  453poe    c31 1969   0.348   1.287   4.970 -0.0190 -0.0990  0.2727
  453poe     o2 1970   0.237   1.348   5.033  0.2063  0.1913  0.3909
  453poe    c23 1971   0.192   1.256   5.129  0.0942 -0.4285 -0.2513
  453poe    c23 1972   0.047   1.281   5.174  0.2562 -0.3740  0.2518
  453poe     o2 1973   0.041   1.381   5.273  0.5453 -0.2937  0.1886
  453poe    c23 1974  -0.095   1.384   5.312  0.4235 -0.0514 -0.2418
  453poe    c23 1975  -0.108   1.392   5.465 -0.6957  0.0673 -0.3357
  453poe     o2 1976  -0.108   1.518   5.528 -0.1734 -0.1637  0.1327
  453poe    c23 1977  -0.190   1.517   5.643  0.3408 -0.2637  0.5024
  453poe    c23 1978  -0.207   1.662   5.692  0.3116 -0.1629  0.1977
  453poe     o2 1979  -0.305   1.747   5.637  0.2546 -0.2279  0.1984
  453poe    c31 1980  -0.312   1.861   5.720 -0.1699  0.3358 -0.5993
  454poe    c31 1981   1.186   1.471   6.492 -0.0250 -0.0601 -0.2302
  454poe     o2 1982   1.289   1.476   6.395  0.1040 -0.1367 -0.0965
  454poe    c23 1983   1.271   1.366   6.309  0.2569 -0.0740 -0.2087
  454poe    c23 1984   1.397   1.330   6.229  0.7316  0.0070  0.4970
  454poe     o2 1985   1.426   1.434   6.139  0.0194 -0.4209 -0.2377
  454poe    c23 1986   1.551   1.414   6.077  0.2896 -0.0056  0.1672
  454poe    c23 1987   1.557   1.501   5.950 -1.1831 -0.0100  0.0773
  454poe     o2 1988   1.519   1.630   5.993 -0.1451  0.2996  0.0792
  454poe    c23 1989   1.466   1.707   5.887  0.5532  0.1416 -0.3905
  454poe    c23 1990   1.512   1.850   5.922  0.5087 -0.0618  0.5152
  454poe     o2 1991   1.457   1.851   6.052 -0.0064 -0.2191  0.3041
  454poe    c31 1992   1.415   1.982   6.083 -0.4304  0.0413 -1.3264
  455poe    c31 1993   2.151   1.772   4.064  0.4571 -0.0150 -0.1460
  455poe     o2 1994   2.255   1.864   4.041  0.2547  0.1411 -0.4420
  455poe    c23 1995   2.302   1.914   4.164 -0.3084 -0.1971 -0.0849
  455poe    c23 1996   2.413   2.017   4.133 -0.2274 -0.2375  0.0719
  455poe     o2 1997   2.531   1.979   4.066 -0.1472  0.5660 -0.2556
  455poe    c23 1998   2.615   1.916   4.159 -0.4291  0.0632 -0.3357
  455poe    c23 1999   2.763   1.905   4.116 -0.3457  0.0710 -0.0589
  455poe     o2 2000   2.826   2.030   4.099 -0.3101  0.0189 -0.3242
  455poe    c23 2001   2.950   2.006   4.036 -0.0887  0.0867  0.0830
  455poe    c23 2002   3.025   2.121   3.968 -0.4929  0.6142  0.5173
  455poe     o2 2003   3.038   2.237   4.047  0.1255  0.5887  0.4587
  455poe    c31 2004   3.157   2.300   4.004 -0.0018  0.3026 -0.3160
  456poe    c31 2005   2.025   1.681   5.220 -0.9269 -0.0971  0.0239
  456poe     o2 2006   2.045   1.647   5.085 -0.4988  0.0560  0.0464
  456poe    c23 2007   2.180   1.673   5.052 -0.5065  0.1206  0.0669
  456poe    c23 2008   2.189   1.653   4.900 -0.6018  0.3093  0.0367
  456poe     o2 2009   2.077   1.710   4.836 -0.5104  0.0728 -0.3408
  456poe    c23 2010   2.107   1.707   4.699 -0.3346 -0.1539 -0.2974
  456poe    c23 2011   2.037   1.823   4.626 -0.6503  0.1097  0.4134
  456poe     o2 2012   1.897   1.813   4.622 -0.6049 -0.3877 -0.1102
  456poe    c23 2013   1.854   1.938   4.574  0.4358 -0.0349 -0.1543
  456poe    c23 2014   1.704   1.953   4.605  0.3438 -0.6290 -0.2929
  456poe     o2 2015   1.636   1.873   4.510 -0.1120 -0.2972 -0.2537
  456poe    c31 2016   1.519   1.825   4.571 -0.4567  0.4245 -0.3412
  457poe    c31 2017   2.264   1.938   0.309  0.1486  0.0673  0.1488
  457poe     o2 2018   2.364   1.985   0.397 -0.0584 -0.1400  0.5013
  457poe    c23 2019   2.312   2.040   0.516 -0.0632  0.4207  0.2413
  457poe    c23 2020   2.422   2.118   0.591  0.6168 -0.4678  0.1789
  457poe     o2 2021   2.477   2.239   0.545 -0.5157 -0.0522 -0.1136
  457poe    c23 2022   2.393   2.352   0.551 -0.3696  0.0279  0.6116
  457poe    c23 2023   2.433   2.480   0.475 -0.3796 -0.4265 -0.1742
  457poe     o2 2024   2.547   2.550   0.520 -0.5576 -0.3693  0.1904
  457poe    c23 2025   2.668   2.480   0.508 -0.3799  0.0777 -0.6993
  457poe    c23 2026   2.802   2.555   0.522 -0.0991 -0.5663  0.1199
  457poe     o2 2027   2.827   2.638   0.412 -0.1378 -0.3051  0.3076
  457poe    c31 2028   2.953   2.702   0.412 -0.1409 -0.2960 -0.1671
  458poe    c31 2029   0.486   1.070   4.408  0.3395  0.1013  0.6624
  458poe     o2 2030   0.487   1.208   4.377 -0.2680 -0.0249  0.0692
  458poe    c23 2031   0.432   1.246   4.253  0.4760  0.3799 -0.1410
  458poe    c23 2032   0.480   1.384   4.205  0.6346  0.3768  0.0104
  458poe     o2 2033   0.466   1.481   4.306 -0.3326  0.1297  0.1183
  458poe    c23 2034   0.523   1.604   4.267  0.1088 -0.1208 -0.0244
  458poe    c23 2035   0.501   1.720   4.365 -0.8918 -0.5826  0.3090
  458poe     o2 2036   0.557   1.703   4.494 -0.0623 -0.3137 -0.0116
  458poe    c23 2037   0.506   1.793   4.589  0.5932 -0.2268  0.2595
  458poe    c23 2038   0.586   1.789   4.721  0.4252  0.3679  0.3826
  458poe     o2 2039   0.630   1.656   4.741 -0.0659  0.0904 -0.3614
  458poe    c31 2040   0.640   1.642   4.881  0.0532 -0.2853 -0.4073
  459poe    c31 2041   0.601   2.054   1.017  0.3644 -0.3657  0.5787
  459poe     o2 2042   0.616   2.107   1.147  0.4375  0.0932  0.3842
  459poe    c23 2043   0.641   2.003   1.239  0.0852 -0.1349  0.2228
  459poe    c23 2044   0.684   2.044   1.381  0.0369 -0.3510  0.2997
  459poe     o2 2045   0.804   2.115   1.401 -0.2468  0.2326 -0.0478
  459poe    c23 2046   0.829   2.151   1.535  0.0065 -0.5854  0.1353
  459poe    c23 2047   0.950   2.246   1.552 -0.5158  0.0271  0.4920
  459poe     o2 2048   0.934   2.376   1.501  0.1459 -0.1131 -0.0904
  459poe    c23 2049   0.854   2.455   1.586  0.1223 -0.2389  0.0035
  459poe    c23 2050   0.822   2.592   1.524  0.0796 -0.5025 -0.5597
  459poe     o2 2051   0.938   2.673   1.523 -0.2733  0.0567  1.0096
  459poe    c31 2052   0.912   2.802   1.573  0.3244  0.3512  0.5656
  460poe    c31 2053   0.587   0.654   2.506 -0.1277  0.2153 -0.0933
  460poe     o2 2054   0.502   0.735   2.429 -0.1336  0.1288 -0.1788
  460poe    c23 2055   0.408   0.798   2.514 -0.3043  0.0589 -0.3144
  460poe    c23 2056   0.433   0.931   2.588 -0.1297 -0.0792 -0.1232
  460poe     o2 2057   0.535   0.933   2.685  0.1623 -0.2559 -0.4232
  460poe    c23 2058   0.491   0.886   2.811  0.2642 -0.1692 -0.3556
  460poe    c23 2059   0.613   0.846   2.895 -0.0564 -0.3436  0.0296
  460poe     o2 2060   0.693   0.751   2.828  0.4695  0.1206 -0.0099
  460poe    c23 2061   0.697   0.630   2.900 -0.5485 -0.0064 -0.1587
  460poe    c23 2062   0.722   0.502   2.817 -0.6597  0.1649 -0.4605
  460poe     o2 2063   0.848   0.485   2.757 -0.3984  0.4347  0.0072
  460poe    c31 2064   0.852   0.384   2.659 -0.6889  0.4728 -0.0456
  461poe    c31 2065   2.389   1.216   1.107  0.4675  0.1743 -0.3747
  461poe     o2 2066   2.338   1.319   1.188  0.1293  0.3247 -0.7727
  461poe    c23 2067   2.344   1.285   1.325 -0.4190 -0.5162 -0.9469
  461poe    c23 2068   2.281   1.386   1.422  0.7810 -0.3928 -0.2725
  461poe     o2 2069   2.333   1.516   1.440  0.1644 -0.2202  0.3260
  461poe    c23 2070   2.252   1.594   1.525 -0.0499  0.5803 -0.5840
  461poe    c23 2071   2.319   1.712   1.597  0.2581  0.2537 -0.3319
  461poe     o2 2072   2.372   1.807   1.508 -0.5173  0.7102 -0.3188
  461poe    c23 2073   2.449   1.899   1.581 -0.2646  0.1945  0.0701
  461poe    c23 2074   2.404   2.045   1.560 -0.3172  0.2086  0.2837
  461poe     o2 2075   2.423   2.093   1.429  0.2839  0.1481  0.3486
  461poe    c31 2076   2.440   2.233   1.419 -0.2497  0.1819 -0.0680
  462poe    c31 2077   1.203   0.115   5.976 -0.6489 -0.5122 -0.4299
  462poe     o2 2078   1.198   0.120   5.835 -0.2594 -0.2539 -0.4377
  462poe    c23 2079   1.304   0.200   5.789 -0.0528 -0.3740 -0.1734
  462poe    c23 2080   1.295   0.218   5.636  0.3411  0.2790 -0.1223
  462poe     o2 2081   1.191   0.297   5.583 -0.0198  0.2516  0.5341
  462poe    c23 2082   1.071   0.224   5.569  0.1333  0.1881 -0.5090
  462poe    c23 2083   0.976   0.316   5.490  0.2743  0.1392 -0.7385
  462poe     o2 2084   1.003   0.442   5.546 -0.2619  0.0094 -0.1702
  462poe    c23 2085   0.901   0.532   5.510 -0.2275  0.0581 -0.1466
  462poe    c23 2086   0.975   0.668   5.507  0.1724 -0.1598 -0.2691
  462poe     o2 2087   1.096   0.655   5.436  0.3117  0.1802 -0.0933
  462poe    c31 2088   1.150   0.782   5.405  0.5324  0.0819 -0.1173
  463poe    c31 2089   1.973   1.007   3.851  0.0309  0.4771 -0.7771
  463poe     o2 2090   2.082   1.011   3.940 -0.7616 -0.4737  0.2801
  463poe    c23 2091   2.132   0.879   3.942  0.2102 -0.1196  0.2012
  463poe    c23 2092   2.213   0.863   4.072  0.0604  0.0818  0.3198
  463poe     o2 2093   2.306   0.969   4.083 -0.3147  0.4064  0.3961
  463poe    c23 2094   2.374   0.944   4.205 -0.0140 -0.8360 -0.0048
  463poe    c23 2095   2.492   1.044   4.198 -0.7642  0.0789  0.1412
  463poe     o2 2096   2.437   1.172   4.177 -0.8311  0.1916  0.9466
  463poe    c23 2097   2.537   1.271   4.180 -0.6021 -0.0247  0.5982
  463poe    c23 2098   2.474   1.409   4.158  0.3952  0.3531  0.0646
  463poe     o2 2099   2.442   1.416   4.021 -0.2471 -0.4352  0.1691
  463poe    c31 2100   2.488   1.537   3.964 -0.3887 -0.4593  0.0046
  464poe    c31 2101   0.441   2.348   1.474  0.3366 -0.1497 -0.6745
  464poe     o2 2102   0.448   2.488   1.454  0.6289 -0.0692 -0.0433
  464poe    c23 2103   0.453   2.550   1.580 -0.1477 -0.5989  0.2611
  464poe    c23 2104   0.436   2.703   1.583  0.4887 -0.5168 -0.2048
  464poe     o2 2105   0.310   2.748   1.539  0.3126  0.0266  0.8297
  464poe    c23 2106   0.250   2.843   1.625 -0.4581 -0.1293  0.4712
  464poe    c23 2107   0.183   2.948   1.534 -0.0433 -0.4640 -0.2335
  464poe     o2 2108   0.267   3.030   1.457  0.2204 -0.4987  0.0164
  464poe    c23 2109   0.203   3.154   1.438  0.2565 -0.3357  0.9242
  464poe    c23 2110   0.311   3.255   1.395 -0.0291 -0.3213  0.2181
  464poe     o2 2111   0.286   3.385   1.442 -0.3734 -0.1813 -0.3554
  464poe    c31 2112   0.323   3.494   1.360  0.4060  0.3138  0.6314
  465poe    c31 2113   0.670   0.632   1.401  0.0868  0.4696 -0.7271
  465poe     o2 2114   0.740   0.722   1.485  0.1644 -0.0871 -0.1871
  465poe    c23 2115   0.649   0.768   1.583  0.0445  0.4574 -0.5461
  465poe    c23 2116   0.664   0.913   1.632  0.1995  0.3133 -0.1619
  465poe     o2 2117   0.777   0.938   1.713  0.4083  0.2146 -0.4208
  465poe    c23 2118   0.814   1.074   1.723 -0.1654  0.3505 -0.0711
  465poe    c23 2119   0.855   1.118   1.865 -0.6815 -0.0511  0.2083
  465poe     o2 2120   0.989   1.083   1.892 -0.7432 -0.0053  0.5788
  465poe    c23 2121   1.007   0.956   1.950  0.0290 -0.1628  0.0166
  465poe    c23 2122   1.155   0.931   1.985 -0.0387  0.1789  0.5469
  465poe     o2 2123   1.236   0.972   1.878  0.0149 -0.3325  0.3928
  465poe    c31 2124   1.370   0.976   1.922  0.0632  0.5507  0.1755
  466poe    c31 2125   1.116   0.179   3.856 -0.0068  0.0127 -0.1224
  466poe     o2 2126   1.052   0.129   3.741 -0.5074 -0.2621  0.2678
  466poe    c23 2127   1.013  -0.006   3.749 -0.2569 -0.3364  0.2211
  466poe    c23 2128   0.943  -0.022   3.613 -0.8203  0.0976  0.4560
  466poe     o2 2129   0.891   0.098   3.561 -0.1391  0.3211  0.2770
  466poe    c23 2130   0.856   0.060   3.429  0.1768 -0.0953  0.3119
  466poe    c23 2131   0.765   0.156   3.351  0.4982 -0.0677 -0.0300
  466poe     o2 2132   0.808   0.291   3.353  0.0706  0.0722 -0.1593
  466poe    c23 2133   0.706   0.369   3.295  0.0430  0.2309  0.1010
  466poe    c23 2134   0.738   0.519   3.302 -0.2920  0.2936  0.3183
  466poe     o2 2135   0.745   0.514   3.443  0.0782 -0.3678  0.2797
  466poe    c31 2136   0.667   0.606   3.516  0.0614 -0.3950  0.2963
  467poe    c31 2137   1.969   0.873   1.883 -0.3046  0.3245  0.1440
  467poe     o2 2138   2.037   0.815   1.774 -0.7553  0.1517 -0.0468
  467poe    c23 2139   2.096   0.921   1.702  0.2598 -0.5646 -0.2929
  467poe    c23 2140   2.216   0.876   1.617  0.2318 -0.1526 -0.5532
  467poe     o2 2141   2.163   0.763   1.552  0.5118 -0.6624  0.0946
  467poe    c23 2142   2.262   0.697   1.475  0.4426  0.0894 -0.6599
  467poe    c23 2143   2.190   0.568   1.430  0.8324 -0.2289 -0.3835
  467poe     o2 2144   2.123   0.498   1.532  1.1194 -0.0060 -0.0423
  467poe    c23 2145   2.056   0.388   1.476  0.4791  0.2779  0.1583
  467poe    c23 2146   2.052   0.271   1.576  0.2996  0.0941 -0.0625
  467poe     o2 2147   1.987   0.300   1.698  0.5298  0.5478 -0.0452
  467poe    c31 2148   1.930   0.184   1.754  0.6938  0.3356 -0.3145
  468poe    c31 2149   0.970   1.200   0.496  0.3225  0.4032 -0.3884
  468poe     o2 2150   1.028   1.303   0.573 -0.0889 -0.3977  1.0315
  468poe    c23 2151   1.024   1.429   0.510  0.1199 -0.9073 -0.0165
  468poe    c23 2152   1.000   1.555   0.595  0.4645 -0.4117 -0.6442
  468poe     o2 2153   1.101   1.562   0.693  0.2267  0.4969 -0.4581
  468poe    c23 2154   1.101   1.675   0.777 -0.4851 -0.1997  0.5028
  468poe    c23 2155   1.223   1.684   0.871 -0.1526  0.1394  0.0439
  468poe     o2 2156   1.202   1.774   0.977  0.0595  0.3008 -0.0506
  468poe    c23 2157   1.251   1.723   1.099  0.2493 -0.0266 -0.2634
  468poe    c23 2158   1.220   1.815   1.219  0.7976 -0.5874  0.3167
  468poe     o2 2159   1.083   1.805   1.250  0.7787  0.0143  0.4429
  468poe    c31 2160   1.079   1.749   1.379 -0.0111 -0.0681  0.3853
  469poe    c31 2161   1.480   0.917   5.960  0.5937 -0.0899 -0.1454
  469poe     o2 2162   1.504   1.032   5.882  0.3865 -0.4238 -0.7096
  469poe    c23 2163   1.624   1.006   5.813  0.8572 -0.3106  0.0438
  469poe    c23 2164   1.660   1.088   5.687  0.3138  0.2039  0.2172
  469poe     o2 2165   1.691   1.223   5.716  0.1717  0.1278  0.7356
  469poe    c23 2166   1.811   1.227   5.642 -0.0436  0.2760  0.3917
  469poe    c23 2167   1.887   1.360   5.636  0.2237  0.1413  0.7795
  469poe     o2 2168   1.816   1.477   5.602 -0.1630 -0.3230 -0.0356
  469poe    c23 2169   1.903   1.588   5.590 -0.3329 -0.1612  0.2237
  469poe    c23 2170   1.841   1.728   5.585 -0.3533 -0.1765  0.0647
  469poe     o2 2171   1.761   1.743   5.470 -0.2070  0.1809  0.0091
  469poe    c31 2172   1.722   1.879   5.459  0.2887  0.3354  0.1513
  470poe    c31 2173   1.637   2.121   6.370 -0.4774  0.0012 -0.1760
  470poe     o2 2174   1.579   2.242   6.414  0.4846  0.1867  0.6316
  470poe    c23 2175   1.582   2.325   6.300 -0.2973  0.2799  0.6690
  470poe    c23 2176   1.446   2.314   6.230 -0.0404  0.5599  0.1191
  470poe     o2 2177   1.332   2.355   6.302 -0.4918 -0.7565  0.1796
  470poe    c23 2178   1.212   2.359   6.227 -0.0655  0.0930 -0.4721
  470poe    c23 2179   1.134   2.227   6.216 -0.7307  0.4188  0.2938
  470poe     o2 2180   1.102   2.197   6.350 -0.5943  0.0070  0.2351
  470poe    c23 2181   1.018   2.084   6.348 -0.0801 -0.3777  0.1768
  470poe    c23 2182   0.912   2.117   6.455 -0.2979  0.2019 -0.2116
  470poe     o2 2183   0.850   2.242   6.438 -0.1301  0.2798 -0.2445
  470poe    c31 2184   0.803   2.302   6.556  0.3961 -0.3792  0.3032
  471poe    c31 2185   0.263   0.554   2.044  0.2733 -0.3082 -0.5627
  471poe     o2 2186   0.150   0.629   2.085 -0.0141 -0.9681 -0.1267
  471poe    c23 2187   0.044   0.615   1.993 -0.1298  0.0573 -0.1590
  471poe    c23 2188  -0.074   0.706   2.031 -0.1734 -0.2099  0.3559
  471poe     o2 2189  -0.048   0.840   1.996 -0.5511 -0.2854 -0.2200
  471poe    c23 2190  -0.102   0.930   2.089  0.2961 -0.0239  0.0301
  471poe    c23 2191  -0.064   1.079   2.091  0.4607 -0.0631 -0.2167
  471poe     o2 2192  -0.082   1.136   1.963  0.0753 -0.1864 -0.2161
  471poe    c23 2193  -0.047   1.272   1.974 -0.4015 -0.0867  0.0911
  471poe    c23 2194  -0.040   1.328   1.831  0.2605  0.0256  0.1651
  471poe     o2 2195   0.078   1.280   1.771  0.5393  0.1135  0.6351
  471poe    c31 2196   0.117   1.358   1.659  0.4181  0.5495  0.8939
  472poe    c31 2197   1.217   2.482   2.875 -0.2870  0.0233  0.1935
  472poe     o2 2198   1.268   2.535   2.755  0.2982  0.2078  0.5192
  472poe    c23 2199   1.175   2.629   2.706 -0.2011 -0.8785 -0.6843
  472poe    c23 2200   1.230   2.693   2.578 -0.1901  0.5037 -0.0058
  472poe     o2 2201   1.370   2.692   2.594 -0.2112 -0.1880  0.1409
  472poe    c23 2202   1.425   2.785   2.504 -0.2598  0.5432  0.8544
  472poe    c23 2203   1.578   2.776   2.483 -0.4361  0.0639 -0.3429
  472poe     o2 2204   1.607   2.641   2.456 -0.1493  0.0948 -0.1938
  472poe    c23 2205   1.745   2.617   2.468 -0.1929  0.0170  0.1829
  472poe    c23 2206   1.781   2.476   2.418  0.6929  0.1299  0.4729
  472poe     o2 2207   1.713   2.371   2.483 -0.2336  0.0684 -0.5653
  472poe    c31 2208   1.713   2.247   2.415 -0.5734  0.1622 -0.7371
  473poe    c31 2209   0.872   1.249   0.893 -0.3501 -0.5393  0.2464
  473poe     o2 2210   1.004   1.281   0.932 -0.6679  0.6091  0.4196
  473poe    c23 2211   1.041   1.291   1.067  0.4336  0.2173  0.1573
  473poe    c23 2212   1.039   1.146   1.120  0.3196  0.2692  0.2969
  473poe     o2 2213   1.127   1.070   1.041 -0.2862  0.0951 -0.2233
  473poe    c23 2214   1.089   0.935   1.019  0.5759 -0.2031  0.0737
  473poe    c23 2215   1.218   0.852   1.029  0.8057  0.1265 -0.1082
  473poe     o2 2216   1.255   0.853   1.165 -0.0750 -0.1556  0.1400
  473poe    c23 2217   1.389   0.809   1.177 -0.1038 -0.1865  0.3601
  473poe    c23 2218   1.460   0.850   1.307 -0.2039 -0.0866  0.3839
  473poe     o2 2219   1.490   0.987   1.311  1.1526 -0.3527 -0.0993
  473poe    c31 2220   1.597   1.013   1.398  0.0941  0.8418  0.8881
  474poe    c31 2221   0.316   2.393   5.761  0.0362  0.0274  0.4272
  474poe     o2 2222   0.219   2.419   5.662  0.3330 -0.3176  0.0454
  474poe    c23 2223   0.234   2.329   5.554  0.3591 -0.1415 -0.0997
  474poe    c23 2224   0.102   2.322   5.475  0.1882 -0.6025  0.2168
  474poe     o2 2225  -0.012   2.269   5.539  0.0225 -0.0822  0.3566
  474poe    c23 2226  -0.129   2.297   5.466  0.7435  0.7217 -0.5261
  474poe    c23 2227  -0.241   2.341   5.562  0.5957  0.3351 -0.5180
  474poe     o2 2228  -0.230   2.473   5.610 -0.0825  0.3034 -0.2626
  474poe    c23 2229  -0.348   2.550   5.599 -0.2713  0.0159 -0.2488
  474poe    c23 2230  -0.375   2.648   5.714 -0.3358  0.4410 -0.6231
  474poe     o2 2231  -0.317   2.771   5.676  0.1492  0.3375 -0.2304
  474poe    c31 2232  -0.419   2.868   5.666 -0.5823 -0.3631  0.2853
  475poe    c31 2233   2.288   0.760   4.668  0.7428  0.0008  0.1881
  475poe     o2 2234   2.294   0.803   4.802  0.1978  0.4068  0.0861
  475poe    c23 2235   2.419   0.859   4.834  0.6283 -0.1947 -0.5112
  475poe    c23 2236   2.419   0.941   4.965  0.2477 -0.4988 -0.3172
  475poe     o2 2237   2.379   0.865   5.077  0.6933 -0.4477 -0.1231
  475poe    c23 2238   2.450   0.914   5.189  0.2826 -0.6031  0.2044
  475poe    c23 2239   2.472   0.776   5.254  0.1623 -0.6454  0.1562
  475poe     o2 2240   2.348   0.713   5.275 -0.1793  0.0742  0.3193
  475poe    c23 2241   2.351   0.622   5.382 -0.1952 -0.3111 -0.0086
  475poe    c23 2242   2.207   0.567   5.390 -0.0503 -0.7674 -0.4568
  475poe     o2 2243   2.161   0.548   5.259  0.0181 -0.1193 -0.5796
  475poe    c31 2244   2.040   0.474   5.263  0.1093 -0.2393 -0.0550
  476poe    c31 2245   2.098   0.035   6.942 -0.5371 -0.1404  0.2775
  476poe     o2 2246   2.209   0.067   7.024 -0.2520 -0.0171 -0.1487
  476poe    c23 2247   2.208  -0.008   7.144  0.2379 -0.0988 -0.1949
  476poe    c23 2248   2.275  -0.145   7.123  0.6412  0.0038  0.4192
  476poe     o2 2249   2.416  -0.151   7.111  0.6377 -0.0310  0.3959
  476poe    c23 2250   2.469  -0.110   6.988 -0.5107 -0.0738 -0.1295
  476poe    c23 2251   2.613  -0.164   6.969 -0.5128 -0.0687 -0.1609
  476poe     o2 2252   2.721  -0.096   7.028  0.0305 -0.8026 -0.2975
  476poe    c23 2253   2.837  -0.111   6.949  0.3476 -0.5020  0.1070
  476poe    c23 2254   2.969  -0.068   7.016  0.0156 -0.4016  0.7077
  476poe     o2 2255   2.983   0.071   7.036 -0.7835 -0.1899 -0.1191
  476poe    c31 2256   3.103   0.080   7.110 -0.9067 -0.1687  0.0775
  477poe    c31 2257   1.989   2.235   4.260  0.2306 -0.4340 -0.2821
  477poe     o2 2258   2.102   2.295   4.319  0.1383 -0.4840 -0.0514
  477poe    c23 2259   2.103   2.265   4.456 -0.2729  0.2221  0.1125
  477poe    c23 2260   2.180   2.378   4.527 -0.3002 -0.2244  0.8654
  477poe     o2 2261   2.114   2.501   4.512 -0.2104 -0.2043  0.6398
  477poe    c23 2262   2.154   2.609   4.594 -0.1842  0.0925  0.2430
  477poe    c23 2263   2.085   2.743   4.565 -0.1965  0.0303 -0.0150
  477poe     o2 2264   2.116   2.796   4.437  0.3905 -0.1489  0.0516
  477poe    c23 2265   2.051   2.918   4.412  0.0460 -0.3410  0.0129
  477poe    c23 2266   2.100   2.995   4.289 -0.7562 -0.1330 -0.1825
  477poe     o2 2267   2.082   2.937   4.162  0.3242  0.3182 -0.5536
  477poe    c31 2268   1.945   2.932   4.128 -0.0687 -0.6049  1.0571
  478poe    c31 2269   0.337   0.690   3.474  0.2049  0.4125  0.0174
  478poe     o2 2270   0.234   0.784   3.492  0.1415  0.3797 -0.1696
  478poe    c23 2271   0.216   0.831   3.624 -0.4062  0.8209 -0.3972
  478poe    c23 2272   0.129   0.953   3.660 -0.3181  0.5129  0.9086
  478poe     o2 2273  -0.006   0.924   3.633 -0.1006  0.2467  0.0716
  478poe    c23 2274  -0.066   1.050   3.658  0.0236  0.2981  0.1120
  478poe    c23 2275  -0.214   1.050   3.617  0.0205 -0.3718  0.1086
  478poe     o2 2276  -0.232   1.078   3.480 -0.2535  0.3359  0.2858
  478poe    c23 2277  -0.367   1.075   3.439 -0.2850 -0.9969  0.4495
  478poe    c23 2278  -0.371   0.979   3.319  0.2653 -0.4477 -0.0192
  478poe     o2 2279  -0.365   0.844   3.361  0.0154 -0.4675 -0.0427
  478poe    c31 2280  -0.342   0.765   3.247 -0.0272 -0.2615 -0.1958
  479poe    c31 2281   1.557   1.029   6.590 -0.0426 -0.4357  0.4775
  479poe     o2 2282   1.617   1.076   6.472 -0.3092 -0.0371  0.4968
  479poe    c23 2283   1.618   0.980   6.368 -0.3372  0.1178  0.3537
  479poe    c23 2284   1.684   1.051   6.248 -0.1735 -0.7231 -0.0610
  479poe     o2 2285   1.823   1.064   6.267 -0.1458 -0.0388 -0.7006
  479poe    c23 2286   1.897   1.109   6.155 -0.1844  0.6260 -0.4663
  479poe    c23 2287   2.021   1.155   6.234 -0.4090 -0.4984  0.5660
  479poe     o2 2288   1.990   1.266   6.315  0.4373 -0.3162  0.6428
  479poe    c23 2289   2.097   1.316   6.393  0.4020 -0.3363  0.7038
  479poe    c23 2290   2.049   1.434   6.480 -0.0112 -0.0634  0.1122
  479poe     o2 2291   2.042   1.555   6.408  0.0118 -0.0632  0.1104
  479poe    c31 2292   2.123   1.653   6.468 -0.3524  0.0676  0.3877
  480poe    c31 2293   0.954   1.792   3.463 -0.1587 -0.1994  0.4429
  480poe     o2 2294   1.060   1.712   3.414 -0.1856 -0.0909  0.2049
  480poe    c23 2295   1.060   1.697   3.274  0.1905 -0.0324  0.1985
  480poe    c23 2296   1.196   1.650   3.218 -0.0637 -0.1909 -0.2926
  480poe     o2 2297   1.300   1.711   3.291 -0.2040  0.4915 -0.6575
  480poe    c23 2298   1.422   1.700   3.221 -0.1443  0.0429 -0.4857
  480poe    c23 2299   1.522   1.733   3.334 -0.0536  0.2461 -0.6251
  480poe     o2 2300   1.477   1.667   3.450  0.1774  0.7194 -0.2625
  480poe    c23 2301   1.587   1.643   3.534 -0.3563  0.2751  0.3167
  480poe    c23 2302   1.570   1.557   3.661 -0.1659 -0.3333 -0.0694
  480poe     o2 2303   1.479   1.595   3.761  0.0306  0.2224 -0.1020
  480poe    c31 2304   1.476   1.513   3.876 -0.2207  0.4037  0.0226
  481poe    c31 2305   0.995   1.030   3.863  0.3235 -0.3320  0.2758
  481poe     o2 2306   1.128   1.043   3.908  0.6264  0.2925 -0.7560
  481poe    c23 2307   1.194   0.919   3.923  0.4455  0.3002  0.1749
  481poe    c23 2308   1.335   0.940   3.982  0.5549  0.6150 -0.1925
  481poe     o2 2309   1.336   1.000   4.110  0.0716  0.0233  0.0955
  481poe    c23 2310   1.292   0.919   4.216  0.7620 -0.5955 -0.0870
  481poe    c23 2311   1.335   1.001   4.339  0.4673 -0.2625 -0.2049
  481poe     o2 2312   1.297   1.136   4.324  0.1050 -0.3905 -0.4702
  481poe    c23 2313   1.280   1.203   4.447  0.4174 -0.0428 -0.6167
  481poe    c23 2314   1.274   1.352   4.410  0.3086 -0.1283 -0.9433
  481poe     o2 2315   1.407   1.399   4.400  0.2472  0.0637 -0.8716
  481poe    c31 2316   1.413   1.527   4.342 -0.0566  0.4462 -0.0719
  482poe    c31 2317   1.334   0.759   0.593 -0.4131  0.2543  0.4887
  482poe     o2 2318   1.377   0.826   0.709  0.5747  0.0935  0.2211
  482poe    c23 2319   1.507   0.779   0.735  0.6735  0.0539 -0.3436
  482poe    c23 2320   1.586   0.867   0.834 -0.4912  0.4319  0.2686
  482poe     o2 2321   1.653   0.971   0.766 -0.1258 -0.0767 -0.1545
  482poe    c23 2322   1.761   1.015   0.845 -0.0919 -0.0652 -0.2068
  482poe    c23 2323   1.777   1.168   0.827 -0.0153 -0.0853 -0.3136
  482poe     o2 2324   1.660   1.234   0.870  0.3182  0.6467 -0.5179
  482poe    c23 2325   1.663   1.374   0.861 -0.1109  0.7038  0.1319
  482poe    c23 2326   1.526   1.443   0.850 -0.3258  0.2460 -0.0877
  482poe     o2 2327   1.442   1.394   0.747 -0.2957  0.0489 -0.0171
  482poe    c31 2328   1.470   1.452   0.622  0.5416  0.0095  0.1423
  483poe    c31 2329   2.455   2.282   6.504  0.5634  0.1931 -0.6483
  483poe     o2 2330   2.484   2.337   6.378  1.0094  0.2269 -0.5324
  483poe    c23 2331   2.453   2.239   6.281  0.1357 -0.2953  0.2548
  483poe    c23 2332   2.456   2.300   6.139  0.2021 -0.0758  0.3483
  483poe     o2 2333   2.381   2.419   6.137  0.0233 -0.1996 -0.6134
  483poe    c23 2334   2.389   2.504   6.024 -0.2569  0.2884 -0.2677
  483poe    c23 2335   2.293   2.622   6.049 -0.0523  0.4578 -0.2798
  483poe     o2 2336   2.356   2.700   6.147  0.2395 -0.1185 -0.0014
  483poe    c23 2337   2.398   2.822   6.091 -0.2697 -0.1570 -0.4716
  483poe    c23 2338   2.308   2.947   6.081 -0.1027  0.0147  0.1649
  483poe     o2 2339   2.236   2.955   6.203  0.3813  0.1018  0.4473
  483poe    c31 2340   2.130   3.048   6.204  0.1287 -0.1875  0.5005
  484poe    c31 2341   1.680   0.370   0.870 -0.0441 -0.0625  0.2517
  484poe     o2 2342   1.632   0.270   0.783  0.0751 -0.0492  0.1707
  484poe    c23 2343   1.605   0.144   0.839 -0.4000 -0.0557 -0.0720
  484poe    c23 2344   1.728   0.065   0.888  0.2854  0.8131 -0.3808
  484poe     o2 2345   1.820   0.033   0.787 -0.2216  0.3959 -0.7122
  484poe    c23 2346   1.954   0.071   0.811 -0.1382 -0.1123 -0.3444
  484poe    c23 2347   2.005   0.215   0.793  0.5779 -0.3266 -0.0561
  484poe     o2 2348   2.003   0.263   0.660 -0.1883  0.2790  0.1627
  484poe    c23 2349   2.104   0.203   0.581 -0.3767  0.5933 -0.3223
  484poe    c23 2350   2.144   0.292   0.462  0.9014 -0.2189 -0.5186
  484poe     o2 2351   2.093   0.252   0.337 -0.2669  0.3593 -0.2386
  484poe    c31 2352   2.090   0.364   0.251  0.0466  0.2546 -0.3859
  485poe    c31 2353   1.998   0.350   6.658 -0.1247 -0.3743  0.5570
  485poe     o2 2354   2.135   0.340   6.624 -0.1994 -0.0551  0.1604
  485poe    c23 2355   2.153   0.300   6.490 -0.1719  0.5112 -0.0080
  485poe    c23 2356   2.116   0.152   6.473  0.5343  0.2132  0.9523
  485poe     o2 2357   2.173   0.042   6.540 -0.0676 -0.4757  0.3479
  485poe    c23 2358   2.093  -0.074   6.539 -0.2237 -0.3684  0.3784
  485poe    c23 2359   2.145  -0.185   6.631  0.1653 -0.3542  0.1749
  485poe     o2 2360   2.049  -0.287   6.651  0.2795 -0.4975 -0.0010
  485poe    c23 2361   2.096  -0.389   6.735  0.8300 -0.2736 -0.0323
  485poe    c23 2362   1.979  -0.469   6.795  0.4557  0.0903 -0.2796
  485poe     o2 2363   1.883  -0.403   6.875  0.5081 -0.2090  0.0259
  485poe    c31 2364   1.928  -0.367   7.004  0.0318  0.4764 -0.0013
  486poe    c31 2365   1.162   0.516   2.944 -0.3940  0.0006  0.5466
  486poe     o2 2366   1.283   0.475   2.883 -0.5785  0.2376  0.0120
  486poe    c23 2367   1.363   0.578   2.828  0.2169 -0.3285  0.0914
  486poe    c23 2368   1.497   0.591   2.903  0.1996  0.1753  0.0393
  486poe     o2 2369   1.484   0.622   3.040 -0.0968 -0.6584  0.2085
  486poe    c23 2370   1.612   0.597   3.093  0.0191 -0.1163  0.1928
  486poe    c23 2371   1.644   0.655   3.232 -0.5780  0.1819  0.2037
  486poe     o2 2372   1.662   0.795   3.222 -0.3854  0.1486  0.0854
  486poe    c23 2373   1.690   0.860   3.344  0.0192  0.0448  0.0505
  486poe    c23 2374   1.658   1.010   3.336 -0.1144  0.0168  0.0432
  486poe     o2 2375   1.750   1.083   3.257  0.1970  0.0157  0.3995
  486poe    c31 2376   1.705   1.215   3.237  0.1462 -0.0739 -0.0708
  487lim     li 2377   0.076   0.236   5.686 -1.0636 -0.5172  0.5306
  488lim     li 2378   0.234   1.711   1.977  1.3195  0.2070 -0.2952
  489lim     li 2379   2.205   0.690   5.166 -0.4776 -0.1594  0.6714
  490lim     li 2380   2.454   2.046   3.715  0.5888 -1.3088  0.5615
  491lim     li 2381   0.234   1.779   6.057 -1.2127  1.3081 -0.1917
  492lim     li 2382   0.328   0.966   2.098  0.4949  0.1732 -0.4473
  493lim     li 2383   1.465   1.698   6.143 -0.1797 -1.1914 -0.1732
  494lim     li 2384   1.382   1.245   0.802  1.0263  0.0167 -0.5725
  495lim     li 2385   0.952   0.235   3.640  0.1208  0.4349  0.6568
  496lim     li 2386   2.253   0.588   3.613 -0.6304 -0.9722 -0.3668
  497lim     li 2387   0.258   2.218   2.699 -0.6938 -0.4180 -0.2648
  498lim     li 2388   1.578   1.184   2.151  0.1673 -0.0686 -0.2990
  499lim     li 2389   0.008   0.284   0.169  0.5868  0.1667  0.5893
  500lim     li 2390   0.685   0.175   5.113  0.0408 -0.6348  0.4199
  501lim     li 2391   0.655   1.565   4.588  0.5518 -0.6936  1.5033
  502lim     li 2392   1.178   0.475   5.535 -0.0483  0.5730  1.0505
  503lim     li 2393   0.263   1.506   6.825  1.1043 -0.1491 -1.0387
  504lim     li 2394   2.232   1.652   1.103  0.1395 -0.0891 -0.5370
  505lim     li 2395   0.235   1.255   5.719  0.3590  0.9192  0.5877
  506lim     li 2396   0.162   1.721   5.139  0.6033  0.5143  0.2078
  507lim     li 2397  -0.004   0.178   6.514 -0.9757 -0.0508  0.0001
  508lim     li 2398   1.533   0.100   4.909 -0.4831 -0.3382 -0.3798
  509lim     li 2399   2.208  -0.002   4.109 -0.6881 -0.8794 -0.5662
  510lim     li 2400   1.608   2.316   1.208  0.9219 -0.3242 -1.0720
  511lim     li 2401   0.922   0.750   1.470 -0.4424 -0.6682  0.3349
  512lim     li 2402   1.487   2.302   3.625 -0.1036  0.0693  0.3510
  513lim     li 2403   0.936   0.882   2.610 -0.8694 -0.3904  0.9751
  514lim     li 2404   1.754   0.599   0.425 -0.2431  0.3222 -0.1722
  515lim     li 2405   1.125   1.252   5.484 -0.3249  0.1860 -0.1717
  516lim     li 2406   1.288   0.978   3.224 -1.0427 -0.7999  0.3566
  517lim     li 2407   0.595   0.379   4.379  1.1597  0.3239 -0.1875
  518lim     li 2408   0.485   2.295   4.215 -0.0571 -0.1770 -0.1709
  519lim     li 2409   2.340   1.633   0.464  0.4935 -0.2427 -0.4702
  520lim     li 2410   1.734   0.094   0.417 -0.5441 -0.1280 -0.3662
  521lim     li 2411   2.037   2.210   2.728  0.2329 -0.0736  0.2760
  522lim     li 2412   0.760   1.930   2.613 -0.1531  0.0927  0.8056
  523lim     li 2413   0.775  -0.015   5.941  0.3274  0.7189 -0.3199
  524lim     li 2414   1.940   1.673   4.927  1.0078 -0.2755 -0.4411
  525lim     li 2415   0.661   0.876   6.882 -1.0491  0.8068  1.1008
  526lim     li 2416   0.074   0.976   3.214  0.8383 -0.8154  0.7450
  527lim     li 2417   0.615   2.056   0.246  0.1542 -0.1664  0.5102
  528lim     li 2418   2.254   1.129   4.056 -0.0525 -0.4355  0.4511
  529lim     li 2419   1.528   2.276   6.575  0.2960 -0.5243 -1.2251
  530lim     li 2420   0.352   0.209   1.139 -0.6239 -0.1979 -0.2305
  531lim     li 2421   1.430   0.060   2.684  0.4702  1.2815  0.4737
  532lim     li 2422   0.970   2.426   1.141  0.8803  0.8001 -0.0629
  533lim     li 2423   1.244   1.704   3.474 -0.0215  0.4996  0.3883
  534lim     li 2424   0.986   2.451   2.126 -0.5244 -0.0196 -0.4815
  535lim     li 2425   2.055   0.667   1.665  0.7458  0.0140 -0.6966
  536lim     li 2426   1.139   1.418   1.724  0.1063 -0.6283 -0.2375
  537lim     li 2427   2.143   1.096   2.808  0.3394 -0.2777  0.0845
  538lim     li 2428   1.945   2.386   2.026  0.4457  0.1550 -0.1722
  539lim     li 2429   1.342   1.180   4.148 -0.3395  0.2624 -0.5336
  540lim     li 2430   1.836   1.356   4.557  0.0080  0.8143  0.4623
  541ntf    cn1 2431   0.860   1.943   3.913  0.0223  0.3549 -0.1439
  541ntf    sn2 2432   0.998   2.055   3.951  0.1421  0.0364  0.3763
  541ntf    nn3 2433   1.097   1.948   4.009  0.0197  0.0181  0.5510
  541ntf    sn2 2434   1.243   1.898   3.979 -0.0940 -0.1675  0.3151
  541ntf    cn1 2435   1.331   1.949   4.129  0.5319  0.0004 -0.1072
  541ntf    fn4 2436   0.793   1.918   4.025  0.3207 -0.3951 -0.1298
  541ntf    fn4 2437   0.768   1.994   3.832  0.2091 -0.4932 -0.9033
  541ntf    fn4 2438   0.896   1.828   3.859 -0.8205  0.0001  0.0300
  541ntf    on5 2439   1.031   2.123   3.828  0.0695 -0.1250  0.2679
  541ntf    on5 2440   0.935   2.134   4.053 -0.5500  0.2028 -0.1789
  541ntf    on5 2441   1.307   1.966   3.869 -0.6071 -0.4946 -0.1915
  541ntf    on5 2442   1.249   1.754   3.984  0.2011 -0.1837 -0.3314
  541ntf    fn4 2443   1.317   2.079   4.149 -0.4256 -0.1414  0.1473
  541ntf    fn4 2444   1.277   1.888   4.233 -0.5294  0.1221 -0.5801
  541ntf    fn4 2445   1.461   1.925   4.135  0.5749  0.2195 -0.1447
  542ntf    cn1 2446   2.332   0.024   0.926 -0.2373  0.0537 -0.2470
  542ntf    sn2 2447   2.436   0.172   0.911 -0.0842 -0.0298 -0.0096
  542ntf    nn3 2448   2.463   0.196   1.064 -0.0017 -0.0286 -0.0243
  542ntf    sn2 2449   2.369   0.271   1.164  0.0132 -0.0379 -0.0031
  542ntf    cn1 2450   2.348   0.136   1.283 -0.0836 -0.2833 -0.2994
  542ntf    fn4 2451   2.214   0.052   0.978 -0.3515 -0.7642 -0.0423
  542ntf    fn4 2452   2.300  -0.041   0.815  0.0014  0.0881 -0.3366
  542ntf    fn4 2453   2.397  -0.058   1.007  0.3908  0.5280 -0.2628
  542ntf    on5 2454   2.554   0.127   0.841 -0.1176 -0.2285  0.0598
  542ntf    on5 2455   2.363   0.273   0.838  0.1398  0.1067 -0.0458
  542ntf    on5 2456   2.233   0.304   1.129 -0.0306 -0.6519 -0.4133
  542ntf    on5 2457   2.440   0.371   1.241 -0.7867  0.0246  0.6628
  542ntf    fn4 2458   2.272   0.040   1.232  0.4101 -0.5253 -0.5848
  542ntf    fn4 2459   2.468   0.088   1.311 -0.1965 -0.3092  0.1491
  542ntf    fn4 2460   2.298   0.172   1.400  0.2029 -0.3954 -0.1432
  543ntf    cn1 2461   0.173   0.615   3.938  0.1395  0.0967 -0.0880
  543ntf    sn2 2462   0.223   0.726   4.073  0.0945 -0.1897  0.1630
  543ntf    nn3 2463   0.104   0.703   4.173 -0.0376  0.1705  0.0899
  543ntf    sn2 2464   0.087   0.587   4.278  0.1349 -0.0768 -0.1553
  543ntf    cn1 2465   0.072   0.697   4.422  0.1180 -0.1623 -0.0914
  543ntf    fn4 2466   0.161   0.492   3.983 -0.0398  0.2912  0.3995
  543ntf    fn4 2467   0.059   0.651   3.880  0.3280 -0.1543 -0.6179
  543ntf    fn4 2468   0.262   0.620   3.840  0.4543  0.1717  0.2001
  543ntf    on5 2469   0.355   0.685   4.115 -0.0189 -0.5320  0.1890
  543ntf    on5 2470   0.226   0.856   4.012 -0.2853 -0.2264  0.0615
  543ntf    on5 2471   0.195   0.497   4.311  0.1728  0.1238  0.2653
  543ntf    on5 2472  -0.043   0.524   4.272  0.4614 -0.8399  0.6628
  543ntf    fn4 2473   0.156   0.798   4.436  0.0665 -0.0819 -0.3663
  543ntf    fn4 2474  -0.049   0.749   4.414 -0.1170 -0.6087  0.4841
  543ntf    fn4 2475   0.077   0.633   4.538 -0.2156 -0.2219 -0.1089
  544ntf    cn1 2476   1.927   1.142   0.060  0.1512  0.0523  0.2564
  544ntf    sn2 2477   2.082   1.131   0.154  0.2795  0.1308  0.0527
  544ntf    nn3 2478   2.036   1.122   0.304 -0.0370  0.0962 -0.0466
  544ntf    sn2 2479   2.028   1.234   0.412 -0.0864 -0.0910  0.1445
  544ntf    cn1 2480   1.850   1.251   0.446 -0.1421  0.0752 -0.2277
  544ntf    fn4 2481   1.850   1.038   0.087 -0.0920  0.0740 -0.3446
  544ntf    fn4 2482   1.857   1.251   0.089 -0.0429 -0.0052  0.0047
  544ntf    fn4 2483   1.932   1.141  -0.072 -0.3166  0.0610  0.2353
  544ntf    on5 2484   2.126   1.006   0.097 -0.5683 -0.1347 -0.0278
  544ntf    on5 2485   2.165   1.243   0.116  0.5184 -0.2284 -0.5029
  544ntf    on5 2486   2.083   1.364   0.384  0.4318 -0.2612  0.3611
  544ntf    on5 2487   2.078   1.182   0.537  0.5637 -0.2335 -0.1703
  544ntf    fn4 2488   1.828   1.353   0.528 -0.4779 -0.2143  0.0446
  544ntf    fn4 2489   1.786   1.277   0.333  0.1432  0.3030 -0.3391
  544ntf    fn4 2490   1.805   1.136   0.493 -0.0788  0.0835 -0.1456
  545ntf    cn1 2491   1.417   0.477   1.721 -0.0943  0.2762  0.3973
  545ntf    sn2 2492   1.444   0.553   1.558 -0.2440 -0.0521  0.2202
  545ntf    nn3 2493   1.456   0.420   1.474 -0.2277 -0.0040  0.1459
  545ntf    sn2 2494   1.568   0.310   1.476  0.0515  0.2766 -0.0325
  545ntf    cn1 2495   1.669   0.354   1.331  0.0739 -0.5477 -0.2674
  545ntf    fn4 2496   1.347   0.366   1.708  0.3925  0.0291 -0.1510
  545ntf    fn4 2497   1.529   0.450   1.786  0.0505  0.0981  0.0777
  545ntf    fn4 2498   1.358   0.560   1.806 -0.5959  0.3205  0.0141
  545ntf    on5 2499   1.324   0.625   1.524 -0.1209  0.3881  0.7076
  545ntf    on5 2500   1.560   0.637   1.563 -0.0927 -0.2780  0.5122
  545ntf    on5 2501   1.526   0.178   1.437 -0.2997  0.2845  0.3134
  545ntf    on5 2502   1.664   0.323   1.583  0.8746 -0.7365 -0.6352
  545ntf    fn4 2503   1.750   0.252   1.305  0.5127 -0.2697  0.0097
  545ntf    fn4 2504   1.600   0.371   1.219  0.1911 -0.2533 -0.2947
  545ntf    fn4 2505   1.749   0.458   1.342 -0.2926 -0.2909 -0.0293
  546ntf    cn1 2506   2.392   1.446   3.593  0.4014  0.0584  0.2587
  546ntf    sn2 2507   2.287   1.594   3.582 -0.0481 -0.2524  0.3375
  546ntf    nn3 2508   2.150   1.521   3.563 -0.2877  0.3691 -0.3789
  546ntf    sn2 2509   2.041   1.486   3.670 -0.0909  0.3487 -0.1847
  546ntf    cn1 2510   1.937   1.383   3.561 -0.1487  0.2993 -0.0831
  546ntf    fn4 2511   2.389   1.375   3.482  0.3735  0.0526  0.2631
  546ntf    fn4 2512   2.519   1.472   3.623  0.4908  0.0304 -0.0925
  546ntf    fn4 2513   2.337   1.359   3.675  0.0532  0.3068  0.2894
  546ntf    on5 2514   2.295   1.654   3.713  0.2234  0.2649  0.0887
  546ntf    on5 2515   2.338   1.666   3.467 -0.1585 -0.2670  0.2794
  546ntf    on5 2516   1.959   1.600   3.701 -0.7951 -0.2937  0.3519
  546ntf    on5 2517   2.088   1.400   3.776 -0.1844  0.5442  0.0147
  546ntf    fn4 2518   1.856   1.297   3.621  0.4531 -0.2692 -0.0789
  546ntf    fn4 2519   1.862   1.462   3.486 -0.2253  0.1402 -0.1748
  546ntf    fn4 2520   2.011   1.317   3.474 -0.3573  0.0485 -0.0699
  547ntf    cn1 2521   0.528   1.804   0.731 -0.2166 -0.3171 -0.4022
  547ntf    sn2 2522   0.368   1.770   0.653 -0.4344  0.1642 -0.1723
  547ntf    nn3 2523   0.397   1.621   0.612 -0.4124  0.0503  0.2521
  547ntf    sn2 2524   0.326   1.519   0.516  0.2325 -0.3033  0.1441
  547ntf    cn1 2525   0.240   1.415   0.638 -0.2700 -0.0819 -0.0182
  547ntf    fn4 2526   0.552   1.743   0.846 -0.0901  0.9003  0.2333
  547ntf    fn4 2527   0.632   1.766   0.659  0.3707 -0.2141  0.3700
  547ntf    fn4 2528   0.542   1.934   0.752  0.7203 -0.4744  0.0078
  547ntf    on5 2529   0.270   1.785   0.758 -0.2988  0.2565 -0.0597
  547ntf    on5 2530   0.362   1.859   0.540 -0.3831 -0.0905 -0.3793
  547ntf    on5 2531   0.415   1.423   0.456  0.9179  0.8740 -0.7596
  547ntf    on5 2532   0.219   1.581   0.442  0.6937  0.0791 -0.2092
  547ntf    fn4 2533   0.332   1.384   0.729 -0.4326 -0.2741  0.0818
  547ntf    fn4 2534   0.141   1.482   0.694 -0.1154  0.0370  0.1136
  547ntf    fn4 2535   0.191   1.300   0.594 -0.4304 -0.0757  0.1438
  548ntf    cn1 2536   0.800   0.531   0.868  0.0320 -0.2023  0.0184
  548ntf    sn2 2537   0.881   0.426   0.992  0.3147  0.2967  0.2595
  548ntf    nn3 2538   1.002   0.365   0.912 -0.2222  0.0698 -0.3807
  548ntf    sn2 2539   1.157   0.380   0.931 -0.3000  0.1797  0.1892
  548ntf    cn1 2540   1.206   0.499   0.802 -0.1234  0.2013  0.2765
  548ntf    fn4 2541   0.869   0.642   0.846 -0.0187 -0.1715  0.0157
  548ntf    fn4 2542   0.794   0.468   0.752 -0.0220  0.1814 -0.1864
  548ntf    fn4 2543   0.678   0.564   0.905  0.0990 -0.0225  0.0806
  548ntf    on5 2544   0.917   0.530   1.085 -0.3958  0.3610  0.4677
  548ntf    on5 2545   0.779   0.328   1.021 -0.1016  0.6587  0.0190
  548ntf    on5 2546   1.235   0.269   0.885  0.0453  0.2855  0.5148
  548ntf    on5 2547   1.200   0.441   1.054  0.3373 -0.2155  0.1667
  548ntf    fn4 2548   1.337   0.515   0.800 -0.0346 -0.5626  0.0425
  548ntf    fn4 2549   1.163   0.472   0.680  0.6427 -0.5397  0.1653
  548ntf    fn4 2550   1.152   0.616   0.832 -0.3215  0.2924 -0.4274
  549ntf    cn1 2551   1.382   2.086   3.254  0.0172 -0.1229 -0.2092
  549ntf    sn2 2552   1.379   2.212   3.123 -0.0376  0.4033  0.2929
  549ntf    nn3 2553   1.463   2.137   3.013 -0.5675  0.2258  0.0054
  549ntf    sn2 2554   1.606   2.175   2.961 -0.3100 -0.3547  0.2917
  549ntf    cn1 2555   1.704   2.127   3.107  0.3506  0.1359  0.0121
  549ntf    fn4 2556   1.351   1.966   3.208  0.5738 -0.4619  0.2911
  549ntf    fn4 2557   1.499   2.077   3.315 -0.1163  0.1720  0.0933
  549ntf    fn4 2558   1.299   2.121   3.351 -0.3643 -0.6516 -0.3411
  549ntf    on5 2559   1.238   2.209   3.091  0.1495 -0.1930 -0.5257
  549ntf    on5 2560   1.440   2.325   3.187  0.4161  0.4359 -0.1840
  549ntf    on5 2561   1.629   2.314   2.930 -0.4168 -0.2326  0.7500
  549ntf    on5 2562   1.651   2.078   2.865 -0.6422  0.0923 -0.3190
  549ntf    fn4 2563   1.835   2.140   3.090  0.3780 -0.3459 -0.1652
  549ntf    fn4 2564   1.679   2.190   3.221  0.2677 -0.1523  0.1534
  549ntf    fn4 2565   1.699   1.996   3.124  0.2194 -0.0277 -1.1739
  550ntf    cn1 2566   0.292   0.061   3.984 -0.1484 -0.2303  0.2239
  550ntf    sn2 2567   0.171   0.039   3.850  0.2921 -0.1394 -0.1943
  550ntf    nn3 2568   0.233   0.138   3.745  0.0938 -0.2288 -0.3957
  550ntf    sn2 2569   0.150   0.246   3.666  0.2375 -0.2653 -0.5961
  550ntf    cn1 2570   0.216   0.226   3.498  0.0865  0.0888 -0.6983
  550ntf    fn4 2571   0.409   0.008   3.951  0.1997  0.3733  0.4701
  550ntf    fn4 2572   0.317   0.189   4.007 -0.2787 -0.1208 -0.2402
  550ntf    fn4 2573   0.250   0.009   4.098  0.0845 -0.2320  0.3093
  550ntf    on5 2574   0.184  -0.101   3.822  0.7342 -0.0325 -0.5206
  550ntf    on5 2575   0.051   0.089   3.915  0.4938 -0.0305  0.0973
  550ntf    on5 2576   0.191   0.382   3.686  0.0480 -0.1751 -0.8163
  550ntf    on5 2577   0.009   0.217   3.654  0.1337 -0.0379  0.0512
  550ntf    fn4 2578   0.336   0.281   3.501  0.0543  0.1266  0.3461
  550ntf    fn4 2579   0.234   0.099   3.464 -0.3482 -0.2514  0.3029
  550ntf    fn4 2580   0.143   0.292   3.409 -0.7255  0.6048  0.3362
  551ntf    cn1 2581   1.111   2.220   2.642  0.4592 -0.2631  0.2120
  551ntf    sn2 2582   1.153   2.190   2.467  0.0417 -0.2089  0.1001
  551ntf    nn3 2583   1.203   2.041   2.471 -0.4238 -0.3789 -0.3713
  551ntf    sn2 2584   1.352   1.992   2.464 -0.2023  0.1777  0.3784
  551ntf    cn1 2585   1.393   2.018   2.289  0.2213 -0.0220  0.4456
  551ntf    fn4 2586   1.208   2.199   2.729  0.2975 -0.7501  0.2738
  551ntf    fn4 2587   1.064   2.342   2.662  0.1554 -0.3326 -0.0732
  551ntf    fn4 2588   1.016   2.137   2.680  0.2540 -0.1148  0.0342
  551ntf    on5 2589   1.022   2.195   2.408  0.1749 -0.6322 -0.2323
  551ntf    on5 2590   1.244   2.295   2.430 -0.0653 -0.3411 -0.5459
  551ntf    on5 2591   1.368   1.852   2.497 -0.4979  0.1801  0.5325
  551ntf    on5 2592   1.438   2.078   2.542  0.1442 -0.1131  0.3196
  551ntf    fn4 2593   1.321   1.938   2.211  0.4495 -0.2763  0.4947
  551ntf    fn4 2594   1.360   2.142   2.257  0.4371  0.0838  0.6325
  551ntf    fn4 2595   1.519   2.006   2.251  0.0382 -0.0118 -0.1856
  552ntf    cn1 2596   0.673   1.250   3.862  0.1834 -0.5523 -0.2538
  552ntf    sn2 2597   0.730   1.420   3.831 -0.6740 -0.2157  0.0105
  552ntf    nn3 2598   0.607   1.486   3.904 -0.0349  0.1926  0.7395
  552ntf    sn2 2599   0.482   1.543   3.828  0.5223  0.4512  0.0030
  552ntf    cn1 2600   0.543   1.705   3.774  0.4291  0.3294 -0.4709
  552ntf    fn4 2601   0.665   1.225   3.992  0.1799 -0.4218 -0.2291
  552ntf    fn4 2602   0.557   1.222   3.806 -0.5539  0.2912  0.8045
  552ntf    fn4 2603   0.757   1.157   3.819  0.5939 -0.1755 -0.2790
  552ntf    on5 2604   0.854   1.434   3.903 -0.4453  1.2903 -0.6491
  552ntf    on5 2605   0.743   1.437   3.689  0.1377  0.5736  0.1665
  552ntf    on5 2606   0.373   1.570   3.919  0.4325  0.2850 -0.0555
  552ntf    on5 2607   0.444   1.479   3.705 -0.1079  0.5463  0.1408
  552ntf    fn4 2608   0.452   1.771   3.705  0.2677 -0.0197 -0.5941
  552ntf    fn4 2609   0.570   1.790   3.871  0.5456  0.1171 -0.3164
  552ntf    fn4 2610   0.648   1.677   3.698  0.3271  0.3976 -0.6383
  553ntf    cn1 2611   2.402   0.172   1.738  0.0842  0.6923 -0.2735
  553ntf    sn2 2612   2.360   0.228   1.906 -0.1558 -0.1327 -0.0516
  553ntf    nn3 2613   2.499   0.249   1.976 -0.2010 -0.3030  0.0886
  553ntf    sn2 2614   2.572   0.160   2.083  0.4060  0.0028 -0.0652
  553ntf    cn1 2615   2.562   0.267   2.230  0.3242 -0.0052 -0.0649
  553ntf    fn4 2616   2.288   0.156   1.673  0.0671  0.1418 -0.1149
  553ntf    fn4 2617   2.475   0.248   1.658  0.2685  0.1089 -0.6632
  553ntf    fn4 2618   2.469   0.058   1.745 -0.4494  0.4231  0.6542
  553ntf    on5 2619   2.308   0.360   1.879  0.4570  0.2571  0.6269
  553ntf    on5 2620   2.269   0.125   1.950 -0.4821 -0.1609 -0.7816
  553ntf    on5 2621   2.711   0.141   2.051  0.3090  0.1466 -0.5847
  553ntf    on5 2622   2.502   0.039   2.119  0.8297 -0.1632  0.2070
  553ntf    fn4 2623   2.593   0.198   2.339 -0.4070  0.3054  0.3530
  553ntf    fn4 2624   2.635   0.377   2.222 -0.2130  0.3810  0.2731
  553ntf    fn4 2625   2.437   0.308   2.243  0.0787 -0.5220 -0.7369
  554ntf    cn1 2626   2.252   0.796   5.901  0.1499  0.5399  0.0682
  554ntf    sn2 2627   2.405   0.765   5.807  0.0635  0.0682  0.0838
  554ntf    nn3 2628   2.371   0.855   5.683 -0.2507  0.4193  0.4234
  554ntf    sn2 2629   2.382   1.010   5.658  0.2858  0.2645 -0.3037
  554ntf    cn1 2630   2.218   1.031   5.583 -0.2450  0.1308  0.8038
  554ntf    fn4 2631   2.146   0.736   5.850  0.0432  0.5975  0.2236
  554ntf    fn4 2632   2.266   0.762   6.028 -1.0908 -0.0948  0.0496
  554ntf    fn4 2633   2.222   0.925   5.896 -0.3851  0.4295  0.3838
  554ntf    on5 2634   2.506   0.822   5.892 -0.4353  0.4321  0.4452
  554ntf    on5 2635   2.412   0.627   5.766 -0.1496  0.1618 -0.2702
  554ntf    on5 2636   2.468   1.042   5.546  0.0832  0.5569 -0.3753
  554ntf    on5 2637   2.371   1.096   5.773 -0.2744 -0.2409  0.0257
  554ntf    fn4 2638   2.199   0.945   5.484  0.6395  0.8671 -0.0303
  554ntf    fn4 2639   2.118   1.000   5.664 -0.6845 -1.1841 -0.2094
  554ntf    fn4 2640   2.207   1.147   5.520  0.1270 -0.3270 -0.1202
  555ntf    cn1 2641   1.442   0.176   4.140 -0.1136 -0.1913  0.2591
  555ntf    sn2 2642   1.373   0.009   4.129 -0.2310 -0.1246 -0.0074
  555ntf    nn3 2643   1.464  -0.065   4.233  0.2261  0.7357  0.2104
  555ntf    sn2 2644   1.607  -0.124   4.204 -0.0605  0.0583  0.1733
  555ntf    cn1 2645   1.562  -0.287   4.136 -0.3672  0.2152 -0.0047
  555ntf    fn4 2646   1.574   0.186   4.129 -0.1544  0.6560  0.4190
  555ntf    fn4 2647   1.401   0.257   4.044  0.2478 -0.0909  0.1874
  555ntf    fn4 2648   1.408   0.227   4.258  0.4332  0.0004  0.3388
  555ntf    on5 2649   1.239   0.028   4.177 -0.1917  0.2183 -0.0319
  555ntf    on5 2650   1.392  -0.020   3.988  0.3281  0.0415  0.0290
  555ntf    on5 2651   1.679  -0.152   4.325 -0.4130  0.0473  0.3810
  555ntf    on5 2652   1.683  -0.059   4.101 -0.4598  0.1371 -0.0753
  555ntf    fn4 2653   1.477  -0.343   4.220  0.0370 -0.0338  0.2400
  555ntf    fn4 2654   1.500  -0.286   4.019 -0.0987  0.2017 -0.1483
  555ntf    fn4 2655   1.663  -0.373   4.136 -0.4582  0.0985  0.7874
  556ntf    cn1 2656   0.471   2.354   3.657  0.4555 -0.2356 -0.1985
  556ntf    sn2 2657   0.556   2.244   3.540  0.5084 -0.1195 -0.2682
  556ntf    nn3 2658   0.497   2.296   3.404 -0.4003 -0.2376  0.0811
  556ntf    sn2 2659   0.473   2.208   3.276 -0.1832  0.1179 -0.2030
  556ntf    cn1 2660   0.539   2.308   3.139 -0.1624  0.3891  0.0056
  556ntf    fn4 2661   0.518   2.477   3.653 -0.9047  0.2883 -0.4801
  556ntf    fn4 2662   0.342   2.370   3.631  0.3869 -0.0531  0.2526
  556ntf    fn4 2663   0.482   2.311   3.782  0.0433  0.1012 -0.0468
  556ntf    on5 2664   0.696   2.273   3.561  0.5083 -0.3259  0.0084
  556ntf    on5 2665   0.502   2.117   3.581 -0.0594  0.4899  0.9064
  556ntf    on5 2666   0.335   2.190   3.240  0.0539 -1.2100 -0.5168
  556ntf    on5 2667   0.555   2.090   3.266 -0.0886  0.1243  0.4671
  556ntf    fn4 2668   0.667   2.338   3.160 -0.3074  0.4739  0.8025
  556ntf    fn4 2669   0.523   2.240   3.027 -0.3112  0.4084  0.0157
  556ntf    fn4 2670   0.478   2.426   3.136 -0.1245  0.4210  0.4146
  557ntf    cn1 2671   1.256   0.886   6.270 -0.1997  0.0487  0.2591
  557ntf    sn2 2672   1.089   0.820   6.297 -0.0971 -0.3012  0.0484
  557ntf    nn3 2673   1.067   0.713   6.184 -0.1456 -0.5659  0.3061
  557ntf    sn2 2674   1.035   0.744   6.033  0.0105 -0.2578  0.3348
  557ntf    cn1 2675   0.857   0.712   6.021  0.0091  0.0645 -0.5733
  557ntf    fn4 2676   1.290   0.968   6.368  0.3008  0.2617 -0.0896
  557ntf    fn4 2677   1.351   0.794   6.270  0.0869  0.3368  0.6606
  557ntf    fn4 2678   1.263   0.960   6.161 -0.1403 -0.1525  0.1272
  557ntf    on5 2679   1.111   0.751   6.422  0.4577 -0.6388 -0.2344
  557ntf    on5 2680   0.996   0.931   6.305  0.2590 -0.0048  0.0843
  557ntf    on5 2681   1.101   0.651   5.945 -0.0362 -0.1766  0.2145
  557ntf    on5 2682   1.055   0.882   5.996 -0.0622 -0.5043 -0.6371
  557ntf    fn4 2683   0.837   0.583   6.039 -0.1321  0.1703  0.0624
  557ntf    fn4 2684   0.783   0.779   6.109  0.2696 -0.0955 -0.2300
  557ntf    fn4 2685   0.812   0.736   5.899 -0.2719  0.0335 -0.4775
  558ntf    cn1 2686   0.881   0.088   0.512  0.0682 -0.0048  0.4198
  558ntf    sn2 2687   0.905  -0.084   0.457 -0.2093  0.0599  0.0866
  558ntf    nn3 2688   1.060  -0.104   0.475 -0.1167  0.4301 -0.3033
  558ntf    sn2 2689   1.131  -0.180   0.592  0.2375  0.2990 -0.6011
  558ntf    cn1 2690   1.138  -0.352   0.535 -0.0814  0.1473 -0.1914
  558ntf    fn4 2691   0.766   0.135   0.466  0.4109 -0.1117 -0.5743
  558ntf    fn4 2692   0.886   0.111   0.642  0.6583  0.3638  0.3362
  558ntf    fn4 2693   0.974   0.170   0.465 -0.6229  0.6705  0.2119
  558ntf    on5 2694   0.811  -0.159   0.537 -0.0856 -0.0404  0.1390
  558ntf    on5 2695   0.874  -0.079   0.317  0.3674 -0.5078 -0.0652
  558ntf    on5 2696   1.060  -0.197   0.716  0.5830  0.4544 -0.3803
  558ntf    on5 2697   1.267  -0.133   0.602  0.3223 -0.1153  0.3560
  558ntf    fn4 2698   1.222  -0.371   0.434 -0.2069  0.8485 -0.4287
  558ntf    fn4 2699   1.170  -0.429   0.638 -0.1088 -0.0817 -0.3530
  558ntf    fn4 2700   1.021  -0.400   0.496 -0.2004  0.1750  0.1261
  559ntf    cn1 2701   2.201   0.588   2.454  0.1127  0.1443 -0.2469
  559ntf    sn2 2702   2.213   0.768   2.432  0.2188  0.1852  0.1273
  559ntf    nn3 2703   2.370   0.780   2.432  0.1744  0.8331 -0.3955
  559ntf    sn2 2704   2.468   0.850   2.533  0.0391 -0.0481  0.3602
  559ntf    cn1 2705   2.495   0.705   2.640  0.0356 -0.0083  0.4148
  559ntf    fn4 2706   2.218   0.505   2.353  0.0863 -0.0108 -0.1255
  559ntf    fn4 2707   2.277   0.546   2.554 -0.0132  0.0297 -0.1977
  559ntf    fn4 2708   2.074   0.561   2.481  0.2132  0.3407  0.4687
  559ntf    on5 2709   2.149   0.795   2.305 -0.2664 -0.3169  0.2603
  559ntf    on5 2710   2.152   0.819   2.552  0.3432  0.1833  0.1915
  559ntf    on5 2711   2.414   0.955   2.614 -0.5012  0.4680 -0.6471
  559ntf    on5 2712   2.603   0.864   2.484  0.1372  0.8339  0.8784
  559ntf    fn4 2713   2.391   0.655   2.703 -0.2613  0.0400 -0.0315
  559ntf    fn4 2714   2.540   0.602   2.571 -0.1973  0.0577  0.1623
  559ntf    fn4 2715   2.585   0.740   2.730  0.1919  0.1699  0.1922
  560ntf    cn1 2716   0.607   1.640   1.560  0.0787 -0.0128  0.6525
  560ntf    sn2 2717   0.679   1.496   1.475 -0.4435  0.2145 -0.1906
  560ntf    nn3 2718   0.652   1.541   1.327 -0.1741 -0.0321 -0.3159
  560ntf    sn2 2719   0.636   1.454   1.197  0.0643 -0.1166 -0.2878
  560ntf    cn1 2720   0.712   1.562   1.073  0.0258 -0.0044 -0.2142
  560ntf    fn4 2721   0.480   1.655   1.525  0.0142 -0.5881  0.6346
  560ntf    fn4 2722   0.605   1.636   1.692  0.1042  0.8101  0.6829
  560ntf    fn4 2723   0.666   1.751   1.518  0.1701 -0.2026  0.2721
  560ntf    on5 2724   0.820   1.506   1.505 -0.5548  0.1766  0.3527
  560ntf    on5 2725   0.602   1.385   1.526 -0.0595 -0.3299 -0.7921
  560ntf    on5 2726   0.501   1.424   1.157 -0.0781 -0.2544  0.2787
  560ntf    on5 2727   0.720   1.336   1.195  0.8733  0.4520 -0.4572
  560ntf    fn4 2728   0.839   1.590   1.097  0.0137 -0.0280 -0.1238
  560ntf    fn4 2729   0.713   1.513   0.950  0.0591 -0.4242 -0.0491
  560ntf    fn4 2730   0.644   1.675   1.061 -0.0430 -0.0005  0.2219
  561ntf    cn1 2731   2.168   1.292   2.291  0.0063 -0.2150 -0.0546
  561ntf    sn2 2732   2.040   1.418   2.260  0.1212 -0.0465  0.1467
  561ntf    nn3 2733   2.052   1.432   2.104 -0.1439  0.6388  0.1876
  561ntf    sn2 2734   1.975   1.360   1.988  0.3052 -0.1494  0.3746
  561ntf    cn1 2735   2.046   1.451   1.848 -0.1272 -0.6497 -0.1768
  561ntf    fn4 2736   2.153   1.193   2.205 -0.2297  0.1608 -0.4502
  561ntf    fn4 2737   2.291   1.337   2.276  0.0616 -0.3734 -0.0699
  561ntf    fn4 2738   2.169   1.237   2.411 -0.2488  0.0808  0.0868
  561ntf    on5 2739   1.918   1.350   2.297  0.1538 -0.2661 -0.1421
  561ntf    on5 2740   2.077   1.538   2.330  0.4977 -0.3758  0.5179
  561ntf    on5 2741   1.838   1.399   1.966  0.5096 -0.0073 -0.7104
  561ntf    on5 2742   2.021   1.226   1.959  0.0077 -0.0228 -0.7335
  561ntf    fn4 2743   2.006   1.577   1.846  0.3650 -0.4822  0.4310
  561ntf    fn4 2744   2.178   1.452   1.851 -0.1261 -0.6213 -0.2258
  561ntf    fn4 2745   2.024   1.397   1.729  0.4737 -0.0543 -0.5624
  562ntf    cn1 2746   1.853   1.455   1.374  0.3849 -0.0107 -0.1312
  562ntf    sn2 2747   1.801   1.478   1.201  0.1614  0.6528  0.0189
  562ntf    nn3 2748   1.811   1.634   1.186 -0.4027  0.6736 -0.1415
  562ntf    sn2 2749   1.698   1.741   1.168 -0.6816  0.3502 -0.3269
  562ntf    cn1 2750   1.696   1.806   1.337 -0.0246  0.1981 -0.2605
  562ntf    fn4 2751   1.751   1.471   1.456  0.2089  0.0427 -0.3604
  562ntf    fn4 2752   1.907   1.337   1.399  0.3189  0.1148  0.6224
  562ntf    fn4 2753   1.948   1.544   1.399  0.5225 -0.0997 -0.3397
  562ntf    on5 2754   1.904   1.409   1.127 -0.0106  0.0511  0.3257
  562ntf    on5 2755   1.673   1.412   1.192  0.1829  0.6081  0.0353
  562ntf    on5 2756   1.565   1.690   1.141 -0.4634 -0.2764 -0.2369
  562ntf    on5 2757   1.740   1.850   1.083 -0.3354  0.7192  0.3150
  562ntf    fn4 2758   1.631   1.920   1.352 -0.2288  0.0744 -0.2109
  562ntf    fn4 2759   1.640   1.724   1.425  0.0267  0.3392 -0.0940
  562ntf    fn4 2760   1.817   1.827   1.387 -0.1777 -0.2253  0.2959
  563ntf    cn1 2761   1.844   0.714   1.130 -0.0045  0.0006  0.1193
  563ntf    sn2 2762   1.958   0.836   1.201 -0.1834  0.3860 -0.2539
  563ntf    nn3 2763   2.102   0.777   1.181 -0.4546  0.0733 -1.3799
  563ntf    sn2 2764   2.222   0.821   1.090  0.5907  0.1387 -0.0161
  563ntf    cn1 2765   2.310   0.662   1.097 -0.1407 -0.2787 -0.1999
  563ntf    fn4 2766   1.904   0.654   1.029  0.3378  0.3810  0.0940
  563ntf    fn4 2767   1.817   0.615   1.214 -0.5807 -0.0962 -0.1711
  563ntf    fn4 2768   1.730   0.765   1.087 -0.1882 -0.2374  0.3154
  563ntf    on5 2769   1.937   0.959   1.127 -0.1985  0.5186 -0.0310
  563ntf    on5 2770   1.922   0.841   1.341  0.6532 -0.4207 -0.0024
  563ntf    on5 2771   2.324   0.899   1.156  0.4134  0.2311  0.1503
  563ntf    on5 2772   2.200   0.827   0.947  0.1194  0.4973  0.0703
  563ntf    fn4 2773   2.356   0.624   1.215  0.1243  0.1669 -0.1586
  563ntf    fn4 2774   2.227   0.566   1.059 -0.1753  0.0644 -1.0070
  563ntf    fn4 2775   2.409   0.647   1.011  0.1703  0.2499  0.0608
  564ntf    cn1 2776   0.810   0.593   1.888  0.1792  0.1847  0.2107
  564ntf    sn2 2777   0.641   0.550   1.942  0.3478 -0.1719  0.4516
  564ntf    nn3 2778   0.635   0.407   1.877  0.4675  0.0498 -0.0510
  564ntf    sn2 2779   0.676   0.270   1.942  0.2978  0.1253  0.2133
  564ntf    cn1 2780   0.512   0.203   1.981  0.0707  0.5590  0.0104
  564ntf    fn4 2781   0.905   0.540   1.962  0.5522  0.0094 -0.3828
  564ntf    fn4 2782   0.841   0.567   1.762 -0.0805  0.0291  0.1778
  564ntf    fn4 2783   0.818   0.725   1.896 -0.1704  0.2657 -0.6026
  564ntf    on5 2784   0.652   0.561   2.085  0.2575 -0.1322  0.4550
  564ntf    on5 2785   0.552   0.643   1.877  0.8737  0.0367  0.0195
  564ntf    on5 2786   0.731   0.284   2.075  0.1890 -0.3257  0.3075
  564ntf    on5 2787   0.730   0.171   1.853  0.6896  0.0196  0.5637
  564ntf    fn4 2788   0.425   0.195   1.882  0.2262  0.3508 -0.1090
  564ntf    fn4 2789   0.531   0.083   2.032 -0.1153  0.6205  0.2318
  564ntf    fn4 2790   0.458   0.274   2.079  0.2340  0.3810  0.2305
  565ntf    cn1 2791   0.343   0.613   5.072 -0.4953 -0.0944  0.0088
  565ntf    sn2 2792   0.395   0.787   5.068 -0.2289 -0.1722  0.0739
  565ntf    nn3 2793   0.305   0.815   4.942 -0.0374 -0.6088 -0.1639
  565ntf    sn2 2794   0.345   0.801   4.791  0.1951  0.0584 -0.1681
  565ntf    cn1 2795   0.285   0.963   4.734 -0.1012  0.0727  0.1786
  565ntf    fn4 2796   0.352   0.546   4.958  0.3852  0.6771 -0.3856
  565ntf    fn4 2797   0.413   0.542   5.158  0.0621 -0.0892 -0.4337
  565ntf    fn4 2798   0.216   0.601   5.108 -0.6000  0.5757 -0.1219
  565ntf    on5 2799   0.345   0.843   5.191 -0.8216 -0.2739 -0.1157
  565ntf    on5 2800   0.537   0.790   5.044 -0.2399 -0.4161 -0.0251
  565ntf    on5 2801   0.255   0.710   4.725  0.3358 -0.0788 -0.1687
  565ntf    on5 2802   0.486   0.785   4.765  0.2761  0.6496 -0.1093
  565ntf    fn4 2803   0.368   1.061   4.765  0.0865  0.0836 -0.3464
  565ntf    fn4 2804   0.257   0.976   4.605 -0.0107 -0.0180  0.1501
  565ntf    fn4 2805   0.172   0.993   4.797 -0.3534  0.7306 -0.5610
  566ntf    cn1 2806   2.225   0.346   3.192 -0.1985 -0.0802 -0.3586
  566ntf    sn2 2807   2.057   0.371   3.129 -0.2484  0.0639 -0.1715
  566ntf    nn3 2808   2.015   0.228   3.079 -0.0182 -0.0379 -0.0730
  566ntf    sn2 2809   2.029   0.169   2.933  0.2465 -0.3184  0.0637
  566ntf    cn1 2810   1.864   0.209   2.867  0.4345 -0.0247 -0.2277
  566ntf    fn4 2811   2.230   0.252   3.284 -0.1988  0.1989 -0.0695
  566ntf    fn4 2812   2.309   0.301   3.101 -0.0942 -0.1433 -0.2310
  566ntf    fn4 2813   2.270   0.458   3.247 -0.3758 -0.3384  0.3171
  566ntf    on5 2814   1.981   0.409   3.245  0.2406  0.1932  0.1071
  566ntf    on5 2815   2.077   0.466   3.022 -0.1149 -0.3314 -0.5008
  566ntf    on5 2816   2.026   0.026   2.918 -0.5289 -0.2983 -0.0231
  566ntf    on5 2817   2.119   0.239   2.845  0.1207  0.6367  0.6739
  566ntf    fn4 2818   1.778   0.167   2.958  0.3659  0.2931 -0.1433
  566ntf    fn4 2819   1.843   0.337   2.842 -0.3202 -0.0625  0.1956
  566ntf    fn4 2820   1.837   0.146   2.754  0.3080  0.1182 -0.2775
  567ntf    cn1 2821   2.389   0.242   5.373 -0.0273 -0.4034 -0.1415
  567ntf    sn2 2822   2.385   0.159   5.211  0.0613 -0.3290 -0.1815
  567ntf    nn3 2823   2.348   0.282   5.120  0.0553 -0.0801  0.1543
  567ntf    sn2 2824   2.430   0.372   5.020 -0.3691  0.2120  0.0671
  567ntf    cn1 2825   2.432   0.279   4.864 -0.1599  0.1880  0.0839
  567ntf    fn4 2826   2.426   0.167   5.475 -0.1558 -0.1109  0.1243
  567ntf    fn4 2827   2.472   0.345   5.370  0.4696 -0.8070 -0.1300
  567ntf    fn4 2828   2.273   0.298   5.405  0.1610 -0.1577  0.1203
  567ntf    on5 2829   2.517   0.102   5.197  0.0165 -0.6652  0.6837
  567ntf    on5 2830   2.276   0.066   5.225  0.0540 -0.2777  0.1099
  567ntf    on5 2831   2.571   0.390   5.046 -0.3766 -0.1589  0.3801
  567ntf    on5 2832   2.346   0.481   4.979 -0.1922 -0.0635 -1.0432
  567ntf    fn4 2833   2.313   0.273   4.806  0.0709  0.4969 -0.4318
  567ntf    fn4 2834   2.513   0.345   4.782  0.3540 -0.6289 -0.0717
  567ntf    fn4 2835   2.485   0.158   4.861 -0.3988  0.0863 -0.0994
  568ntf    cn1 2836   0.326   2.249   6.283  0.1121 -0.1191 -0.1887
  568ntf    sn2 2837   0.396   2.417   6.277 -0.1124 -0.0119  0.1300
  568ntf    nn3 2838   0.293   2.486   6.180 -0.0522 -0.1008  0.0015
  568ntf    sn2 2839   0.327   2.618   6.103 -0.0849  0.0089  0.1752
  568ntf    cn1 2840   0.298   2.732   6.242  0.1803 -0.1767  0.3827
  568ntf    fn4 2841   0.285   2.188   6.173  0.3233  0.1822 -0.4366
  568ntf    fn4 2842   0.420   2.170   6.333 -0.0420 -0.1592  0.0379
  568ntf    fn4 2843   0.223   2.254   6.366 -0.2950 -0.5769 -0.6631
  568ntf    on5 2844   0.396   2.457   6.415 -0.5936  0.6179 -0.0494
  568ntf    on5 2845   0.525   2.392   6.216 -0.1814  0.7929 -0.3670
  568ntf    on5 2846   0.238   2.662   5.999 -0.3327 -0.4927  0.1732
  568ntf    on5 2847   0.469   2.633   6.079  0.0105 -0.2130  0.5941
  568ntf    fn4 2848   0.384   2.697   6.337  0.7079  0.0476 -0.0088
  568ntf    fn4 2849   0.338   2.856   6.223 -0.5993 -0.0030 -0.1916
  568ntf    fn4 2850   0.177   2.731   6.295  0.0754  0.3427  0.1557
  569ntf    cn1 2851   0.339   0.326   2.585  0.0096 -0.3089  0.1492
  569ntf    sn2 2852   0.299   0.399   2.747  0.4441  0.1546  0.0492
  569ntf    nn3 2853   0.412   0.346   2.842  0.3682 -0.4226 -0.1757
  569ntf    sn2 2854   0.425   0.213   2.924  0.3521 -0.1844  0.2150
  569ntf    cn1 2855   0.389   0.252   3.098  0.1844  0.1288  0.1113
  569ntf    fn4 2856   0.460   0.364   2.547 -0.0681  0.2050  0.4053
  569ntf    fn4 2857   0.334   0.194   2.571 -0.2708 -0.2174 -0.7052
  569ntf    fn4 2858   0.263   0.377   2.489  0.1816 -0.4121 -0.0413
  569ntf    on5 2859   0.305   0.542   2.727 -0.0236  0.1801  0.0718
  569ntf    on5 2860   0.171   0.342   2.781  0.6896 -0.4469 -0.0135
  569ntf    on5 2861   0.563   0.176   2.941  0.4314  0.1231  0.2445
  569ntf    on5 2862   0.335   0.110   2.879  0.0735  0.1266  0.0549
  569ntf    fn4 2863   0.292   0.342   3.106  0.3088  0.2832 -0.1287
  569ntf    fn4 2864   0.348   0.148   3.170  0.0798 -0.4000 -0.6986
  569ntf    fn4 2865   0.501   0.287   3.159  0.5298  0.2456 -0.5796
  570ntf    cn1 2866   0.540   2.352   4.833  0.0634 -0.2029  0.3328
  570ntf    sn2 2867   0.573   2.173   4.831 -0.0240 -0.2174  0.1864
  570ntf    nn3 2868   0.680   2.151   4.944  0.1401 -0.0624  0.0631
  570ntf    sn2 2869   0.669   2.096   5.091  0.0362 -0.2817 -0.0259
  570ntf    cn1 2870   0.821   1.999   5.112  0.3024  0.0308 -0.4903
  570ntf    fn4 2871   0.650   2.424   4.844  0.2898 -0.4954  0.0338
  570ntf    fn4 2872   0.472   2.388   4.725  0.2434  0.1417  0.3328
  570ntf    fn4 2873   0.475   2.391   4.941  0.3762 -0.2662  0.5425
  570ntf    on5 2874   0.441   2.117   4.846 -0.2340  0.0798 -0.5030
  570ntf    on5 2875   0.641   2.151   4.705  0.3977  0.0363  0.3677
  570ntf    on5 2876   0.568   1.998   5.121 -0.0450  0.1161  1.0236
  570ntf    on5 2877   0.674   2.204   5.186 -0.4576 -0.0824 -0.2247
  570ntf    fn4 2878   0.941   2.050   5.089  0.1366  0.4670 -0.3944
  570ntf    fn4 2879   0.828   1.950   5.235  0.4341 -0.1400 -0.5650
  570ntf    fn4 2880   0.812   1.893   5.032  0.1947 -0.3509  0.0229
  571ntf    cn1 2881   1.902   0.909   4.574 -0.0509  0.0423  0.0131
  571ntf    sn2 2882   1.939   0.867   4.401 -0.0130 -0.2415  0.0896
  571ntf    nn3 2883   1.794   0.826   4.355 -0.2423  0.6199  0.0360
  571ntf    sn2 2884   1.729   0.865   4.217 -0.5474 -0.3576 -0.1014
  571ntf    cn1 2885   1.608   0.729   4.211 -0.8714 -0.0647 -0.2171
  571ntf    fn4 2886   2.008   0.963   4.632 -0.0326 -0.0395  0.0561
  571ntf    fn4 2887   1.811   1.005   4.579 -0.6314 -0.4771 -0.4736
  571ntf    fn4 2888   1.853   0.811   4.649 -0.4259  0.1676 -0.0665
  571ntf    on5 2889   2.000   0.984   4.345 -0.1905 -0.3723 -0.3866
  571ntf    on5 2890   2.035   0.759   4.411  0.5661  0.2127 -0.4978
  571ntf    on5 2891   1.817   0.841   4.105  0.0349 -0.4552  0.3689
  571ntf    on5 2892   1.652   0.986   4.213 -0.3439 -0.2218  0.0365
  571ntf    fn4 2893   1.522   0.768   4.118 -0.7751 -0.2453 -0.3827
  571ntf    fn4 2894   1.666   0.614   4.182  0.0472  0.1273  0.8118
  571ntf    fn4 2895   1.543   0.709   4.324 -0.4753 -0.0014  0.0241
  572ntf    cn1 2896   1.929   1.946   6.234  0.2981 -0.1849  0.0549
  572ntf    sn2 2897   2.002   1.929   6.069  0.1817 -0.3932  0.0255
  572ntf    nn3 2898   1.965   2.071   6.015 -0.0851 -0.2041  0.6973
  572ntf    sn2 2899   1.843   2.116   5.926  0.2766 -0.3988  0.0936
  572ntf    cn1 2900   1.928   2.243   5.827 -0.1573 -0.2367 -0.0715
  572ntf    fn4 2901   1.972   2.058   6.291 -0.0558 -0.0434  0.0457
  572ntf    fn4 2902   1.797   1.945   6.237  0.3084 -0.2334  0.5463
  572ntf    fn4 2903   1.974   1.853   6.317 -0.3170  0.0619  0.6812
  572ntf    on5 2904   2.143   1.925   6.096  0.2167 -0.2029 -0.1241
  572ntf    on5 2905   1.945   1.809   6.013 -0.0568  0.1251 -0.8594
  572ntf    on5 2906   1.740   2.185   6.000  0.1793 -0.5866  0.1330
  572ntf    on5 2907   1.805   2.024   5.822  0.1661 -0.2009 -0.0411
  572ntf    fn4 2908   1.849   2.287   5.731  0.1530  0.3106 -0.0751
  572ntf    fn4 2909   1.967   2.351   5.892  0.2373 -0.4649  0.0721
  572ntf    fn4 2910   2.037   2.198   5.767  0.1406 -0.1275  0.3853
  573ntf    cn1 2911   0.191   1.492   4.560  0.4385  0.1013 -0.1235
  573ntf    sn2 2912   0.020   1.546   4.586  0.5321  0.4007 -0.1272
  573ntf    nn3 2913  -0.040   1.426   4.505  0.5316  0.0571  0.3776
  573ntf    sn2 2914  -0.150   1.329   4.560  0.2436  0.0878 -0.1367
  573ntf    cn1 2915  -0.050   1.189   4.619  0.3223 -0.1985 -0.9336
  573ntf    fn4 2916   0.281   1.575   4.610 -0.1301  0.5458  0.1668
  573ntf    fn4 2917   0.223   1.371   4.605  0.1336  0.0584 -0.0233
  573ntf    fn4 2918   0.217   1.481   4.431  0.1177 -0.1609 -0.1670
  573ntf    on5 2919   0.010   1.531   4.729 -0.3678  0.0306 -0.2203
  573ntf    on5 2920   0.007   1.682   4.541  0.7893  0.4792  0.0347
  573ntf    on5 2921  -0.209   1.260   4.448  0.2851  0.1060 -0.1690
  573ntf    on5 2922  -0.242   1.360   4.667  0.1648  0.8999 -0.4396
  573ntf    fn4 2923  -0.099   1.068   4.599  0.0466 -0.1613 -0.5077
  573ntf    fn4 2924   0.070   1.191   4.563  0.7788 -0.0096  0.0347
  573ntf    fn4 2925  -0.024   1.193   4.749 -0.4547  0.0775 -0.7810
  574ntf    cn1 2926   0.545   2.057   2.025  0.0936  0.4779  0.4470
  574ntf    sn2 2927   0.677   2.108   1.910  0.0815 -0.7058 -0.1031
  574ntf    nn3 2928   0.788   1.997   1.914  0.9019  0.0921 -0.3877
  574ntf    sn2 2929   0.870   1.950   2.039  0.2854  0.0200 -0.0046
  574ntf    cn1 2930   1.031   1.965   1.955  0.3228 -0.2034  0.0262
  574ntf    fn4 2931   0.573   2.062   2.154  0.2060 -0.1458  0.4467
  574ntf    fn4 2932   0.438   2.135   2.015  0.3410  0.7761  0.0466
  574ntf    fn4 2933   0.506   1.935   1.995 -0.2881  0.6895  0.0766
  574ntf    on5 2934   0.614   2.112   1.780 -0.1915  0.5874  0.0566
  574ntf    on5 2935   0.707   2.237   1.967 -0.5134 -0.3620 -0.5489
  574ntf    on5 2936   0.857   1.807   2.059 -0.3029  0.1105  0.2760
  574ntf    on5 2937   0.880   2.041   2.150  0.0020  0.1770 -0.1067
  574ntf    fn4 2938   1.029   1.913   1.833 -0.0525  0.1115 -0.1054
  574ntf    fn4 2939   1.075   2.089   1.950  0.0162 -0.1080 -0.4780
  574ntf    fn4 2940   1.126   1.891   2.010 -0.0700 -0.4925  0.3251
  575ntf    cn1 2941   1.271   0.594   2.126  0.0079 -0.3660 -0.4031
  575ntf    sn2 2942   1.219   0.589   2.301 -0.1146  0.1034 -0.4239
  575ntf    nn3 2943   1.348   0.611   2.387 -0.5494  0.3492  0.1721
  575ntf    sn2 2944   1.434   0.740   2.415  0.0037  0.0054  0.0851
  575ntf    cn1 2945   1.591   0.675   2.480 -0.0662  0.0044  0.2548
  575ntf    fn4 2946   1.343   0.490   2.089  0.3007 -0.2440 -0.1851
  575ntf    fn4 2947   1.174   0.603   2.037  0.0552 -0.2347 -0.4422
  575ntf    fn4 2948   1.345   0.700   2.098  0.6288 -0.5643  0.4469
  575ntf    on5 2949   1.123   0.697   2.309  0.1423  0.2956  0.0522
  575ntf    on5 2950   1.166   0.457   2.324 -0.1851  0.1391 -0.3806
  575ntf    on5 2951   1.377   0.819   2.521  0.2880 -0.1603  0.3629
  575ntf    on5 2952   1.462   0.815   2.295 -0.1107 -0.4840 -0.2534
  575ntf    fn4 2953   1.692   0.759   2.470 -0.1900  0.1781  0.4508
  575ntf    fn4 2954   1.574   0.646   2.607 -1.0485  0.5245  0.2521
  575ntf    fn4 2955   1.637   0.567   2.419  0.0117  0.1557  0.0424
  576ntf    cn1 2956   1.869   2.253   0.586  0.3019  0.4721  0.1619
  576ntf    sn2 2957   1.868   2.266   0.405 -0.1523  0.1374  0.1394
  576ntf    nn3 2958   1.765   2.159   0.353 -0.0170  0.4263 -0.7504
  576ntf    sn2 2959   1.617   2.195   0.313 -0.1677  0.4509 -0.1908
  576ntf    cn1 2960   1.548   2.038   0.372  0.4074  0.2224 -0.1137
  576ntf    fn4 2961   1.907   2.133   0.627  0.3357  0.3285 -0.2891
  576ntf    fn4 2962   1.955   2.336   0.643  0.5196  0.6009 -0.3487
  576ntf    fn4 2963   1.748   2.272   0.636  0.0994 -0.2221 -0.0566
  576ntf    on5 2964   1.834   2.404   0.383  0.0588  0.1152 -0.3382
  576ntf    on5 2965   2.005   2.224   0.387 -0.3271 -0.3418 -0.1018
  576ntf    on5 2966   1.580   2.195   0.174 -0.5633  0.6383 -0.0856
  576ntf    on5 2967   1.554   2.298   0.392 -0.2461  0.2351  0.0291
  576ntf    fn4 2968   1.428   2.017   0.320  0.3755 -0.2082  0.1264
  576ntf    fn4 2969   1.620   1.934   0.335  0.2501  0.0440  0.0777
  576ntf    fn4 2970   1.532   2.040   0.503 -0.6811  0.4389 -0.2383
  577ntf    cn1 2971   1.812   0.657   6.541 -0.1899 -0.0774 -0.3020
  577ntf    sn2 2972   1.665   0.590   6.625 -0.1563  0.3813  0.1313
  577ntf    nn3 2973   1.615   0.495   6.510  0.3804  0.0723  0.1486
  577ntf    sn2 2974   1.621   0.339   6.501  0.2906  0.0597  0.2996
  577ntf    cn1 2975   1.725   0.319   6.353  0.1100 -0.2409  0.2122
  577ntf    fn4 2976   1.903   0.573   6.496  0.4020  0.4683 -0.1431
  577ntf    fn4 2977   1.776   0.738   6.442  0.1302  0.3619 -0.0608
  577ntf    fn4 2978   1.880   0.728   6.629 -0.6895 -0.2286  0.2173
  577ntf    on5 2979   1.718   0.536   6.747 -0.5400  0.2395  0.2350
  577ntf    on5 2980   1.575   0.702   6.636  0.3485  0.8015  0.0019
  577ntf    on5 2981   1.499   0.272   6.464 -0.0548  0.6221  0.4130
  577ntf    on5 2982   1.705   0.262   6.590 -0.1580 -0.2689  0.4448
  577ntf    fn4 2983   1.750   0.191   6.331  0.5517 -0.1183 -0.0042
  577ntf    fn4 2984   1.678   0.364   6.238  0.4760 -1.0293 -0.2484
  577ntf    fn4 2985   1.851   0.359   6.361  0.2883 -0.7523 -0.0447
  578ntf    cn1 2986   1.316   2.255   5.765 -0.3113  0.1759  0.6100
  578ntf    sn2 2987   1.252   2.094   5.709  0.0468  0.1757  0.1961
  578ntf    nn3 2988   1.144   2.138   5.604  0.3217 -0.2151 -0.2558
  578ntf    sn2 2989   0.988   2.153   5.615  0.3576  0.0780 -0.1192
  578ntf    cn1 2990   0.953   2.263   5.474 -0.0562  0.2165  0.0919
  578ntf    fn4 2991   1.229   2.302   5.852 -0.8326  0.2914  0.0340
  578ntf    fn4 2992   1.419   2.234   5.846 -0.6102  0.1117  0.9774
  578ntf    fn4 2993   1.346   2.347   5.675 -0.4965 -0.1197  0.2427
  578ntf    on5 2994   1.363   2.026   5.646 -0.1363 -0.1704  0.2486
  578ntf    on5 2995   1.207   2.034   5.831  0.1402 -0.0849  0.1035
  578ntf    on5 2996   0.946   2.237   5.724 -0.3011 -0.4372  0.0326
  578ntf    on5 2997   0.914   2.035   5.577  0.4205 -0.0846  0.2621
  578ntf    fn4 2998   0.821   2.278   5.467 -0.0459  0.2256 -0.0800
  578ntf    fn4 2999   1.007   2.383   5.488  0.3722  0.0172  0.1566
  578ntf    fn4 3000   0.977   2.206   5.357 -0.1584 -0.1640  0.2530
  579ntf    cn1 3001   1.098   1.499   4.822  0.2292 -0.0007 -0.1900
  579ntf    sn2 3002   1.175   1.400   4.953  0.0002  0.1910  0.0888
  579ntf    nn3 3003   1.101   1.266   4.922  0.6656 -0.1617  0.0011
  579ntf    sn2 3004   1.132   1.127   4.989 -0.2188 -0.3264  0.0866
  579ntf    cn1 3005   1.233   1.053   4.857 -0.0451  0.3960 -0.1927
  579ntf    fn4 3006   0.966   1.502   4.822  0.2342  0.2875 -0.2083
  579ntf    fn4 3007   1.148   1.622   4.832  0.5788 -0.1375 -0.2288
  579ntf    fn4 3008   1.126   1.458   4.699 -0.0057  0.2015 -0.3128
  579ntf    on5 3009   1.313   1.403   4.910 -0.0339  0.4226 -0.0083
  579ntf    on5 3010   1.140   1.476   5.071 -0.0785 -0.0454  0.2162
  579ntf    on5 3011   1.010   1.052   5.004 -0.6504  0.3493 -0.0191
  579ntf    on5 3012   1.221   1.131   5.102 -0.6346  0.2798  0.3968
  579ntf    fn4 3013   1.204   1.118   4.746 -0.5351  0.3732 -0.0822
  579ntf    fn4 3014   1.361   1.074   4.882 -0.0755  0.3761 -0.0153
  579ntf    fn4 3015   1.217   0.923   4.835 -0.0008  0.2963  0.3444
  580ntf    cn1 3016   0.667   1.112   3.486  0.0237  0.0383 -0.2293
  580ntf    sn2 3017   0.698   1.029   3.328  0.1500  0.3085 -0.3469
  580ntf    nn3 3018   0.787   1.132   3.249  0.2778  0.1855 -0.3654
  580ntf    sn2 3019   0.781   1.208   3.112  0.3003  0.0881 -0.4207
  580ntf    cn1 3020   0.699   1.363   3.162  0.3022 -0.0819  0.1207
  580ntf    fn4 3021   0.775   1.118   3.563 -0.4506 -0.2120  0.4708
  580ntf    fn4 3022   0.623   1.236   3.477  0.0371  0.0529 -0.0940
  580ntf    fn4 3023   0.574   1.051   3.557  0.1654  0.2428  0.1332
  580ntf    on5 3024   0.775   0.913   3.365 -0.8668 -0.1836  0.2571
  580ntf    on5 3025   0.566   1.018   3.272 -0.1777  0.4024  0.4073
  580ntf    on5 3026   0.696   1.148   3.013 -0.0855 -0.1016  0.0220
  580ntf    on5 3027   0.913   1.243   3.065  0.2261  0.2083 -0.5402
  580ntf    fn4 3028   0.574   1.336   3.193  0.1786  0.2575 -0.0707
  580ntf    fn4 3029   0.766   1.419   3.261  0.3509  0.1606 -0.0478
  580ntf    fn4 3030   0.696   1.455   3.066  0.6030 -0.4776 -0.2733
  581ntf    cn1 3031   0.826   1.488   2.372 -0.1869  0.1535  0.0455
  581ntf    sn2 3032   0.852   1.309   2.364  0.0026  0.1803  0.0592
  581ntf    nn3 3033   1.008   1.296   2.362 -0.0113 -0.0348  0.3433
  581ntf    sn2 3034   1.109   1.318   2.244 -0.2192 -0.5430  0.0707
  581ntf    cn1 3035   1.190   1.469   2.304 -0.1675 -0.4155 -0.3176
  581ntf    fn4 3036   0.701   1.520   2.404 -0.1164  0.4617  0.0189
  581ntf    fn4 3037   0.893   1.541   2.474  0.4912 -0.9803  0.2031
  581ntf    fn4 3038   0.859   1.548   2.259  0.4823  0.2385  0.2814
  581ntf    on5 3039   0.798   1.253   2.485  0.0687  0.4449  0.2111
  581ntf    on5 3040   0.793   1.265   2.239 -0.2352 -0.5262  0.4115
  581ntf    on5 3041   1.048   1.361   2.120  0.3537 -0.4091 -0.1702
  581ntf    on5 3042   1.219   1.226   2.237  0.8589  0.7198  0.0847
  581ntf    fn4 3043   1.272   1.522   2.214 -0.6720  0.0754 -0.4940
  581ntf    fn4 3044   1.101   1.565   2.324  0.7263  0.3942 -0.1085
  581ntf    fn4 3045   1.248   1.462   2.423  0.4428 -0.2540 -0.5990
  582ntf    cn1 3046   0.764   1.970   5.917 -0.0955 -0.1203 -0.3206
  582ntf    sn2 3047   0.637   1.914   6.034  0.0122 -0.1202 -0.2033
  582ntf    nn3 3048   0.718   1.856   6.156 -0.1052  0.1644  0.0116
  582ntf    sn2 3049   0.772   1.710   6.173 -0.3536  0.0702 -0.0039
  582ntf    cn1 3050   0.787   1.701   6.354 -0.1199  0.0919 -0.0207
  582ntf    fn4 3051   0.852   2.061   5.957  0.1716 -0.7894  0.6639
  582ntf    fn4 3052   0.827   1.860   5.880 -0.5886 -0.5691  0.1530
  582ntf    fn4 3053   0.709   2.016   5.806  0.0716  0.7210 -0.0619
  582ntf    on5 3054   0.559   2.029   6.073  1.0930  0.4654  0.2557
  582ntf    on5 3055   0.567   1.820   5.950 -0.8926  0.2054  0.1676
  582ntf    on5 3056   0.906   1.693   6.121 -0.4622 -0.4354 -0.1262
  582ntf    on5 3057   0.677   1.608   6.135  0.4027 -0.8377  0.5043
  582ntf    fn4 3058   0.893   1.770   6.393  0.0717 -0.6128  0.7390
  582ntf    fn4 3059   0.681   1.750   6.417 -0.2511 -0.0097 -0.1602
  582ntf    fn4 3060   0.810   1.579   6.399 -0.2540  0.0961  0.0588
  583ntf    cn1 3061   2.086   1.288   5.235  0.0468  0.3039  0.5068
  583ntf    sn2 3062   1.907   1.271   5.210  0.2013 -0.2544 -0.2359
  583ntf    nn3 3063   1.900   1.261   5.053 -0.5243 -0.3006 -0.2064
  583ntf    sn2 3064   1.862   1.129   4.977 -0.3409 -0.3359 -0.2363
  583ntf    cn1 3065   1.682   1.117   5.001 -0.2975 -0.4106  0.0637
  583ntf    fn4 3066   2.148   1.172   5.245 -0.2568  0.1225  0.2927
  583ntf    fn4 3067   2.135   1.354   5.132 -0.4008 -0.1960 -0.0320
  583ntf    fn4 3068   2.122   1.355   5.344  0.6348 -0.0915  0.5565
  583ntf    on5 3069   1.859   1.161   5.291  0.0873  0.0975  0.1785
  583ntf    on5 3070   1.853   1.401   5.242  0.8650  0.0037 -0.1527
  583ntf    on5 3071   1.915   1.012   5.044  0.3213 -0.0816 -0.3127
  583ntf    on5 3072   1.891   1.148   4.837 -0.0745 -0.3486 -0.1845
  583ntf    fn4 3073   1.651   1.055   5.113 -0.6025 -0.2290  0.0793
  583ntf    fn4 3074   1.614   1.231   4.999 -0.0977 -0.2954 -0.2694
  583ntf    fn4 3075   1.631   1.039   4.907  0.3353 -0.5138 -0.2045
  584ntf    cn1 3076   2.287   2.246   4.899 -0.3725  0.1627 -0.0143
  584ntf    sn2 3077   2.196   2.092   4.929  0.0716 -0.0761  0.1146
  584ntf    nn3 3078   2.165   2.104   5.083  0.0880 -0.0866  0.1189
  584ntf    sn2 3079   2.031   2.108   5.164  0.0652  0.3474  0.0624
  584ntf    cn1 3080   2.011   2.279   5.220 -0.0968  0.3658 -0.0510
  584ntf    fn4 3081   2.416   2.229   4.878 -0.2968  0.9069 -0.1963
  584ntf    fn4 3082   2.238   2.311   4.794 -0.5842 -0.2786 -0.1941
  584ntf    fn4 3083   2.279   2.329   5.001  0.1859  0.3234 -0.1008
  584ntf    on5 3084   2.088   2.094   4.834  0.2586  0.0197 -0.0948
  584ntf    on5 3085   2.292   1.991   4.891  0.4652  0.4800 -0.3741
  584ntf    on5 3086   2.050   2.034   5.287 -0.4779  0.9166  0.4917
  584ntf    on5 3087   1.912   2.077   5.089  0.3521  0.5077 -0.4651
  584ntf    fn4 3088   2.100   2.292   5.317  0.4335  0.6315 -0.5638
  584ntf    fn4 3089   2.029   2.376   5.131  0.5225 -0.0199 -0.3519
  584ntf    fn4 3090   1.888   2.284   5.268  0.0375  0.3232  0.2994
  585ntf    cn1 3091   1.324   0.554   3.562 -0.3921 -0.1739 -0.1334
  585ntf    sn2 3092   1.430   0.676   3.646 -0.2507 -0.0592 -0.4743
  585ntf    nn3 3093   1.572   0.613   3.623 -0.0596  0.4303 -0.6291
  585ntf    sn2 3094   1.708   0.669   3.678 -0.0457  0.0786 -0.3002
  585ntf    cn1 3095   1.729   0.584   3.837  0.2109  0.2187 -0.2574
  585ntf    fn4 3096   1.303   0.443   3.632 -0.2514  0.1710  0.4638
  585ntf    fn4 3097   1.205   0.609   3.547 -0.1616  0.5990  0.7443
  585ntf    fn4 3098   1.377   0.522   3.445 -0.4633 -0.2262 -0.1512
  585ntf    on5 3099   1.406   0.798   3.574 -0.3778  0.0212 -0.2954
  585ntf    on5 3100   1.388   0.668   3.784 -0.1078 -0.2314 -0.4396
  585ntf    on5 3101   1.705   0.811   3.705 -0.1229  0.0490 -0.1549
  585ntf    on5 3102   1.831   0.624   3.616  0.4888  0.3354  0.5597
  585ntf    fn4 3103   1.710   0.453   3.828  0.1178  0.2071  0.1106
  585ntf    fn4 3104   1.847   0.600   3.894 -0.3041  0.2561  0.8172
  585ntf    fn4 3105   1.640   0.630   3.924 -0.0666 -0.6932 -0.0509
  586ntf    cn1 3106   2.439   1.942   6.911  0.0716 -0.2449  0.0354
  586ntf    sn2 3107   2.403   1.839   6.766 -0.3279 -0.0387 -0.0139
  586ntf    nn3 3108   2.267   1.774   6.809 -0.3203  0.1880  0.3568
  586ntf    sn2 3109   2.259   1.655   6.912 -0.0314 -0.0297  0.1308
  586ntf    cn1 3110   2.106   1.714   6.991 -0.2751 -0.5269  0.0358
  586ntf    fn4 3111   2.367   1.920   7.020 -0.1816  0.3632 -0.0051
  586ntf    fn4 3112   2.566   1.932   6.945  0.2142  0.4675 -0.2692
  586ntf    fn4 3113   2.422   2.069   6.877 -0.2961 -0.2801  0.0860
  586ntf    on5 3114   2.398   1.933   6.657 -0.0771 -0.3375 -0.2852
  586ntf    on5 3115   2.510   1.742   6.761  0.0249  0.3295  0.2832
  586ntf    on5 3116   2.359   1.655   7.016  0.6311 -0.3891 -0.4963
  586ntf    on5 3117   2.216   1.532   6.850 -0.5862  0.2667 -0.0798
  586ntf    fn4 3118   2.124   1.829   7.054 -0.3458 -0.6801  0.3375
  586ntf    fn4 3119   2.007   1.741   6.908 -0.3133 -0.0653  0.2272
  586ntf    fn4 3120   2.050   1.634   7.079 -0.4991 -0.4175 -0.0063
  587ntf    cn1 3121   0.885   0.872   4.287 -0.1019  0.1783  0.2146
  587ntf    sn2 3122   0.870   0.692   4.263  0.2186  0.1759  0.0273
  587ntf    nn3 3123   1.011   0.655   4.204  0.3452  0.0260  0.4220
  587ntf    sn2 3124   1.053   0.511   4.157  0.0208  0.1274 -0.1898
  587ntf    cn1 3125   1.211   0.501   4.248 -0.1287  0.0784  0.0652
  587ntf    fn4 3126   0.980   0.907   4.373 -0.2294  0.3843  0.2713
  587ntf    fn4 3127   0.922   0.920   4.170  0.1869 -0.6364 -0.0380
  587ntf    fn4 3128   0.777   0.937   4.327 -0.1396  0.2198  0.0452
  587ntf    on5 3129   0.852   0.658   4.402 -0.0871  0.2746  0.0113
  587ntf    on5 3130   0.759   0.672   4.173  0.1810 -0.6233  0.2471
  587ntf    on5 3131   1.082   0.511   4.016  0.5536 -0.3214 -0.0854
  587ntf    on5 3132   0.983   0.397   4.211  0.2198  0.2083  0.2456
  587ntf    fn4 3133   1.282   0.399   4.203 -0.2854 -0.1635  0.3628
  587ntf    fn4 3134   1.291   0.606   4.238 -0.2740  0.2362  0.5565
  587ntf    fn4 3135   1.206   0.481   4.378  0.0629 -0.5299 -0.0170
  588ntf    cn1 3136   0.197   0.895   0.948  0.0295  0.2542  0.0193
  588ntf    sn2 3137   0.282   0.979   0.811  0.0494  0.2526  0.0308
  588ntf    nn3 3138   0.422   1.011   0.875  0.0954 -0.3858  0.2575
  588ntf    sn2 3139   0.567   0.954   0.852  0.1921 -0.1445  0.2690
  588ntf    cn1 3140   0.619   1.060   0.714  0.1226 -0.3938  0.0513
  588ntf    fn4 3141   0.282   0.813   1.008 -0.7171 -0.6076 -0.0810
  588ntf    fn4 3142   0.169   0.980   1.045 -0.4649 -0.3557  0.4219
  588ntf    fn4 3143   0.085   0.834   0.912  0.0042  0.1350  0.2991
  588ntf    on5 3144   0.282   0.886   0.701  0.1878  0.4964 -0.1760
  588ntf    on5 3145   0.201   1.097   0.791  0.1177  0.2342 -0.3572
  588ntf    on5 3146   0.570   0.823   0.792  0.4911 -0.0540  0.0836
  588ntf    on5 3147   0.650   0.987   0.965  0.3665 -0.0461  0.1131
  588ntf    fn4 3148   0.603   1.188   0.746 -0.2442 -0.3836 -0.1611
  588ntf    fn4 3149   0.744   1.043   0.675  0.1033 -0.3431 -0.0333
  588ntf    fn4 3150   0.549   1.037   0.604  0.8700 -0.0010 -0.5133
  589ntf    cn1 3151   1.595   1.908   1.744  0.3949 -0.3461 -0.2045
  589ntf    sn2 3152   1.624   2.083   1.783  0.0453 -0.3409  0.0389
  589ntf    nn3 3153   1.749   2.126   1.698  0.0234 -0.1923  0.0812
  589ntf    sn2 3154   1.886   2.195   1.732  0.0683 -0.1320 -0.2186
  589ntf    cn1 3155   1.996   2.055   1.769  0.2579  0.0537 -0.0793
  589ntf    fn4 3156   1.501   1.854   1.820  0.2705 -0.5828 -0.5224
  589ntf    fn4 3157   1.562   1.883   1.618 -0.1334  0.2446 -0.1878
  589ntf    fn4 3158   1.705   1.840   1.771  0.1473 -0.6110  0.1388
  589ntf    on5 3159   1.502   2.140   1.731  0.1509 -0.0299  0.1258
  589ntf    on5 3160   1.651   2.097   1.924 -0.5504  0.4469  0.0815
  589ntf    on5 3161   1.895   2.291   1.839  1.3421 -0.1120 -0.3307
  589ntf    on5 3162   1.945   2.246   1.611 -0.5456 -0.2468 -0.5719
  589ntf    fn4 3163   2.058   2.011   1.661  0.2512  0.1024 -0.1034
  589ntf    fn4 3164   2.088   2.094   1.855  0.0557  0.5280 -0.0737
  589ntf    fn4 3165   1.927   1.957   1.823 -0.1300 -0.0730 -0.7892
  590ntf    cn1 3166   2.054   1.488   2.695 -0.4990  0.1817  0.0740
  590ntf    sn2 3167   2.151   1.579   2.819 -0.1613 -0.2098  0.0968
  590ntf    nn3 3168   2.037   1.636   2.910  0.2770  0.4870  0.2165
  590ntf    sn2 3169   1.961   1.556   3.022 -0.2493  0.0065 -0.4727
  590ntf    cn1 3170   2.070   1.555   3.168 -0.4441  0.1703 -0.3257
  590ntf    fn4 3171   2.139   1.453   2.599 -0.2379  0.2102  0.2931
  590ntf    fn4 3172   2.002   1.375   2.738 -0.3933  0.2074  0.2726
  590ntf    fn4 3173   1.954   1.556   2.641 -0.3419  0.3000 -0.0727
  590ntf    on5 3174   2.226   1.475   2.886 -0.3634 -0.5157 -0.1500
  590ntf    on5 3175   2.213   1.685   2.744  0.5584 -0.3758  0.4392
  590ntf    on5 3176   1.922   1.418   3.003 -0.7523  0.0170  0.4508
  590ntf    on5 3177   1.850   1.633   3.071 -0.3831 -0.6977  0.3441
  590ntf    fn4 3178   2.032   1.656   3.244  0.0066  0.1610 -0.0888
  590ntf    fn4 3179   2.045   1.450   3.243  0.1597 -0.0000 -0.3584
  590ntf    fn4 3180   2.199   1.563   3.141 -0.3954 -0.3150 -0.2454
  591ntf    cn1 3181   1.770   0.756   5.420  0.1904 -0.1409  0.2522
  591ntf    sn2 3182   1.594   0.754   5.467  0.0700 -0.4096 -0.1926
  591ntf    nn3 3183   1.613   0.716   5.618 -0.1585  0.3824  0.0424
  591ntf    sn2 3184   1.630   0.570   5.674 -0.0272  0.2530 -0.3355
  591ntf    cn1 3185   1.774   0.603   5.781  0.0607 -0.2194 -0.3041
  591ntf    fn4 3186   1.834   0.650   5.466 -0.1329 -0.3189  0.2948
  591ntf    fn4 3187   1.798   0.749   5.291 -0.1494  0.3596  0.1522
  591ntf    fn4 3188   1.839   0.858   5.467 -0.1173  0.0701  0.2489
  591ntf    on5 3189   1.553   0.891   5.444  0.1069 -0.3523  0.0735
  591ntf    on5 3190   1.539   0.653   5.381 -0.1413 -0.0280 -0.5064
  591ntf    on5 3191   1.664   0.471   5.574  0.0215  0.1952 -0.2615
  591ntf    on5 3192   1.523   0.547   5.767  0.2381  0.4914  0.0328
  591ntf    fn4 3193   1.867   0.655   5.702 -0.0400  0.1026 -0.2136
  591ntf    fn4 3194   1.735   0.693   5.869  0.0868 -0.0299 -0.4839
  591ntf    fn4 3195   1.830   0.505   5.848  0.0291 -0.0275  0.0051
  592ntf    cn1 3196   2.472   1.571   2.528  0.0792  0.4909 -0.1070
  592ntf    sn2 3197   2.586   1.442   2.586 -0.1271  0.2275 -0.2878
  592ntf    nn3 3198   2.608   1.379   2.444  0.2839 -0.1201 -0.0756
  592ntf    sn2 3199   2.726   1.420   2.349  0.2337 -0.1479 -0.1500
  592ntf    cn1 3200   2.865   1.326   2.418  0.4292 -0.0655 -0.4278
  592ntf    fn4 3201   2.454   1.674   2.609 -0.3530  0.1604  0.2219
  592ntf    fn4 3202   2.516   1.618   2.412 -0.0256 -0.1624 -0.4159
  592ntf    fn4 3203   2.354   1.515   2.506  0.3858 -0.1674 -0.1087
  592ntf    on5 3204   2.690   1.517   2.651  0.1428 -0.2856 -0.1174
  592ntf    on5 3205   2.503   1.359   2.670  0.2170 -0.2190 -0.3847
  592ntf    on5 3206   2.765   1.558   2.360  0.0515 -0.1206  0.1785
  592ntf    on5 3207   2.736   1.361   2.217  0.3733  0.5320 -0.4479
  592ntf    fn4 3208   2.884   1.356   2.546 -0.2002 -0.6114 -0.2017
  592ntf    fn4 3209   2.840   1.198   2.437 -0.5565  0.2000  0.1704
  592ntf    fn4 3210   2.978   1.337   2.351  0.6471 -0.2356 -0.0919
  593ntf    cn1 3211   1.397   1.175   0.186 -0.2438  0.1702 -0.2185
  593ntf    sn2 3212   1.284   1.204   0.047 -0.4393  0.3689 -0.0183
  593ntf    nn3 3213   1.299   1.356   0.011  0.1838  0.4353  0.4936
  593ntf    sn2 3214   1.188   1.467   0.026 -0.4966 -0.1803  0.0837
  593ntf    cn1 3215   1.229   1.526   0.193 -0.4063  0.3598 -0.1294
  593ntf    fn4 3216   1.371   1.248   0.293  0.2755  0.1546 -0.0762
  593ntf    fn4 3217   1.398   1.046   0.219 -0.2956  0.2164 -0.0329
  593ntf    fn4 3218   1.521   1.204   0.149 -0.0606  0.5700  0.6845
  593ntf    on5 3219   1.328   1.109  -0.052  0.5551  1.1189 -0.3080
  593ntf    on5 3220   1.161   1.166   0.112 -0.5416  0.3449 -0.2256
  593ntf    on5 3221   1.051   1.424   0.035 -0.6730  0.3197 -0.1784
  593ntf    on5 3222   1.223   1.577  -0.060 -0.2991 -0.4905 -0.2356
  593ntf    fn4 3223   1.203   1.437   0.287 -0.2187  0.4327 -0.0073
  593ntf    fn4 3224   1.355   1.561   0.211 -0.4806  0.5637 -0.0022
  593ntf    fn4 3225   1.172   1.642   0.222  0.2532  0.6232  0.1379
  594ntf    cn1 3226   0.468   0.547   5.939  0.2850  0.0117 -0.1200
  594ntf    sn2 3227   0.523   0.496   5.773  0.1644 -0.2725 -0.0724
  594ntf    nn3 3228   0.384   0.487   5.700  0.3812 -0.3015 -0.4800
  594ntf    sn2 3229   0.337   0.530   5.556 -0.1455  0.2061 -0.1597
  594ntf    cn1 3230   0.305   0.708   5.568 -0.4680  0.1376  0.0265
  594ntf    fn4 3231   0.565   0.577   6.024  0.1820  0.0575 -0.0188
  594ntf    fn4 3232   0.415   0.667   5.920  0.2501 -0.1129 -0.8378
  594ntf    fn4 3233   0.375   0.478   6.002  0.4003 -0.2409 -0.2245
  594ntf    on5 3234   0.605   0.608   5.735  0.7212 -0.4056  0.7172
  594ntf    on5 3235   0.585   0.367   5.789  0.0087 -0.2611  0.6920
  594ntf    on5 3236   0.209   0.471   5.521 -0.0700 -0.0511 -0.0085
  594ntf    on5 3237   0.444   0.516   5.461 -0.1284 -0.5647 -0.0341
  594ntf    fn4 3238   0.232   0.755   5.668 -1.0047 -0.0440 -0.2806
  594ntf    fn4 3239   0.421   0.773   5.571 -0.1171 -0.4870  0.1214
  594ntf    fn4 3240   0.244   0.757   5.462 -0.0872  0.5431 -0.0094
   2.50290   2.50290   6.99157
